# vtk DataFile Version 3.0
vtk output
ASCII
DATASET STRUCTURED_POINTS
DIMENSIONS 100 100 1
SPACING 1 1 1
ORIGIN 0 0 0
POINT_DATA 10000
SCALARS SFBox_profile double
LOOKUP_TABLE default 
0.000000e+000
0.000000e+000
0.000000e+000
0.000000e+000
0.000000e+000
0.000000e+000
0.000000e+000
0.000000e+000
0.000000e+000
0.000000e+000
0.000000e+000
0.000000e+000
0.000000e+000
0.000000e+000
0.000000e+000
0.000000e+000
0.000000e+000
0.000000e+000
0.000000e+000
0.000000e+000
0.000000e+000
0.000000e+000
0.000000e+000
0.000000e+000
0.000000e+000
0.000000e+000
0.000000e+000
0.000000e+000
0.000000e+000
0.000000e+000
0.000000e+000
0.000000e+000
0.000000e+000
0.000000e+000
0.000000e+000
0.000000e+000
0.000000e+000
0.000000e+000
0.000000e+000
0.000000e+000
0.000000e+000
0.000000e+000
0.000000e+000
0.000000e+000
0.000000e+000
0.000000e+000
0.000000e+000
0.000000e+000
0.000000e+000
0.000000e+000
0.000000e+000
0.000000e+000
0.000000e+000
0.000000e+000
0.000000e+000
0.000000e+000
0.000000e+000
0.000000e+000
0.000000e+000
0.000000e+000
0.000000e+000
0.000000e+000
0.000000e+000
0.000000e+000
0.000000e+000
0.000000e+000
0.000000e+000
0.000000e+000
0.000000e+000
0.000000e+000
0.000000e+000
0.000000e+000
0.000000e+000
0.000000e+000
0.000000e+000
0.000000e+000
0.000000e+000
0.000000e+000
0.000000e+000
0.000000e+000
0.000000e+000
0.000000e+000
0.000000e+000
0.000000e+000
0.000000e+000
0.000000e+000
0.000000e+000
0.000000e+000
0.000000e+000
0.000000e+000
0.000000e+000
0.000000e+000
0.000000e+000
0.000000e+000
0.000000e+000
0.000000e+000
0.000000e+000
0.000000e+000
0.000000e+000
0.000000e+000
6.532046e-010
5.398883e-010
4.148338e-010
4.157578e-010
6.303424e-010
1.052425e-009
1.613777e-009
2.258317e-009
2.981349e-009
3.785919e-009
4.586106e-009
5.128600e-009
4.968056e-009
3.469382e-009
-2.055550e-010
-7.131287e-009
-1.863772e-008
-3.628014e-008
-6.175325e-008
-9.676541e-008
-1.428941e-007
-2.014402e-007
-2.732985e-007
-3.588614e-007
-4.579722e-007
-5.699364e-007
-6.935859e-007
-8.273860e-007
-9.695645e-007
-1.118246e-006
-1.271578e-006
-1.427832e-006
-1.585478e-006
-1.743233e-006
-1.900076e-006
-2.055239e-006
-2.208182e-006
-2.358547e-006
-2.506114e-006
-2.650750e-006
-2.792359e-006
-2.930842e-006
-3.066061e-006
-3.197817e-006
-3.325832e-006
-3.449745e-006
-3.569102e-006
-3.683366e-006
-3.791913e-006
-3.894038e-006
-3.988954e-006
-4.075787e-006
-4.153572e-006
-4.221250e-006
-4.277658e-006
-4.321528e-006
-4.351490e-006
-4.366077e-006
-4.363748e-006
-4.342915e-006
-4.301985e-006
-4.239419e-006
-4.153804e-006
-4.043942e-006
-3.908957e-006
-3.748424e-006
-3.562506e-006
-3.352109e-006
-3.119026e-006
-2.866062e-006
-2.597109e-006
-2.317127e-006
-2.032028e-006
-1.748412e-006
-1.473185e-006
-1.213070e-006
-9.740645e-007
-7.609363e-007
-5.768244e-007
-4.230341e-007
-2.990562e-007
-2.028064e-007
-1.310288e-007
-7.978171e-008
-4.491617e-008
-2.247582e-008
-8.976306e-009
-1.555586e-009
1.989088e-009
3.247539e-009
3.292778e-009
2.796892e-009
2.144361e-009
1.529100e-009
1.029223e-009
6.595136e-010
4.052158e-010
2.420837e-010
1.472168e-010
1.040663e-010
4.628359e-010
4.740486e-010
5.186039e-010
6.446235e-010
9.101351e-010
1.345812e-009
1.931641e-009
2.609722e-009
3.302380e-009
3.884801e-009
4.104369e-009
3.489384e-009
1.287792e-009
-3.564361e-009
-1.246722e-008
-2.717673e-008
-4.979065e-008
-8.266723e-008
-1.282657e-007
-1.889273e-007
-2.666312e-007
-3.627652e-007
-4.779465e-007
-6.119230e-007
-7.635724e-007
-9.309975e-007
-1.111700e-006
-1.302799e-006
-1.501265e-006
-1.704128e-006
-1.908648e-006
-2.112440e-006
-2.313538e-006
-2.510418e-006
-2.701972e-006
-2.887459e-006
-3.066435e-006
-3.238672e-006
-3.404090e-006
-3.562689e-006
-3.714502e-006
-3.859561e-006
-3.997867e-006
-4.129384e-006
-4.254030e-006
-4.371673e-006
-4.482132e-006
-4.585177e-006
-4.680531e-006
-4.767861e-006
-4.846784e-006
-4.916858e-006
-4.977578e-006
-5.028376e-006
-5.068615e-006
-5.097584e-006
-5.114499e-006
-5.118487e-006
-5.108589e-006
-5.083736e-006
-5.042741e-006
-4.984278e-006
-4.906867e-006
-4.808878e-006
-4.688554e-006
-4.544089e-006
-4.373760e-006
-4.176142e-006
-3.950399e-006
-3.696635e-006
-3.416260e-006
-3.112321e-006
-2.789701e-006
-2.455121e-006
-2.116880e-006
-1.784312e-006
-1.466982e-006
-1.173755e-006
-9.118623e-007
-6.861776e-007
-4.988305e-007
-3.492410e-007
-2.345358e-007
-1.502245e-007
-9.097154e-008
-5.130609e-008
-2.616617e-008
-1.123482e-008
-3.081137e-009
8.495823e-010
2.341708e-009
2.561225e-009
2.215704e-009
1.697796e-009
1.199923e-009
7.976363e-010
5.053787e-010
3.109899e-010
1.952819e-010
1.419728e-010
3.097155e-010
4.734342e-010
7.422057e-010
1.062925e-009
1.441816e-009
1.926891e-009
2.533914e-009
3.173334e-009
3.607205e-009
3.413514e-009
1.919154e-009
-1.909517e-009
-9.592694e-009
-2.324036e-008
-4.560253e-008
-8.004442e-008
-1.304209e-007
-2.008252e-007
-2.952088e-007
-4.169087e-007
-5.681602e-007
-7.496891e-007
-9.604728e-007
-1.197724e-006
-1.457108e-006
-1.733139e-006
-2.019701e-006
-2.310573e-006
-2.599899e-006
-2.882537e-006
-3.154278e-006
-3.411932e-006
-3.653302e-006
-3.877075e-006
-4.082655e-006
-4.269975e-006
-4.439306e-006
-4.591100e-006
-4.725871e-006
-4.844135e-006
-4.946389e-006
-5.033122e-006
-5.104853e-006
-5.162161e-006
-5.205718e-006
-5.236300e-006
-5.254793e-006
-5.262180e-006
-5.259522e-006
-5.247945e-006
-5.228625e-006
-5.202788e-006
-5.171709e-006
-5.136728e-006
-5.099257e-006
-5.060790e-006
-5.022884e-006
-4.987122e-006
-4.955022e-006
-4.927912e-006
-4.906726e-006
-4.891758e-006
-4.882369e-006
-4.876670e-006
-4.871241e-006
-4.860942e-006
-4.838895e-006
-4.796708e-006
-4.725015e-006
-4.614321e-006
-4.456148e-006
-4.244341e-006
-3.976374e-006
-3.654405e-006
-3.285823e-006
-2.883054e-006
-2.462523e-006
-2.042832e-006
-1.642440e-006
-1.277314e-006
-9.590558e-007
-6.938996e-007
-4.827324e-007
-3.219903e-007
-2.050835e-007
-1.239344e-007
-7.029762e-008
-3.668490e-008
-1.686816e-008
-6.033593e-009
-6.981366e-010
1.503388e-009
2.075928e-009
1.911253e-009
1.494743e-009
1.061911e-009
7.073193e-010
4.545859e-010
2.977954e-010
2.239344e-010
4.620329e-010
7.097846e-010
1.135022e-009
1.643899e-009
2.179103e-009
2.733411e-009
3.268317e-009
3.556512e-009
3.029851e-009
6.854109e-010
-4.997350e-009
-1.621377e-008
-3.606751e-008
-6.877377e-008
-1.197027e-007
-1.951875e-007
-3.020730e-007
-4.470029e-007
-6.354817e-007
-8.708212e-007
-1.153179e-006
-1.478935e-006
-1.840602e-006
-2.227341e-006
-2.626000e-006
-3.022451e-006
-3.402962e-006
-3.755367e-006
-4.069866e-006
-4.339418e-006
-4.559753e-006
-4.729108e-006
-4.847767e-006
-4.917509e-006
-4.941032e-006
-4.921439e-006
-4.861809e-006
-4.764930e-006
-4.633178e-006
-4.468551e-006
-4.272814e-006
-4.047703e-006
-3.795140e-006
-3.517414e-006
-3.217298e-006
-2.898096e-006
-2.563633e-006
-2.218201e-006
-1.866484e-006
-1.513500e-006
-1.164558e-006
-8.252652e-007
-5.015601e-007
-1.997763e-007
7.328621e-008
3.103091e-007
5.034553e-007
6.444558e-007
7.248206e-007
7.362075e-007
6.709758e-007
5.229356e-007
2.882814e-007
-3.333714e-008
-4.376986e-007
-9.149876e-007
-1.449054e-006
-2.017171e-006
-2.590502e-006
-3.135471e-006
-3.616105e-006
-3.997317e-006
-4.248854e-006
-4.349428e-006
-4.290303e-006
-4.077515e-006
-3.731979e-006
-3.287103e-006
-2.784101e-006
-2.265886e-006
-1.770897e-006
-1.328306e-006
-9.555990e-007
-6.587592e-007
-4.344790e-007
-2.733976e-007
-1.633355e-007
-9.184622e-008
-4.783393e-008
-2.231348e-008
-8.545989e-009
-1.805276e-009
1.019440e-009
1.847711e-009
1.783402e-009
1.410537e-009
1.006085e-009
6.809433e-010
4.661564e-010
3.616869e-010
1.031853e-009
1.285235e-009
1.768624e-009
2.403180e-009
3.059976e-009
3.584530e-009
3.713169e-009
2.831885e-009
-3.027447e-010
-7.768278e-009
-2.266966e-008
-4.944560e-008
-9.424912e-008
-1.651743e-007
-2.720785e-007
-4.258523e-007
-6.370907e-007
-9.141952e-007
-1.261087e-006
-1.674948e-006
-2.144601e-006
-2.650163e-006
-3.164281e-006
-3.654835e-006
-4.088535e-006
-4.434623e-006
-4.667943e-006
-4.770862e-006
-4.733927e-006
-4.555401e-006
-4.240006e-006
-3.797251e-006
-3.239636e-006
-2.580968e-006
-1.834947e-006
-1.014092e-006
-1.290858e-007
8.114673e-007
1.800891e-006
2.833981e-006
3.906355e-006
5.013755e-006
6.151418e-006
7.313608e-006
8.493357e-006
9.682397e-006
1.087126e-005
1.204946e-005
1.320570e-005
1.432804e-005
1.540398e-005
1.642044e-005
1.736363e-005
1.821885e-005
1.897029e-005
1.960079e-005
2.009175e-005
2.042313e-005
2.057370e-005
2.052161e-005
2.024522e-005
1.972447e-005
1.894259e-005
1.788829e-005
1.655838e-005
1.496058e-005
1.311633e-005
1.106325e-005
8.856642e-006
6.569486e-006
4.290133e-006
2.117262e-006
1.518230e-007
-1.513488e-006
-2.805934e-006
-3.683511e-006
-4.142271e-006
-4.217871e-006
-3.980114e-006
-3.521100e-006
-2.939577e-006
-2.325417e-006
-1.748030e-006
-1.251074e-006
-8.535053e-007
-5.551002e-007
-3.436955e-007
-2.018390e-007
-1.115861e-007
-5.723665e-008
-2.642770e-008
-1.017546e-008
-2.383933e-009
8.264277e-010
1.769538e-009
1.731729e-009
1.371595e-009
9.923570e-010
7.135116e-010
5.711112e-010
1.944377e-009
2.188480e-009
2.683461e-009
3.350849e-009
3.957605e-009
4.074094e-009
2.922184e-009
-9.461074e-010
-1.005044e-008
-2.840961e-008
-6.204803e-008
-1.195661e-007
-2.125476e-007
-3.554342e-007
-5.644878e-007
-8.555189e-007
-1.240211e-006
-1.721238e-006
-2.287029e-006
-2.907677e-006
-3.533737e-006
-4.099089e-006
-4.527810e-006
-4.743674e-006
-4.680027e-006
-4.287806e-006
-3.540183e-006
-2.433383e-006
-9.842027e-007
7.746191e-007
2.799966e-006
5.043818e-006
7.457973e-006
9.997666e-006
1.262396e-005
1.530495e-005
1.801592e-005
2.073867e-005
2.346019e-005
2.617104e-005
2.886368e-005
3.153088e-005
3.416461e-005
3.675532e-005
3.929172e-005
4.176087e-005
4.414862e-005
4.644005e-005
4.861991e-005
5.067293e-005
5.258393e-005
5.433772e-005
5.591882e-005
5.731105e-005
5.849709e-005
5.945785e-005
6.017204e-005
6.061559e-005
6.076121e-005
6.057811e-005
6.003178e-005
5.908425e-005
5.769484e-005
5.582186e-005
5.342555e-005
5.047283e-005
4.694399e-005
4.284141e-005
3.819956e-005
3.309481e-005
2.765252e-005
2.204836e-005
1.650110e-005
1.125510e-005
6.553354e-006
2.604640e-006
-4.487795e-007
-2.554842e-006
-3.759690e-006
-4.196377e-006
-4.056210e-006
-3.550446e-006
-2.873067e-006
-2.174351e-006
-1.550191e-006
-1.046014e-006
-6.697162e-007
-4.069768e-007
-2.341300e-007
-1.266540e-007
-6.352505e-008
-2.866930e-008
-1.078496e-008
-2.462793e-009
8.497461e-010
1.773706e-009
1.715583e-009
1.370543e-009
1.048384e-009
8.691403e-010
3.075267e-009
3.343200e-009
3.835942e-009
4.381337e-009
4.527277e-009
3.320737e-009
-9.981070e-010
-1.140843e-008
-3.272040e-008
-7.247045e-008
-1.419430e-007
-2.568834e-007
-4.373871e-007
-7.064082e-007
-1.086126e-006
-1.591336e-006
-2.219680e-006
-2.940115e-006
-3.683048e-006
-4.336659e-006
-4.753100e-006
-4.765235e-006
-4.210723e-006
-2.957458e-006
-9.239425e-007
1.910005e-006
5.503602e-006
9.764836e-006
1.456601e-005
1.976113e-005
2.520179e-005
3.074981e-005
3.628563e-005
4.171265e-005
4.695805e-005
5.197078e-005
5.671770e-005
6.117902e-005
6.534375e-005
6.920580e-005
7.276122e-005
7.600653e-005
7.893819e-005
8.155293e-005
8.384871e-005
8.582579e-005
8.748788e-005
8.884289e-005
8.990337e-005
9.068664e-005
9.121454e-005
9.151321e-005
9.161264e-005
9.154632e-005
9.135074e-005
9.106467e-005
9.072786e-005
9.037895e-005
9.005208e-005
8.977204e-005
8.954770e-005
8.936383e-005
8.917202e-005
8.888181e-005
8.835432e-005
8.740092e-005
8.579061e-005
8.326902e-005
7.959053e-005
7.456210e-005
6.809306e-005
6.024101e-005
5.124122e-005
4.150722e-005
3.159448e-005
2.212727e-005
1.370019e-005
6.776472e-006
1.610819e-006
-1.781834e-006
-3.603592e-006
-4.205145e-006
-3.994228e-006
-3.349671e-006
-2.563805e-006
-1.822256e-006
-1.215082e-006
-7.645689e-007
-4.550227e-007
-2.557515e-007
-1.349009e-007
-6.582024e-008
-2.877520e-008
-1.036217e-008
-2.100875e-009
1.035635e-009
1.838682e-009
1.752054e-009
1.463472e-009
1.267821e-009
4.392621e-009
4.679774e-009
5.071005e-009
5.140188e-009
3.948337e-009
-4.365133e-010
-1.146570e-008
-3.475014e-008
-7.917586e-008
-1.585211e-007
-2.928535e-007
-5.086801e-007
-8.369014e-007
-1.307249e-006
-1.937210e-006
-2.714003e-006
-3.571242e-006
-4.366932e-006
-4.873540e-006
-4.790434e-006
-3.782548e-006
-1.538923e-006
2.163877e-006
7.411186e-006
1.412622e-005
2.207731e-005
3.091214e-005
4.020868e-005
4.952959e-005
5.846889e-005
6.668452e-005
7.391541e-005
7.998494e-005
8.479395e-005
8.830643e-005
9.053153e-005
9.150506e-005
9.127378e-005
8.988443e-005
8.737848e-005
8.379209e-005
7.915998e-005
7.352142e-005
6.692673e-005
5.944275e-005
5.115654e-005
4.217699e-005
3.263441e-005
2.267896e-005
1.247851e-005
2.216851e-006
-7.907210e-006
-1.767955e-005
-2.686945e-005
-3.522792e-005
-4.248643e-005
-4.835749e-005
-5.253844e-005
-5.472016e-005
-5.460226e-005
-5.191619e-005
-4.645714e-005
-3.812448e-005
-2.696879e-005
-1.324091e-005
2.564933e-006
1.968531e-005
3.709307e-005
5.354805e-005
6.770222e-005
7.825857e-005
8.416827e-005
8.483307e-005
8.026446e-005
7.114545e-005
5.875486e-005
4.475191e-005
3.086518e-005
1.856711e-005
8.828324e-006
2.019386e-006
-2.033080e-006
-3.876133e-006
-4.213052e-006
-3.710736e-006
-2.879869e-006
-2.038987e-006
-1.341030e-006
-8.274940e-007
-4.811973e-007
-2.635683e-007
-1.351187e-007
-6.382346e-008
-2.679112e-008
-9.028210e-009
-1.389065e-009
1.352077e-009
1.990696e-009
1.917738e-009
1.764190e-009
5.943603e-009
6.122397e-009
6.073658e-009
4.873999e-009
6.280651e-010
-1.029206e-008
-3.412339e-008
-8.096115e-008
-1.667604e-007
-3.155423e-007
-5.602639e-007
-9.405646e-007
-1.495025e-006
-2.244077e-006
-3.159555e-006
-4.121636e-006
-4.874225e-006
-5.001191e-006
-3.949279e-006
-1.112398e-006
4.031991e-006
1.176816e-005
2.201570e-005
3.427213e-005
4.764373e-005
6.096046e-005
7.294424e-005
8.238478e-005
8.828194e-005
8.993101e-005
8.694690e-005
7.923905e-005
6.695529e-005
5.041122e-005
3.001712e-005
6.211294e-006
-2.059286e-005
-5.004053e-005
-8.184766e-005
-1.157935e-004
-1.516991e-004
-1.893985e-004
-2.287105e-004
-2.694151e-004
-3.112392e-004
-3.538516e-004
-3.968660e-004
-4.398496e-004
-4.823339e-004
-5.238244e-004
-5.638069e-004
-6.017491e-004
-6.370966e-004
-6.692653e-004
-6.976305e-004
-7.215164e-004
-7.401874e-004
-7.528444e-004
-7.586299e-004
-7.566447e-004
-7.459802e-004
-7.257720e-004
-6.952773e-004
-6.539827e-004
-6.017411e-004
-5.389344e-004
-4.666437e-004
-3.867993e-004
-3.022643e-004
-2.167982e-004
-1.348469e-004
-6.112685e-005
-9.688395e-009
4.521614e-005
7.304298e-005
8.416141e-005
8.137592e-005
6.897290e-005
5.174047e-005
3.396129e-005
1.867639e-005
7.416923e-006
3.786132e-007
-3.139206e-006
-4.225354e-006
-3.943655e-006
-3.098842e-006
-2.178462e-006
-1.408710e-006
-8.500509e-007
-4.817494e-007
-2.564426e-007
-1.273300e-007
-5.790958e-008
-2.308141e-008
-7.020007e-009
-4.293736e-010
1.804653e-009
2.310229e-009
2.324797e-009
7.679973e-009
7.450922e-009
6.239227e-009
2.247052e-009
-8.076258e-009
-3.112779e-008
-7.770994e-008
-1.654168e-007
-3.215638e-007
-5.849868e-007
-1.004124e-006
-1.627601e-006
-2.480605e-006
-3.518438e-006
-4.554484e-006
-5.178037e-006
-4.703127e-006
-2.205900e-006
3.304308e-006
1.258284e-005
2.578120e-005
4.212547e-005
5.976051e-005
7.584823e-005
8.694084e-005
8.953154e-005
8.062535e-005
5.818335e-005
2.133642e-005
-2.965222e-005
-9.361054e-005
-1.687643e-004
-2.530394e-004
-3.443138e-004
-4.406056e-004
-5.401954e-004
-6.416889e-004
-7.440197e-004
-8.464047e-004
-9.482668e-004
-1.049144e-003
-1.148606e-003
-1.246193e-003
-1.341382e-003
-1.433582e-003
-1.522155e-003
-1.606454e-003
-1.685853e-003
-1.759786e-003
-1.827769e-003
-1.889404e-003
-1.944378e-003
-1.992450e-003
-2.033425e-003
-2.067133e-003
-2.093394e-003
-2.111985e-003
-2.122595e-003
-2.124768e-003
-2.117836e-003
-2.100830e-003
-2.072387e-003
-2.030671e-003
-1.973323e-003
-1.897524e-003
-1.800210e-003
-1.678526e-003
-1.530551e-003
-1.356254e-003
-1.158503e-003
-9.438090e-004
-7.224186e-004
-5.074570e-004
-3.130770e-004
-1.519199e-004
-3.246548e-005
4.296736e-005
7.871418e-005
8.424156e-005
7.119661e-005
5.039641e-005
2.975206e-005
1.358506e-005
3.157211e-006
-2.232332e-006
-4.122010e-006
-4.064470e-006
-3.210034e-006
-2.227359e-006
-1.409931e-006
-8.291969e-007
-4.566629e-007
-2.355290e-007
-1.128069e-007
-4.904684e-008
-1.823773e-008
-4.620005e-009
7.083135e-010
2.444950e-009
2.864105e-009
9.255790e-009
8.107642e-009
4.476934e-009
-4.875386e-009
-2.614519e-008
-7.014886e-008
-1.550855e-007
-3.103264e-007
-5.794296e-007
-1.019067e-006
-1.688864e-006
-2.622424e-006
-3.764137e-006
-4.860902e-006
-5.324948e-006
-4.133275e-006
1.231077e-007
8.923998e-006
2.319726e-005
4.248255e-005
6.412581e-005
8.283864e-005
9.098293e-005
7.972448e-005
4.076701e-005
-3.182255e-005
-1.403158e-004
-2.830091e-004
-4.548296e-004
-6.484488e-004
-8.554930e-004
-1.067590e-003
-1.277142e-003
-1.477804e-003
-1.664698e-003
-1.834393e-003
-1.984714e-003
-2.114435e-003
-2.222957e-003
-2.310037e-003
-2.375615e-003
-2.419755e-003
-2.442675e-003
-2.444840e-003
-2.427058e-003
-2.390566e-003
-2.337048e-003
-2.268618e-003
-2.187741e-003
-2.097144e-003
-1.999720e-003
-1.898456e-003
-1.796391e-003
-1.696613e-003
-1.602275e-003
-1.516629e-003
-1.443053e-003
-1.385049e-003
-1.346204e-003
-1.330062e-003
-1.339897e-003
-1.378330e-003
-1.446756e-003
-1.544517e-003
-1.667828e-003
-1.808514e-003
-1.952818e-003
-2.080803e-003
-2.167192e-003
-2.184556e-003
-2.109320e-003
-1.929655e-003
-1.652541e-003
-1.306050e-003
-9.340334e-004
-5.843592e-004
-2.961324e-004
-9.111490e-005
2.902896e-005
7.940629e-005
8.356636e-005
6.471990e-005
4.010802e-005
1.930953e-005
5.614778e-006
-1.482825e-006
-4.022397e-006
-4.099011e-006
-3.210857e-006
-2.181355e-006
-1.344671e-006
-7.679131e-007
-4.096826e-007
-2.040120e-007
-9.375697e-008
-3.854267e-008
-1.291095e-008
-2.067381e-009
1.987711e-009
3.216893e-009
9.922021e-009
7.056499e-009
-9.713143e-010
-1.965000e-008
-5.924593e-008
-1.375099e-007
-2.840586e-007
-5.450077e-007
-9.837144e-007
-1.671251e-006
-2.654637e-006
-3.880375e-006
-5.049134e-006
-5.409309e-006
-3.576945e-006
2.425406e-006
1.465840e-005
3.410616e-005
5.893110e-005
8.259107e-005
9.268119e-005
7.171976e-005
4.754244e-007
-1.367886e-004
-3.467616e-004
-6.238266e-004
-9.501880e-004
-1.298569e-003
-1.636734e-003
-1.933053e-003
-2.161628e-003
-2.305559e-003
-2.357837e-003
-2.320234e-003
-2.200909e-003
-2.011543e-003
-1.764757e-003
-1.472335e-003
-1.144396e-003
-7.893578e-004
-4.143623e-004
-2.583400e-005
3.700622e-004
7.671908e-004
1.159462e-003
1.541032e-003
1.906596e-003
2.251657e-003
2.572718e-003
2.867333e-003
3.134043e-003
3.372217e-003
3.581828e-003
3.763224e-003
3.916888e-003
4.043218e-003
4.142320e-003
4.213778e-003
4.256403e-003
4.267911e-003
4.244510e-003
4.180392e-003
4.067138e-003
3.893158e-003
3.643386e-003
3.299740e-003
2.843150e-003
2.258318e-003
1.542228e-003
7.163198e-004
-1.608553e-004
-9.882196e-004
-1.635372e-003
-1.982438e-003
-1.976919e-003
-1.670962e-003
-1.200581e-003
-7.171050e-004
-3.272461e-004
-7.446932e-005
5.064028e-005
8.627284e-005
7.475477e-005
4.796553e-005
2.337336e-005
7.083346e-006
-1.174146e-006
-4.011334e-006
-4.060406e-006
-3.101841e-006
-2.044953e-006
-1.221075e-006
-6.746097e-007
-3.474629e-007
-1.663358e-007
-7.277081e-008
-2.771033e-008
-7.656938e-009
4.187295e-010
3.106462e-009
8.523064e-009
2.734941e-009
-1.263423e-008
-4.644119e-008
-1.150763e-007
-2.467476e-007
-4.873052e-007
-9.037209e-007
-1.577367e-006
-2.573255e-006
-3.857610e-006
-5.124131e-006
-5.515559e-006
-3.332745e-006
3.991205e-006
1.919176e-005
4.327551e-005
7.227476e-005
9.329875e-005
8.182414e-005
3.657012e-006
-1.762105e-004
-4.785223e-004
-8.936682e-004
-1.372579e-003
-1.827970e-003
-2.151405e-003
-2.247095e-003
-2.065508e-003
-1.615996e-003
-9.546280e-004
-1.600358e-004
6.886760e-004
1.525887e-003
2.305382e-003
3.000297e-003
3.599435e-003
4.102190e-003
4.513803e-003
4.841857e-003
5.094211e-003
5.278113e-003
5.400102e-003
5.466282e-003
5.482699e-003
5.455605e-003
5.391554e-003
5.297332e-003
5.179766e-003
5.045515e-003
4.900879e-003
4.751699e-003
4.603330e-003
4.460701e-003
4.328429e-003
4.210964e-003
4.112738e-003
4.038294e-003
3.992373e-003
3.979925e-003
4.006000e-003
4.075441e-003
4.192255e-003
4.358467e-003
4.572156e-003
4.824325e-003
5.094231e-003
5.343120e-003
5.507147e-003
5.492247e-003
5.177513e-003
4.439594e-003
3.214625e-003
1.597341e-003
-8.690231e-005
-1.366966e-003
-1.904048e-003
-1.733985e-003
-1.191919e-003
-6.227992e-004
-2.118629e-004
6.913944e-006
8.200426e-005
8.016543e-005
5.220128e-005
2.491142e-005
7.150624e-006
-1.423239e-006
-4.092959e-006
-3.938651e-006
-2.886331e-006
-1.831492e-006
-1.054210e-006
-5.614005e-007
-2.780721e-007
-1.271822e-007
-5.224115e-008
-1.762922e-008
-3.011713e-009
2.112782e-009
3.515319e-009
-6.941911e-009
-3.383558e-008
-9.091008e-008
-2.034799e-007
-4.145138e-007
-7.905742e-007
-1.419751e-006
-2.386432e-006
-3.692635e-006
-5.073402e-006
-5.661934e-006
-3.570708e-006
4.281267e-006
2.139815e-005
4.904559e-005
8.098873e-005
9.620748e-005
5.321369e-005
-1.059127e-004
-4.343374e-004
-9.403205e-004
-1.541070e-003
-2.035992e-003
-2.144867e-003
-1.652790e-003
-5.642710e-004
8.902898e-004
2.392422e-003
3.684784e-003
4.635930e-003
5.223907e-003
5.490091e-003
5.500394e-003
5.322656e-003
5.015984e-003
4.626968e-003
4.189698e-003
3.727736e-003
3.256839e-003
2.787577e-003
2.327410e-003
1.882079e-003
1.456357e-003
1.054315e-003
6.793030e-004
3.338166e-004
1.937965e-005
-2.634797e-004
-5.151433e-004
-7.367294e-004
-9.298665e-004
-1.096456e-003
-1.238451e-003
-1.357661e-003
-1.455588e-003
-1.533274e-003
-1.591144e-003
-1.628813e-003
-1.644824e-003
-1.636267e-003
-1.598242e-003
-1.523105e-003
-1.399470e-003
-1.211005e-003
-9.352166e-004
-5.428021e-004
1.211458e-006
7.322484e-004
1.673158e-003
2.808257e-003
4.039797e-003
5.131497e-003
5.677863e-003
5.200757e-003
3.485404e-003
1.025799e-003
-1.035094e-003
-1.841907e-003
-1.562249e-003
-8.988543e-004
-3.418022e-004
-3.279986e-005
7.706073e-005
8.182841e-005
5.235775e-005
2.360652e-005
5.802142e-006
-2.129611e-006
-4.189077e-006
-3.709573e-006
-2.575025e-006
-1.562651e-006
-8.635530e-007
-4.416541e-007
-2.093126e-007
-9.054981e-008
-3.402199e-008
-9.314202e-009
-3.532992e-010
-7.040219e-009
-2.456509e-008
-6.865228e-008
-1.599218e-007
-3.360619e-007
-6.591544e-007
-1.218556e-006
-2.114591e-006
-3.393003e-006
-4.871470e-006
-5.782731e-006
-4.242962e-006
3.144059e-006
2.067677e-005
5.043135e-005
8.494021e-005
9.548723e-005
2.129391e-005
-2.245059e-004
-7.114801e-004
-1.397229e-003
-2.007049e-003
-2.005298e-003
-9.167508e-004
1.119349e-003
3.332125e-003
4.936651e-003
5.604418e-003
5.434816e-003
4.711359e-003
3.715484e-003
2.652073e-003
1.644685e-003
7.554051e-004
6.198866e-006
-6.046817e-004
-1.091255e-003
-1.472265e-003
-1.766644e-003
-1.991186e-003
-2.159741e-003
-2.283272e-003
-2.370338e-003
-2.427684e-003
-2.460777e-003
-2.474211e-003
-2.471967e-003
-2.457572e-003
-2.434160e-003
-2.404515e-003
-2.371079e-003
-2.335985e-003
-2.301088e-003
-2.268022e-003
-2.238251e-003
-2.213137e-003
-2.193998e-003
-2.182166e-003
-2.179027e-003
-2.186049e-003
-2.204770e-003
-2.236739e-003
-2.283347e-003
-2.345488e-003
-2.422878e-003
-2.512809e-003
-2.607867e-003
-2.691942e-003
-2.733455e-003
-2.674771e-003
-2.418248e-003
-1.815921e-003
-6.868108e-004
1.087325e-003
3.334988e-003
5.307083e-003
5.737817e-003
3.840028e-003
6.809857e-004
-1.463124e-003
-1.743183e-003
-1.086194e-003
-4.214494e-004
-4.969432e-005
7.672032e-005
8.034844e-005
4.843408e-005
1.974130e-005
3.424350e-006
-3.020854e-006
-4.182684e-006
-3.356612e-006
-2.190829e-006
-1.266136e-006
-6.695109e-007
-3.274713e-007
-1.473725e-007
-5.931784e-008
-1.976578e-008
-5.062488e-009
-2.547059e-008
-5.317852e-008
-1.217720e-007
-2.611688e-007
-5.251262e-007
-9.979524e-007
-1.788221e-006
-2.982204e-006
-4.500422e-006
-5.762706e-006
-5.098962e-006
8.880251e-007
1.712778e-005
4.711763e-005
8.431243e-005
9.590997e-005
4.380723e-006
-3.083593e-004
-9.290849e-004
-1.725857e-003
-2.089368e-003
-1.039287e-003
1.610006e-003
4.421846e-003
5.747935e-003
5.245979e-003
3.624832e-003
1.735356e-003
1.029735e-004
-1.087705e-003
-1.854133e-003
-2.290786e-003
-2.498806e-003
-2.559411e-003
-2.530111e-003
-2.449014e-003
-2.340342e-003
-2.218970e-003
-2.093717e-003
-1.969600e-003
-1.849340e-003
-1.734336e-003
-1.625278e-003
-1.522495e-003
-1.426154e-003
-1.336342e-003
-1.253100e-003
-1.176430e-003
-1.106293e-003
-1.042609e-003
-9.852714e-004
-9.341624e-004
-8.891750e-004
-8.502411e-004
-8.173604e-004
-7.906308e-004
-7.702822e-004
-7.567138e-004
-7.505405e-004
-7.526524e-004
-7.642921e-004
-7.871602e-004
-8.235555e-004
-8.765578e-004
-9.502588e-004
-1.050026e-003
-1.182742e-003
-1.356847e-003
-1.581706e-003
-1.865126e-003
-2.206358e-003
-2.579015e-003
-2.894538e-003
-2.938192e-003
-2.303194e-003
-4.761851e-004
2.586445e-003
5.450792e-003
5.532839e-003
2.326543e-003
-9.335935e-004
-1.785674e-003
-1.153708e-003
-4.250443e-004
-3.564009e-005
8.124909e-005
7.524569e-005
4.086676e-005
1.414560e-005
6.691166e-007
-3.771616e-006
-3.980359e-006
-2.890016e-006
-1.768815e-006
-9.711536e-007
-4.898031e-007
-2.278164e-007
-9.634000e-008
-3.587898e-008
-1.295882e-008
-5.438981e-008
-9.612065e-008
-1.981789e-007
-4.024376e-007
-7.819345e-007
-1.443221e-006
-2.500297e-006
-3.971205e-006
-5.502106e-006
-5.800331e-006
-1.827541e-006
1.155648e-005
3.948657e-005
7.870534e-005
9.847271e-005
1.313732e-005
-3.239716e-004
-1.029892e-003
-1.892117e-003
-1.902320e-003
3.194065e-004
3.969493e-003
5.908688e-003
4.782584e-003
2.056736e-003
-4.380428e-004
-1.957835e-003
-2.596849e-003
-2.690165e-003
-2.516149e-003
-2.241890e-003
-1.951532e-003
-1.681457e-003
-1.443993e-003
-1.240537e-003
-1.068088e-003
-9.222800e-004
-7.986912e-004
-6.933666e-004
-6.029786e-004
-5.248328e-004
-4.568036e-004
-3.972436e-004
-3.448864e-004
-2.987553e-004
-2.580854e-004
-2.222612e-004
-1.907705e-004
-1.631737e-004
-1.390852e-004
-1.181634e-004
-1.001081e-004
-8.466103e-005
-7.160850e-005
-6.078582e-005
-5.208277e-005
-4.545098e-005
-4.091456e-005
-3.858607e-005
-3.869084e-005
-4.160433e-005
-4.790935e-005
-5.848337e-005
-7.463204e-005
-9.829373e-005
-1.323546e-004
-1.811352e-004
-2.511366e-004
-3.521528e-004
-4.988083e-004
-7.123118e-004
-1.021275e-003
-1.457716e-003
-2.037256e-003
-2.696822e-003
-3.143408e-003
-2.627052e-003
-1.106734e-004
3.998428e-003
6.029410e-003
3.252292e-003
-6.764483e-004
-1.783670e-003
-1.096353e-003
-3.516980e-004
2.417200e-006
8.573401e-005
6.564579e-005
3.072244e-005
8.009711e-006
-1.776117e-006
-4.136485e-006
-3.557603e-006
-2.350865e-006
-1.349743e-006
-7.029306e-007
-3.368417e-007
-1.480562e-007
-5.932644e-008
-2.512492e-008
-9.646797e-008
-1.567201e-007
-3.026268e-007
-5.905340e-007
-1.114490e-006
-1.997896e-006
-3.330890e-006
-4.971557e-006
-6.073030e-006
-4.246471e-006
5.270072e-006
2.877457e-005
6.757078e-005
9.922004e-005
4.332141e-005
-2.635989e-004
-9.891614e-004
-1.928286e-003
-1.771187e-003
1.273946e-003
5.258116e-003
5.576680e-003
2.318963e-003
-9.867097e-004
-2.573808e-003
-2.799152e-003
-2.426156e-003
-1.914804e-003
-1.448698e-003
-1.075267e-003
-7.910923e-004
-5.789781e-004
-4.212535e-004
-3.034923e-004
-2.148563e-004
-1.474702e-004
-9.567467e-005
-5.540595e-005
-2.373755e-005
1.443762e-006
2.166678e-005
3.803975e-005
5.137000e-005
6.225203e-005
7.113198e-005
7.835402e-005
8.419255e-005
8.887374e-005
9.258925e-005
9.550456e-005
9.776391e-005
9.949326e-005
1.008023e-004
1.017863e-004
1.025270e-004
1.030946e-004
1.035482e-004
1.039361e-004
1.042943e-004
1.046436e-004
1.049822e-004
1.052726e-004
1.054196e-004
1.052308e-004
1.043488e-004
1.021336e-004
9.745184e-005
8.829775e-005
7.110340e-005
3.949630e-005
-1.788177e-005
-1.209861e-004
-3.036388e-004
-6.189487e-004
-1.137113e-003
-1.909577e-003
-2.827560e-003
-3.245097e-003
-1.587716e-003
2.925393e-003
6.064813e-003
3.303926e-003
-8.779847e-004
-1.744422e-003
-9.193799e-004
-2.253653e-004
4.634068e-005
8.384123e-005
5.174381e-005
1.971542e-005
2.545002e-006
-3.421001e-006
-4.031975e-006
-2.964938e-006
-1.798565e-006
-9.703456e-007
-4.785821e-007
-2.172965e-007
-9.182000e-008
-4.271813e-008
-1.541017e-007
-2.378704e-007
-4.389452e-007
-8.300205e-007
-1.525278e-006
-2.651780e-006
-4.226548e-006
-5.814481e-006
-5.801675e-006
-3.379272e-007
1.701869e-005