# vtk DataFile Version 3.0
vtk output
ASCII
DATASET STRUCTURED_POINTS
DIMENSIONS 100 100 1
SPACING 1 1 1
ORIGIN 0 0 0
POINT_DATA 10000
SCALARS SFBox_profile double
LOOKUP_TABLE default 
0.000000e+000
0.000000e+000
0.000000e+000
0.000000e+000
0.000000e+000
0.000000e+000
0.000000e+000
0.000000e+000
0.000000e+000
0.000000e+000
0.000000e+000
0.000000e+000
0.000000e+000
0.000000e+000
0.000000e+000
0.000000e+000
0.000000e+000
0.000000e+000
0.000000e+000
0.000000e+000
0.000000e+000
0.000000e+000
0.000000e+000
0.000000e+000
0.000000e+000
0.000000e+000
0.000000e+000
0.000000e+000
0.000000e+000
0.000000e+000
0.000000e+000
0.000000e+000
0.000000e+000
0.000000e+000
0.000000e+000
0.000000e+000
0.000000e+000
0.000000e+000
0.000000e+000
0.000000e+000
0.000000e+000
0.000000e+000
0.000000e+000
0.000000e+000
0.000000e+000
0.000000e+000
0.000000e+000
0.000000e+000
0.000000e+000
0.000000e+000
0.000000e+000
0.000000e+000
0.000000e+000
0.000000e+000
0.000000e+000
0.000000e+000
0.000000e+000
0.000000e+000
0.000000e+000
0.000000e+000
0.000000e+000
0.000000e+000
0.000000e+000
0.000000e+000
0.000000e+000
0.000000e+000
0.000000e+000
0.000000e+000
0.000000e+000
0.000000e+000
0.000000e+000
0.000000e+000
0.000000e+000
0.000000e+000
0.000000e+000
0.000000e+000
0.000000e+000
0.000000e+000
0.000000e+000
0.000000e+000
0.000000e+000
0.000000e+000
0.000000e+000
0.000000e+000
0.000000e+000
0.000000e+000
0.000000e+000
0.000000e+000
0.000000e+000
0.000000e+000
0.000000e+000
0.000000e+000
0.000000e+000
0.000000e+000
0.000000e+000
0.000000e+000
0.000000e+000
0.000000e+000
0.000000e+000
0.000000e+000
-7.701417e-010
-3.953358e-010
2.668310e-012
5.243776e-011
-2.531695e-010
-4.732417e-010
-7.084899e-011
1.043962e-009
2.263869e-009
2.645284e-009
1.684482e-009
-1.319679e-010
-1.558320e-009
-1.514460e-009
4.976480e-011
2.132175e-009
3.551150e-009
3.925023e-009
3.849287e-009
4.137470e-009
4.916544e-009
5.493701e-009
5.089091e-009
3.619004e-009
1.693177e-009
-1.243635e-010
-1.937317e-009
-4.342399e-009
-7.710476e-009
-1.177810e-008
-1.599024e-008
-2.012963e-008
-2.446608e-008
-2.929741e-008
-3.450899e-008
-3.970960e-008
-4.472679e-008
-4.978305e-008
-5.512068e-008
-6.059631e-008
-6.581544e-008
-7.064533e-008
-7.540949e-008
-8.046873e-008
-8.571928e-008
-9.067708e-008
-9.505209e-008
-9.905542e-008
-1.030273e-007
-1.068841e-007
-1.101343e-007
-1.124462e-007
-1.139931e-007
-1.150910e-007
-1.156141e-007
-1.150030e-007
-1.128950e-007
-1.095556e-007
-1.055193e-007
-1.008944e-007
-9.524174e-008
-8.819754e-008
-8.004300e-008
-7.149768e-008
-6.301962e-008
-5.450341e-008
-4.571784e-008
-3.687664e-008
-2.861559e-008
-2.144394e-008
-1.537337e-008
-1.013082e-008
-5.610137e-009
-1.993874e-009
5.281978e-010
2.029976e-009
2.803567e-009
3.131554e-009
3.167812e-009
2.982813e-009
2.623683e-009
2.121199e-009
1.518928e-009
9.371411e-010
5.495797e-010
4.302155e-010
4.483733e-010
3.929104e-010
2.121275e-010
6.149808e-011
7.675026e-011
1.682296e-010
1.300071e-010
-6.606347e-011
-1.991737e-010
-8.104984e-011
1.683933e-010
2.378259e-010
1.385680e-011
-2.562392e-010
-1.539333e-009
-9.171854e-010
-4.476303e-011
5.591124e-010
5.673672e-010
8.705657e-011
-3.985315e-010
-3.990360e-010
1.721250e-010
9.150251e-010
1.307983e-009
1.213071e-009
1.032288e-009
1.323900e-009
2.225057e-009
3.258281e-009
3.743717e-009
3.420080e-009
2.638019e-009
1.915863e-009
1.318395e-009
3.163834e-010
-1.727129e-009
-4.975721e-009
-9.069611e-009
-1.363014e-008
-1.872235e-008
-2.475154e-008
-3.194506e-008
-4.004921e-008
-4.858951e-008
-5.735267e-008
-6.649807e-008
-7.619261e-008
-8.626499e-008
-9.632889e-008
-1.061997e-007
-1.160441e-007
-1.260619e-007
-1.361309e-007
-1.459013e-007
-1.552219e-007
-1.643160e-007
-1.734453e-007
-1.824965e-007
-1.910524e-007
-1.988658e-007
-2.061005e-007
-2.129956e-007
-2.193926e-007
-2.247709e-007
-2.287646e-007
-2.314699e-007
-2.331196e-007
-2.335557e-007
-2.322242e-007
-2.287275e-007
-2.232132e-007
-2.160849e-007
-2.074199e-007
-1.968754e-007
-1.842167e-007
-1.697804e-007
-1.542817e-007
-1.382319e-007
-1.217192e-007
-1.047942e-007
-8.791217e-008
-7.184993e-008
-5.722031e-008
-4.419624e-008
-3.272413e-008
-2.287062e-008
-1.484691e-008
-8.740964e-009
-4.352791e-009
-1.325303e-009
6.436088e-010
1.764999e-009
2.252443e-009
2.336500e-009
2.175002e-009
1.830204e-009
1.375049e-009
9.615969e-010
7.172307e-010
6.031842e-010
4.632295e-010
2.339391e-010
3.684969e-011
1.099845e-011
1.059428e-010
1.294111e-010
6.524731e-013
-1.350409e-010
-9.978794e-011
6.864916e-011
1.545635e-010
4.682334e-011
-1.115484e-010
-1.650378e-009
-1.069777e-009
-7.052345e-011
9.466737e-010
1.415496e-009
9.487172e-010
-2.748074e-010
-1.484610e-009
-1.792957e-009
-8.296302e-010
9.974183e-010
2.835034e-009
4.002289e-009
4.357418e-009
4.160100e-009
3.656988e-009
2.820227e-009
1.428675e-009
-7.020556e-010
-3.647071e-009
-7.519892e-009
-1.261622e-008
-1.933824e-008
-2.796264e-008
-3.851537e-008
-5.088759e-008
-6.502986e-008
-8.097032e-008
-9.863839e-008
-1.177396e-007
-1.378723e-007
-1.587610e-007
-1.803150e-007
-2.024377e-007
-2.248444e-007
-2.471494e-007
-2.691309e-007
-2.908324e-007
-3.123563e-007
-3.336089e-007
-3.543302e-007
-3.743601e-007
-3.937696e-007
-4.126619e-007
-4.309064e-007
-4.481803e-007
-4.642728e-007
-4.792232e-007
-4.930655e-007
-5.054984e-007
-5.159407e-007
-5.239363e-007
-5.293912e-007
-5.323258e-007
-5.324703e-007
-5.292496e-007
-5.221916e-007
-5.112304e-007
-4.965286e-007
-4.780963e-007
-4.557509e-007
-4.294840e-007
-3.997477e-007
-3.672879e-007
-3.327705e-007
-2.967029e-007
-2.597238e-007
-2.228207e-007
-1.871419e-007
-1.536173e-007
-1.228357e-007
-9.524632e-008
-7.131808e-008
-5.139501e-008
-3.544762e-008
-2.307926e-008
-1.379552e-008
-7.196895e-009
-2.893440e-009
-3.460163e-010
1.069192e-009
1.813920e-009
2.075179e-009
1.926941e-009
1.536040e-009
1.139683e-009
8.554720e-010
6.167837e-010
3.370019e-010
7.497785e-011
-2.902182e-011
4.561257e-011
1.461487e-010
1.206788e-010
-9.515243e-012
-9.939325e-011
-6.976832e-011
1.580599e-011
6.216390e-011
6.153000e-011
2.073635e-010
-4.599271e-011
-7.904848e-011
4.569300e-010
1.259357e-009
1.543595e-009
8.086499e-010
-5.467476e-010
-1.406325e-009
-8.175138e-010
1.191503e-009
3.573584e-009
5.023632e-009
4.872262e-009
3.371198e-009
1.193075e-009
-1.361333e-009
-4.764297e-009
-1.000040e-008
-1.797410e-008
-2.914691e-008
-4.365567e-008
-6.166627e-008
-8.353667e-008
-1.096341e-007
-1.400366e-007
-1.744316e-007
-2.122743e-007
-2.530015e-007
-2.961088e-007
-3.411024e-007
-3.874569e-007
-4.346386e-007
-4.821438e-007
-5.295067e-007
-5.763156e-007
-6.222685e-007
-6.672122e-007
-7.110892e-007
-7.538263e-007
-7.952899e-007
-8.353480e-007
-8.739297e-007
-9.109757e-007
-9.463349e-007
-9.797617e-007
-1.011020e-006
-1.039924e-006
-1.066213e-006
-1.089399e-006
-1.108815e-006
-1.123842e-006
-1.134055e-006
-1.139092e-006
-1.138441e-006
-1.131433e-006
-1.117462e-006
-1.096164e-006
-1.067354e-006
-1.030895e-006
-9.867314e-007
-9.350816e-007
-8.765267e-007
-8.118914e-007
-7.421250e-007
-6.683887e-007
-5.922284e-007
-5.155324e-007
-4.402267e-007
-3.680086e-007
-3.003680e-007
-2.387326e-007
-1.843831e-007
-1.381015e-007
-9.992786e-008
-6.933047e-008
-4.561236e-008
-2.810113e-008
-1.598255e-008
-8.118942e-009
-3.214591e-009
-2.255667e-010
1.423458e-009
2.025912e-009
1.912590e-009
1.515408e-009
1.154949e-009
8.813251e-010
5.928697e-010
2.754635e-010
6.023545e-011
5.217125e-011
1.753910e-010
2.390998e-010
1.385753e-010
-4.816964e-011
-1.602595e-010
-1.165365e-010
2.660005e-011
1.439565e-010
3.654656e-009
1.946935e-009
-1.207948e-010
-1.004643e-009
-2.311608e-010
1.325389e-009
2.328358e-009
2.168821e-009
1.402504e-009
1.114806e-009
1.846699e-009
3.041846e-009
3.453474e-009
2.082697e-009
-1.234019e-009
-6.131139e-009
-1.262904e-008
-2.180084e-008
-3.555708e-008
-5.574058e-008
-8.336163e-008
-1.186176e-007
-1.615257e-007
-2.124044e-007
-2.716837e-007
-3.392966e-007
-4.143492e-007
-4.954130e-007
-5.810949e-007
-6.703069e-007
-7.620819e-007
-8.553062e-007
-9.487492e-007
-1.041341e-006
-1.132353e-006
-1.221307e-006
-1.307791e-006
-1.391427e-006
-1.471979e-006
-1.549407e-006
-1.623741e-006
-1.694934e-006
-1.762838e-006
-1.827284e-006
-1.888130e-006
-1.945192e-006
-1.998160e-006
-2.046579e-006
-2.089891e-006
-2.127458e-006
-2.158570e-006
-2.182451e-006
-2.198281e-006
-2.205227e-006
-2.202453e-006
-2.189134e-006
-2.164473e-006
-2.127709e-006
-2.078162e-006
-2.015338e-006
-1.939056e-006
-1.849495e-006
-1.747127e-006
-1.632681e-006
-1.507294e-006
-1.372775e-006
-1.231693e-006
-1.087136e-006
-9.423389e-007
-8.005125e-007
-6.649237e-007
-5.388843e-007
-4.253617e-007
-3.263833e-007
-2.427278e-007
-1.741496e-007
-1.198414e-007
-7.865336e-008
-4.897479e-008
-2.865502e-008
-1.530596e-008
-6.846594e-009
-1.823869e-009
7.259628e-010
1.620513e-009
1.661691e-009
1.462465e-009
1.263064e-009
1.015431e-009
6.639836e-010
3.162329e-010
1.449992e-010
1.828427e-010
2.726338e-010
2.322279e-010
4.283161e-011
-1.422975e-010
-1.661216e-010
-2.952945e-011
1.138480e-010
6.513025e-009
3.698084e-009
-6.336495e-011
-2.387484e-009
-2.022080e-009
4.431066e-010
3.226539e-009
4.731157e-009
4.551451e-009
3.423778e-009
2.296897e-009
1.336945e-009
-3.608561e-010
-4.239121e-009
-1.154034e-008
-2.314081e-008
-4.013343e-008
-6.451717e-008
-9.915629e-008
-1.468732e-007
-2.094435e-007
-2.873804e-007
-3.805582e-007
-4.888462e-007
-6.119932e-007
-7.489370e-007
-8.974104e-007
-1.054382e-006
-1.216920e-006
-1.382645e-006
-1.549492e-006
-1.715319e-006
-1.877966e-006
-2.035728e-006
-2.187636e-006
-2.333227e-006
-2.472115e-006
-2.603872e-006
-2.728273e-006
-2.845458e-006
-2.955753e-006
-3.059323e-006
-3.156090e-006
-3.245937e-006
-3.328872e-006
-3.404901e-006
-3.473786e-006
-3.535017e-006
-3.588026e-006
-3.632375e-006
-3.667675e-006
-3.693358e-006
-3.708580e-006
-3.712386e-006
-3.703912e-006
-3.682399e-006
-3.646977e-006
-3.596488e-006
-3.529567e-006
-3.444930e-006
-3.341573e-006
-3.218717e-006
-3.075672e-006
-2.911942e-006
-2.727678e-006
-2.524172e-006
-2.304010e-006
-2.070876e-006
-1.829300e-006
-1.584646e-006
-1.343146e-006
-1.111595e-006
-8.965319e-007
-7.032613e-007
-5.352402e-007
-3.940442e-007
-2.796488e-007
-1.906605e-007
-1.244335e-007
-7.731736e-008
-4.521112e-008
-2.425950e-008
-1.131545e-008
-3.972568e-009
-3.358035e-010
1.138888e-009
1.592565e-009
1.654634e-009
1.509601e-009
1.164195e-009
7.027573e-010
3.215984e-010
1.657436e-010
1.904406e-010
2.186664e-010
1.319052e-010
-1.862802e-011
-9.607813e-011
-4.870286e-011
3.320186e-011
6.271052e-009
3.851021e-009
4.233943e-010
-2.043753e-009
-2.196831e-009
-6.016486e-011
3.049842e-009
5.373141e-009
5.754377e-009
4.170654e-009
1.326266e-009
-2.434437e-009
-8.085936e-009
-1.802515e-008
-3.535610e-008
-6.314465e-008
-1.043671e-007
-1.624073e-007
-2.412364e-007
-3.446974e-007
-4.753276e-007
-6.337102e-007
-8.187742e-007
-1.028442e-006
-1.259777e-006
-1.508593e-006
-1.769320e-006
-2.035700e-006
-2.301941e-006
-2.563364e-006
-2.816207e-006
-3.057179e-006
-3.283498e-006
-3.493388e-006
-3.686316e-006
-3.862568e-006
-4.022565e-006
-4.166634e-006
-4.295279e-006
-4.409408e-006
-4.510068e-006
-4.598002e-006
-4.673572e-006
-4.737125e-006
-4.789276e-006
-4.830762e-006
-4.862121e-006
-4.883691e-006
-4.895990e-006
-4.900006e-006
-4.897015e-006
-4.888124e-006
-4.874049e-006
-4.855303e-006
-4.832467e-006
-4.806068e-006
-4.776086e-006
-4.741520e-006
-4.700382e-006
-4.649996e-006
-4.587142e-006
-4.507885e-006
-4.407425e-006
-4.280406e-006
-4.121745e-006
-3.927532e-006
-3.695649e-006
-3.426177e-006
-3.121869e-006
-2.788698e-006
-2.436045e-006
-2.076081e-006
-1.722353e-006
-1.388026e-006
-1.084302e-006
-8.193081e-007
-5.975042e-007
-4.196002e-007
-2.829901e-007
-1.826224e-007
-1.121081e-007
-6.479870e-008
-3.460822e-008
-1.645786e-008
-6.361722e-009
-1.302553e-009
9.105338e-010
1.712717e-009
1.860042e-009
1.634781e-009
1.155836e-009
6.034170e-010
2.076804e-010
8.238658e-011
1.377564e-010
1.907427e-010
1.462566e-010
4.937515e-011
-1.768729e-011
-3.712359e-011
1.985214e-009
1.862981e-009
1.463003e-009
8.250885e-010
4.255070e-010
8.917960e-010
2.329818e-009
3.910760e-009
4.216313e-009
2.057435e-009
-3.149066e-009
-1.206298e-008
-2.672170e-008
-5.129879e-008
-9.162471e-008
-1.539778e-007
-2.442609e-007
-3.680008e-007
-5.304601e-007
-7.359232e-007
-9.861910e-007
-1.279326e-006
-1.609545e-006
-1.968075e-006
-2.344125e-006
-2.725531e-006
-3.099501e-006
-3.453876e-006
-3.778602e-006
-4.066530e-006
-4.313180e-006
-4.516072e-006
-4.674438e-006
-4.789355e-006
-4.863630e-006
-4.901026e-006
-4.905288e-006
-4.879726e-006
-4.827427e-006
-4.751464e-006
-4.654629e-006
-4.539046e-006
-4.406287e-006
-4.258010e-006
-4.096470e-006
-3.924471e-006
-3.745082e-006
-3.561735e-006
-3.378718e-006
-3.201486e-006
-3.036352e-006
-2.889810e-006
-2.768123e-006
-2.677365e-006
-2.623473e-006
-2.611792e-006
-2.646153e-006
-2.728028e-006
-2.856180e-006
-3.026599e-006
-3.232237e-006
-3.462463e-006
-3.702711e-006
-3.934876e-006
-4.138483e-006
-4.292229e-006
-4.375717e-006
-4.371573e-006
-4.268041e-006
-4.061557e-006
-3.758357e-006
-3.374439e-006
-2.933841e-006
-2.465567e-006
-1.999669e-006
-1.563096e-006
-1.176234e-006
-8.510389e-007
-5.911290e-007
-3.933615e-007
-2.500459e-007
-1.511345e-007
-8.612127e-008
-4.549637e-008
-2.155469e-008
-8.492025e-009
-2.071521e-009
7.009363e-010
1.715639e-009
1.905256e-009
1.606781e-009
1.019191e-009
4.324486e-010
1.154766e-010
1.100749e-010
2.296665e-010
2.670247e-010
1.688673e-010
1.964824e-011
-7.937994e-011
-4.672608e-009
-1.492133e-009
2.645779e-009
5.110304e-009
4.904342e-009
3.166057e-009
1.760332e-009
1.284273e-009
2.164381e-010
-4.322035e-009
-1.538036e-008
-3.610032e-008
-7.098133e-008
-1.271851e-007
-2.144549e-007
-3.435712e-007
-5.244996e-007
-7.651634e-007
-1.070536e-006
-1.441144e-006
-1.870915e-006
-2.345570e-006
-2.842933e-006
-3.335314e-006
-3.792898e-006
-4.186964e-006
-4.492533e-006
-4.690530e-006
-4.769280e-006
-4.724768e-006
-4.559559e-006
-4.281028e-006
-3.899845e-006
-3.428963e-006
-2.882598e-006
-2.274870e-006
-1.618480e-006
-9.241297e-007
-2.007153e-007
5.443529e-007
1.305153e-006
2.077223e-006
2.856917e-006
3.640236e-006
4.421880e-006
5.195005e-006
5.951287e-006
6.680687e-006
7.370925e-006
8.007270e-006
8.573048e-006
9.050533e-006
9.421604e-006
9.668041e-006
9.771912e-006
9.716537e-006
9.487923e-006
9.076156e-006
8.476451e-006
7.690125e-006
6.725969e-006
5.601991e-006
4.346880e-006
3.000525e-006
1.613434e-006
2.451016e-007
-1.039010e-006
-2.172503e-006
-3.095109e-006
-3.760661e-006
-4.144119e-006
-4.246059e-006
-4.093548e-006
-3.736792e-006
-3.241483e-006
-2.678057e-006
-2.110542e-006
-1.588176e-006
-1.141698e-006
-7.841113e-007
-5.142788e-007
-3.216696e-007
-1.911361e-007
-1.069529e-007
-5.543599e-008
-2.587576e-008
-1.027396e-008
-2.804553e-009
4.588746e-010
1.720815e-009
1.934641e-009
1.520784e-009
8.760862e-010
3.957746e-010
2.423019e-010
2.819497e-010
2.917431e-010
1.833645e-010
2.430723e-011
-8.238264e-011
-9.882264e-009
-4.234650e-009
3.381939e-009
8.385367e-009
8.560618e-009
5.173278e-009
1.112968e-009
-2.290902e-009
-7.223912e-009
-1.894969e-008
-4.413429e-008
-9.006585e-008
-1.656572e-007
-2.830066e-007
-4.574688e-007
-7.053282e-007
-1.039862e-006
-1.467126e-006
-1.982067e-006
-2.565042e-006
-3.179386e-006
-3.771677e-006
-4.276075e-006
-4.622415e-006
-4.745737e-006
-4.594533e-006
-4.135997e-006
-3.358027e-006
-2.268373e-006
-8.914839e-007
7.362476e-007
2.571701e-006
4.569529e-006
6.685449e-006
8.878632e-006
1.111357e-005
1.336130e-005
1.559952e-005
1.781175e-005
1.998619e-005
2.211479e-005
2.419215e-005
2.621393e-005
2.817492e-005
3.006755e-005
3.188134e-005
3.360274e-005
3.521495e-005
3.669753e-005
3.802654e-005
3.917524e-005
4.011502e-005
4.081601e-005
4.124733e-005
4.137746e-005
4.117499e-005
4.060975e-005
3.965401e-005
3.828385e-005
3.648106e-005
3.423634e-005
3.155370e-005
2.845556e-005
2.498766e-005
2.122334e-005
1.726640e-005
1.325072e-005
9.334523e-006
5.688031e-006
2.475421e-006
-1.662379e-007
-2.147261e-006
-3.440462e-006
-4.086598e-006
-4.186940e-006
-3.883421e-006
-3.331536e-006
-2.673952e-006
-2.021790e-006
-1.446723e-006
-9.828781e-007
-6.351863e-007
-3.903776e-007
-2.273079e-007
-1.243422e-007
-6.303763e-008
-2.899095e-008
-1.149597e-008
-3.145191e-009
5.468791e-010
1.866292e-009
1.916912e-009
1.407849e-009
8.709626e-010
5.450648e-010
3.758298e-010
2.346337e-010
9.860576e-011
1.623087e-011
-6.606440e-012
-9.599272e-009
-3.999610e-009
3.650201e-009
8.806442e-009
9.004445e-009
4.976834e-009
-1.121536e-009
-9.043095e-009
-2.288505e-008
-5.120863e-008
-1.055994e-007
-1.996782e-007
-3.496464e-007
-5.752140e-007
-8.983499e-007
-1.337975e-006
-1.900829e-006
-2.570647e-006
-3.298644e-006
-3.998381e-006
-4.547783e-006
-4.800013e-006
-4.602454e-006
-3.819892e-006
-2.355875e-006
-1.666275e-007
2.735247e-006
6.286484e-006
1.038525e-005
1.490606e-005
1.971463e-005
2.468055e-005
2.968644e-005
3.463346e-005
3.944354e-005
4.405947e-005
4.844319e-005
5.257280e-005
5.643852e-005
6.003886e-005
6.337749e-005
6.646068e-005
6.929503e-005
7.188556e-005
7.423487e-005
7.634351e-005
7.821081e-005
7.983567e-005
8.121708e-005
8.235476e-005
8.324974e-005
8.390411e-005
8.431975e-005
8.449607e-005
8.442705e-005
8.409795e-005
8.348161e-005
8.253495e-005
8.119616e-005
7.938409e-005
7.700099e-005
7.393990e-005
7.009693e-005
6.538846e-005
5.977293e-005
5.327523e-005
4.600910e-005
3.819043e-005
3.013404e-005
2.222918e-005
1.489374e-005
8.513231e-006
3.377244e-006
-3.700394e-007
-2.750178e-006
-3.934707e-006
-4.197734e-006
-3.852167e-006
-3.189038e-006
-2.435436e-006
-1.737808e-006
-1.167930e-006
-7.426774e-007
-4.472987e-007
-2.544533e-007
-1.358386e-007
-6.731025e-008
-3.026045e-008
-1.153468e-008
-2.755667e-009
8.548906e-010
1.881772e-009
1.786190e-009
1.373170e-009
9.451162e-010
5.296335e-010
1.687869e-010
-6.459380e-012
4.839669e-011
1.756162e-010
-2.141640e-009
4.828973e-010
4.113040e-009
6.470957e-009
5.828783e-009
1.422082e-009
-7.610087e-009
-2.445120e-008
-5.680003e-008
-1.178886e-007
-2.262290e-007
-4.049239e-007
-6.809242e-007
-1.082761e-006
-1.633597e-006
-2.336880e-006
-3.155182e-006
-3.987710e-006
-4.655884e-006
-4.906633e-006
-4.438629e-006
-2.948903e-006
-1.893925e-007
3.981362e-006
9.565480e-006
1.642012e-005
2.427863e-005
3.279122e-005
4.157346e-005
5.025149e-005
5.849639e-005
6.604519e-005
7.270945e-005
7.837390e-005
8.298810e-005
8.655406e-005
8.911191e-005
9.072525e-005
9.146808e-005
9.141488e-005
9.063485e-005
8.919026e-005
8.713767e-005
8.453154e-005
8.142976e-005
7.790033e-005
7.402754e-005
6.991675e-005
6.569728e-005
6.152348e-005
5.757313e-005
5.404243e-005
5.113746e-005
4.906256e-005
4.800555e-005
4.811999e-005
4.950482e-005
5.218252e-005
5.607747e-005
6.099687e-005
6.661770e-005
7.248406e-005
7.801936e-005
8.255865e-005
8.540596e-005
8.591891e-005
8.361504e-005
7.828275e-005
7.006894e-005
5.951102e-005
4.748908e-005
3.509422e-005
2.343680e-005
1.344261e-005
5.696022e-006
3.738951e-007
-2.720153e-006
-4.042164e-006
-4.157321e-006
-3.601366e-006
-2.789588e-006
-1.985540e-006
-1.318085e-006
-8.227462e-007
-4.844585e-007
-2.688597e-007
-1.398814e-007
-6.735120e-008
-2.908670e-008
-1.034476e-008
-2.084820e-009
9.706369e-010
1.770107e-009
1.741343e-009
1.360880e-009
7.630181e-010
1.871359e-010
-4.410028e-011
1.357735e-010
4.096322e-010
1.012018e-008
8.015807e-009
5.186917e-009
2.820745e-009
1.394621e-010
-6.327914e-009
-2.261790e-008
-5.764254e-008
-1.248083e-007
-2.443802e-007
-4.450212e-007
-7.628897e-007
-1.236590e-006
-1.895126e-006
-2.734860e-006
-3.683565e-006
-4.557454e-006
-5.028411e-006
-4.625620e-006
-2.790370e-006
1.016085e-006
7.175230e-006
1.578344e-005
2.657336e-005
3.890867e-005
5.185662e-005
6.432086e-005
7.519881e-005
8.352375e-005
8.856338e-005
8.986402e-005
8.724632e-005
8.076797e-005
7.066971e-005
5.731665e-005
4.114199e-005
2.259720e-005
2.111577e-006
-1.993604e-005
-4.323125e-005
-6.752319e-005
-9.261121e-005
-1.183233e-004
-1.444902e-004
-1.709184e-004
-1.973653e-004
-2.235201e-004
-2.489914e-004
-2.733017e-004
-2.958888e-004
-3.161146e-004
-3.332804e-004
-3.466491e-004
-3.554726e-004
-3.590242e-004
-3.566386e-004
-3.477582e-004
-3.319879e-004
-3.091569e-004
-2.793881e-004
-2.431721e-004
-2.014376e-004
-1.556075e-004
-1.076207e-004
-5.989263e-005
-1.517935e-005
2.367931e-005
5.413698e-005
7.438702e-005
8.376872e-005
8.298884e-005
7.404107e-005
5.980741e-005
4.345006e-005
2.777364e-005
1.474532e-005
5.304685e-006
-5.381702e-007
-3.412921e-006
-4.232056e-006
-3.885148e-006
-3.054873e-006
-2.164098e-006
-1.414972e-006
-8.648370e-007
-4.970123e-007
-2.685907e-007
-1.355977e-007
-6.289380e-008
-2.587030e-008
-8.640393e-009
-1.489627e-009
1.116284e-009
1.866174e-009
1.736320e-009
1.086951e-009
3.562071e-010
3.460500e-011
2.361284e-010
5.671242e-010
2.155809e-008
1.502375e-008
6.057970e-009
-1.277335e-009
-7.750070e-009
-2.082800e-008
-5.337318e-008
-1.221640e-007
-2.492210e-007
-4.656591e-007
-8.141401e-007
-1.344232e-006
-2.094697e-006
-3.056747e-006
-4.114711e-006
-4.970920e-006
-5.082178e-006
-3.656005e-006
2.440134e-007
7.466555e-006
1.845289e-005
3.291858e-005
4.964644e-005
6.647836e-005
8.055047e-005
8.872736e-005
8.811095e-005
7.649020e-005
5.262434e-005
1.630821e-005
-3.175596e-005
-9.020146e-005
-1.572672e-004
-2.310353e-004
-3.096146e-004
-3.912690e-004
-4.745011e-004
-5.580961e-004
-6.411305e-004
-7.229468e-004
-8.031016e-004
-8.812953e-004
-9.572977e-004
-1.030877e-003
-1.101740e-003
-1.169496e-003
-1.233629e-003
-1.293498e-003
-1.348347e-003
-1.397325e-003
-1.439503e-003
-1.473902e-003
-1.499501e-003
-1.515242e-003
-1.520026e-003
-1.512699e-003
-1.492051e-003
-1.456822e-003
-1.405752e-003
-1.337678e-003
-1.251713e-003
-1.147515e-003
-1.025642e-003
-8.879709e-004
-7.380805e-004
-5.814891e-004
-4.255556e-004
-2.789024e-004
-1.503114e-004
-4.722125e-005
2.584362e-005
6.840805e-005
8.420448e-005
8.012005e-005
6.432874e-005
4.436554e-005
2.574264e-005
1.144960e-005
2.267425e-006
-2.486756e-006
-4.143367e-006
-4.047307e-006
-3.215310e-006
-2.255902e-006
-1.447282e-006
-8.638122e-007
-4.832688e-007
-2.533788e-007
-1.234984e-007
-5.498189e-008
-2.157157e-008
-6.674707e-009
-6.044995e-010
1.586580e-009
1.985097e-009
1.462483e-009
6.850949e-010
2.442593e-010
3.131511e-010
5.557883e-010
2.660030e-008
1.763195e-008
4.923959e-009
-6.857466e-009
-2.035759e-008
-4.825080e-008
-1.114713e-007
-2.370877e-007
-4.598750e-007
-8.264662e-007
-1.394296e-006
-2.213036e-006
-3.275084e-006
-4.425745e-006
-5.239797e-006
-4.906276e-006
-2.208915e-006
4.287650e-006
1.577560e-005
3.250204e-005
5.300048e-005
7.353265e-005
8.805202e-005
8.892335e-005
6.828324e-005
1.965988e-005
-6.063256e-005
-1.728138e-004
-3.138274e-004
-4.781566e-004
-6.588885e-004
-8.487215e-004
-1.040751e-003
-1.228985e-003
-1.408626e-003
-1.576151e-003
-1.729259e-003
-1.866701e-003
-1.988052e-003
-2.093454e-003
-2.183379e-003
-2.258441e-003
-2.319285e-003
-2.366536e-003
-2.400825e-003
-2.422845e-003
-2.433446e-003
-2.433719e-003
-2.425074e-003
-2.409273e-003
-2.388415e-003
-2.364868e-003
-2.341139e-003
-2.319687e-003
-2.302676e-003
-2.291678e-003
-2.287326e-003
-2.288921e-003
-2.294031e-003
-2.298112e-003
-2.294262e-003
-2.273248e-003
-2.224016e-003
-2.134921e-003
-1.995855e-003
-1.801186e-003
-1.552949e-003
-1.263058e-003
-9.530347e-004
-6.504365e-004
-3.828126e-004
-1.713839e-004
-2.642352e-005
5.442198e-005
8.395353e-005
8.006478e-005
6.006355e-005
3.685800e-005
1.769869e-005
5.060887e-006
-1.577205e-006
-4.011043e-006
-4.114250e-006
-3.266121e-006
-2.253193e-006
-1.411613e-006
-8.197205e-007
-4.448359e-007
-2.254507e-007
-1.058099e-007
-4.509940e-008
-1.658688e-008
-4.256735e-009
5.312035e-010
1.911876e-009
1.769659e-009
1.119996e-009
5.891436e-010
4.017334e-010
4.174777e-010
2.325375e-008
1.425555e-008
2.532552e-010
-1.664978e-008
-4.327311e-008
-9.865913e-008
-2.132127e-007
-4.275715e-007
-7.941805e-007
-1.377300e-006
-2.236877e-006
-3.373296e-006
-4.609943e-006
-5.410732e-006
-4.685629e-006
-7.265040e-007
8.507836e-006
2.455703e-005
4.704078e-005
7.192841e-005
9.012506e-005
8.735588e-005
4.622398e-005
-4.975015e-005
-2.111313e-004
-4.386220e-004
-7.219501e-004
-1.041416e-003
-1.371175e-003
-1.683588e-003
-1.953715e-003
-2.162755e-003
-2.299700e-003
-2.361269e-003
-2.350637e-003
-2.275525e-003
-2.146108e-003
-1.973151e-003
-1.766636e-003
-1.535017e-003
-1.285030e-003
-1.021901e-003
-7.497879e-004
-4.722651e-004
-1.927684e-004
8.508747e-005
3.573310e-004
6.195896e-004
8.671505e-004
1.095085e-003
1.298382e-003
1.472057e-003
1.611189e-003
1.710893e-003
1.766224e-003
1.772040e-003
1.722887e-003
1.612990e-003
1.436489e-003
1.188088e-003
8.643679e-004
4.660259e-004
1.214319e-006
-5.101491e-004
-1.032036e-003
-1.510262e-003
-1.876783e-003
-2.064520e-003
-2.032168e-003
-1.788110e-003
-1.395426e-003
-9.492702e-004
-5.402147e-004
-2.274377e-004
-3.079376e-005
6.320393e-005
8.626280e-005
7.206740e-005
4.613573e-005
2.276538e-005
7.116773e-006
-1.014890e-006
-3.947517e-006
-4.108941e-006
-3.207584e-006
-2.156567e-006
-1.311991e-006
-7.382014e-007
-3.873206e-007
-1.892710e-007
-8.518452e-008
-3.427115e-008
-1.129074e-008
-1.957464e-009
1.202450e-009
1.830114e-009
1.562201e-009
1.059063e-009
5.853941e-010
2.978340e-010
1.379805e-008
6.193685e-009
-8.647191e-009
-3.433172e-008
-8.413133e-008
-1.848938e-007
-3.787028e-007
-7.237978e-007
-1.293273e-006
-2.159993e-006
-3.341084e-006
-4.664073e-006
-5.529936e-006
-4.618862e-006
2.678080e-007
1.185529e-005
3.207872e-005
5.952635e-005
8.592855e-005
9.294393e-005
5.187752e-005
-7.092449e-005
-3.027192e-004
-6.497013e-004
-1.086038e-003
-1.551061e-003
-1.956836e-003
-2.209852e-003
-2.240725e-003
-2.025301e-003
-1.585982e-003
-9.767215e-004
-2.634352e-004
4.912426e-004
1.236500e-003
1.936473e-003
2.569796e-003
3.127055e-003
3.607372e-003
4.015045e-003
4.356831e-003
4.640092e-003
4.871738e-003
5.057799e-003
5.203411e-003
5.313050e-003
5.390853e-003
5.440935e-003
5.467626e-003
5.475601e-003
5.469881e-003
5.455717e-003
5.438369e-003
5.422797e-003
5.413274e-003
5.412885e-003
5.422887e-003
5.441866e-003
5.464605e-003
5.480564e-003
5.471934e-003
5.411314e-003
5.259424e-003
4.964090e-003
4.463402e-003
3.698562e-003
2.643266e-003
1.349900e-003
-9.857613e-006
-1.160357e-003
-1.832373e-003
-1.922683e-003
-1.563577e-003
-1.018314e-003
-5.137449e-004
-1.630774e-004
2.134547e-005
8.342732e-005
7.929009e-005
5.214714e-005
2.558395e-005
7.872668e-006
-1.009376e-006
-3.998847e-006
-4.032309e-006
-3.040934e-006
-1.974614e-006
-1.160336e-006
-6.304235e-007
-3.189341e-007
-1.495946e-007
-6.386973e-008
-2.375812e-008
-6.800878e-009
-5.241138e-010
1.465464e-009
1.896937e-009
1.599785e-009
9.037387e-010
3.137449e-010
1.896835e-009
-4.644184e-009
-2.286129e-008
-6.462523e-008
-1.518618e-007
-3.214095e-007
-6.302477e-007
-1.157286e-006
-1.990852e-006
-3.176210e-006
-4.577406e-006
-5.603925e-006
-4.816761e-006
3.774179e-007
1.341258e-005
3.680140e-005
6.812566e-005
9.376840e-005
8.243317e-005
-1.563583e-005
-2.561196e-004
-6.711416e-004
-1.228230e-003
-1.797051e-003
-2.149921e-003
-2.042130e-003
-1.356640e-003
-1.862653e-004
1.223055e-003
2.602933e-003
3.763182e-003
4.619067e-003
5.166594e-003
5.445142e-003
5.509534e-003
5.414645e-003
5.208382e-003
4.929180e-003
4.605858e-003
4.258776e-003
3.901585e-003
3.543104e-003
3.189011e-003
2.843177e-003
2.508630e-003
2.188153e-003
1.884593e-003
1.600960e-003
1.340397e-003
1.106092e-003
9.012128e-004
7.288862e-004
5.922727e-004
4.947321e-004
4.400842e-004
4.329444e-004
4.791090e-004
5.859483e-004
7.627214e-004
1.020650e-003
1.372454e-003
1.830780e-003
2.404563e-003
3.091684e-003
3.865716e-003
4.654847e-003
5.315264e-003
5.614063e-003
5.260271e-003
4.040181e-003
2.064913e-003
-5.937449e-005
-1.502385e-003
-1.866178e-003
-1.452464e-003
-8.152497e-004
-3.074107e-004
-2.543584e-005
7.707085e-005
8.237021e-005
5.419269e-005
2.557651e-005
7.121420e-006
-1.559559e-006
-4.119793e-006
-3.862486e-006
-2.771524e-006
-1.725283e-006
-9.752377e-007
-5.100721e-007
-2.476866e-007
-1.105656e-007
-4.428916e-008
-1.517299e-008
-3.701993e-009
5.199919e-010
2.013357e-009
2.104405e-009
1.298135e-009
4.641515e-010
-1.121645e-008
-1.879647e-008
-4.575231e-008
-1.140778e-007
-2.567077e-007
-5.236344e-007
-9.900700e-007
-1.753504e-006
-2.892353e-006
-4.337091e-006
-5.586006e-006
-5.235570e-006