# vtk DataFile Version 3.0
vtk output
ASCII
DATASET STRUCTURED_POINTS
DIMENSIONS 100 100 1
SPACING 1 1 1
ORIGIN 0 0 0
POINT_DATA 10000
SCALARS SFBox_profile double
LOOKUP_TABLE default 
0.000000e+000
0.000000e+000
0.000000e+000
0.000000e+000
0.000000e+000
0.000000e+000
0.000000e+000
0.000000e+000
0.000000e+000
0.000000e+000
0.000000e+000
0.000000e+000
0.000000e+000
0.000000e+000
0.000000e+000
0.000000e+000
0.000000e+000
0.000000e+000
0.000000e+000
0.000000e+000
0.000000e+000
0.000000e+000
0.000000e+000
0.000000e+000
0.000000e+000
0.000000e+000
0.000000e+000
0.000000e+000
0.000000e+000
0.000000e+000
0.000000e+000
0.000000e+000
0.000000e+000
0.000000e+000
0.000000e+000
0.000000e+000
0.000000e+000
0.000000e+000
0.000000e+000
0.000000e+000
0.000000e+000
0.000000e+000
0.000000e+000
0.000000e+000
0.000000e+000
0.000000e+000
0.000000e+000
0.000000e+000
0.000000e+000
0.000000e+000
0.000000e+000
0.000000e+000
0.000000e+000
0.000000e+000
0.000000e+000
0.000000e+000
0.000000e+000
0.000000e+000
0.000000e+000
0.000000e+000
0.000000e+000
0.000000e+000
0.000000e+000
0.000000e+000
0.000000e+000
0.000000e+000
0.000000e+000
0.000000e+000
0.000000e+000
0.000000e+000
0.000000e+000
0.000000e+000
0.000000e+000
0.000000e+000
0.000000e+000
0.000000e+000
0.000000e+000
0.000000e+000
0.000000e+000
0.000000e+000
0.000000e+000
0.000000e+000
0.000000e+000
0.000000e+000
0.000000e+000
0.000000e+000
0.000000e+000
0.000000e+000
0.000000e+000
0.000000e+000
0.000000e+000
0.000000e+000
0.000000e+000
0.000000e+000
0.000000e+000
0.000000e+000
0.000000e+000
0.000000e+000
0.000000e+000
0.000000e+000
-3.384305e-009
-9.292229e-010
2.241110e-009
3.924554e-009
2.867580e-009
-3.741928e-010
-3.708796e-009
-4.837479e-009
-2.826686e-009
1.172405e-009
4.643638e-009
5.415889e-009
3.127069e-009
-6.453330e-010
-3.637339e-009
-4.494050e-009
-3.454910e-009
-1.725518e-009
-2.714906e-010
8.320010e-010
2.022452e-009
3.403161e-009
4.379413e-009
4.149064e-009
2.508291e-009
1.283079e-010
-1.970202e-009
-3.205034e-009
-3.726671e-009
-4.016113e-009
-4.282672e-009
-4.284253e-009
-3.680299e-009
-2.470761e-009
-1.046369e-009
1.623370e-010
1.036097e-009
1.770346e-009
2.582937e-009
3.464644e-009
4.210874e-009
4.652111e-009
4.819550e-009
4.894521e-009
5.026888e-009
5.214505e-009
5.341870e-009
5.315243e-009
5.160600e-009
5.004278e-009
4.961932e-009
5.034339e-009
5.104239e-009
5.046928e-009
4.860012e-009
4.679135e-009
4.640534e-009
4.714748e-009
4.697402e-009
4.399446e-009
3.851548e-009
3.283840e-009
2.867103e-009
2.486384e-009
1.826473e-009
7.210563e-010
-6.051872e-010
-1.700359e-009
-2.316659e-009
-2.640178e-009
-3.031373e-009
-3.529417e-009
-3.681433e-009
-2.948901e-009
-1.311241e-009
5.786259e-010
1.899897e-009
2.344741e-009
2.276888e-009
2.204459e-009
2.136988e-009
1.544273e-009
1.314933e-011
-2.061636e-009
-3.519044e-009
-3.285534e-009
-1.314218e-009
1.249485e-009
2.861853e-009
2.682820e-009
1.096920e-009
-7.005802e-010
-1.628506e-009
-1.395886e-009
-4.918295e-010
3.431800e-010
6.555236e-010
4.555665e-010
4.503264e-011
-2.518242e-010
-3.336227e-010
-2.275172e-010
9.372616e-012
3.151996e-010
4.944514e-010
3.580411e-010
-6.088866e-011
-4.602915e-010
-5.013576e-010
-1.358606e-010
3.011886e-010
3.749953e-010
-2.096566e-011
-5.103749e-010
-5.478908e-010
5.656753e-011
9.011621e-010
1.300272e-009
8.770597e-010
-1.082815e-010
-1.000536e-009
-1.320746e-009
-1.118941e-009
-7.998710e-010
-6.471499e-010
-5.502967e-010
-1.912294e-010
5.463407e-010
1.396042e-009
1.938516e-009
1.982861e-009
1.701837e-009
1.407893e-009
1.233727e-009
1.048574e-009
6.606727e-010
5.708418e-011
-5.732823e-010
-1.030436e-009
-1.285923e-009
-1.474401e-009
-1.729996e-009
-2.051844e-009
-2.324692e-009
-2.449402e-009
-2.441339e-009
-2.408644e-009
-2.446426e-009
-2.552625e-009
-2.639035e-009
-2.621990e-009
-2.508360e-009
-2.395461e-009
-2.378257e-009
-2.447741e-009
-2.486460e-009
-2.381104e-009
-2.145738e-009
-1.917392e-009
-1.808257e-009
-1.764153e-009
-1.597455e-009
-1.183707e-009
-6.152857e-010
-1.262766e-010
1.517512e-010
3.358668e-010
6.563858e-010
1.167556e-009
1.627600e-009
1.709065e-009
1.335276e-009
7.766682e-010
3.843875e-010
2.373398e-010
8.946672e-011
-3.133239e-010
-8.868002e-010
-1.223144e-009
-9.802253e-010
-2.530655e-010
4.634626e-010
6.999880e-010
4.133729e-010
-1.933961e-011
-1.859520e-010
-1.254788e-011
2.241957e-010
2.190011e-010
-5.022433e-011
-3.211527e-010
-3.275909e-010
-6.383347e-011
2.222922e-010
2.797114e-010
8.919791e-011
-1.395136e-010
-1.871766e-010
-3.526437e-011
1.338622e-010
3.191480e-009
6.925265e-010
-2.377411e-009
-3.732714e-009
-2.338711e-009
8.901333e-010
3.754074e-009
4.297807e-009
2.121379e-009
-1.421678e-009
-4.206573e-009
-4.730109e-009
-2.926116e-009
5.405892e-011
2.748364e-009
4.213183e-009
4.256808e-009
3.152943e-009
1.282171e-009
-9.737863e-010
-3.146312e-009
-4.673999e-009
-5.100913e-009
-4.320705e-009
-2.625182e-009
-5.081519e-010
1.591178e-009
3.399551e-009
4.754856e-009
5.528242e-009
5.638952e-009
5.125595e-009
4.156990e-009
2.942346e-009
1.625185e-009
2.637340e-010
-1.101767e-009
-2.389116e-009
-3.494731e-009
-4.365630e-009
-5.034047e-009
-5.572554e-009
-6.018952e-009
-6.351017e-009
-6.532787e-009
-6.576500e-009
-6.551318e-009
-6.530054e-009
-6.530974e-009
-6.515524e-009
-6.443524e-009
-6.327063e-009
-6.225077e-009
-6.182571e-009
-6.178696e-009
-6.141457e-009
-6.016166e-009
-5.813386e-009
-5.580632e-009
-5.326560e-009
-4.984216e-009
-4.460448e-009
-3.720444e-009
-2.812661e-009
-1.807060e-009
-7.237401e-010
4.561244e-010
1.703809e-009
2.884356e-009
3.802730e-009
4.309064e-009
4.347773e-009
3.909865e-009
2.977443e-009
1.566484e-009
-1.567009e-010
-1.832653e-009
-3.037105e-009
-3.493467e-009
-3.177351e-009
-2.233722e-009
-8.387679e-010
8.050431e-010
2.338696e-009
3.202520e-009
2.876898e-009
1.309438e-009
-8.465503e-010
-2.492397e-009
-2.750422e-009
-1.559495e-009
2.724496e-010
1.618897e-009
1.780275e-009
8.853694e-010
-3.004546e-010
-9.636076e-010
-7.817714e-010
-6.477212e-011
5.410913e-010
4.109901e-009
1.143360e-009
-2.644034e-009
-4.594760e-009
-3.299882e-009
4.376397e-010
4.100425e-009
5.152886e-009
2.808866e-009
-1.399158e-009
-4.706034e-009
-5.071096e-009
-2.534201e-009
1.022431e-009
3.410394e-009
3.663453e-009
2.384367e-009
8.453123e-010
-1.767706e-010
-7.911189e-010
-1.451088e-009
-2.213477e-009
-2.595825e-009
-2.104384e-009
-8.056527e-010
6.662562e-010
1.640255e-009
1.915517e-009
1.775855e-009
1.587300e-009
1.442463e-009
1.179432e-009
6.657465e-010
-6.154780e-012
-6.023528e-010
-9.724284e-010
-1.156988e-009
-1.290654e-009
-1.442254e-009
-1.567928e-009
-1.595849e-009
-1.519586e-009
-1.398436e-009
-1.288241e-009
-1.195503e-009
-1.097623e-009
-9.866024e-010
-8.788820e-010
-7.909175e-010
-7.232533e-010
-6.731336e-010
-6.490738e-010
-6.595727e-010
-6.921648e-010
-7.210327e-010
-7.429082e-010
-7.919023e-010
-8.997332e-010
-1.041518e-009
-1.143145e-009
-1.160251e-009
-1.138531e-009
-1.164384e-009
-1.241541e-009
-1.241569e-009
-1.017104e-009
-5.737507e-010
-9.458853e-011
2.451087e-010
4.792543e-010
8.128458e-010
1.340171e-009
1.824320e-009
1.834315e-009
1.161429e-009
8.794183e-011
-8.182896e-010
-1.213868e-009
-1.260687e-009
-1.350475e-009
-1.551323e-009
-1.408526e-009
-4.039755e-010
1.337144e-009
2.853574e-009
2.996522e-009
1.417741e-009
-1.003021e-009
-2.735429e-009
-2.730603e-009
-1.167262e-009
7.726891e-010
1.844254e-009
1.592437e-009
4.976883e-010
-5.531342e-010
-9.378425e-010
-6.119387e-010
3.092573e-011
5.035387e-010
1.392047e-009
7.055092e-010
-3.849254e-010
-1.334315e-009
-1.523298e-009
-7.134698e-010
6.061007e-010
1.451073e-009
1.130179e-009
-7.049696e-011
-1.031715e-009
-7.834684e-010
5.272457e-010
1.647074e-009
1.306467e-009
-5.675442e-010
-2.665770e-009
-3.360563e-009
-2.062224e-009
3.599645e-010
2.413628e-009
3.219014e-009
2.996894e-009
2.491557e-009
2.064640e-009
1.409100e-009
7.581540e-011
-1.855595e-009
-3.704547e-009
-4.755617e-009
-4.835663e-009
-4.330737e-009
-3.706801e-009
-3.082960e-009
-2.261160e-009
-1.083871e-009
3.184108e-010
1.631769e-009
2.646670e-009
3.401032e-009
4.062221e-009
4.721066e-009
5.321001e-009
5.755967e-009
5.993935e-009
6.098167e-009
6.157503e-009
6.219165e-009
6.277815e-009
6.301441e-009
6.260260e-009
6.151772e-009
6.016977e-009
5.921285e-009
5.891344e-009
5.863425e-009
5.720808e-009
5.410341e-009
5.012924e-009
4.658891e-009
4.352621e-009
3.911644e-009
3.132838e-009
2.033139e-009
8.807675e-010
-6.333118e-011
-8.256162e-010
-1.674922e-009
-2.747839e-009
-3.750993e-009
-4.128311e-009
-3.586236e-009
-2.426710e-009
-1.286147e-009
-5.179598e-010
1.099424e-010
1.033409e-009
2.217755e-009
2.966566e-009
2.520610e-009
8.897260e-010
-9.642020e-010
-1.865200e-009
-1.415417e-009
-2.889718e-010
4.466447e-010
3.054911e-010
-2.784881e-010
-5.120966e-010
-7.841902e-011
5.892140e-010
8.079275e-010
3.543642e-010
-3.383675e-010
-6.469935e-010
-3.705759e-010
1.268326e-010
3.404428e-010
1.406943e-010
-1.474266e-010
-2.936081e-009
-3.799948e-010
2.528629e-009
3.411303e-009
1.598712e-009
-1.480636e-009
-3.575353e-009
-3.355548e-009
-1.199459e-009
1.417018e-009
3.148909e-009
3.507454e-009
2.681188e-009
9.930354e-010
-1.269906e-009
-3.564955e-009
-4.929178e-009
-4.433034e-009
-1.976962e-009
1.387603e-009
4.075330e-009
5.056296e-009
4.445441e-009
3.102953e-009
1.729127e-009
3.754549e-010
-1.233719e-009
-3.056324e-009
-4.534926e-009
-5.051828e-009
-4.506906e-009
-3.387809e-009
-2.288563e-009
-1.412331e-009
-5.488906e-010
5.349623e-010
1.766729e-009
2.833190e-009
3.504848e-009
3.837486e-009
4.062753e-009
4.334139e-009
4.608611e-009
4.748103e-009
4.688845e-009
4.500510e-009
4.311219e-009
4.202515e-009
4.166721e-009
4.135887e-009
4.044481e-009
3.888339e-009
3.743156e-009
3.711268e-009
3.818896e-009
3.961410e-009
3.983148e-009
3.840594e-009
3.669749e-009
3.644397e-009
3.748851e-009
3.730896e-009
3.335356e-009
2.587303e-009
1.786818e-009
1.175275e-009
6.342736e-010
-2.027551e-010
-1.493628e-009
-2.883604e-009
-3.739671e-009
-3.720511e-009
-3.070221e-009
-2.296215e-009
-1.582536e-009
-6.185317e-010
9.216705e-010
2.764990e-009
4.015248e-009
3.840301e-009
2.218587e-009
5.221983e-013
-1.764561e-009
-2.557319e-009
-2.508362e-009
-1.943499e-009
-9.769802e-010
3.793869e-010
1.802478e-009
2.559842e-009
2.014219e-009
3.033704e-010
-1.536489e-009
-2.266918e-009
-1.429567e-009
2.522722e-010
1.445398e-009
1.290976e-009
8.465936e-011
-1.019606e-009
-5.273518e-009
-1.274879e-009
3.555197e-009
5.601343e-009
3.471020e-009
-1.113319e-009
-4.765979e-009
-5.014458e-009
-1.993977e-009
1.940362e-009
4.175569e-009
3.690912e-009
1.410483e-009
-9.227147e-010
-2.145119e-009
-2.181001e-009
-1.548561e-009
-6.656498e-010
3.143257e-010
1.198237e-009
1.582258e-009
1.141412e-009
4.389995e-011
-1.060994e-009
-1.550765e-009
-1.317812e-009
-7.343916e-010
-1.775040e-010
3.339238e-010
1.013737e-009
1.903180e-009
2.694938e-009
2.993452e-009
2.701452e-009
2.094882e-009
1.522606e-009
1.080390e-009
5.986935e-010
-9.182105e-011
-9.403921e-010
-1.726516e-009
-2.285052e-009
-2.645742e-009
-2.962042e-009
-3.339092e-009
-3.744102e-009
-4.061483e-009
-4.210221e-009
-4.212437e-009
-4.170504e-009
-4.182596e-009
-4.260017e-009
-4.311242e-009
-4.220706e-009
-3.968574e-009
-3.671846e-009
-3.476137e-009
-3.385885e-009
-3.223286e-009
-2.796935e-009
-2.119510e-009
-1.419268e-009
-8.980935e-010
-4.951996e-010
5.072606e-011
8.743197e-010
1.755638e-009
2.280595e-009
2.242373e-009
1.837067e-009
1.421961e-009
1.112148e-009
6.941735e-010
-2.980606e-011
-8.744452e-010
-1.340797e-009
-1.085316e-009
-2.774894e-010
5.495883e-010
9.773520e-010
9.747148e-010
7.122806e-010
2.330800e-010
-5.457520e-010
-1.480747e-009
-1.997217e-009
-1.449296e-009
1.865044e-010
2.009336e-009
2.738726e-009
1.740467e-009
-3.696323e-010
-2.130024e-009
-2.344658e-009
-9.820985e-010
8.547412e-010
1.814452e-009
1.303274e-009
-1.427741e-010
-1.332163e-009
-3.376217e-009
-1.171906e-009
1.670383e-009
3.214601e-009
2.468833e-009
9.782983e-011
-2.045435e-009
-2.342988e-009
-7.269465e-010
1.247773e-009
1.737824e-009
2.496602e-010
-1.884858e-009
-2.661412e-009
-1.159379e-009
1.676765e-009
3.874787e-009
4.037797e-009
2.261761e-009
-2.792914e-010
-2.436599e-009
-3.764056e-009
-4.332472e-009
-4.193088e-009
-3.207862e-009
-1.357032e-009
9.697626e-010
3.116663e-009
4.593391e-009
5.320224e-009
5.468666e-009
5.153656e-009
4.347454e-009
3.058195e-009
1.489554e-009
-4.444548e-011
-1.351016e-009
-2.463421e-009
-3.510887e-009
-4.520385e-009
-5.373364e-009
-5.942190e-009
-6.233237e-009
-6.381289e-009
-6.518205e-009
-6.662830e-009
-6.734709e-009
-6.660625e-009
-6.463825e-009
-6.256431e-009
-6.146334e-009
-6.142795e-009
-6.149254e-009
-6.059415e-009
-5.871289e-009
-5.698333e-009
-5.647589e-009
-5.682911e-009
-5.631562e-009
-5.347921e-009
-4.859435e-009
-4.317138e-009
-3.792168e-009
-3.156902e-009
-2.210729e-009
-9.216090e-010
4.998582e-010
1.787348e-009
2.839429e-009
3.697851e-009
4.315564e-009
4.436284e-009
3.793376e-009
2.429140e-009
7.452922e-010
-8.043642e-010
-2.023019e-009
-2.907945e-009
-3.320242e-009
-2.886046e-009
-1.395024e-009
6.903867e-010
2.287759e-009
2.465236e-009
1.266099e-009
-2.648564e-010
-9.668268e-010
-5.467227e-010
2.743854e-010
5.528912e-010
3.291272e-011
-7.019908e-010
-8.951900e-010
-3.602496e-010
4.190269e-010
8.229115e-010
6.450198e-010
1.450682e-010
-3.082462e-010
-5.379880e-010
1.617292e-009
-4.662306e-011
-1.766218e-009
-1.990990e-009
-5.897750e-010
1.236093e-009
2.196527e-009
1.945776e-009
9.805326e-010
-1.840355e-010
-1.449106e-009
-2.722863e-009
-3.366239e-009
-2.441876e-009
2.655411e-010
3.558033e-009
5.419756e-009
4.556814e-009
1.477447e-009
-1.925535e-009
-3.886143e-009
-3.957706e-009
-2.911044e-009
-1.698229e-009
-6.420116e-010
4.585612e-010
1.686248e-009
2.677474e-009
2.939434e-009
2.362266e-009
1.322421e-009
3.099657e-010
-4.642272e-010
-1.087009e-009
-1.668461e-009
-2.147819e-009
-2.376180e-009
-2.314904e-009
-2.086711e-009
-1.835942e-009
-1.585832e-009
-1.257234e-009
-8.044367e-010
-2.961728e-010
1.459338e-010
4.684881e-010
7.261626e-010
1.001476e-009
1.299425e-009
1.533658e-009
1.617702e-009
1.560553e-009
1.459991e-009
1.396727e-009
1.344507e-009
1.200807e-009
9.095318e-010
5.345917e-010
1.906864e-010
-9.251145e-011
-4.032409e-010
-8.227521e-010
-1.289616e-009
-1.633421e-009
-1.752883e-009
-1.712760e-009
-1.614747e-009
-1.395519e-009
-8.435571e-010
1.198674e-010
1.215760e-009
1.962929e-009
2.102838e-009
1.810261e-009
1.405680e-009
8.930340e-010
-6.833746e-011
-1.616295e-009
-3.166735e-009
-3.641786e-009
-2.398060e-009
3.885414e-011
2.255517e-009
3.063026e-009
2.381558e-009
1.070896e-009
-1.500829e-011
-7.054532e-010
-1.278151e-009
-1.747745e-009
-1.635330e-009
-5.578941e-010
1.056895e-009
2.069174e-009
1.613751e-009
1.395213e-011
-1.385187e-009
-1.414210e-009
-1.757162e-010
1.053847e-009
5.877541e-009
1.192182e-009
-4.145214e-009
-5.902112e-009
-3.073318e-009
1.679710e-009
4.622534e-009
4.022657e-009
1.076104e-009
-1.695315e-009
-2.699210e-009
-2.113067e-009
-9.895887e-010
-1.131478e-012
8.279819e-010
1.474205e-009
1.485174e-009
4.518001e-010
-1.209474e-009
-2.262039e-009
-1.662851e-009
4.091540e-010
2.617726e-009
3.599167e-009
3.025627e-009
1.607229e-009
1.988141e-010
-9.580742e-010
-2.141705e-009
-3.502168e-009
-4.691818e-009
-5.160265e-009
-4.702760e-009
-3.626163e-009
-2.402365e-009
-1.247741e-009
-6.800492e-011
1.263612e-009
2.673984e-009
3.950147e-009
4.962845e-009
5.766753e-009
6.484400e-009
7.144102e-009
7.665296e-009
7.982229e-009
8.136500e-009
8.229272e-009
8.305661e-009
8.319685e-009
8.217892e-009
8.029121e-009
7.842385e-009
7.698894e-009
7.538118e-009
7.274599e-009
6.912441e-009
6.542254e-009
6.206808e-009
5.803368e-009
5.170735e-009
4.279506e-009
3.283029e-009
2.330653e-009
1.357258e-009
1.468224e-010
-1.342302e-009
-2.767561e-009
-3.621733e-009
-3.701364e-009
-3.289634e-009
-2.795527e-009
-2.245480e-009
-1.270272e-009
3.130728e-010
1.982756e-009
2.759439e-009
2.095569e-009
4.912192e-010
-8.776776e-010
-1.188616e-009
-6.047241e-010
1.038574e-010
4.432434e-010
5.632973e-010
7.663674e-010
8.724693e-010
3.306973e-010
-9.691654e-010
-2.179519e-009
-2.069715e-009
-2.839430e-010
2.018818e-009
2.972548e-009
1.655649e-009
-9.556704e-010
-2.717910e-009
-2.162194e-009
1.969108e-010
2.287544e-009
5.908427e-009
1.440100e-009
-3.685525e-009
-5.437320e-009
-2.853405e-009
1.438910e-009
3.736694e-009
2.472244e-009
-6.849521e-010
-2.626180e-009
-1.676434e-009
1.096699e-009
3.128581e-009
2.732620e-009
3.401804e-010
-2.276498e-009
-3.672328e-009
-3.583979e-009
-2.472750e-009
-7.056812e-010
1.566915e-009
3.901059e-009
5.342654e-009
5.018690e-009
2.959573e-009
1.912912e-010
-2.077069e-009
-3.342777e-009
-3.903381e-009
-4.198060e-009
-4.220402e-009
-3.620105e-009
-2.256353e-009
-4.913375e-010
1.101358e-009
2.237563e-009
3.068393e-009
3.872008e-009
4.698272e-009
5.352413e-009
5.663008e-009
5.678528e-009
5.586153e-009
5.498949e-009
5.377922e-009
5.147898e-009
4.828437e-009
4.517533e-009
4.276032e-009
4.078999e-009
3.889849e-009
3.739463e-009
3.690401e-009
3.734397e-009
3.777576e-009
3.757040e-009
3.740422e-009
3.852381e-009
4.091010e-009
4.271879e-009
4.211335e-009
3.949400e-009
3.711675e-009
3.602089e-009
3.384682e-009
2.671885e-009
1.365477e-009
-1.594416e-010
-1.391461e-009
-2.183264e-009
-2.809122e-009
-3.468760e-009
-3.827835e-009
-3.222184e-009
-1.399136e-009
1.017773e-009
2.918331e-009
3.583850e-009
3.134424e-009
2.135049e-009
9.270219e-010
-4.843719e-010
-1.926001e-009
-2.725852e-009
-2.183156e-009
-4.362163e-010
1.328013e-009
1.781399e-009
6.871525e-010
-8.167988e-010
-1.259953e-009
-2.276435e-010
1.256761e-009
1.714909e-009
6.022577e-010
-1.192384e-009
-2.142965e-009
-1.410628e-009
4.577840e-010
1.993216e-009
1.447844e-009
4.342360e-010
-7.064449e-010
-9.997901e-010
-2.456340e-010
7.021821e-010
6.396403e-010
-7.548869e-010
-2.324423e-009
-2.285549e-009
3.667899e-011
3.244192e-009
4.809727e-009
3.238807e-009
-5.500645e-010
-3.961229e-009
-4.869125e-009
-3.161935e-009
-4.083850e-010
1.716834e-009
2.588429e-009
2.490792e-009
1.802124e-009
6.212853e-010
-8.910437e-010
-2.163021e-009
-2.486431e-009
-1.652564e-009
-1.714892e-010
1.213532e-009
2.169360e-009
2.878924e-009
3.584367e-009
4.176021e-009
4.300126e-009
3.793529e-009
2.892208e-009
1.985566e-009
1.238773e-009
5.156330e-010
-3.640549e-010
-1.376927e-009
-2.330171e-009
-3.080994e-009
-3.654437e-009
-4.149407e-009
-4.593536e-009
-4.931883e-009
-5.127091e-009
-5.209396e-009
-5.214519e-009
-5.121618e-009
-4.899626e-009
-4.597291e-009
-4.324441e-009
-4.114488e-009
-3.848365e-009
-3.377474e-009
-2.722913e-009
-2.085382e-009
-1.605750e-009
-1.151858e-009
-4.315786e-010
6.473823e-010
1.792400e-009
2.577846e-009
2.870924e-009
2.916669e-009
2.953705e-009
2.828475e-009
2.128651e-009
7.385942e-010
-8.389330e-010
-1.828115e-009
-1.843602e-009
-1.134128e-009
-1.792387e-010
7.964757e-010
1.764687e-009
2.435852e-009
2.164447e-009
5.773231e-010
-1.712235e-009
-3.270995e-009
-2.977001e-009
-1.054601e-009
1.083082e-009
2.071704e-009
1.677206e-009
7.065216e-010
1.677270e-011
-2.311693e-010
-3.846679e-010
-6.256546e-010
-7.166265e-010
-4.060980e-010
1.313515e-010
4.369047e-010
3.106950e-010
4.606870e-011
-4.249230e-009
-9.225870e-010
2.798725e-009
4.020949e-009
2.282926e-009
-5.637200e-010
-2.409165e-009
-2.559678e-009
-1.622704e-009
-3.527137e-010
9.395713e-010
1.979329e-009
2.137328e-009
9.431726e-010
-1.034961e-009
-2.246394e-009
-1.468975e-009
8.858764e-010
2.944873e-009
2.978199e-009
8.653128e-010
-1.968329e-009
-3.901554e-009
-4.298082e-009
-3.507562e-009
-2.071251e-009
-2.063637e-010
1.984917e-009
4.113944e-009
5.572768e-009
6.010340e-009
5.604407e-009
4.797054e-009
3.835741e-009
2.655866e-009
1.170195e-009
-4.592679e-010
-1.908378e-009
-2.995607e-009
-3.813970e-009
-4.552992e-009
-5.257296e-009
-5.804761e-009
-6.084607e-009
-6.128925e-009
-6.057872e-009
-5.949426e-009
-5.805752e-009
-5.621390e-009
-5.424056e-009
-5.232424e-009
-5.021130e-009
-4.773085e-009
-4.547810e-009
-4.438596e-009
-4.441338e-009
-4.414449e-009
-4.224715e-009
-3.920094e-009
-3.688314e-009
-3.607741e-009
-3.487739e-009
-3.029771e-009
-2.148527e-009
-1.060316e-009
-1.083043e-011
1.018703e-009
2.225660e-009
3.592795e-009
4.690734e-009
4.982178e-009
4.309107e-009
2.987381e-009
1.417600e-009
-2.494481e-010
-1.928885e-009
-3.178674e-009
-3.258594e-009
-1.851421e-009
3.148274e-010
1.818749e-009
1.723589e-009
4.110167e-010
-8.412852e-010
-1.102842e-009
-5.255859e-010
1.299789e-010
4.679645e-010
7.183574e-010
1.070833e-009
1.100820e-009
2.078656e-010
-1.373405e-009
-2.353056e-009
-1.542458e-009
7.158033e-010
2.533045e-009
2.176640e-009
-1.424967e-010
-2.316087e-009
-7.032407e-009
-1.366575e-009
4.700552e-009
6.097214e-009
2.433874e-009
-2.267429e-009
-3.821308e-009
-1.635436e-009
1.445097e-009
2.401366e-009
7.821856e-010
-1.525728e-009
-2.573983e-009
-1.977003e-009
-5.396158e-010
1.022164e-009
2.522902e-009
3.678260e-009
3.670062e-009
1.803252e-009
-1.442516e-009
-4.361030e-009
-5.271023e-009
-3.853358e-009
-1.237784e-009
1.126594e-009
2.567363e-009
3.260206e-009
3.531814e-009
3.367612e-009
2.600508e-009
1.346186e-009
4.942308e-011
-8.936267e-010
-1.436470e-009
-1.768424e-009
-1.993697e-009
-2.016787e-009
-1.722385e-009
-1.166540e-009
-5.354663e-010
4.326909e-011
5.879388e-010
1.168186e-009
1.780541e-009
2.344135e-009
2.785521e-009
3.087386e-009
3.264939e-009
3.339174e-009
3.346413e-009
3.335555e-009
3.318879e-009
3.241231e-009
3.042186e-009
2.755118e-009
2.498420e-009
2.331820e-009
2.149307e-009
1.774408e-009
1.172060e-009
5.104390e-010
-2.824116e-011
-4.528666e-010
-8.952809e-010
-1.330455e-009
-1.465815e-009
-1.007492e-009
-1.409104e-011
1.118335e-009
2.048379e-009
2.748393e-009
3.259267e-009
3.271762e-009
2.217394e-009
-2.595487e-011
-2.592652e-009
-4.055968e-009
-3.586858e-009
-1.678796e-009
3.561411e-010
1.572999e-009
1.974437e-009
1.975870e-009
1.608074e-009
5.676143e-010
-9.657072e-010
-1.963145e-009
-1.414734e-009
3.872099e-010
1.761322e-009
1.195104e-009
-9.495194e-010
-2.529592e-009
-1.688023e-009
1.120276e-009
3.329799e-009
2.685457e-009
-4.634993e-010
-3.345397e-009
-5.126112e-009
-4.934816e-010
4.056675e-009
4.210874e-009
2.313026e-010
-3.574257e-009
-3.314825e-009
6.746528e-010
4.365998e-009
4.121502e-009
1.220326e-010
-4.091673e-009
-5.128838e-009
-2.641303e-009
9.688080e-010
3.140687e-009
3.157978e-009
1.919041e-009
4.499234e-010
-8.917322e-010
-1.955740e-009
-2.205175e-009
-1.057583e-009
1.231059e-009
3.384045e-009
4.051522e-009
2.932687e-009
8.947018e-010
-9.436753e-010
-2.111189e-009
-2.808447e-009
-3.283591e-009
-3.414618e-009
-2.913924e-009
-1.763728e-009
-3.051616e-010
1.075813e-009
2.242158e-009
3.264502e-009
4.178613e-009
4.870269e-009
5.189013e-009
5.104681e-009
4.719022e-009
4.156394e-009
3.481294e-009
2.713117e-009
1.884277e-009
1.070431e-009
3.797855e-010
-8.155388e-011
-2.566695e-010
-1.707090e-010
9.566206e-011
4.892725e-010
1.033729e-009
1.763128e-009
2.600911e-009
3.348177e-009
3.833317e-009
4.050930e-009
4.091792e-009
3.929299e-009
3.359258e-009
2.235999e-009
7.447000e-010
-6.678542e-010
-1.680134e-009
-2.327283e-009
-2.745381e-009
-2.745114e-009
-1.858758e-009
2.728679e-011
2.166858e-009
3.322498e-009
2.799198e-009
1.079441e-009
-6.502654e-010
-1.556470e-009
-1.637698e-009
-1.230859e-009
-3.739384e-010
1.035854e-009
2.524494e-009
2.930751e-009
1.436375e-009
-1.268775e-009
-3.191528e-009
-2.749970e-009
-3.580850e-010
1.847018e-009
2.001151e-009
2.668932e-010
-1.415750e-009
-1.305304e-009
4.372289e-010
1.977253e-009
1.668115e-009
-3.219405e-010
-2.175686e-009
-2.657790e-010
8.180142e-010
1.382033e-009
1.813826e-010
-2.066978e-009
-3.118589e-009
-1.421552e-009
2.041976e-009
4.322655e-009
3.203333e-009
-5.387694e-010
-3.677370e-009
-3.519838e-009
-4.256245e-010
2.630284e-009
2.937117e-009
4.467530e-010
-2.534052e-009
-3.688710e-009
-2.532411e-009
-1.887559e-010
2.080159e-009
3.759200e-009
4.735368e-009
4.685173e-009
3.233512e-009
6.516659e-010
-1.960452e-009
-3.421696e-009
-3.378839e-009
-2.403475e-009
-1.261901e-009
-2.348753e-010
8.346119e-010
2.003747e-009
2.928313e-009
3.107569e-009
2.304048e-009
6.407572e-010
-1.660893e-009
-4.533697e-009
-8.033526e-009
-1.212777e-008
-1.658267e-008
-2.105840e-008
-2.527578e-008
-2.907813e-008
-3.236118e-008
-3.498010e-008
-3.674111e-008
-3.748560e-008
-3.718373e-008
-3.594163e-008
-3.390601e-008
-3.116126e-008
-2.774120e-008
-2.375649e-008
-1.948043e-008
-1.524963e-008
-1.125942e-008
-7.506965e-009
-3.993162e-009
-9.525717e-010
1.218510e-009
2.317863e-009
2.554522e-009
2.308492e-009
1.691177e-009
4.985530e-010
-1.283435e-009
-3.013748e-009
-3.658919e-009
-2.658652e-009
-4.840204e-010
1.754322e-009
3.212153e-009
3.727787e-009
3.427185e-009
2.263690e-009
2.638317e-010
-1.852941e-009
-2.764610e-009
-1.676428e-009
6.329984e-010
2.222057e-009
1.717015e-009
-3.605936e-010
-2.106091e-009
-2.069762e-009
-5.127686e-010
1.096412e-009
1.595911e-009
1.010022e-009
1.239242e-010
-4.445761e-010
-6.121141e-010
-5.267791e-010
-2.572674e-010
1.368776e-010
4.487817e-010
4.080690e-009
1.252358e-009
-1.958504e-009
-3.212136e-009
-2.184938e-009
-2.753187e-010
1.060298e-009
1.352484e-009
8.519363e-010
-5.937667e-011
-8.802209e-010
-8.605066e-010
4.433595e-010
2.294933e-009
2.922827e-009
1.093420e-009
-2.364728e-009
-4.919171e-009
-4.497504e-009
-1.336470e-009
2.334722e-009
4.326029e-009
4.103736e-009
2.607563e-009
9.482366e-010
-4.005464e-010
-1.319226e-009
-1.498657e-009
-5.555278e-010
1.370663e-009
3.428492e-009
4.622379e-009
4.507851e-009
3.244174e-009
1.036439e-009
-2.313906e-009
-7.258071e-009
-1.401250e-008
-2.233546e-008
-3.176795e-008
-4.198515e-008
-5.285120e-008
-6.418434e-008
-7.556603e-008
-8.641932e-008
-9.624365e-008
-1.047402e-007
-1.117248e-007
-1.169718e-007
-1.201878e-007
-1.211465e-007
-1.198302e-007
-1.164136e-007
-1.111062e-007
-1.040394e-007
-9.534457e-008
-8.533863e-008
-7.456854e-008
-6.360402e-008
-5.278126e-008
-4.220973e-008
-3.205964e-008
-2.276932e-008
-1.485621e-008
-8.508059e-009
-3.476536e-009
5.170716e-010
3.319979e-009
4.452833e-009
3.760183e-009
1.870991e-009
-1.118871e-010
-1.366857e-009
-1.700473e-009
-1.201866e-009
1.386668e-010
2.173746e-009
4.050164e-009
4.389756e-009
2.462499e-009
-7.956856e-010
-3.263363e-009
-3.410351e-009
-1.607521e-009
4.057066e-010
1.259013e-009
9.873741e-010
4.400290e-010
9.657970e-011
-1.865867e-010
-4.522440e-010
-2.646696e-010
5.992382e-010
1.388222e-009
9.163758e-010
-9.144670e-010
-2.519494e-009
-2.068723e-009
4.161001e-010
2.768024e-009
5.571972e-009
3.561048e-010
-4.531637e-009
-4.370873e-009
2.454736e-011
3.730967e-009
3.146434e-009
-6.417653e-010
-3.660692e-009
-3.327008e-009
-4.774168e-010
2.276836e-009
3.249134e-009
2.519413e-009
9.009410e-010
-9.799343e-010
-2.497174e-009
-2.721933e-009
-1.083028e-009
1.634142e-009
3.475453e-009
2.926796e-009
3.476848e-010
-2.332469e-009
-3.317896e-009
-2.262208e-009
-5.261124e-011
2.304757e-009
4.313313e-009
5.674177e-009
5.794731e-009
3.896414e-009
-4.606469e-010
-7.186059e-009
-1.606040e-008
-2.719913e-008
-4.099638e-008
-5.764263e-008
-7.680831e-008
-9.782552e-008
-1.200862e-007
-1.431770e-007
-1.666584e-007
-1.898269e-007
-2.117733e-007
-2.316617e-007
-2.489072e-007
-2.630859e-007
-2.737393e-007
-2.803445e-007
-2.824997e-007
-2.801110e-007
-2.733632e-007
-2.625198e-007
-2.478116e-007
-2.295737e-007
-2.084694e-007
-1.854893e-007
-1.616548e-007
-1.377251e-007
-1.142384e-007
-9.181042e-008
-7.125396e-008
-5.326922e-008
-3.802293e-008
-2.516349e-008
-1.434024e-008
-5.652489e-009
5.078799e-010
4.016015e-009
5.264149e-009
4.822386e-009
3.066394e-009
3.995663e-010
-2.205695e-009
-3.307004e-009
-2.060629e-009
7.548997e-010
3.086008e-009
3.272889e-009
1.431688e-009
-8.589343e-010
-2.128692e-009
-2.092790e-009
-1.279080e-009
-8.699692e-011
1.336584e-009
2.442433e-009
2.208240e-009
2.754733e-010
-2.033136e-009
-2.547264e-009
-5.457759e-010
2.056539e-009
2.425026e-009
-8.845856e-011
-2.942794e-009
-2.956852e-009
1.833535e-010
3.392605e-009
4.358167e-009
-1.017704e-009
-5.333438e-009
-3.513367e-009
2.552439e-009
6.306920e-009
3.770650e-009
-2.388773e-009
-6.048003e-009
-4.080184e-009
9.437148e-010
4.061856e-009
2.999376e-009
-3.140591e-010
-2.506602e-009
-2.092862e-009
-4.655964e-011
1.978013e-009
3.131639e-009
3.240929e-009
2.142379e-009
-1.436164e-010
-2.719444e-009
-3.948300e-009