# vtk DataFile Version 3.0
vtk output
ASCII
DATASET STRUCTURED_POINTS
DIMENSIONS 100 100 1
SPACING 1 1 1
ORIGIN 0 0 0
POINT_DATA 10000
SCALARS SFBox_profile double
LOOKUP_TABLE default 
9.439916e-003
9.439918e-003
9.439921e-003
9.439922e-003
9.439922e-003
9.439921e-003
9.439919e-003
9.439918e-003
9.439918e-003
9.439919e-003
9.439920e-003
9.439921e-003
9.439921e-003
9.439921e-003
9.439920e-003
9.439920e-003
9.439920e-003
9.439920e-003
9.439919e-003
9.439919e-003
9.439919e-003
9.439919e-003
9.439920e-003
9.439921e-003
9.439921e-003
9.439921e-003
9.439921e-003
9.439922e-003
9.439922e-003
9.439922e-003
9.439922e-003
9.439922e-003
9.439922e-003
9.439922e-003
9.439922e-003
9.439923e-003
9.439923e-003
9.439923e-003
9.439923e-003
9.439924e-003
9.439924e-003
9.439924e-003
9.439925e-003
9.439925e-003
9.439925e-003
9.439925e-003
9.439926e-003
9.439926e-003
9.439926e-003
9.439926e-003
9.439926e-003
9.439926e-003
9.439926e-003
9.439926e-003
9.439926e-003
9.439926e-003
9.439926e-003
9.439926e-003
9.439925e-003
9.439925e-003
9.439925e-003
9.439924e-003
9.439924e-003
9.439923e-003
9.439923e-003
9.439923e-003
9.439922e-003
9.439922e-003
9.439922e-003
9.439922e-003
9.439922e-003
9.439922e-003
9.439921e-003
9.439921e-003
9.439921e-003
9.439921e-003
9.439921e-003
9.439921e-003
9.439920e-003
9.439920e-003
9.439919e-003
9.439919e-003
9.439920e-003
9.439920e-003
9.439920e-003
9.439920e-003
9.439920e-003
9.439921e-003
9.439921e-003
9.439921e-003
9.439920e-003
9.439919e-003
9.439919e-003
9.439919e-003
9.439920e-003
9.439921e-003
9.439921e-003
9.439920e-003
9.439920e-003
9.439919e-003
9.439916e-003
9.439918e-003
9.439921e-003
9.439922e-003
9.439922e-003
9.439921e-003
9.439919e-003
9.439918e-003
9.439918e-003
9.439919e-003
9.439920e-003
9.439921e-003
9.439921e-003
9.439921e-003
9.439920e-003
9.439920e-003
9.439920e-003
9.439920e-003
9.439919e-003
9.439919e-003
9.439919e-003
9.439919e-003
9.439920e-003
9.439921e-003
9.439921e-003
9.439921e-003
9.439921e-003
9.439922e-003
9.439922e-003
9.439922e-003
9.439922e-003
9.439922e-003
9.439922e-003
9.439922e-003
9.439922e-003
9.439923e-003
9.439923e-003
9.439923e-003
9.439923e-003
9.439924e-003
9.439924e-003
9.439924e-003
9.439925e-003
9.439925e-003
9.439925e-003
9.439925e-003
9.439926e-003
9.439926e-003
9.439926e-003
9.439926e-003
9.439926e-003
9.439926e-003
9.439926e-003
9.439926e-003
9.439926e-003
9.439926e-003
9.439926e-003
9.439926e-003
9.439925e-003
9.439925e-003
9.439925e-003
9.439924e-003
9.439924e-003
9.439923e-003
9.439923e-003
9.439923e-003
9.439922e-003
9.439922e-003
9.439922e-003
9.439922e-003
9.439922e-003
9.439922e-003
9.439921e-003
9.439921e-003
9.439921e-003
9.439921e-003
9.439921e-003
9.439921e-003
9.439920e-003
9.439920e-003
9.439919e-003
9.439919e-003
9.439920e-003
9.439920e-003
9.439920e-003
9.439920e-003
9.439920e-003
9.439921e-003
9.439921e-003
9.439921e-003
9.439920e-003
9.439919e-003
9.439919e-003
9.439919e-003
9.439920e-003
9.439921e-003
9.439921e-003
9.439920e-003
9.439920e-003
9.439919e-003
9.439919e-003
9.439920e-003
9.439920e-003
9.439920e-003
9.439920e-003
9.439920e-003
9.439920e-003
9.439920e-003
9.439920e-003
9.439920e-003
9.439920e-003
9.439920e-003
9.439920e-003
9.439920e-003
9.439920e-003
9.439920e-003
9.439920e-003
9.439920e-003
9.439920e-003
9.439920e-003
9.439920e-003
9.439920e-003
9.439920e-003
9.439920e-003
9.439920e-003
9.439920e-003
9.439920e-003
9.439921e-003
9.439921e-003
9.439921e-003
9.439922e-003
9.439922e-003
9.439923e-003
9.439923e-003
9.439924e-003
9.439925e-003
9.439925e-003
9.439926e-003
9.439927e-003
9.439927e-003
9.439928e-003
9.439928e-003
9.439929e-003
9.439929e-003
9.439930e-003
9.439930e-003
9.439930e-003
9.439931e-003
9.439931e-003
9.439931e-003
9.439931e-003
9.439931e-003
9.439931e-003
9.439931e-003
9.439931e-003
9.439931e-003
9.439930e-003
9.439930e-003
9.439930e-003
9.439929e-003
9.439929e-003
9.439928e-003
9.439927e-003
9.439927e-003
9.439926e-003
9.439925e-003
9.439925e-003
9.439924e-003
9.439923e-003
9.439923e-003
9.439922e-003
9.439922e-003
9.439921e-003
9.439921e-003
9.439920e-003
9.439920e-003
9.439920e-003
9.439920e-003
9.439920e-003
9.439920e-003
9.439920e-003
9.439920e-003
9.439920e-003
9.439920e-003
9.439920e-003
9.439920e-003
9.439920e-003
9.439920e-003
9.439920e-003
9.439920e-003
9.439920e-003
9.439920e-003
9.439920e-003
9.439920e-003
9.439920e-003
9.439920e-003
9.439920e-003
9.439920e-003
9.439920e-003
9.439920e-003
9.439923e-003
9.439922e-003
9.439919e-003
9.439918e-003
9.439918e-003
9.439919e-003
9.439921e-003
9.439921e-003
9.439921e-003
9.439921e-003
9.439920e-003
9.439919e-003
9.439919e-003
9.439919e-003
9.439919e-003
9.439920e-003
9.439920e-003
9.439921e-003
9.439921e-003
9.439921e-003
9.439921e-003
9.439921e-003
9.439921e-003
9.439920e-003
9.439920e-003
9.439920e-003
9.439920e-003
9.439921e-003
9.439922e-003
9.439922e-003
9.439923e-003
9.439924e-003
9.439925e-003
9.439927e-003
9.439928e-003
9.439929e-003
9.439930e-003
9.439931e-003
9.439932e-003
9.439933e-003
9.439934e-003
9.439935e-003
9.439935e-003
9.439936e-003
9.439936e-003
9.439937e-003
9.439937e-003
9.439938e-003
9.439938e-003
9.439938e-003
9.439938e-003
9.439938e-003
9.439938e-003
9.439938e-003
9.439938e-003
9.439937e-003
9.439937e-003
9.439936e-003
9.439936e-003
9.439935e-003
9.439934e-003
9.439934e-003
9.439933e-003
9.439932e-003
9.439931e-003
9.439930e-003
9.439929e-003
9.439927e-003
9.439926e-003
9.439925e-003
9.439924e-003
9.439923e-003
9.439922e-003
9.439921e-003
9.439921e-003
9.439920e-003
9.439920e-003
9.439920e-003
9.439920e-003
9.439921e-003
9.439921e-003
9.439921e-003
9.439921e-003
9.439921e-003
9.439920e-003
9.439920e-003
9.439920e-003
9.439919e-003
9.439919e-003
9.439920e-003
9.439920e-003
9.439921e-003
9.439921e-003
9.439921e-003
9.439920e-003
9.439919e-003
9.439919e-003
9.439920e-003
9.439920e-003
9.439921e-003
9.439925e-003
9.439922e-003
9.439919e-003
9.439917e-003
9.439917e-003
9.439919e-003
9.439921e-003
9.439922e-003
9.439922e-003
9.439921e-003
9.439919e-003
9.439919e-003
9.439919e-003
9.439920e-003
9.439920e-003
9.439920e-003
9.439920e-003
9.439920e-003
9.439921e-003
9.439921e-003
9.439921e-003
9.439921e-003
9.439921e-003
9.439921e-003
9.439922e-003
9.439922e-003
9.439923e-003
9.439924e-003
9.439925e-003
9.439926e-003
9.439928e-003
9.439929e-003
9.439930e-003
9.439932e-003
9.439933e-003
9.439934e-003
9.439936e-003
9.439937e-003
9.439938e-003
9.439939e-003
9.439940e-003
9.439941e-003
9.439942e-003
9.439942e-003
9.439943e-003
9.439943e-003
9.439944e-003
9.439944e-003
9.439944e-003
9.439945e-003
9.439945e-003
9.439945e-003
9.439944e-003
9.439944e-003
9.439944e-003
9.439943e-003
9.439943e-003
9.439942e-003
9.439942e-003
9.439941e-003
9.439940e-003
9.439939e-003
9.439938e-003
9.439937e-003
9.439936e-003
9.439935e-003
9.439933e-003
9.439932e-003
9.439931e-003
9.439929e-003
9.439928e-003
9.439926e-003
9.439925e-003
9.439924e-003
9.439923e-003
9.439922e-003
9.439921e-003
9.439921e-003
9.439921e-003
9.439921e-003
9.439921e-003
9.439921e-003
9.439920e-003
9.439920e-003
9.439920e-003
9.439920e-003
9.439920e-003
9.439919e-003
9.439919e-003
9.439919e-003
9.439920e-003
9.439921e-003
9.439921e-003
9.439921e-003
9.439920e-003
9.439919e-003
9.439919e-003
9.439919e-003
9.439920e-003
9.439921e-003
9.439922e-003
9.439921e-003
9.439920e-003
9.439919e-003
9.439919e-003
9.439920e-003
9.439920e-003
9.439921e-003
9.439920e-003
9.439920e-003
9.439919e-003
9.439920e-003
9.439920e-003
9.439921e-003
9.439921e-003
9.439921e-003
9.439920e-003
9.439920e-003
9.439920e-003
9.439920e-003
9.439921e-003
9.439921e-003
9.439922e-003
9.439923e-003
9.439925e-003
9.439926e-003
9.439928e-003
9.439929e-003
9.439931e-003
9.439933e-003
9.439934e-003
9.439936e-003
9.439937e-003
9.439939e-003
9.439940e-003
9.439941e-003
9.439943e-003
9.439944e-003
9.439944e-003
9.439945e-003
9.439945e-003
9.439946e-003
9.439946e-003
9.439946e-003
9.439946e-003
9.439946e-003
9.439946e-003
9.439946e-003
9.439946e-003
9.439945e-003
9.439945e-003
9.439945e-003
9.439945e-003
9.439944e-003
9.439944e-003
9.439944e-003
9.439944e-003
9.439944e-003
9.439944e-003
9.439943e-003
9.439943e-003
9.439943e-003
9.439943e-003
9.439942e-003
9.439941e-003
9.439940e-003
9.439939e-003
9.439938e-003
9.439936e-003
9.439935e-003
9.439933e-003
9.439931e-003
9.439930e-003
9.439929e-003
9.439927e-003
9.439926e-003
9.439924e-003
9.439923e-003
9.439922e-003
9.439921e-003
9.439921e-003
9.439920e-003
9.439920e-003
9.439920e-003
9.439920e-003
9.439921e-003
9.439921e-003
9.439920e-003
9.439920e-003
9.439920e-003
9.439920e-003
9.439920e-003
9.439920e-003
9.439920e-003
9.439920e-003
9.439920e-003
9.439920e-003
9.439920e-003
9.439920e-003
9.439920e-003
9.439918e-003
9.439919e-003
9.439920e-003
9.439921e-003
9.439921e-003
9.439920e-003
9.439920e-003
9.439919e-003
9.439919e-003
9.439919e-003
9.439920e-003
9.439920e-003
9.439921e-003
9.439922e-003
9.439921e-003
9.439921e-003
9.439920e-003
9.439920e-003
9.439920e-003
9.439921e-003
9.439922e-003
9.439923e-003
9.439925e-003
9.439926e-003
9.439929e-003
9.439931e-003
9.439933e-003
9.439936e-003
9.439938e-003
9.439940e-003
9.439942e-003
9.439943e-003
9.439945e-003
9.439946e-003
9.439946e-003
9.439946e-003
9.439946e-003
9.439945e-003
9.439944e-003
9.439942e-003
9.439940e-003
9.439938e-003
9.439936e-003
9.439933e-003
9.439931e-003
9.439928e-003
9.439926e-003
9.439923e-003
9.439921e-003
9.439920e-003
9.439918e-003
9.439918e-003
9.439917e-003
9.439917e-003
9.439918e-003
9.439919e-003
9.439920e-003
9.439922e-003
9.439925e-003
9.439927e-003
9.439930e-003
9.439933e-003
9.439936e-003
9.439938e-003
9.439940e-003
9.439941e-003
9.439942e-003
9.439942e-003
9.439942e-003
9.439941e-003
9.439939e-003
9.439938e-003
9.439936e-003
9.439934e-003
9.439932e-003
9.439930e-003
9.439927e-003
9.439926e-003
9.439924e-003
9.439923e-003
9.439922e-003
9.439921e-003
9.439920e-003
9.439920e-003
9.439920e-003
9.439921e-003
9.439921e-003
9.439921e-003
9.439920e-003
9.439920e-003
9.439920e-003
9.439920e-003
9.439920e-003
9.439920e-003
9.439920e-003
9.439920e-003
9.439920e-003
9.439920e-003
9.439920e-003
9.439920e-003
9.439915e-003
9.439918e-003
9.439921e-003
9.439922e-003
9.439922e-003
9.439921e-003
9.439919e-003
9.439918e-003
9.439919e-003
9.439920e-003
9.439920e-003
9.439921e-003
9.439921e-003
9.439921e-003
9.439921e-003
9.439921e-003
9.439921e-003
9.439921e-003
9.439922e-003
9.439924e-003
9.439925e-003
9.439927e-003
9.439929e-003
9.439931e-003
9.439934e-003
9.439937e-003
9.439939e-003
9.439942e-003
9.439944e-003
9.439945e-003
9.439946e-003
9.439946e-003
9.439945e-003
9.439942e-003
9.439938e-003
9.439933e-003
9.439927e-003
9.439919e-003
9.439910e-003
9.439900e-003
9.439889e-003
9.439878e-003
9.439867e-003
9.439856e-003
9.439845e-003
9.439835e-003
9.439825e-003
9.439817e-003
9.439810e-003
9.439804e-003
9.439799e-003
9.439797e-003
9.439796e-003
9.439797e-003
9.439800e-003
9.439805e-003
9.439812e-003
9.439821e-003
9.439832e-003
9.439843e-003
9.439856e-003
9.439869e-003
9.439882e-003
9.439895e-003
9.439906e-003
9.439917e-003
9.439926e-003
9.439932e-003
9.439937e-003
9.439940e-003
9.439942e-003
9.439942e-003
9.439941e-003
9.439939e-003
9.439937e-003
9.439934e-003
9.439931e-003
9.439929e-003
9.439927e-003
9.439925e-003
9.439924e-003
9.439922e-003
9.439921e-003
9.439921e-003
9.439921e-003
9.439920e-003
9.439920e-003
9.439921e-003
9.439921e-003
9.439920e-003
9.439920e-003
9.439920e-003
9.439919e-003
9.439919e-003
9.439920e-003
9.439921e-003
9.439921e-003
9.439921e-003
9.439920e-003
9.439919e-003
9.439916e-003
9.439918e-003
9.439921e-003
9.439922e-003
9.439922e-003
9.439920e-003
9.439919e-003
9.439919e-003
9.439920e-003
9.439921e-003
9.439921e-003
9.439921e-003
9.439920e-003
9.439920e-003
9.439920e-003
9.439921e-003
9.439923e-003
9.439924e-003
9.439926e-003
9.439928e-003
9.439930e-003
9.439933e-003
9.439935e-003
9.439938e-003
9.439941e-003
9.439943e-003
9.439945e-003
9.439946e-003
9.439946e-003
9.439943e-003
9.439937e-003
9.439928e-003
9.439916e-003
9.439899e-003
9.439879e-003
9.439856e-003
9.439829e-003
9.439799e-003
9.439766e-003
9.439732e-003
9.439697e-003
9.439661e-003
9.439626e-003
9.439591e-003
9.439558e-003
9.439527e-003
9.439499e-003
9.439475e-003
9.439454e-003
9.439437e-003
9.439425e-003
9.439418e-003
9.439417e-003
9.439421e-003
9.439431e-003
9.439447e-003
9.439469e-003
9.439496e-003
9.439529e-003
9.439565e-003
9.439605e-003
9.439647e-003
9.439690e-003
9.439732e-003
9.439772e-003
9.439809e-003
9.439843e-003
9.439871e-003
9.439895e-003
9.439913e-003
9.439926e-003
9.439934e-003
9.439939e-003
9.439941e-003
9.439941e-003
9.439939e-003
9.439937e-003
9.439934e-003
9.439932e-003
9.439929e-003
9.439927e-003
9.439925e-003
9.439924e-003
9.439923e-003
9.439922e-003
9.439920e-003
9.439920e-003
9.439920e-003
9.439920e-003
9.439921e-003
9.439920e-003
9.439920e-003
9.439919e-003
9.439919e-003
9.439920e-003
9.439921e-003
9.439921e-003
9.439920e-003
9.439920e-003
9.439919e-003
9.439920e-003
9.439920e-003
9.439920e-003
9.439920e-003
9.439920e-003
9.439919e-003
9.439919e-003
9.439920e-003
9.439921e-003
9.439921e-003
9.439921e-003
9.439920e-003
9.439920e-003
9.439919e-003
9.439921e-003
9.439923e-003
9.439925e-003
9.439927e-003
9.439930e-003
9.439932e-003
9.439936e-003
9.439939e-003
9.439943e-003
9.439946e-003
9.439948e-003
9.439948e-003
9.439944e-003
9.439937e-003
9.439924e-003
9.439904e-003
9.439876e-003
9.439839e-003
9.439793e-003
9.439737e-003
9.439672e-003
9.439598e-003
9.439517e-003
9.439429e-003
9.439336e-003
9.439239e-003
9.439142e-003
9.439044e-003
9.438948e-003
9.438856e-003
9.438769e-003
9.438688e-003
9.438615e-003
9.438551e-003
9.438497e-003
9.438455e-003
9.438425e-003
9.438408e-003
9.438405e-003
9.438418e-003
9.438445e-003
9.438489e-003
9.438547e-003
9.438620e-003
9.438706e-003
9.438803e-003
9.438911e-003
9.439024e-003
9.439141e-003
9.439258e-003
9.439372e-003
9.439480e-003
9.439578e-003
9.439665e-003
9.439740e-003
9.439801e-003
9.439850e-003
9.439886e-003
9.439911e-003
9.439928e-003
9.439937e-003
9.439941e-003
9.439942e-003
9.439940e-003
9.439938e-003
9.439934e-003
9.439931e-003
9.439929e-003
9.439927e-003
9.439925e-003
9.439923e-003
9.439921e-003
9.439920e-003
9.439920e-003
9.439920e-003
9.439920e-003
9.439921e-003
9.439920e-003
9.439920e-003
9.439920e-003
9.439920e-003
9.439920e-003
9.439920e-003
9.439920e-003
9.439920e-003
9.439920e-003
9.439924e-003
9.439922e-003
9.439920e-003
9.439918e-003
9.439918e-003
9.439919e-003
9.439920e-003
9.439921e-003
9.439921e-003
9.439921e-003
9.439921e-003
9.439921e-003
9.439921e-003
9.439921e-003
9.439923e-003
9.439926e-003
9.439928e-003
9.439931e-003
9.439934e-003
9.439938e-003
9.439942e-003
9.439947e-003
9.439949e-003
9.439949e-003
9.439944e-003
9.439932e-003
9.439910e-003
9.439876e-003
9.439826e-003
9.439758e-003
9.439669e-003
9.439559e-003
9.439425e-003
9.439269e-003
9.439092e-003
9.438895e-003
9.438681e-003
9.438453e-003
9.438217e-003
9.437974e-003
9.437730e-003
9.437489e-003
9.437254e-003
9.437030e-003
9.436819e-003
9.436624e-003
9.436450e-003
9.436298e-003
9.436171e-003
9.436071e-003
9.436002e-003
9.435964e-003
9.435959e-003
9.435991e-003
9.436058e-003
9.436163e-003
9.436304e-003
9.436480e-003
9.436689e-003
9.436927e-003
9.437189e-003
9.437468e-003
9.437758e-003
9.438051e-003
9.438339e-003
9.438614e-003
9.438870e-003
9.439100e-003
9.439302e-003
9.439472e-003
9.439612e-003
9.439721e-003
9.439803e-003
9.439861e-003
9.439900e-003
9.439924e-003
9.439937e-003
9.439942e-003
9.439942e-003
9.439940e-003
9.439936e-003
9.439933e-003
9.439930e-003
9.439928e-003
9.439925e-003
9.439923e-003
9.439922e-003
9.439921e-003
9.439920e-003
9.439920e-003
9.439920e-003
9.439920e-003
9.439921e-003
9.439920e-003
9.439920e-003
9.439919e-003
9.439919e-003
9.439920e-003
9.439920e-003
9.439921e-003
9.439924e-003
9.439922e-003
9.439919e-003
9.439918e-003
9.439918e-003
9.439920e-003
9.439921e-003
9.439921e-003
9.439920e-003
9.439920e-003
9.439920e-003
9.439922e-003
9.439923e-003
9.439925e-003
9.439927e-003
9.439930e-003
9.439933e-003
9.439937e-003
9.439941e-003
9.439946e-003
9.439949e-003
9.439950e-003
9.439945e-003
9.439930e-003
9.439901e-003
9.439852e-003
9.439777e-003
9.439671e-003
9.439526e-003
9.439337e-003
9.439099e-003
9.438811e-003
9.438471e-003
9.438080e-003
9.437643e-003
9.437164e-003
9.436651e-003
9.436111e-003
9.435555e-003
9.434990e-003
9.434427e-003
9.433874e-003
9.433340e-003
9.432831e-003
9.432357e-003
9.431922e-003
9.431533e-003
9.431196e-003
9.430915e-003
9.430696e-003
9.430544e-003
9.430462e-003
9.430455e-003
9.430527e-003
9.430680e-003
9.430915e-003
9.431232e-003
9.431628e-003
9.432100e-003
9.432638e-003
9.433233e-003
9.433872e-003
9.434539e-003
9.435218e-003
9.435891e-003
9.436540e-003
9.437150e-003
9.437708e-003
9.438202e-003
9.438627e-003
9.438982e-003
9.439267e-003
9.439488e-003
9.439653e-003
9.439769e-003
9.439848e-003
9.439897e-003
9.439925e-003
9.439938e-003
9.439942e-003
9.439941e-003
9.439938e-003
9.439935e-003
9.439931e-003
9.439928e-003
9.439926e-003
9.439924e-003
9.439923e-003
9.439921e-003
9.439920e-003
9.439920e-003
9.439920e-003
9.439921e-003
9.439921e-003
9.439920e-003
9.439920e-003
9.439919e-003
9.439919e-003
9.439920e-003
9.439921e-003
9.439922e-003
9.439921e-003
9.439919e-003
9.439919e-003
9.439920e-003
9.439921e-003
9.439922e-003
9.439921e-003
9.439920e-003
9.439919e-003
9.439921e-003
9.439923e-003
9.439926e-003
9.439929e-003
9.439932e-003
9.439935e-003
9.439940e-003
9.439945e-003
9.439950e-003
9.439952e-003
9.439948e-003
9.439933e-003
9.439901e-003
9.439843e-003
9.439749e-003
9.439605e-003
9.439400e-003
9.439118e-003
9.438748e-003
9.438278e-003
9.437700e-003
9.437010e-003
9.436209e-003
9.435303e-003
9.434301e-003
9.433217e-003
9.432068e-003
9.430873e-003
9.429651e-003
9.428423e-003
9.427207e-003
9.426022e-003
9.424884e-003
9.423810e-003
9.422812e-003
9.421904e-003
9.421095e-003
9.420397e-003
9.419818e-003
9.419370e-003
9.419059e-003
9.418896e-003
9.418887e-003
9.419041e-003
9.419361e-003
9.419853e-003
9.420516e-003
9.421347e-003
9.422337e-003
9.423473e-003
9.424735e-003
9.426099e-003
9.427533e-003
9.429004e-003
9.430475e-003
9.431908e-003
9.433269e-003
9.434527e-003
9.435656e-003
9.436642e-003
9.437475e-003
9.438158e-003
9.438698e-003
9.439109e-003
9.439411e-003
9.439623e-003
9.439764e-003
9.439853e-003
9.439904e-003
9.439930e-003
9.439941e-003
9.439943e-003
9.439940e-003
9.439936e-003
9.439932e-003
9.439929e-003
9.439927e-003
9.439925e-003
9.439923e-003
9.439921e-003
9.439920e-003
9.439920e-003
9.439920e-003
9.439921e-003
9.439920e-003
9.439920e-003
9.439920e-003
9.439920e-003
9.439920e-003
9.439921e-003
9.439919e-003
9.439919e-003
9.439919e-003
9.439920e-003
9.439921e-003
9.439922e-003
9.439921e-003
9.439921e-003
9.439920e-003
9.439920e-003
9.439922e-003
9.439926e-003
9.439929e-003
9.439933e-003
9.439937e-003
9.439942e-003
9.439948e-003
9.439953e-003
9.439953e-003
9.439943e-003
9.439914e-003
9.439857e-003
9.439755e-003
9.439590e-003
9.439337e-003
9.438972e-003
9.438465e-003
9.437790e-003
9.436920e-003
9.435835e-003
9.434523e-003
9.432982e-003
9.431218e-003
9.429248e-003
9.427097e-003
9.424799e-003
9.422393e-003
9.419918e-003
9.417416e-003
9.414927e-003
9.412488e-003
9.410134e-003
9.407895e-003
9.405797e-003
9.403864e-003
9.402117e-003
9.400572e-003
9.399246e-003
9.398156e-003
9.397316e-003
9.396741e-003
9.396445e-003
9.396442e-003
9.396745e-003
9.397366e-003
9.398312e-003
9.399586e-003
9.401186e-003
9.403100e-003
9.405307e-003
9.407777e-003
9.410466e-003
9.413322e-003
9.416282e-003
9.419276e-003
9.422228e-003
9.425067e-003
9.427724e-003
9.430144e-003
9.432284e-003
9.434121e-003
9.435648e-003
9.436876e-003
9.437829e-003
9.438544e-003
9.439058e-003
9.439413e-003
9.439646e-003
9.439791e-003
9.439875e-003
9.439919e-003
9.439938e-003
9.439944e-003
9.439942e-003
9.439938e-003
9.439934e-003
9.439930e-003
9.439927e-003
9.439924e-003
9.439922e-003
9.439921e-003
9.439920e-003
9.439920e-003
9.439920e-003
9.439920e-003
9.439920e-003
9.439920e-003
9.439920e-003
9.439920e-003
9.439920e-003
9.439917e-003
9.439919e-003
9.439920e-003
9.439921e-003
9.439921e-003
9.439921e-003
9.439921e-003
9.439921e-003
9.439922e-003
9.439923e-003
9.439926e-003
9.439929e-003
9.439933e-003
9.439938e-003
9.439944e-003
9.439950e-003
9.439954e-003
9.439951e-003
9.439933e-003
9.439887e-003
9.439795e-003
9.439632e-003
9.439366e-003
9.438955e-003
9.438350e-003
9.437498e-003
9.436341e-003
9.434828e-003
9.432913e-003
9.430566e-003
9.427772e-003
9.424540e-003
9.420899e-003
9.416897e-003
9.412600e-003
9.408083e-003
9.403429e-003
9.398720e-003
9.394036e-003
9.389451e-003
9.385027e-003
9.380822e-003
9.376879e-003
9.373237e-003
9.369924e-003
9.366967e-003
9.364385e-003
9.362196e-003
9.360417e-003
9.359067e-003
9.358161e-003
9.357719e-003
9.357760e-003
9.358304e-003
9.359370e-003
9.360972e-003
9.363124e-003
9.365831e-003
9.369088e-003
9.372877e-003
9.377165e-003
9.381898e-003
9.387003e-003
9.392383e-003
9.397922e-003
9.403489e-003
9.408942e-003
9.414145e-003
9.418971e-003
9.423318e-003
9.427113e-003
9.430323e-003
9.432949e-003
9.435023e-003
9.436604e-003
9.437765e-003
9.438583e-003
9.439137e-003
9.439494e-003
9.439713e-003
9.439839e-003
9.439904e-003
9.439933e-003
9.439943e-003
9.439943e-003
9.439939e-003
9.439934e-003
9.439930e-003
9.439927e-003
9.439924e-003
9.439922e-003
9.439921e-003
9.439921e-003
9.439920e-003
9.439920e-003
9.439920e-003
9.439921e-003
9.439920e-003
9.439920e-003
9.439919e-003
9.439917e-003
9.439919e-003
9.439922e-003
9.439922e-003
9.439921e-003
9.439919e-003
9.439920e-003
9.439922e-003
9.439924e-003
9.439927e-003
9.439930e-003
9.439934e-003
9.439939e-003
9.439946e-003
9.439952e-003
9.439955e-003
9.439948e-003
9.439920e-003
9.439852e-003
9.439718e-003
9.439478e-003
9.439079e-003
9.438452e-003
9.437514e-003
9.436165e-003
9.434302e-003
9.431821e-003
9.428633e-003
9.424670e-003
9.419901e-003
9.414338e-003
9.408037e-003
9.401097e-003
9.393652e-003
9.385861e-003
9.377892e-003
9.369912e-003
9.362075e-003
9.354515e-003
9.347344e-003
9.340647e-003
9.334483e-003
9.328892e-003
9.323894e-003
9.319496e-003
9.315695e-003
9.312486e-003
9.309858e-003
9.307805e-003
9.306321e-003
9.305404e-003
9.305056e-003
9.305288e-003
9.306114e-003
9.307554e-003
9.309638e-003
9.312400e-003
9.315878e-003
9.320113e-003
9.325141e-003
9.330983e-003
9.337641e-003
9.345077e-003
9.353213e-003
9.361915e-003
9.370995e-003
9.380223e-003
9.389337e-003
9.398067e-003
9.406167e-003
9.413433e-003
9.419729e-003
9.424994e-003
9.429238e-003
9.432535e-003
9.435000e-003
9.436772e-003
9.437996e-003
9.438807e-003
9.439319e-003
9.439626e-003
9.439798e-003
9.439887e-003
9.439928e-003
9.439942e-003
9.439943e-003
9.439939e-003
9.439934e-003
9.439930e-003
9.439927e-003
9.439925e-003
9.439923e-003
9.439921e-003
9.439920e-003
9.439920e-003
9.439920e-003
9.439921e-003
9.439921e-003
9.439920e-003
9.439919e-003
9.439918e-003
9.439920e-003
9.439922e-003
9.439922e-003
9.439920e-003
9.439919e-003
9.439920e-003
9.439923e-003
9.439927e-003
9.439931e-003
9.439935e-003
9.439940e-003
9.439947e-003
9.439955e-003
9.439957e-003
9.439946e-003
9.439907e-003
9.439816e-003
9.439633e-003
9.439303e-003
9.438744e-003
9.437846e-003
9.436474e-003
9.434462e-003
9.431628e-003
9.427788e-003
9.422774e-003
9.416465e-003
9.408809e-003
9.399841e-003
9.389700e-003
9.378617e-003
9.366901e-003
9.354914e-003
9.343026e-003
9.331591e-003
9.320916e-003
9.311242e-003
9.302736e-003
9.295488e-003
9.289521e-003
9.284797e-003
9.281232e-003
9.278708e-003
9.277088e-003
9.276227e-003
9.275978e-003
9.276202e-003
9.276769e-003
9.277562e-003
9.278475e-003
9.279418e-003
9.280321e-003
9.281139e-003
9.281857e-003
9.282506e-003
9.283167e-003
9.283982e-003
9.285154e-003
9.286942e-003
9.289645e-003
9.293566e-003
9.298978e-003
9.306072e-003
9.314913e-003
9.325407e-003
9.337288e-003
9.350134e-003
9.363412e-003
9.376536e-003
9.388949e-003
9.400188e-003
9.409935e-003
9.418037e-003
9.424494e-003
9.429432e-003
9.433056e-003
9.435608e-003
9.437332e-003
9.438447e-003
9.439135e-003
9.439538e-003
9.439760e-003
9.439873e-003
9.439924e-003
9.439941e-003
9.439943e-003
9.439939e-003
9.439934e-003
9.439930e-003
9.439927e-003
9.439925e-003
9.439922e-003
9.439921e-003
9.439920e-003
9.439920e-003
9.439921e-003
9.439921e-003
9.439920e-003
9.439920e-003
9.439919e-003
9.439921e-003
9.439922e-003
9.439922e-003
9.439920e-003
9.439920e-003
9.439922e-003
9.439926e-003
9.439930e-003
9.439935e-003
9.439941e-003
9.439948e-003
9.439955e-003
9.439958e-003
9.439945e-003
9.439897e-003
9.439783e-003
9.439553e-003
9.439127e-003
9.438389e-003
9.437179e-003
9.435286e-003
9.432450e-003
9.428376e-003
9.422754e-003
9.415305e-003
9.405835e-003
9.394293e-003
9.380827e-003
9.365816e-003
9.349865e-003
9.333769e-003
9.318428e-003
9.304760e-003
9.293597e-003
9.285602e-003
9.281224e-003
9.280672e-003
9.283921e-003
9.290742e-003
9.300740e-003
9.313392e-003
9.328094e-003
9.344197e-003
9.361047e-003
9.378004e-003
9.394464e-003
9.409860e-003
9.423669e-003
9.435405e-003
9.444614e-003
9.450882e-003
9.453844e-003
9.453204e-003
9.448769e-003
9.440494e-003
9.428529e-003
9.413263e-003
9.395359e-003
9.375766e-003
9.355687e-003
9.336509e-003
9.319681e-003
9.306563e-003
9.298254e-003
9.295433e-003
9.298255e-003
9.306305e-003
9.318660e-003
9.334022e-003
9.350922e-003
9.367939e-003
9.383885e-003
9.397928e-003
9.409624e-003
9.418879e-003
9.425860e-003
9.430891e-003
9.434360e-003
9.436650e-003
9.438096e-003
9.438966e-003
9.439463e-003
9.439730e-003
9.439863e-003
9.439921e-003
9.439941e-003
9.439943e-003
9.439939e-003
9.439934e-003
9.439930e-003
9.439927e-003
9.439924e-003
9.439922e-003
9.439920e-003
9.439920e-003
9.439920e-003
9.439920e-003
9.439920e-003
9.439920e-003
9.439920e-003
9.439920e-003
9.439921e-003
9.439921e-003
9.439922e-003
9.439923e-003
9.439926e-003
9.439929e-003
9.439934e-003
9.439941e-003
9.439948e-003
9.439956e-003
9.439958e-003
9.439944e-003
9.439891e-003
9.439761e-003
9.439488e-003
9.438971e-003
9.438056e-003
9.436517e-003
9.434051e-003
9.430273e-003
9.424728e-003
9.416937e-003
9.406472e-003
9.393066e-003
9.376761e-003
9.358047e-003
9.337965e-003
9.318130e-003
9.300643e-003
9.287898e-003
9.282315e-003
9.286049e-003
9.300737e-003
9.327335e-003
9.366050e-003
9.416373e-003
9.477179e-003
9.546862e-003
9.623481e-003
9.704893e-003
9.788875e-003
9.873220e-003
9.955811e-003
1.003467e-002
1.010798e-002
1.017406e-002
1.023138e-002
1.027848e-002
1.031400e-002
1.033662e-002
1.034513e-002
1.033847e-002
1.031583e-002
1.027679e-002
1.022149e-002
1.015076e-002
1.006630e-002
9.970777e-003
9.867793e-003
9.761759e-003
9.657618e-003
9.560429e-003
9.474852e-003
9.404628e-003
9.352111e-003
9.317982e-003
9.301197e-003
9.299220e-003
9.308491e-003
9.325044e-003
9.345116e-003
9.365620e-003
9.384399e-003
9.400250e-003
9.412766e-003
9.422095e-003
9.428701e-003
9.433159e-003
9.436031e-003
9.437799e-003
9.438835e-003
9.439413e-003
9.439714e-003
9.439860e-003
9.439921e-003
9.439941e-003
9.439943e-003
9.439939e-003
9.439933e-003
9.439929e-003
9.439926e-003
9.439923e-003
9.439922e-003
9.439921e-003
9.439920e-003
9.439920e-003
9.439920e-003
9.439920e-003
9.439921e-003
9.439920e-003
9.439919e-003
9.439921e-003
9.439923e-003
9.439926e-003
9.439930e-003
9.439934e-003
9.439940e-003
9.439948e-003
9.439956e-003
9.439960e-003
9.439946e-003
9.439890e-003
9.439750e-003
9.439449e-003
9.438860e-003
9.437788e-003
9.435940e-003
9.432904e-003
9.428139e-003
9.420993e-003
9.410763e-003
9.396838e-003
9.378921e-003
9.357350e-003
9.333456e-003
9.309871e-003
9.290674e-003
9.281254e-003
9.287869e-003
9.316944e-003
9.374249e-003
9.464143e-003
9.589030e-003
9.749121e-003
9.942506e-003
1.016547e-002
1.041294e-002
1.067897e-002
1.095715e-002
1.124099e-002
1.152416e-002
1.180072e-002
1.206519e-002
1.231265e-002
1.253867e-002
1.273929e-002
1.291083e-002
1.304984e-002
1.315295e-002
1.321687e-002
1.323840e-002
1.321453e-002
1.314277e-002
1.302140e-002
1.284994e-002
1.262966e-002
1.236399e-002
1.205893e-002
1.172322e-002
1.136820e-002
1.100730e-002
1.065516e-002
1.032634e-002
1.003389e-002
9.787871e-003
9.594164e-003
9.453839e-003
9.363253e-003
9.314930e-003
9.299043e-003
9.305141e-003
9.323704e-003
9.347197e-003
9.370489e-003
9.390704e-003
9.406711e-003
9.418520e-003
9.426732e-003
9.432151e-003
9.435558e-003
9.437600e-003
9.438765e-003
9.439395e-003
9.439714e-003