# vtk DataFile Version 3.0
vtk output
ASCII
DATASET STRUCTURED_POINTS
DIMENSIONS 100 100 1
SPACING 1 1 1
ORIGIN 0 0 0
POINT_DATA 10000
SCALARS SFBox_profile double
LOOKUP_TABLE default 
9.439919e-003
9.439919e-003
9.439920e-003
9.439921e-003
9.439921e-003
9.439920e-003
9.439920e-003
9.439920e-003
9.439920e-003
9.439920e-003
9.439920e-003
9.439920e-003
9.439920e-003
9.439920e-003
9.439920e-003
9.439920e-003
9.439920e-003
9.439920e-003
9.439920e-003
9.439920e-003
9.439920e-003
9.439920e-003
9.439920e-003
9.439920e-003
9.439920e-003
9.439920e-003
9.439920e-003
9.439921e-003
9.439921e-003
9.439921e-003
9.439921e-003
9.439922e-003
9.439922e-003
9.439922e-003
9.439923e-003
9.439923e-003
9.439923e-003
9.439924e-003
9.439924e-003
9.439924e-003
9.439925e-003
9.439925e-003
9.439925e-003
9.439926e-003
9.439926e-003
9.439926e-003
9.439926e-003
9.439927e-003
9.439927e-003
9.439927e-003
9.439927e-003
9.439927e-003
9.439927e-003
9.439927e-003
9.439927e-003
9.439927e-003
9.439926e-003
9.439926e-003
9.439926e-003
9.439925e-003
9.439925e-003
9.439925e-003
9.439924e-003
9.439924e-003
9.439924e-003
9.439923e-003
9.439923e-003
9.439922e-003
9.439922e-003
9.439922e-003
9.439922e-003
9.439921e-003
9.439921e-003
9.439921e-003
9.439921e-003
9.439920e-003
9.439920e-003
9.439920e-003
9.439920e-003
9.439920e-003
9.439920e-003
9.439920e-003
9.439920e-003
9.439920e-003
9.439920e-003
9.439920e-003
9.439920e-003
9.439920e-003
9.439920e-003
9.439920e-003
9.439920e-003
9.439920e-003
9.439920e-003
9.439920e-003
9.439920e-003
9.439920e-003
9.439920e-003
9.439920e-003
9.439920e-003
9.439920e-003
9.439919e-003
9.439919e-003
9.439920e-003
9.439921e-003
9.439921e-003
9.439920e-003
9.439920e-003
9.439920e-003
9.439920e-003
9.439920e-003
9.439920e-003
9.439920e-003
9.439920e-003
9.439920e-003
9.439920e-003
9.439920e-003
9.439920e-003
9.439920e-003
9.439920e-003
9.439920e-003
9.439920e-003
9.439920e-003
9.439920e-003
9.439920e-003
9.439920e-003
9.439920e-003
9.439920e-003
9.439921e-003
9.439921e-003
9.439921e-003
9.439921e-003
9.439922e-003
9.439922e-003
9.439922e-003
9.439923e-003
9.439923e-003
9.439923e-003
9.439924e-003
9.439924e-003
9.439924e-003
9.439925e-003
9.439925e-003
9.439925e-003
9.439926e-003
9.439926e-003
9.439926e-003
9.439926e-003
9.439927e-003
9.439927e-003
9.439927e-003
9.439927e-003
9.439927e-003
9.439927e-003
9.439927e-003
9.439927e-003
9.439927e-003
9.439926e-003
9.439926e-003
9.439926e-003
9.439925e-003
9.439925e-003
9.439925e-003
9.439924e-003
9.439924e-003
9.439924e-003
9.439923e-003
9.439923e-003
9.439922e-003
9.439922e-003
9.439922e-003
9.439922e-003
9.439921e-003
9.439921e-003
9.439921e-003
9.439921e-003
9.439920e-003
9.439920e-003
9.439920e-003
9.439920e-003
9.439920e-003
9.439920e-003
9.439920e-003
9.439920e-003
9.439920e-003
9.439920e-003
9.439920e-003
9.439920e-003
9.439920e-003
9.439920e-003
9.439920e-003
9.439920e-003
9.439920e-003
9.439920e-003
9.439920e-003
9.439920e-003
9.439920e-003
9.439920e-003
9.439920e-003
9.439920e-003
9.439920e-003
9.439920e-003
9.439920e-003
9.439920e-003
9.439920e-003
9.439920e-003
9.439920e-003
9.439920e-003
9.439920e-003
9.439920e-003
9.439920e-003
9.439920e-003
9.439920e-003
9.439920e-003
9.439920e-003
9.439920e-003
9.439920e-003
9.439920e-003
9.439920e-003
9.439920e-003
9.439920e-003
9.439920e-003
9.439920e-003
9.439920e-003
9.439920e-003
9.439920e-003
9.439921e-003
9.439921e-003
9.439921e-003
9.439921e-003
9.439922e-003
9.439922e-003
9.439922e-003
9.439923e-003
9.439923e-003
9.439924e-003
9.439924e-003
9.439925e-003
9.439925e-003
9.439926e-003
9.439926e-003
9.439927e-003
9.439927e-003
9.439928e-003
9.439928e-003
9.439929e-003
9.439929e-003
9.439929e-003
9.439930e-003
9.439930e-003
9.439930e-003
9.439930e-003
9.439930e-003
9.439930e-003
9.439930e-003
9.439930e-003
9.439930e-003
9.439929e-003
9.439929e-003
9.439929e-003
9.439928e-003
9.439928e-003
9.439927e-003
9.439927e-003
9.439926e-003
9.439925e-003
9.439925e-003
9.439924e-003
9.439924e-003
9.439923e-003
9.439923e-003
9.439922e-003
9.439922e-003
9.439921e-003
9.439921e-003
9.439921e-003
9.439921e-003
9.439920e-003
9.439920e-003
9.439920e-003
9.439920e-003
9.439920e-003
9.439920e-003
9.439920e-003
9.439920e-003
9.439920e-003
9.439920e-003
9.439920e-003
9.439920e-003
9.439920e-003
9.439920e-003
9.439920e-003
9.439920e-003
9.439920e-003
9.439920e-003
9.439920e-003
9.439920e-003
9.439920e-003
9.439920e-003
9.439920e-003
9.439920e-003
9.439921e-003
9.439920e-003
9.439920e-003
9.439920e-003
9.439920e-003
9.439920e-003
9.439920e-003
9.439920e-003
9.439920e-003
9.439920e-003
9.439920e-003
9.439920e-003
9.439920e-003
9.439920e-003
9.439920e-003
9.439920e-003
9.439920e-003
9.439920e-003
9.439920e-003
9.439920e-003
9.439920e-003
9.439921e-003
9.439921e-003
9.439921e-003
9.439921e-003
9.439921e-003
9.439921e-003
9.439922e-003
9.439922e-003
9.439923e-003
9.439923e-003
9.439924e-003
9.439925e-003
9.439926e-003
9.439927e-003
9.439927e-003
9.439928e-003
9.439929e-003
9.439930e-003
9.439931e-003
9.439932e-003
9.439933e-003
9.439933e-003
9.439934e-003
9.439934e-003
9.439935e-003
9.439935e-003
9.439936e-003
9.439936e-003
9.439936e-003
9.439936e-003
9.439936e-003
9.439936e-003
9.439936e-003
9.439936e-003
9.439936e-003
9.439935e-003
9.439935e-003
9.439934e-003
9.439933e-003
9.439933e-003
9.439932e-003
9.439931e-003
9.439930e-003
9.439929e-003
9.439928e-003
9.439927e-003
9.439926e-003
9.439925e-003
9.439924e-003
9.439924e-003
9.439923e-003
9.439922e-003
9.439922e-003
9.439921e-003
9.439921e-003
9.439921e-003
9.439921e-003
9.439921e-003
9.439920e-003
9.439920e-003
9.439920e-003
9.439920e-003
9.439920e-003
9.439920e-003
9.439920e-003
9.439920e-003
9.439920e-003
9.439920e-003
9.439920e-003
9.439920e-003
9.439920e-003
9.439920e-003
9.439920e-003
9.439920e-003
9.439920e-003
9.439920e-003
9.439920e-003
9.439920e-003
9.439920e-003
9.439921e-003
9.439921e-003
9.439920e-003
9.439919e-003
9.439919e-003
9.439920e-003
9.439920e-003
9.439920e-003
9.439920e-003
9.439920e-003
9.439920e-003
9.439920e-003
9.439920e-003
9.439920e-003
9.439920e-003
9.439920e-003
9.439920e-003
9.439920e-003
9.439920e-003
9.439921e-003
9.439921e-003
9.439921e-003
9.439921e-003
9.439921e-003
9.439922e-003
9.439923e-003
9.439923e-003
9.439924e-003
9.439925e-003
9.439926e-003
9.439927e-003
9.439928e-003
9.439929e-003
9.439931e-003
9.439932e-003
9.439933e-003
9.439934e-003
9.439936e-003
9.439937e-003
9.439938e-003
9.439939e-003
9.439940e-003
9.439941e-003
9.439942e-003
9.439942e-003
9.439943e-003
9.439943e-003
9.439943e-003
9.439944e-003
9.439944e-003
9.439944e-003
9.439944e-003
9.439944e-003
9.439944e-003
9.439943e-003
9.439943e-003
9.439942e-003
9.439942e-003
9.439941e-003
9.439940e-003
9.439940e-003
9.439939e-003
9.439938e-003
9.439936e-003
9.439935e-003
9.439934e-003
9.439932e-003
9.439931e-003
9.439930e-003
9.439928e-003
9.439927e-003
9.439926e-003
9.439925e-003
9.439924e-003
9.439923e-003
9.439922e-003
9.439922e-003
9.439921e-003
9.439921e-003
9.439921e-003
9.439921e-003
9.439920e-003
9.439920e-003
9.439920e-003
9.439920e-003
9.439920e-003
9.439920e-003
9.439920e-003
9.439920e-003
9.439920e-003
9.439920e-003
9.439920e-003
9.439920e-003
9.439920e-003
9.439920e-003
9.439920e-003
9.439920e-003
9.439920e-003
9.439920e-003
9.439920e-003
9.439921e-003
9.439920e-003
9.439920e-003
9.439920e-003
9.439920e-003
9.439920e-003
9.439920e-003
9.439920e-003
9.439920e-003
9.439920e-003
9.439920e-003
9.439920e-003
9.439920e-003
9.439920e-003
9.439920e-003
9.439920e-003
9.439920e-003
9.439920e-003
9.439920e-003
9.439921e-003
9.439921e-003
9.439922e-003
9.439922e-003
9.439923e-003
9.439924e-003
9.439925e-003
9.439926e-003
9.439928e-003
9.439929e-003
9.439931e-003
9.439933e-003
9.439935e-003
9.439936e-003
9.439938e-003
9.439940e-003
9.439941e-003
9.439942e-003
9.439944e-003
9.439945e-003
9.439946e-003
9.439946e-003
9.439947e-003
9.439947e-003
9.439947e-003
9.439947e-003
9.439947e-003
9.439947e-003
9.439947e-003
9.439947e-003
9.439947e-003
9.439946e-003
9.439946e-003
9.439946e-003
9.439946e-003
9.439946e-003
9.439945e-003
9.439945e-003
9.439945e-003
9.439945e-003
9.439945e-003
9.439944e-003
9.439944e-003
9.439943e-003
9.439943e-003
9.439942e-003
9.439941e-003
9.439939e-003
9.439938e-003
9.439936e-003
9.439934e-003
9.439932e-003
9.439931e-003
9.439929e-003
9.439927e-003
9.439926e-003
9.439925e-003
9.439923e-003
9.439923e-003
9.439922e-003
9.439921e-003
9.439921e-003
9.439920e-003
9.439920e-003
9.439920e-003
9.439920e-003
9.439920e-003
9.439920e-003
9.439920e-003
9.439920e-003
9.439920e-003
9.439920e-003
9.439920e-003
9.439920e-003
9.439920e-003
9.439920e-003
9.439920e-003
9.439920e-003
9.439920e-003
9.439920e-003
9.439920e-003
9.439920e-003
9.439920e-003
9.439920e-003
9.439920e-003
9.439920e-003
9.439920e-003
9.439920e-003
9.439920e-003
9.439920e-003
9.439920e-003
9.439920e-003
9.439920e-003
9.439920e-003
9.439920e-003
9.439921e-003
9.439921e-003
9.439921e-003
9.439921e-003
9.439921e-003
9.439921e-003
9.439922e-003
9.439923e-003
9.439924e-003
9.439926e-003
9.439927e-003
9.439929e-003
9.439931e-003
9.439934e-003
9.439936e-003
9.439938e-003
9.439940e-003
9.439942e-003
9.439944e-003
9.439946e-003
9.439947e-003
9.439947e-003
9.439947e-003
9.439947e-003
9.439946e-003
9.439945e-003
9.439943e-003
9.439941e-003
9.439939e-003
9.439937e-003
9.439935e-003
9.439932e-003
9.439930e-003
9.439928e-003
9.439926e-003
9.439924e-003
9.439923e-003
9.439922e-003
9.439921e-003
9.439921e-003
9.439922e-003
9.439923e-003
9.439924e-003
9.439926e-003
9.439928e-003
9.439931e-003
9.439933e-003
9.439936e-003
9.439938e-003
9.439940e-003
9.439941e-003
9.439942e-003
9.439943e-003
9.439943e-003
9.439942e-003
9.439941e-003
9.439939e-003
9.439937e-003
9.439935e-003
9.439933e-003
9.439930e-003
9.439928e-003
9.439926e-003
9.439925e-003
9.439924e-003
9.439922e-003
9.439922e-003
9.439921e-003
9.439921e-003
9.439920e-003
9.439920e-003
9.439920e-003
9.439920e-003
9.439920e-003
9.439920e-003
9.439920e-003
9.439920e-003
9.439920e-003
9.439920e-003
9.439920e-003
9.439920e-003
9.439920e-003
9.439920e-003
9.439920e-003
9.439920e-003
9.439920e-003
9.439919e-003
9.439919e-003
9.439920e-003
9.439920e-003
9.439921e-003
9.439920e-003
9.439920e-003
9.439920e-003
9.439920e-003
9.439920e-003
9.439920e-003
9.439920e-003
9.439920e-003
9.439920e-003
9.439921e-003
9.439921e-003
9.439921e-003
9.439921e-003
9.439922e-003
9.439923e-003
9.439925e-003
9.439926e-003
9.439928e-003
9.439930e-003
9.439933e-003
9.439936e-003
9.439938e-003
9.439941e-003
9.439943e-003
9.439945e-003
9.439947e-003
9.439947e-003
9.439946e-003
9.439945e-003
9.439941e-003
9.439937e-003
9.439931e-003
9.439924e-003
9.439917e-003
9.439908e-003
9.439898e-003
9.439888e-003
9.439878e-003
9.439867e-003
9.439857e-003
9.439847e-003
9.439838e-003
9.439830e-003
9.439823e-003
9.439817e-003
9.439813e-003
9.439810e-003
9.439809e-003
9.439810e-003
9.439813e-003
9.439818e-003
9.439824e-003
9.439833e-003
9.439842e-003
9.439853e-003
9.439865e-003
9.439877e-003
9.439890e-003
9.439901e-003
9.439912e-003
9.439921e-003
9.439929e-003
9.439935e-003
9.439939e-003
9.439941e-003
9.439942e-003
9.439942e-003
9.439941e-003
9.439939e-003
9.439936e-003
9.439933e-003
9.439931e-003
9.439929e-003
9.439927e-003
9.439925e-003
9.439923e-003
9.439922e-003
9.439921e-003
9.439921e-003
9.439921e-003
9.439921e-003
9.439920e-003
9.439920e-003
9.439920e-003
9.439920e-003
9.439920e-003
9.439920e-003
9.439920e-003
9.439920e-003
9.439920e-003
9.439920e-003
9.439920e-003
9.439920e-003
9.439920e-003
9.439920e-003
9.439919e-003
9.439919e-003
9.439920e-003
9.439921e-003
9.439921e-003
9.439920e-003
9.439920e-003
9.439920e-003
9.439920e-003
9.439920e-003
9.439920e-003
9.439920e-003
9.439920e-003
9.439920e-003
9.439921e-003
9.439921e-003
9.439922e-003
9.439923e-003
9.439924e-003
9.439926e-003
9.439928e-003
9.439931e-003
9.439934e-003
9.439937e-003
9.439940e-003
9.439943e-003
9.439946e-003
9.439947e-003
9.439947e-003
9.439945e-003
9.439941e-003
9.439933e-003
9.439923e-003
9.439909e-003
9.439892e-003
9.439871e-003
9.439847e-003
9.439820e-003
9.439791e-003
9.439760e-003
9.439727e-003
9.439694e-003
9.439660e-003
9.439628e-003
9.439596e-003
9.439566e-003
9.439539e-003
9.439515e-003
9.439494e-003
9.439478e-003
9.439465e-003
9.439458e-003
9.439457e-003
9.439460e-003
9.439470e-003
9.439485e-003
9.439506e-003
9.439532e-003
9.439563e-003
9.439597e-003
9.439635e-003
9.439674e-003
9.439714e-003
9.439753e-003
9.439790e-003
9.439825e-003
9.439855e-003
9.439881e-003
9.439902e-003
9.439918e-003
9.439929e-003
9.439937e-003
9.439941e-003
9.439942e-003
9.439941e-003
9.439940e-003
9.439937e-003
9.439934e-003
9.439931e-003
9.439929e-003
9.439926e-003
9.439924e-003
9.439923e-003
9.439922e-003
9.439921e-003
9.439921e-003
9.439920e-003
9.439920e-003
9.439920e-003
9.439920e-003
9.439920e-003
9.439920e-003
9.439920e-003
9.439920e-003
9.439920e-003
9.439920e-003
9.439920e-003
9.439920e-003
9.439920e-003
9.439920e-003
9.439920e-003
9.439920e-003
9.439920e-003
9.439920e-003
9.439920e-003
9.439920e-003
9.439920e-003
9.439920e-003
9.439920e-003
9.439920e-003
9.439921e-003
9.439921e-003
9.439921e-003
9.439921e-003
9.439921e-003
9.439922e-003
9.439924e-003
9.439926e-003
9.439928e-003
9.439931e-003
9.439934e-003
9.439938e-003
9.439942e-003
9.439945e-003
9.439948e-003
9.439948e-003
9.439947e-003
9.439941e-003
9.439931e-003
9.439914e-003
9.439890e-003
9.439859e-003
9.439819e-003
9.439770e-003
9.439712e-003
9.439646e-003
9.439573e-003
9.439493e-003
9.439407e-003
9.439318e-003
9.439227e-003
9.439135e-003
9.439044e-003
9.438956e-003
9.438872e-003
9.438793e-003
9.438722e-003
9.438658e-003
9.438605e-003
9.438563e-003
9.438532e-003
9.438515e-003
9.438511e-003
9.438522e-003
9.438549e-003
9.438590e-003
9.438646e-003
9.438715e-003
9.438798e-003
9.438891e-003
9.438993e-003
9.439101e-003
9.439211e-003
9.439321e-003
9.439427e-003
9.439526e-003
9.439617e-003
9.439697e-003
9.439765e-003
9.439820e-003
9.439863e-003
9.439895e-003
9.439917e-003
9.439931e-003
9.439939e-003
9.439942e-003
9.439942e-003
9.439940e-003
9.439937e-003
9.439934e-003
9.439931e-003
9.439928e-003
9.439926e-003
9.439924e-003
9.439922e-003
9.439921e-003
9.439921e-003
9.439920e-003
9.439920e-003
9.439920e-003
9.439920e-003
9.439920e-003
9.439920e-003
9.439920e-003
9.439920e-003
9.439920e-003
9.439920e-003
9.439920e-003
9.439920e-003
9.439920e-003
9.439920e-003
9.439920e-003
9.439920e-003
9.439920e-003
9.439920e-003
9.439920e-003
9.439920e-003
9.439920e-003
9.439920e-003
9.439921e-003
9.439921e-003
9.439921e-003
9.439921e-003
9.439922e-003
9.439923e-003
9.439925e-003
9.439927e-003
9.439930e-003
9.439934e-003
9.439938e-003
9.439942e-003
9.439946e-003
9.439949e-003
9.439949e-003
9.439946e-003
9.439937e-003
9.439919e-003
9.439890e-003
9.439848e-003
9.439790e-003
9.439713e-003
9.439616e-003
9.439498e-003
9.439359e-003
9.439199e-003
9.439021e-003
9.438826e-003
9.438617e-003
9.438398e-003
9.438172e-003
9.437942e-003
9.437713e-003
9.437489e-003
9.437273e-003
9.437068e-003
9.436878e-003
9.436705e-003
9.436555e-003
9.436427e-003
9.436327e-003
9.436256e-003
9.436216e-003
9.436209e-003
9.436238e-003
9.436302e-003
9.436403e-003
9.436539e-003
9.436709e-003
9.436910e-003
9.437138e-003
9.437389e-003
9.437655e-003
9.437930e-003
9.438207e-003
9.438477e-003
9.438734e-003
9.438972e-003
9.439185e-003
9.439370e-003
9.439526e-003
9.439652e-003
9.439750e-003
9.439823e-003
9.439874e-003
9.439908e-003
9.439928e-003
9.439939e-003
9.439943e-003
9.439942e-003
9.439940e-003
9.439936e-003
9.439933e-003
9.439929e-003
9.439927e-003
9.439924e-003
9.439923e-003
9.439922e-003
9.439921e-003
9.439921e-003
9.439920e-003
9.439920e-003
9.439920e-003
9.439920e-003
9.439920e-003
9.439920e-003
9.439920e-003
9.439920e-003
9.439920e-003
9.439920e-003
9.439920e-003
9.439921e-003
9.439920e-003
9.439920e-003
9.439920e-003
9.439920e-003
9.439920e-003
9.439920e-003
9.439920e-003
9.439920e-003
9.439921e-003
9.439921e-003
9.439921e-003
9.439922e-003
9.439924e-003
9.439926e-003
9.439929e-003
9.439932e-003
9.439936e-003
9.439941e-003
9.439946e-003
9.439949e-003
9.439950e-003
9.439947e-003
9.439935e-003
9.439911e-003
9.439871e-003
9.439807e-003
9.439715e-003
9.439589e-003
9.439424e-003
9.439214e-003
9.438957e-003
9.438652e-003
9.438300e-003
9.437903e-003
9.437465e-003
9.436993e-003
9.436493e-003
9.435974e-003
9.435443e-003
9.434909e-003
9.434381e-003
9.433867e-003
9.433374e-003
9.432911e-003
9.432483e-003
9.432097e-003
9.431761e-003
9.431479e-003
9.431257e-003
9.431101e-003
9.431014e-003
9.431003e-003
9.431069e-003
9.431215e-003
9.431442e-003
9.431749e-003
9.432133e-003
9.432589e-003
9.433108e-003
9.433681e-003
9.434293e-003
9.434929e-003
9.435574e-003
9.436210e-003
9.436821e-003
9.437392e-003
9.437911e-003
9.438369e-003
9.438761e-003
9.439085e-003
9.439345e-003
9.439544e-003
9.439691e-003
9.439795e-003
9.439863e-003
9.439906e-003
9.439929e-003
9.439940e-003
9.439943e-003
9.439941e-003
9.439938e-003
9.439934e-003
9.439931e-003
9.439927e-003
9.439925e-003
9.439923e-003
9.439922e-003
9.439921e-003
9.439921e-003
9.439920e-003
9.439920e-003
9.439920e-003
9.439920e-003
9.439920e-003
9.439920e-003
9.439920e-003
9.439920e-003
9.439920e-003
9.439920e-003
9.439921e-003
9.439920e-003
9.439920e-003
9.439920e-003
9.439920e-003
9.439920e-003
9.439920e-003
9.439921e-003
9.439920e-003
9.439921e-003
9.439921e-003
9.439923e-003
9.439924e-003
9.439927e-003
9.439930e-003
9.439934e-003
9.439939e-003
9.439944e-003
9.439949e-003
9.439952e-003
9.439950e-003
9.439938e-003
9.439913e-003
9.439864e-003
9.439784e-003
9.439660e-003
9.439482e-003
9.439235e-003
9.438908e-003
9.438491e-003
9.437974e-003
9.437353e-003
9.436629e-003
9.435804e-003
9.434886e-003
9.433887e-003
9.432821e-003
9.431705e-003
9.430556e-003
9.429393e-003
9.428234e-003
9.427095e-003
9.425994e-003
9.424947e-003
9.423966e-003
9.423067e-003
9.422261e-003
9.421561e-003
9.420977e-003
9.420519e-003
9.420199e-003
9.420025e-003
9.420006e-003
9.420147e-003
9.420456e-003
9.420934e-003
9.421579e-003
9.422388e-003
9.423351e-003
9.424453e-003
9.425673e-003
9.426986e-003
9.428362e-003
9.429767e-003
9.431165e-003
9.432521e-003
9.433803e-003
9.434981e-003
9.436035e-003
9.436949e-003
9.437717e-003
9.438343e-003
9.438835e-003
9.439208e-003
9.439479e-003
9.439667e-003
9.439791e-003
9.439868e-003
9.439912e-003
9.439934e-003
9.439942e-003
9.439943e-003
9.439940e-003
9.439936e-003
9.439932e-003
9.439928e-003
9.439926e-003
9.439924e-003
9.439922e-003
9.439921e-003
9.439921e-003
9.439920e-003
9.439920e-003
9.439920e-003
9.439920e-003
9.439920e-003
9.439920e-003
9.439920e-003
9.439920e-003
9.439920e-003
9.439920e-003
9.439920e-003
9.439920e-003
9.439920e-003
9.439920e-003
9.439921e-003
9.439921e-003
9.439921e-003
9.439921e-003
9.439921e-003
9.439922e-003
9.439925e-003
9.439928e-003
9.439931e-003
9.439936e-003
9.439942e-003
9.439947e-003
9.439952e-003
9.439953e-003
9.439946e-003
9.439923e-003
9.439875e-003
9.439789e-003
9.439648e-003
9.439429e-003
9.439109e-003
9.438663e-003
9.438064e-003
9.437287e-003
9.436314e-003
9.435131e-003
9.433733e-003
9.432124e-003
9.430316e-003
9.428330e-003
9.426196e-003
9.423946e-003
9.421617e-003
9.419245e-003
9.416870e-003
9.414525e-003
9.412245e-003
9.410060e-003
9.407998e-003
9.406085e-003
9.404342e-003
9.402791e-003
9.401452e-003
9.400342e-003
9.399480e-003
9.398881e-003
9.398562e-003
9.398538e-003
9.398821e-003
9.399421e-003
9.400346e-003
9.401594e-003
9.403162e-003
9.405035e-003
9.407190e-003
9.409594e-003
9.412202e-003
9.414960e-003
9.417806e-003
9.420671e-003
9.423483e-003
9.426173e-003
9.428679e-003
9.430948e-003
9.432946e-003
9.434650e-003
9.436060e-003
9.437187e-003
9.438057e-003
9.438704e-003
9.439167e-003
9.439483e-003
9.439689e-003
9.439816e-003
9.439887e-003
9.439924e-003
9.439940e-003
9.439943e-003
9.439941e-003
9.439937e-003
9.439933e-003
9.439929e-003
9.439926e-003
9.439924e-003
9.439922e-003
9.439921e-003
9.439921e-003
9.439920e-003
9.439920e-003
9.439920e-003
9.439920e-003
9.439920e-003
9.439920e-003
9.439920e-003
9.439920e-003
9.439920e-003
9.439920e-003
9.439920e-003
9.439920e-003
9.439920e-003
9.439921e-003
9.439921e-003
9.439921e-003
9.439922e-003
9.439923e-003
9.439925e-003
9.439928e-003
9.439932e-003
9.439938e-003
9.439944e-003
9.439950e-003
9.439954e-003
9.439952e-003
9.439938e-003
9.439900e-003
9.439823e-003
9.439684e-003
9.439454e-003
9.439095e-003
9.438563e-003
9.437808e-003
9.436779e-003
9.435425e-003
9.433702e-003
9.431578e-003
9.429037e-003
9.426081e-003
9.422730e-003
9.419024e-003
9.415019e-003
9.410781e-003
9.406383e-003
9.401901e-003
9.397410e-003
9.392980e-003
9.388673e-003
9.384547e-003
9.380649e-003
9.377022e-003
9.373699e-003
9.370712e-003
9.368086e-003
9.365845e-003
9.364010e-003
9.362604e-003
9.361647e-003
9.361160e-003
9.361163e-003
9.361675e-003
9.362715e-003
9.364296e-003
9.366427e-003
9.369108e-003
9.372331e-003
9.376072e-003
9.380291e-003
9.384932e-003
9.389915e-003
9.395142e-003
9.400497e-003
9.405849e-003
9.411063e-003
9.416010e-003
9.420572e-003
9.424657e-003
9.428203e-003
9.431185e-003
9.433610e-003
9.435514e-003
9.436957e-003
9.438009e-003
9.438747e-003
9.439241e-003
9.439558e-003
9.439749e-003
9.439857e-003
9.439912e-003
9.439936e-003
9.439943e-003
9.439942e-003
9.439938e-003
9.439934e-003
9.439929e-003
9.439926e-003
9.439924e-003
9.439922e-003
9.439921e-003
9.439921e-003
9.439920e-003
9.439920e-003
9.439920e-003
9.439920e-003
9.439920e-003
9.439920e-003
9.439920e-003
9.439920e-003
9.439920e-003
9.439920e-003
9.439920e-003
9.439920e-003
9.439921e-003
9.439921e-003
9.439922e-003
9.439923e-003
9.439925e-003
9.439929e-003
9.439933e-003
9.439939e-003
9.439946e-003
9.439952e-003
9.439955e-003
9.439951e-003
9.439928e-003
9.439872e-003
9.439758e-003
9.439551e-003
9.439204e-003
9.438654e-003
9.437824e-003
9.436625e-003
9.434961e-003
9.432734e-003
9.429856e-003
9.426260e-003
9.421907e-003
9.416797e-003
9.410971e-003
9.404507e-003
9.397521e-003
9.390151e-003
9.382548e-003
9.374866e-003
9.367252e-003
9.359839e-003
9.352739e-003
9.346044e-003
9.339825e-003
9.334131e-003
9.328997e-003
9.324442e-003
9.320475e-003
9.317098e-003
9.314312e-003
9.312113e-003
9.310501e-003
9.309478e-003
9.309048e-003
9.309223e-003
9.310018e-003
9.311453e-003
9.313556e-003
9.316358e-003
9.319894e-003
9.324197e-003
9.329295e-003
9.335198e-003
9.341892e-003
9.349327e-003
9.357406e-003
9.365986e-003
9.374874e-003
9.383837e-003
9.392622e-003
9.400976e-003
9.408669e-003
9.415521e-003
9.421418e-003
9.426316e-003
9.430239e-003
9.433267e-003
9.435517e-003
9.437124e-003
9.438227e-003
9.438951e-003
9.439405e-003
9.439674e-003
9.439823e-003
9.439899e-003
9.439932e-003
9.439943e-003
9.439943e-003
9.439939e-003
9.439934e-003
9.439929e-003
9.439926e-003
9.439924e-003
9.439922e-003
9.439921e-003
9.439921e-003
9.439920e-003
9.439920e-003
9.439920e-003
9.439920e-003
9.439920e-003
9.439920e-003
9.439920e-003
9.439920e-003
9.439921e-003
9.439921e-003
9.439921e-003
9.439921e-003
9.439921e-003
9.439923e-003
9.439925e-003
9.439929e-003
9.439934e-003
9.439940e-003
9.439947e-003
9.439954e-003
9.439957e-003
9.439949e-003
9.439918e-003
9.439841e-003
9.439686e-003
9.439399e-003
9.438909e-003
9.438118e-003
9.436900e-003
9.435106e-003
9.432566e-003
9.429107e-003
9.424567e-003
9.418819e-003
9.411796e-003
9.403509e-003
9.394057e-003
9.383628e-003
9.372486e-003
9.360946e-003
9.349347e-003
9.338019e-003
9.327262e-003
9.317322e-003
9.308387e-003
9.300578e-003
9.293953e-003
9.288517e-003
9.284226e-003
9.280997e-003
9.278721e-003
9.277273e-003
9.276516e-003
9.276316e-003
9.276541e-003
9.277070e-003
9.277793e-003
9.278617e-003
9.279472e-003
9.280315e-003
9.281139e-003
9.281980e-003
9.282930e-003
9.284135e-003
9.285799e-003
9.288171e-003
9.291527e-003
9.296138e-003
9.302229e-003
9.309938e-003
9.319278e-003
9.330109e-003
9.342135e-003
9.354924e-003
9.367954e-003
9.380672e-003
9.392568e-003
9.403232e-003
9.412397e-003
9.419952e-003
9.425928e-003
9.430465e-003
9.433773e-003
9.436086e-003
9.437639e-003
9.438635e-003
9.439245e-003
9.439599e-003
9.439791e-003
9.439887e-003
9.439929e-003
9.439942e-003
9.439943e-003
9.439939e-003
9.439934e-003
9.439929e-003
9.439926e-003
9.439924e-003
9.439922e-003
9.439921e-003
9.439920e-003
9.439920e-003
9.439920e-003
9.439920e-003
9.439920e-003
9.439920e-003
9.439920e-003
9.439920e-003
9.439921e-003
9.439921e-003
9.439921e-003
9.439921e-003
9.439922e-003
9.439925e-003
9.439929e-003
9.439934e-003
9.439940e-003
9.439948e-003
9.439955e-003
9.439958e-003
9.439948e-003
9.439909e-003
9.439814e-003
9.439615e-003
9.439244e-003
9.438595e-003
9.437524e-003
9.435838e-003
9.433302e-003
9.429639e-003
9.424558e-003
9.417786e-003
9.409115e-003
9.398460e-003
9.385902e-003
9.371731e-003
9.356440e-003
9.340708e-003
9.325329e-003
9.311137e-003
9.298919e-003
9.289340e-003
9.282888e-003
9.279852e-003
9.280317e-003
9.284184e-003
9.291190e-003
9.300945e-003
9.312958e-003
9.326669e-003
9.341478e-003
9.356766e-003
9.371919e-003
9.386341e-003
9.399464e-003
9.410755e-003
9.419721e-003
9.425919e-003
9.428973e-003
9.428599e-003
9.424632e-003
9.417072e-003
9.406123e-003
9.392227e-003
9.376091e-003
9.358674e-003
9.341157e-003
9.324852e-003
9.311091e-003
9.301073e-003
9.295720e-003
9.295536e-003
9.300525e-003
9.310175e-003
9.323525e-003
9.339307e-003
9.356139e-003
9.372723e-003
9.388010e-003
9.401296e-003
9.412242e-003
9.420822e-003
9.427241e-003
9.431832e-003
9.434976e-003
9.437037e-003
9.438328e-003
9.439099e-003
9.439535e-003
9.439766e-003
9.439879e-003
9.439927e-003
9.439942e-003
9.439943e-003
9.439939e-003
9.439933e-003
9.439929e-003
9.439926e-003
9.439923e-003
9.439922e-003
9.439921e-003
9.439920e-003
9.439920e-003
9.439920e-003
9.439920e-003
9.439920e-003
9.439920e-003
9.439920e-003
9.439921e-003
9.439921e-003
9.439922e-003
9.439923e-003
9.439925e-003
9.439928e-003
9.439933e-003
9.439940e-003
9.439948e-003
9.439955e-003
9.439959e-003
9.439948e-003
9.439904e-003
9.439793e-003
9.439558e-003
9.439106e-003
9.438297e-003
9.436929e-003
9.434727e-003
9.431337e-003
9.426336e-003
9.419270e-003
9.409713e-003
9.397366e-003
9.382184e-003
9.364501e-003
9.345136e-003
9.325422e-003
9.307160e-003
9.292458e-003
9.283518e-003
9.282378e-003
9.290689e-003
9.309545e-003
9.339408e-003
9.380106e-003
9.430904e-003
9.490603e-003
9.557658e-003
9.630275e-003
9.706509e-003
9.784333e-003
9.861706e-003
9.936622e-003
1.000715e-002
1.007144e-002
1.012777e-002
1.017448e-002
1.021005e-002
1.023305e-002
1.024222e-002
1.023654e-002
1.021529e-002
1.017820e-002
1.012560e-002
1.005856e-002
9.978967e-003
9.889617e-003
9.794140e-003
9.696841e-003
9.602405e-003
9.515492e-003
9.440267e-003
9.379931e-003
9.336328e-003
9.309727e-003
9.298823e-003
9.301005e-003
9.312821e-003
9.330557e-003
9.350790e-003
9.370791e-003
9.388725e-003
9.403631e-003
9.415260e-003
9.423845e-003
9.429872e-003
9.433909e-003
9.436491e-003
9.438069e-003
9.438987e-003
9.439492e-003
9.439753e-003
9.439876e-003
9.439927e-003
9.439942e-003
9.439943e-003
9.439938e-003
9.439933e-003
9.439928e-003
9.439925e-003
9.439923e-003
9.439921e-003
9.439921e-003
9.439920e-003
9.439920e-003
9.439920e-003
9.439920e-003
9.439920e-003
9.439920e-003
9.439921e-003
9.439922e-003
9.439923e-003
9.439925e-003
9.439928e-003
9.439932e-003
9.439939e-003
9.439947e-003
9.439956e-003
9.439960e-003
9.439949e-003
9.439904e-003
9.439784e-003
9.439522e-003
9.439005e-003
9.438055e-003
9.436407e-003
9.433686e-003
9.429398e-003
9.422932e-003
9.413620e-003
9.400842e-003
9.384228e-003
9.363922e-003
9.340910e-003
9.317305e-003
9.296511e-003
9.283155e-003
9.282749e-003
9.301121e-003
9.343705e-003
9.414863e-003
9.517363e-003
9.652102e-003
9.818098e-003
1.001271e-002
1.023197e-002
1.047100e-002
1.072436e-002
1.098634e-002
1.125115e-002
1.151310e-002
1.176673e-002
1.200683e-002
1.222850e-002
1.242719e-002
1.259859e-002
1.273866e-002
1.284354e-002
1.290961e-002
1.293350e-002
1.291229e-002
1.284371e-002
1.272649e-002
1.256074e-002
1.234836e-002
1.209345e-002
1.180255e-002
1.148470e-002
1.115124e-002
1.081518e-002
1.049036e-002
1.019020e-002
9.926360e-003
9.707472e-003
9.538106e-003
9.418314e-003
9.343876e-003
9.307234e-003
9.298939e-003
9.309259e-003
9.329555e-003
9.353171e-003
9.375713e-003
9.394839e-003
9.409751e-003
9.420624e-003
9.428114e-003
9.433017e-003
9.436077e-003
9.437896e-003
9.438926e-003
9.439477e-003
9.439753e-003