# vtk DataFile Version 3.0
vtk output
ASCII
DATASET STRUCTURED_POINTS
DIMENSIONS 100 100 1
SPACING 1 1 1
ORIGIN 0 0 0
POINT_DATA 10000
SCALARS SFBox_profile double
LOOKUP_TABLE default 
0.000000e+000
0.000000e+000
0.000000e+000
0.000000e+000
0.000000e+000
0.000000e+000
0.000000e+000
0.000000e+000
0.000000e+000
0.000000e+000
0.000000e+000
0.000000e+000
0.000000e+000
0.000000e+000
0.000000e+000
0.000000e+000
0.000000e+000
0.000000e+000
0.000000e+000
0.000000e+000
0.000000e+000
0.000000e+000
0.000000e+000
0.000000e+000
0.000000e+000
0.000000e+000
0.000000e+000
0.000000e+000
0.000000e+000
0.000000e+000
0.000000e+000
0.000000e+000
0.000000e+000
0.000000e+000
0.000000e+000
0.000000e+000
0.000000e+000
0.000000e+000
0.000000e+000
0.000000e+000
0.000000e+000
0.000000e+000
0.000000e+000
0.000000e+000
0.000000e+000
0.000000e+000
0.000000e+000
0.000000e+000
0.000000e+000
0.000000e+000
0.000000e+000
0.000000e+000
0.000000e+000
0.000000e+000
0.000000e+000
0.000000e+000
0.000000e+000
0.000000e+000
0.000000e+000
0.000000e+000
0.000000e+000
0.000000e+000
0.000000e+000
0.000000e+000
0.000000e+000
0.000000e+000
0.000000e+000
0.000000e+000
0.000000e+000
0.000000e+000
0.000000e+000
0.000000e+000
0.000000e+000
0.000000e+000
0.000000e+000
0.000000e+000
0.000000e+000
0.000000e+000
0.000000e+000
0.000000e+000
0.000000e+000
0.000000e+000
0.000000e+000
0.000000e+000
0.000000e+000
0.000000e+000
0.000000e+000
0.000000e+000
0.000000e+000
0.000000e+000
0.000000e+000
0.000000e+000
0.000000e+000
0.000000e+000
0.000000e+000
0.000000e+000
0.000000e+000
0.000000e+000
0.000000e+000
0.000000e+000
3.050692e-013
3.120688e-013
3.259971e-013
3.462728e-013
3.706368e-013
3.948862e-013
4.129549e-013
4.179550e-013
4.029469e-013
3.638661e-013
3.003870e-013
2.155200e-013
1.170247e-013
1.432955e-014
-8.200290e-014
-1.633040e-013
-2.229086e-013
-2.578297e-013
-2.682400e-013
-2.575459e-013
-2.299200e-013
-1.915693e-013
-1.480031e-013
-1.038324e-013
-6.338064e-014
-2.919813e-014
-3.235829e-015
1.312825e-014
1.983014e-014
1.642683e-014
3.309499e-015
-1.911050e-014
-4.983527e-014
-8.772055e-014
-1.314527e-013
-1.792394e-013
-2.297272e-013
-2.808499e-013
-3.312126e-013
-3.794466e-013
-4.243115e-013
-4.652172e-013
-5.013625e-013
-5.324620e-013
-5.582524e-013
-5.790829e-013
-5.947657e-013
-6.056693e-013
-6.114863e-013
-6.127084e-013
-6.088902e-013
-6.004610e-013
-5.870067e-013
-5.684950e-013
-5.453740e-013
-5.175614e-013
-4.854809e-013
-4.499126e-013
-4.113573e-013
-3.709352e-013
-3.295536e-013
-2.884215e-013
-2.483275e-013
-2.105646e-013
-1.756769e-013
-1.447082e-013
-1.177026e-013
-9.507361e-014
-7.675037e-014
-6.200674e-014
-5.087090e-014
-4.243472e-014
-3.610125e-014
-3.133705e-014
-2.744064e-014
-2.395732e-014
-2.056463e-014
-1.690675e-014
-1.300167e-014
-8.509822e-015
-3.574317e-015
1.450743e-015
6.667924e-015
1.169645e-014
1.621888e-014
1.998258e-014
2.293811e-014
2.467457e-014
2.555754e-014
2.567334e-014
2.522036e-014
2.461971e-014
2.399326e-014
2.366171e-014
2.358061e-014
2.372763e-014
2.411339e-014
2.441415e-014
2.489965e-014
2.503301e-014
3.209643e-013
3.300737e-013
3.469383e-013
3.679443e-013
3.887494e-013
4.035362e-013
4.054175e-013
3.894778e-013
3.524295e-013
2.941901e-013
2.189217e-013
1.332498e-013
4.586378e-014
-3.441336e-014
-9.996184e-014
-1.460068e-013
-1.708405e-013
-1.758573e-013
-1.644233e-013
-1.410685e-013
-1.117922e-013
-8.082762e-014
-5.248658e-014
-2.946550e-014
-1.362747e-014
-5.869356e-015
-6.716335e-015
-1.592164e-014
-3.289960e-014
-5.722021e-014
-8.750371e-014
-1.227518e-013
-1.616950e-013
-2.022663e-013
-2.430856e-013
-2.825564e-013
-3.187174e-013
-3.506608e-013
-3.772340e-013
-3.979218e-013
-4.128732e-013
-4.217442e-013
-4.261393e-013
-4.265827e-013
-4.243527e-013
-4.205706e-013
-4.166599e-013
-4.133568e-013
-4.113918e-013
-4.111901e-013
-4.124452e-013
-4.150507e-013
-4.181914e-013
-4.210459e-013
-4.223025e-013
-4.210589e-013
-4.166738e-013
-4.079648e-013
-3.947805e-013
-3.767407e-013
-3.542756e-013
-3.278830e-013
-2.981859e-013
-2.668119e-013
-2.342943e-013
-2.020529e-013
-1.712976e-013
-1.428594e-013
-1.171076e-013
-9.519330e-014
-7.627181e-014
-6.081217e-014
-4.839458e-014
-3.863264e-014
-3.084981e-014
-2.469804e-014
-1.988722e-014
-1.548493e-014
-1.169759e-014
-7.916980e-015
-4.073267e-015
1.222385e-017
4.154744e-015
8.426283e-015
1.256945e-014
1.655541e-014
1.953849e-014
2.227328e-014
2.388028e-014
2.479080e-014
2.528519e-014
2.500872e-014
2.479448e-014
2.432437e-014
2.419058e-014
2.430464e-014
2.444060e-014
2.469929e-014
2.518393e-014
2.520995e-014
3.597481e-013
3.704713e-013
3.876555e-013
4.045324e-013
4.127806e-013
4.042852e-013
3.738809e-013
3.203465e-013
2.473697e-013
1.624756e-013
7.641161e-014
-6.909131e-017
-5.771590e-014
-9.124963e-014
-9.983130e-014
-8.586049e-014
-5.670695e-014
-1.892402e-014
1.873683e-014
5.048595e-014
7.128442e-014
7.928388e-014
7.340772e-014
5.491687e-014
2.552610e-014
-1.309231e-014
-5.861709e-014
-1.086604e-013
-1.611681e-013
-2.139466e-013
-2.647220e-013
-3.104647e-013
-3.486908e-013
-3.769425e-013
-3.927528e-013
-3.939233e-013
-3.791621e-013
-3.482565e-013
-3.014858e-013
-2.404252e-013
-1.678229e-013
-8.693429e-014
-1.720765e-015
8.339821e-014
1.636159e-013
2.347053e-013
2.927368e-013
3.344465e-013
3.574748e-013
3.606671e-013
3.441781e-013
3.091584e-013
2.579290e-013
1.938422e-013
1.208043e-013
4.300778e-014
-3.477570e-014
-1.083321e-013
-1.740469e-013
-2.289630e-013
-2.706716e-013
-2.984224e-013
-3.124438e-013
-3.129002e-013
-3.022755e-013
-2.823847e-013
-2.554295e-013
-2.245020e-013
-1.916981e-013
-1.593429e-013
-1.287726e-013
-1.012865e-013
-7.773244e-014
-5.815457e-014
-4.262359e-014
-3.050438e-014
-2.158985e-014
-1.503433e-014
-1.037790e-014
-7.096239e-015
-4.375976e-015
-2.097200e-015
4.201007e-016
3.109356e-015
6.465612e-015
9.939179e-015
1.366818e-014
1.718924e-014
2.025948e-014
2.283685e-014
2.449481e-014
2.550724e-014
2.574056e-014
2.572560e-014
2.571259e-014
2.532943e-014
2.531924e-014
2.537150e-014
2.544262e-014
2.559137e-014
4.285869e-013
4.351613e-013
4.423227e-013
4.403347e-013
4.183907e-013
3.697312e-013
2.935617e-013
1.958903e-013
8.959421e-014
-9.376316e-015
-8.539016e-014
-1.269353e-013
-1.289857e-013
-9.449551e-014
-3.227879e-014
4.397185e-014
1.205534e-013
1.840675e-013
2.254877e-013
2.396922e-013
2.261493e-013
1.869816e-013
1.272188e-013
5.186072e-014
-3.318258e-014
-1.231018e-013
-2.127583e-013
-2.980679e-013
-3.741691e-013
-4.368668e-013
-4.805224e-013
-5.002822e-013
-4.909119e-013
-4.471641e-013
-3.653964e-013
-2.426114e-013
-7.872514e-014
1.253603e-013
3.656319e-013
6.360711e-013
9.283625e-013
1.232168e-012
1.536621e-012
1.829011e-012
2.097150e-012
2.329617e-012
2.515893e-012
2.647275e-012
2.718223e-012
2.725541e-012
2.668729e-012
2.551297e-012
2.378906e-012
2.159836e-012
1.905109e-012
1.626455e-012
1.336409e-012
1.047509e-012
7.707564e-013
5.166137e-013
2.922461e-013
1.031834e-013
-4.800839e-014
-1.607622e-013
-2.373775e-013
-2.815210e-013
-2.982134e-013
-2.932315e-013
-2.723957e-013
-2.411946e-013
-2.048849e-013
-1.669408e-013
-1.309932e-013
-9.861114e-014
-7.107046e-014
-4.918670e-014
-3.235251e-014
-2.027255e-014
-1.227894e-014
-7.502598e-015
-4.939544e-015
-3.662788e-015
-2.907099e-015
-1.986828e-015
-2.972074e-016
2.306396e-015
5.846966e-015
1.006820e-014
1.447331e-014
1.879776e-014
2.228217e-014
2.498725e-014
2.659361e-014
2.730853e-014
2.734084e-014
2.714308e-014
2.659925e-014
2.637438e-014
2.606929e-014
2.606148e-014
5.228908e-013
5.149770e-013
4.934149e-013
4.492184e-013
3.754940e-013
2.717564e-013
1.459148e-013
1.493432e-014
-1.002353e-013
-1.788378e-013
-2.064047e-013
-1.790214e-013
-1.027207e-013
6.765719e-015
1.284258e-013
2.406314e-013
3.249916e-013
3.695068e-013
3.693633e-013
3.261493e-013
2.464011e-013
1.393333e-013
1.521252e-014
-1.168151e-013
-2.476421e-013
-3.696242e-013
-4.751585e-013
-5.567802e-013
-6.056480e-013
-6.120925e-013
-5.652856e-013
-4.541807e-013
-2.676348e-013
3.732338e-015
3.669010e-013
8.253520e-013
1.378253e-012
2.019448e-012
2.737812e-012
3.516543e-012
4.334624e-012
5.166691e-012
5.984832e-012
6.759859e-012
7.462370e-012
8.064840e-012
8.542597e-012
8.876184e-012
9.051291e-012
9.060464e-012
8.903106e-012
8.586356e-012
8.123830e-012
7.535486e-012
6.846058e-012
6.084168e-012
5.280221e-012
4.464512e-012
3.665945e-012
2.910127e-012
2.218277e-012
1.606190e-012
1.083224e-012
6.539412e-013
3.169119e-013
6.631748e-014
-1.074047e-013
-2.157646e-013
-2.713167e-013
-2.870899e-013
-2.748460e-013
-2.450671e-013
-2.060571e-013
-1.644736e-013
-1.247510e-013
-8.980157e-014
-6.086009e-014
-3.877771e-014
-2.317778e-014
-1.283232e-014
-7.252581e-015
-4.937376e-015
-4.555086e-015
-5.081141e-015
-5.308173e-015
-4.405683e-015
-2.155096e-015
1.774703e-015
6.852672e-015
1.251871e-014
1.795967e-014
2.270002e-014
2.612241e-014
2.826393e-014
2.932255e-014
2.901788e-014
2.870195e-014
2.790267e-014
2.739960e-014
2.708237e-014
6.156259e-013
5.804134e-013
5.080743e-013
3.982536e-013
2.559442e-013
9.434800e-014
-6.515895e-014
-1.960263e-013
-2.742677e-013
-2.834975e-013
-2.216460e-013
-1.005705e-013
5.609193e-014
2.179334e-013
3.555722e-013
4.460352e-013
4.756092e-013
4.419920e-013
3.515401e-013
2.171532e-013
5.427546e-014
-1.214449e-013
-2.957354e-013
-4.560043e-013
-5.910753e-013
-6.897941e-013
-7.388358e-013
-7.228954e-013
-6.228205e-013
-4.168141e-013
-8.103406e-014
4.088701e-013
1.075589e-012
1.937946e-012
3.008287e-012
4.290470e-012
5.778121e-012
7.453769e-012
9.287808e-012
1.123978e-011
1.325895e-011
1.528736e-011
1.726065e-011
1.911246e-011
2.077750e-011
2.219444e-011
2.330961e-011
2.407912e-011
2.447243e-011
2.447306e-011
2.408057e-011
2.330946e-011
2.219016e-011
2.076646e-011
1.909295e-011
1.723332e-011
1.525562e-011
1.322917e-011
1.122051e-011
9.290109e-012
7.489708e-012
5.859099e-012
4.426291e-012
3.205655e-012
2.199958e-012
1.400884e-012
7.919720e-013
3.502629e-013
4.963421e-014
-1.377953e-013
-2.383388e-013
-2.764387e-013
-2.725508e-013
-2.435666e-013
-2.022225e-013
-1.574046e-013
-1.153055e-013
-7.904802e-014
-5.030256e-014
-2.958736e-014
-1.600881e-014
-8.420701e-015
-5.549516e-015
-5.587897e-015
-6.951824e-015
-8.072889e-015
-7.814415e-015
-5.883234e-015
-1.665254e-015
4.270536e-015
1.094835e-014
1.763268e-014
2.351187e-014
2.759585e-014
3.031589e-014
3.118260e-014
3.087100e-014
3.013678e-014
2.925186e-014
2.867506e-014
6.518064e-013
5.789538e-013
4.411546e-013
2.552649e-013
4.720819e-014
-1.503720e-013
-3.022796e-013
-3.791337e-013
-3.639057e-013
-2.593877e-013
-8.509526e-014
1.229148e-013
3.234133e-013
4.779580e-013
5.585737e-013
5.526270e-013
4.628117e-013
3.040646e-013
9.820495e-014
-1.299648e-013
-3.579378e-013
-5.660172e-013
-7.375981e-013
-8.574249e-013
-9.078961e-013
-8.674174e-013
-7.072595e-013
-3.911031e-013
1.248360e-013
8.905178e-013
1.958203e-012
3.379669e-012
5.200938e-012
7.456636e-012
1.016712e-011
1.333185e-011
1.692874e-011
2.091049e-011
2.520587e-011
2.972068e-011
3.434090e-011
3.893740e-011
4.337142e-011
4.750123e-011
5.118853e-011
5.430552e-011
5.674043e-011
5.840398e-011
5.923351e-011
5.919606e-011
5.829077e-011
5.654901e-011
5.403303e-011
5.083342e-011
4.706450e-011
4.285897e-011
3.836085e-011
3.371816e-011
2.907552e-011
2.456672e-011
2.030832e-011
1.639499e-011
1.289520e-011
9.850948e-012
7.278134e-012
5.168576e-012
3.494218e-012
2.212041e-012
1.269800e-012
6.101828e-013
1.757354e-013
-8.630783e-014
-2.236056e-013
-2.756726e-013
-2.737098e-013
-2.413236e-013
-1.954447e-013
-1.468787e-013
-1.026197e-013
-6.624684e-014
-3.879181e-014
-2.053167e-014
-9.917984e-015
-5.524146e-015
-5.486633e-015
-7.451424e-015
-9.715889e-015
-1.026124e-014
-8.570754e-015
-4.345402e-015
2.299457e-015
9.965633e-015
1.779487e-014
2.465289e-014
2.933707e-014
3.220501e-014
3.311617e-014
3.267858e-014
3.182141e-014
3.118694e-014
5.541529e-013
4.440936e-013
2.467831e-013
2.668953e-015
-2.356159e-013
-4.155950e-013
-4.958591e-013
-4.560754e-013
-3.025305e-013
-6.719573e-014
1.993632e-013
4.407231e-013
6.069399e-013
6.658292e-013
6.066576e-013
4.407630e-013
1.953117e-013
-9.479280e-014
-3.934035e-013
-6.690548e-013
-8.962984e-013
-1.053395e-012
-1.119452e-012
-1.067393e-012
-8.602178e-013
-4.457248e-013
2.444003e-013
1.295902e-012
2.807526e-012
4.887568e-012
7.645912e-012
1.118502e-011
1.559132e-011
2.092405e-011
2.720689e-011
3.442099e-011
4.249909e-011
5.132451e-011
6.073281e-011
7.051536e-011
8.042850e-011
9.020278e-011
9.955471e-011
1.081995e-010
1.158642e-010
1.222993e-010
1.272900e-010
1.306664e-010
1.323103e-010
1.321615e-010
1.302201e-010
1.265474e-010
1.212641e-010
1.145450e-010
1.066117e-010
9.772332e-011
8.816447e-011
7.823138e-011
6.821899e-011
5.840506e-011
4.903857e-011
4.032782e-011
3.243271e-011
2.546020e-011
1.946332e-011
1.444509e-011
1.036459e-011
7.146395e-012
4.690996e-012
2.884927e-012
1.610977e-012
7.565158e-013
2.194654e-013
-8.813732e-014
-2.383826e-013
-2.873664e-013
-2.765307e-013
-2.351230e-013
-1.823100e-013
-1.299758e-013
-8.473184e-014
-4.952497e-014
-2.515536e-014
-1.082221e-014
-4.259099e-015
-3.759499e-015
-6.329925e-015
-9.754269e-015
-1.161693e-014
-1.058217e-014
-6.509903e-015
7.685633e-016
9.397512e-015
1.832418e-014
2.592075e-014
3.123746e-014
3.420492e-014
3.530517e-014
3.530973e-014
3.493741e-014
2.438489e-013
1.156211e-013
-1.031928e-013
-3.468351e-013
-5.411322e-013
-6.233112e-013
-5.600547e-013
-3.568501e-013
-5.601761e-014
2.745734e-013
5.597355e-013
7.353867e-013
7.635005e-013
6.372922e-013
3.798267e-013
3.472859e-014
-3.462789e-013
-7.130931e-013
-1.024217e-012
-1.247210e-012
-1.355871e-012
-1.319911e-012
-1.097884e-012
-6.265064e-013
1.866091e-013
1.466042e-012
3.370610e-012
6.087950e-012
9.827930e-012
1.480917e-011
2.124429e-011
2.932199e-011
3.918689e-011
5.092192e-011
6.453223e-011
7.993325e-011
9.694590e-011
1.152964e-010
1.346236e-010
1.544928e-010
1.744124e-010
1.938564e-010
2.122859e-010
2.291735e-010
2.440228e-010
2.563906e-010
2.659022e-010
2.722659e-010
2.752828e-010
2.748546e-010
2.709872e-010
2.637905e-010
2.534766e-010
2.403522e-010
2.248088e-010
2.073092e-010
1.883690e-010
1.685358e-010
1.483660e-010
1.283996e-010
1.091349e-010
9.100512e-011
7.436118e-011
5.945650e-011
4.644311e-011
3.537210e-011
2.620310e-011
1.881931e-011
1.304665e-011
8.673709e-012
5.473822e-012
3.220430e-012
1.703023e-012
7.353463e-013
1.612695e-013
-1.436170e-013
-2.751804e-013
-3.023794e-013
-2.731447e-013
-2.191063e-013
-1.593165e-013
-1.048362e-013
-6.093468e-014
-2.954703e-014
-1.039850e-014
-1.560520e-015
-5.101448e-016
-3.821298e-015
-8.556876e-015
-1.211588e-014
-1.191617e-014
-8.120377e-015
-5.420203e-016
9.029316e-015
1.891117e-014
2.735624e-014
3.356676e-014
3.707763e-014
3.887653e-014
3.946439e-014
-3.262314e-013
-4.324368e-013
-5.971115e-013
-7.421465e-013
-7.882702e-013
-6.837034e-013
-4.234045e-013
-5.329258e-014
3.445348e-013
6.753015e-013
8.585028e-013
8.489399e-013
6.444590e-013
2.831926e-013
-1.706436e-013
-6.445913e-013
-1.071493e-012
-1.399134e-012
-1.588813e-012
-1.607412e-012
-1.413893e-012
-9.434919e-013
-9.126741e-014
1.299776e-012
3.446577e-012
6.628848e-012
1.118406e-011
1.749503e-011
2.597125e-011
3.702188e-011
5.102291e-011
6.828133e-011
8.899962e-011
1.132426e-010
1.409144e-010
1.717441e-010
2.052846e-010
2.409263e-010
2.779208e-010
3.154142e-010
3.524874e-010
3.881964e-010
4.216142e-010
4.518657e-010
4.781598e-010
4.998130e-010
5.162669e-010
5.271017e-010
5.320422e-010
5.309627e-010
5.238872e-010
5.109890e-010
4.925880e-010
4.691457e-010
4.412585e-010
4.096432e-010
3.751221e-010
3.385960e-010
3.010141e-010
2.633344e-010
2.264815e-010
1.913018e-010
1.585217e-010
1.287135e-010
1.022714e-010
7.940274e-011
6.013446e-011
4.433130e-011
3.172911e-011
2.197065e-011
1.464546e-011
9.327781e-012
5.606328e-012
3.107925e-012
1.510463e-012
5.506818e-013
2.216486e-014
-2.295173e-013
-3.142507e-013
-3.067378e-013
-2.554080e-013
-1.891960e-013
-1.253556e-013
-7.232791e-014
-3.333783e-014
-8.843973e-015
2.631873e-015
4.292654e-015
-2.705361e-016
-6.716552e-015
-1.201180e-014
-1.319423e-014
-9.687699e-015
-1.838076e-015
8.950387e-015
1.993032e-014
2.988872e-014
3.725760e-014
4.194743e-014
4.415920e-014
-1.137601e-012
-1.163021e-012
-1.170799e-012
-1.095952e-012
-8.853384e-013
-5.273441e-013
-6.541764e-014
4.109149e-013
7.913926e-013
9.811523e-013
9.276172e-013
6.347545e-013
1.584757e-013
-4.122171e-013
-9.797733e-013
-1.457150e-012
-1.780181e-012
-1.903832e-012
-1.789249e-012
-1.379834e-012
-5.768783e-013
7.859664e-013
2.964149e-012
6.316615e-012
1.131144e-011
1.852252e-011
2.861232e-011
4.230195e-011
6.032645e-011
8.337769e-011
1.120389e-010
1.467154e-010
1.875724e-010
2.344858e-010
2.870141e-010
3.443968e-010
4.055826e-010
4.692779e-010
5.340207e-010
5.982590e-010
6.604357e-010
7.190622e-010
7.727814e-010
8.204118e-010
8.609722e-010
8.936910e-010
9.180002e-010
9.335206e-010
9.400422e-010
9.375057e-010
9.259892e-010
9.057015e-010
8.769855e-010
8.403286e-010
7.963785e-010
7.459595e-010
6.900825e-010
6.299425e-010
5.668988e-010
5.024336e-010
4.380902e-010
3.753934e-010
3.157634e-010
2.604278e-010
2.103505e-010
1.661812e-010
1.282351e-010
9.650574e-011
7.070268e-011
5.031384e-011
3.467737e-011
2.305500e-011
1.469834e-011
8.901048e-012
5.036084e-012
2.574862e-012
1.092346e-012
2.643418e-013
-1.480195e-013
-3.102823e-013
-3.338791e-013
-2.893603e-013
-2.185239e-013
-1.456237e-013
-8.295635e-014
-3.593927e-014
-5.994039e-015
8.245221e-015
1.032667e-014
4.356839e-015
-4.469217e-015
-1.188256e-014
-1.467590e-014
-1.136669e-014
-2.551047e-015
9.667044e-015
2.295481e-014
3.465140e-014
4.338421e-014
4.784636e-014
-2.080186e-012
-1.961359e-012
-1.706954e-012
-1.302553e-012
-7.608932e-013
-1.398225e-013
4.584272e-013
9.119676e-013
1.116129e-012
1.015762e-012
6.245571e-013
2.059016e-014
-6.774209e-013
-1.341506e-012
-1.861974e-012
-2.161880e-012
-2.190363e-012
-1.901988e-012
-1.221461e-012
-4.309406e-015
2.002342e-012
5.194228e-012
1.013500e-011
1.757106e-011
2.842992e-011
4.379799e-011
6.487573e-011
9.290347e-011
1.290635e-010
1.743586e-010
2.294833e-010
2.947004e-010
3.697414e-010
4.537533e-010
5.452962e-010
6.424079e-010
7.427207e-010
8.436271e-010
9.424650e-010
1.036705e-009
1.124112e-009
1.202869e-009
1.271645e-009
1.329605e-009
1.376371e-009
1.411942e-009
1.436580e-009
1.450693e-009
1.454714e-009
1.449003e-009
1.433787e-009
1.409133e-009
1.374971e-009
1.331166e-009
1.277615e-009
1.214379e-009
1.141809e-009
1.060659e-009
9.721545e-010
8.780049e-010
7.803484e-010
6.816317e-010
5.844353e-010
4.912724e-010
4.043858e-010
3.255774e-010
2.560880e-010
1.965495e-010
1.470017e-010
1.069729e-010
7.559777e-011
5.175721e-011
3.421380e-011
2.173077e-011
1.315996e-011
7.500062e-012
3.923151e-012
1.778274e-012
5.761557e-013
-3.394954e-014
-2.919656e-013
-3.547199e-013
-3.201262e-013
-2.459547e-013
-1.642080e-013
-9.172212e-014
-3.670125e-014
-1.313972e-015
1.540334e-014
1.720355e-014
9.102392e-015
-2.596367e-015
-1.240558e-014
-1.628225e-014
-1.264800e-014
-1.974685e-015
1.277285e-014
2.855905e-014
4.137475e-014
4.825965e-014
-2.951394e-012
-2.641176e-012
-2.055317e-012
-1.268152e-012
-3.957799e-013
4.139383e-013
1.008701e-012
1.266502e-012
1.133431e-012
6.394673e-013
-1.064549e-013
-9.473461e-013
-1.718027e-012
-2.281713e-012
-2.546211e-012
-2.456719e-012
-1.962058e-012
-9.649472e-013
7.364388e-013
3.508872e-012
7.935593e-012
1.486213e-011
2.542135e-011
4.104183e-011
6.341898e-011
9.444823e-011
1.361049e-010
1.902720e-010
2.585188e-010
3.418547e-010
4.404819e-010
5.535910e-010
6.792430e-010
8.143665e-010
9.548976e-010
1.096055e-009
1.232732e-009
1.359947e-009
1.473310e-009
1.569425e-009
1.646192e-009
1.702960e-009
1.740517e-009
1.760932e-009
1.767260e-009
1.763152e-009
1.752420e-009
1.738595e-009
1.724518e-009
1.712022e-009
1.701718e-009
1.692928e-009
1.683761e-009
1.671347e-009
1.652190e-009
1.622633e-009
1.579354e-009
1.519851e-009
1.442842e-009
1.348516e-009
1.238608e-009
1.116262e-009
9.857159e-010
8.518478e-010
7.196613e-010
5.937797e-010
4.780324e-010
3.751778e-010
2.867912e-010
2.133055e-010
1.541798e-010
1.081407e-010
7.345451e-011
4.818341e-011
3.039663e-011
1.832259e-011
1.043837e-011
5.507372e-012
2.574468e-012
9.372024e-013
1.014667e-013
-2.636670e-013
-3.702248e-013
-3.473063e-013
-2.703297e-013
-1.799447e-013
-9.821563e-014
-3.533428e-014
5.187771e-015
2.361335e-014
2.425672e-014
1.336569e-014
-1.538185e-015
-1.362379e-014
-1.759023e-014
-1.195975e-014
1.463320e-015
1.878388e-014
3.436148e-014
4.374243e-014
-3.488194e-012
-2.979321e-012
-2.067674e-012
-9.440750e-013
1.528247e-013
9.888623e-013
1.388693e-012
1.278155e-012
7.019377e-013
-1.925158e-013
-1.195942e-012
-2.093749e-012
-2.712034e-012
-2.940674e-012
-2.721120e-012
-1.998966e-012
-6.547531e-013
1.580678e-012
5.212456e-012
1.106294e-011
2.034035e-011
3.468999e-011
5.621262e-011
8.743426e-011
1.312045e-010
1.905018e-010
2.681319e-010
3.663237e-010
4.862505e-010
6.275281e-010
7.877747e-010
9.623239e-010
1.144180e-009
1.324286e-009
1.492117e-009
1.636578e-009
1.747099e-009
1.814799e-009
1.833564e-009
1.800889e-009
1.718359e-009
1.591719e-009
1.430510e-009
1.247328e-009
1.056767e-009
8.741824e-010
7.143615e-010
5.902416e-010
5.117671e-010
4.849903e-010
5.114915e-010
5.881796e-010
7.075091e-010
8.581142e-010
1.025827e-009
1.194994e-009
1.349980e-009
1.476687e-009
1.563917e-009
1.604413e-009
1.595424e-009
1.538732e-009
1.440147e-009
1.308543e-009
1.154623e-009
9.895800e-010
8.238816e-010
6.663192e-010
5.234252e-010
3.992763e-010
2.956332e-010
2.123253e-010
1.477676e-010
9.950060e-011
6.467622e-011
4.043963e-011
2.418627e-011
1.370551e-011
7.230863e-012
3.422660e-012
1.314799e-012
2.420747e-013
-2.327944e-013
-3.826515e-013
-3.712052e-013
-2.909055e-013
-1.920514e-013
-1.011250e-013
-3.095064e-014
1.344701e-014
3.245307e-014
3.091654e-014
1.663087e-014
-1.170641e-015
-1.391110e-014
-1.683216e-014
-8.797352e-015
6.145122e-015
2.176262e-014
3.146688e-014
-3.424106e-012
-2.769929e-012
-1.643063e-012
-3.529708e-013
7.519422e-013
1.383614e-012
1.391881e-012
7.986078e-013
-2.205108e-013
-1.396614e-012
-2.447804e-012
-3.146562e-012
-3.354735e-012
-3.007327e-012
-2.050866e-012
-3.477411e-013
2.442410e-012
6.983005e-012
1.437959e-011
2.628555e-011
4.498717e-011
7.344479e-011
1.152603e-010
1.745274e-010
2.555155e-010
3.621493e-010
4.972719e-010
6.617204e-010
8.533028e-010
1.065825e-009
1.288366e-009
1.505008e-009
1.695229e-009
1.835040e-009
1.898886e-009
1.862139e-009
1.703934e-009
1.409950e-009
9.747908e-010
4.035956e-010
-2.873362e-010
-1.071009e-009
-1.911238e-009
-2.765035e-009
-3.585642e-009
-4.325926e-009
-4.941856e-009
-5.395790e-009
-5.659357e-009
-5.715695e-009
-5.560902e-009
-5.204551e-009
-4.669180e-009
-3.988743e-009
-3.206066e-009
-2.369486e-009
-1.528923e-009
-7.317610e-010
-1.896802e-011
5.780951e-010
1.039790e-009
1.358979e-009
1.540393e-009
1.598744e-009
1.555904e-009
1.437634e-009
1.270349e-009
1.078374e-009
8.819873e-010
6.963688e-010
5.314138e-010
3.922276e-010
2.800502e-010
1.933690e-010
1.289990e-010
8.299947e-011
5.135241e-011
3.040113e-011
1.707435e-011
8.955290e-012
4.243882e-012
1.667393e-012
3.673777e-013
-2.075637e-013
-3.950123e-013
-3.915758e-013
-3.071240e-013
-1.996883e-013
-1.002737e-013
-2.351431e-014
2.357519e-014
4.195524e-014
3.741395e-014
1.972063e-014
-4.039182e-018
-1.297045e-014
-1.498012e-014
-7.598875e-015
3.190671e-015
1.101688e-014
-2.566723e-012
-1.887138e-012
-7.669060e-013
4.023297e-013
1.215444e-012
1.391795e-012
8.632911e-013
-2.183845e-013
-1.546227e-012
-2.765406e-012
-3.576802e-012
-3.794848e-012
-3.339363e-012
-2.159615e-012
-1.062509e-013
3.225420e-012
8.665379e-012
1.763362e-011
3.229817e-011
5.570661e-011
9.186375e-011
1.457002e-010
2.228546e-010
3.291720e-010
4.698254e-010
6.480006e-010
8.631525e-010
1.108952e-009
1.371166e-009
1.625853e-009
1.838335e-009
1.963420e-009
1.947237e-009
1.730858e-009
1.255529e-009
4.690697e-010
-6.673369e-010
-2.172842e-009
-4.042025e-009
-6.242084e-009
-8.712560e-009
-1.136766e-008
-1.410093e-008
-1.679181e-008
-1.931339e-008
-2.154078e-008
-2.335939e-008
-2.467261e-008
-2.540846e-008
-2.552466e-008
-2.501199e-008
-2.389556e-008
-2.223371e-008
-2.011458e-008
-1.765038e-008
-1.496954e-008
-1.220738e-008
-9.496021e-009
-6.954475e-009
-4.680068e-009
-2.742134e-009
-1.178773e-009
2.995959e-012
8.238222e-010
1.326025e-009
1.566026e-009
1.606406e-009
1.508725e-009
1.327939e-009
1.108865e-009
8.847241e-010
6.774381e-010
4.991695e-010
3.545127e-010
2.428380e-010
1.604083e-010
1.020623e-010
6.239847e-011
3.649473e-011
2.025849e-011
1.051673e-011
4.950515e-012
1.951185e-012
4.576277e-013
-1.964892e-013
-4.098786e-013
-4.094207e-013
-3.185925e-013
-2.021923e-013
-9.465402e-014
-1.284511e-014
3.581583e-014
5.249281e-014
4.453694e-014
2.350927e-014
1.075609e-015
-1.439010e-014
-2.053362e-014
-1.970161e-014
-1.745969e-014
-8.670065e-013
-3.377549e-013
4.678535e-013
1.152873e-012
1.346976e-012
8.593589e-013
-2.473040e-013
-1.687512e-012
-3.064810e-012
-4.008367e-012
-4.269977e-012
-3.739398e-012
-2.363526e-012
8.852158e-015
3.833742e-012
1.009688e-011
2.054333e-011
3.789906e-011
6.606753e-011
1.102594e-010
1.769710e-010
2.736773e-010
4.080621e-010
5.865883e-010
8.122362e-010
1.081339e-009
1.379611e-009
1.677729e-009
1.927098e-009
2.056723e-009
1.972223e-009
1.557997e-009
6.832166e-010
-7.882299e-010
-2.984464e-009
-6.010339e-009
-9.932061e-009
-1.476383e-008
-2.045843e-008
-2.690320e-008
-3.392201e-008
-4.128298e-008
-4.871123e-008
-5.590507e-008
-6.255436e-008
-6.835936e-008
-7.304890e-008
-7.639688e-008
-7.823616e-008
-7.846934e-008
-7.707579e-008
-7.411439e-008
-6.972173e-008
-6.410514e-008
-5.753088e-008
-5.030749e-008
-4.276538e-008
-3.523405e-008
-2.801896e-008
-2.138031e-008
-1.551640e-008
-1.055334e-008
-6.542469e-009
-3.465568e-009
-1.246742e-009
2.311360e-010
1.108100e-009
1.529600e-009
1.632051e-009
1.532775e-009
1.324695e-009
1.075310e-009
8.288896e-010
6.106280e-010
4.315400e-010
2.931861e-010
1.916408e-010
1.204648e-010
7.268286e-011
4.192516e-011
2.294781e-011
1.174916e-011
5.459035e-012
2.127596e-012
4.968208e-013
-2.055586e-013
-4.292930e-013
-4.246834e-013
-3.248167e-013
-1.987504e-013
-8.346831e-014
2.619947e-015
5.166296e-014
6.529507e-014
5.205111e-014
2.458437e-014
-5.361299e-015
-2.931198e-014
-4.461354e-014
-5.148066e-014
1.536457e-012
1.712612e-012
1.863876e-012
1.697196e-012
9.932798e-013
-2.650240e-013
-1.856775e-012
-3.398814e-012
-4.484280e-012
-4.812638e-012
-4.237100e-012
-2.699362e-012
-5.381711e-014
4.184363e-012
1.113048e-011
2.283548e-011
4.258863e-011
7.519958e-011
1.272003e-010
2.068478e-010
3.237134e-010
4.875565e-010
7.061049e-010
9.813513e-010
1.304087e-009
1.646620e-009
1.954078e-009
2.135229e-009
2.054409e-009
1.526643e-009
3.182562e-010
-1.845009e-009
-5.261236e-009
-1.022721e-008
-1.700684e-008
-2.579673e-008
-3.669336e-008
-4.966669e-008
-6.454417e-008
-8.100767e-008
-9.860369e-008
-1.167657e-007
-1.348458e-007
-1.521519e-007
-1.679882e-007
-1.816936e-007
-1.926788e-007
-2.004578e-007
-2.046743e-007
-2.051218e-007
-2.017570e-007
-1.947056e-007
-1.842594e-007
-1.708647e-007
-1.551003e-007
-1.376459e-007
-1.192417e-007
-1.006410e-007
-8.256058e-008
-6.563205e-008
-5.036090e-008
-3.709798e-008
-2.602685e-008
-1.716884e-008
-1.040411e-008
-5.505066e-009
-2.176187e-009
-9.418252e-011
1.057078e-009
1.560504e-009
1.650141e-009
1.505432e-009
1.253365e-009
9.758442e-010
7.195433e-010
5.060520e-010
3.408364e-010
2.202800e-010
1.366555e-010
8.126505e-011
4.615629e-011
2.485706e-011
1.251192e-011
5.706199e-012
2.170785e-012
4.753043e-013
-2.371609e-013
-4.536631e-013
-4.370561e-013
-3.246651e-013
-1.877586e-013
-6.457955e-014
2.466286e-014
7.159841e-014
7.773131e-014
5.306766e-014
1.151496e-014
-3.237962e-014
-6.748934e-014
-8.647111e-014
4.315172e-012
3.951213e-012
3.150455e-012
1.846557e-012
8.752859e-014
-1.903339e-012
-3.754832e-012
-5.056594e-012
-5.489852e-012
-4.893744e-012
-3.218678e-012
-3.431020e-013
4.215138e-012
1.165621e-011
2.428673e-011
4.591984e-011
8.226082e-011
1.412092e-010
2.329085e-010
3.692371e-010
5.622503e-010
8.209219e-010
1.145417e-009
1.518175e-009
1.891359e-009
2.170837e-009
2.197849e-009
1.730750e-009
4.305175e-010
-2.145312e-009
-6.535454e-009
-1.335056e-008
-2.323024e-008
-3.678311e-008
-5.451561e-008
-7.675830e-008
-1.036004e-007