# vtk DataFile Version 3.0
vtk output
ASCII
DATASET STRUCTURED_POINTS
DIMENSIONS 100 100 1
SPACING 1 1 1
ORIGIN 0 0 0
POINT_DATA 10000
SCALARS SFBox_profile double
LOOKUP_TABLE default 
0.000000e+000
0.000000e+000
0.000000e+000
0.000000e+000
0.000000e+000
0.000000e+000
0.000000e+000
0.000000e+000
0.000000e+000
0.000000e+000
0.000000e+000
0.000000e+000
0.000000e+000
0.000000e+000
0.000000e+000
0.000000e+000
0.000000e+000
0.000000e+000
0.000000e+000
0.000000e+000
0.000000e+000
0.000000e+000
0.000000e+000
0.000000e+000
0.000000e+000
0.000000e+000
0.000000e+000
0.000000e+000
0.000000e+000
0.000000e+000
0.000000e+000
0.000000e+000
0.000000e+000
0.000000e+000
0.000000e+000
0.000000e+000
0.000000e+000
0.000000e+000
0.000000e+000
0.000000e+000
0.000000e+000
0.000000e+000
0.000000e+000
0.000000e+000
0.000000e+000
0.000000e+000
0.000000e+000
0.000000e+000
0.000000e+000
0.000000e+000
0.000000e+000
0.000000e+000
0.000000e+000
0.000000e+000
0.000000e+000
0.000000e+000
0.000000e+000
0.000000e+000
0.000000e+000
0.000000e+000
0.000000e+000
0.000000e+000
0.000000e+000
0.000000e+000
0.000000e+000
0.000000e+000
0.000000e+000
0.000000e+000
0.000000e+000
0.000000e+000
0.000000e+000
0.000000e+000
0.000000e+000
0.000000e+000
0.000000e+000
0.000000e+000
0.000000e+000
0.000000e+000
0.000000e+000
0.000000e+000
0.000000e+000
0.000000e+000
0.000000e+000
0.000000e+000
0.000000e+000
0.000000e+000
0.000000e+000
0.000000e+000
0.000000e+000
0.000000e+000
0.000000e+000
0.000000e+000
0.000000e+000
0.000000e+000
0.000000e+000
0.000000e+000
0.000000e+000
0.000000e+000
0.000000e+000
0.000000e+000
-3.076115e-010
-1.966858e-010
-2.599242e-011
1.524530e-010
2.913309e-010
3.567434e-010
3.346364e-010
2.325887e-010
7.644249e-011
-9.723500e-011
-2.507555e-010
-3.543937e-010
-3.926244e-010
-3.660961e-010
-2.892181e-010
-1.845132e-010
-7.573878e-011
1.805288e-011
8.592088e-011
1.253716e-010
1.402182e-010
1.373476e-010
1.238950e-010
1.058365e-010
8.813334e-011
7.574496e-011
7.444014e-011
9.051397e-011
1.291663e-010
1.920730e-010
2.752169e-010
3.680819e-010
4.548283e-010
5.172942e-010
5.389495e-010
5.085703e-010
4.225645e-010
2.853910e-010
1.081979e-010
-9.373059e-011
-3.039169e-010
-5.073465e-010
-6.923846e-010
-8.517737e-010
-9.827108e-010
-1.086166e-009
-1.165727e-009
-1.226328e-009
-1.273177e-009
-1.311076e-009
-1.344054e-009
-1.375138e-009
-1.406045e-009
-1.436760e-009
-1.465164e-009
-1.487002e-009
-1.496356e-009
-1.486668e-009
-1.452073e-009
-1.388725e-009
-1.295771e-009
-1.175732e-009
-1.034132e-009
-8.784259e-010
-7.164160e-010
-5.545941e-010
-3.969470e-010
-2.446916e-010
-9.705978e-011
4.724211e-011
1.886932e-010
3.265509e-010
4.597141e-010
5.883242e-010
7.147974e-010
8.427893e-010
9.733524e-010
1.099114e-009
1.199046e-009
1.237324e-009
1.169177e-009
9.542008e-010
5.741779e-010
4.938205e-011
-5.538534e-010
-1.129775e-009
-1.555111e-009
-1.721601e-009
-1.569758e-009
-1.112612e-009
-4.403737e-010
2.974668e-010
9.288396e-010
1.304543e-009
1.339196e-009
1.035488e-009
4.843644e-010
-1.591523e-010
-7.177930e-010
-1.039860e-009
-2.664649e-010
-1.821088e-010
-5.119213e-011
8.802747e-011
2.002998e-010
2.595760e-010
2.539118e-010
1.872770e-010
7.764626e-011
-4.816907e-011
-1.615955e-010
-2.393878e-010
-2.688456e-010
-2.498302e-010
-1.932309e-010
-1.166200e-010
-3.866555e-011
2.585521e-011
6.897637e-011
8.980503e-011
9.256786e-011
8.362954e-011
6.887319e-011
5.242781e-011
3.694523e-011
2.484477e-011
1.951491e-011
2.556985e-011
4.780277e-011
8.920866e-011
1.489709e-010
2.214178e-010
2.965595e-010
3.621596e-010
4.066513e-010
4.218883e-010
4.048495e-010
3.578708e-010
2.875537e-010
2.028840e-010
1.132162e-010
2.662753e-011
-5.109787e-011
-1.168220e-010
-1.698370e-010
-2.112500e-010
-2.431864e-010
-2.680491e-010
-2.880324e-010
-3.049605e-010
-3.203508e-010
-3.354890e-010
-3.513251e-010
-3.681473e-010
-3.851794e-010
-4.003461e-010
-4.104064e-010
-4.115040e-010
-4.000118e-010
-3.734510e-010
-3.312284e-010
-2.749912e-010
-2.084532e-010
-1.366718e-010
-6.490779e-011
2.600435e-012
6.350090e-011
1.174552e-010
1.654459e-010
2.086282e-010
2.474143e-010
2.814775e-010
3.108791e-010
3.377613e-010
3.673713e-010
4.070850e-010
4.628192e-010
5.336214e-010
6.067015e-010
6.559062e-010
6.460041e-010
5.430854e-010
3.285527e-010
1.180242e-011
-3.639997e-010
-7.270128e-010
-9.930241e-010
-1.088983e-009
-9.764975e-010
-6.672363e-010
-2.243371e-010
2.516197e-010
6.484310e-010
8.723365e-010
8.734332e-010
6.590811e-010
2.916744e-010
-1.282615e-010
-4.887110e-010
-6.952881e-010
-1.811714e-010
-1.442545e-010
-8.458383e-011
-1.615885e-011
4.704926e-011
9.285776e-011
1.131058e-010
1.054918e-010
7.424654e-011
2.915631e-011
-1.702805e-011
-5.214969e-011
-6.807913e-011
-6.286894e-011
-4.087868e-011
-1.084572e-011
1.734272e-011
3.594686e-011
4.152970e-011
3.527745e-011
2.158437e-011
5.695071e-012
-8.483303e-012
-1.948095e-011
-2.794591e-011
-3.524737e-011
-4.182688e-011
-4.615218e-011
-4.477743e-011
-3.343894e-011
-8.608352e-012
3.125074e-011
8.529154e-011
1.508548e-010
2.246404e-010
3.038632e-010
3.868666e-010
4.730002e-010
5.619590e-010
6.530023e-010
7.444573e-010
8.336989e-010
9.175560e-010
9.929370e-010
1.057452e-009
1.109866e-009
1.150289e-009
1.180076e-009
1.201436e-009
1.216836e-009
1.228348e-009
1.237156e-009
1.243369e-009
1.246184e-009
1.244309e-009
1.236459e-009
1.221742e-009
1.199851e-009
1.171007e-009
1.135729e-009
1.094496e-009
1.047430e-009
9.941435e-010
9.338455e-010
8.657053e-010
7.893210e-010
7.050174e-010
6.137542e-010
5.166329e-010
4.143043e-010
3.067804e-010
1.940704e-010
7.763577e-011
-3.793023e-011
-1.440193e-010
-2.289037e-010
-2.807292e-010
-2.918722e-010
-2.629679e-010
-2.045926e-010
-1.352541e-010
-7.583263e-011
-4.231468e-011
-3.975638e-011
-6.022159e-011
-8.592930e-011
-9.659508e-011
-7.799349e-011
-2.809735e-011
4.187059e-011
1.118960e-010
1.611127e-010
1.757027e-010
1.534175e-010
1.030979e-010
3.995637e-011
-2.076086e-011
-6.867258e-011
-9.976325e-011
-1.145208e-010
-5.139722e-011
-7.258596e-011
-1.006804e-010
-1.206324e-010
-1.209097e-010
-9.698303e-011
-5.228781e-011
3.615974e-012
5.878184e-011
1.029360e-010
1.303136e-010
1.403947e-010
1.366121e-010
1.239342e-010
1.065453e-010
8.661205e-011
6.446981e-011
3.983854e-011
1.323538e-011
-1.325620e-011
-3.627983e-011
-5.240694e-011
-5.962441e-011
-5.835329e-011
-5.148502e-011
-4.337279e-011
-3.818892e-011
-3.828443e-011
-4.314410e-011
-4.921245e-011
-5.050251e-011
-3.964151e-011
-8.976446e-012
4.848436e-011
1.383026e-010
2.639076e-010
4.258997e-010
6.214679e-010
8.441694e-010
1.084329e-009
1.330137e-009
1.569270e-009
1.790649e-009
1.985908e-009
2.150255e-009
2.282619e-009
2.385172e-009
2.462413e-009
2.520036e-009
2.563770e-009
2.598357e-009
2.626807e-009
2.649992e-009
2.666625e-009
2.673601e-009
2.666617e-009
2.641001e-009
2.592577e-009
2.518447e-009
2.417501e-009
2.290556e-009
2.140116e-009
1.969857e-009
1.784029e-009
1.586897e-009
1.382312e-009
1.173355e-009
9.620382e-010
7.491237e-010
5.342453e-010
3.165525e-010
9.592597e-011
-1.254922e-010
-3.420104e-010
-5.439980e-010
-7.187720e-010
-8.526175e-010
-9.332258e-010
-9.516202e-010
-9.029231e-010
-7.860895e-010
-6.035080e-010
-3.616798e-010
-7.361194e-011
2.377521e-010
5.372079e-010
7.788702e-010
9.136577e-010
9.023179e-010
7.305901e-010
4.207744e-010
3.376106e-011
-3.418878e-010
-6.125738e-010
-7.077506e-010
-6.039746e-010
-3.356694e-010
1.262416e-011
3.312453e-010
5.198871e-010
1.127384e-010
3.534939e-011
-7.844655e-011
-1.865527e-010
-2.535933e-010
-2.591690e-010
-2.018303e-010
-9.736242e-011
2.768918e-011
1.447462e-010
2.311936e-010
2.752885e-010
2.769969e-010
2.452809e-010
1.934641e-010
1.346171e-010
7.848510e-011
3.056187e-011
-7.021444e-012
-3.375916e-011
-4.925252e-011
-5.262574e-011
-4.299153e-011
-2.054027e-011
1.246594e-011
5.142272e-011
9.013266e-011
1.224111e-010
1.440572e-010
1.545592e-010
1.580207e-010
1.630379e-010
1.815337e-010
2.267835e-010
3.109970e-010
4.429071e-010
6.258325e-010
8.566411e-010
1.125900e-009
1.419243e-009
1.719689e-009
2.010373e-009
2.277045e-009
2.509810e-009
2.703813e-009
2.858915e-009
2.978642e-009
3.068787e-009
3.136028e-009
3.186753e-009
3.226175e-009
3.257690e-009
3.282454e-009
3.299164e-009
3.304124e-009
3.291703e-009
3.255219e-009
3.188187e-009
3.085677e-009
2.945463e-009
2.768657e-009
2.559651e-009
2.325395e-009
2.074213e-009
1.814434e-009
1.553121e-009
1.295135e-009
1.042722e-009
7.957551e-010
5.526248e-010
3.116370e-010
7.251831e-011
-1.624826e-010
-3.883242e-010
-5.978175e-010
-7.827566e-010
-9.347254e-010
-1.044838e-009
-1.102296e-009
-1.092712e-009
-9.980413e-010
-8.000676e-010
-4.882629e-010
-7.058078e-011
4.167361e-010
9.056871e-010
1.303994e-009
1.514825e-009
1.465073e-009
1.133746e-009
5.697218e-010
-1.101141e-010
-7.455373e-010
-1.175548e-009
-1.286530e-009
-1.050098e-009
-5.367602e-010
1.011153e-010
6.732099e-010
1.008697e-009
2.858953e-010
1.665448e-010
-1.243055e-011
-1.902085e-010
-3.146374e-010
-3.536044e-010
-3.012220e-010
-1.765231e-010
-1.543307e-011
1.410552e-010
2.586153e-010
3.177898e-010
3.167130e-010
2.683697e-010
1.941129e-010
1.160865e-010
5.114251e-011
7.910355e-012
-1.266264e-011
-1.426187e-011
-1.354073e-012
2.373090e-011
6.170153e-011
1.150881e-010
1.857411e-010
2.723731e-010
3.693774e-010
4.675648e-010
5.566284e-010
6.284607e-010
6.801181e-010
7.153710e-010
7.442890e-010
7.809540e-010
8.399829e-010
9.328539e-010
1.065048e-009
1.234729e-009
1.433226e-009
1.647062e-009
1.860887e-009
2.060498e-009
2.235181e-009
2.378924e-009
2.490410e-009
2.572059e-009
2.628604e-009
2.665688e-009
2.688841e-009
2.702925e-009
2.711901e-009
2.718685e-009
2.724860e-009
2.730224e-009
2.732357e-009
2.726501e-009
2.706033e-009
2.663574e-009
2.592557e-009
2.488818e-009
2.351768e-009
2.184764e-009
1.994560e-009
1.789961e-009
1.579989e-009
1.372069e-009
1.170713e-009
9.771393e-010
7.900028e-010
6.070282e-010
4.269472e-010
2.508794e-010
8.240952e-011
-7.385362e-011
-2.145918e-010
-3.395903e-010
-4.514595e-010
-5.524054e-010
-6.387247e-010
-6.954801e-010
-6.948888e-010
-6.014609e-010
-3.845654e-010
-3.551279e-011
4.171058e-010
9.014417e-010
1.311547e-009
1.532480e-009
1.475640e-009
1.113170e-009
4.983656e-010
-2.378061e-010
-9.165266e-010
-1.360319e-009
-1.446899e-009
-1.149934e-009
-5.521478e-010
1.751938e-010
8.212863e-010
1.198413e-009
4.296657e-010
2.921675e-010
8.313040e-011
-1.307502e-010
-2.914083e-010
-3.614204e-010
-3.311908e-010
-2.185503e-010
-6.104903e-011
9.642858e-011
2.148399e-010
2.710787e-010
2.623420e-010
2.040601e-010
1.227290e-010
4.646295e-011
-3.441845e-012
-1.727380e-011
3.143935e-012
4.864118e-011
1.088945e-010
1.779100e-010
2.565926e-010
3.515539e-010
4.709292e-010
6.191970e-010
7.933103e-010
9.818083e-010
1.167272e-009
1.331112e-009
1.458821e-009
1.543713e-009
1.587927e-009
1.600515e-009
1.593555e-009
1.577802e-009
1.559397e-009
1.538594e-009
1.510642e-009
1.468213e-009
1.404374e-009
1.315051e-009
1.200330e-009
1.064395e-009
9.143771e-010
7.586730e-010
6.053671e-010
4.612355e-010
3.315356e-010
2.204483e-010
1.317760e-010
6.940445e-011
3.716669e-011
3.804012e-011
7.296000e-011
1.397507e-010
2.326860e-010
3.429693e-010
4.600887e-010
5.736854e-010
6.753929e-010
7.600955e-010
8.262296e-010
8.750209e-010
9.089160e-010
9.297693e-010
9.375378e-010
9.301330e-010
9.046701e-010
8.596994e-010
7.973791e-010
7.242733e-010
6.498372e-010
5.826706e-010
5.259287e-010
4.742538e-010
4.145593e-010
3.316646e-010
2.174687e-010
7.999897e-011
-5.246247e-011
-1.359766e-010
-1.248759e-010
8.688084e-012
2.568759e-010
5.682391e-010
8.554176e-010
1.018551e-009
9.779951e-010
7.052278e-010
2.401015e-010
-3.134461e-010
-8.138205e-010
-1.122946e-009
-1.149177e-009
-8.778045e-010
-3.787647e-010
2.114913e-010
7.287556e-010
1.028663e-009
5.021331e-010
3.752125e-010
1.790223e-010
-2.860313e-011
-1.960676e-010
-2.878666e-010
-2.914270e-010
-2.182136e-010
-9.862021e-011
2.793242e-011
1.248430e-010
1.686938e-010
1.551261e-010
9.859289e-011
2.630998e-011
-3.137895e-011
-5.078804e-011
-2.139427e-011
5.309097e-011
1.591234e-010
2.810824e-010
4.089683e-010
5.427533e-010
6.915958e-010
8.683645e-010
1.081906e-009
1.330376e-009
1.598410e-009
1.859202e-009
2.080534e-009
2.232275e-009
2.292536e-009
2.250460e-009
2.105217e-009
1.862284e-009
1.529016e-009
1.111453e-009
6.134483e-010
3.803453e-011
-6.099692e-010
-1.321499e-009
-2.082018e-009
-2.871964e-009
-3.668591e-009
-4.448494e-009
-5.189963e-009
-5.874521e-009
-6.487305e-009
-7.016376e-009
-7.451374e-009
-7.782130e-009
-7.997903e-009
-8.087669e-009
-8.041540e-009
-7.852975e-009
-7.521122e-009
-7.052582e-009
-6.462018e-009
-5.771381e-009
-5.007901e-009
-4.201308e-009
-3.381005e-009
-2.573853e-009
-1.803075e-009
-1.088295e-009
-4.462388e-010
1.087748e-010
5.653662e-010
9.169630e-010
1.164411e-009
1.317926e-009
1.396726e-009
1.425302e-009
1.426780e-009
1.415465e-009
1.391801e-009
1.342650e-009
1.247954e-009
1.091974e-009
8.747112e-010
6.181484e-010
3.634248e-010
1.586744e-010
4.156067e-011
2.354420e-011
8.297000e-011
1.708519e-010
2.279842e-010
2.070457e-010
9.098780e-011
-9.963981e-011
-3.132681e-010
-4.850659e-010
-5.589668e-010
-5.059654e-010
-3.328103e-010
-7.927439e-011
1.938151e-010
4.211886e-010
5.494651e-010
4.715287e-010
3.832218e-010
2.422500e-010
8.386269e-011
-5.831217e-011
-1.573829e-010
-1.984115e-010
-1.816024e-010
-1.219721e-010
-4.492894e-011
2.148243e-011
5.558488e-011
4.939667e-011
1.158960e-011
-3.527777e-011
-6.248078e-011
-4.500591e-011
3.024797e-011
1.612038e-010
3.335068e-010
5.281405e-010
7.301956e-010
9.346854e-010
1.146622e-009
1.375165e-009
1.624346e-009
1.884394e-009
2.127421e-009
2.309285e-009
2.376843e-009
2.277732e-009
1.969053e-009
1.422285e-009
6.236324e-010
-4.289891e-010
-1.729965e-009
-3.268757e-009
-5.030306e-009
-6.993433e-009
-9.128606e-009
-1.139670e-008
-1.374974e-008
-1.613357e-008
-1.849172e-008
-2.076921e-008
-2.291533e-008
-2.488494e-008
-2.663822e-008
-2.813941e-008
-2.935523e-008
-3.025364e-008
-3.080363e-008
-3.097640e-008
-3.074796e-008
-3.010277e-008
-2.903779e-008
-2.756598e-008
-2.571853e-008
-2.354511e-008
-2.111190e-008
-1.849753e-008
-1.578775e-008
-1.306964e-008
-1.042656e-008
-7.934277e-009
-5.658275e-009
-3.651512e-009
-1.951878e-009
-5.791036e-010
4.681467e-010
1.213353e-009
1.699579e-009
1.982380e-009
2.119123e-009
2.157567e-009
2.127637e-009
2.039659e-009
1.890005e-009
1.671961e-009
1.387098e-009
1.052009e-009
6.972122e-010
3.588188e-010
6.717533e-011
-1.616915e-010
-3.274373e-010
-4.390975e-010
-5.050121e-010
-5.252109e-010
-4.913210e-010
-3.947638e-010
-2.388483e-010
-4.730297e-011
1.371808e-010
2.658798e-010
3.035567e-010
2.452903e-010
1.216294e-010
-1.182969e-011
-9.679385e-011
3.284753e-010
3.006973e-010
2.485991e-010
1.747718e-010
8.634853e-011
-3.504606e-012
-7.813919e-011
-1.229644e-010
-1.314351e-010
-1.084224e-010
-6.884406e-011
-3.152435e-011
-1.059077e-011
-8.143875e-012
-1.167247e-011
2.296679e-012
5.965040e-011
1.788894e-010
3.643562e-010
6.053037e-010
8.807520e-010
1.167205e-009
1.444862e-009
1.698720e-009
1.913551e-009
2.064891e-009
2.110280e-009
1.985151e-009
1.605789e-009
8.788286e-010
-2.858884e-010
-1.963295e-009
-4.205294e-009
-7.038318e-009
-1.046512e-008
-1.446821e-008
-1.901259e-008
-2.404659e-008
-2.950138e-008
-3.529068e-008
-4.131223e-008
-4.745153e-008
-5.358743e-008
-5.959785e-008
-6.536450e-008
-7.077556e-008
-7.572627e-008
-8.011823e-008
-8.385819e-008
-8.685731e-008
-8.903149e-008
-9.030319e-008
-9.060486e-008
-8.988374e-008
-8.810797e-008
-8.527304e-008
-8.140800e-008
-7.658030e-008
-7.089788e-008
-6.450780e-008
-5.759077e-008
-5.035201e-008
-4.300957e-008
-3.578166e-008
-2.887453e-008
-2.247152e-008
-1.672367e-008
-1.174143e-008
-7.588053e-009
-4.275507e-009
-1.764929e-009
2.676901e-011
1.213820e-009
1.923886e-009
2.279671e-009
2.384584e-009
2.316076e-009
2.127375e-009
1.855069e-009
1.527770e-009
1.171342e-009
8.088177e-010
4.568362e-010
1.230430e-010
-1.913151e-010
-4.827081e-010
-7.344441e-010
-9.108125e-010
-9.628837e-010
-8.474271e-010
-5.528353e-010
-1.198739e-010
3.555656e-010
7.442994e-010
9.258153e-010
8.351292e-010
4.943930e-010
1.334375e-011
-4.450274e-010
-7.220950e-010
9.176062e-011
1.360163e-010
1.912437e-010
2.229582e-010
2.077468e-010
1.421206e-010
4.335939e-011
-5.806400e-011
-1.311343e-010
-1.564794e-010
-1.328071e-010
-7.491687e-011
-4.435846e-012
6.228265e-011
1.234294e-010
1.939095e-010
2.994850e-010
4.656060e-010
7.058061e-010
1.014205e-009
1.364111e-009
1.711359e-009
1.998684e-009
2.157263e-009
2.103704e-009
1.733909e-009
9.177622e-010
-5.009295e-010
-2.696586e-009
-5.846647e-009
-1.011253e-008
-1.562168e-008
-2.245481e-008
-3.064013e-008
-4.015375e-008
-5.092352e-008
-6.283400e-008
-7.573093e-008
-8.942568e-008
-1.037007e-007
-1.183165e-007
-1.330211e-007
-1.475587e-007
-1.616772e-007
-1.751332e-007
-1.876932e-007
-1.991326e-007
-2.092349e-007
-2.177903e-007
-2.245977e-007
-2.294682e-007
-2.322310e-007
-2.327408e-007
-2.308873e-007
-2.266049e-007
-2.198844e-007
-2.107832e-007
-1.994353e-007
-1.860575e-007
-1.709502e-007
-1.544914e-007
-1.371227e-007
-1.193286e-007
-1.016107e-007
-8.445941e-008
-6.832545e-008
-5.359343e-008
-4.055891e-008
-2.941100e-008
-2.022314e-008
-1.295431e-008
-7.462281e-009
-3.528002e-009
-8.872854e-010
7.361435e-010
1.602814e-009
1.939439e-009
1.931533e-009
1.723874e-009
1.423994e-009
1.104713e-009
8.049833e-010
5.319155e-010
2.685252e-010
-1.027528e-011
-3.159793e-010
-6.271965e-010
-8.833490e-010
-9.987587e-010
-8.959928e-010
-5.469155e-010
-2.928862e-012
6.030514e-010
1.090253e-009
1.291077e-009
1.117114e-009
6.022258e-010
-9.834228e-011
-7.566775e-010
-1.152212e-009
-1.946657e-010
-7.975691e-011
8.230850e-011
2.223583e-010
2.876606e-010
2.575385e-010
1.479641e-010
3.057482e-012
-1.229760e-010
-1.861215e-010
-1.669947e-010
-7.403004e-011
6.512854e-011
2.195810e-010
3.710538e-010
5.225959e-010
6.963014e-010
9.209214e-010
1.214054e-009
1.564896e-009
1.922032e-009
2.187513e-009
2.215491e-009
1.812490e-009
7.375532e-010
-1.296920e-009
-4.620493e-009
-9.592479e-009
-1.658028e-008
-2.592966e-008
-3.793178e-008
-5.279307e-008
-7.061378e-008
-9.137771e-008
-1.149531e-007
-1.411016e-007
-1.694927e-007
-1.997199e-007
-2.313189e-007
-2.637868e-007
-2.966001e-007
-3.292329e-007
-3.611702e-007
-3.919166e-007
-4.209987e-007
-4.479633e-007
-4.723729e-007
-4.938023e-007
-5.118388e-007
-5.260859e-007
-5.361718e-007
-5.417609e-007
-5.425681e-007
-5.383748e-007
-5.290460e-007
-5.145495e-007
-4.949755e-007
-4.705561e-007
-4.416808e-007
-4.089053e-007
-3.729485e-007
-3.346761e-007
-2.950692e-007
-2.551781e-007
-2.160673e-007
-1.787525e-007
-1.441384e-007
-1.129595e-007
-8.573480e-008
-6.273836e-008
-4.399491e-008
-2.930036e-008
-1.826552e-008
-1.037573e-008
-5.055383e-009
-1.726617e-009
1.458338e-010
1.026372e-009
1.294425e-009
1.239481e-009
1.060982e-009
8.721292e-010
7.101905e-010
5.568504e-010
3.691425e-010
1.155429e-010
-1.939326e-010
-4.963781e-010
-6.912597e-010
-6.796761e-010
-4.131791e-010
6.953061e-011
6.378001e-010
1.104128e-009
1.289853e-009
1.096836e-009
5.548479e-010
-1.779790e-010
-8.657541e-010
-1.278888e-009
-4.722194e-010
-3.012787e-010
-5.235226e-011
1.800425e-010
3.204584e-010
3.328536e-010
2.288777e-010
6.036030e-011
-1.011857e-010
-1.902537e-010
-1.685477e-010
-3.400258e-011
1.850327e-010
4.469598e-010
7.172943e-010
9.827759e-010
1.252255e-009
1.542394e-009
1.851498e-009
2.128188e-009
2.242018e-009
1.961156e-009
9.392960e-010
-1.288038e-009
-5.297902e-009
-1.176408e-008
-2.142890e-008
-3.506109e-008
-5.340046e-008
-7.709438e-008
-1.066343e-007
-1.423024e-007
-1.841369e-007
-2.319209e-007
-2.851932e-007
-3.432792e-007
-4.053323e-007
-4.703832e-007
-5.373886e-007
-6.052776e-007
-6.729909e-007
-7.395105e-007
-8.038777e-007
-8.651987e-007
-9.226407e-007
-9.754210e-007
-1.022794e-006
-1.064043e-006
-1.098475e-006
-1.125428e-006
-1.144278e-006
-1.154458e-006
-1.155476e-006
-1.146939e-006
-1.128582e-006
-1.100292e-006
-1.062151e-006
-1.014468e-006
-9.578168e-007
-8.930712e-007
-8.214171e-007
-7.443487e-007
-6.636358e-007
-5.812607e-007
-4.993255e-007
-4.199353e-007
-3.450654e-007
-2.764260e-007
-2.153408e-007
-1.626591e-007
-1.187138e-007
-8.333715e-008
-5.592873e-008
-3.556489e-008
-2.112784e-008
-1.143260e-008
-5.333816e-009
-1.803235e-009
2.308569e-011
8.226229e-010
1.083123e-009
1.114167e-009
1.072544e-009
1.001263e-009
8.793114e-010
6.741154e-010
3.841880e-010
5.925129e-011
-2.090466e-010
-3.221413e-010
-2.205692e-010
7.992117e-011
4.806723e-010
8.282682e-010
9.703743e-010
8.177551e-010
3.862085e-010
-2.011207e-010
-7.546899e-010
-1.087992e-009
-6.818437e-010
-4.809846e-010
-1.821481e-010
1.101690e-010
3.091633e-010
3.674695e-010
2.885855e-010
1.228355e-010
-5.113856e-011
-1.529950e-010
-1.259770e-010
4.808561e-011
3.489022e-010
7.315422e-010
1.146499e-009
1.555220e-009
1.930991e-009
2.239456e-009
2.399292e-009
2.229430e-009
1.392760e-009
-6.530303e-010
-4.688242e-009
-1.174062e-008
-2.306661e-008
-4.010119e-008
-6.437570e-008
-9.740641e-008
-1.405626e-007
-1.949293e-007
-2.611828e-007
-3.395007e-007
-4.295185e-007
-5.303411e-007
-6.406034e-007
-7.585676e-007
-8.822429e-007
-1.009508e-006
-1.138223e-006
-1.266325e-006
-1.391893e-006
-1.513189e-006
-1.628668e-006
-1.736969e-006
-1.836894e-006
-1.927372e-006
-2.007428e-006
-2.076160e-006
-2.132715e-006
-2.176287e-006
-2.206110e-006
-2.221469e-006
-2.221711e-006
-2.206260e-006
-2.174647e-006
-2.126545e-006
-2.061821e-006
-1.980610e-006
-1.883388e-006
-1.771069e-006
-1.645083e-006
-1.507434e-006
-1.360724e-006
-1.208115e-006
-1.053230e-006
-8.999799e-007
-7.523214e-007
-6.139740e-007
-4.881211e-007
-3.771480e-007
-2.824618e-007
-2.044278e-007
-1.424349e-007
-9.507166e-008
-6.037495e-008
-3.610072e-008
-1.997172e-008
-9.871990e-009
-3.975933e-009
-8.149201e-010
7.079063e-010
1.342055e-009
1.542356e-009
1.540216e-009
1.423303e-009
1.211665e-009
9.175208e-010
5.786053e-010
2.615964e-010
4.123393e-011
-3.139105e-011
4.531181e-011
2.168498e-010
3.900241e-010
4.682462e-010
3.905719e-010
1.580528e-010
-1.641555e-010
-4.705659e-010
-6.558608e-010
-7.772915e-010
-5.804844e-010
-2.805228e-010
2.745412e-011
2.600809e-010
3.647424e-010
3.330271e-010
2.026873e-010
4.626478e-011
-5.077215e-011
-1.550450e-011
1.918724e-010
5.690064e-010
1.075313e-009
1.643605e-009
2.188614e-009
2.599528e-009
2.706274e-009
2.216006e-009
6.250328e-010
-2.880180e-009
-9.513455e-009
-2.094897e-008
-3.933030e-008
-6.721211e-008
-1.074252e-007
-1.628660e-007
-2.362256e-007
-3.296876e-007
-4.446399e-007
-5.814483e-007
-7.393352e-007
-9.163874e-007
-1.109691e-006
-1.315565e-006
-1.529861e-006
-1.748263e-006
-1.966569e-006
-2.180908e-006
-2.387887e-006
-2.584666e-006
-2.768962e-006
-2.939020e-006
-3.093542e-006
-3.231611e-006
-3.352611e-006
-3.456155e-006
-3.542015e-006
-3.610059e-006
-3.660197e-006
-3.692323e-006
-3.706263e-006
-3.701725e-006
-3.678261e-006
-3.635239e-006
-3.571848e-006
-3.487147e-006
-3.380157e-006
-3.250025e-006
-3.096227e-006
-2.918832e-006
-2.718767e-006
-2.498080e-006
-2.260119e-006
-2.009602e-006
-1.752518e-006
-1.495811e-006
-1.246874e-006
-1.012882e-006
-8.000780e-007
-6.131478e-007
-4.547967e-007
-3.256281e-007
-2.243240e-007
-1.480670e-007
-9.309271e-008
-5.525087e-008
-3.048183e-008
-1.515616e-008
-6.268119e-009
-1.500824e-009
8.053368e-010
1.747597e-009
1.988183e-009
1.888046e-009
1.626194e-009
1.290506e-009
9.340966e-010
5.999837e-010
3.237413e-010
1.267570e-010
1.088103e-011
-4.001332e-011
-5.195941e-011
-5.054835e-011
-5.306478e-011
-6.571694e-011
-8.563338e-011
-1.053663e-010
-1.174300e-010
-7.342571e-010
-5.781442e-010
-3.304667e-010
-5.677143e-011
1.792236e-010
3.274972e-010
3.654798e-010
3.078070e-010
2.068252e-010
1.413237e-010
1.953330e-010
4.328388e-010
8.755607e-010
1.488145e-009
2.168706e-009
2.734982e-009
2.890985e-009
2.159041e-009
-2.309673e-010
-5.490386e-009
-1.543792e-008
-3.264744e-008
-6.053173e-008
-1.033138e-007
-1.658444e-007
-2.532432e-007
-3.703711e-007
-5.211855e-007
-7.080737e-007
-9.312933e-007
-1.188646e-006
-1.475470e-006
-1.784974e-006
-2.108842e-006
-2.438007e-006
-2.763444e-006
-3.076867e-006
-3.371250e-006
-3.641128e-006
-3.882691e-006
-4.093713e-006
-4.273369e-006
-4.422010e-006
-4.540928e-006
-4.632159e-006
-4.698311e-006
-4.742415e-006
-4.767783e-006
-4.777852e-006
-4.776006e-006
-4.765371e-006
-4.748587e-006
-4.727568e-006
-4.703259e-006
-4.675418e-006
-4.642450e-006
-4.601322e-006
-4.547614e-006
-4.475726e-006
-4.379276e-006
-4.251699e-006
-4.087037e-006
-3.880853e-006
-3.631191e-006
-3.339421e-006
-3.010777e-006
-2.654408e-006
-2.282794e-006
-1.910531e-006
-1.552634e-006
-1.222676e-006
-9.311581e-007
-6.844609e-007
-4.845700e-007
-3.295505e-007
-2.145527e-007
-1.330363e-007
-7.792472e-008
-4.249796e-008
-2.095614e-008
-8.673449e-009
-2.214090e-009
8.060066e-010
1.933885e-009
2.109177e-009
1.866648e-009
1.490121e-009
1.114905e-009
7.895462e-010
5.136857e-010
2.662722e-010
3.007273e-011
-1.903922e-010
-3.643118e-010
-4.470291e-010
-4.047909e-010
-2.393701e-010
1.626655e-012
2.366514e-010
3.807390e-010
-5.542078e-010
-4.718268e-010
-3.257783e-010
-1.347139e-010
7.234666e-011
2.571223e-010
3.838055e-010
4.368301e-010
4.362069e-010
4.414368e-010
5.385700e-010
8.108551e-010
1.298284e-009
1.951936e-009
2.583953e-009
2.804873e-009
1.931469e-009
-1.154252e-009
-8.205953e-009
-2.186473e-008
-4.592360e-008
-8.553472e-008
-1.472630e-007
-2.388771e-007
-3.687815e-007
-5.450434e-007
-7.740641e-007
-1.059079e-006
-1.398792e-006
-1.786510e-006
-2.210071e-006
-2.652677e-006
-3.094513e-006
-3.514822e-006
-3.894040e-006
-4.215608e-006
-4.467213e-006
-4.641373e-006
-4.735403e-006
-4.750921e-006
-4.693080e-006
-4.569726e-006
-4.390629e-006
-4.166884e-006
-3.910490e-006
-3.634075e-006
-3.350692e-006
-3.073611e-006
-2.816049e-006
-2.590801e-006
-2.409778e-006
-2.283436e-006
-2.220142e-006
-2.225490e-006
-2.301605e-006
-2.446492e-006
-2.653499e-006
-2.910984e-006
-3.202280e-006
-3.506101e-006
-3.797483e-006
-4.049362e-006
-4.234817e-006
-4.329870e-006
-4.316577e-006
-4.185917e-006
-3.939875e-006
-3.592081e-006
-3.166571e-006
-2.694651e-006
-2.210387e-006
-1.745652e-006
-1.325904e-006
-9.675975e-007
-6.776476e-007
-4.547107e-007
-2.915898e-007
-1.779310e-007
-1.025537e-007
-5.508037e-008
-2.682687e-008
-1.109444e-008
-3.062910e-009
5.260342e-010
1.750672e-009
1.862223e-009
1.562712e-009
1.200472e-009
9.012319e-010
6.614165e-010
4.238753e-010
1.412669e-010
-1.814136e-010
-4.775599e-010
-6.466609e-010
-6.065148e-010
-3.438721e-010
6.414674e-011
4.722882e-010
7.253612e-010
-2.634852e-010
-2.775673e-010
-2.690494e-010
-1.993353e-010
-5.171942e-011
1.569112e-010
3.829852e-010
5.798975e-010
7.279184e-010
8.549801e-010
1.033968e-009
1.348366e-009
1.825869e-009
2.343929e-009
2.508561e-009
1.498564e-009
-2.142927e-009
-1.079024e-008
-2.809685e-008
-5.940812e-008
-1.121402e-007
-1.959726e-007
-3.226374e-007
-5.050533e-007
-7.555927e-007
-1.083442e-006
-1.491334e-006
-1.972313e-006
-2.507502e-006
-3.065750e-006
-3.605672e-006
-4.079868e-006
-4.440479e-006
-4.644882e-006
-4.660401e-006
-4.467254e-006
-4.059511e-006
-3.444249e-006
-2.639425e-006
-1.671086e-006
-5.705154e-007
6.282308e-007
1.890154e-006
3.180452e-006
4.465072e-006
5.710864e-006
6.885554e-006
7.957742e-006
8.897043e-006
9.674457e-006
1.026296e-005
1.063831e-005
1.078008e-005
1.067281e-005
1.030741e-005
9.682646e-006
8.806743e-006
7.698965e-006
6.390983e-006
4.927733e-006
3.367346e-006
1.779652e-006
2.428047e-007
-1.162257e-006
-2.359343e-006
-3.285821e-006
-3.901269e-006
-4.194100e-006
-4.184191e-006
-3.920204e-006
-3.471605e-006
-2.916922e-006
-2.331075e-006
-1.774893e-006
-1.289156e-006
-8.938390e-007
-5.915596e-007
-3.732080e-007
-2.237101e-007
-1.265763e-007
-6.676497e-008
-3.203299e-008
-1.321940e-008
-3.923668e-009
6.615851e-011
1.367836e-009
1.505198e-009
1.280446e-009
1.035557e-009
8.399391e-010
6.357278e-010
3.522757e-010
-1.790080e-011
-3.956644e-010
-6.473852e-010
-6.543955e-010
-3.833485e-010
8.109388e-011
5.619411e-010
8.645628e-010
9.112446e-011
-2.570190e-011
-1.682900e-010
-2.408423e-010
-1.765964e-010
3.794782e-011
3.620335e-010
7.251804e-010
1.067032e-009
1.372099e-009
1.675137e-009
2.016701e-009
2.337057e-009
2.304166e-009
1.072226e-009
-3.039464e-009
-1.296517e-008
-3.342204e-008
-7.153043e-008
-1.374317e-007
-2.446907e-007
-4.101132e-007