# vtk DataFile Version 3.0
vtk output
ASCII
DATASET STRUCTURED_POINTS
DIMENSIONS 100 100 1
SPACING 1 1 1
ORIGIN 0 0 0
POINT_DATA 10000
SCALARS SFBox_profile double
LOOKUP_TABLE default 
9.439950e-003
9.439954e-003
9.439963e-003
9.439975e-003
9.439990e-003
9.440005e-003
9.440014e-003
9.440002e-003
9.439942e-003
9.439792e-003
9.439478e-003
9.438890e-003
9.437869e-003
9.436192e-003
9.433571e-003
9.429649e-003
9.424016e-003
9.416240e-003
9.405910e-003
9.392708e-003
9.376472e-003
9.357262e-003
9.335398e-003
9.311465e-003
9.286272e-003
9.260777e-003
9.235989e-003
9.212869e-003
9.192242e-003
9.174744e-003
9.160795e-003
9.150599e-003
9.144172e-003
9.141375e-003
9.141950e-003
9.145556e-003
9.151799e-003
9.160261e-003
9.170526e-003
9.182207e-003
9.194965e-003
9.208522e-003
9.222671e-003
9.237274e-003
9.252260e-003
9.267612e-003
9.283353e-003
9.299532e-003
9.316205e-003
9.333419e-003
9.351194e-003
9.369510e-003
9.388288e-003
9.407382e-003
9.426561e-003
9.445507e-003
9.463810e-003
9.480964e-003
9.496378e-003
9.509385e-003
9.519268e-003
9.525288e-003
9.526722e-003
9.522920e-003
9.513354e-003
9.497696e-003
9.475883e-003
9.448193e-003
9.415308e-003
9.378362e-003
9.338955e-003
9.299116e-003
9.261200e-003
9.227711e-003
9.201050e-003
9.183225e-003
9.175550e-003
9.178427e-003
9.191239e-003
9.212413e-003
9.239647e-003
9.270262e-003
9.301597e-003
9.331366e-003
9.357905e-003
9.380260e-003
9.398138e-003
9.411762e-003
9.421678e-003
9.428584e-003
9.433187e-003
9.436122e-003
9.437908e-003
9.438940e-003
9.439503e-003
9.439788e-003
9.439919e-003
9.439971e-003
9.439987e-003
9.439991e-003
9.439950e-003
9.439954e-003
9.439963e-003
9.439975e-003
9.439990e-003
9.440005e-003
9.440014e-003
9.440002e-003
9.439942e-003
9.439792e-003
9.439478e-003
9.438890e-003
9.437869e-003
9.436192e-003
9.433571e-003
9.429649e-003
9.424016e-003
9.416240e-003
9.405910e-003
9.392708e-003
9.376472e-003
9.357262e-003
9.335398e-003
9.311465e-003
9.286272e-003
9.260777e-003
9.235989e-003
9.212869e-003
9.192242e-003
9.174744e-003
9.160795e-003
9.150599e-003
9.144172e-003
9.141375e-003
9.141950e-003
9.145556e-003
9.151799e-003
9.160261e-003
9.170526e-003
9.182207e-003
9.194965e-003
9.208522e-003
9.222671e-003
9.237274e-003
9.252260e-003
9.267612e-003
9.283353e-003
9.299532e-003
9.316205e-003
9.333419e-003
9.351194e-003
9.369510e-003
9.388288e-003
9.407382e-003
9.426561e-003
9.445507e-003
9.463810e-003
9.480964e-003
9.496378e-003
9.509385e-003
9.519268e-003
9.525288e-003
9.526722e-003
9.522920e-003
9.513354e-003
9.497696e-003
9.475883e-003
9.448193e-003
9.415308e-003
9.378362e-003
9.338955e-003
9.299116e-003
9.261200e-003
9.227711e-003
9.201050e-003
9.183225e-003
9.175550e-003
9.178427e-003
9.191239e-003
9.212413e-003
9.239647e-003
9.270262e-003
9.301597e-003
9.331366e-003
9.357905e-003
9.380260e-003
9.398138e-003
9.411762e-003
9.421678e-003
9.428584e-003
9.433187e-003
9.436122e-003
9.437908e-003
9.438940e-003
9.439503e-003
9.439788e-003
9.439919e-003
9.439971e-003
9.439987e-003
9.439991e-003
9.439956e-003
9.439960e-003
9.439968e-003
9.439980e-003
9.439993e-003
9.440000e-003
9.439991e-003
9.439941e-003
9.439811e-003
9.439531e-003
9.438993e-003
9.438035e-003
9.436422e-003
9.433841e-003
9.429890e-003
9.424096e-003
9.415950e-003
9.404975e-003
9.390828e-003
9.373423e-003
9.353052e-003
9.330473e-003
9.306930e-003
9.284083e-003
9.263855e-003
9.248219e-003
9.238973e-003
9.237555e-003
9.244908e-003
9.261442e-003
9.287058e-003
9.321234e-003
9.363133e-003
9.411712e-003
9.465825e-003
9.524287e-003
9.585940e-003
9.649695e-003
9.714577e-003
9.779756e-003
9.844574e-003
9.908567e-003
9.971461e-003
1.003316e-002
1.009372e-002
1.015331e-002
1.021219e-002
1.027064e-002
1.032891e-002
1.038723e-002
1.044568e-002
1.050423e-002
1.056270e-002
1.062066e-002
1.067749e-002
1.073233e-002
1.078406e-002
1.083134e-002
1.087258e-002
1.090602e-002
1.092972e-002
1.094167e-002
1.093985e-002
1.092232e-002
1.088740e-002
1.083374e-002
1.076057e-002
1.066781e-002
1.055631e-002
1.042795e-002
1.028586e-002
1.013433e-002
9.978816e-003
9.825593e-003
9.681310e-003
9.552345e-003
9.444076e-003
9.360193e-003
9.302199e-003
9.269229e-003
9.258252e-003
9.264639e-003
9.282961e-003
9.307854e-003
9.334729e-003
9.360218e-003
9.382275e-003
9.400030e-003
9.413474e-003
9.423120e-003
9.429706e-003
9.433995e-003
9.436662e-003
9.438241e-003
9.439129e-003
9.439599e-003
9.439830e-003
9.439934e-003
9.439975e-003
9.439988e-003
9.439967e-003
9.439971e-003
9.439979e-003
9.439988e-003
9.439993e-003
9.439979e-003
9.439924e-003
9.439783e-003
9.439479e-003
9.438889e-003
9.437820e-003
9.435988e-003
9.432996e-003
9.428329e-003
9.421360e-003
9.411412e-003
9.397874e-003
9.380396e-003
9.359156e-003
9.335145e-003
9.310424e-003
9.288214e-003
9.272780e-003
9.269063e-003
9.282124e-003
9.316509e-003
9.375692e-003
9.461682e-003
9.574880e-003
9.714169e-003
9.877183e-003
1.006067e-002
1.026091e-002
1.047398e-002
1.069607e-002
1.092361e-002
1.115337e-002
1.138254e-002
1.160876e-002
1.183019e-002
1.204551e-002
1.225396e-002
1.245529e-002
1.264968e-002
1.283771e-002
1.302020e-002
1.319813e-002
1.337249e-002
1.354418e-002
1.371389e-002
1.388199e-002
1.404846e-002
1.421279e-002
1.437393e-002
1.453026e-002
1.467951e-002
1.481881e-002
1.494465e-002
1.505296e-002
1.513913e-002
1.519816e-002
1.522474e-002
1.521345e-002
1.515899e-002
1.505641e-002
1.490149e-002
1.469107e-002
1.442356e-002
1.409938e-002
1.372150e-002
1.329591e-002
1.283193e-002
1.234225e-002
1.184261e-002
1.135094e-002
1.088587e-002
1.046500e-002
1.010279e-002
9.808847e-003
9.586691e-003
9.433535e-003
9.341077e-003
9.297209e-003
9.288221e-003
9.300973e-003
9.324523e-003
9.350957e-003
9.375424e-003
9.395598e-003
9.410909e-003
9.421787e-003
9.429094e-003
9.433759e-003
9.436595e-003
9.438238e-003
9.439141e-003
9.439610e-003
9.439837e-003
9.439938e-003
9.439975e-003
9.439983e-003
9.439987e-003
9.439993e-003
9.439994e-003
9.439979e-003
9.439920e-003
9.439770e-003
9.439443e-003
9.438797e-003
9.437603e-003
9.435512e-003
9.432024e-003
9.426461e-003
9.417985e-003
9.405673e-003
9.388720e-003
9.366805e-003
9.340642e-003
9.312675e-003
9.287755e-003
9.273561e-003
9.280500e-003
9.320954e-003
9.407906e-003
9.553230e-003
9.766045e-003
1.005148e-002
1.041015e-002
1.083828e-002
1.132847e-002
1.187077e-002
1.245391e-002
1.306633e-002
1.369701e-002
1.433595e-002
1.497445e-002
1.560514e-002
1.622204e-002
1.682052e-002
1.739729e-002
1.795037e-002
1.847906e-002
1.898379e-002
1.946595e-002
1.992769e-002
2.037160e-002
2.080052e-002
2.121718e-002
2.162399e-002
2.202280e-002
2.241469e-002
2.279975e-002
2.317701e-002
2.354425e-002
2.389798e-002
2.423336e-002
2.454420e-002
2.482301e-002
2.506106e-002
2.524850e-002
2.537451e-002
2.542756e-002
2.539564e-002
2.526668e-002
2.502894e-002
2.467165e-002
2.418571e-002
2.356458e-002
2.280535e-002
2.191001e-002
2.088674e-002
1.975120e-002
1.852733e-002
1.724752e-002
1.595163e-002
1.468457e-002
1.349253e-002
1.241819e-002
1.149557e-002
1.074568e-002
1.017399e-002
9.770406e-003
9.512096e-003
9.368317e-003
9.306088e-003
9.295232e-003
9.311687e-003
9.338722e-003
9.366364e-003
9.389816e-003
9.407622e-003
9.420112e-003
9.428340e-003
9.433474e-003
9.436521e-003
9.438242e-003
9.439166e-003
9.439633e-003
9.439852e-003
9.439936e-003
9.440003e-003
9.440005e-003
9.440004e-003
9.439988e-003
9.439930e-003
9.439780e-003
9.439448e-003
9.438775e-003
9.437502e-003
9.435219e-003
9.431317e-003
9.424946e-003
9.415015e-003
9.400302e-003
9.379758e-003
9.353138e-003
9.322066e-003
9.291525e-003
9.271534e-003
9.278494e-003
9.335516e-003
9.471153e-003
9.716398e-003
1.010045e-002
1.064623e-002
1.136677e-002
1.226334e-002
1.332557e-002
1.453330e-002
1.585964e-002
1.727424e-002
1.874646e-002
2.024771e-002
2.175291e-002
2.324115e-002
2.469567e-002
2.610360e-002
2.745551e-002
2.874509e-002
2.996884e-002
3.112588e-002
3.221760e-002
3.324738e-002
3.422017e-002
3.514200e-002
3.601949e-002
3.685932e-002
3.766774e-002
3.845014e-002
3.921062e-002
3.995169e-002
4.067400e-002
4.137613e-002
4.205441e-002
4.270291e-002
4.331334e-002
4.387514e-002
4.437548e-002
4.479946e-002
4.513018e-002
4.534901e-002
4.543577e-002
4.536906e-002
4.512664e-002
4.468589e-002
4.402451e-002
4.312144e-002
4.195816e-002
4.052045e-002
3.880072e-002
3.680087e-002
3.453554e-002
3.203541e-002
2.934976e-002
2.654732e-002
2.371453e-002
2.095028e-002
1.835708e-002
1.602943e-002
1.404133e-002
1.243588e-002
1.121973e-002
1.036443e-002
9.814434e-003
9.499573e-003
9.348279e-003
9.298166e-003
9.301844e-003
9.327893e-003
9.358406e-003
9.385039e-003
9.405182e-003
9.419077e-003
9.428025e-003
9.433467e-003
9.436612e-003
9.438340e-003
9.439239e-003
9.439672e-003
9.439843e-003
9.440025e-003
9.440021e-003
9.440005e-003
9.439951e-003
9.439811e-003
9.439492e-003
9.438831e-003
9.437546e-003
9.435183e-003
9.431040e-003
9.424103e-003
9.413024e-003
9.396245e-003
9.372416e-003
9.341374e-003
9.305981e-003
9.274969e-003
9.266590e-003
9.312145e-003
9.457861e-003
9.763434e-003
1.029627e-002
1.112195e-002
1.229311e-002
1.383967e-002
1.576311e-002
1.803619e-002
2.060760e-002
2.340993e-002
2.636867e-002
2.941036e-002
3.246876e-002
3.548842e-002
3.842602e-002
4.124982e-002
4.393819e-002
4.647783e-002
4.886201e-002
5.108931e-002
5.316257e-002
5.508815e-002
5.687527e-002
5.853528e-002
6.008102e-002
6.152606e-002
6.288396e-002
6.416760e-002
6.538854e-002
6.655651e-002
6.767889e-002
6.876048e-002
6.980315e-002
7.080578e-002
7.176412e-002
7.267084e-002
7.351560e-002
7.428512e-002
7.496335e-002
7.553157e-002
7.596851e-002
7.625044e-002
7.635118e-002
7.624207e-002
7.589202e-002
7.526742e-002
7.433233e-002
7.304886e-002
7.137802e-002
6.928142e-002
6.672401e-002
6.367828e-002
6.013022e-002
5.608680e-002
5.158445e-002
4.669707e-002
4.154141e-002
3.627683e-002
3.109679e-002
2.621058e-002
2.181653e-002
1.807195e-002
1.506756e-002
1.281472e-002
1.125010e-002
1.025613e-002
9.690295e-003
9.413476e-003
9.310041e-003
9.296492e-003
9.320316e-003
9.353134e-003
9.382379e-003
9.404267e-003
9.419046e-003
9.428321e-003
9.433808e-003
9.436886e-003
9.438521e-003
9.439326e-003
9.439650e-003
9.440043e-003
9.440028e-003
9.439980e-003
9.439855e-003
9.439566e-003
9.438951e-003
9.437724e-003
9.435408e-003
9.431239e-003
9.424072e-003
9.412330e-003
9.394104e-003
9.367674e-003
9.332855e-003
9.293793e-003
9.263798e-003
9.272260e-003
9.372452e-003
9.647359e-003
1.020952e-002
1.119153e-002
1.272666e-002
1.492347e-002
1.784145e-002
2.147560e-002
2.575475e-002
3.055344e-002
3.571286e-002
4.106437e-002
4.644972e-002
5.173491e-002
5.681688e-002
6.162421e-002
6.611369e-002
7.026492e-002
7.407451e-002
7.755083e-002
8.070996e-002
8.357278e-002
8.616302e-002
8.850585e-002
9.062703e-002
9.255209e-002
9.430569e-002
9.591106e-002
9.738946e-002
9.875975e-002
1.000381e-001
1.012375e-001
1.023682e-001
1.034369e-001
1.044472e-001
1.053999e-001
1.062926e-001
1.071206e-001
1.078764e-001
1.085506e-001
1.091314e-001
1.096052e-001
1.099561e-001
1.101661e-001
1.102143e-001
1.100764e-001
1.097241e-001
1.091235e-001
1.082345e-001
1.070091e-001
1.053901e-001
1.033110e-001
1.006957e-001
9.746145e-002
9.352356e-002
8.880514e-002
8.325157e-002
7.685026e-002
6.965404e-002
6.180330e-002
5.353890e-002
4.519611e-002
3.717209e-002
2.986757e-002
2.361488e-002
1.861468e-002
1.490434e-002
1.236938e-002
1.079141e-002
9.911618e-003
9.487099e-003
9.325353e-003
9.294584e-003
9.316497e-003
9.351249e-003
9.382304e-003
9.405092e-003
9.420075e-003
9.429209e-003
9.434449e-003
9.437285e-003
9.438705e-003
9.439284e-003
9.440049e-003
9.440012e-003
9.439907e-003
9.439658e-003
9.439114e-003
9.438004e-003
9.435851e-003
9.431873e-003
9.424849e-003
9.413025e-003
9.394174e-003
9.366132e-003
9.328442e-003
9.286118e-003
9.256850e-003
9.282484e-003
9.443809e-003
9.874306e-003
1.076500e-002
1.235155e-002
1.487881e-002
1.854759e-002
2.345873e-002
2.957499e-002
3.671633e-002
4.459087e-002
5.284931e-002
6.114396e-002
6.917548e-002
7.671932e-002
8.363207e-002
8.984327e-002
9.533962e-002
1.001476e-001
1.043183e-001
1.079153e-001
1.110062e-001
1.136577e-001
1.159316e-001
1.178839e-001
1.195641e-001
1.210152e-001
1.222739e-001
1.233716e-001
1.243345e-001
1.251844e-001
1.259392e-001
1.266130e-001
1.272172e-001
1.277604e-001
1.282490e-001
1.286876e-001
1.290791e-001
1.294253e-001
1.297271e-001
1.299847e-001
1.301975e-001
1.303643e-001
1.304833e-001
1.305518e-001
1.305657e-001
1.305191e-001
1.304036e-001
1.302072e-001
1.299130e-001
1.294973e-001
1.289272e-001
1.281572e-001
1.271254e-001
1.257485e-001
1.239165e-001
1.214886e-001
1.182914e-001
1.141236e-001
1.087738e-001
1.020546e-001
9.385827e-002
8.422552e-002
7.340773e-002
6.189248e-002
5.036324e-002
3.958325e-002
3.023037e-002
2.274331e-002
1.724289e-002
1.355625e-002
1.132061e-002
1.011170e-002
9.546471e-003
9.336244e-003
9.294323e-003
9.316436e-003
9.352957e-003
9.384855e-003
9.407560e-003
9.422019e-003
9.430548e-003
9.435259e-003
9.437654e-003
9.438642e-003
9.440029e-003
9.439954e-003
9.439753e-003
9.439297e-003
9.438342e-003
9.436442e-003
9.432840e-003
9.426306e-003
9.414995e-003
9.396433e-003
9.367984e-003
9.328588e-003
9.283232e-003
9.252384e-003
9.288690e-003
9.501210e-003
1.008219e-002
1.132357e-002
1.360447e-002
1.733368e-002
2.284805e-002
3.029380e-002
3.953956e-002
5.016600e-002
6.154462e-002
7.297472e-002
8.382392e-002
9.362529e-002
1.021133e-001
1.092074e-001
1.149660e-001
1.195315e-001
1.230834e-001
1.258056e-001
1.278677e-001
1.294171e-001
1.305754e-001
1.314400e-001
1.320863e-001
1.325713e-001
1.329370e-001
1.332141e-001
1.334249e-001
1.335854e-001
1.337072e-001
1.337988e-001
1.338665e-001
1.339153e-001
1.339488e-001
1.339703e-001
1.339822e-001
1.339871e-001
1.339868e-001
1.339834e-001
1.339783e-001
1.339729e-001
1.339682e-001
1.339648e-001
1.339627e-001
1.339615e-001
1.339603e-001
1.339572e-001
1.339500e-001
1.339351e-001
1.339078e-001
1.338614e-001
1.337867e-001
1.336708e-001
1.334945e-001
1.332300e-001
1.328346e-001
1.322417e-001
1.313458e-001
1.299797e-001
1.278867e-001
1.246989e-001
1.199484e-001
1.131431e-001
1.039216e-001
9.225676e-002
7.862124e-002
6.400488e-002
4.971819e-002
3.703530e-002
2.683705e-002
1.942497e-002
1.456899e-002
1.171695e-002
1.023373e-002
9.570742e-003
9.336986e-003
9.294816e-003
9.320129e-003
9.358123e-003
9.389728e-003
9.411334e-003
9.424584e-003
9.432084e-003
9.435964e-003
9.437581e-003
9.439964e-003
9.439828e-003
9.439472e-003
9.438692e-003
9.437099e-003
9.433999e-003
9.428226e-003
9.417947e-003
9.400558e-003
9.373001e-003
9.333346e-003
9.285434e-003
9.249740e-003
9.284642e-003
9.521033e-003
1.020664e-002
1.174323e-002
1.468425e-002
1.965481e-002
2.717767e-002
3.744313e-002
5.012392e-002
6.435240e-002
7.890888e-002
9.254862e-002
1.043163e-001
1.137189e-001
1.207216e-001
1.256183e-001
1.288604e-001
1.309140e-001
1.321730e-001
1.329303e-001
1.333851e-001
1.336648e-001
1.338458e-001
1.339708e-001
1.340608e-001
1.341244e-001
1.341639e-001
1.341797e-001
1.341722e-001
1.341429e-001
1.340937e-001
1.340277e-001
1.339475e-001
1.338561e-001
1.337559e-001
1.336489e-001
1.335368e-001
1.334211e-001
1.333034e-001
1.331853e-001
1.330687e-001
1.329562e-001
1.328508e-001
1.327567e-001
1.326790e-001
1.326238e-001
1.325980e-001
1.326094e-001
1.326661e-001
1.327760e-001
1.329458e-001
1.331795e-001
1.334773e-001
1.338324e-001
1.342288e-001
1.346372e-001
1.350121e-001
1.352906e-001
1.353964e-001
1.352516e-001
1.347949e-001
1.339917e-001
1.328051e-001
1.310986e-001
1.284845e-001
1.242145e-001
1.172783e-001
1.068222e-001
9.274976e-002
7.608663e-002
5.877069e-002
4.293978e-002
3.015454e-002
2.099681e-002
1.516625e-002
1.187285e-002
1.023986e-002
9.551013e-003
9.327301e-003
9.296816e-003
9.327646e-003
9.366292e-003
9.396333e-003
9.415889e-003
9.427329e-003
9.433365e-003
9.435911e-003
9.439829e-003
9.439599e-003
9.439006e-003
9.437739e-003
9.435204e-003
9.430354e-003
9.421476e-003
9.405989e-003
9.380558e-003
9.342311e-003
9.293033e-003
9.250129e-003
9.270392e-003
9.493166e-003
1.020362e-002
1.189930e-002
1.531427e-002
2.132968e-002
3.071341e-002
4.371847e-002
5.971687e-002
7.713915e-002
9.388189e-002
1.080395e-001
1.185584e-001
1.254484e-001
1.294927e-001
1.317196e-001
1.329778e-001
1.337727e-001
1.343087e-001
1.346181e-001
1.346812e-001
1.344917e-001
1.340720e-001
1.334630e-001
1.327108e-001
1.318582e-001
1.309411e-001
1.299882e-001
1.290217e-001
1.280581e-001
1.271091e-001
1.261818e-001
1.252799e-001
1.244044e-001
1.235543e-001
1.227277e-001
1.219220e-001
1.211353e-001
1.203666e-001
1.196160e-001
1.188860e-001
1.181807e-001
1.175070e-001
1.168743e-001
1.162946e-001
1.157829e-001
1.153568e-001
1.150366e-001
1.148452e-001
1.148082e-001
1.149532e-001
1.153100e-001
1.159092e-001
1.167821e-001
1.179579e-001
1.194603e-001
1.213024e-001
1.234768e-001
1.259427e-001
1.286079e-001
1.313080e-001
1.337911e-001
1.357209e-001
1.367280e-001
1.365371e-001
1.351341e-001
1.327672e-001
1.294975e-001
1.245074e-001
1.160860e-001
1.028381e-001
8.516247e-002
6.547495e-002
4.696498e-002
3.204680e-002
2.160251e-002
1.519508e-002
1.174408e-002
1.012846e-002
9.494838e-003
9.312538e-003
9.302187e-003
9.338848e-003
9.376661e-003
9.403841e-003
9.420514e-003
9.429542e-003
9.433402e-003
9.439592e-003
9.439223e-003
9.438287e-003
9.436320e-003
9.432447e-003
9.425157e-003
9.412047e-003
9.389733e-003
9.354580e-003
9.305966e-003
9.255947e-003
9.252545e-003
9.426841e-003
1.007133e-002
1.173926e-002
1.531379e-002
2.194132e-002
3.270262e-002
4.799604e-002
6.687412e-002
8.686309e-002
1.047272e-001
1.179730e-001
1.260719e-001
1.303555e-001
1.326936e-001
1.342344e-001
1.351669e-001
1.352550e-001
1.343520e-001
1.325395e-001
1.300393e-001
1.271035e-001
1.239519e-001
1.207508e-001
1.176138e-001
1.146115e-001
1.117831e-001
1.091465e-001
1.067057e-001
1.044556e-001
1.023853e-001
1.004801e-001
9.872335e-002
9.709731e-002
9.558445e-002
9.416822e-002
9.283380e-002
9.156861e-002
9.036281e-002
8.920954e-002
8.810514e-002
8.704926e-002
8.604486e-002
8.509821e-002
8.421880e-002
8.341928e-002
8.271539e-002
8.212597e-002
8.167297e-002
8.138168e-002
8.128107e-002
8.140422e-002
8.178915e-002
8.247963e-002
8.352631e-002
8.498770e-002
8.693094e-002
8.943138e-002
9.256995e-002
9.642623e-002
1.010638e-001
1.065034e-001
1.126778e-001
1.193642e-001
1.260985e-001
1.321098e-001
1.363719e-001
1.379324e-001
1.365557e-001
1.330880e-001
1.283584e-001
1.211971e-001
1.089205e-001
9.065897e-002
6.906547e-002
4.846936e-002
3.213724e-002
2.110211e-002
1.464946e-002
1.136855e-002
9.934771e-003
9.422351e-003
9.300669e-003
9.312553e-003
9.353036e-003
9.388074e-003
9.411183e-003
9.424145e-003
9.429785e-003
9.439217e-003
9.438653e-003
9.437239e-003
9.434307e-003
9.428615e-003
9.418067e-003
9.399474e-003
9.368820e-003
9.323371e-003
9.269086e-003
9.240583e-003
9.346104e-003
9.851947e-003
1.130837e-002
1.467488e-002
2.131994e-002
3.268991e-002
4.949860e-002
7.065462e-002
9.276469e-002
1.112886e-001
1.232896e-001
1.294622e-001
1.327537e-001
1.349983e-001
1.358606e-001
1.344703e-001
1.307302e-001
1.252546e-001
1.188526e-001
1.121973e-001
1.057344e-001
9.971034e-002
9.423312e-002
8.932597e-002
8.496610e-002
8.110894e-002
7.770224e-002
7.469346e-002
7.203298e-002
6.967523e-002
6.757887e-002
6.570655e-002
6.402473e-002
6.250357e-002
6.111688e-002
5.984208e-002
5.866019e-002
5.755581e-002
5.651705e-002
5.553542e-002
5.460572e-002
5.372583e-002
5.289655e-002
5.212144e-002
5.140657e-002
5.076043e-002
5.019381e-002
4.971978e-002
4.935381e-002
4.911408e-002
4.902187e-002
4.910239e-002
4.938578e-002
4.990869e-002
5.071625e-002
5.186475e-002
5.342506e-002
5.548670e-002
5.816233e-002
6.159187e-002
6.594438e-002
7.141371e-002
7.820060e-002
8.646766e-002
9.624714e-002
1.072792e-001
1.187813e-001
1.292374e-001
1.365010e-001
1.387169e-001
1.360273e-001
1.307757e-001
1.237348e-001
1.117333e-001
9.257353e-002
6.923225e-002
4.722951e-002
3.041332e-002
1.961678e-002
1.367192e-002
1.084963e-002
9.714660e-003
9.356594e-003
9.298158e-003
9.328076e-003
9.368779e-003
9.399010e-003
9.416837e-003
9.424773e-003
9.438667e-003
9.437840e-003
9.435785e-003
9.431576e-003
9.423511e-003
9.408807e-003
9.383502e-003
9.343520e-003
9.289506e-003
9.241763e-003
9.277805e-003
9.611600e-003
1.073030e-002
1.356904e-002
1.961032e-002
3.065138e-002
4.792698e-002
7.061621e-002
9.472523e-002
1.143022e-001
1.257536e-001
1.311360e-001
1.344965e-001
1.361505e-001
1.339966e-001
1.274610e-001
1.178965e-001
1.071285e-001
9.653041e-002
8.685743e-002
7.840097e-002
7.118192e-002
6.509204e-002
5.997731e-002
5.568053e-002
5.206002e-002
4.899558e-002
4.638836e-002
4.415811e-002
4.223973e-002
4.058007e-002
3.913528e-002
3.786878e-002
3.674988e-002
3.575276e-002
3.485576e-002
3.404093e-002
3.329359e-002
3.260207e-002
3.195744e-002
3.135326e-002
3.078535e-002
3.025159e-002
2.975175e-002
2.928722e-002
2.886094e-002
2.847722e-002
2.814167e-002
2.786122e-002
2.764421e-002
2.750054e-002
2.744214e-002
2.748343e-002
2.764225e-002
2.794109e-002
2.840876e-002
2.908294e-002
3.001360e-002
3.126781e-002
3.293631e-002
3.514232e-002
3.805275e-002
4.189144e-002
4.695146e-002
5.359885e-002
6.224916e-002
7.328141e-002
8.683358e-002
1.024243e-001
1.184328e-001
1.317783e-001
1.387319e-001
1.377997e-001
1.320968e-001
1.245529e-001
1.118478e-001
9.099333e-002
6.597609e-002
4.344549e-002
2.722676e-002
1.748732e-002
1.249806e-002
1.031345e-002
9.521139e-003
9.313895e-003
9.307181e-003
9.347071e-003
9.383937e-003
9.407342e-003
9.418087e-003
9.437905e-003
9.436738e-003
9.433860e-003
9.428024e-003
9.416990e-003
9.397229e-003
9.364211e-003
9.314997e-003
9.257886e-003
9.239782e-003
9.411022e-003
1.015322e-002
1.227812e-002
1.722555e-002
2.701430e-002
4.350670e-002
6.668908e-002
9.271866e-002
1.143715e-001
1.265222e-001
1.318767e-001
1.353774e-001
1.355193e-001
1.290128e-001
1.166341e-001
1.016186e-001
8.680867e-002
7.374211e-002
6.290590e-002
5.421053e-002
4.733727e-002
4.192519e-002
3.765067e-002
3.425049e-002
3.152050e-002
2.930602e-002
2.749110e-002
2.598889e-002
2.473402e-002
2.367667e-002
2.277834e-002
2.200873e-002
2.134365e-002
2.076352e-002
2.025241e-002
1.979733e-002
1.938776e-002
1.901526e-002
1.867319e-002
1.835651e-002
1.806157e-002
1.778592e-002
1.752821e-002
1.728802e-002
1.706572e-002
1.686244e-002
1.667994e-002
1.652057e-002
1.638731e-002
1.628376e-002
1.621432e-002
1.618432e-002
1.620042e-002
1.627104e-002
1.640710e-002
1.662307e-002
1.693853e-002
1.738050e-002
1.798683e-002
1.881142e-002
1.993191e-002
2.146131e-002
2.356506e-002
2.648521e-002
3.057158e-002
3.631384e-002
4.435346e-002
5.542465e-002
7.012845e-002
8.841150e-002
1.087040e-001
1.271050e-001
1.380336e-001
1.383910e-001
1.321723e-001
1.238668e-001
1.093055e-001
8.587450e-002
5.959425e-002
3.772763e-002
2.320517e-002
1.516032e-002
1.137042e-002
9.862828e-003
9.386393e-003
9.299218e-003
9.325334e-003
9.366329e-003
9.395517e-003
9.409493e-003
9.436904e-003
9.435312e-003
9.431415e-003
9.423590e-003
9.408991e-003
9.383374e-003
9.342113e-003
9.285436e-003
9.235744e-003
9.283792e-003
9.692006e-003
1.108369e-002
1.469959e-002
2.254811e-002
3.699880e-002
5.921812e-002
8.656333e-002
1.113846e-001
1.259569e-001
1.317937e-001
1.353786e-001
1.343496e-001
1.240912e-001
1.067042e-001
8.736168e-002
6.983061e-002
5.563337e-002
4.482982e-002
3.686177e-002
3.105052e-002
2.680502e-002
2.367346e-002
2.133100e-002
1.955048e-002
1.817449e-002
1.709385e-002
1.623228e-002
1.553588e-002
1.496600e-002
1.449441e-002
1.410010e-002
1.376709e-002
1.348297e-002
1.323799e-002
1.302440e-002
1.283601e-002
1.266789e-002
1.251614e-002
1.237774e-002
1.225038e-002
1.213241e-002
1.202270e-002
1.192057e-002
1.182574e-002
1.173824e-002
1.165842e-002
1.158683e-002
1.152429e-002
1.147181e-002
1.143066e-002
1.140241e-002
1.138900e-002
1.139289e-002
1.141732e-002
1.146655e-002
1.154645e-002
1.166519e-002
1.183448e-002
1.207139e-002
1.240131e-002
1.286275e-002
1.351527e-002
1.445248e-002
1.582344e-002
1.786665e-002
2.096032e-002
2.568671e-002
3.288815e-002
4.364543e-002
5.902807e-002
7.939040e-002
1.030845e-001
1.251267e-001
1.380215e-001
1.379725e-001
1.309817e-001
1.215085e-001
1.036155e-001
7.722094e-002
5.080770e-002
3.102052e-002
1.907976e-002
1.304502e-002
1.046218e-002
9.549813e-003
9.316655e-003
9.307425e-003
9.347098e-003
9.381413e-003
9.398842e-003
9.435648e-003
9.433547e-003
9.428433e-003
9.418266e-003
9.399564e-003
9.367504e-003
9.318175e-003
9.257918e-003
9.231904e-003
9.396457e-003
1.017190e-002
1.249971e-002
1.812857e-002
2.959050e-002
4.916443e-002
7.625232e-002
1.044661e-001
1.236460e-001
1.310727e-001
1.347123e-001
1.339885e-001
1.220411e-001
1.010515e-001
7.817791e-002
5.845286e-002
4.353731e-002
3.307209e-002
2.600771e-002
2.130374e-002
1.816027e-002
1.602840e-002
1.455174e-002
1.350420e-002
1.274282e-002
1.217638e-002
1.174578e-002
1.141201e-002
1.114878e-002
1.093802e-002
1.076697e-002
1.062646e-002
1.050969e-002
1.041153e-002
1.032803e-002
1.025612e-002
1.019341e-002
1.013801e-002
1.008844e-002
1.004359e-002
1.000259e-002
9.964846e-003
9.929917e-003
9.897539e-003
9.867575e-003
9.839992e-003
9.814847e-003
9.792268e-003
9.772448e-003
9.755641e-003
9.742171e-003
9.732443e-003
9.726977e-003
9.726455e-003
9.731797e-003
9.744278e-003
9.765714e-003
9.798755e-003
9.847361e-003
9.917592e-003
1.001895e-002
1.016669e-002
1.038603e-002
1.071965e-002
1.124153e-002
1.208190e-002
1.347078e-002
1.580893e-002
1.976911e-002
2.640235e-002
3.715087e-002
5.353428e-002
7.615035e-002
1.028133e-001
1.267964e-001
1.387733e-001
1.363857e-001
1.286572e-001
1.167435e-001
9.407354e-002
6.553481e-002
4.081808e-002
2.439446e-002
1.547487e-002
1.140120e-002
9.842752e-003
9.374880e-003
9.298626e-003
9.327754e-003
9.365323e-003
9.386101e-003
9.434139e-003
9.431447e-003
9.424936e-003
9.412115e-003
9.388881e-003
9.350099e-003
9.293724e-003
9.235991e-003
9.255267e-003
9.597881e-003
1.088911e-002
1.445413e-002
2.257621e-002
3.812521e-002
6.262832e-002
9.265406e-002
1.180150e-001
1.297863e-001
1.335142e-001
1.343930e-001
1.238442e-001
1.012158e-001
7.523025e-002
5.300050e-002
3.691761e-002
2.639716e-002
1.990274e-002
1.600008e-002
1.366266e-002
1.224281e-002
1.135794e-002
1.078865e-002
1.040988e-002
1.014951e-002
9.965068e-003
9.830835e-003
9.730796e-003
9.654689e-003
9.595754e-003
9.549410e-003
9.512466e-003
9.482638e-003
9.458250e-003
9.438049e-003
9.421084e-003
9.406628e-003
9.394122e-003
9.383141e-003
9.373362e-003
9.364547e-003
9.356521e-003
9.349161e-003
9.342384e-003
9.336137e-003
9.330391e-003
9.325133e-003
9.320361e-003
9.316079e-003
9.312300e-003
9.309043e-003
9.306334e-003
9.304215e-003
9.302754e-003
9.302059e-003
9.302309e-003
9.303798e-003
9.307016e-003
9.312784e-003
9.322506e-003
9.338630e-003
9.365529e-003
9.411253e-003
9.491052e-003
9.634591e-003
9.900614e-003
1.040614e-002
1.138185e-002
1.326895e-002
1.686530e-002
2.348592e-002
3.498411e-002
5.326664e-002
7.878135e-002
1.079145e-001
1.313244e-001
1.389984e-001
1.335562e-001
1.249900e-001
1.081275e-001
8.054769e-002
5.213891e-002
3.108302e-002
1.874407e-002
1.274949e-002
1.030319e-002
9.490640e-003
9.305248e-003
9.310350e-003
9.347799e-003
9.371384e-003
9.432396e-003
9.429046e-003
9.420985e-003
9.405265e-003
9.377228e-003
9.331806e-003
9.270245e-003
9.223000e-003
9.312829e-003
9.900421e-003
1.185760e-002
1.693465e-002
2.790718e-002
4.766819e-002
7.625196e-002
1.067259e-001
1.265355e-001
1.323078e-001
1.343056e-001
1.282933e-001
1.072142e-001
7.888611e-002
5.337915e-002
3.501361e-002
2.351595e-002
1.693768e-002
1.337505e-002
1.149722e-002
1.051128e-002
9.985789e-003
9.697538e-003
9.533558e-003
9.436639e-003
9.377279e-003
9.339796e-003
9.315548e-003
9.299585e-003
9.288971e-003
9.281902e-003
9.277236e-003
9.274226e-003
9.272370e-003
9.271321e-003
9.270836e-003
9.270739e-003
9.270907e-003
9.271252e-003
9.271708e-003
9.272233e-003
9.272794e-003
9.273368e-003
9.273939e-003
9.274490e-003
9.275008e-003
9.275475e-003
9.275871e-003
9.276171e-003
9.276342e-003
9.276348e-003
9.276139e-003
9.275659e-003
9.274840e-003
9.273599e-003
9.271838e-003
9.269444e-003
9.266279e-003
9.262191e-003
9.257017e-003
9.250612e-003
9.242933e-003
9.234250e-003
9.225665e-003
9.220400e-003
9.226881e-003
9.266015e-003
9.387789e-003
9.707401e-003
1.047853e-002
1.222685e-002
1.595342e-002
2.334352e-002
3.671873e-002
5.815812e-002
8.714413e-002
1.172696e-001
1.362660e-001