# vtk DataFile Version 3.0
vtk output
ASCII
DATASET STRUCTURED_POINTS
DIMENSIONS 100 100 1
SPACING 1 1 1
ORIGIN 0 0 0
POINT_DATA 10000
SCALARS SFBox_profile double
LOOKUP_TABLE default 
9.439919e-003
9.439919e-003
9.439919e-003
9.439920e-003
9.439920e-003
9.439920e-003
9.439920e-003
9.439920e-003
9.439920e-003
9.439919e-003
9.439919e-003
9.439919e-003
9.439919e-003
9.439919e-003
9.439919e-003
9.439920e-003
9.439920e-003
9.439921e-003
9.439921e-003
9.439921e-003
9.439920e-003
9.439919e-003
9.439919e-003
9.439919e-003
9.439919e-003
9.439920e-003
9.439920e-003
9.439920e-003
9.439920e-003
9.439920e-003
9.439921e-003
9.439921e-003
9.439921e-003
9.439921e-003
9.439920e-003
9.439920e-003
9.439921e-003
9.439921e-003
9.439921e-003
9.439920e-003
9.439920e-003
9.439921e-003
9.439921e-003
9.439921e-003
9.439921e-003
9.439921e-003
9.439921e-003
9.439921e-003
9.439921e-003
9.439922e-003
9.439922e-003
9.439921e-003
9.439921e-003
9.439920e-003
9.439921e-003
9.439921e-003
9.439921e-003
9.439921e-003
9.439921e-003
9.439921e-003
9.439921e-003
9.439921e-003
9.439921e-003
9.439920e-003
9.439920e-003
9.439920e-003
9.439921e-003
9.439921e-003
9.439921e-003
9.439921e-003
9.439920e-003
9.439920e-003
9.439920e-003
9.439920e-003
9.439920e-003
9.439920e-003
9.439919e-003
9.439919e-003
9.439919e-003
9.439920e-003
9.439920e-003
9.439921e-003
9.439921e-003
9.439920e-003
9.439920e-003
9.439920e-003
9.439920e-003
9.439920e-003
9.439920e-003
9.439920e-003
9.439919e-003
9.439919e-003
9.439920e-003
9.439920e-003
9.439920e-003
9.439921e-003
9.439920e-003
9.439920e-003
9.439920e-003
9.439920e-003
9.439919e-003
9.439919e-003
9.439919e-003
9.439920e-003
9.439920e-003
9.439920e-003
9.439920e-003
9.439920e-003
9.439920e-003
9.439919e-003
9.439919e-003
9.439919e-003
9.439919e-003
9.439919e-003
9.439919e-003
9.439920e-003
9.439920e-003
9.439921e-003
9.439921e-003
9.439921e-003
9.439920e-003
9.439919e-003
9.439919e-003
9.439919e-003
9.439919e-003
9.439920e-003
9.439920e-003
9.439920e-003
9.439920e-003
9.439920e-003
9.439921e-003
9.439921e-003
9.439921e-003
9.439921e-003
9.439920e-003
9.439920e-003
9.439921e-003
9.439921e-003
9.439921e-003
9.439920e-003
9.439920e-003
9.439921e-003
9.439921e-003
9.439921e-003
9.439921e-003
9.439921e-003
9.439921e-003
9.439921e-003
9.439921e-003
9.439922e-003
9.439922e-003
9.439921e-003
9.439921e-003
9.439920e-003
9.439921e-003
9.439921e-003
9.439921e-003
9.439921e-003
9.439921e-003
9.439921e-003
9.439921e-003
9.439921e-003
9.439921e-003
9.439920e-003
9.439920e-003
9.439920e-003
9.439921e-003
9.439921e-003
9.439921e-003
9.439921e-003
9.439920e-003
9.439920e-003
9.439920e-003
9.439920e-003
9.439920e-003
9.439920e-003
9.439919e-003
9.439919e-003
9.439919e-003
9.439920e-003
9.439920e-003
9.439921e-003
9.439921e-003
9.439920e-003
9.439920e-003
9.439920e-003
9.439920e-003
9.439920e-003
9.439920e-003
9.439920e-003
9.439919e-003
9.439919e-003
9.439920e-003
9.439920e-003
9.439920e-003
9.439921e-003
9.439920e-003
9.439920e-003
9.439920e-003
9.439920e-003
9.439920e-003
9.439919e-003
9.439919e-003
9.439919e-003
9.439920e-003
9.439920e-003
9.439920e-003
9.439920e-003
9.439920e-003
9.439920e-003
9.439920e-003
9.439920e-003
9.439920e-003
9.439920e-003
9.439919e-003
9.439919e-003
9.439920e-003
9.439920e-003
9.439920e-003
9.439920e-003
9.439920e-003
9.439920e-003
9.439919e-003
9.439920e-003
9.439920e-003
9.439921e-003
9.439920e-003
9.439920e-003
9.439920e-003
9.439920e-003
9.439921e-003
9.439921e-003
9.439921e-003
9.439920e-003
9.439920e-003
9.439920e-003
9.439921e-003
9.439921e-003
9.439921e-003
9.439921e-003
9.439921e-003
9.439921e-003
9.439922e-003
9.439922e-003
9.439922e-003
9.439922e-003
9.439922e-003
9.439922e-003
9.439922e-003
9.439922e-003
9.439922e-003
9.439922e-003
9.439922e-003
9.439921e-003
9.439922e-003
9.439922e-003
9.439922e-003
9.439922e-003
9.439922e-003
9.439921e-003
9.439921e-003
9.439921e-003
9.439921e-003
9.439921e-003
9.439920e-003
9.439920e-003
9.439921e-003
9.439921e-003
9.439921e-003
9.439920e-003
9.439920e-003
9.439920e-003
9.439920e-003
9.439920e-003
9.439920e-003
9.439920e-003
9.439920e-003
9.439920e-003
9.439920e-003
9.439920e-003
9.439920e-003
9.439920e-003
9.439920e-003
9.439920e-003
9.439920e-003
9.439920e-003
9.439920e-003
9.439920e-003
9.439920e-003
9.439920e-003
9.439920e-003
9.439920e-003
9.439920e-003
9.439920e-003
9.439920e-003
9.439920e-003
9.439920e-003
9.439920e-003
9.439920e-003
9.439920e-003
9.439920e-003
9.439920e-003
9.439919e-003
9.439919e-003
9.439919e-003
9.439919e-003
9.439920e-003
9.439920e-003
9.439920e-003
9.439920e-003
9.439920e-003
9.439920e-003
9.439920e-003
9.439920e-003
9.439920e-003
9.439919e-003
9.439919e-003
9.439919e-003
9.439919e-003
9.439920e-003
9.439920e-003
9.439920e-003
9.439921e-003
9.439921e-003
9.439921e-003
9.439921e-003
9.439921e-003
9.439921e-003
9.439920e-003
9.439920e-003
9.439920e-003
9.439920e-003
9.439920e-003
9.439920e-003
9.439920e-003
9.439921e-003
9.439921e-003
9.439922e-003
9.439922e-003
9.439922e-003
9.439923e-003
9.439923e-003
9.439923e-003
9.439923e-003
9.439923e-003
9.439923e-003
9.439923e-003
9.439924e-003
9.439924e-003
9.439924e-003
9.439924e-003
9.439924e-003
9.439924e-003
9.439924e-003
9.439924e-003
9.439924e-003
9.439924e-003
9.439924e-003
9.439923e-003
9.439923e-003
9.439923e-003
9.439922e-003
9.439922e-003
9.439922e-003
9.439921e-003
9.439921e-003
9.439921e-003
9.439921e-003
9.439920e-003
9.439920e-003
9.439920e-003
9.439920e-003
9.439920e-003
9.439921e-003
9.439921e-003
9.439921e-003
9.439921e-003
9.439921e-003
9.439920e-003
9.439920e-003
9.439920e-003
9.439920e-003
9.439920e-003
9.439920e-003
9.439920e-003
9.439920e-003
9.439920e-003
9.439920e-003
9.439920e-003
9.439920e-003
9.439920e-003
9.439920e-003
9.439920e-003
9.439920e-003
9.439920e-003
9.439920e-003
9.439920e-003
9.439920e-003
9.439920e-003
9.439920e-003
9.439921e-003
9.439920e-003
9.439920e-003
9.439919e-003
9.439919e-003
9.439919e-003
9.439919e-003
9.439920e-003
9.439920e-003
9.439920e-003
9.439920e-003
9.439920e-003
9.439920e-003
9.439920e-003
9.439920e-003
9.439920e-003
9.439919e-003
9.439919e-003
9.439919e-003
9.439919e-003
9.439920e-003
9.439921e-003
9.439921e-003
9.439921e-003
9.439921e-003
9.439921e-003
9.439921e-003
9.439921e-003
9.439921e-003
9.439921e-003
9.439921e-003
9.439921e-003
9.439921e-003
9.439922e-003
9.439922e-003
9.439923e-003
9.439924e-003
9.439924e-003
9.439925e-003
9.439925e-003
9.439926e-003
9.439926e-003
9.439926e-003
9.439926e-003
9.439926e-003
9.439927e-003
9.439927e-003
9.439927e-003
9.439928e-003
9.439928e-003
9.439928e-003
9.439928e-003
9.439928e-003
9.439928e-003
9.439927e-003
9.439927e-003
9.439927e-003
9.439927e-003
9.439926e-003
9.439926e-003
9.439926e-003
9.439925e-003
9.439924e-003
9.439924e-003
9.439923e-003
9.439923e-003
9.439922e-003
9.439922e-003
9.439921e-003
9.439921e-003
9.439921e-003
9.439921e-003
9.439921e-003
9.439921e-003
9.439921e-003
9.439921e-003
9.439921e-003
9.439921e-003
9.439921e-003
9.439920e-003
9.439920e-003
9.439919e-003
9.439919e-003
9.439920e-003
9.439920e-003
9.439920e-003
9.439920e-003
9.439920e-003
9.439920e-003
9.439920e-003
9.439921e-003
9.439921e-003
9.439920e-003
9.439920e-003
9.439919e-003
9.439919e-003
9.439919e-003
9.439920e-003
9.439920e-003
9.439921e-003
9.439921e-003
9.439921e-003
9.439920e-003
9.439920e-003
9.439919e-003
9.439919e-003
9.439920e-003
9.439920e-003
9.439920e-003
9.439920e-003
9.439920e-003
9.439920e-003
9.439920e-003
9.439920e-003
9.439920e-003
9.439920e-003
9.439920e-003
9.439920e-003
9.439919e-003
9.439920e-003
9.439920e-003
9.439921e-003
9.439921e-003
9.439921e-003
9.439921e-003
9.439920e-003
9.439921e-003
9.439921e-003
9.439922e-003
9.439922e-003
9.439923e-003
9.439923e-003
9.439924e-003
9.439925e-003
9.439926e-003
9.439927e-003
9.439928e-003
9.439928e-003
9.439929e-003
9.439930e-003
9.439930e-003
9.439931e-003
9.439931e-003
9.439932e-003
9.439932e-003
9.439933e-003
9.439933e-003
9.439934e-003
9.439934e-003
9.439934e-003
9.439934e-003
9.439934e-003
9.439934e-003
9.439934e-003
9.439933e-003
9.439933e-003
9.439932e-003
9.439932e-003
9.439931e-003
9.439931e-003
9.439930e-003
9.439929e-003
9.439928e-003
9.439928e-003
9.439927e-003
9.439926e-003
9.439925e-003
9.439924e-003
9.439923e-003
9.439923e-003
9.439923e-003
9.439922e-003
9.439922e-003
9.439921e-003
9.439920e-003
9.439920e-003
9.439920e-003
9.439921e-003
9.439920e-003
9.439920e-003
9.439920e-003
9.439920e-003
9.439920e-003
9.439920e-003
9.439920e-003
9.439920e-003
9.439920e-003
9.439920e-003
9.439920e-003
9.439920e-003
9.439920e-003
9.439920e-003
9.439920e-003
9.439920e-003
9.439920e-003
9.439919e-003
9.439920e-003
9.439920e-003
9.439920e-003
9.439921e-003
9.439920e-003
9.439920e-003
9.439920e-003
9.439920e-003
9.439920e-003
9.439920e-003
9.439920e-003
9.439920e-003
9.439920e-003
9.439919e-003
9.439919e-003
9.439919e-003
9.439919e-003
9.439920e-003
9.439920e-003
9.439921e-003
9.439921e-003
9.439921e-003
9.439920e-003
9.439920e-003
9.439920e-003
9.439921e-003
9.439921e-003
9.439920e-003
9.439920e-003
9.439920e-003
9.439921e-003
9.439922e-003
9.439924e-003
9.439925e-003
9.439926e-003
9.439927e-003
9.439928e-003
9.439930e-003
9.439931e-003
9.439933e-003
9.439933e-003
9.439934e-003
9.439935e-003
9.439936e-003
9.439937e-003
9.439938e-003
9.439939e-003
9.439939e-003
9.439940e-003
9.439941e-003
9.439942e-003
9.439942e-003
9.439942e-003
9.439941e-003
9.439941e-003
9.439942e-003
9.439942e-003
9.439942e-003
9.439941e-003
9.439940e-003
9.439939e-003
9.439939e-003
9.439938e-003
9.439938e-003
9.439936e-003
9.439935e-003
9.439934e-003
9.439934e-003
9.439933e-003
9.439932e-003
9.439930e-003
9.439928e-003
9.439927e-003
9.439926e-003
9.439925e-003
9.439924e-003
9.439923e-003
9.439922e-003
9.439921e-003
9.439920e-003
9.439920e-003
9.439920e-003
9.439920e-003
9.439920e-003
9.439920e-003
9.439920e-003
9.439920e-003
9.439921e-003
9.439921e-003
9.439920e-003
9.439920e-003
9.439920e-003
9.439920e-003
9.439920e-003
9.439920e-003
9.439920e-003
9.439920e-003
9.439920e-003
9.439920e-003
9.439920e-003
9.439920e-003
9.439920e-003
9.439920e-003
9.439920e-003
9.439920e-003
9.439920e-003
9.439920e-003
9.439921e-003
9.439921e-003
9.439920e-003
9.439920e-003
9.439920e-003
9.439920e-003
9.439920e-003
9.439919e-003
9.439919e-003
9.439919e-003
9.439919e-003
9.439920e-003
9.439921e-003
9.439921e-003
9.439921e-003
9.439921e-003
9.439921e-003
9.439921e-003
9.439921e-003
9.439921e-003
9.439921e-003
9.439921e-003
9.439922e-003
9.439924e-003
9.439925e-003
9.439927e-003
9.439929e-003
9.439930e-003
9.439932e-003
9.439934e-003
9.439936e-003
9.439938e-003
9.439939e-003
9.439940e-003
9.439941e-003
9.439942e-003
9.439943e-003
9.439945e-003
9.439946e-003
9.439946e-003
9.439946e-003
9.439947e-003
9.439947e-003
9.439947e-003
9.439947e-003
9.439947e-003
9.439946e-003
9.439946e-003
9.439946e-003
9.439947e-003
9.439946e-003
9.439946e-003
9.439945e-003
9.439945e-003
9.439944e-003
9.439944e-003
9.439944e-003
9.439943e-003
9.439942e-003
9.439941e-003
9.439940e-003
9.439939e-003
9.439938e-003
9.439936e-003
9.439934e-003
9.439932e-003
9.439930e-003
9.439929e-003
9.439928e-003
9.439926e-003
9.439924e-003
9.439922e-003
9.439921e-003
9.439921e-003
9.439921e-003
9.439921e-003
9.439921e-003
9.439920e-003
9.439920e-003
9.439921e-003
9.439921e-003
9.439921e-003
9.439920e-003
9.439920e-003
9.439920e-003
9.439919e-003
9.439920e-003
9.439920e-003
9.439920e-003
9.439920e-003
9.439920e-003
9.439920e-003
9.439920e-003
9.439920e-003
9.439920e-003
9.439920e-003
9.439920e-003
9.439919e-003
9.439920e-003
9.439920e-003
9.439921e-003
9.439921e-003
9.439920e-003
9.439920e-003
9.439920e-003
9.439920e-003
9.439920e-003
9.439920e-003
9.439920e-003
9.439919e-003
9.439919e-003
9.439920e-003
9.439920e-003
9.439921e-003
9.439921e-003
9.439921e-003
9.439921e-003
9.439922e-003
9.439922e-003
9.439923e-003
9.439924e-003
9.439925e-003
9.439927e-003
9.439929e-003
9.439931e-003
9.439933e-003
9.439935e-003
9.439937e-003
9.439939e-003
9.439941e-003
9.439943e-003
9.439945e-003
9.439946e-003
9.439946e-003
9.439946e-003
9.439946e-003
9.439945e-003
9.439945e-003
9.439944e-003
9.439942e-003
9.439941e-003
9.439939e-003
9.439937e-003
9.439936e-003
9.439934e-003
9.439932e-003
9.439930e-003
9.439929e-003
9.439929e-003
9.439930e-003
9.439931e-003
9.439931e-003
9.439932e-003
9.439933e-003
9.439935e-003
9.439937e-003
9.439939e-003
9.439940e-003
9.439941e-003
9.439942e-003
9.439943e-003
9.439943e-003
9.439943e-003
9.439941e-003
9.439939e-003
9.439938e-003
9.439936e-003
9.439934e-003
9.439932e-003
9.439930e-003
9.439928e-003
9.439926e-003
9.439924e-003
9.439923e-003
9.439923e-003
9.439922e-003
9.439921e-003
9.439921e-003
9.439921e-003
9.439921e-003
9.439921e-003
9.439920e-003
9.439920e-003
9.439920e-003
9.439920e-003
9.439920e-003
9.439920e-003
9.439920e-003
9.439920e-003
9.439920e-003
9.439920e-003
9.439920e-003
9.439921e-003
9.439921e-003
9.439920e-003
9.439920e-003
9.439919e-003
9.439919e-003
9.439920e-003
9.439920e-003
9.439920e-003
9.439920e-003
9.439920e-003
9.439920e-003
9.439920e-003
9.439920e-003
9.439921e-003
9.439921e-003
9.439921e-003
9.439920e-003
9.439920e-003
9.439920e-003
9.439920e-003
9.439920e-003
9.439920e-003
9.439921e-003
9.439921e-003
9.439923e-003
9.439924e-003
9.439926e-003
9.439928e-003
9.439931e-003
9.439933e-003
9.439936e-003
9.439938e-003
9.439941e-003
9.439943e-003
9.439944e-003
9.439945e-003
9.439946e-003
9.439946e-003
9.439945e-003
9.439942e-003
9.439938e-003
9.439933e-003
9.439927e-003
9.439920e-003
9.439913e-003
9.439905e-003
9.439896e-003
9.439887e-003
9.439878e-003
9.439870e-003
9.439863e-003
9.439856e-003
9.439850e-003
9.439845e-003
9.439843e-003
9.439842e-003
9.439843e-003
9.439846e-003
9.439850e-003
9.439856e-003
9.439863e-003
9.439871e-003
9.439881e-003
9.439891e-003
9.439900e-003
9.439909e-003
9.439918e-003
9.439925e-003
9.439932e-003
9.439936e-003
9.439940e-003
9.439941e-003
9.439942e-003
9.439941e-003
9.439940e-003
9.439939e-003
9.439936e-003
9.439934e-003
9.439931e-003
9.439929e-003
9.439927e-003
9.439925e-003
9.439924e-003
9.439922e-003
9.439922e-003
9.439921e-003
9.439921e-003
9.439920e-003
9.439920e-003
9.439920e-003
9.439920e-003
9.439920e-003
9.439920e-003
9.439920e-003
9.439920e-003
9.439920e-003
9.439920e-003
9.439920e-003
9.439920e-003
9.439921e-003
9.439921e-003
9.439920e-003
9.439920e-003
9.439919e-003
9.439920e-003
9.439920e-003
9.439920e-003
9.439921e-003
9.439920e-003
9.439920e-003
9.439920e-003
9.439920e-003
9.439920e-003
9.439921e-003
9.439921e-003
9.439921e-003
9.439921e-003
9.439920e-003
9.439920e-003
9.439920e-003
9.439920e-003
9.439921e-003
9.439922e-003
9.439923e-003
9.439925e-003
9.439927e-003
9.439931e-003
9.439934e-003
9.439937e-003
9.439940e-003
9.439943e-003
9.439946e-003
9.439947e-003
9.439947e-003
9.439945e-003
9.439942e-003
9.439936e-003
9.439927e-003
9.439914e-003
9.439899e-003
9.439880e-003
9.439858e-003
9.439834e-003
9.439808e-003
9.439780e-003
9.439751e-003
9.439722e-003
9.439693e-003
9.439665e-003
9.439639e-003
9.439616e-003
9.439595e-003
9.439579e-003
9.439566e-003
9.439559e-003
9.439557e-003
9.439560e-003
9.439569e-003
9.439583e-003
9.439602e-003
9.439625e-003
9.439653e-003
9.439683e-003
9.439715e-003
9.439748e-003
9.439781e-003
9.439812e-003
9.439841e-003
9.439867e-003
9.439890e-003
9.439908e-003
9.439922e-003
9.439932e-003
9.439938e-003
9.439941e-003
9.439942e-003
9.439942e-003
9.439940e-003
9.439938e-003
9.439935e-003
9.439932e-003
9.439929e-003
9.439926e-003
9.439924e-003
9.439923e-003
9.439922e-003
9.439921e-003
9.439920e-003
9.439920e-003
9.439920e-003
9.439920e-003
9.439920e-003
9.439921e-003
9.439921e-003
9.439920e-003
9.439920e-003
9.439920e-003
9.439920e-003
9.439920e-003
9.439920e-003
9.439920e-003
9.439920e-003
9.439920e-003
9.439920e-003
9.439920e-003
9.439920e-003
9.439921e-003
9.439921e-003
9.439921e-003
9.439920e-003
9.439920e-003
9.439920e-003
9.439920e-003
9.439920e-003
9.439921e-003
9.439921e-003
9.439921e-003
9.439921e-003
9.439921e-003
9.439921e-003
9.439922e-003
9.439923e-003
9.439924e-003
9.439926e-003
9.439929e-003
9.439933e-003
9.439937e-003
9.439941e-003
9.439944e-003
9.439947e-003
9.439948e-003
9.439947e-003
9.439942e-003
9.439934e-003
9.439919e-003
9.439899e-003
9.439871e-003
9.439834e-003
9.439790e-003
9.439737e-003
9.439677e-003
9.439610e-003
9.439537e-003
9.439459e-003
9.439378e-003
9.439296e-003
9.439215e-003
9.439135e-003
9.439060e-003
9.438990e-003
9.438927e-003
9.438874e-003
9.438831e-003
9.438800e-003
9.438781e-003
9.438776e-003
9.438786e-003
9.438810e-003
9.438848e-003
9.438900e-003
9.438964e-003
9.439038e-003
9.439122e-003
9.439211e-003
9.439304e-003
9.439398e-003
9.439489e-003
9.439575e-003
9.439654e-003
9.439724e-003
9.439784e-003
9.439833e-003
9.439872e-003
9.439901e-003
9.439920e-003
9.439933e-003
9.439940e-003
9.439942e-003
9.439942e-003
9.439940e-003
9.439937e-003
9.439933e-003
9.439930e-003
9.439927e-003
9.439925e-003
9.439924e-003
9.439922e-003
9.439921e-003
9.439921e-003
9.439920e-003
9.439920e-003
9.439921e-003
9.439921e-003
9.439920e-003
9.439920e-003
9.439920e-003
9.439920e-003
9.439920e-003
9.439920e-003
9.439920e-003
9.439920e-003
9.439920e-003
9.439920e-003
9.439920e-003
9.439920e-003
9.439920e-003
9.439921e-003
9.439921e-003
9.439921e-003
9.439921e-003
9.439921e-003
9.439920e-003
9.439920e-003
9.439920e-003
9.439920e-003
9.439920e-003
9.439921e-003
9.439922e-003
9.439922e-003
9.439923e-003
9.439925e-003
9.439927e-003
9.439929e-003
9.439932e-003
9.439936e-003
9.439940e-003
9.439944e-003
9.439947e-003
9.439948e-003
9.439946e-003
9.439938e-003
9.439923e-003
9.439898e-003
9.439861e-003
9.439809e-003
9.439740e-003
9.439651e-003
9.439543e-003
9.439415e-003
9.439268e-003
9.439104e-003
9.438924e-003
9.438732e-003
9.438531e-003
9.438324e-003
9.438116e-003
9.437912e-003
9.437715e-003
9.437529e-003
9.437357e-003
9.437205e-003
9.437076e-003
9.436972e-003
9.436898e-003
9.436855e-003
9.436845e-003
9.436869e-003
9.436929e-003
9.437023e-003
9.437151e-003
9.437309e-003
9.437494e-003
9.437701e-003
9.437925e-003
9.438159e-003
9.438398e-003
9.438632e-003
9.438857e-003
9.439066e-003
9.439255e-003
9.439421e-003
9.439561e-003
9.439675e-003
9.439765e-003
9.439831e-003
9.439878e-003
9.439909e-003
9.439928e-003
9.439939e-003
9.439942e-003
9.439942e-003
9.439939e-003
9.439936e-003
9.439932e-003
9.439929e-003
9.439927e-003
9.439925e-003
9.439923e-003
9.439922e-003
9.439921e-003
9.439921e-003
9.439921e-003
9.439920e-003
9.439920e-003
9.439920e-003
9.439920e-003
9.439920e-003
9.439920e-003
9.439920e-003
9.439920e-003
9.439920e-003
9.439920e-003
9.439920e-003
9.439920e-003
9.439920e-003
9.439920e-003
9.439921e-003
9.439921e-003
9.439922e-003
9.439922e-003
9.439921e-003
9.439921e-003
9.439920e-003
9.439919e-003
9.439919e-003
9.439920e-003
9.439921e-003
9.439922e-003
9.439924e-003
9.439926e-003
9.439928e-003
9.439931e-003
9.439936e-003
9.439940e-003
9.439945e-003
9.439948e-003
9.439949e-003
9.439946e-003
9.439937e-003
9.439916e-003
9.439881e-003
9.439824e-003
9.439742e-003
9.439628e-003
9.439478e-003
9.439286e-003
9.439050e-003
9.438767e-003
9.438441e-003
9.438072e-003
9.437666e-003
9.437229e-003
9.436766e-003
9.436286e-003
9.435798e-003
9.435312e-003
9.434837e-003
9.434382e-003
9.433956e-003
9.433566e-003
9.433220e-003
9.432928e-003
9.432696e-003
9.432530e-003
9.432434e-003
9.432414e-003
9.432471e-003
9.432609e-003
9.432825e-003
9.433117e-003
9.433479e-003
9.433903e-003
9.434381e-003
9.434901e-003
9.435449e-003
9.436009e-003
9.436566e-003
9.437104e-003
9.437611e-003
9.438076e-003
9.438489e-003
9.438845e-003
9.439142e-003
9.439381e-003
9.439565e-003
9.439702e-003
9.439800e-003
9.439865e-003
9.439906e-003
9.439929e-003
9.439939e-003
9.439943e-003
9.439942e-003
9.439939e-003
9.439935e-003
9.439931e-003
9.439928e-003
9.439925e-003
9.439924e-003
9.439923e-003
9.439922e-003
9.439921e-003
9.439920e-003
9.439920e-003
9.439920e-003
9.439920e-003
9.439920e-003
9.439920e-003
9.439920e-003
9.439920e-003
9.439920e-003
9.439920e-003
9.439920e-003
9.439920e-003
9.439920e-003
9.439920e-003
9.439920e-003
9.439921e-003
9.439921e-003
9.439922e-003
9.439922e-003
9.439921e-003
9.439921e-003
9.439920e-003
9.439920e-003
9.439921e-003
9.439922e-003
9.439924e-003
9.439926e-003
9.439929e-003
9.439933e-003
9.439938e-003
9.439943e-003
9.439948e-003
9.439952e-003
9.439950e-003
9.439941e-003
9.439918e-003
9.439876e-003
9.439805e-003
9.439695e-003
9.439534e-003
9.439309e-003
9.439010e-003
9.438626e-003
9.438149e-003
9.437574e-003
9.436899e-003
9.436130e-003
9.435273e-003
9.434341e-003
9.433347e-003
9.432308e-003
9.431241e-003
9.430166e-003
9.429103e-003
9.428071e-003
9.427090e-003
9.426175e-003
9.425344e-003
9.424613e-003
9.423996e-003
9.423509e-003
9.423162e-003
9.422965e-003
9.422926e-003
9.423052e-003
9.423346e-003
9.423807e-003
9.424429e-003
9.425202e-003
9.426113e-003
9.427143e-003
9.428269e-003
9.429463e-003
9.430694e-003
9.431928e-003
9.433134e-003
9.434281e-003
9.435343e-003
9.436300e-003
9.437136e-003
9.437844e-003
9.438425e-003
9.438884e-003
9.439235e-003
9.439492e-003
9.439673e-003
9.439793e-003
9.439868e-003
9.439911e-003
9.439933e-003
9.439942e-003
9.439944e-003
9.439941e-003
9.439936e-003
9.439932e-003
9.439928e-003
9.439926e-003
9.439924e-003
9.439923e-003
9.439921e-003
9.439920e-003
9.439920e-003
9.439920e-003
9.439920e-003
9.439920e-003
9.439921e-003
9.439920e-003
9.439920e-003
9.439920e-003
9.439920e-003
9.439920e-003
9.439920e-003
9.439921e-003
9.439920e-003
9.439920e-003
9.439920e-003
9.439921e-003
9.439921e-003
9.439921e-003
9.439922e-003
9.439922e-003
9.439921e-003
9.439922e-003
9.439922e-003
9.439924e-003
9.439926e-003
9.439930e-003
9.439934e-003
9.439939e-003
9.439945e-003
9.439950e-003
9.439952e-003
9.439947e-003
9.439928e-003
9.439887e-003
9.439812e-003
9.439686e-003
9.439490e-003
9.439201e-003
9.438794e-003
9.438244e-003
9.437528e-003
9.436627e-003
9.435527e-003
9.434223e-003
9.432717e-003
9.431022e-003
9.429158e-003
9.427154e-003
9.425042e-003
9.422858e-003
9.420641e-003
9.418430e-003
9.416265e-003
9.414183e-003
9.412218e-003
9.410402e-003
9.408764e-003
9.407334e-003
9.406135e-003
9.405193e-003
9.404528e-003
9.404155e-003
9.404091e-003
9.404346e-003
9.404927e-003
9.405832e-003
9.407056e-003
9.408583e-003
9.410390e-003
9.412445e-003
9.414707e-003
9.417127e-003
9.419645e-003
9.422198e-003
9.424719e-003
9.427147e-003
9.429423e-003
9.431498e-003
9.433336e-003
9.434916e-003
9.436231e-003
9.437290e-003
9.438114e-003
9.438733e-003
9.439179e-003
9.439486e-003
9.439688e-003
9.439813e-003
9.439886e-003
9.439924e-003
9.439940e-003
9.439944e-003
9.439941e-003
9.439937e-003
9.439933e-003
9.439929e-003
9.439926e-003
9.439924e-003
9.439922e-003
9.439921e-003
9.439920e-003
9.439920e-003
9.439920e-003
9.439921e-003
9.439921e-003
9.439920e-003
9.439920e-003
9.439920e-003
9.439920e-003
9.439920e-003
9.439920e-003
9.439922e-003
9.439922e-003
9.439921e-003
9.439920e-003
9.439920e-003
9.439920e-003
9.439921e-003
9.439921e-003
9.439922e-003
9.439923e-003
9.439923e-003
9.439925e-003
9.439927e-003
9.439931e-003
9.439936e-003
9.439941e-003
9.439947e-003
9.439951e-003
9.439951e-003
9.439940e-003
9.439909e-003
9.439842e-003
9.439720e-003
9.439515e-003
9.439192e-003
9.438711e-003
9.438022e-003
9.437077e-003
9.435827e-003
9.434229e-003
9.432251e-003
9.429875e-003
9.427101e-003
9.423947e-003
9.420451e-003
9.416666e-003
9.412656e-003
9.408495e-003
9.404258e-003
9.400022e-003
9.395860e-003
9.391843e-003
9.388033e-003
9.384485e-003
9.381248e-003
9.378366e-003
9.375878e-003
9.373818e-003
9.372218e-003
9.371103e-003
9.370498e-003
9.370422e-003
9.370891e-003
9.371917e-003
9.373504e-003
9.375649e-003
9.378337e-003
9.381542e-003
9.385222e-003
9.389321e-003
9.393764e-003
9.398456e-003
9.403290e-003
9.408145e-003
9.412898e-003
9.417430e-003
9.421632e-003
9.425416e-003
9.428722e-003
9.431520e-003
9.433811e-003
9.435625e-003
9.437010e-003
9.438028e-003
9.438748e-003
9.439235e-003
9.439550e-003
9.439743e-003
9.439853e-003
9.439910e-003
9.439935e-003
9.439943e-003
9.439942e-003
9.439938e-003
9.439934e-003
9.439930e-003
9.439927e-003
9.439924e-003
9.439922e-003
9.439921e-003
9.439921e-003
9.439921e-003
9.439920e-003
9.439920e-003
9.439920e-003
9.439920e-003
9.439920e-003
9.439920e-003
9.439920e-003
9.439920e-003
9.439923e-003
9.439923e-003
9.439921e-003
9.439920e-003
9.439919e-003
9.439919e-003
9.439920e-003
9.439921e-003
9.439922e-003
9.439924e-003
9.439926e-003
9.439928e-003
9.439932e-003
9.439937e-003
9.439943e-003
9.439949e-003
9.439953e-003
9.439950e-003
9.439932e-003
9.439884e-003
9.439785e-003
9.439603e-003
9.439293e-003
9.438798e-003
9.438047e-003
9.436953e-003
9.435425e-003
9.433368e-003
9.430697e-003
9.427343e-003
9.423264e-003
9.418455e-003
9.412949e-003
9.406818e-003
9.400169e-003
9.393135e-003
9.385862e-003
9.378504e-003
9.371207e-003
9.364108e-003
9.357325e-003
9.350960e-003
9.345094e-003
9.339787e-003
9.335086e-003
9.331021e-003
9.327614e-003
9.324878e-003
9.322822e-003
9.321452e-003
9.320776e-003
9.320802e-003
9.321544e-003
9.323019e-003
9.325245e-003
9.328242e-003
9.332030e-003
9.336616e-003
9.341996e-003
9.348143e-003
9.354997e-003
9.362460e-003
9.370392e-003
9.378614e-003
9.386917e-003
9.395070e-003
9.402844e-003
9.410030e-003
9.416462e-003
9.422027e-003
9.426679e-003
9.430432e-003
9.433351e-003
9.435538e-003
9.437114e-003
9.438205e-003
9.438928e-003
9.439386e-003
9.439661e-003
9.439815e-003
9.439894e-003
9.439930e-003
9.439942e-003
9.439943e-003
9.439939e-003
9.439934e-003
9.439930e-003
9.439927e-003
9.439924e-003
9.439923e-003
9.439922e-003
9.439921e-003
9.439920e-003
9.439920e-003
9.439920e-003
9.439920e-003
9.439920e-003
9.439920e-003
9.439920e-003
9.439920e-003
9.439923e-003
9.439923e-003
9.439922e-003
9.439921e-003
9.439920e-003
9.439919e-003
9.439920e-003
9.439921e-003
9.439923e-003
9.439925e-003
9.439928e-003
9.439932e-003
9.439937e-003
9.439944e-003
9.439951e-003
9.439955e-003
9.439950e-003
9.439924e-003
9.439859e-003
9.439723e-003
9.439471e-003
9.439034e-003
9.438322e-003
9.437219e-003
9.435582e-003
9.433250e-003
9.430055e-003
9.425838e-003
9.420469e-003
9.413873e-003
9.406046e-003
9.397068e-003
9.387106e-003
9.376401e-003
9.365248e-003
9.353971e-003
9.342892e-003
9.332305e-003
9.322459e-003
9.313546e-003
9.305697e-003
9.298982e-003
9.293419e-003
9.288973e-003
9.285573e-003
9.283115e-003
9.281476e-003
9.280523e-003
9.280123e-003
9.280152e-003
9.280508e-003
9.281115e-003
9.281939e-003
9.282987e-003
9.284319e-003
9.286044e-003
9.288322e-003
9.291345e-003
9.295328e-003
9.300474e-003
9.306946e-003
9.314835e-003
9.324127e-003
9.334686e-003
9.346248e-003
9.358434e-003
9.370789e-003
9.382829e-003
9.394102e-003
9.404240e-003
9.412996e-003
9.420258e-003
9.426043e-003
9.430470e-003
9.433725e-003
9.436022e-003
9.437578e-003
9.438587e-003
9.439211e-003
9.439577e-003
9.439778e-003
9.439880e-003
9.439926e-003
9.439942e-003
9.439944e-003
9.439940e-003
9.439934e-003
9.439930e-003
9.439926e-003
9.439924e-003
9.439923e-003
9.439921e-003
9.439920e-003
9.439920e-003
9.439920e-003
9.439920e-003
9.439920e-003
9.439920e-003
9.439920e-003
9.439920e-003
9.439921e-003
9.439921e-003
9.439921e-003
9.439921e-003
9.439921e-003
9.439921e-003
9.439921e-003
9.439923e-003
9.439925e-003
9.439928e-003
9.439932e-003
9.439937e-003
9.439944e-003
9.439951e-003
9.439955e-003
9.439949e-003
9.439917e-003
9.439836e-003
9.439664e-003
9.439337e-003
9.438759e-003
9.437797e-003
9.436271e-003
9.433958e-003
9.430596e-003
9.425903e-003
9.419609e-003
9.411497e-003
9.401459e-003
9.389542e-003
9.375982e-003
9.361215e-003
9.345854e-003
9.330637e-003
9.316349e-003
9.303745e-003
9.293472e-003
9.286014e-003
9.281666e-003
9.280524e-003
9.282496e-003
9.287331e-003
9.294637e-003
9.303914e-003
9.314579e-003
9.325989e-003
9.337475e-003
9.348364e-003
9.358008e-003
9.365818e-003
9.371287e-003
9.374026e-003
9.373793e-003
9.370522e-003
9.364357e-003
9.355664e-003
9.345043e-003
9.333309e-003
9.321447e-003
9.310548e-003
9.301710e-003
9.295922e-003
9.293945e-003
9.296207e-003
9.302729e-003
9.313101e-003
9.326535e-003
9.341968e-003
9.358221e-003
9.374169e-003
9.388880e-003
9.401718e-003
9.412357e-003
9.420759e-003
9.427096e-003
9.431669e-003
9.434829e-003
9.436921e-003
9.438246e-003
9.439045e-003
9.439502e-003
9.439748e-003
9.439870e-003
9.439924e-003
9.439942e-003
9.439943e-003