# vtk DataFile Version 3.0
vtk output
ASCII
DATASET STRUCTURED_POINTS
DIMENSIONS 100 100 1
SPACING 1 1 1
ORIGIN 0 0 0
POINT_DATA 10000
SCALARS SFBox_profile double
LOOKUP_TABLE default 
0.000000e+000
0.000000e+000
0.000000e+000
0.000000e+000
0.000000e+000
0.000000e+000
0.000000e+000
0.000000e+000
0.000000e+000
0.000000e+000
0.000000e+000
0.000000e+000
0.000000e+000
0.000000e+000
0.000000e+000
0.000000e+000
0.000000e+000
0.000000e+000
0.000000e+000
0.000000e+000
0.000000e+000
0.000000e+000
0.000000e+000
0.000000e+000
0.000000e+000
0.000000e+000
0.000000e+000
0.000000e+000
0.000000e+000
0.000000e+000
0.000000e+000
0.000000e+000
0.000000e+000
0.000000e+000
0.000000e+000
0.000000e+000
0.000000e+000
0.000000e+000
0.000000e+000
0.000000e+000
0.000000e+000
0.000000e+000
0.000000e+000
0.000000e+000
0.000000e+000
0.000000e+000
0.000000e+000
0.000000e+000
0.000000e+000
0.000000e+000
0.000000e+000
0.000000e+000
0.000000e+000
0.000000e+000
0.000000e+000
0.000000e+000
0.000000e+000
0.000000e+000
0.000000e+000
0.000000e+000
0.000000e+000
0.000000e+000
0.000000e+000
0.000000e+000
0.000000e+000
0.000000e+000
0.000000e+000
0.000000e+000
0.000000e+000
0.000000e+000
0.000000e+000
0.000000e+000
0.000000e+000
0.000000e+000
0.000000e+000
0.000000e+000
0.000000e+000
0.000000e+000
0.000000e+000
0.000000e+000
0.000000e+000
0.000000e+000
0.000000e+000
0.000000e+000
0.000000e+000
0.000000e+000
0.000000e+000
0.000000e+000
0.000000e+000
0.000000e+000
0.000000e+000
0.000000e+000
0.000000e+000
0.000000e+000
0.000000e+000
0.000000e+000
0.000000e+000
0.000000e+000
0.000000e+000
0.000000e+000
7.356112e-011
6.529165e-011
5.015445e-011
3.066747e-011
9.961542e-012
-8.821145e-012
-2.309490e-011
-3.124179e-011
-3.280225e-011
-2.842133e-011
-1.959964e-011
-8.316372e-012
3.378617e-012
1.372669e-011
2.151493e-011
2.619590e-011
2.787126e-011
2.716655e-011
2.504042e-011
2.257691e-011
2.081004e-011
2.060861e-011
2.263102e-011
2.733693e-011
3.502447e-011
4.586727e-011
5.993000e-011
7.716264e-011
9.738533e-011
1.202830e-010
1.454181e-010
1.722692e-010
2.002796e-010
2.289054e-010
2.576508e-010
2.860812e-010
3.138206e-010
3.405339e-010
3.659080e-010
3.896331e-010
4.113933e-010
4.308650e-010
4.477216e-010
4.616466e-010
4.723471e-010
4.795698e-010
4.831140e-010
4.828422e-010
4.786861e-010
4.706503e-010
4.588112e-010
4.433171e-010
4.243866e-010
4.023090e-010
3.774449e-010
3.502252e-010
3.211480e-010
2.907705e-010
2.596934e-010
2.285400e-010
1.979319e-010
1.684628e-010
1.406760e-010
1.150445e-010
9.195759e-011
7.170914e-011
5.448734e-011
4.036513e-011
2.929069e-011
2.108212e-011
1.542957e-011
1.190683e-011
9.999597e-012
9.143273e-012
8.776232e-012
8.395911e-012
7.617361e-012
6.222078e-012
4.185900e-012
1.678436e-012
-9.749925e-013
-3.365200e-012
-5.096319e-012
-5.884890e-012
-5.636204e-012
-4.475493e-012
-2.721143e-012
-8.057279e-013
8.358769e-013
1.878111e-012
2.184441e-012
1.830965e-012
1.067811e-012
2.296919e-013
-3.748926e-013
-5.595657e-013
-3.116943e-013
2.185227e-013
7.841258e-013
1.141142e-012
5.442907e-011
4.832404e-011
3.715845e-011
2.280155e-011
7.561361e-012
-6.270206e-012
-1.683615e-011
-2.300591e-011
-2.449120e-011
-2.178247e-011
-1.594352e-011
-8.328296e-012
-2.846326e-013
7.090464e-012
1.311795e-011
1.760066e-011
2.079497e-011
2.331112e-011
2.596561e-011
2.962655e-011
3.508379e-011
4.296423e-011
5.370583e-011
6.757450e-011
8.470717e-011
1.051495e-010
1.288753e-010
1.557795e-010
1.856595e-010
2.181991e-010
2.529685e-010
2.894483e-010
3.270668e-010
3.652421e-010
4.034136e-010
4.410607e-010
4.777016e-010
5.128854e-010
5.461782e-010
5.771535e-010
6.053873e-010
6.304608e-010
6.519694e-010
6.695342e-010
6.828162e-010
6.915279e-010
6.954473e-010
6.944242e-010
6.883873e-010
6.773464e-010
6.613929e-010
6.406992e-010
6.155190e-010
5.861870e-010
5.531209e-010
5.168237e-010
4.778820e-010
4.369613e-010
3.947935e-010
3.521567e-010
3.098462e-010
2.686436e-010
2.292821e-010
1.924159e-010
1.585930e-010
1.282355e-010
1.016247e-010
7.889220e-011
6.001810e-011
4.483331e-011
3.303304e-011
2.419714e-011
1.781985e-011
1.334760e-011
1.022314e-011
7.930327e-012
6.039081e-012
4.243379e-012
2.384287e-012
4.542269e-013
-1.424979e-012
-3.048753e-012
-4.194911e-012
-4.693288e-012
-4.482991e-012
-3.640520e-012
-2.370239e-012
-9.578252e-013
2.994486e-013
1.167916e-012
1.533548e-012
1.425678e-012
9.955322e-013
4.620230e-013
3.806588e-014
-1.370740e-013
-3.647064e-014
2.554387e-013
5.864239e-013
7.999809e-013
2.142497e-011
1.902991e-011
1.467018e-011
9.099940e-012
3.217922e-012
-2.131472e-012
-6.322460e-012
-9.031965e-012
-1.023745e-011
-1.013739e-011
-9.031674e-012
-7.196472e-012
-4.789716e-012
-1.793002e-012
2.002423e-012
6.978007e-012
1.364899e-011
2.260970e-011
3.447160e-011
4.979790e-011
6.904340e-011
9.251503e-011
1.203580e-010
1.525723e-010
1.890443e-010
2.295842e-010
2.739454e-010
3.218275e-010
3.728579e-010
4.265746e-010
4.824165e-010
5.397325e-010
5.978096e-010
6.559060e-010
7.132847e-010
7.692331e-010
8.230750e-010
8.741688e-010
9.219056e-010
9.657085e-010
1.005034e-009
1.039380e-009
1.068291e-009
1.091371e-009
1.108286e-009
1.118769e-009
1.122628e-009
1.119741e-009
1.110061e-009
1.093612e-009
1.070494e-009
1.040876e-009
1.005003e-009
9.631978e-010
9.158707e-010
8.635321e-010
8.068067e-010
7.464438e-010
6.833214e-010
6.184369e-010
5.528837e-010
4.878108e-010
4.243710e-010
3.636617e-010
3.066667e-010
2.542032e-010
2.068833e-010
1.650904e-010
1.289741e-010
9.846222e-011
7.328819e-011
5.302900e-011
3.714891e-011
2.504607e-011
1.609355e-011
9.677285e-012
5.225613e-012
2.232418e-012
2.735737e-013
-9.834143e-013
-1.778980e-012
-2.267069e-012
-2.532150e-012
-2.608090e-012
-2.502800e-012
-2.221559e-012
-1.783672e-012
-1.232327e-012
-6.343032e-013
-6.864412e-014
3.912497e-013
6.952858e-013
8.294626e-013
8.168453e-013
7.079942e-013
5.614725e-013
4.258071e-013
3.271307e-013
2.702994e-013
2.462761e-013
-1.642537e-011
-1.461768e-011
-1.127390e-011
-6.906334e-012
-2.207741e-012
2.048385e-012
5.137593e-012
6.526704e-012
6.005457e-012
3.767755e-012
4.239139e-013
-3.062915e-012
-5.504186e-012
-5.639457e-012
-2.276786e-012
5.610790e-012
1.884918e-011
3.807566e-011
6.377469e-011
9.630794e-011
1.359197e-010
1.827164e-010
2.366353e-010
2.974194e-010
3.646157e-010
4.375935e-010
5.155781e-010
5.976820e-010
6.829295e-010
7.702736e-010
8.586138e-010
9.468189e-010
1.033760e-009
1.118347e-009
1.199562e-009
1.276485e-009
1.348303e-009
1.414321e-009
1.473953e-009
1.526725e-009
1.572278e-009
1.610357e-009
1.640816e-009
1.663599e-009
1.678732e-009
1.686294e-009
1.686399e-009
1.679174e-009
1.664731e-009
1.643159e-009
1.614503e-009
1.578767e-009
1.535913e-009
1.485880e-009
1.428617e-009
1.364134e-009
1.292563e-009
1.214230e-009
1.129723e-009
1.039939e-009
9.461002e-010
8.497347e-010
7.526089e-010
6.566258e-010
5.636977e-010
4.756116e-010
3.939063e-010
3.197753e-010
2.540105e-010
1.969884e-010
1.486959e-010
1.087897e-010
7.667235e-011
5.157522e-011
3.263247e-011
1.894017e-011
9.596593e-012
3.726136e-012
4.939271e-013
-8.791447e-013
-1.098100e-012
-7.640434e-013
-3.409450e-013
-1.258304e-013
-2.373948e-013
-6.305050e-013
-1.142698e-012
-1.564782e-012
-1.715437e-012
-1.504530e-012
-9.589456e-013
-2.124950e-013
5.418627e-013
1.113625e-012
1.373217e-012
1.287502e-012
9.244738e-013
4.267346e-013
-3.348019e-014
-3.064764e-013
-4.890146e-011
-4.357425e-011
-3.378529e-011
-2.111277e-011
-7.569590e-012
4.758590e-012
1.409180e-011
1.928731e-011
2.005920e-011
1.704659e-011
1.172106e-011
6.157995e-012
2.725738e-012
3.772477e-012
1.136935e-011
2.716974e-011
5.238476e-011
8.785396e-011
1.341521e-010
1.916732e-010
2.606460e-010
3.410750e-010
4.326323e-010
5.345497e-010
6.455549e-010
7.638846e-010
8.873692e-010
1.013568e-009
1.139923e-009
1.263908e-009
1.383146e-009
1.495512e-009
1.599198e-009
1.692762e-009
1.775154e-009
1.845718e-009
1.904176e-009
1.950610e-009
1.985426e-009
2.009322e-009
2.023260e-009
2.028422e-009
2.026167e-009
2.017963e-009
2.005318e-009
1.989689e-009
1.972386e-009
1.954482e-009
1.936717e-009
1.919420e-009
1.902452e-009
1.885164e-009
1.866400e-009
1.844537e-009
1.817577e-009
1.783299e-009
1.739465e-009
1.684065e-009
1.615576e-009
1.533212e-009
1.437102e-009
1.328392e-009
1.209215e-009
1.082554e-009
9.519906e-010
8.213862e-010
6.945365e-010
5.748501e-010
4.650949e-010
3.672395e-010
2.824009e-010
2.108907e-010
1.523358e-010
1.058434e-010
7.017423e-011
4.389798e-011
2.551078e-011
1.351396e-011
6.457931e-012
2.971319e-012
1.793892e-012
1.822702e-012
2.174360e-012
2.245835e-012
1.750798e-012
7.106880e-013
-6.162937e-013
-1.851572e-012
-2.635247e-012
-2.747450e-012
-2.175236e-012
-1.110104e-012
1.216065e-013
1.165694e-012
1.751092e-012
1.767516e-012
1.289087e-012
5.385176e-013
-1.908346e-013
-6.329208e-013
-6.751001e-011
-6.029328e-011
-4.705081e-011
-2.993171e-011
-1.162646e-011
5.153653e-012
1.819806e-011
2.622023e-011
2.910735e-011
2.796045e-011
2.493042e-011
2.290171e-011
2.509723e-011
3.469292e-011
5.451926e-011
8.689088e-011
1.335705e-010
1.958236e-010
2.744950e-010
3.700315e-010
4.824018e-010
6.109107e-010
7.539627e-010
9.088578e-010
1.071711e-009
1.237552e-009
1.400604e-009
1.554706e-009
1.693784e-009
1.812311e-009
1.905669e-009
1.970412e-009
2.004396e-009
2.006812e-009
1.978139e-009
1.920037e-009
1.835212e-009
1.727271e-009
1.600582e-009
1.460134e-009
1.311420e-009
1.160297e-009
1.012844e-009
8.751875e-010
7.532890e-010
6.527047e-010
5.783145e-010
5.340364e-010
5.225437e-010
5.450004e-010
6.008417e-010
6.876201e-010
8.009497e-010
9.345732e-010
1.080581e-009
1.229798e-009
1.372340e-009
1.498308e-009
1.598588e-009
1.665641e-009
1.694213e-009
1.681848e-009
1.629122e-009
1.539539e-009
1.419117e-009
1.275692e-009
1.118065e-009
9.550961e-010
7.948916e-010
6.441770e-010
5.079165e-010
3.891988e-010
2.893545e-010
2.082445e-010
1.446358e-010
9.659155e-011
6.180749e-011
3.786958e-011
2.241967e-011
1.325557e-011
8.392971e-012
6.121208e-012
5.064850e-012
4.244896e-012
3.114185e-012
1.540183e-012
-2.793048e-013
-1.959144e-012
-3.100470e-012
-3.439411e-012
-2.941896e-012
-1.808903e-012
-4.086371e-013
8.474449e-013
1.629866e-012
1.787118e-012
1.378352e-012
6.380621e-013
-1.122650e-013
-5.746181e-013
-6.790100e-011
-6.086251e-011
-4.794945e-011
-3.123764e-011
-1.326849e-011
3.494515e-012
1.718709e-011
2.694689e-011
3.313154e-011
3.733120e-011
4.220016e-011
5.116043e-011
6.804260e-011
9.672941e-011
1.408466e-010
2.035257e-010
2.872282e-010
3.935952e-010
5.232691e-010
6.756385e-010
8.484898e-010
1.037605e-009
1.236403e-009
1.435763e-009
1.624154e-009
1.788143e-009
1.913270e-009
1.985161e-009
1.990730e-009
1.919262e-009
1.763254e-009
1.518915e-009
1.186333e-009
7.693389e-010
2.751703e-010
-2.859986e-010
-9.015647e-010
-1.556991e-009
-2.236249e-009
-2.922195e-009
-3.596908e-009
-4.242001e-009
-4.838960e-009
-5.369543e-009
-5.816261e-009
-6.162959e-009
-6.395482e-009
-6.502419e-009
-6.475866e-009
-6.312172e-009
-6.012603e-009
-5.583848e-009
-5.038289e-009
-4.393967e-009
-3.674147e-009
-2.906443e-009
-2.121480e-009
-1.351125e-009
-6.264038e-010
2.471883e-011
5.794540e-010
1.021925e-009
1.344278e-009
1.546985e-009
1.638287e-009
1.632830e-009
1.549718e-009
1.410260e-009
1.235741e-009
1.045511e-009
8.556091e-010
6.780248e-010
5.205720e-010
3.872687e-010
2.790506e-010
1.946263e-010
1.313138e-010
8.574269e-011
5.436913e-011
3.380853e-011
2.102727e-011
1.344542e-011
8.995734e-012
6.155920e-012
3.950567e-012
1.905294e-012
-5.233859e-014
-1.743930e-012
-2.908711e-012
-3.354970e-012
-3.054960e-012
-2.166997e-012
-9.872988e-013
1.431665e-013
9.413628e-013
1.261206e-012
1.123857e-012
6.936398e-013
2.105776e-013
-9.842954e-014
-5.104915e-011
-4.605320e-011
-3.686394e-011
-2.487248e-011
-1.168743e-011
1.299060e-012
1.330791e-011
2.445848e-011
3.591385e-011
4.988743e-011
6.954686e-011
9.883875e-011
1.422546e-010
2.045261e-010
2.902350e-010
4.033080e-010
5.463880e-010
7.200792e-010
9.220883e-010
1.146318e-009
1.382009e-009
1.613070e-009
1.817806e-009
1.969212e-009
2.036003e-009
1.984400e-009
1.780531e-009
1.393187e-009
7.965355e-010
-2.756807e-011
-1.087982e-009
-2.383528e-009
-3.903075e-009
-5.626322e-009
-7.525046e-009
-9.564576e-009
-1.170529e-008
-1.390395e-008
-1.611486e-008
-1.829074e-008
-2.038346e-008
-2.234467e-008
-2.412641e-008
-2.568199e-008
-2.696687e-008
-2.794001e-008
-2.856534e-008
-2.881350e-008
-2.866371e-008
-2.810567e-008
-2.714130e-008
-2.578616e-008
-2.407045e-008
-2.203920e-008
-1.975159e-008
-1.727917e-008
-1.470300e-008
-1.210947e-008
-9.585424e-009
-7.212490e-009
-5.061571e-009
-3.187886e-009
-1.627335e-009
-3.946850e-010
5.161313e-010
1.129627e-009
1.484652e-009
1.629184e-009
1.614803e-009
1.491595e-009
1.304120e-009
1.088783e-009
8.727086e-010
6.739202e-010
5.025005e-010
3.622980e-010
2.527885e-010
1.707798e-010
1.117848e-010
7.099173e-011
4.387358e-011
2.651248e-011
1.573474e-011
9.130203e-012
5.001265e-012
2.265713e-012
3.274384e-013
-1.073131e-012
-2.004792e-012
-2.469062e-012
-2.485195e-012
-2.128199e-012
-1.527831e-012
-8.404328e-013
-2.097138e-013
2.661081e-013
5.524524e-013
6.745700e-013
6.958563e-013
6.845902e-013
-2.280105e-011
-2.092732e-011
-1.739546e-011
-1.249705e-011
-6.368069e-012
1.258957e-012
1.125480e-011
2.521736e-011
4.553336e-011
7.540837e-011
1.188850e-010
1.808175e-010
2.667178e-010
3.823430e-010
5.328925e-010
7.217296e-010
9.486193e-010
1.207591e-009
1.484632e-009
1.755511e-009
1.984105e-009
2.121624e-009
2.107100e-009
1.869429e-009
1.331023e-009
4.129222e-010
-9.591297e-010
-2.848336e-009
-5.301060e-009
-8.342345e-009
-1.197329e-008
-1.617044e-008
-2.088716e-008
-2.605635e-008
-3.159421e-008
-3.740423e-008
-4.338102e-008
-4.941356e-008
-5.538777e-008
-6.118835e-008
-6.670014e-008
-7.180914e-008
-7.640357e-008
-8.037522e-008
-8.362133e-008
-8.604705e-008
-8.756860e-008
-8.811702e-008
-8.764232e-008
-8.611786e-008
-8.354456e-008
-7.995456e-008
-7.541399e-008
-7.002420e-008
-6.392115e-008
-5.727229e-008
-5.027080e-008
-4.312705e-008
-3.605753e-008
-2.927203e-008
-2.296019e-008
-1.727888e-008
-1.234197e-008
-8.213983e-009
-4.908520e-009
-2.391736e-009
-5.903313e-010
5.972017e-010
1.287795e-009
1.601326e-009
1.650028e-009
1.530864e-009
1.321297e-009
1.078247e-009
8.395835e-010
6.272614e-010
4.511878e-010
3.130631e-010
2.096925e-010
1.355203e-010
8.435669e-011
5.040262e-011
2.874871e-011
1.551952e-011
7.816652e-012
3.564037e-012
1.331931e-012
1.767319e-013
-4.849144e-013
-9.677463e-013
-1.391608e-012
-1.743251e-012
-1.941796e-012
-1.898646e-012
-1.567454e-012
-9.738350e-013
-2.148497e-013
5.604744e-013
1.191253e-012
1.543674e-012
8.112176e-012
6.928849e-012
4.995873e-012
3.248855e-012
3.221829e-012
7.117859e-012
1.782482e-011
3.889486e-011
7.453414e-011
1.296480e-010
2.099090e-010
3.217115e-010
4.717633e-010
6.659991e-010
9.075219e-010
1.193413e-009
1.510463e-009
1.830169e-009
2.103602e-009
2.257001e-009
2.189049e-009
1.770764e-009
8.487196e-010
-7.480455e-010
-3.197666e-009
-6.672425e-009
-1.132446e-008
-1.727192e-008
-2.458734e-008
-3.328976e-008
-4.334142e-008
-5.464904e-008
-6.706931e-008
-8.041720e-008
-9.447572e-008
-1.090059e-007
-1.237556e-007
-1.384668e-007
-1.528807e-007
-1.667412e-007
-1.797967e-007
-1.918016e-007
-2.025173e-007
-2.117145e-007
-2.191755e-007
-2.246994e-007
-2.281073e-007
-2.292502e-007
-2.280172e-007
-2.243448e-007
-2.182259e-007
-2.097188e-007
-1.989539e-007
-1.861385e-007
-1.715573e-007
-1.555682e-007
-1.385928e-007
-1.211000e-007
-1.035838e-007
-8.653605e-008
-7.041625e-008
-5.562194e-008
-4.246244e-008
-3.114024e-008
-2.174234e-008
-1.424316e-008
-8.518370e-009
-4.367520e-009
-1.541812e-009
2.271956e-010
1.201805e-009
1.618256e-009
1.674103e-009
1.522942e-009
1.275301e-009
1.003898e-009
7.512409e-010
5.378113e-010
3.695616e-010
2.439925e-010
1.545756e-010
9.361908e-011
5.387415e-011
2.924302e-011
1.492831e-011
7.302513e-012
3.690560e-012
2.177139e-012
1.471675e-012
8.208184e-013
-7.228682e-014
-1.154269e-012
-2.162434e-012
-2.782570e-012
-2.790704e-012
-2.142151e-012
-9.931797e-013
3.487065e-013
1.516219e-012
2.190473e-012
3.302706e-011
3.004500e-011
2.506926e-011
2.012066e-011
1.829616e-011
2.376623e-011
4.170471e-011
7.818411e-011
1.400859e-010
2.350262e-010
3.711576e-010
5.565263e-010
7.974714e-010
1.095481e-009
1.441990e-009
1.810900e-009
2.149068e-009
2.365645e-009
2.321756e-009
1.822525e-009
6.136545e-010
-1.615431e-009
-5.220523e-009
-1.058341e-008
-1.808564e-008
-2.807773e-008
-4.084753e-008
-5.659167e-008
-7.539405e-008
-9.721393e-008
-1.218849e-007
-1.491240e-007
-1.785490e-007
-2.097008e-007
-2.420675e-007
-2.751067e-007
-3.082652e-007
-3.409929e-007
-3.727521e-007
-4.030227e-007
-4.313038e-007
-4.571141e-007
-4.799918e-007
-4.994959e-007
-5.152096e-007
-5.267469e-007
-5.337621e-007
-5.359622e-007
-5.331223e-007
-5.251031e-007
-5.118685e-007
-4.935048e-007
-4.702365e-007
-4.424398e-007
-4.106492e-007
-3.755564e-007
-3.379976e-007
-2.989275e-007
-2.593804e-007
-2.204179e-007
-1.830667e-007
-1.482534e-007
-1.167422e-007
-8.908482e-008
-6.558998e-008
-4.631672e-008
-3.109372e-008
-1.956054e-008
-1.122409e-008
-5.521124e-009
-1.877545e-009
2.429140e-010
1.305035e-009
1.684573e-009
1.665069e-009
1.445435e-009
1.154042e-009
8.653456e-010
6.160021e-010
4.185803e-010
2.720407e-010
1.689636e-010
9.999736e-011
5.621628e-011
3.009264e-011
1.568996e-011
8.511973e-012
5.280240e-012
3.749313e-012
2.568248e-012
1.142752e-012
-5.434019e-013
-2.157521e-012
-3.265077e-012
-3.543623e-012
-2.916380e-012
-1.580584e-012
5.806463e-014
1.512557e-012
2.359637e-012
4.636494e-011
4.379570e-011
4.001792e-011
3.785417e-011
4.172894e-011
5.776471e-011
9.377103e-011
1.591038e-010
2.643591e-010
4.207570e-010
6.388402e-010
9.258218e-010
1.280654e-009
1.685808e-009
2.094961e-009
2.416421e-009
2.493088e-009
2.081075e-009
8.304064e-010
-1.727761e-009
-6.182619e-009
-1.322981e-008
-2.363981e-008
-3.820915e-008
-5.769818e-008
-8.276226e-008
-1.138854e-007
-1.513254e-007
-1.950789e-007
-2.448704e-007
-3.001654e-007
-3.602050e-007
-4.240554e-007
-4.906636e-007
-5.589127e-007
-6.276698e-007
-6.958232e-007
-7.623072e-007
-8.261152e-007
-8.863039e-007
-9.419906e-007
-9.923476e-007
-1.036597e-006
-1.074004e-006
-1.103882e-006
-1.125592e-006
-1.138556e-006
-1.142274e-006
-1.136344e-006
-1.120489e-006
-1.094592e-006
-1.058724e-006
-1.013185e-006
-9.585342e-007
-8.956181e-007
-8.255861e-007
-7.498886e-007
-6.702518e-007
-5.886231e-007
-5.070873e-007
-4.277540e-007
-3.526256e-007
-2.834584e-007
-2.216368e-007
-1.680780e-007
-1.231843e-007
-8.685171e-008
-5.853275e-008
-3.734160e-008
-2.218257e-008
-1.188052e-008
-5.294374e-009
-1.401525e-009
6.520126e-010
1.533510e-009
1.730936e-009
1.577030e-009
1.281365e-009
9.634043e-010
6.819036e-010
4.583063e-010
2.936365e-010
1.795556e-010
1.048390e-010
5.866067e-011
3.191529e-011
1.751000e-011
1.023290e-011
6.507256e-012
4.136253e-012
2.037817e-012
-5.454667e-014
-1.925189e-012
-3.197056e-012
-3.587783e-012
-3.053743e-012
-1.813554e-012
-2.757829e-013
1.089635e-012
1.883650e-012
4.781119e-011
4.841238e-011
5.119464e-011
5.957463e-011
7.920666e-011
1.183579e-010
1.880610e-010
3.018426e-010
4.747355e-010
7.210735e-010
1.050189e-009
1.458704e-009
1.917743e-009
2.353421e-009
2.619461e-009
2.462200e-009
1.480259e-009
-9.161247e-010
-5.538480e-009
-1.343659e-008
-2.588818e-008
-4.435374e-008
-7.039325e-008
-1.055480e-007
-1.511987e-007
-2.084182e-007
-2.778408e-007
-3.595683e-007
-4.531301e-007
-5.574997e-007
-6.711661e-007
-7.922436e-007
-9.186028e-007
-1.048002e-006
-1.178207e-006
-1.307077e-006
-1.432632e-006
-1.553076e-006
-1.666811e-006
-1.772423e-006
-1.868665e-006
-1.954429e-006
-2.028719e-006
-2.090633e-006
-2.139343e-006
-2.174079e-006
-2.194131e-006
-2.198853e-006
-2.187675e-006
-2.160133e-006
-2.115906e-006
-2.054871e-006
-1.977162e-006
-1.883254e-006
-1.774037e-006
-1.650894e-006
-1.515767e-006
-1.371179e-006
-1.220212e-006
-1.066427e-006
-9.136982e-007
-7.659869e-007
-6.270568e-007
-5.001746e-007
-3.878377e-007
-2.915809e-007
-2.118963e-007
-1.482840e-007
-9.941721e-008
-6.338761e-008
-3.797998e-008
-2.092957e-008
-1.012658e-008
-3.750717e-009
-3.352601e-010
1.227577e-009
1.722224e-009
1.667621e-009
1.381694e-009
1.041469e-009
7.327472e-010
4.873080e-010
3.083570e-010
1.863846e-010
1.080561e-010
6.056268e-011
3.334013e-011
1.845487e-011
1.041463e-011
5.771788e-012
2.656520e-012
2.909068e-013
-1.472743e-012
-2.541583e-012
-2.845894e-012
-2.461495e-012
-1.614203e-012
-6.092126e-013
2.522845e-013
7.424289e-013
4.306385e-011
4.974379e-011
6.492384e-011
9.272476e-011
1.403459e-010
2.187936e-010
3.431019e-010
5.314418e-010
8.022615e-010
1.168165e-009
1.624623e-009
2.130946e-009
2.580578e-009
2.758023e-009
2.281173e-009
5.306963e-010
-3.427396e-009
-1.091448e-008
-2.369045e-008
-4.396268e-008
-7.433245e-008
-1.176635e-007
-1.768693e-007
-2.546324e-007
-3.530892e-007
-4.735283e-007
-6.161577e-007
-7.799870e-007
-9.628486e-007
-1.161555e-006
-1.372162e-006
-1.590285e-006
-1.811429e-006
-2.031271e-006
-2.245878e-006
-2.451843e-006
-2.646341e-006
-2.827123e-006
-2.992473e-006
-3.141141e-006
-3.272266e-006
-3.385297e-006
-3.479922e-006
-3.555987e-006
-3.613427e-006
-3.652189e-006
-3.672173e-006
-3.673164e-006
-3.654794e-006
-3.616514e-006
-3.557600e-006
-3.477195e-006
-3.374403e-006
-3.248428e-006
-3.098773e-006
-2.925481e-006
-2.729400e-006
-2.512440e-006
-2.277774e-006
-2.029932e-006
-1.774728e-006
-1.518983e-006
-1.270041e-006
-1.035117e-006
-8.205849e-007
-6.313263e-007
-4.702837e-007
-3.382984e-007
-2.342582e-007
-1.554994e-007
-9.835416e-008
-5.872018e-008
-3.255168e-008
-1.621150e-008
-6.669968e-009
-1.568782e-009
8.141906e-010
1.659088e-009
1.722340e-009
1.453609e-009
1.096344e-009
7.656759e-010
5.035890e-010
3.148097e-010
1.881690e-010
1.080927e-010
6.000435e-011
3.234008e-011
1.686899e-011
8.265321e-012
3.411620e-012
6.642113e-013
-7.851441e-013
-1.372171e-012
-1.421827e-012
-1.225376e-012
-1.012780e-012
-9.032797e-013
-8.968215e-013
-9.247822e-013
4.308813e-011
5.870730e-011
9.232075e-011
1.493841e-010
2.395329e-010
3.774628e-010
5.826377e-010
8.764422e-010
1.274763e-009
1.773109e-009
2.320319e-009
2.775951e-009
2.846167e-009
1.994107e-009
-6.757749e-010
-6.553446e-009
-1.766375e-008
-3.678492e-008
-6.750754e-008
-1.141893e-007
-1.817626e-007
-2.753657e-007
-3.998025e-007
-5.588805e-007
-7.547284e-007
-9.872316e-007
-1.253719e-006
-1.548992e-006
-1.865708e-006
-2.195048e-006
-2.527545e-006
-2.853924e-006
-3.165812e-006
-3.456265e-006
-3.720036e-006
-3.953638e-006
-4.155231e-006
-4.324413e-006
-4.461971e-006
-4.569645e-006
-4.649909e-006
-4.705791e-006
-4.740693e-006
-4.758211e-006
-4.761937e-006
-4.755235e-006
-4.741007e-006
-4.721441e-006
-4.697770e-006
-4.670053e-006
-4.637010e-006
-4.595932e-006
-4.542718e-006
-4.472054e-006
-4.377781e-006
-4.253452e-006
-4.093086e-006
-3.892065e-006
-3.648094e-006
-3.362076e-006
-3.038703e-006
-2.686589e-006
-2.317770e-006
-1.946573e-006
-1.587959e-006
-1.255679e-006
-9.605940e-007
-7.095528e-007
-5.050246e-007
-3.454938e-007
-2.264184e-007
-1.414423e-007
-8.356460e-008
-4.605963e-008
-2.306555e-008
-9.858150e-009
-2.881774e-009
3.742284e-010
1.574094e-009
1.750170e-009
1.496643e-009
1.125027e-009
7.778199e-010
5.049511e-010
3.111981e-010
1.831795e-010
1.032263e-010
5.553348e-011
2.816343e-011
1.304185e-011
5.139744e-012
1.468115e-012
2.144283e-013
1.632750e-013
4.284524e-013
4.106040e-013
-1.449433e-013
-1.132109e-012
-2.179400e-012
-2.846558e-012
6.238175e-011
8.985611e-011
1.484135e-010
2.460482e-010
3.961978e-010
6.180071e-010
9.339701e-010
1.362094e-009
1.898343e-009
2.483388e-009
2.945872e-009
2.913092e-009
1.680362e-009
-1.966180e-009
-9.970203e-009
-2.525179e-008
-5.194217e-008
-9.554417e-008
-1.629321e-007
-2.620891e-007
-4.014880e-007
-5.890688e-007
-8.308657e-007
-1.129479e-006
-1.482715e-006
-1.882772e-006
-2.316272e-006
-2.765236e-006
-3.208846e-006
-3.625662e-006
-3.995841e-006
-4.302990e-006
-4.535386e-006
-4.686496e-006
-4.754848e-006
-4.743436e-006
-4.658870e-006
-4.510468e-006
-4.309458e-006
-4.068347e-006
-3.800471e-006
-3.519657e-006
-3.239949e-006
-2.975296e-006
-2.739187e-006
-2.544190e-006
-2.401405e-006
-2.319848e-006
-2.305781e-006
-2.362036e-006
-2.487378e-006
-2.675969e-006
-2.917009e-006
-3.194674e-006
-3.488446e-006
-3.773970e-006
-4.024530e-006
-4.213196e-006
-4.315557e-006
-4.312787e-006
-4.194596e-006
-3.961448e-006
-3.625400e-006
-3.209115e-006
-2.742959e-006
-2.260631e-006
-1.794248e-006
-1.369999e-006
-1.005351e-006
-7.082698e-007
-4.783070e-007
-3.088923e-007
-1.900133e-007
-1.105903e-007
-6.017509e-008
-2.991128e-008
-1.288371e-008
-4.057829e-009
3.373441e-012
1.502419e-009
1.759993e-009
1.510505e-009
1.125295e-009
7.672900e-010
4.900657e-010
2.964991e-010
1.706221e-010
9.311164e-011
4.758439e-011
2.218924e-011
9.101649e-012
3.350742e-012
1.702124e-012
1.908350e-012
2.372280e-012
2.105423e-012
7.825493e-013
-1.289064e-012
-3.377265e-012
-4.676715e-012
1.170539e-010
1.597765e-010
2.510508e-010
4.029926e-010
6.340985e-010
9.671034e-010
1.421180e-009
1.992920e-009
2.617716e-009
3.099931e-009
2.997210e-009
1.442845e-009
-3.107465e-009
-1.320883e-008
-3.282521e-008
-6.774462e-008
-1.259177e-007
-2.175682e-007
-3.548651e-007
-5.509150e-007
-8.178741e-007
-1.164162e-006
-1.591096e-006
-2.089662e-006
-2.638422e-006
-3.203454e-006
-3.740782e-006
-4.200988e-006
-4.535098e-006
-4.700467e-006
-4.665511e-006
-4.412551e-006
-3.938545e-006
-3.253981e-006
-2.380471e-006
-1.347742e-006
-1.906292e-007
1.053465e-006
2.346444e-006
3.650674e-006
4.929588e-006
6.147913e-006
7.271768e-006
8.268790e-006
9.108420e-006
9.762385e-006
1.020541e-005
1.041611e-005
1.037811e-005
1.008134e-005
9.523457e-006
8.711381e-006
7.662876e-006
6.407916e-006
4.989611e-006
3.464286e-006
1.900205e-006
3.744621e-007
-1.032251e-006
-2.242942e-006
-3.192986e-006
-3.838863e-006
-4.165087e-006
-4.187386e-006
-3.950713e-006
-3.521903e-006
-2.978352e-006
-2.395396e-006
-1.835501e-006
-1.341729e-006
-9.363673e-007
-6.239113e-007
-3.964849e-007
-2.396149e-007
-1.369243e-007
-7.317902e-008
-3.580007e-008
-1.526822e-008
-4.880088e-009
-2.128784e-010
1.471326e-009
1.757422e-009
1.494958e-009
1.096468e-009
7.340364e-010
4.593339e-010
2.713981e-010
1.515797e-010
7.943142e-011
3.844460e-011
1.695756e-011
7.200776e-012
3.995462e-012
3.776739e-012
4.099483e-012
3.510088e-012
1.543241e-012
-1.382973e-012
-4.279163e-012
-6.067043e-012
2.235130e-010
2.859661e-010
4.199947e-010
6.431890e-010
9.788947e-010
1.448078e-009
2.049472e-009
2.717538e-009
3.242509e-009
3.131020e-009
1.381205e-009
-3.854422e-009
-1.573680e-008
-3.933406e-008
-8.229042e-008
-1.554428e-007
-2.731450e-007
-4.529117e-007
-7.138538e-007
-1.073338e-006
-1.541558e-006
-2.114410e-006
-2.766110e-006
-3.443958e-006
-4.067814e-006
-4.535832e-006
-4.736085e-006
-4.561718e-006
-3.926087e-006
-2.774530e-006
-1.090535e-006
1.104184e-006
3.754815e-006
6.781921e-006
1.009122e-005
1.358277e-005
1.715838e-005
2.072657e-005
2.420522e-005
2.752247e-005
3.061622e-005
3.343303e-005
3.592672e-005
3.805694e-005
3.978800e-005
4.108775e-005
4.192694e-005
4.227871e-005
4.211862e-005
4.142529e-005
4.018187e-005
3.837868e-005
3.601719e-005
3.311531e-005
2.971358e-005
2.588156e-005
2.172272e-005
1.737621e-005
1.301326e-005
8.826776e-006
5.013703e-006
1.751663e-006
-8.261631e-007
-2.652242e-006
-3.735929e-006
-4.160591e-006
-4.066130e-006
-3.621045e-006
-2.991593e-006
-2.316303e-006
-1.691670e-006
-1.170370e-006
-7.689955e-007
-4.802052e-007
-2.845337e-007
-1.591880e-007
-8.322634e-008
-3.981060e-008
-1.659814e-008
-5.186976e-009
-2.232418e-010
1.491711e-009
1.742723e-009
1.449691e-009
1.039620e-009
6.800859e-010
4.151818e-010
2.385501e-010
1.289410e-010
6.516241e-011
3.074268e-011
1.414740e-011
7.590241e-012
5.831371e-012
5.420744e-012
4.359745e-012
1.947932e-012
-1.432073e-012
-4.719488e-012
-6.736099e-012
3.981410e-010
4.864685e-010
6.762094e-010
9.903437e-010
1.452834e-009
2.067885e-009
2.775901e-009
3.367063e-009
3.324178e-009
1.556928e-009
-4.016426e-009
-1.708029e-008
-4.374296e-008
-9.352744e-008
-1.803793e-007
-3.233475e-007
-5.462994e-007
-8.756572e-007
-1.334854e-006
-1.934416e-006
-2.657795e-006
-3.445497e-006
-4.182782e-006
-4.697517e-006
-4.773026e-006
-4.176062e-006
-2.694339e-006
-1.742702e-007
3.450706e-006
8.147728e-006
1.378953e-005
2.017394e-005
2.705216e-005
3.415946e-005