# vtk DataFile Version 3.0
vtk output
ASCII
DATASET STRUCTURED_POINTS
DIMENSIONS 100 100 1
SPACING 1 1 1
ORIGIN 0 0 0
POINT_DATA 10000
SCALARS SFBox_profile double
LOOKUP_TABLE default 
0.000000e+000
0.000000e+000
0.000000e+000
0.000000e+000
0.000000e+000
0.000000e+000
0.000000e+000
0.000000e+000
0.000000e+000
0.000000e+000
0.000000e+000
0.000000e+000
0.000000e+000
0.000000e+000
0.000000e+000
0.000000e+000
0.000000e+000
0.000000e+000
0.000000e+000
0.000000e+000
0.000000e+000
0.000000e+000
0.000000e+000
0.000000e+000
0.000000e+000
0.000000e+000
0.000000e+000
0.000000e+000
0.000000e+000
0.000000e+000
0.000000e+000
0.000000e+000
0.000000e+000
0.000000e+000
0.000000e+000
0.000000e+000
0.000000e+000
0.000000e+000
0.000000e+000
0.000000e+000
0.000000e+000
0.000000e+000
0.000000e+000
0.000000e+000
0.000000e+000
0.000000e+000
0.000000e+000
0.000000e+000
0.000000e+000
0.000000e+000
0.000000e+000
0.000000e+000
0.000000e+000
0.000000e+000
0.000000e+000
0.000000e+000
0.000000e+000
0.000000e+000
0.000000e+000
0.000000e+000
0.000000e+000
0.000000e+000
0.000000e+000
0.000000e+000
0.000000e+000
0.000000e+000
0.000000e+000
0.000000e+000
0.000000e+000
0.000000e+000
0.000000e+000
0.000000e+000
0.000000e+000
0.000000e+000
0.000000e+000
0.000000e+000
0.000000e+000
0.000000e+000
0.000000e+000
0.000000e+000
0.000000e+000
0.000000e+000
0.000000e+000
0.000000e+000
0.000000e+000
0.000000e+000
0.000000e+000
0.000000e+000
0.000000e+000
0.000000e+000
0.000000e+000
0.000000e+000
0.000000e+000
0.000000e+000
0.000000e+000
0.000000e+000
0.000000e+000
0.000000e+000
0.000000e+000
0.000000e+000
-1.003989e-009
-4.648600e-010
2.750370e-010
8.091522e-010
8.724627e-010
4.666285e-010
-1.601954e-010
-6.634615e-010
-7.957528e-010
-5.326412e-010
-6.089205e-011
3.551664e-010
5.367312e-010
4.762155e-010
2.982317e-010
1.397337e-010
4.788404e-011
-2.899419e-011
-1.629181e-010
-3.572381e-010
-5.273798e-010
-5.661821e-010
-4.333427e-010
-1.893836e-010
5.346593e-011
2.170010e-010
3.040208e-010
3.711317e-010
4.605758e-010
5.572731e-010
6.070769e-010
5.719143e-010
4.658028e-010
3.398095e-010
2.357049e-010
1.553167e-010
7.180275e-011
-3.443327e-011
-1.537292e-010
-2.584041e-010
-3.308732e-010
-3.778053e-010
-4.182329e-010
-4.620107e-010
-5.024655e-010
-5.283438e-010
-5.385503e-010
-5.425606e-010
-5.481108e-010
-5.526221e-010
-5.488157e-010
-5.365385e-010
-5.247990e-010
-5.203527e-010
-5.168733e-010
-4.996991e-010
-4.627400e-010
-4.177222e-010
-3.824035e-010
-3.586114e-010
-3.254809e-010
-2.590556e-010
-1.596211e-010
-5.601493e-011
2.165053e-011
7.422661e-011
1.346804e-010
2.323172e-010
3.547487e-010
4.492381e-010
4.672403e-010
4.100482e-010
3.280749e-010
2.706632e-010
2.346916e-010
1.655660e-010
1.481275e-011
-1.987847e-010
-3.855713e-010
-4.484136e-010
-3.593451e-010
-1.812327e-010
-1.509079e-011
7.938319e-011
1.193984e-010
1.616101e-010
2.297354e-010
2.771733e-010
2.228461e-010
3.212449e-011
-2.279868e-010
-4.127317e-010
-3.930561e-010
-1.522239e-010
1.871416e-010
4.301879e-010
4.297008e-010
1.805364e-010
-1.731589e-010
-4.233805e-010
-2.301269e-010
-1.147496e-010
4.823168e-011
1.731283e-010
1.968851e-010
1.112963e-010
-3.086889e-011
-1.441513e-010
-1.613608e-010
-7.696706e-011
4.788264e-011
1.262473e-010
1.062102e-010
7.745821e-012
-9.324074e-011
-1.228291e-010
-6.427224e-011
3.307993e-011
9.725302e-011
9.226055e-011
4.257575e-011
4.692209e-012
1.349657e-011
5.217274e-011
7.117192e-011
3.624992e-011
-3.994615e-011
-1.107477e-010
-1.381389e-010
-1.239077e-010
-1.016618e-010
-1.009221e-010
-1.197680e-010
-1.309000e-010
-1.114974e-010
-6.534414e-011
-1.668939e-011
1.468716e-011
3.039804e-011
4.691038e-011
7.560570e-011
1.115844e-010
1.412055e-010
1.574411e-010
1.655610e-010
1.746923e-010
1.869324e-010
1.967357e-010
1.996747e-010
1.985563e-010
1.991865e-010
2.017653e-010
1.996878e-010
1.881517e-010
1.718819e-010
1.611104e-010
1.590158e-010
1.555967e-010
1.372116e-010
1.027554e-010
6.766792e-011
4.879231e-011
4.504705e-011
3.608382e-011
3.226481e-012
-4.815222e-011
-8.998919e-011
-9.814467e-011
-7.790569e-011
-6.048153e-011
-7.142086e-011
-1.021814e-010
-1.153783e-010
-8.117391e-011
-9.688590e-012
5.387959e-011
6.888826e-011
3.633370e-011
-2.632245e-012
-6.067882e-012
2.874623e-011
6.280433e-011
5.308049e-011
-4.737013e-012
-6.843190e-011
-8.429220e-011
-3.423695e-011
4.622889e-011
9.481131e-011
7.158849e-011
-9.423760e-012
-9.053264e-011
-1.130170e-010
-5.912489e-011
3.649403e-011
1.116089e-010
1.180382e-010
5.180318e-011
-4.601405e-011
-1.158138e-010
7.297847e-010
3.237014e-010
-2.234287e-010
-6.021724e-010
-6.268586e-010
-3.196069e-010
1.274512e-010
4.769299e-010
5.767352e-010
4.217983e-010
1.239528e-010
-1.736339e-010
-3.737512e-010
-4.500373e-010
-4.215330e-010
-3.138701e-010
-1.429491e-010
7.308161e-011
2.964790e-010
4.722948e-010
5.527735e-010
5.226818e-010
4.032911e-010
2.331527e-010
4.436416e-011
-1.460353e-010
-3.274388e-010
-4.844601e-010
-5.972529e-010
-6.524572e-010
-6.517613e-010
-6.083695e-010
-5.353611e-010
-4.382063e-010
-3.180509e-010
-1.801205e-010
-3.668438e-011
9.882054e-011
2.196618e-010
3.271237e-010
4.246312e-010
5.118579e-010
5.849805e-010
6.415391e-010
6.834595e-010
7.149499e-010
7.385279e-010
7.541613e-010
7.618868e-010
7.636986e-010
7.618753e-010
7.561378e-010
7.439544e-010
7.241474e-010
6.990845e-010
6.718884e-010
6.414673e-010
6.017613e-010
5.472136e-010
4.787010e-010
4.026329e-010
3.234356e-010
2.378711e-010
1.384966e-010
2.340506e-011
-9.837558e-011
-2.123247e-010
-3.091324e-010
-3.887462e-010
-4.530461e-010
-4.955636e-010
-5.007508e-010
-4.551229e-010
-3.592171e-010
-2.279537e-010
-7.969907e-011
7.299237e-011
2.200623e-010
3.424354e-010
4.083087e-010
3.872820e-010
2.736909e-010
9.842529e-011
-8.338476e-011
-2.202032e-010
-2.853488e-010
-2.773092e-010
-2.057024e-010
-8.227277e-011
7.219376e-011
2.153004e-010
2.866825e-010
2.379240e-010
7.236116e-011
-1.383745e-010
-2.834059e-010
-2.765235e-010
-1.143486e-010
1.136136e-010
2.749896e-010
1.144876e-009
5.211345e-010
-3.240034e-010
-9.157028e-010
-9.615626e-010
-4.895724e-010
1.978210e-010
7.164473e-010
8.206866e-010
5.213198e-010
4.026094e-011
-3.526636e-010
-5.038969e-010
-4.355364e-010
-2.780889e-010
-1.469794e-010
-6.413147e-011
2.388971e-011
1.644320e-010
3.351834e-010
4.541099e-010
4.479249e-010
3.134921e-010
1.185397e-010
-5.372683e-011
-1.633109e-010
-2.263619e-010
-2.799085e-010
-3.382311e-010
-3.811525e-010
-3.786298e-010
-3.221050e-010
-2.320545e-010
-1.386423e-010
-5.785391e-011
1.454991e-011
8.982481e-011
1.704756e-010
2.473449e-010
3.094008e-010
3.539620e-010
3.873097e-010
4.170135e-010
4.449744e-010
4.676311e-010
4.815573e-010
4.878421e-010
4.910613e-010
4.946787e-010
4.980390e-010
4.979463e-010
4.928581e-010
4.849924e-010
4.778523e-010
4.717130e-010
4.622668e-010
4.446345e-010
4.188322e-010
3.901976e-010
3.630992e-010
3.342636e-010
2.940797e-010
2.363651e-010
1.666802e-010
9.867309e-011
4.016272e-011
-1.635355e-011
-8.600581e-011
-1.717224e-010
-2.530128e-010
-2.986412e-010
-2.940441e-010
-2.557643e-010
-2.147767e-010
-1.823457e-010
-1.339122e-010
-3.271704e-011
1.248500e-010
2.866640e-010
3.730670e-010
3.365609e-010
2.006637e-010
4.120125e-011
-7.450953e-011
-1.353117e-010
-1.771237e-010
-2.274300e-010
-2.594961e-010
-2.060713e-010
-2.748209e-011
2.253690e-010
4.163690e-010
4.080246e-010
1.668693e-010
-1.914235e-010
-4.599063e-010
-4.693147e-010
-2.021387e-010
1.877037e-010
4.666094e-010
6.944574e-010
3.273580e-010
-1.743609e-010
-5.304002e-010
-5.601789e-010
-2.753134e-010
1.340024e-010
4.161306e-010
4.130980e-010
1.568149e-010
-1.595104e-010
-3.183060e-010
-2.278767e-010
2.202887e-011
2.380763e-010
2.717336e-010
1.221007e-010
-8.280687e-011
-2.014179e-010
-1.890793e-010
-1.140829e-010
-7.680369e-011
-1.125889e-010
-1.654383e-010
-1.484768e-010
-2.797963e-011
1.474183e-010
2.932514e-010
3.615367e-010
3.712061e-010
3.754046e-010
4.048029e-010
4.424928e-010
4.485261e-010
4.030408e-010
3.242186e-010
2.479763e-010
1.947343e-010
1.567961e-010
1.145081e-010
6.024447e-011
5.326023e-012
-3.387719e-011
-5.300175e-011
-6.196097e-011
-7.242103e-011
-8.581278e-011
-9.450562e-011
-9.302501e-011
-8.548862e-011
-8.084698e-011
-8.205195e-011
-8.234603e-011
-7.353381e-011
-5.675113e-011
-4.239024e-011
-3.778806e-011
-3.628227e-011
-2.168680e-011
1.436585e-011
6.095626e-011
9.732513e-011
1.158127e-010
1.333027e-010
1.751736e-010
2.452637e-010
3.142493e-010
3.433652e-010
3.228677e-010
2.845175e-010
2.701723e-010
2.848213e-010
2.838405e-010
2.139051e-010
7.157182e-011
-8.007888e-011
-1.595992e-010
-1.386627e-010
-6.802923e-011
-2.959286e-011
-5.780347e-011
-1.063088e-010
-9.477923e-011
6.250469e-012
1.341046e-010
1.802897e-010
8.751614e-011
-8.902271e-011
-2.146715e-010
-1.802831e-010
5.987113e-012
2.162046e-010
2.940449e-010
1.707374e-010
-8.149765e-011
-2.970441e-010
-3.300227e-010
-1.532113e-010
1.235781e-010
3.254349e-010
-2.897962e-010
-1.130871e-010
1.132911e-010
2.544415e-010
2.508372e-010
1.341274e-010
-2.173495e-011
-1.601251e-010
-2.597646e-010
-3.076862e-010
-2.713181e-010
-1.133701e-010
1.557059e-010
4.418581e-010
5.992979e-010
5.223499e-010
2.275653e-010
-1.469564e-010
-4.325663e-010
-5.406296e-010
-5.034415e-010
-4.173358e-010
-3.455239e-010
-2.695429e-010
-1.273219e-010
1.070154e-010
3.822243e-010
6.057741e-010
7.184194e-010
7.351909e-010
7.178735e-010
7.117149e-010
7.092949e-010
6.713833e-010
5.765026e-010
4.468649e-010
3.281115e-010
2.484332e-010
1.995577e-010
1.548194e-010
1.007912e-010
4.897518e-011
1.918686e-011
1.639715e-011
2.639873e-011
3.229703e-011
3.128306e-011
3.332408e-011
4.546920e-011
6.144124e-011
6.866959e-011
6.367571e-011
5.668199e-011
5.915102e-011
6.885254e-011
7.129264e-011
5.779240e-011
3.969231e-011
4.011105e-011
6.960056e-011
1.127229e-010
1.435971e-010
1.564827e-010
1.772874e-010
2.389627e-010
3.432978e-010
4.507775e-010
5.141463e-010
5.240744e-010
5.177837e-010
5.368003e-010
5.746593e-010
5.711069e-010
4.652014e-010
2.582035e-010
2.263086e-011
-1.551416e-010
-2.445046e-010
-2.841330e-010
-3.262768e-010
-3.689192e-010
-3.471638e-010
-1.977971e-010
6.239154e-011
3.215024e-010
4.419152e-010
3.592144e-010
1.292506e-010
-1.129334e-010
-2.456462e-010
-2.315994e-010
-1.209264e-010
1.797778e-012
7.648419e-011
9.118628e-011
6.709346e-011
3.054524e-011
-2.872754e-012
-2.742912e-011
-4.060840e-011
-1.076635e-009
-4.679355e-010
3.313571e-010
8.511189e-010
8.443511e-010
3.953194e-010
-1.843856e-010
-5.767188e-010
-6.373666e-010
-4.293546e-010
-1.220454e-010
1.418502e-010
3.097543e-010
3.908101e-010
3.942706e-010
3.070061e-010
1.261935e-010
-1.007368e-010
-2.842577e-010
-3.510659e-010
-2.983014e-010
-1.894531e-010
-9.457938e-011
-3.245426e-011
3.108893e-011
1.320833e-010
2.603534e-010
3.639863e-010
3.996289e-010
3.751327e-010
3.412539e-010
3.430494e-010
3.816285e-010
4.228701e-010
4.395100e-010
4.406855e-010
4.602770e-010
5.203243e-010
6.096439e-010
6.978891e-010
7.665506e-010
8.230576e-010
8.858744e-010
9.604902e-010
1.033369e-009
1.088091e-009
1.122935e-009
1.149688e-009
1.176876e-009
1.198587e-009
1.202229e-009
1.185124e-009
1.158921e-009
1.135548e-009
1.111443e-009
1.070290e-009
1.003022e-009
9.219468e-010
8.503245e-010
7.967861e-010
7.439134e-010
6.670615e-010
5.652140e-010
4.688008e-010
4.119763e-010
3.967174e-010
3.887016e-010
3.529166e-010
2.927438e-010
2.490044e-010
2.564151e-010
3.018367e-010
3.299527e-010
2.934536e-010
1.970944e-010
8.991524e-011
1.392731e-011
-3.617725e-011
-9.899125e-011
-1.924703e-010
-2.781209e-010
-2.845100e-010
-1.711775e-010
2.755793e-011
2.205638e-010
3.224534e-010
3.044988e-010
1.950364e-010
4.235075e-011
-1.153833e-010
-2.469800e-010
-3.102422e-010
-2.575450e-010
-7.633954e-011
1.704783e-010
3.546066e-010
3.556279e-010
1.508807e-010
-1.509278e-010
-3.692719e-010
-1.088079e-009
-4.708839e-010
3.330372e-010
8.376151e-010
7.912601e-010
3.007957e-010
-2.744900e-010
-5.756331e-010
-4.701924e-010
-1.055822e-010
2.299467e-010
3.226379e-010
1.645984e-010
-8.131240e-011
-2.316408e-010
-2.155087e-010
-9.242785e-011
3.433449e-011
1.136859e-010
1.674938e-010
2.356782e-010
3.157670e-010
3.601275e-010
3.264204e-010
2.226991e-010
1.006122e-010
8.639032e-012
-4.301737e-011
-7.257785e-011
-8.969157e-011
-7.565487e-011
-1.334857e-012
1.404006e-010
3.252331e-010
5.202641e-010
7.123892e-010
9.115471e-010
1.128322e-009
1.353460e-009
1.562132e-009
1.736202e-009
1.878357e-009
2.003359e-009
2.118600e-009
2.216797e-009
2.287447e-009
2.331316e-009
2.360082e-009
2.382553e-009
2.395237e-009
2.388993e-009
2.362957e-009
2.327506e-009
2.291627e-009
2.250142e-009
2.187717e-009
2.096492e-009
1.986269e-009
1.873395e-009
1.759817e-009
1.627571e-009
1.457808e-009
1.254426e-009
1.044571e-009
8.532371e-010
6.796301e-010
5.031364e-010
3.138567e-010
1.333915e-010
5.618761e-013
-6.408331e-011
-7.586639e-011
-6.558258e-011
-4.437085e-011
4.631536e-012
9.602683e-011
2.072157e-010
2.819594e-010
2.751238e-010
1.941685e-010
9.261605e-011
2.038144e-011
-1.736525e-011
-4.943834e-011
-8.941811e-011
-1.060236e-010
-5.305159e-011
6.658316e-011
1.730012e-010
1.612419e-010
-1.489133e-012
-2.217591e-010
-3.311180e-010
-2.151124e-010
8.174900e-011
3.677001e-010
4.349513e-010
2.155671e-010
-1.581089e-010
-4.393001e-010
-3.267092e-010
-1.273340e-010
1.235035e-010
2.543875e-010
1.788696e-010
-4.270361e-011
-2.350238e-010
-2.275162e-010
1.223105e-011
3.333272e-010
4.947168e-010
3.406424e-010
-7.317031e-011
-5.068710e-010
-7.027835e-010
-5.623200e-010
-1.966215e-010
1.791461e-010
4.093266e-010
4.833517e-010
4.894442e-010
5.020003e-010
5.146832e-010
4.705753e-010
3.418475e-010
1.719922e-010
4.329048e-011
1.061323e-011
6.923905e-011
1.804134e-010
3.181784e-010
4.874316e-010
7.023229e-010
9.570544e-010
1.222729e-009
1.469630e-009
1.686905e-009
1.879496e-009
2.050760e-009
2.193363e-009
2.297299e-009
2.362318e-009
2.398790e-009
2.417269e-009
2.420622e-009
2.407583e-009
2.381186e-009
2.350165e-009
2.321822e-009
2.296556e-009
2.271654e-009
2.248948e-009
2.235184e-009
2.233519e-009
2.237157e-009
2.234584e-009
2.220989e-009
2.201187e-009
2.178956e-009
2.145407e-009
2.082204e-009
1.978077e-009
1.839433e-009
1.681157e-009
1.507669e-009
1.308233e-009
1.074903e-009
8.228779e-010
5.865561e-010
3.917712e-010
2.354079e-010
9.917836e-011
-1.496655e-011
-7.042774e-011
-2.711044e-011
1.088904e-010
2.718548e-010
3.814471e-010
4.055015e-010
3.756445e-010
3.371708e-010
2.865688e-010
1.694177e-010
-4.898921e-011
-3.097707e-010
-4.693072e-010
-4.032846e-010
-1.221337e-010
2.098958e-010
3.826285e-010
2.944227e-010
2.834909e-011
-2.125072e-010
-2.588805e-010
-9.737482e-011
1.302765e-010
2.430473e-010
1.581704e-010
-5.243135e-011
-2.232993e-010
6.468532e-010
2.926711e-010
-1.666477e-010
-4.681289e-010
-4.958933e-010
-3.085025e-010
-4.345805e-011
1.939654e-010
3.628736e-010
4.420923e-010
3.898932e-010
1.724211e-010
-1.648983e-010
-4.729243e-010
-5.763589e-010
-4.042013e-010
-5.698530e-011
2.604391e-010
3.913498e-010
3.352809e-010
2.221521e-010
1.855699e-010
2.558368e-010
3.636019e-010
4.336255e-010
4.672055e-010
5.360002e-010
7.051248e-010
9.692499e-010
1.261335e-009
1.514863e-009
1.712031e-009
1.875640e-009
2.024835e-009
2.146160e-009
2.205725e-009
2.181877e-009
2.081561e-009
1.927902e-009
1.738107e-009
1.515658e-009
1.259983e-009
9.782350e-010
6.862024e-010
4.005946e-010
1.330603e-010
-1.091740e-010
-3.197716e-010
-4.916181e-010
-6.171294e-010
-6.886952e-010
-6.997975e-010
-6.480539e-010
-5.378246e-010
-3.780361e-010
-1.759374e-010
6.567822e-011
3.423538e-010
6.388742e-010
9.297655e-010
1.192508e-009
1.419803e-009
1.614767e-009
1.772086e-009
1.868139e-009
1.877030e-009
1.799058e-009
1.668056e-009
1.522677e-009
1.368736e-009
1.176748e-009
9.246580e-010
6.428124e-010
4.073424e-010
2.791620e-010
2.479759e-010
2.433095e-010
2.070643e-010
1.531127e-010
1.465117e-010
2.178170e-010
3.023561e-010
2.781593e-010
7.916810e-011
-2.215947e-010
-4.456332e-010
-4.408008e-010
-2.011529e-010
1.263064e-010
3.501286e-010
3.652823e-010
2.056076e-010
-6.826795e-012
-1.570413e-010
-1.992693e-010
-1.546332e-010
-7.059970e-011
1.393003e-011
7.798596e-011
1.120472e-010
1.153708e-009
4.719870e-010
-3.784323e-010
-8.557976e-010
-7.453202e-010
-2.435370e-010
2.510209e-010
4.466886e-010
3.272847e-010
8.487135e-011
-8.052457e-011
-1.066003e-010
-5.709322e-011
-7.952675e-012
3.349855e-011
1.026285e-010
1.961842e-010
2.432090e-010
1.704540e-010
-5.896021e-012
-1.653118e-010
-1.703754e-010
2.456005e-011
3.475743e-010
6.865713e-010
9.886661e-010
1.285198e-009
1.627558e-009
2.008288e-009
2.348394e-009
2.556931e-009
2.596440e-009
2.490602e-009
2.276258e-009
1.956288e-009
1.499665e-009
8.802440e-010
1.088179e-010
-7.722122e-010
-1.719569e-009
-2.710770e-009
-3.738392e-009
-4.789279e-009
-5.832831e-009
-6.828163e-009
-7.739590e-009
-8.544530e-009
-9.228514e-009
-9.774883e-009
-1.016006e-008
-1.035891e-008
-1.035553e-008
-1.015002e-008
-9.754818e-009
-9.183893e-009
-8.446045e-009
-7.551422e-009
-6.526208e-009
-5.418713e-009
-4.285817e-009
-3.170083e-009
-2.091914e-009
-1.067771e-009
-1.350318e-010
6.489837e-010
1.241042e-009
1.646245e-009
1.911553e-009
2.078006e-009
2.139723e-009
2.057506e-009
1.818189e-009
1.476611e-009
1.129012e-009
8.390715e-010
5.938828e-010
3.410304e-010
7.139254e-011
-1.425255e-010
-2.022128e-010
-8.381792e-011
1.179292e-010
2.529829e-010
2.317873e-010
8.768193e-011
-6.619342e-011
-1.362916e-010
-1.097221e-010
-3.313330e-011
4.821082e-011
1.190395e-010
1.696321e-010
1.658498e-010
6.752154e-011
-1.132009e-010
-2.812999e-010
-3.095366e-010
-1.430973e-010
1.343930e-010
3.447330e-010
8.955090e-010
2.976846e-010
-4.085900e-010
-7.163102e-010
-4.607362e-010
9.649948e-011
4.991641e-010
4.514782e-010
2.383010e-011
-4.336424e-010
-5.788500e-010
-3.273555e-010
1.233392e-010
4.826644e-010
5.877865e-010
4.774949e-010
2.942856e-010
1.410621e-010
3.071821e-011
-5.210201e-011
-7.424997e-011
4.199762e-011
3.415183e-010
7.771351e-010
1.237205e-009
1.630870e-009
1.940479e-009
2.190042e-009
2.370234e-009
2.403172e-009
2.182041e-009
1.639858e-009
7.759716e-010
-3.800003e-010
-1.820647e-009
-3.572634e-009
-5.660338e-009
-8.064503e-009
-1.071878e-008
-1.354284e-008
-1.647441e-008
-1.946990e-008
-2.247993e-008
-2.543033e-008
-2.822858e-008
-3.078730e-008
-3.304039e-008
-3.493836e-008
-3.643178e-008
-3.746280e-008
-3.797532e-008
-3.793459e-008
-3.733765e-008
-3.620471e-008
-3.456186e-008
-3.243532e-008
-2.986630e-008
-2.693161e-008
-2.374505e-008
-2.043141e-008
-1.709547e-008
-1.381695e-008
-1.067548e-008
-7.773748e-009
-5.223134e-009
-3.096718e-009
-1.395541e-009
-6.777167e-011
9.341280e-010
1.617261e-009
1.972771e-009
2.033300e-009
1.894708e-009
1.669036e-009
1.413418e-009
1.112538e-009
7.384876e-010
3.265552e-010
-1.665596e-011
-1.871215e-010
-1.662192e-010
-2.949114e-011
1.227983e-010
2.368336e-010
3.079641e-010
3.287786e-010
2.609732e-010
7.887971e-011
-1.608157e-010
-3.172696e-010
-2.659314e-010
-2.206301e-011
2.382951e-010
3.045727e-010
1.099660e-010
-1.968371e-010
-3.627101e-010
-2.395686e-010
8.563362e-011
3.563130e-010
1.256257e-010
-6.178394e-011
-2.395320e-010
-2.096844e-010
5.943925e-011
3.879916e-010
5.058219e-010
2.635034e-010
-2.268653e-010
-6.462666e-010
-6.958331e-010
-3.245315e-010
2.290894e-010
6.197566e-010
6.528864e-010
4.063448e-010
1.309676e-010
3.764947e-011
1.620687e-010
4.028483e-010
6.597915e-010
9.223327e-010
1.235373e-009
1.604086e-009
1.949489e-009
2.153941e-009
2.133013e-009
1.850106e-009
1.264060e-009
2.768200e-010
-1.256437e-009
-3.465167e-009
-6.414620e-009
-1.011442e-008
-1.456244e-008
-1.976720e-008
-2.572308e-008
-3.236849e-008
-3.957449e-008
-4.717548e-008
-5.500911e-008
-6.292758e-008
-7.077742e-008
-7.837854e-008
-8.553001e-008
-9.203850e-008
-9.774135e-008
-1.025043e-007
-1.062027e-007
-1.087111e-007
-1.099178e-007
-1.097512e-007
-1.081935e-007
-1.052707e-007
-1.010329e-007
-9.555255e-008
-8.894527e-008
-8.139333e-008
-7.314032e-008
-6.445486e-008
-5.559350e-008
-4.679472e-008
-3.829997e-008
-3.036282e-008
-2.321619e-008
-1.701573e-008
-1.181108e-008
-7.574040e-009
-4.253729e-009
-1.800159e-009
-1.359740e-010
8.796139e-010
1.435433e-009
1.699121e-009
1.758245e-009
1.632970e-009
1.346583e-009
9.760584e-010
6.271698e-010
3.652962e-010
1.851511e-010
5.696512e-011
-7.290903e-012
4.434915e-011
2.215891e-010
4.200625e-010
4.617398e-010
2.407154e-010
-1.544656e-010
-4.736475e-010
-4.907010e-010
-1.916090e-010
2.022059e-010
4.047921e-010
2.907788e-010
-1.358451e-011
-2.464569e-010
-2.309762e-010
-1.384904e-011
1.894999e-010
-6.076662e-010
-3.137160e-010
6.843488e-011
3.339669e-010
4.059137e-010
3.290347e-010
1.758377e-010
-1.510397e-011
-2.126135e-010
-3.418056e-010
-3.053610e-010
-8.125633e-011
2.101278e-010
3.705232e-010
2.895227e-010
6.109990e-011
-7.188458e-011
9.166479e-011
5.545972e-010
1.136893e-009
1.635489e-009
1.969407e-009
2.180670e-009
2.311705e-009
2.292084e-009
1.935650e-009
1.023878e-009
-6.278203e-010
-3.183403e-009
-6.841751e-009
-1.185297e-008
-1.846525e-008
-2.685059e-008
-3.707459e-008
-4.912055e-008
-6.292138e-008
-7.835616e-008
-9.521989e-008
-1.132103e-007
-1.319564e-007
-1.510671e-007
-1.701590e-007
-1.888494e-007
-2.067393e-007
-2.234185e-007
-2.384951e-007
-2.516223e-007
-2.625008e-007
-2.708610e-007
-2.764542e-007
-2.790694e-007
-2.785650e-007
-2.748861e-007
-2.680575e-007
-2.581689e-007
-2.453803e-007
-2.299486e-007
-2.122510e-007
-1.927726e-007
-1.720634e-007
-1.506967e-007
-1.292569e-007
-1.083414e-007
-8.853969e-008
-7.037113e-008
-5.421538e-008
-4.028572e-008
-2.865735e-008
-1.930851e-008
-1.212688e-008
-6.886995e-009
-3.253744e-009
-8.486365e-010
6.558810e-010
1.490226e-009
1.821763e-009
1.815878e-009
1.643066e-009
1.419695e-009
1.159567e-009
8.154303e-010
3.901477e-010
3.692214e-012
-1.721406e-010
-6.689094e-011
1.957874e-010
3.722917e-010
2.906388e-010
-7.753612e-012
-3.039336e-010
-3.831842e-010
-2.038032e-010
8.533442e-011
2.777075e-010
2.683965e-010
1.114877e-010
-5.157672e-011
-1.146645e-010
-7.780280e-011
-2.169826e-011
-8.951879e-010
-2.900242e-010
3.949912e-010
6.559511e-010
3.930446e-010
-8.069736e-011
-3.590252e-010
-2.769511e-010
1.766084e-011
2.613410e-010
3.135892e-010
2.211943e-010
1.014064e-010
1.156754e-011
-5.408405e-011
-7.036841e-011
6.673700e-011
4.621528e-010
1.095244e-009
1.788959e-009
2.319071e-009
2.553912e-009
2.477223e-009
2.065452e-009
1.136528e-009
-6.927811e-010
-3.920546e-009
-9.045244e-009
-1.652592e-008
-2.681654e-008
-4.038912e-008
-5.768080e-008
-7.899065e-008
-1.044057e-007
-1.338001e-007
-1.668790e-007
-2.032091e-007
-2.422177e-007
-2.831942e-007
-3.253247e-007
-3.677560e-007
-4.096464e-007
-4.501808e-007
-4.885631e-007
-5.240200e-007
-5.558253e-007
-5.833271e-007
-6.059523e-007
-6.231931e-007
-6.346001e-007
-6.398005e-007
-6.385319e-007
-6.306645e-007
-6.162031e-007
-5.952851e-007
-5.681990e-007
-5.354204e-007
-4.976360e-007
-4.557302e-007
-4.107419e-007
-3.638232e-007
-3.162138e-007
-2.692087e-007
-2.240845e-007
-1.819891e-007
-1.438400e-007
-1.102799e-007
-8.168320e-008
-5.816566e-008
-3.957133e-008
-2.546839e-008
-1.521153e-008
-8.074158e-009
-3.377677e-009
-5.380817e-010
9.676667e-010
1.629563e-009
1.855778e-009
1.881192e-009
1.743849e-009
1.390810e-009
8.410405e-010
2.589642e-010
-1.325764e-010
-2.168008e-010
-6.688863e-011
1.268317e-010
2.109588e-010
1.626512e-010
5.774879e-011
-2.534686e-011
-6.178385e-011
-6.152809e-011
-2.925103e-011
3.621820e-011
1.100197e-010
1.349713e-010
6.836714e-011
-6.329096e-011
-1.696107e-010
-7.127842e-010
-6.929319e-011
5.900984e-010
6.815469e-010
1.502297e-010
-5.260680e-010
-7.759864e-010
-4.116439e-010
2.564278e-010
7.232753e-010
7.103958e-010
3.405541e-010
-3.597701e-011
-1.522898e-010
1.689609e-011
3.433249e-010
7.274359e-010
1.169199e-009
1.681268e-009
2.173224e-009
2.440338e-009
2.243343e-009
1.349037e-009
-5.532933e-010
-3.997490e-009
-9.807264e-009
-1.901680e-008
-3.271519e-008
-5.193451e-008
-7.762129e-008
-1.106240e-007
-1.516159e-007
-2.009564e-007
-2.585778e-007
-3.239673e-007
-3.962374e-007
-4.742166e-007
-5.565131e-007
-6.415619e-007
-7.276910e-007
-8.132123e-007
-8.965050e-007
-9.760566e-007
-1.050467e-006
-1.118443e-006
-1.178814e-006
-1.230537e-006
-1.272705e-006
-1.304525e-006
-1.325307e-006
-1.334482e-006
-1.331627e-006
-1.316492e-006
-1.289012e-006
-1.249331e-006
-1.197837e-006
-1.135221e-006
-1.062517e-006
-9.811076e-007
-8.927034e-007
-7.993216e-007
-7.032537e-007
-6.069907e-007
-5.130778e-007
-4.239231e-007
-3.416198e-007
-2.678285e-007
-2.037033e-007
-1.498285e-007
-1.061674e-007
-7.208589e-008
-4.649594e-008
-2.808064e-008
-1.549121e-008
-7.435563e-009
-2.689632e-009
-1.325472e-010
1.144970e-009
1.729169e-009
1.885591e-009
1.702518e-009
1.268356e-009
7.444128e-010
3.034300e-010
3.457878e-011
-7.261988e-011
-6.271558e-011
3.904506e-011
2.030604e-010
3.430289e-010
3.354041e-010
1.281460e-010
-1.702847e-010
-3.441224e-010
-2.509416e-010
3.420214e-011
2.660360e-010
2.442180e-010
-7.293050e-013
-2.332844e-010
-3.190414e-010
1.248276e-010
5.338842e-010
4.726174e-010
-6.265109e-011
-6.426348e-010
-7.779322e-010
-3.382589e-010
3.418135e-010
7.541377e-010
6.441298e-010
2.036833e-010
-1.194290e-010
-1.925831e-012
5.270067e-010
1.180945e-009
1.695988e-009
2.009240e-009
2.185450e-009
2.193974e-009
1.747771e-009
2.985622e-010
-2.903954e-009
-8.827858e-009
-1.876481e-008
-3.440434e-008
-5.776019e-008
-9.096110e-008
-1.360198e-007
-1.946645e-007
-2.682149e-007
-3.574342e-007
-4.623530e-007
-5.821442e-007
-7.151373e-007
-8.589769e-007
-1.010846e-006
-1.167669e-006
-1.326273e-006
-1.483524e-006
-1.636468e-006
-1.782441e-006
-1.919130e-006
-2.044563e-006
-2.157081e-006
-2.255298e-006
-2.338069e-006
-2.404452e-006
-2.453658e-006
-2.485015e-006
-2.497945e-006
-2.491971e-006
-2.466723e-006
-2.421960e-006
-2.357602e-006
-2.273811e-006
-2.171084e-006
-2.050355e-006
-1.913080e-006
-1.761317e-006
-1.597797e-006
-1.425957e-006
-1.249869e-006
-1.074039e-006
-9.031086e-007
-7.415265e-007
-5.932303e-007
-4.613475e-007
-3.479228e-007
-2.537369e-007
-1.783139e-007
-1.201515e-007
-7.708422e-008
-4.662796e-008
-2.621276e-008
-1.333742e-008
-5.730372e-009
-1.530342e-009
5.996393e-010
1.509556e-009
1.721028e-009
1.579479e-009
1.307371e-009
9.954860e-010
6.388948e-010
2.479216e-010
-6.556183e-011
-1.412349e-010
6.409615e-011
3.728691e-010
4.906293e-010
2.584515e-010
-1.803855e-010
-4.817036e-010
-4.012514e-010
-2.086491e-011
3.201441e-010
3.335384e-010
4.356811e-011
-2.457369e-010
3.610494e-011
1.393934e-010
2.118072e-010
1.279121e-010
-1.038872e-010
-3.208975e-010
-3.278519e-010
-7.678792e-011
2.585034e-010
4.117122e-010
2.693716e-010
9.196911e-012
-2.000899e-011
4.095951e-010
1.202747e-009
2.014708e-009
2.520072e-009
2.602358e-009
2.263270e-009
1.311507e-009
-9.268697e-010
-5.701223e-009
-1.477455e-008
-3.037503e-008
-5.524297e-008
-9.267541e-008
-1.464028e-007
-2.202396e-007
-3.176065e-007
-4.410722e-007
-5.919904e-007
-7.702296e-007
-9.740031e-007
-1.199866e-006
-1.442947e-006
-1.697407e-006
-1.956986e-006
-2.215512e-006
-2.467285e-006
-2.707322e-006
-2.931534e-006
-3.136801e-006
-3.320968e-006
-3.482753e-006
-3.621590e-006
-3.737456e-006
-3.830713e-006
-3.901941e-006
-3.951790e-006
-3.980835e-006
-3.989463e-006
-3.977777e-006
-3.945535e-006
-3.892110e-006
-3.816518e-006
-3.717512e-006
-3.593743e-006
-3.444004e-006
-3.267534e-006
-3.064389e-006
-2.835851e-006
-2.584775e-006
-2.315775e-006
-2.035161e-006
-1.750622e-006
-1.470689e-006
-1.204007e-006
-9.584731e-007
-7.403697e-007
-5.536931e-007
-3.998835e-007
-2.780144e-007
-1.853140e-007
-1.178016e-007
-7.088547e-008
-3.988536e-008
-2.048745e-008
-9.081331e-009
-2.894967e-009
8.356646e-011
1.280034e-009
1.652796e-009
1.722870e-009
1.626209e-009
1.297314e-009
7.310880e-010
1.285198e-010
-2.075816e-010
-1.316481e-010
1.906964e-010
4.071601e-010
2.853720e-010
-8.218823e-011
-3.711655e-010
-3.306645e-010
-1.384918e-011
2.797742e-010
2.893119e-010
3.229818e-011
-2.236502e-010
2.959592e-010
1.600030e-011
-2.511213e-010
-2.611393e-010
-3.161953e-011
2.201961e-010
3.083809e-010
2.251164e-010
8.614506e-011
-9.084152e-012
-2.494670e-011
7.863360e-011
3.938829e-010
9.885736e-010
1.776223e-009
2.492164e-009
2.811606e-009
2.447790e-009
1.032984e-009
-2.229841e-009
-8.945342e-009
-2.172154e-008
-4.415577e-008
-8.074947e-008
-1.368519e-007
-2.185425e-007
-3.322441e-007
-4.839514e-007