# vtk DataFile Version 3.0
vtk output
ASCII
DATASET STRUCTURED_POINTS
DIMENSIONS 100 100 1
SPACING 1 1 1
ORIGIN 0 0 0
POINT_DATA 10000
SCALARS SFBox_profile double
LOOKUP_TABLE default 
0.000000e+000
0.000000e+000
0.000000e+000
0.000000e+000
0.000000e+000
0.000000e+000
0.000000e+000
0.000000e+000
0.000000e+000
0.000000e+000
0.000000e+000
0.000000e+000
0.000000e+000
0.000000e+000
0.000000e+000
0.000000e+000
0.000000e+000
0.000000e+000
0.000000e+000
0.000000e+000
0.000000e+000
0.000000e+000
0.000000e+000
0.000000e+000
0.000000e+000
0.000000e+000
0.000000e+000
0.000000e+000
0.000000e+000
0.000000e+000
0.000000e+000
0.000000e+000
0.000000e+000
0.000000e+000
0.000000e+000
0.000000e+000
0.000000e+000
0.000000e+000
0.000000e+000
0.000000e+000
0.000000e+000
0.000000e+000
0.000000e+000
0.000000e+000
0.000000e+000
0.000000e+000
0.000000e+000
0.000000e+000
0.000000e+000
0.000000e+000
0.000000e+000
0.000000e+000
0.000000e+000
0.000000e+000
0.000000e+000
0.000000e+000
0.000000e+000
0.000000e+000
0.000000e+000
0.000000e+000
0.000000e+000
0.000000e+000
0.000000e+000
0.000000e+000
0.000000e+000
0.000000e+000
0.000000e+000
0.000000e+000
0.000000e+000
0.000000e+000
0.000000e+000
0.000000e+000
0.000000e+000
0.000000e+000
0.000000e+000
0.000000e+000
0.000000e+000
0.000000e+000
0.000000e+000
0.000000e+000
0.000000e+000
0.000000e+000
0.000000e+000
0.000000e+000
0.000000e+000
0.000000e+000
0.000000e+000
0.000000e+000
0.000000e+000
0.000000e+000
0.000000e+000
0.000000e+000
0.000000e+000
0.000000e+000
0.000000e+000
0.000000e+000
0.000000e+000
0.000000e+000
0.000000e+000
0.000000e+000
-1.439176e-011
-1.378723e-011
-1.258757e-011
-1.082599e-011
-8.496893e-012
-5.545694e-012
-1.819058e-012
3.012475e-012
9.455773e-012
1.826926e-011
3.054891e-011
4.763296e-011
7.117627e-011
1.030957e-010
1.454672e-010
2.004156e-010
2.699618e-010
3.558536e-010
4.593950e-010
5.812767e-010
7.215048e-010
8.792832e-010
1.053029e-009
1.240471e-009
1.438771e-009
1.644659e-009
1.854657e-009
2.065263e-009
2.273119e-009
2.475135e-009
2.668600e-009
2.851215e-009
3.021125e-009
3.176902e-009
3.317485e-009
3.442215e-009
3.550728e-009
3.642955e-009
3.719135e-009
3.779744e-009
3.825501e-009
3.857367e-009
3.876528e-009
3.884309e-009
3.882155e-009
3.871630e-009
3.854261e-009
3.831539e-009
3.804791e-009
3.775100e-009
3.743244e-009
3.709577e-009
3.673949e-009
3.635667e-009
3.593473e-009
3.545501e-009
3.489407e-009
3.422466e-009
3.341761e-009
3.244445e-009
3.128036e-009
2.990754e-009
2.831761e-009
2.651479e-009
2.451707e-009
2.235659e-009
2.007843e-009
1.773753e-009
1.539513e-009
1.311350e-009
1.095082e-009
8.956719e-010
7.168468e-010
5.609474e-010
4.288384e-010
3.200243e-010
2.329535e-010
1.652707e-010
1.141528e-010
7.666191e-011
4.993711e-011
3.141069e-011
1.892082e-011
1.070074e-011
5.404352e-012
2.078270e-012
1.813493e-014
-1.230688e-012
-1.935991e-012
-2.291183e-012
-2.381864e-012
-2.276408e-012
-2.058852e-012
-1.752195e-012
-1.381713e-012
-9.996165e-013
-6.445641e-013
-3.397487e-013
-1.294903e-013
-1.631299e-014
-1.230320e-011
-1.171586e-011
-1.052793e-011
-8.708125e-012
-6.137988e-012
-2.606435e-012
2.228740e-012
8.953104e-012
1.842196e-011
3.179287e-011
5.061395e-011
7.674293e-011
1.123560e-010
1.598421e-010
2.216235e-010
2.999566e-010
3.967043e-010
5.130753e-010
6.493769e-010
8.048128e-010
9.774350e-010
1.164115e-009
1.360680e-009
1.562150e-009
1.763045e-009
1.957705e-009
2.140678e-009
2.307007e-009
2.452458e-009
2.573679e-009
2.668257e-009
2.734715e-009
2.772435e-009
2.781570e-009
2.762903e-009
2.717799e-009
2.648075e-009
2.555995e-009
2.444255e-009
2.315955e-009
2.174625e-009
2.024205e-009
1.869024e-009
1.713730e-009
1.563224e-009
1.422554e-009
1.296702e-009
1.190495e-009
1.108342e-009
1.054029e-009
1.030487e-009
1.039532e-009
1.081616e-009
1.155631e-009
1.258761e-009
1.386373e-009
1.532106e-009
1.688018e-009
1.844920e-009
1.992869e-009
2.121782e-009
2.222196e-009
2.285976e-009
2.307091e-009
2.282198e-009
2.211012e-009
2.096408e-009
1.944150e-009
1.762388e-009
1.560834e-009
1.349816e-009
1.139338e-009
9.381833e-010
7.533398e-010
5.896305e-010
4.496213e-010
3.338818e-010
2.413096e-010
1.696072e-010
1.158184e-010
7.670122e-011
4.911436e-011
3.024530e-011
1.770987e-011
9.606394e-012
4.522904e-012
1.413131e-012
-4.299782e-013
-1.461927e-012
-1.989284e-012
-2.183869e-012
-2.148241e-012
-1.963877e-012
-1.680908e-012
-1.344419e-012
-9.898162e-013
-6.606099e-013
-3.865990e-013
-1.882772e-013
-7.597447e-014
-8.204436e-012
-7.592252e-012
-6.295780e-012
-4.128196e-012
-7.288739e-013
4.452449e-012
1.222403e-011
2.377181e-011
4.070186e-011
6.504944e-011
9.933343e-011
1.464481e-010
2.095127e-010
2.916237e-010
3.954822e-010
5.229545e-010
6.746074e-010
8.492520e-010
1.043559e-009
1.251852e-009
1.466169e-009
1.676514e-009
1.871369e-009
2.038410e-009
2.165326e-009
2.240624e-009
2.254397e-009
2.198872e-009
2.068753e-009
1.861376e-009
1.576578e-009
1.216468e-009
7.850763e-010
2.879938e-010
-2.680040e-010
-8.751913e-010
-1.525105e-009
-2.208545e-009
-2.915634e-009
-3.635737e-009
-4.357362e-009
-5.068141e-009
-5.754876e-009
-6.403615e-009
-6.999822e-009
-7.528662e-009
-7.975401e-009
-8.325790e-009
-8.566653e-009
-8.686446e-009
-8.675926e-009
-8.528844e-009
-8.242645e-009
-7.819113e-009
-7.264902e-009
-6.591901e-009
-5.817318e-009
-4.963433e-009
-4.056971e-009
-3.128020e-009
-2.208583e-009
-1.330723e-009
-5.245686e-010
1.838186e-010
7.743383e-010
1.234326e-009
1.559406e-009
1.753545e-009
1.828302e-009
1.801303e-009
1.694199e-009
1.530372e-009
1.332652e-009
1.121470e-009
9.135254e-010
7.210728e-010
5.519016e-010
4.097515e-010
2.950901e-010
2.060866e-010
1.394582e-010
9.129915e-011
5.765932e-011
3.494218e-011
2.009427e-011
1.070869e-011
4.968794e-012
1.589571e-012
-3.059888e-013
-1.297083e-012
-1.745597e-012
-1.864095e-012
-1.771058e-012
-1.560729e-012
-1.296401e-012
-9.957749e-013
-7.076682e-013
-4.759900e-013
-3.003096e-013
-1.955422e-013
-2.108105e-012
-1.303083e-012
5.094320e-013
3.808859e-012
9.397380e-012
1.845437e-011
3.264721e-011
5.424155e-011
8.612159e-011
1.317882e-010
1.952778e-010
2.808732e-010
3.926310e-010
5.337551e-010
7.057597e-010
9.075077e-010
1.134240e-009
1.376774e-009
1.620960e-009
1.847620e-009
2.033074e-009
2.150191e-009
2.169956e-009
2.063414e-009
1.803706e-009
1.367934e-009
7.387222e-010
-9.479850e-011
-1.136588e-009
-2.383806e-009
-3.827531e-009
-5.453699e-009
-7.244223e-009
-9.178056e-009
-1.123215e-008
-1.338211e-008
-1.560253e-008
-1.786704e-008
-2.014826e-008
-2.241748e-008
-2.464436e-008
-2.679675e-008
-2.884066e-008
-3.074039e-008
-3.245894e-008
-3.395855e-008
-3.520161e-008
-3.615166e-008
-3.677466e-008
-3.704035e-008
-3.692399e-008
-3.640794e-008
-3.548352e-008
-3.415269e-008
-3.242957e-008
-3.034154e-008
-2.792988e-008
-2.524948e-008
-2.236783e-008
-1.936273e-008
-1.631915e-008
-1.332497e-008
-1.046604e-008
-7.820771e-009
-5.454981e-009
-3.417497e-009
-1.737045e-009
-4.209525e-010
5.440650e-010
1.189170e-009
1.559087e-009
1.706776e-009
1.687857e-009
1.555588e-009
1.356927e-009
1.130007e-009
9.031293e-010
6.950237e-010
5.161016e-010
3.702604e-010
2.567664e-010
1.720894e-010
1.113505e-010
6.940142e-011
4.147503e-011
2.355021e-011
1.246335e-011
5.865867e-012
2.103943e-012
7.677314e-014
-9.377059e-013
-1.370255e-012
-1.462623e-012
-1.382311e-012
-1.221585e-012
-1.002512e-012
-7.764918e-013
-5.960244e-013
-4.589851e-013
-3.749885e-013
6.343121e-012
7.762437e-012
1.104636e-011
1.717486e-011
2.771197e-011
4.491183e-011
7.186634e-011
1.125685e-010
1.718662e-010
2.553020e-010
3.686636e-010
5.172005e-010
7.044168e-010
9.305295e-010
1.190564e-009
1.472312e-009
1.754447e-009
2.005175e-009
2.181654e-009
2.230659e-009
2.090590e-009
1.694683e-009
9.752648e-010
-1.314227e-010
-1.680511e-009
-3.714427e-009
-6.259914e-009
-9.326525e-009
-1.290661e-008
-1.697657e-008
-2.149923e-008
-2.642676e-008
-3.170370e-008
-3.726974e-008
-4.306194e-008
-4.901621e-008
-5.506798e-008
-6.115206e-008
-6.720221e-008
-7.315019e-008
-7.892491e-008
-8.445176e-008
-8.965234e-008
-9.444458e-008
-9.874349e-008
-1.024624e-007
-1.055145e-007
-1.078155e-007
-1.092858e-007
-1.098540e-007
-1.094602e-007
-1.080601e-007
-1.056290e-007
-1.021658e-007
-9.769675e-008
-9.227878e-008
-8.600121e-008
-7.898630e-008
-7.138773e-008
-6.338658e-008
-5.518493e-008
-4.699691e-008
-3.903759e-008
-3.151047e-008
-2.459477e-008
-1.843381e-008
-1.312590e-008
-8.719173e-009
-5.211016e-009
-2.552417e-009
-6.564527e-010
5.901094e-010
1.313930e-009
1.642718e-009
1.694836e-009
1.571903e-009
1.354827e-009
1.102958e-009
8.558074e-010
6.363293e-010
4.548780e-010
3.132055e-010
2.078842e-010
1.329707e-010
8.184312e-011
4.830880e-011
2.716328e-011
1.433612e-011
6.861780e-012
2.708646e-012
5.144311e-013
-5.632075e-013
-1.019114e-012
-1.154163e-012
-1.127801e-012
-1.010796e-012
-8.644926e-013
-7.396938e-013
-6.456813e-013
-5.907472e-013
1.839460e-011
2.128593e-011
2.791693e-011
4.009065e-011
6.062655e-011
9.351305e-011
1.440259e-010
2.186569e-010
3.248147e-010
4.701065e-010
6.610117e-010
9.008426e-010
1.186838e-009
1.506564e-009
1.833754e-009
2.124115e-009
2.311849e-009
2.307653e-009
1.998851e-009
1.252457e-009
-7.872588e-011
-2.147423e-009
-5.101309e-009
-9.071769e-009
-1.416359e-008
-2.044672e-008
-2.795113e-008
-3.666535e-008
-4.653844e-008
-5.748481e-008
-6.939117e-008
-8.212417e-008
-9.553805e-008
-1.094811e-007
-1.238005e-007
-1.383453e-007
-1.529674e-007
-1.675209e-007
-1.818602e-007
-1.958380e-007
-2.093025e-007
-2.220957e-007
-2.340525e-007
-2.450005e-007
-2.547613e-007
-2.631527e-007
-2.699918e-007
-2.750995e-007
-2.783056e-007
-2.794553e-007
-2.784160e-007
-2.750857e-007
-2.694011e-007
-2.613469e-007
-2.509641e-007
-2.383576e-007
-2.237020e-007
-2.072446e-007
-1.893041e-007
-1.702656e-007
-1.505686e-007
-1.306899e-007
-1.111216e-007
-9.234381e-008
-7.479571e-008
-5.884767e-008
-4.477726e-008
-3.275285e-008
-2.282717e-008
-1.494209e-008
-8.943614e-009
-4.605491e-009
-1.657199e-009
1.873872e-010
1.204573e-009
1.641385e-009
1.703490e-009
1.550409e-009
1.296885e-009
1.018478e-009
7.594537e-010
5.412216e-010
3.700267e-010
2.432012e-010
1.537748e-010
9.347933e-011
5.451052e-011
3.032438e-011
1.590969e-011
7.682248e-012
3.183896e-012
8.404509e-013
-3.035808e-013
-8.071871e-013
-9.854189e-013
-1.009796e-012
-9.685387e-013
-9.093807e-013
-8.544171e-013
-8.240022e-013
3.694637e-011
4.286346e-011
5.618328e-011
8.000835e-011
1.191196e-010
1.801029e-010
2.712654e-010
4.021440e-010
5.824116e-010
8.197428e-010
1.116396e-009
1.464215e-009
1.837931e-009
2.187156e-009
2.427690e-009
2.433314e-009
2.029765e-009
9.926417e-010
-9.492668e-010
-4.104042e-009
-8.800179e-009
-1.536491e-008
-2.409942e-008
-3.525418e-008
-4.900764e-008
-6.545108e-008
-8.458147e-008
-1.063028e-007
-1.304349e-007
-1.567286e-007
-1.848833e-007
-2.145664e-007
-2.454303e-007
-2.771266e-007
-3.093158e-007
-3.416721e-007
-3.738848e-007
-4.056550e-007
-4.366913e-007
-4.667037e-007
-4.953979e-007
-5.224710e-007
-5.476080e-007
-5.704817e-007
-5.907535e-007
-6.080771e-007
-6.221037e-007
-6.324895e-007
-6.389045e-007
-6.410434e-007
-6.386387e-007
-6.314750e-007
-6.194051e-007
-6.023676e-007
-5.804042e-007
-5.536767e-007
-5.224821e-007
-4.872629e-007
-4.486116e-007
-4.072663e-007
-3.640956e-007
-3.200709e-007
-2.762255e-007
-2.336024e-007
-1.931941e-007
-1.558790e-007
-1.223629e-007
-9.313346e-008
-6.843321e-008
-4.825706e-008
-3.237420e-008
-2.037151e-008
-1.171086e-008
-5.791833e-009
-2.010526e-009
1.925884e-010
1.300010e-009
1.700679e-009
1.687690e-009
1.466661e-009
1.170478e-009
8.764413e-010
6.227718e-010
4.226349e-010
2.749213e-010
1.717133e-010
1.030041e-010
5.924499e-011
3.252801e-011
1.689136e-011
8.113678e-012
3.389365e-012
9.576937e-013
-2.265988e-013
-7.659930e-013
-9.955995e-013
-1.075225e-012
-1.089498e-012
-1.077872e-012
-1.071412e-012
6.768200e-011
7.923653e-011
1.048069e-010
1.494441e-010
2.207662e-010
3.288199e-010
4.853945e-010
7.023343e-010
9.883836e-010
1.343713e-009
1.751664e-009
2.167248e-009
2.502389e-009
2.608929e-009
2.261154e-009
1.140679e-009
-1.172706e-009
-5.200358e-009
-1.155127e-008
-2.089411e-008
-3.391574e-008
-5.127006e-008
-7.352287e-008
-1.011004e-007
-1.342485e-007
-1.730092e-007
-2.172155e-007
-2.665059e-007
-3.203548e-007
-3.781125e-007
-4.390501e-007
-5.024023e-007
-5.674046e-007
-6.333202e-007
-6.994573e-007
-7.651753e-007
-8.298832e-007
-8.930312e-007
-9.540990e-007
-1.012583e-006
-1.067982e-006
-1.119792e-006
-1.167492e-006
-1.210548e-006
-1.248408e-006
-1.280506e-006
-1.306269e-006
-1.325129e-006
-1.336531e-006
-1.339949e-006
-1.334908e-006
-1.321001e-006
-1.297917e-006
-1.265470e-006
-1.223628e-006
-1.172553e-006
-1.112626e-006
-1.044490e-006
-9.690631e-007
-8.875593e-007
-8.014785e-007
-7.125777e-007
-6.228136e-007
-5.342548e-007
-4.489691e-007
-3.688921e-007
-2.956932e-007
-2.306544e-007
-1.745824e-007
-1.277676e-007
-8.999884e-008
-6.063089e-008
-3.869222e-008
-2.301484e-008
-1.236448e-008
-5.553051e-009
-1.521469e-009
6.118889e-010
1.534728e-009
1.749749e-009
1.599993e-009
1.301939e-009
9.793853e-010
6.934938e-010
4.667188e-010
3.001416e-010
1.849628e-010
1.093185e-010
6.188997e-011
3.342982e-011
1.706039e-011
8.029818e-012
3.249837e-012
8.267646e-013
-3.498988e-013
-9.014314e-013
-1.144317e-012
-1.253409e-012
-1.293371e-012
-1.313959e-012
1.204857e-010
1.418157e-010
1.883510e-010
2.678275e-010
3.914863e-010
5.731047e-010
8.266665e-010
1.161720e-009
1.575335e-009
2.039164e-009
2.480642e-009
2.757791e-009
2.628148e-009
1.714319e-009
-5.293367e-010
-4.842406e-009
-1.216862e-008
-2.364263e-008
-4.054772e-008
-6.424258e-008
-9.606147e-008
-1.371978e-007
-1.885867e-007
-2.508044e-007
-3.239995e-007
-4.078684e-007
-5.016747e-007
-6.043106e-007
-7.143863e-007
-8.303332e-007
-9.505081e-007
-1.073283e-006
-1.197117e-006
-1.320599e-006
-1.442470e-006
-1.561623e-006
-1.677093e-006
-1.788025e-006
-1.893660e-006
-1.993299e-006
-2.086283e-006
-2.171976e-006
-2.249746e-006
-2.318955e-006
-2.378954e-006
-2.429077e-006
-2.468643e-006
-2.496957e-006
-2.513322e-006
-2.517042e-006
-2.507442e-006
-2.483882e-006
-2.445784e-006
-2.392668e-006
-2.324194e-006
-2.240221e-006
-2.140876e-006
-2.026635e-006
-1.898406e-006
-1.757606e-006
-1.606222e-006
-1.446827e-006
-1.282553e-006
-1.116992e-006
-9.540234e-007
-7.975762e-007
-6.513441e-007
-5.184870e-007
-4.013665e-007
-3.013634e-007
-2.188094e-007
-1.530482e-007
-1.026089e-007
-6.545645e-008
-3.926826e-008
-2.169155e-008
-1.054640e-008
-3.957998e-009
-4.182855e-010
1.211095e-009
1.736548e-009
1.692249e-009
1.406225e-009
1.061761e-009
7.481003e-010
4.985017e-010
3.164484e-010
1.920904e-010
1.116469e-010
6.206765e-011
3.285081e-011
1.636122e-011
7.442193e-012
2.812241e-012
4.958778e-013
-6.219592e-013
-1.146738e-012
-1.397885e-012
-1.498396e-012
-1.540891e-012
2.111554e-010
2.484744e-010
3.288120e-010
4.631100e-010
6.661902e-010
9.536513e-010
1.335569e-009
1.805052e-009
2.319396e-009
2.771250e-009
2.948006e-009
2.479052e-009
7.731941e-010
-3.047589e-009
-1.020746e-008
-2.231447e-008
-4.135971e-008
-6.966209e-008
-1.097481e-007
-1.641670e-007
-2.352551e-007
-3.248783e-007
-4.341944e-007
-5.634753e-007
-7.120240e-007
-8.782018e-007
-1.059558e-006
-1.253039e-006
-1.455233e-006
-1.662626e-006
-1.871815e-006
-2.079685e-006
-2.283507e-006
-2.480989e-006
-2.670269e-006
-2.849879e-006
-3.018686e-006
-3.175838e-006
-3.320710e-006
-3.452861e-006
-3.572000e-006
-3.677949e-006
-3.770618e-006
-3.849973e-006
-3.916010e-006
-3.968719e-006
-4.008060e-006
-4.033932e-006
-4.046141e-006
-4.044373e-006
-4.028157e-006
-3.996842e-006
-3.949575e-006
-3.885300e-006
-3.802780e-006
-3.700662e-006
-3.577593e-006
-3.432383e-006
-3.264235e-006
-3.073002e-006
-2.859466e-006
-2.625593e-006
-2.374710e-006
-2.111566e-006
-1.842212e-006
-1.573684e-006
-1.313481e-006
-1.068895e-006
-8.462864e-007
-6.504533e-007
-4.841942e-007
-3.481728e-007
-2.410867e-007
-1.600866e-007
-1.013350e-007
-6.058219e-008
-3.365898e-008
-1.682844e-008
-6.982539e-009
-1.703192e-009
7.759377e-010
1.666554e-009
1.746717e-009
1.480177e-009
1.118892e-009
7.825735e-010
5.152615e-010
3.222635e-010
1.923430e-010
1.097246e-010
5.973857e-011
3.085894e-011
1.489513e-011
6.435967e-012
2.123489e-012
1.155600e-014
-9.963420e-013
-1.471458e-012
-1.671583e-012
-1.751613e-012
3.634074e-010
4.254345e-010
5.570814e-010
7.720027e-010
1.085996e-009
1.508930e-009
2.029550e-009
2.589384e-009
3.041308e-009
3.088387e-009
2.200204e-009
-4.924817e-010
-6.317764e-009
-1.718226e-008
-3.566596e-008
-6.505955e-008
-1.093075e-007
-1.728240e-007
-2.601636e-007
-3.755574e-007
-5.223628e-007
-7.025135e-007
-9.160783e-007
-1.161029e-006
-1.433279e-006
-1.726991e-006
-2.035096e-006
-2.349923e-006
-2.663835e-006
-2.969769e-006
-3.261636e-006
-3.534543e-006
-3.784855e-006
-4.010127e-006
-4.208949e-006
-4.380766e-006
-4.525702e-006
-4.644430e-006
-4.738084e-006
-4.808211e-006
-4.856738e-006
-4.885937e-006
-4.898380e-006
-4.896869e-006
-4.884355e-006
-4.863836e-006
-4.838245e-006
-4.810325e-006
-4.782489e-006
-4.756667e-006
-4.734128e-006
-4.715294e-006
-4.699545e-006
-4.685047e-006
-4.668625e-006
-4.645728e-006
-4.610515e-006
-4.556118e-006
-4.475092e-006
-4.360057e-006
-4.204514e-006
-4.003774e-006
-3.755889e-006
-3.462452e-006
-3.129077e-006
-2.765389e-006
-2.384403e-006
-2.001278e-006
-1.631613e-006
-1.289564e-006
-9.861909e-007
-7.283710e-007
-5.184801e-007
-3.548384e-007
-2.327066e-007
-1.455277e-007
-8.611322e-008
-4.757359e-008
-2.391038e-008
-1.029033e-008
-3.073992e-009
3.110326e-010
1.572607e-009
1.772457e-009
1.523411e-009
1.147954e-009
7.944531e-010
5.155542e-010
3.170261e-010
1.856843e-010
1.037465e-010
5.517714e-011
2.770456e-011
1.284182e-011
5.133318e-012
1.296644e-012
-5.483386e-013
-1.405218e-012
-1.780460e-012
-1.931758e-012
6.103610e-010
7.083099e-010
9.127195e-010
1.236665e-009
1.688120e-009
2.251058e-009
2.851560e-009
3.301799e-009
3.213672e-009
1.874912e-009
-1.915547e-009
-1.004780e-008
-2.531803e-008
-5.162598e-008
-9.409616e-008
-1.590481e-007
-2.537324e-007
-3.857635e-007
-5.622237e-007
-7.885023e-007
-1.067042e-006
-1.396261e-006
-1.769933e-006
-2.177246e-006
-2.603584e-006
-3.031898e-006
-3.444385e-006
-3.824162e-006
-4.156650e-006
-4.430507e-006
-4.638041e-006
-4.775176e-006
-4.841052e-006
-4.837428e-006
-4.768022e-006
-4.637920e-006
-4.453144e-006
-4.220399e-006
-3.946987e-006
-3.640822e-006
-3.310482e-006
-2.965228e-006
-2.614960e-006
-2.270107e-006
-1.941442e-006
-1.639858e-006
-1.376101e-006
-1.160468e-006
-1.002469e-006
-9.104255e-007
-8.910073e-007
-9.486925e-007
-1.085167e-006
-1.298695e-006
-1.583518e-006
-1.929374e-006
-2.321228e-006
-2.739347e-006
-3.159813e-006
-3.555591e-006
-3.898213e-006
-4.160055e-006
-4.317118e-006
-4.352005e-006
-4.256670e-006
-4.034341e-006
-3.700038e-006
-3.279280e-006
-2.804935e-006
-2.312711e-006
-1.836190e-006
-1.402512e-006
-1.029673e-006
-7.258479e-007
-4.905780e-007
-3.171560e-007
-1.953679e-007
-1.139138e-007
-6.213722e-008
-3.100024e-008
-1.343997e-008
-4.307999e-009
-8.402454e-011
1.492387e-009
1.780015e-009
1.536826e-009
1.147759e-009
7.829531e-010
4.993864e-010
3.012559e-010
1.728144e-010
9.438249e-011
4.889377e-011
2.373393e-011
1.042885e-011
3.688773e-012
4.117365e-013
-1.114963e-012
-1.790787e-012
-2.056228e-012
9.950620e-010
1.141493e-009
1.440366e-009
1.894591e-009
2.482324e-009
3.115865e-009
3.570552e-009
3.370471e-009
1.616796e-009
-3.251985e-009
-1.376883e-008
-3.379774e-008
-6.889566e-008
-1.265879e-007
-2.164204e-007
-3.496099e-007
-5.380955e-007
-7.928515e-007
-1.121487e-006
-1.525437e-006
-1.997362e-006
-2.519534e-006
-3.063891e-006
-3.594030e-006
-4.068838e-006
-4.447038e-006
-4.691656e-006
-4.773591e-006
-4.673775e-006
-4.383783e-006
-3.905125e-006
-3.247587e-006
-2.427087e-006
-1.463477e-006
-3.786425e-007
8.049036e-007
2.064829e-006
3.379261e-006
4.726672e-006
6.085556e-006
7.434081e-006
8.749854e-006
1.000985e-005
1.119049e-005
1.226791e-005
1.321826e-005
1.401803e-005
1.464453e-005
1.507626e-005
1.529352e-005
1.527914e-005
1.501932e-005
1.450485e-005
1.373242e-005
1.270621e-005
1.143958e-005
9.956629e-006
8.293570e-006
6.499441e-006
4.635853e-006
2.775279e-006
9.975083e-007
-6.159608e-007
-1.989383e-006
-3.061359e-006
-3.793222e-006
-4.175431e-006
-4.230099e-006
-4.008392e-006
-3.582690e-006
-3.034956e-006
-2.444011e-006
-1.874771e-006
-1.371865e-006
-9.584574e-007
-6.394198e-007
-4.069212e-007
-2.463401e-007
-1.410618e-007
-7.559500e-008
-3.712507e-008
-1.593757e-008
-5.179035e-009
-3.183433e-010
1.456145e-009
1.776622e-009
1.521183e-009
1.118480e-009
7.489749e-010
4.681917e-010
2.764569e-010
1.550077e-010
8.254193e-011
4.149442e-011
1.932838e-011
7.885194e-012
2.233372e-012
-4.337241e-013
-1.621022e-012
-2.074499e-012
1.568422e-009
1.773850e-009
2.179700e-009
2.756492e-009
3.404867e-009
3.871451e-009
3.607043e-009
1.544054e-009
-4.229508e-009
-1.691271e-008
-4.154022e-008
-8.558188e-008
-1.594675e-007
-2.768121e-007
-4.539969e-007
-7.086543e-007
-1.056613e-006
-1.507123e-006
-2.056783e-006
-2.683483e-006
-3.342311e-006
-3.965422e-006
-4.466906e-006
-4.752180e-006
-4.729922e-006
-4.323815e-006
-3.481571e-006
-2.179701e-006
-4.237349e-007
1.755339e-006
4.307082e-006
7.168621e-006
1.027142e-005
1.354684e-005
1.693007e-005
2.036225e-005
2.379113e-005
2.717062e-005
3.045988e-005
3.362211e-005
3.662354e-005
3.943274e-005
4.202010e-005
4.435762e-005
4.641876e-005
4.817825e-005
4.961183e-005
5.069588e-005
5.140696e-005
5.172141e-005
5.161499e-005
5.106300e-005
5.004073e-005
4.852485e-005
4.649571e-005
4.394089e-005
4.086014e-005
3.727144e-005
3.321780e-005
2.877364e-005
2.404931e-005
1.919172e-005
1.437939e-005
9.810560e-006
5.684290e-006
2.176600e-006
-5.845300e-007
-2.539588e-006
-3.707624e-006
-4.182140e-006
-4.112568e-006
-3.675621e-006
-3.044123e-006
-2.361488e-006
-1.727574e-006
-1.197143e-006
-7.878904e-007
-4.928816e-007
-2.926306e-007
-1.641056e-007
-8.605288e-008
-4.133323e-008
-1.735227e-008
-5.516494e-009
-3.364833e-010
1.476355e-009
1.763033e-009
1.476409e-009
1.061533e-009
6.949853e-010
4.245982e-010
2.448637e-010
1.338876e-010
6.931745e-011
3.364877e-011
1.485700e-011
5.404225e-012
8.731862e-013
-1.159117e-012
-1.929119e-012
2.382569e-009
2.648098e-009
3.144963e-009
3.765539e-009
4.238693e-009
3.966053e-009
1.751929e-009
-4.611090e-009
-1.893352e-008
-4.740490e-008
-9.950386e-008
-1.888852e-007
-3.339104e-007
-5.572284e-007
-8.835095e-007
-1.334241e-006
-1.918775e-006
-2.621979e-006
-3.390894e-006
-4.124926e-006
-4.674848e-006
-4.854114e-006
-4.462041e-006
-3.314032e-006
-1.271392e-006
1.736551e-006
5.702660e-006
1.054532e-005
1.612234e-005
2.225124e-005
2.873114e-005
3.536278e-005
4.196376e-005
4.837810e-005
5.448010e-005
6.017390e-005
6.539045e-005
7.008357e-005
7.422659e-005
7.780963e-005
8.083790e-005
8.333032e-005
8.531831e-005
8.684412e-005
8.795878e-005
8.871921e-005
8.918472e-005
8.941273e-005
8.945388e-005
8.934634e-005
8.910979e-005
8.873910e-005
8.819851e-005
8.741720e-005
8.628754e-005
8.466778e-005
8.239084e-005
7.928042e-005
7.517491e-005
6.995745e-005
6.358898e-005
5.613844e-005
4.780309e-005
3.891093e-005
2.989885e-005
2.126429e-005
1.349552e-005
6.993988e-006
2.008147e-006
-1.402948e-006
-3.365933e-006
-4.150386e-006
-4.100006e-006
-3.558891e-006
-2.813536e-006
-2.063062e-006
-1.418205e-006
-9.198691e-007
-5.647419e-007
-3.281552e-007
-1.797489e-007
-9.189332e-008
-4.292238e-008
-1.742799e-008
-5.253189e-009
-1.353723e-010
1.543480e-009
1.733243e-009
1.401977e-009
9.797403e-010
6.248331e-010
3.721241e-010
2.091160e-010
1.112282e-010
5.578058e-011
2.593908e-011
1.063690e-011
3.172031e-012
-2.318470e-013
-1.535427e-012
3.477045e-009
3.780611e-009
4.289123e-009
4.730165e-009
4.487220e-009
2.295261e-009
-4.251508e-009
-1.943748e-008
-5.044668e-008
-1.086399e-007
-2.109168e-007
-3.807207e-007
-6.477788e-007
-1.045004e-006
-1.600316e-006
-2.321155e-006
-3.171232e-006
-4.043338e-006
-4.737526e-006
-4.957462e-006
-4.335243e-006
-2.485988e-006
9.184031e-007
6.075351e-006
1.299800e-005
2.149589e-005
3.119306e-005
4.157739e-005
5.206786e-005
6.208383e-005
7.110363e-005
7.870499e-005
8.458484e-005
8.856034e-005
9.055589e-005
9.058292e-005
8.871946e-005
8.509453e-005
7.987908e-005
7.328261e-005
6.555277e-005
5.697499e-005
4.787039e-005
3.859081e-005
2.951121e-005
2.101973e-005
1.350607e-005
7.348127e-006
2.896722e-006
4.579563e-007
2.724867e-007
2.491610e-006
7.150657e-006
1.414144e-005
2.318706e-005
3.382398e-005
4.539806e-005
5.708141e-005
6.791689e-005
7.689402e-005
8.305585e-005
8.562937e-005
8.416243e-005
7.863934e-005
6.953918e-005
5.780427e-005
4.470661e-005
3.163165e-005
1.982952e-005
1.020122e-005
3.180128e-006
-1.267100e-006
-3.535942e-006
-4.217957e-006
-3.930084e-006
-3.187767e-006
-2.345274e-006
-1.597642e-006
-1.019448e-006
-6.129918e-007
-3.478250e-007
-1.855951e-007
-9.216731e-008
-4.162044e-008
-1.615316e-008
-4.444633e-009
2.348808e-010
1.629422e-009
1.677381e-009
1.298322e-009
8.775586e-010
5.434951e-010
3.147748e-010
1.719650e-010
8.870431e-011
4.284157e-011
1.884747e-011
6.928348e-012
1.409057e-012
-7.199507e-013
4.855151e-009
5.128307e-009
5.448007e-009
5.223513e-009
3.191754e-009
-3.124791e-009
-1.827713e-008
-5.014300e-008
-1.115910e-007
-2.224045e-007
-4.109456e-007
-7.143249e-007
-1.174645e-006
-1.827343e-006
-2.676792e-006
-3.656371e-006
-4.577714e-006
-5.086145e-006
-4.650220e-006
-2.612657e-006
1.687613e-006
8.741536e-006
1.868878e-005
3.118442e-005
4.535643e-005
5.987359e-005
7.311370e-005
8.338777e-005
8.916299e-005
8.923795e-005
8.284370e-005
6.966673e-005
4.980661e-005
2.369083e-005
-8.027955e-006
-4.456832e-005
-8.509206e-005
-1.287440e-004
-1.746625e-004
-2.219722e-004
-2.697708e-004
-3.171194e-004
-3.630423e-004
-4.065357e-004
-4.465811e-004
-4.821626e-004
-5.122839e-004
-5.359842e-004
-5.523556e-004
-5.605632e-004
-5.598733e-004
-5.496920e-004
-5.296184e-004
-4.995144e-004
-4.595897e-004
-4.104962e-004
-3.534210e-004
-2.901603e-004
-2.231490e-004
-1.554171e-004
-9.044272e-005
-3.187509e-005
1.687777e-005
5.316254e-005
7.559610e-005
8.442335e-005
8.155016e-005
7.017767e-005
5.412495e-005
3.704645e-005
2.177101e-005
9.948674e-006
2.060625e-006
-2.302453e-006
-4.037121e-006
-4.142894e-006
-3.458130e-006
-2.548044e-006
-1.715380e-006
-1.073929e-006
-6.308772e-007
-3.486933e-007
-1.807250e-007
-8.683576e-008
-3.765766e-008
-1.376358e-008
-3.252630e-009
6.866596e-010
1.697334e-009
1.586266e-009
1.168171e-009
7.610625e-010
4.565864e-010
2.565799e-010
1.359045e-010
6.769584e-011
3.124279e-011
1.279536e-011
4.113820e-012
7.385591e-013
6.447978e-009
6.539886e-009
6.261298e-009
4.446252e-009
-1.309693e-009
-1.557512e-008
-4.651616e-008
-1.079156e-007
-2.216871e-007
-4.203559e-007
-7.480206e-007
-1.256475e-006
-1.990354e-006
-2.952480e-006
-4.041806e-006
-4.967279e-006
-5.164464e-006
-3.769210e-006
2.869522e-007
8.021423e-006
2.000822e-005
3.594103e-005
5.429076e-005
7.219495e-005
8.568384e-005
9.023390e-005
8.149951e-005
5.603062e-005
1.179030e-005
-5.164921e-005
-1.332279e-004
-2.307317e-004
-3.412093e-004
-4.613758e-004
-5.879418e-004
-7.178386e-004
-8.483339e-004
-9.770547e-004
-1.101953e-003
-1.221252e-003
-1.333401e-003
-1.437058e-003
-1.531084e-003
-1.614550e-003
-1.686738e-003
-1.747114e-003
-1.795293e-003
-1.830969e-003
-1.853836e-003
-1.863495e-003
-1.859364e-003
-1.840597e-003
-1.806036e-003
-1.754219e-003
-1.683478e-003
-1.592153e-003
-1.478957e-003
-1.343478e-003
-1.186786e-003
-1.012030e-003
-8.248491e-004
-6.334099e-004
-4.478717e-004
-2.792103e-004
-1.375035e-004
-2.999701e-005
4.053625e-005
7.650395e-005
8.477398e-005
7.468321e-005
5.564333e-005
3.520139e-005
1.805451e-005
6.120204e-006
-7.211194e-007
-3.677868e-006
-4.229656e-006
-3.617716e-006
-2.654915e-006
-1.758291e-006
-1.076201e-006
-6.158488e-007
-3.306464e-007
-1.659247e-007
-7.677837e-008
-3.170422e-008
-1.067719e-008
-1.899297e-009
1.120838e-009
1.713697e-009
1.455779e-009
1.017483e-009
6.375466e-010
3.697589e-010
2.011567e-010
1.029826e-010
4.928585e-011
2.157662e-011
8.313910e-012
3.095745e-012
8.065436e-009
7.691223e-009
6.071458e-009
1.057278e-009
-1.166899e-008
-4.010833e-008
-9.822360e-008
-2.089873e-007
-4.077528e-007
-7.443774e-007
-1.280100e-006
-2.070857e-006
-3.123274e-006
-4.307867e-006
-5.226723e-006
-5.070798e-006
-2.559415e-006
3.902765e-006
1.573742e-005
3.336585e-005
5.520180e-005