# vtk DataFile Version 3.0
vtk output
ASCII
DATASET STRUCTURED_POINTS
DIMENSIONS 100 100 1
SPACING 1 1 1
ORIGIN 0 0 0
POINT_DATA 10000
SCALARS SFBox_profile double
LOOKUP_TABLE default 
0.000000e+000
0.000000e+000
0.000000e+000
0.000000e+000
0.000000e+000
0.000000e+000
0.000000e+000
0.000000e+000
0.000000e+000
0.000000e+000
0.000000e+000
0.000000e+000
0.000000e+000
0.000000e+000
0.000000e+000
0.000000e+000
0.000000e+000
0.000000e+000
0.000000e+000
0.000000e+000
0.000000e+000
0.000000e+000
0.000000e+000
0.000000e+000
0.000000e+000
0.000000e+000
0.000000e+000
0.000000e+000
0.000000e+000
0.000000e+000
0.000000e+000
0.000000e+000
0.000000e+000
0.000000e+000
0.000000e+000
0.000000e+000
0.000000e+000
0.000000e+000
0.000000e+000
0.000000e+000
0.000000e+000
0.000000e+000
0.000000e+000
0.000000e+000
0.000000e+000
0.000000e+000
0.000000e+000
0.000000e+000
0.000000e+000
0.000000e+000
0.000000e+000
0.000000e+000
0.000000e+000
0.000000e+000
0.000000e+000
0.000000e+000
0.000000e+000
0.000000e+000
0.000000e+000
0.000000e+000
0.000000e+000
0.000000e+000
0.000000e+000
0.000000e+000
0.000000e+000
0.000000e+000
0.000000e+000
0.000000e+000
0.000000e+000
0.000000e+000
0.000000e+000
0.000000e+000
0.000000e+000
0.000000e+000
0.000000e+000
0.000000e+000
0.000000e+000
0.000000e+000
0.000000e+000
0.000000e+000
0.000000e+000
0.000000e+000
0.000000e+000
0.000000e+000
0.000000e+000
0.000000e+000
0.000000e+000
0.000000e+000
0.000000e+000
0.000000e+000
0.000000e+000
0.000000e+000
0.000000e+000
0.000000e+000
0.000000e+000
0.000000e+000
0.000000e+000
0.000000e+000
0.000000e+000
0.000000e+000
-1.790148e-009
-8.031222e-010
5.182243e-010
1.404629e-009
1.436655e-009
7.418491e-010
-1.734932e-010
-8.020743e-010
-9.408054e-010
-7.254252e-010
-4.190705e-010
-1.640969e-010
9.105026e-011
4.519934e-010
8.835993e-010
1.163196e-009
1.040516e-009
4.631965e-010
-3.421797e-010
-1.015520e-009
-1.311832e-009
-1.240023e-009
-9.869360e-010
-7.197444e-010
-4.578786e-010
-1.176283e-010
3.433719e-010
8.415446e-010
1.223992e-009
1.397296e-009
1.393897e-009
1.317798e-009
1.237544e-009
1.137542e-009
9.647981e-010
7.068175e-010
4.147399e-010
1.552458e-010
-4.880047e-011
-2.258229e-010
-4.110946e-010
-6.044571e-010
-7.739482e-010
-8.942118e-010
-9.731916e-010
-1.039529e-009
-1.109183e-009
-1.170386e-009
-1.201794e-009
-1.200270e-009
-1.185448e-009
-1.176491e-009
-1.169031e-009
-1.140049e-009
-1.075693e-009
-9.890312e-010
-9.048666e-010
-8.274862e-010
-7.301833e-010
-5.829645e-010
-3.892055e-010
-1.867062e-010
-6.730086e-012
1.635708e-010
3.669857e-010
6.188404e-010
8.700469e-010
1.039437e-009
1.087501e-009
1.049976e-009
9.873763e-010
9.019680e-010
7.199234e-010
3.722974e-010
-1.035352e-010
-5.554042e-010
-8.240478e-010
-8.653567e-010
-7.627784e-010
-6.172231e-010
-4.335825e-010
-1.320520e-010
3.180598e-010
7.822866e-010
1.002306e-009
7.870649e-010
1.937641e-010
-4.692697e-010
-8.378051e-010
-7.361138e-010
-2.822998e-010
2.157051e-010
4.787632e-010
4.220350e-010
1.642966e-010
-9.255101e-011
-2.045299e-010
-1.530770e-010
-2.061123e-011
8.186430e-011
-2.904047e-010
-8.756223e-011
1.610944e-010
2.760103e-010
1.795511e-010
-5.170208e-011
-2.427387e-010
-2.471559e-010
-5.568526e-011
1.951320e-010
3.239185e-010
2.395935e-010
5.150724e-012
-2.196267e-010
-3.062159e-010
-2.470483e-010
-1.344545e-010
-5.775794e-011
-2.024592e-011
4.670012e-011
1.929190e-010
3.780376e-010
4.935005e-010
4.566402e-010
2.831781e-010
6.823991e-011
-1.010000e-010
-2.124007e-010
-3.141418e-010
-4.435304e-010
-5.785569e-010
-6.596668e-010
-6.517470e-010
-5.775767e-010
-4.907361e-010
-4.223019e-010
-3.589298e-010
-2.702345e-010
-1.495842e-010
-2.312346e-011
7.841976e-011
1.500161e-010
2.117245e-010
2.816889e-010
3.553864e-010
4.131571e-010
4.443601e-010
4.590729e-010
4.748964e-010
4.958293e-010
5.084180e-010
4.991516e-010
4.717740e-010
4.432670e-010
4.227729e-010
3.988757e-010
3.519082e-010
2.780918e-010
1.963007e-010
1.270023e-010
6.675543e-011
-9.855027e-012
-1.192384e-010
-2.433726e-010
-3.422981e-010
-3.942945e-010
-4.181458e-010
-4.481999e-010
-4.871303e-010
-4.917157e-010
-4.140535e-010
-2.571314e-010
-8.208431e-011
4.583955e-011
1.165999e-010
1.741756e-010
2.537641e-010
3.264209e-010
3.167264e-010
1.819246e-010
-2.819764e-011
-1.970561e-010
-2.338580e-010
-1.462800e-010
-2.555223e-011
3.835058e-011
2.896772e-011
-9.707561e-013
3.634948e-012
4.269805e-011
6.764312e-011
3.899616e-011
-2.772645e-011
-7.449599e-011
-5.763133e-011
8.392680e-012
6.333119e-011
5.753294e-011
-1.755967e-012
-5.776971e-011
1.424710e-009
6.861856e-010
-3.232803e-010
-1.052344e-009
-1.187376e-009
-7.777933e-010
-1.199734e-010
4.721595e-010
8.283347e-010
9.263180e-010
7.962095e-010
4.509376e-010
-8.743986e-011
-7.122293e-010
-1.212977e-009
-1.364596e-009
-1.066234e-009
-4.144177e-010
3.528113e-010
9.942165e-010
1.376669e-009
1.488049e-009
1.373871e-009
1.075937e-009
6.247906e-010
6.931210e-011
-5.083585e-010
-1.017415e-009
-1.397963e-009
-1.636090e-009
-1.745100e-009
-1.739087e-009
-1.626308e-009
-1.421292e-009
-1.153176e-009
-8.565598e-010
-5.551836e-010
-2.572220e-010
3.428037e-011
3.103648e-010
5.577726e-010
7.693929e-010
9.490867e-010
1.104585e-009
1.237571e-009
1.343096e-009
1.418189e-009
1.467998e-009
1.501457e-009
1.522083e-009
1.525648e-009
1.507523e-009
1.469988e-009
1.419790e-009
1.358827e-009
1.280033e-009
1.174336e-009
1.040321e-009
8.842188e-010
7.099219e-010
5.119521e-010
2.815330e-010
1.953941e-011
-2.593129e-010
-5.362415e-010
-7.994116e-010
-1.041165e-009
-1.244207e-009
-1.375499e-009
-1.399280e-009
-1.297460e-009
-1.075674e-009
-7.508861e-010
-3.407955e-010
1.259484e-010
5.884638e-010
9.527417e-010
1.126789e-009
1.067863e-009
8.004236e-010
3.921227e-010
-8.038530e-011
-5.367375e-010
-8.727335e-010
-9.626771e-010
-7.207307e-010
-1.912567e-010
4.168166e-010
8.135232e-010
7.969123e-010
3.910303e-010
-1.570782e-010
-5.309126e-010
-5.443819e-010
-2.489094e-010
1.215521e-010
3.203307e-010
2.502927e-010
1.140012e-011
-1.882347e-010
1.926580e-009
8.253648e-010
-6.165693e-010
-1.523888e-009
-1.462869e-009
-6.459061e-010
3.129577e-010
8.661307e-010
8.654312e-010
5.444889e-010
2.282474e-010
4.955710e-011
-9.331334e-011
-3.429586e-010
-6.697946e-010
-8.555640e-010
-6.876889e-010
-1.732267e-010
4.348900e-010
8.253409e-010
8.569240e-010
6.281405e-010
3.474942e-010
1.461879e-010
5.932447e-012
-1.584986e-010
-3.730308e-010
-5.667970e-010
-6.456344e-010
-5.847818e-010
-4.446466e-010
-3.058773e-010
-2.005366e-010
-1.057050e-010
9.043732e-012
1.403883e-010
2.565248e-010
3.327516e-010
3.736627e-010
4.019069e-010
4.324596e-010
4.616881e-010
4.781425e-010
4.782030e-010
4.694192e-010
4.616165e-010
4.580316e-010
4.550702e-010
4.484668e-010
4.384544e-010
4.296162e-010
4.265295e-010
4.293258e-010
4.332113e-010
4.330680e-010
4.292347e-010
4.276946e-010
4.324453e-010
4.375232e-010
4.295261e-010
4.008149e-010
3.586773e-010
3.164745e-010
2.735005e-010
2.082971e-010
9.946504e-011
-4.512232e-011
-1.864576e-010
-2.890137e-010
-3.556432e-010
-4.179230e-010
-4.848696e-010
-5.079243e-010
-4.134532e-010
-1.814123e-010
1.124448e-010
3.464046e-010
4.528741e-010
4.641965e-010
4.502541e-010
4.134610e-010
2.653585e-010
-6.865331e-011
-5.130691e-010
-8.280983e-010
-7.687569e-010
-2.971934e-010
3.430209e-010
7.749347e-010
7.513491e-010
3.247184e-010
-2.056630e-010
-5.158040e-010
-4.699064e-010
-1.746644e-010
1.354133e-010
2.708719e-010
1.930736e-010
3.998507e-012
-1.431333e-010
8.674990e-010
2.423876e-010
-5.063899e-010
-8.221357e-010
-4.942935e-010
2.035194e-010
7.300157e-010
6.841983e-010
1.006885e-010
-5.882860e-010
-8.890916e-010
-6.128844e-010
1.480506e-011
5.700072e-010
7.695907e-010
6.431838e-010
4.165067e-010
2.517999e-010
1.058391e-010
-1.718337e-010
-6.235425e-010
-1.082986e-009
-1.293565e-009
-1.124425e-009
-6.713784e-010
-1.552675e-010
2.674767e-010
5.963302e-010
9.133274e-010
1.247839e-009
1.526938e-009
1.648936e-009
1.585858e-009
1.404652e-009
1.196491e-009
9.986848e-010
7.869206e-010
5.304199e-010
2.403137e-010
-3.756194e-011
-2.671328e-010
-4.504542e-010
-6.136204e-010
-7.727265e-010
-9.183487e-010
-1.030452e-009
-1.102349e-009
-1.147171e-009
-1.182708e-009
-1.213107e-009
-1.226731e-009
-1.211153e-009
-1.168375e-009
-1.113351e-009
-1.056523e-009
-9.893114e-010
-8.905094e-010
-7.493590e-010
-5.798097e-010
-4.064014e-010
-2.342405e-010
-3.895777e-011
2.049498e-010
4.845007e-010
7.453595e-010
9.373038e-010
1.060440e-009
1.154208e-009
1.233000e-009
1.241482e-009
1.092993e-009
7.633295e-010
3.389058e-010
-4.430821e-011
-3.153687e-010
-5.118438e-010
-6.977450e-010
-8.442955e-010
-8.175626e-010
-5.106181e-010
5.745676e-012
4.810702e-010
6.612302e-010
4.898065e-010
1.465804e-010
-1.128748e-010
-1.645473e-010
-8.233088e-011
-2.137479e-011
-5.184967e-011
-1.081059e-010
-8.652121e-011
2.627235e-011
1.326390e-010
1.272136e-010
1.072239e-011
-1.060531e-010
-1.121118e-010
-6.997134e-012
9.987060e-011
-8.034639e-010
-4.961379e-010
-2.195276e-011
4.462150e-010
7.665103e-010
8.385713e-010
5.982275e-010
5.457366e-011
-6.415658e-010
-1.190056e-009
-1.270254e-009
-7.550423e-010
1.575425e-010
1.032560e-009
1.466776e-009
1.332640e-009
8.058011e-010
1.755813e-010
-3.736045e-010
-8.190525e-010
-1.183262e-009
-1.405666e-009
-1.355422e-009
-9.682208e-010
-3.486494e-010
2.826316e-010
7.491813e-010
1.026898e-009
1.202122e-009
1.341500e-009
1.417067e-009
1.354375e-009
1.133758e-009
8.273065e-010
5.369995e-010
3.088777e-010
1.142151e-010
-9.366839e-011
-3.181384e-010
-5.177269e-010
-6.552154e-010
-7.363540e-010
-7.982956e-010
-8.675316e-010
-9.362774e-010
-9.792270e-010
-9.867685e-010
-9.767947e-010
-9.748093e-010
-9.869824e-010
-9.961965e-010
-9.842763e-010
-9.546550e-010
-9.293006e-010
-9.223287e-010
-9.200906e-010
-8.925918e-010
-8.261078e-010
-7.394446e-010
-6.609328e-010
-5.889030e-010
-4.834537e-010
-3.063236e-010
-6.777057e-011
1.766988e-010
3.832042e-010
5.662216e-010
7.738378e-010
1.010643e-009
1.196832e-009
1.222051e-009
1.046165e-009
7.371300e-010
3.992154e-010
7.007256e-011
-2.920721e-010
-7.084093e-010
-1.079329e-009
-1.212097e-009
-9.725969e-010
-4.183753e-010
2.208768e-010
6.985885e-010
8.949148e-010
8.290361e-010
5.685352e-010
1.646728e-010
-3.130545e-010
-7.105745e-010
-8.176298e-010
-5.185285e-010
6.198441e-011
5.830967e-010
7.103154e-010
3.727148e-010
-1.662035e-010
-5.026430e-010
-4.057048e-010
4.725281e-012
3.634614e-010
-1.746275e-009
-7.329993e-010
5.603342e-010
1.327457e-009
1.231193e-009
5.335749e-010
-2.165539e-010
-6.230937e-010
-6.489326e-010
-4.873878e-010
-2.998038e-010
-9.296044e-011
1.826615e-010
4.731745e-010
6.051080e-010
4.409781e-010
3.760535e-011
-3.689955e-010
-5.459705e-010
-4.361274e-010
-1.630392e-010
1.109196e-010
3.141751e-010
4.642920e-010
5.735443e-010
5.926007e-010
4.580542e-010
1.777809e-010
-1.539977e-010
-4.323816e-010
-6.227544e-010
-7.606468e-010
-8.811467e-010
-9.651325e-010
-9.609222e-010
-8.483142e-010
-6.670655e-010
-4.794776e-010
-3.136185e-010
-1.504180e-010
3.747191e-011
2.447500e-010
4.359524e-010
5.831251e-010
6.924605e-010
7.911736e-010
8.930853e-010
9.832322e-010
1.037047e-009
1.049765e-009
1.041581e-009
1.033179e-009
1.020569e-009
9.791675e-010
8.932662e-010
7.764741e-010
6.573567e-010
5.451005e-010
4.163949e-010
2.429862e-010
3.067321e-011
-1.776734e-010
-3.432393e-010
-4.700233e-010
-5.919328e-010
-7.185075e-010
-8.038394e-010
-7.825472e-010
-6.381070e-010
-4.249006e-010
-2.148370e-010
-2.931021e-011
1.612081e-010
3.670174e-010
5.248541e-010
5.346140e-010
3.571615e-010
6.662187e-011
-2.030619e-010
-3.591525e-010
-3.902914e-010
-3.165071e-010
-1.328425e-010
1.632730e-010
4.861216e-010
6.423003e-010
4.550564e-010
-5.223941e-011
-5.990280e-010
-8.154266e-010
-5.253824e-010
9.237814e-011
6.174565e-010
6.974842e-010
3.091279e-010
-2.350786e-010
-5.327565e-010
-3.932661e-010
3.401679e-011
3.908054e-010
-1.353132e-009
-3.270314e-010
8.532774e-010
1.268240e-009
6.557896e-010
-4.365957e-010
-1.131604e-009
-9.186005e-010
-9.721304e-012
8.924853e-010
1.174544e-009
7.419424e-010
-1.798701e-011
-6.296491e-010
-8.872986e-010
-8.865040e-010
-7.855687e-010
-5.939327e-010
-2.013391e-010
4.225710e-010
1.103289e-009
1.554996e-009
1.594074e-009
1.257511e-009
7.279453e-010
1.684807e-010
-3.627029e-010
-8.642292e-010
-1.304109e-009
-1.605190e-009
-1.708257e-009
-1.625654e-009
-1.422019e-009
-1.151891e-009
-8.285410e-010
-4.503499e-010
-3.998507e-011
3.558797e-010
7.028417e-010
1.003202e-009
1.279352e-009
1.538963e-009
1.764512e-009
1.936660e-009
2.059741e-009
2.157757e-009
2.247141e-009
2.320272e-009
2.359037e-009
2.360643e-009
2.343502e-009
2.325992e-009
2.304230e-009
2.256563e-009
2.169848e-009
2.055173e-009
1.932489e-009
1.802023e-009
1.638541e-009
1.418045e-009
1.145577e-009
8.489427e-010
5.447270e-010
2.200347e-010
-1.431865e-010
-5.281895e-010
-8.786031e-010
-1.138693e-009
-1.290895e-009
-1.343482e-009
-1.285539e-009
-1.074448e-009
-6.853854e-010
-1.703584e-010
3.495106e-010
7.603743e-010
1.016377e-009
1.115193e-009
1.028061e-009
6.943656e-010
1.208236e-010
-5.179107e-010
-9.234074e-010
-8.753907e-010
-4.235550e-010
1.238205e-010
4.286104e-010
3.737056e-010
1.167637e-010
-8.446210e-011
-9.768484e-011
1.010064e-011
8.628140e-011
5.298203e-011
-4.165051e-011
-1.015367e-010
-8.333147e-011
-1.830457e-011
4.079011e-011
6.959959e-011
-9.738572e-011
2.755463e-010
5.900402e-010
4.142717e-010
-2.852019e-010
-1.054157e-009
-1.265370e-009
-6.181841e-010
5.709977e-010
1.548649e-009
1.664079e-009
8.473337e-010
-3.618393e-010
-1.245413e-009
-1.422608e-009
-1.027733e-009
-4.602700e-010
-4.498147e-013
3.452244e-010
6.841112e-010
1.000474e-009
1.117250e-009
8.815220e-010
3.510491e-010
-2.254466e-010
-6.069938e-010
-7.285073e-010
-6.848810e-010
-5.837179e-010
-4.393767e-010
-2.027063e-010
1.402975e-010
5.263568e-010
8.672238e-010
1.123016e-009
1.314286e-009
1.473985e-009
1.605564e-009
1.690836e-009
1.724489e-009
1.726510e-009
1.720941e-009
1.713009e-009
1.693230e-009
1.658647e-009
1.621137e-009
1.593486e-009
1.574282e-009
1.552505e-009
1.524923e-009
1.502173e-009
1.495229e-009
1.500751e-009
1.505524e-009
1.504405e-009
1.507249e-009
1.524370e-009
1.549472e-009
1.563930e-009
1.557910e-009
1.539097e-009
1.514332e-009
1.467442e-009
1.366515e-009
1.196917e-009
9.780648e-010
7.376916e-010
4.745923e-010
1.649446e-010
-1.837157e-010
-4.962908e-010
-6.706130e-010
-6.634233e-010
-5.233734e-010
-3.242293e-010
-7.522247e-011
2.705091e-010
6.978137e-010
1.038596e-009
1.047922e-009
6.140038e-010
-9.788161e-011
-7.297431e-010
-9.846369e-010
-8.195882e-010
-4.136995e-010
2.092132e-011
3.751564e-010
6.116508e-010
6.642627e-010
4.428449e-010
-3.020080e-011
-5.215928e-010
-6.992531e-010
-4.074472e-010
1.519395e-010
5.442044e-010
4.611889e-010
-2.515299e-012
-4.236220e-010
1.049828e-009
5.251673e-010
-1.640277e-010
-6.435533e-010
-7.660040e-010
-6.047828e-010
-2.848713e-010
1.198705e-010
5.260949e-010
7.552968e-010
6.077978e-010
7.525163e-011
-5.442884e-010
-8.157691e-010
-5.173484e-010
1.525915e-010
7.263968e-010
8.459087e-010
5.170214e-010
2.350404e-011
-3.714694e-010
-6.193350e-010
-8.106416e-010
-9.679934e-010
-9.646730e-010
-6.535590e-010
-4.445162e-011
6.749837e-010
1.292240e-009
1.726337e-009
2.033331e-009
2.285329e-009
2.473699e-009
2.532619e-009
2.431511e-009
2.219840e-009
1.981725e-009
1.764325e-009
1.559820e-009
1.346129e-009
1.127375e-009
9.303802e-010
7.735479e-010
6.512612e-010
5.477843e-010
4.567966e-010
3.828028e-010
3.291820e-010
2.924719e-010
2.682813e-010
2.565904e-010
2.582904e-010
2.708032e-010
2.921449e-010
3.275739e-010
3.859911e-010
4.681470e-010
5.645480e-010
6.706172e-010
7.998823e-010
9.717736e-010
1.182698e-009
1.397978e-009
1.582551e-009
1.736017e-009
1.881500e-009
2.011387e-009
2.056901e-009
1.934277e-009
1.628898e-009
1.218717e-009
7.981023e-010
3.861367e-010
-6.248235e-011
-5.417649e-010
-9.120293e-010
-9.758097e-010
-6.626672e-010
-1.318548e-010
3.305420e-010
5.272628e-010
4.644904e-010
2.688687e-010
3.221083e-011
-2.252281e-010
-4.505912e-010
-4.883453e-010
-1.950813e-010
3.468951e-010
7.773563e-010
7.075263e-010
8.972120e-011
-6.564533e-010
-9.420600e-010
-5.101237e-010
3.091229e-010
8.485655e-010
6.669953e-010
-6.606747e-011
-7.112849e-010
1.440933e-009
2.873921e-010
-9.746758e-010
-1.314033e-009
-5.561340e-010
5.733726e-010
1.149406e-009
8.089214e-010
-6.965839e-011
-8.124033e-010
-1.017628e-009
-7.406873e-010
-2.523948e-010
2.661938e-010
7.695305e-010
1.177853e-009
1.284994e-009
9.057122e-010
1.036380e-010
-7.792341e-010
-1.355581e-009
-1.461751e-009
-1.204056e-009
-7.735606e-010
-2.570241e-010
3.636216e-010
1.070157e-009
1.725966e-009
2.158776e-009
2.307075e-009
2.259519e-009
2.150212e-009
2.035436e-009
1.881333e-009
1.652333e-009
1.382364e-009
1.150754e-009
1.004737e-009
9.232271e-010
8.547209e-010
7.752442e-010
7.017295e-010
6.584588e-010
6.448339e-010
6.386673e-010
6.218190e-010
5.951234e-010
5.709574e-010
5.582626e-010
5.560782e-010
5.567536e-010
5.524313e-010
5.413471e-010
5.311437e-010
5.336182e-010
5.513047e-010
5.701583e-010
5.728494e-010
5.632660e-010
5.715449e-010
6.254229e-010
7.175715e-010
8.134991e-010
8.994444e-010
1.012338e-009
1.203148e-009
1.464672e-009
1.710872e-009
1.845196e-009
1.845923e-009
1.763546e-009
1.625582e-009
1.366619e-009
8.878698e-010
1.984975e-010
-5.224238e-010
-1.030771e-009
-1.189435e-009
-1.030121e-009
-6.596803e-010
-1.511978e-010
4.339136e-010
9.362033e-010
1.093175e-009
7.322838e-010
-1.622385e-012
-6.574457e-010
-7.971281e-010
-3.652375e-010
2.455929e-010
5.235035e-010
2.754715e-010
-2.218168e-010
-4.895332e-010
-2.807799e-010
2.102994e-010
5.372521e-010
4.032440e-010
-8.189973e-011
-5.036878e-010
1.064032e-009
-1.074846e-010
-1.268661e-009
-1.280955e-009
-5.455782e-011
1.399076e-009
1.861301e-009
9.357054e-010
-6.664742e-010
-1.770856e-009
-1.692467e-009
-6.737520e-010
4.755941e-010
1.096791e-009
1.089213e-009
7.500939e-010
3.595397e-010
-2.254812e-011
-4.201578e-010
-7.335279e-010
-7.522239e-010
-3.686159e-010
2.769986e-010
8.963548e-010
1.285297e-009
1.439816e-009
1.463947e-009
1.413771e-009
1.261713e-009
9.917558e-010
6.794372e-010
4.497397e-010
3.678624e-010
3.947914e-010
4.512425e-010
5.046550e-010
5.804289e-010
7.003614e-010
8.338189e-010
9.185050e-010
9.186044e-010
8.505229e-010
7.539631e-010
6.493994e-010
5.287510e-010
3.804053e-010
2.139043e-010
5.870685e-011
-5.657592e-011
-1.216393e-010
-1.445435e-010
-1.373300e-010
-1.006692e-010
-2.180343e-011
1.095677e-010
2.805661e-010
4.533056e-010
5.906230e-010
6.852788e-010
7.568674e-010
8.145382e-010
8.300225e-010
7.625121e-010
6.153558e-010
4.556280e-010
3.620105e-010
3.543910e-010
3.905640e-010
4.383474e-010
5.319459e-010
7.302585e-010
1.015986e-009
1.261099e-009
1.316795e-009
1.135525e-009
7.879257e-010
3.659583e-010
-9.115906e-011
-5.432483e-010
-8.465774e-010
-7.824296e-010
-2.592936e-010
5.049494e-010
1.056976e-009
1.033548e-009
4.568693e-010
-2.815343e-010
-7.351292e-010
-7.224573e-010
-3.849647e-010
7.010847e-012
2.692643e-010
3.586082e-010
2.999154e-010
1.308465e-010
-7.896115e-011
-2.145551e-010
-1.845433e-010
-1.812854e-011
1.354781e-010
2.623524e-010
-2.675037e-010
-7.310581e-010
-5.577346e-010
2.535024e-010
1.079571e-009
1.182685e-009
3.720624e-010
-7.691373e-010
-1.335834e-009
-8.682141e-010
2.465538e-010
1.108080e-009
1.067869e-009
2.316844e-010
-7.187324e-010
-1.147737e-009
-9.218517e-010
-3.394803e-010
2.696164e-010
8.106779e-010
1.338197e-009
1.820787e-009
2.078925e-009
1.957742e-009
1.507488e-009
9.565068e-010
5.188918e-010
2.547974e-010
1.087203e-010
3.595385e-011
5.295830e-011
1.731795e-010
3.351120e-010
4.214225e-010
3.425087e-010
8.337367e-011
-3.303129e-010
-8.909923e-010
-1.618787e-009
-2.519424e-009
-3.550317e-009
-4.636471e-009
-5.714269e-009
-6.753013e-009
-7.736553e-009
-8.633101e-009
-9.388583e-009
-9.948410e-009
-1.028299e-008
-1.039188e-008
-1.028476e-008
-9.960106e-009
-9.405039e-009
-8.619399e-009
-7.640103e-009
-6.537071e-009
-5.380171e-009
-4.211975e-009
-3.059466e-009
-1.972020e-009
-1.034373e-009
-3.263608e-010
1.322848e-010
3.865378e-010
4.911264e-010
4.641438e-010
3.119452e-010
9.498252e-011
-6.039572e-011
-4.086447e-011
1.662261e-010
4.817191e-010
8.278887e-010
1.180194e-009
1.501787e-009
1.653548e-009
1.440247e-009
8.033620e-010
-3.542057e-011
-6.737576e-010
-8.198790e-010
-5.054790e-010
-2.046919e-011
3.412356e-010
4.596123e-010
3.568356e-010
8.371339e-011
-2.876997e-010
-5.818087e-010
-5.469533e-010
-8.029452e-011
5.603002e-010
8.636632e-010
5.012679e-010
-3.015094e-010
-8.820512e-010
-7.160063e-010
7.294910e-011
7.882511e-010
-6.395801e-010
-1.275818e-010
4.115512e-010
5.434543e-010
2.468516e-010
-1.725215e-010
-4.293961e-010
-4.525146e-010
-2.843149e-010
6.755075e-011
5.723719e-010
1.005642e-009
9.827957e-010
2.928273e-010
-7.862671e-010
-1.585859e-009
-1.549763e-009
-6.839583e-010
4.798221e-010
1.352250e-009
1.715494e-009
1.736883e-009
1.654669e-009
1.527859e-009
1.286919e-009
9.438873e-010
6.672810e-010
6.331463e-010
8.403721e-010
1.100412e-009
1.191582e-009
9.926502e-010
4.705302e-010
-4.162525e-010
-1.757720e-009
-3.633722e-009
-6.041486e-009
-8.897672e-009
-1.210158e-008
-1.557872e-008
-1.926327e-008
-2.305835e-008
-2.683181e-008
-3.045276e-008
-3.382371e-008
-3.687394e-008
-3.952880e-008
-4.169499e-008
-4.327942e-008
-4.421958e-008
-4.449261e-008
-4.409561e-008
-4.302246e-008
-4.126667e-008
-3.885067e-008
-3.584971e-008
-3.238145e-008
-2.857031e-008
-2.452760e-008
-2.037084e-008
-1.625447e-008
-1.236222e-008
-8.854714e-009
-5.825590e-009
-3.316003e-009
-1.363556e-009
-1.123392e-011
7.495309e-010
1.031782e-009
1.018944e-009
8.650317e-010
6.447303e-010
4.157374e-010
3.029604e-010
4.606555e-010
9.114622e-010
1.441963e-009
1.713552e-009
1.516741e-009
9.224510e-010
1.885338e-010
-4.496642e-010
-8.692577e-010
-9.849260e-010
-7.011596e-010
-4.168106e-011
6.854432e-010
9.832536e-010
5.707950e-010
-2.681427e-010
-8.270988e-010
-5.905980e-010
2.394433e-010
8.720527e-010
6.616736e-010
-2.415008e-010
-9.921616e-010
-8.481462e-010
9.738774e-011
9.796800e-010
-1.391732e-009
6.575680e-011
1.477687e-009
1.486750e-009
1.147234e-010
-1.386398e-009
-1.770749e-009
-8.573853e-010
5.062002e-010
1.335574e-009
1.285136e-009
6.701977e-010
-3.594470e-011
-5.783418e-010
-8.733152e-010
-8.133397e-010
-2.957450e-010
5.550835e-010
1.325203e-009
1.588594e-009
1.272349e-009
7.166804e-010
3.626182e-010
3.978468e-010
7.006626e-010
1.063631e-009
1.390783e-009
1.656072e-009
1.726165e-009
1.296649e-009
2.544268e-011
-2.292880e-009
-5.694727e-009
-1.015479e-008
-1.567961e-008
-2.228385e-008
-2.990324e-008
-3.836286e-008
-4.743391e-008
-5.690443e-008
-6.658861e-008
-7.628581e-008
-8.575651e-008
-9.474829e-008
-1.030380e-007
-1.104417e-007
-1.167890e-007
-1.219030e-007
-1.256144e-007
-1.277938e-007
-1.283672e-007
-1.272997e-007
-1.245757e-007
-1.202064e-007
-1.142626e-007
-1.068952e-007
-9.831762e-008
-8.877162e-008
-7.851549e-008
-6.784592e-008
-5.711115e-008
-4.667510e-008
-3.685208e-008
-2.787675e-008
-1.993538e-008
-1.320263e-008
-7.812442e-009
-3.779636e-009
-9.725322e-010
8.070822e-010
1.716579e-009
1.870716e-009
1.455064e-009
8.018851e-010
2.913724e-010
1.443109e-010
3.202903e-010
6.282028e-010
9.100775e-010
1.086697e-009
1.059554e-009
6.833811e-010
-5.703231e-011
-8.483495e-010
-1.152371e-009
-6.504781e-010
3.701415e-010
1.145738e-009
1.062328e-009
2.172567e-010
-6.499414e-010
-8.278010e-010
-2.722576e-010
3.979137e-010
5.292653e-010
5.763325e-011
-4.748355e-010
-4.961352e-010
1.922610e-011
5.431597e-010
-1.676247e-009
8.766890e-011
1.769962e-009
1.719340e-009
1.984392e-011
-1.704081e-009
-1.900014e-009
-4.999870e-010
1.155500e-009
1.657800e-009
7.622696e-010
-5.851118e-010
-1.253058e-009
-8.734909e-010
8.595474e-011
9.531486e-010
1.410220e-009
1.507274e-009
1.354039e-009
9.739244e-010
4.477948e-010
4.721207e-011
8.993037e-011
6.390124e-010
1.384653e-009
1.834473e-009
1.585555e-009
3.928530e-010
-1.977634e-009
-5.875351e-009
-1.169906e-008
-1.972164e-008
-3.000947e-008
-4.250349e-008
-5.713431e-008
-7.382883e-008
-9.242010e-008
-1.125867e-007
-1.338956e-007
-1.558929e-007
-1.781444e-007
-2.002068e-007
-2.215955e-007
-2.418039e-007
-2.603553e-007
-2.768319e-007
-2.908594e-007
-3.020850e-007
-3.101854e-007
-3.148999e-007
-3.160511e-007
-3.135373e-007
-3.073211e-007
-2.974460e-007
-2.840724e-007
-2.674955e-007
-2.481248e-007
-2.264531e-007
-2.030531e-007
-1.785923e-007
-1.538161e-007
-1.294731e-007
-1.062272e-007
-8.462705e-008
-6.513500e-008
-4.813706e-008
-3.387764e-008
-2.237703e-008
-1.344580e-008
-6.814855e-009
-2.253785e-009
4.516879e-010
1.622798e-009
1.734752e-009
1.296197e-009
6.842356e-010
1.216460e-010
-2.078197e-010
-1.141173e-010
4.437672e-010
1.171882e-009
1.532149e-009
1.154935e-009
2.145304e-010
-6.466777e-010
-8.391406e-010
-3.210126e-010
3.981166e-010
7.273316e-010
4.763156e-010
-7.070751e-011
-4.755075e-010
-5.052975e-010
-2.340229e-010
1.054868e-010
3.137529e-010
3.137656e-010
1.427976e-010
-8.905321e-011
-2.500610e-010
-1.161508e-009
-2.560717e-011
1.048662e-009
1.004077e-009
-5.430338e-011
-1.003896e-009
-8.451967e-010
2.890740e-010
1.250905e-009
1.007415e-009
-3.303264e-010
-1.589570e-009
-1.628840e-009
-3.585503e-010
1.262163e-009
2.147495e-009
1.967997e-009
1.218846e-009
6.001810e-010
4.434866e-010
6.705564e-010
1.098182e-009
1.603897e-009
1.982689e-009
1.759824e-009
2.467586e-010
-3.215975e-009
-9.115313e-009
-1.785656e-008
-2.992376e-008
-4.587982e-008
-6.619495e-008
-9.109400e-008
-1.205611e-007
-1.544358e-007
-1.924467e-007
-2.341439e-007
-2.788346e-007
-3.256237e-007
-3.735299e-007
-4.215712e-007
-4.687723e-007
-5.141424e-007
-5.566939e-007
-5.955004e-007
-6.297395e-007
-6.586869e-007
-6.816919e-007
-6.981782e-007
-7.076716e-007
-7.098241e-007
-7.044172e-007
-6.913645e-007
-6.707419e-007
-6.428317e-007
-6.081453e-007
-5.674104e-007
-5.215546e-007
-4.717129e-007
-4.192321e-007
-3.656173e-007
-3.124076e-007
-2.610480e-007
-2.128251e-007
-1.688477e-007
-1.299912e-007
-9.678074e-008
-6.930620e-008
-4.728081e-008
-3.021849e-008
-1.757597e-008
-8.758554e-009
-3.070926e-009
2.324296e-010
1.793820e-009
2.075112e-009
1.480831e-009
5.419519e-010
-1.152994e-010
-7.616531e-011
5.695544e-010
1.291891e-009
1.539877e-009
1.145574e-009
3.735803e-010
-3.487801e-010
-7.138886e-010
-6.285744e-010
-1.891400e-010
3.403148e-010
5.963016e-010
3.416036e-010
-2.672902e-010
-6.992722e-010
-4.884707e-010
2.635082e-010
8.837149e-010
7.384009e-010
-1.097539e-010
-9.024416e-010
1.567409e-010
-8.104282e-011
-3.186208e-010
-3.489572e-010
-1.456512e-010
1.992834e-010
5.666652e-010
7.807427e-010
5.997446e-010
-7.748656e-011
-9.346027e-010
-1.304576e-009
-7.086842e-010
6.024592e-010
1.734321e-009
1.897415e-009
1.124561e-009
2.387571e-010
1.066648e-010
9.156629e-010
2.110268e-009
2.889343e-009
2.645495e-009
9.370309e-010
-2.829254e-009
-9.564848e-009
-2.035824e-008
-3.625779e-008
-5.823467e-008
-8.728485e-008
-1.244332e-007
-1.705355e-007
-2.260279e-007
-2.908247e-007
-3.643803e-007
-4.457756e-007
-5.337314e-007
-6.266029e-007
-7.224603e-007
-8.192550e-007
-9.149741e-007
-1.007706e-006
-1.095643e-006
-1.177098e-006
-1.250547e-006
-1.314666e-006
-1.368322e-006
-1.410534e-006
-1.440452e-006
-1.457374e-006
-1.460755e-006
-1.450225e-006
-1.425600e-006
-1.386931e-006
-1.334563e-006
-1.269178e-006
-1.191814e-006
-1.103897e-006
-1.007277e-006
-9.042535e-007
-7.975005e-007
-6.899051e-007
-5.843890e-007
-4.837620e-007
-3.905799e-007
-3.069435e-007
-2.342651e-007
-1.731356e-007
-1.233872e-007
-8.428835e-008
-5.471422e-008
-3.323857e-008
-1.825524e-008
-8.225084e-009
-1.940317e-009
1.424877e-009
2.538979e-009
2.176588e-009
1.226059e-009
4.297900e-010
1.401344e-010
3.254326e-010
7.535529e-010
1.128730e-009
1.140982e-009
5.950349e-010
-3.459512e-010
-1.092013e-009
-1.017401e-009
-8.975191e-011
9.300073e-010
1.100649e-009
2.369258e-010
-8.178087e-010
-9.882622e-010
-8.464290e-011
9.534329e-010
1.015006e-009
-8.678488e-013
-1.054483e-009
1.707241e-009
-4.241106e-012
-1.619475e-009
-1.607117e-009
-1.459842e-010
1.280667e-009
1.464953e-009
5.021529e-010
-5.926315e-010
-9.749881e-010
-5.671201e-010
1.988270e-010
8.969821e-010
1.290029e-009
1.244827e-009
7.674978e-010
1.824136e-010
7.964772e-011
8.526615e-010
2.199426e-009
3.107976e-009
2.347892e-009
-1.066327e-009
-7.920559e-009
-1.925647e-008
-3.672326e-008
-6.249544e-008
-9.891201e-008