# vtk DataFile Version 3.0
vtk output
ASCII
DATASET STRUCTURED_POINTS
DIMENSIONS 100 100 1
SPACING 1 1 1
ORIGIN 0 0 0
POINT_DATA 10000
SCALARS SFBox_profile double
LOOKUP_TABLE default 
9.439919e-003
9.439920e-003
9.439920e-003
9.439921e-003
9.439921e-003
9.439920e-003
9.439920e-003
9.439919e-003
9.439919e-003
9.439920e-003
9.439920e-003
9.439921e-003
9.439921e-003
9.439921e-003
9.439920e-003
9.439920e-003
9.439920e-003
9.439920e-003
9.439919e-003
9.439919e-003
9.439920e-003
9.439920e-003
9.439920e-003
9.439920e-003
9.439920e-003
9.439921e-003
9.439921e-003
9.439921e-003
9.439921e-003
9.439921e-003
9.439921e-003
9.439921e-003
9.439921e-003
9.439920e-003
9.439920e-003
9.439920e-003
9.439920e-003
9.439920e-003
9.439920e-003
9.439921e-003
9.439921e-003
9.439921e-003
9.439921e-003
9.439921e-003
9.439921e-003
9.439921e-003
9.439921e-003
9.439921e-003
9.439921e-003
9.439921e-003
9.439921e-003
9.439921e-003
9.439921e-003
9.439921e-003
9.439921e-003
9.439921e-003
9.439921e-003
9.439921e-003
9.439921e-003
9.439921e-003
9.439921e-003
9.439921e-003
9.439921e-003
9.439920e-003
9.439920e-003
9.439920e-003
9.439920e-003
9.439920e-003
9.439920e-003
9.439920e-003
9.439920e-003
9.439920e-003
9.439921e-003
9.439921e-003
9.439921e-003
9.439921e-003
9.439920e-003
9.439920e-003
9.439920e-003
9.439920e-003
9.439920e-003
9.439920e-003
9.439920e-003
9.439920e-003
9.439920e-003
9.439920e-003
9.439920e-003
9.439920e-003
9.439920e-003
9.439920e-003
9.439920e-003
9.439920e-003
9.439920e-003
9.439920e-003
9.439920e-003
9.439920e-003
9.439920e-003
9.439920e-003
9.439920e-003
9.439920e-003
9.439919e-003
9.439920e-003
9.439920e-003
9.439921e-003
9.439921e-003
9.439920e-003
9.439920e-003
9.439919e-003
9.439919e-003
9.439920e-003
9.439920e-003
9.439921e-003
9.439921e-003
9.439921e-003
9.439920e-003
9.439920e-003
9.439920e-003
9.439920e-003
9.439919e-003
9.439919e-003
9.439920e-003
9.439920e-003
9.439920e-003
9.439920e-003
9.439920e-003
9.439921e-003
9.439921e-003
9.439921e-003
9.439921e-003
9.439921e-003
9.439921e-003
9.439921e-003
9.439921e-003
9.439920e-003
9.439920e-003
9.439920e-003
9.439920e-003
9.439920e-003
9.439920e-003
9.439921e-003
9.439921e-003
9.439921e-003
9.439921e-003
9.439921e-003
9.439921e-003
9.439921e-003
9.439921e-003
9.439921e-003
9.439921e-003
9.439921e-003
9.439921e-003
9.439921e-003
9.439921e-003
9.439921e-003
9.439921e-003
9.439921e-003
9.439921e-003
9.439921e-003
9.439921e-003
9.439921e-003
9.439921e-003
9.439921e-003
9.439921e-003
9.439920e-003
9.439920e-003
9.439920e-003
9.439920e-003
9.439920e-003
9.439920e-003
9.439920e-003
9.439920e-003
9.439920e-003
9.439921e-003
9.439921e-003
9.439921e-003
9.439921e-003
9.439920e-003
9.439920e-003
9.439920e-003
9.439920e-003
9.439920e-003
9.439920e-003
9.439920e-003
9.439920e-003
9.439920e-003
9.439920e-003
9.439920e-003
9.439920e-003
9.439920e-003
9.439920e-003
9.439920e-003
9.439920e-003
9.439920e-003
9.439920e-003
9.439920e-003
9.439920e-003
9.439920e-003
9.439920e-003
9.439920e-003
9.439920e-003
9.439920e-003
9.439920e-003
9.439920e-003
9.439920e-003
9.439920e-003
9.439920e-003
9.439920e-003
9.439920e-003
9.439920e-003
9.439920e-003
9.439920e-003
9.439920e-003
9.439920e-003
9.439920e-003
9.439920e-003
9.439920e-003
9.439920e-003
9.439920e-003
9.439920e-003
9.439920e-003
9.439920e-003
9.439920e-003
9.439920e-003
9.439920e-003
9.439920e-003
9.439920e-003
9.439920e-003
9.439920e-003
9.439920e-003
9.439920e-003
9.439920e-003
9.439920e-003
9.439921e-003
9.439921e-003
9.439921e-003
9.439921e-003
9.439922e-003
9.439922e-003
9.439922e-003
9.439922e-003
9.439922e-003
9.439923e-003
9.439923e-003
9.439923e-003
9.439923e-003
9.439923e-003
9.439924e-003
9.439924e-003
9.439924e-003
9.439924e-003
9.439924e-003
9.439924e-003
9.439924e-003
9.439924e-003
9.439924e-003
9.439924e-003
9.439923e-003
9.439923e-003
9.439923e-003
9.439923e-003
9.439923e-003
9.439922e-003
9.439922e-003
9.439922e-003
9.439922e-003
9.439921e-003
9.439921e-003
9.439921e-003
9.439921e-003
9.439921e-003
9.439920e-003
9.439920e-003
9.439920e-003
9.439920e-003
9.439920e-003
9.439920e-003
9.439920e-003
9.439920e-003
9.439920e-003
9.439920e-003
9.439920e-003
9.439920e-003
9.439920e-003
9.439920e-003
9.439920e-003
9.439920e-003
9.439920e-003
9.439920e-003
9.439920e-003
9.439920e-003
9.439920e-003
9.439920e-003
9.439920e-003
9.439920e-003
9.439920e-003
9.439920e-003
9.439920e-003
9.439920e-003
9.439920e-003
9.439920e-003
9.439921e-003
9.439920e-003
9.439920e-003
9.439919e-003
9.439920e-003
9.439920e-003
9.439920e-003
9.439921e-003
9.439921e-003
9.439920e-003
9.439920e-003
9.439920e-003
9.439919e-003
9.439919e-003
9.439920e-003
9.439920e-003
9.439920e-003
9.439920e-003
9.439921e-003
9.439921e-003
9.439921e-003
9.439920e-003
9.439920e-003
9.439920e-003
9.439920e-003
9.439920e-003
9.439920e-003
9.439920e-003
9.439920e-003
9.439920e-003
9.439921e-003
9.439921e-003
9.439921e-003
9.439922e-003
9.439922e-003
9.439923e-003
9.439923e-003
9.439924e-003
9.439924e-003
9.439925e-003
9.439925e-003
9.439926e-003
9.439926e-003
9.439926e-003
9.439927e-003
9.439927e-003
9.439927e-003
9.439927e-003
9.439927e-003
9.439928e-003
9.439928e-003
9.439928e-003
9.439928e-003
9.439927e-003
9.439927e-003
9.439927e-003
9.439927e-003
9.439927e-003
9.439926e-003
9.439926e-003
9.439925e-003
9.439925e-003
9.439925e-003
9.439924e-003
9.439924e-003
9.439923e-003
9.439923e-003
9.439922e-003
9.439922e-003
9.439921e-003
9.439921e-003
9.439920e-003
9.439920e-003
9.439920e-003
9.439920e-003
9.439920e-003
9.439920e-003
9.439920e-003
9.439920e-003
9.439920e-003
9.439920e-003
9.439920e-003
9.439920e-003
9.439920e-003
9.439920e-003
9.439920e-003
9.439920e-003
9.439920e-003
9.439920e-003
9.439920e-003
9.439920e-003
9.439920e-003
9.439920e-003
9.439920e-003
9.439920e-003
9.439920e-003
9.439920e-003
9.439920e-003
9.439920e-003
9.439920e-003
9.439921e-003
9.439920e-003
9.439920e-003
9.439919e-003
9.439919e-003
9.439920e-003
9.439920e-003
9.439921e-003
9.439921e-003
9.439920e-003
9.439920e-003
9.439919e-003
9.439919e-003
9.439920e-003
9.439920e-003
9.439920e-003
9.439920e-003
9.439920e-003
9.439921e-003
9.439921e-003
9.439920e-003
9.439920e-003
9.439920e-003
9.439920e-003
9.439920e-003
9.439920e-003
9.439920e-003
9.439921e-003
9.439921e-003
9.439922e-003
9.439922e-003
9.439923e-003
9.439923e-003
9.439924e-003
9.439925e-003
9.439925e-003
9.439926e-003
9.439927e-003
9.439928e-003
9.439928e-003
9.439929e-003
9.439929e-003
9.439930e-003
9.439930e-003
9.439931e-003
9.439931e-003
9.439932e-003
9.439932e-003
9.439932e-003
9.439932e-003
9.439932e-003
9.439932e-003
9.439932e-003
9.439932e-003
9.439932e-003
9.439931e-003
9.439931e-003
9.439931e-003
9.439930e-003
9.439930e-003
9.439929e-003
9.439928e-003
9.439928e-003
9.439927e-003
9.439926e-003
9.439925e-003
9.439925e-003
9.439924e-003
9.439923e-003
9.439923e-003
9.439922e-003
9.439922e-003
9.439921e-003
9.439921e-003
9.439920e-003
9.439920e-003
9.439920e-003
9.439920e-003
9.439920e-003
9.439920e-003
9.439920e-003
9.439920e-003
9.439920e-003
9.439920e-003
9.439920e-003
9.439920e-003
9.439920e-003
9.439920e-003
9.439920e-003
9.439920e-003
9.439920e-003
9.439920e-003
9.439920e-003
9.439920e-003
9.439920e-003
9.439920e-003
9.439920e-003
9.439920e-003
9.439920e-003
9.439920e-003
9.439920e-003
9.439920e-003
9.439920e-003
9.439920e-003
9.439920e-003
9.439920e-003
9.439920e-003
9.439920e-003
9.439920e-003
9.439920e-003
9.439920e-003
9.439920e-003
9.439920e-003
9.439920e-003
9.439920e-003
9.439920e-003
9.439920e-003
9.439920e-003
9.439920e-003
9.439920e-003
9.439920e-003
9.439920e-003
9.439920e-003
9.439921e-003
9.439921e-003
9.439922e-003
9.439922e-003
9.439923e-003
9.439924e-003
9.439924e-003
9.439925e-003
9.439926e-003
9.439927e-003
9.439928e-003
9.439929e-003
9.439929e-003
9.439930e-003
9.439931e-003
9.439932e-003
9.439933e-003
9.439934e-003
9.439935e-003
9.439935e-003
9.439936e-003
9.439937e-003
9.439937e-003
9.439938e-003
9.439938e-003
9.439938e-003
9.439938e-003
9.439938e-003
9.439938e-003
9.439938e-003
9.439938e-003
9.439938e-003
9.439937e-003
9.439937e-003
9.439936e-003
9.439935e-003
9.439935e-003
9.439934e-003
9.439933e-003
9.439932e-003
9.439931e-003
9.439930e-003
9.439929e-003
9.439928e-003
9.439927e-003
9.439926e-003
9.439925e-003
9.439924e-003
9.439924e-003
9.439923e-003
9.439922e-003
9.439922e-003
9.439921e-003
9.439921e-003
9.439921e-003
9.439920e-003
9.439920e-003
9.439920e-003
9.439920e-003
9.439920e-003
9.439920e-003
9.439920e-003
9.439920e-003
9.439920e-003
9.439920e-003
9.439920e-003
9.439920e-003
9.439920e-003
9.439920e-003
9.439920e-003
9.439920e-003
9.439920e-003
9.439920e-003
9.439920e-003
9.439920e-003
9.439920e-003
9.439920e-003
9.439920e-003
9.439920e-003
9.439920e-003
9.439920e-003
9.439920e-003
9.439920e-003
9.439920e-003
9.439920e-003
9.439920e-003
9.439920e-003
9.439920e-003
9.439920e-003
9.439920e-003
9.439921e-003
9.439921e-003
9.439920e-003
9.439920e-003
9.439920e-003
9.439920e-003
9.439920e-003
9.439920e-003
9.439921e-003
9.439921e-003
9.439922e-003
9.439923e-003
9.439924e-003
9.439925e-003
9.439926e-003
9.439927e-003
9.439928e-003
9.439929e-003
9.439930e-003
9.439932e-003
9.439933e-003
9.439934e-003
9.439936e-003
9.439937e-003
9.439938e-003
9.439939e-003
9.439940e-003
9.439941e-003
9.439942e-003
9.439943e-003
9.439944e-003
9.439944e-003
9.439945e-003
9.439945e-003
9.439945e-003
9.439945e-003
9.439945e-003
9.439945e-003
9.439945e-003
9.439945e-003
9.439944e-003
9.439944e-003
9.439944e-003
9.439943e-003
9.439943e-003
9.439942e-003
9.439941e-003
9.439941e-003
9.439940e-003
9.439939e-003
9.439937e-003
9.439936e-003
9.439935e-003
9.439933e-003
9.439932e-003
9.439930e-003
9.439929e-003
9.439928e-003
9.439927e-003
9.439926e-003
9.439925e-003
9.439924e-003
9.439923e-003
9.439922e-003
9.439921e-003
9.439921e-003
9.439920e-003
9.439920e-003
9.439920e-003
9.439920e-003
9.439920e-003
9.439920e-003
9.439920e-003
9.439920e-003
9.439920e-003
9.439920e-003
9.439920e-003
9.439920e-003
9.439920e-003
9.439920e-003
9.439920e-003
9.439920e-003
9.439920e-003
9.439920e-003
9.439920e-003
9.439920e-003
9.439920e-003
9.439919e-003
9.439920e-003
9.439920e-003
9.439921e-003
9.439921e-003
9.439920e-003
9.439920e-003
9.439919e-003
9.439919e-003
9.439920e-003
9.439920e-003
9.439920e-003
9.439921e-003
9.439920e-003
9.439920e-003
9.439920e-003
9.439920e-003
9.439920e-003
9.439920e-003
9.439920e-003
9.439921e-003
9.439922e-003
9.439923e-003
9.439924e-003
9.439925e-003
9.439926e-003
9.439928e-003
9.439929e-003
9.439931e-003
9.439933e-003
9.439935e-003
9.439936e-003
9.439938e-003
9.439940e-003
9.439942e-003
9.439943e-003
9.439945e-003
9.439946e-003
9.439946e-003
9.439947e-003
9.439947e-003
9.439947e-003
9.439946e-003
9.439946e-003
9.439945e-003
9.439944e-003
9.439943e-003
9.439942e-003
9.439942e-003
9.439941e-003
9.439940e-003
9.439940e-003
9.439940e-003
9.439940e-003
9.439940e-003
9.439940e-003
9.439941e-003
9.439941e-003
9.439942e-003
9.439943e-003
9.439943e-003
9.439943e-003
9.439943e-003
9.439943e-003
9.439942e-003
9.439941e-003
9.439940e-003
9.439938e-003
9.439937e-003
9.439935e-003
9.439933e-003
9.439931e-003
9.439929e-003
9.439927e-003
9.439926e-003
9.439925e-003
9.439924e-003
9.439923e-003
9.439922e-003
9.439921e-003
9.439921e-003
9.439920e-003
9.439920e-003
9.439920e-003
9.439920e-003
9.439920e-003
9.439920e-003
9.439920e-003
9.439920e-003
9.439920e-003
9.439920e-003
9.439920e-003
9.439920e-003
9.439920e-003
9.439920e-003
9.439920e-003
9.439920e-003
9.439920e-003
9.439920e-003
9.439920e-003
9.439919e-003
9.439920e-003
9.439920e-003
9.439921e-003
9.439921e-003
9.439920e-003
9.439920e-003
9.439919e-003
9.439920e-003
9.439920e-003
9.439920e-003
9.439920e-003
9.439920e-003
9.439920e-003
9.439920e-003
9.439920e-003
9.439920e-003
9.439921e-003
9.439921e-003
9.439922e-003
9.439923e-003
9.439924e-003
9.439925e-003
9.439926e-003
9.439928e-003
9.439930e-003
9.439932e-003
9.439934e-003
9.439937e-003
9.439939e-003
9.439942e-003
9.439944e-003
9.439945e-003
9.439946e-003
9.439947e-003
9.439946e-003
9.439944e-003
9.439942e-003
9.439939e-003
9.439935e-003
9.439931e-003
9.439926e-003
9.439921e-003
9.439916e-003
9.439910e-003
9.439905e-003
9.439900e-003
9.439896e-003
9.439892e-003
9.439889e-003
9.439887e-003
9.439886e-003
9.439886e-003
9.439887e-003
9.439889e-003
9.439893e-003
9.439897e-003
9.439902e-003
9.439907e-003
9.439913e-003
9.439919e-003
9.439925e-003
9.439930e-003
9.439934e-003
9.439938e-003
9.439941e-003
9.439942e-003
9.439943e-003
9.439942e-003
9.439941e-003
9.439939e-003
9.439936e-003
9.439934e-003
9.439932e-003
9.439929e-003
9.439927e-003
9.439926e-003
9.439925e-003
9.439923e-003
9.439923e-003
9.439922e-003
9.439921e-003
9.439921e-003
9.439920e-003
9.439920e-003
9.439920e-003
9.439920e-003
9.439920e-003
9.439920e-003
9.439920e-003
9.439920e-003
9.439920e-003
9.439920e-003
9.439920e-003
9.439920e-003
9.439920e-003
9.439920e-003
9.439920e-003
9.439920e-003
9.439920e-003
9.439920e-003
9.439920e-003
9.439920e-003
9.439920e-003
9.439920e-003
9.439920e-003
9.439920e-003
9.439920e-003
9.439920e-003
9.439920e-003
9.439920e-003
9.439920e-003
9.439920e-003
9.439920e-003
9.439920e-003
9.439920e-003
9.439921e-003
9.439922e-003
9.439923e-003
9.439924e-003
9.439925e-003
9.439927e-003
9.439929e-003
9.439931e-003
9.439933e-003
9.439936e-003
9.439939e-003
9.439942e-003
9.439945e-003
9.439946e-003
9.439947e-003
9.439946e-003
9.439943e-003
9.439938e-003
9.439930e-003
9.439921e-003
9.439909e-003
9.439895e-003
9.439879e-003
9.439861e-003
9.439842e-003
9.439823e-003
9.439803e-003
9.439784e-003
9.439765e-003
9.439747e-003
9.439731e-003
9.439717e-003
9.439705e-003
9.439696e-003
9.439690e-003
9.439687e-003
9.439688e-003
9.439693e-003
9.439701e-003
9.439713e-003
9.439728e-003
9.439745e-003
9.439765e-003
9.439787e-003
9.439810e-003
9.439832e-003
9.439854e-003
9.439874e-003
9.439892e-003
9.439908e-003
9.439921e-003
9.439930e-003
9.439937e-003
9.439941e-003
9.439942e-003
9.439942e-003
9.439940e-003
9.439938e-003
9.439935e-003
9.439932e-003
9.439930e-003
9.439928e-003
9.439926e-003
9.439924e-003
9.439923e-003
9.439923e-003
9.439922e-003
9.439921e-003
9.439920e-003
9.439920e-003
9.439920e-003
9.439920e-003
9.439920e-003
9.439920e-003
9.439920e-003
9.439920e-003
9.439920e-003
9.439920e-003
9.439920e-003
9.439920e-003
9.439920e-003
9.439920e-003
9.439920e-003
9.439920e-003
9.439921e-003
9.439920e-003
9.439920e-003
9.439919e-003
9.439919e-003
9.439920e-003
9.439920e-003
9.439920e-003
9.439921e-003
9.439920e-003
9.439920e-003
9.439920e-003
9.439920e-003
9.439920e-003
9.439920e-003
9.439921e-003
9.439922e-003
9.439924e-003
9.439925e-003
9.439927e-003
9.439929e-003
9.439931e-003
9.439934e-003
9.439938e-003
9.439941e-003
9.439945e-003
9.439947e-003
9.439948e-003
9.439946e-003
9.439941e-003
9.439933e-003
9.439919e-003
9.439900e-003
9.439875e-003
9.439844e-003
9.439807e-003
9.439765e-003
9.439718e-003
9.439666e-003
9.439611e-003
9.439554e-003
9.439496e-003
9.439438e-003
9.439382e-003
9.439329e-003
9.439279e-003
9.439234e-003
9.439195e-003
9.439163e-003
9.439139e-003
9.439123e-003
9.439117e-003
9.439121e-003
9.439134e-003
9.439158e-003
9.439192e-003
9.439234e-003
9.439285e-003
9.439343e-003
9.439406e-003
9.439472e-003
9.439539e-003
9.439606e-003
9.439669e-003
9.439727e-003
9.439780e-003
9.439825e-003
9.439862e-003
9.439891e-003
9.439913e-003
9.439928e-003
9.439937e-003
9.439941e-003
9.439943e-003
9.439941e-003
9.439939e-003
9.439936e-003
9.439932e-003
9.439930e-003
9.439927e-003
9.439925e-003
9.439924e-003
9.439923e-003
9.439922e-003
9.439921e-003
9.439920e-003
9.439920e-003
9.439920e-003
9.439920e-003
9.439920e-003
9.439920e-003
9.439920e-003
9.439920e-003
9.439920e-003
9.439920e-003
9.439920e-003
9.439920e-003
9.439920e-003
9.439920e-003
9.439920e-003
9.439921e-003
9.439920e-003
9.439919e-003
9.439919e-003
9.439919e-003
9.439920e-003
9.439921e-003
9.439921e-003
9.439920e-003
9.439920e-003
9.439920e-003
9.439920e-003
9.439920e-003
9.439921e-003
9.439922e-003
9.439923e-003
9.439924e-003
9.439926e-003
9.439928e-003
9.439930e-003
9.439934e-003
9.439938e-003
9.439942e-003
9.439946e-003
9.439949e-003
9.439949e-003
9.439945e-003
9.439936e-003
9.439919e-003
9.439893e-003
9.439855e-003
9.439805e-003
9.439741e-003
9.439662e-003
9.439569e-003
9.439461e-003
9.439341e-003
9.439209e-003
9.439069e-003
9.438922e-003
9.438771e-003
9.438620e-003
9.438471e-003
9.438327e-003
9.438191e-003
9.438065e-003
9.437952e-003
9.437856e-003
9.437777e-003
9.437718e-003
9.437680e-003
9.437666e-003
9.437677e-003
9.437713e-003
9.437773e-003
9.437859e-003
9.437968e-003
9.438097e-003
9.438245e-003
9.438407e-003
9.438578e-003
9.438754e-003
9.438929e-003
9.439099e-003
9.439259e-003
9.439404e-003
9.439533e-003
9.439642e-003
9.439732e-003
9.439803e-003
9.439856e-003
9.439894e-003
9.439919e-003
9.439934e-003
9.439941e-003
9.439943e-003
9.439942e-003
9.439939e-003
9.439935e-003
9.439932e-003
9.439928e-003
9.439926e-003
9.439924e-003
9.439923e-003
9.439922e-003
9.439921e-003
9.439921e-003
9.439920e-003
9.439920e-003
9.439920e-003
9.439920e-003
9.439920e-003
9.439920e-003
9.439920e-003
9.439920e-003
9.439920e-003
9.439920e-003
9.439920e-003
9.439920e-003
9.439920e-003
9.439921e-003
9.439920e-003
9.439919e-003
9.439919e-003
9.439920e-003
9.439920e-003
9.439921e-003
9.439920e-003
9.439920e-003
9.439920e-003
9.439920e-003
9.439920e-003
9.439921e-003
9.439923e-003
9.439924e-003
9.439925e-003
9.439927e-003
9.439929e-003
9.439932e-003
9.439937e-003
9.439941e-003
9.439946e-003
9.439949e-003
9.439950e-003
9.439944e-003
9.439931e-003
9.439906e-003
9.439866e-003
9.439805e-003
9.439720e-003
9.439608e-003
9.439464e-003
9.439286e-003
9.439075e-003
9.438829e-003
9.438552e-003
9.438247e-003
9.437918e-003
9.437571e-003
9.437212e-003
9.436848e-003
9.436485e-003
9.436130e-003
9.435790e-003
9.435471e-003
9.435178e-003
9.434917e-003
9.434693e-003
9.434512e-003
9.434377e-003
9.434293e-003
9.434262e-003
9.434289e-003
9.434374e-003
9.434517e-003
9.434717e-003
9.434972e-003
9.435277e-003
9.435625e-003
9.436008e-003
9.436417e-003
9.436840e-003
9.437265e-003
9.437680e-003
9.438075e-003
9.438440e-003
9.438766e-003
9.439050e-003
9.439289e-003
9.439482e-003
9.439633e-003
9.439746e-003
9.439827e-003
9.439881e-003
9.439915e-003
9.439933e-003
9.439942e-003
9.439943e-003
9.439941e-003
9.439938e-003
9.439934e-003
9.439930e-003
9.439927e-003
9.439925e-003
9.439923e-003
9.439922e-003
9.439922e-003
9.439921e-003
9.439920e-003
9.439920e-003
9.439920e-003
9.439920e-003
9.439920e-003
9.439920e-003
9.439920e-003
9.439920e-003
9.439920e-003
9.439920e-003
9.439920e-003
9.439920e-003
9.439920e-003
9.439920e-003
9.439920e-003
9.439920e-003
9.439920e-003
9.439920e-003
9.439920e-003
9.439920e-003
9.439920e-003
9.439920e-003
9.439920e-003
9.439921e-003
9.439923e-003
9.439924e-003
9.439926e-003
9.439928e-003
9.439931e-003
9.439935e-003
9.439940e-003
9.439945e-003
9.439950e-003
9.439951e-003
9.439946e-003
9.439932e-003
9.439902e-003
9.439849e-003
9.439766e-003
9.439644e-003
9.439473e-003
9.439244e-003
9.438949e-003
9.438583e-003
9.438141e-003
9.437623e-003
9.437032e-003
9.436374e-003
9.435658e-003
9.434895e-003
9.434098e-003
9.433282e-003
9.432461e-003
9.431650e-003
9.430862e-003
9.430112e-003
9.429412e-003
9.428773e-003
9.428207e-003
9.427724e-003
9.427334e-003
9.427046e-003
9.426868e-003
9.426806e-003
9.426867e-003
9.427053e-003
9.427366e-003
9.427803e-003
9.428361e-003
9.429029e-003
9.429795e-003
9.430643e-003
9.431552e-003
9.432499e-003
9.433459e-003
9.434406e-003
9.435315e-003
9.436163e-003
9.436933e-003
9.437611e-003
9.438190e-003
9.438668e-003
9.439050e-003
9.439344e-003
9.439560e-003
9.439713e-003
9.439816e-003
9.439880e-003
9.439917e-003
9.439936e-003
9.439943e-003
9.439943e-003
9.439940e-003
9.439936e-003
9.439931e-003
9.439928e-003
9.439925e-003
9.439924e-003
9.439923e-003
9.439922e-003
9.439921e-003
9.439920e-003
9.439920e-003
9.439920e-003
9.439920e-003
9.439920e-003
9.439920e-003
9.439920e-003
9.439920e-003
9.439920e-003
9.439920e-003
9.439920e-003
9.439919e-003
9.439920e-003
9.439920e-003
9.439921e-003
9.439921e-003
9.439920e-003
9.439920e-003
9.439920e-003
9.439920e-003
9.439921e-003
9.439921e-003
9.439923e-003
9.439924e-003
9.439926e-003
9.439929e-003
9.439932e-003
9.439937e-003
9.439943e-003
9.439949e-003
9.439952e-003
9.439950e-003
9.439938e-003
9.439908e-003
9.439852e-003
9.439755e-003
9.439604e-003
9.439379e-003
9.439062e-003
9.438633e-003
9.438074e-003
9.437369e-003
9.436507e-003
9.435485e-003
9.434304e-003
9.432975e-003
9.431513e-003
9.429942e-003
9.428286e-003
9.426575e-003
9.424840e-003
9.423111e-003
9.421417e-003
9.419786e-003
9.418243e-003
9.416814e-003
9.415519e-003
9.414378e-003
9.413411e-003
9.412634e-003
9.412064e-003
9.411715e-003
9.411600e-003
9.411729e-003
9.412108e-003
9.412742e-003
9.413629e-003
9.414760e-003
9.416121e-003
9.417689e-003
9.419434e-003
9.421320e-003
9.423299e-003
9.425324e-003
9.427342e-003
9.429299e-003
9.431147e-003
9.432845e-003
9.434360e-003
9.435671e-003
9.436771e-003
9.437663e-003
9.438363e-003
9.438892e-003
9.439276e-003
9.439542e-003
9.439719e-003
9.439829e-003
9.439893e-003
9.439926e-003
9.439941e-003
9.439944e-003
9.439942e-003
9.439937e-003
9.439933e-003
9.439929e-003
9.439926e-003
9.439924e-003
9.439923e-003
9.439922e-003
9.439921e-003
9.439920e-003
9.439920e-003
9.439920e-003
9.439920e-003
9.439920e-003
9.439920e-003
9.439920e-003
9.439920e-003
9.439920e-003
9.439920e-003
9.439919e-003
9.439920e-003
9.439921e-003
9.439921e-003
9.439921e-003
9.439920e-003
9.439919e-003
9.439920e-003
9.439921e-003
9.439922e-003
9.439923e-003
9.439924e-003
9.439926e-003
9.439929e-003
9.439933e-003
9.439939e-003
9.439946e-003
9.439951e-003
9.439953e-003
9.439947e-003
9.439924e-003
9.439873e-003
9.439779e-003
9.439618e-003
9.439364e-003
9.438982e-003
9.438436e-003
9.437685e-003
9.436690e-003
9.435417e-003
9.433839e-003
9.431942e-003
9.429725e-003
9.427202e-003
9.424402e-003
9.421366e-003
9.418145e-003
9.414799e-003
9.411387e-003
9.407970e-003
9.404607e-003
9.401353e-003
9.398255e-003
9.395357e-003
9.392699e-003
9.390315e-003
9.388235e-003
9.386487e-003
9.385096e-003
9.384087e-003
9.383480e-003
9.383296e-003
9.383551e-003
9.384257e-003
9.385423e-003
9.387050e-003
9.389130e-003
9.391646e-003
9.394565e-003
9.397843e-003
9.401420e-003
9.405222e-003
9.409161e-003
9.413139e-003
9.417055e-003
9.420808e-003
9.424307e-003
9.427477e-003
9.430263e-003
9.432637e-003
9.434594e-003
9.436154e-003
9.437353e-003
9.438242e-003
9.438875e-003
9.439307e-003
9.439588e-003
9.439761e-003
9.439861e-003
9.439913e-003
9.439937e-003
9.439944e-003
9.439943e-003
9.439939e-003
9.439934e-003
9.439929e-003
9.439926e-003
9.439924e-003
9.439923e-003
9.439922e-003
9.439921e-003
9.439920e-003
9.439920e-003
9.439920e-003
9.439920e-003
9.439920e-003
9.439920e-003
9.439920e-003
9.439920e-003
9.439920e-003
9.439919e-003
9.439920e-003
9.439921e-003
9.439921e-003
9.439920e-003
9.439919e-003
9.439919e-003
9.439920e-003
9.439922e-003
9.439923e-003
9.439925e-003
9.439927e-003
9.439930e-003
9.439934e-003
9.439941e-003
9.439948e-003
9.439953e-003
9.439953e-003
9.439941e-003
9.439905e-003
9.439828e-003
9.439684e-003
9.439436e-003
9.439039e-003
9.438434e-003
9.437552e-003
9.436317e-003
9.434653e-003
9.432488e-003
9.429766e-003
9.426450e-003
9.422532e-003
9.418033e-003
9.413006e-003
9.407532e-003
9.401715e-003
9.395668e-003
9.389513e-003
9.383370e-003
9.377347e-003
9.371544e-003
9.366045e-003
9.360919e-003
9.356222e-003
9.351999e-003
9.348286e-003
9.345111e-003
9.342496e-003
9.340461e-003
9.339025e-003
9.338203e-003
9.338014e-003
9.338476e-003
9.339606e-003
9.341423e-003
9.343940e-003
9.347167e-003
9.351103e-003
9.355731e-003
9.361017e-003
9.366899e-003
9.373289e-003
9.380065e-003
9.387078e-003
9.394151e-003
9.401098e-003
9.407729e-003
9.413873e-003
9.419390e-003
9.424185e-003
9.428215e-003
9.431485e-003
9.434045e-003
9.435977e-003
9.437379e-003
9.438358e-003
9.439011e-003
9.439428e-003
9.439680e-003
9.439823e-003
9.439898e-003
9.439932e-003
9.439943e-003
9.439944e-003
9.439939e-003
9.439934e-003
9.439929e-003
9.439926e-003
9.439924e-003
9.439923e-003
9.439922e-003
9.439921e-003
9.439920e-003
9.439920e-003
9.439920e-003
9.439920e-003
9.439920e-003
9.439920e-003
9.439920e-003
9.439920e-003
9.439919e-003
9.439920e-003
9.439921e-003
9.439921e-003
9.439920e-003
9.439920e-003
9.439920e-003
9.439921e-003
9.439923e-003
9.439925e-003
9.439927e-003
9.439930e-003
9.439935e-003
9.439942e-003
9.439949e-003
9.439955e-003
9.439953e-003
9.439935e-003
9.439884e-003
9.439776e-003
9.439572e-003
9.439217e-003
9.438637e-003
9.437735e-003
9.436394e-003
9.434481e-003
9.431855e-003
9.428383e-003
9.423953e-003
9.418491e-003
9.411980e-003
9.404469e-003
9.396070e-003
9.386957e-003
9.377352e-003
9.367497e-003
9.357644e-003
9.348027e-003
9.338850e-003
9.330279e-003
9.322433e-003
9.315393e-003
9.309202e-003
9.303869e-003
9.299384e-003
9.295714e-003
9.292816e-003
9.290640e-003
9.289130e-003
9.288234e-003
9.287908e-003
9.288119e-003
9.288852e-003
9.290116e-003
9.291941e-003
9.294386e-003
9.297532e-003
9.301476e-003
9.306322e-003
9.312166e-003
9.319075e-003
9.327069e-003
9.336096e-003
9.346024e-003
9.356631e-003
9.367613e-003
9.378612e-003
9.389249e-003
9.399171e-003
9.408085e-003
9.415796e-003
9.422214e-003
9.427353e-003
9.431310e-003
9.434239e-003
9.436322e-003
9.437743e-003
9.438672e-003
9.439252e-003
9.439594e-003
9.439785e-003
9.439882e-003
9.439927e-003
9.439942e-003
9.439944e-003
9.439940e-003
9.439934e-003
9.439929e-003
9.439926e-003
9.439924e-003
9.439923e-003
9.439922e-003
9.439921e-003
9.439920e-003
9.439920e-003
9.439920e-003
9.439920e-003
9.439920e-003
9.439920e-003
9.439920e-003
9.439920e-003
9.439920e-003
9.439920e-003
9.439920e-003
9.439920e-003
9.439920e-003
9.439921e-003
9.439923e-003
9.439924e-003
9.439927e-003
9.439930e-003
9.439935e-003
9.439942e-003
9.439950e-003
9.439956e-003
9.439953e-003
9.439929e-003
9.439864e-003
9.439724e-003
9.439455e-003
9.438978e-003
9.438182e-003
9.436916e-003
9.434993e-003
9.432195e-003
9.428281e-003
9.423018e-003
9.416209e-003
9.407737e-003
9.397596e-003
9.385924e-003
9.373011e-003
9.359284e-003
9.345271e-003
9.331550e-003
9.318687e-003
9.307184e-003
9.297434e-003
9.289698e-003
9.284098e-003
9.280623e-003
9.279153e-003
9.279483e-003
9.281345e-003
9.284429e-003
9.288399e-003
9.292903e-003
9.297583e-003
9.302086e-003
9.306077e-003
9.309257e-003
9.311376e-003
9.312262e-003
9.311836e-003
9.310137e-003
9.307333e-003
9.303732e-003
9.299774e-003
9.296017e-003
9.293098e-003
9.291678e-003
9.292369e-003
9.295654e-003
9.301802e-003
9.310810e-003
9.322375e-003
9.335917e-003
9.350652e-003
9.365703e-003
9.380222e-003
9.393505e-003
9.405064e-003
9.414655e-003
9.422258e-003
9.428024e-003
9.432214e-003
9.435132e-003
9.437078e-003
9.438321e-003
9.439077e-003
9.439514e-003
9.439751e-003
9.439870e-003
9.439923e-003
9.439942e-003
9.439944e-003
9.439940e-003
9.439934e-003
9.439929e-003
9.439926e-003
9.439924e-003
9.439922e-003
9.439921e-003
9.439920e-003
9.439920e-003
9.439920e-003
9.439920e-003
9.439920e-003
9.439920e-003
9.439920e-003
9.439921e-003
9.439920e-003
9.439920e-003
9.439920e-003
9.439920e-003
9.439921e-003
9.439923e-003
9.439924e-003
9.439926e-003
9.439930e-003
9.439935e-003
9.439943e-003
9.439951e-003
9.439957e-003
9.439953e-003
9.439925e-003
9.439848e-003
9.439680e-003
9.439348e-003
9.438746e-003
9.437716e-003
9.436040e-003
9.433438e-003
9.429567e-003
9.424047e-003
9.416500e-003
9.406619e-003
9.394250e-003
9.379491e-003
9.362761e-003
9.344847e-003
9.326877e-003
9.310228e-003
9.296392e-003
9.286800e-003
9.282662e-003
9.284834e-003
9.293748e-003
9.309391e-003
9.331337e-003
9.358825e-003
9.390838e-003
9.426199e-003
9.463641e-003
9.501858e-003
9.539535e-003
9.575365e-003
9.608061e-003
9.636373e-003
9.659115e-003
9.675204e-003
9.683717e-003
9.683954e-003
9.675507e-003
9.658337e-003
9.632837e-003
9.599880e-003
9.560850e-003
9.517620e-003
9.472488e-003
9.428044e-003
9.386967e-003
9.351771e-003
9.324512e-003
9.306524e-003
9.298224e-003
9.299062e-003
9.307616e-003
9.321851e-003
9.339457e-003
9.358217e-003
9.376293e-003
9.392403e-003
9.405853e-003
9.416456e-003
9.424394e-003
9.430057e-003
9.433917e-003
9.436432e-003
9.437999e-003
9.438928e-003
9.439452e-003
9.439728e-003
9.439864e-003
9.439922e-003
9.439942e-003