# vtk DataFile Version 3.0
vtk output
ASCII
DATASET STRUCTURED_POINTS
DIMENSIONS 100 100 1
SPACING 1 1 1
ORIGIN 0 0 0
POINT_DATA 10000
SCALARS SFBox_profile double
LOOKUP_TABLE default 
0.000000e+000
0.000000e+000
0.000000e+000
0.000000e+000
0.000000e+000
0.000000e+000
0.000000e+000
0.000000e+000
0.000000e+000
0.000000e+000
0.000000e+000
0.000000e+000
0.000000e+000
0.000000e+000
0.000000e+000
0.000000e+000
0.000000e+000
0.000000e+000
0.000000e+000
0.000000e+000
0.000000e+000
0.000000e+000
0.000000e+000
0.000000e+000
0.000000e+000
0.000000e+000
0.000000e+000
0.000000e+000
0.000000e+000
0.000000e+000
0.000000e+000
0.000000e+000
0.000000e+000
0.000000e+000
0.000000e+000
0.000000e+000
0.000000e+000
0.000000e+000
0.000000e+000
0.000000e+000
0.000000e+000
0.000000e+000
0.000000e+000
0.000000e+000
0.000000e+000
0.000000e+000
0.000000e+000
0.000000e+000
0.000000e+000
0.000000e+000
0.000000e+000
0.000000e+000
0.000000e+000
0.000000e+000
0.000000e+000
0.000000e+000
0.000000e+000
0.000000e+000
0.000000e+000
0.000000e+000
0.000000e+000
0.000000e+000
0.000000e+000
0.000000e+000
0.000000e+000
0.000000e+000
0.000000e+000
0.000000e+000
0.000000e+000
0.000000e+000
0.000000e+000
0.000000e+000
0.000000e+000
0.000000e+000
0.000000e+000
0.000000e+000
0.000000e+000
0.000000e+000
0.000000e+000
0.000000e+000
0.000000e+000
0.000000e+000
0.000000e+000
0.000000e+000
0.000000e+000
0.000000e+000
0.000000e+000
0.000000e+000
0.000000e+000
0.000000e+000
0.000000e+000
0.000000e+000
0.000000e+000
0.000000e+000
0.000000e+000
0.000000e+000
0.000000e+000
0.000000e+000
0.000000e+000
0.000000e+000
-1.667159e-009
-5.775518e-010
8.443380e-010
1.668406e-009
1.402442e-009
2.767248e-010
-9.618853e-010
-1.569310e-009
-1.263594e-009
-3.289001e-010
6.534760e-010
1.205519e-009
1.191650e-009
7.756808e-010
2.074817e-010
-3.484098e-010
-8.237012e-010
-1.153593e-009
-1.224311e-009
-9.354918e-010
-3.135328e-010
4.502384e-010
1.090991e-009
1.420134e-009
1.409940e-009
1.156509e-009
7.757780e-010
3.328262e-010
-1.486427e-010
-6.353993e-010
-1.061233e-009
-1.355578e-009
-1.488379e-009
-1.482703e-009
-1.386130e-009
-1.233886e-009
-1.037944e-009
-8.033593e-010
-5.463319e-010
-2.935893e-010
-6.739609e-011
1.251797e-010
2.885601e-010
4.273914e-010
5.404242e-010
6.235452e-010
6.755874e-010
6.997539e-010
7.003340e-010
6.793045e-010
6.358881e-010
5.681244e-010
4.743419e-010
3.540634e-010
2.087081e-010
4.155130e-011
-1.436151e-010
-3.435469e-010
-5.536196e-010
-7.632277e-010
-9.533913e-010
-1.100980e-009
-1.186904e-009
-1.199859e-009
-1.131473e-009
-9.702766e-010
-7.066344e-010
-3.497906e-010
5.851858e-011
4.512373e-010
7.619269e-010
9.466704e-010
9.829495e-010
8.546241e-010
5.527081e-010
1.056440e-010
-3.881195e-010
-7.719970e-010
-9.019510e-010
-7.315427e-010
-3.427350e-010
1.043183e-010
4.591406e-010
6.358368e-010
6.080564e-010
3.828939e-010
6.188727e-012
-4.039910e-010
-6.595031e-010
-5.908252e-010
-1.837280e-010
3.538728e-010
6.880497e-010
5.824815e-010
8.830031e-011
-4.628013e-010
-6.828162e-010
-4.124560e-010
1.521364e-010
5.973773e-010
-1.853776e-010
-4.744670e-011
1.204995e-010
1.901653e-010
1.076515e-010
-6.382952e-011
-1.873896e-010
-1.558565e-010
1.992894e-011
2.095373e-010
2.573767e-010
1.045401e-010
-1.587167e-010
-3.551516e-010
-3.497902e-010
-1.435558e-010
1.394389e-010
3.508021e-010
4.148839e-010
3.497360e-010
2.143358e-010
4.747969e-011
-1.435366e-010
-3.477322e-010
-5.202080e-010
-5.965059e-010
-5.385285e-010
-3.645967e-010
-1.342300e-010
9.506773e-011
2.972998e-010
4.719179e-010
6.184168e-010
7.227527e-010
7.674706e-010
7.498001e-010
6.861280e-010
5.992800e-010
5.035609e-010
4.019961e-010
2.948793e-010
1.876655e-010
9.002462e-011
9.242349e-012
-5.363992e-011
-1.014708e-010
-1.362388e-010
-1.571084e-010
-1.620734e-010
-1.502875e-010
-1.226478e-010
-8.089867e-011
-2.664558e-011
3.910571e-011
1.158779e-010
2.027968e-010
2.968031e-010
3.914381e-010
4.780508e-010
5.489355e-010
5.989926e-010
6.234572e-010
6.142806e-010
5.610239e-010
4.581650e-010
3.126740e-010
1.433567e-010
-2.842965e-011
-1.867630e-010
-3.186064e-010
-4.047062e-010
-4.188714e-010
-3.439565e-010
-1.929323e-010
-1.251018e-011
1.395393e-010
2.258426e-010
2.420318e-010
2.024757e-010
1.199827e-010
5.233078e-012
-1.149860e-010
-1.899545e-010
-1.712362e-010
-5.807194e-011
8.357094e-011
1.586525e-010
1.153008e-010
-9.547859e-012
-1.157012e-010
-1.197872e-010
-2.316867e-011
9.046619e-011
1.257824e-010
5.462370e-011
-6.256643e-011
-1.285386e-010
-8.948024e-011
2.219521e-011
1.156319e-010
1.476672e-009
5.236850e-010
-7.251535e-010
-1.466159e-009
-1.272742e-009
-3.270342e-010
7.612267e-010
1.375875e-009
1.247821e-009
5.331498e-010
-3.665147e-010
-1.060444e-009
-1.327242e-009
-1.129436e-009
-5.553371e-010
2.279905e-010
9.959061e-010
1.503729e-009
1.566695e-009
1.146730e-009
3.790549e-010
-4.908523e-010
-1.219629e-009
-1.653798e-009
-1.749423e-009
-1.538770e-009
-1.089498e-009
-4.850896e-010
1.795860e-010
8.075810e-010
1.319694e-009
1.671721e-009
1.855628e-009
1.886436e-009
1.788078e-009
1.587580e-009
1.315300e-009
1.003722e-009
6.822215e-010
3.720075e-010
8.566205e-011
-1.694431e-010
-3.880826e-010
-5.669179e-010
-7.056063e-010
-8.066461e-010
-8.734478e-010
-9.083380e-010
-9.120664e-010
-8.846317e-010
-8.261567e-010
-7.369515e-010
-6.169875e-010
-4.656014e-010
-2.821146e-010
-6.735336e-011
1.747085e-010
4.361989e-010
7.057064e-010
9.687413e-010
1.207194e-009
1.398350e-009
1.515711e-009
1.533199e-009
1.431367e-009
1.202444e-009
8.528840e-010
4.054541e-010
-9.727095e-011
-5.908567e-010
-9.949634e-010
-1.230383e-009
-1.241533e-009
-1.014107e-009
-5.823431e-010
-2.830302e-011
5.246257e-010
9.303507e-010
1.060127e-009
8.585591e-010
3.863739e-010
-1.859485e-010
-6.438786e-010
-8.224798e-010
-6.753676e-010
-2.848237e-010
1.813267e-010
5.358944e-010
6.369344e-010
4.414083e-010
3.661040e-011
-3.770093e-010
-5.726083e-010
-4.285239e-010
-2.395656e-011
3.866080e-010
5.304491e-010
3.078972e-010
-1.258066e-010
-4.627142e-010
1.865293e-009
6.132468e-010
-9.883462e-010
-1.856573e-009
-1.468741e-009
-1.680619e-010
1.142959e-009
1.654287e-009
1.159918e-009
9.584812e-011
-8.506796e-010
-1.217068e-009
-9.814613e-010
-4.323902e-010
1.181691e-010
5.186650e-010
7.560875e-010
8.318809e-010
7.023605e-010
3.399299e-010
-1.750359e-010
-6.525401e-010
-9.010264e-010
-8.490716e-010
-5.735503e-010
-2.209737e-010
9.622940e-011
3.415034e-010
5.216442e-010
6.363626e-010
6.653556e-010
5.945166e-010
4.414977e-010
2.502201e-010
6.269741e-011
-1.017072e-010
-2.431328e-010
-3.646681e-010
-4.625546e-010
-5.303227e-010
-5.675939e-010
-5.821123e-010
-5.839504e-010
-5.794205e-010
-5.705227e-010
-5.584273e-010
-5.458688e-010
-5.361928e-010
-5.311891e-010
-5.305375e-010
-5.329665e-010
-5.371704e-010
-5.413933e-010
-5.426903e-010
-5.372254e-010
-5.212861e-010
-4.915013e-010
-4.439348e-010
-3.738426e-010
-2.777959e-010
-1.569804e-010
-1.826302e-011
1.283015e-010
2.722204e-010
4.011124e-010
4.960910e-010
5.314736e-010
4.845399e-010
3.503455e-010
1.484728e-010
-8.515121e-011
-3.121867e-010
-4.956783e-010
-5.921384e-010
-5.513398e-010
-3.427718e-010
2.136389e-012
3.729198e-010
6.204161e-010
6.379268e-010
4.235085e-010
7.469183e-011
-2.739248e-010
-5.125582e-010
-5.750705e-010
-4.307819e-010
-9.610002e-011
3.262123e-010
6.383059e-010
6.325912e-010
2.483329e-010
-3.251911e-010
-7.239133e-010
-6.532814e-010
-1.288237e-010
4.951759e-010
7.662623e-010
4.763562e-010
-1.650729e-010
-6.785634e-010
6.410112e-010
1.473505e-010
-4.373564e-010
-6.524050e-010
-3.346537e-010
2.558316e-010
6.370987e-010
4.840471e-010
-1.072473e-010
-6.817836e-010
-7.735739e-010
-2.681060e-010
5.069770e-010
1.029362e-009
9.616920e-010
3.638529e-010
-4.026942e-010
-9.589997e-010
-1.132320e-009
-9.692376e-010
-5.961884e-010
-9.909995e-011
4.746328e-010
1.040775e-009
1.449302e-009
1.552710e-009
1.305988e-009
7.974077e-010
1.829023e-010
-4.095684e-010
-9.229475e-010
-1.343968e-009
-1.656748e-009
-1.830962e-009
-1.847549e-009
-1.723467e-009
-1.505516e-009
-1.241637e-009
-9.598662e-010
-6.710761e-010
-3.845018e-010
-1.158919e-010
1.181013e-010
3.091581e-010
4.587755e-010
5.718248e-010
6.503758e-010
6.933343e-010
6.997056e-010
6.703710e-010
6.069178e-010
5.101440e-010
3.803494e-010
2.184569e-010
2.624272e-011
-1.937174e-010
-4.364116e-010
-6.914347e-010
-9.420580e-010
-1.168357e-009
-1.351331e-009
-1.472835e-009
-1.511534e-009
-1.442490e-009
-1.246982e-009
-9.278256e-010
-5.162183e-010
-6.228359e-011
3.810235e-010
7.630235e-010
1.026731e-009
1.106959e-009
9.562432e-010
5.892051e-010
1.046470e-010
-3.471235e-010
-6.360884e-010
-7.080625e-010
-5.838944e-010
-3.199181e-010
1.714666e-011
3.380529e-010
5.213129e-010
4.604229e-010
1.577620e-010
-2.244554e-010
-4.402319e-010
-3.368811e-010
7.974278e-012
3.253482e-010
3.622309e-010
9.207926e-011
-2.563228e-010
-3.868841e-010
-1.862103e-010
1.784697e-010
3.994693e-010
2.886584e-010
-6.350128e-011
-3.641700e-010
-1.153754e-009
-4.403305e-010
5.092939e-010
1.113953e-009
1.054895e-009
4.210444e-010
-4.152297e-010
-1.042544e-009
-1.194861e-009
-8.123883e-010
-2.937328e-011
8.592870e-010
1.470771e-009
1.483694e-009
8.220596e-010
-2.562911e-010
-1.269844e-009
-1.776785e-009
-1.610897e-009
-9.256111e-010
-4.141654e-011
7.562552e-010
1.315531e-009
1.586362e-009
1.551358e-009
1.211866e-009
6.273398e-010
-6.497597e-011
-6.970477e-010
-1.150179e-009
-1.396427e-009
-1.471532e-009
-1.417857e-009
-1.255177e-009
-9.953604e-010
-6.684614e-010
-3.239960e-010
-6.908452e-012
2.635264e-010
4.911344e-010
6.841915e-010
8.426786e-010
9.616531e-010
1.041509e-009
1.091260e-009
1.122353e-009
1.141446e-009
1.149475e-009
1.145574e-009
1.129929e-009
1.103080e-009
1.064114e-009
1.010336e-009
9.378452e-010
8.414830e-010
7.149582e-010
5.531000e-010
3.553657e-010
1.268359e-010
-1.247333e-010
-3.913541e-010
-6.611711e-010
-9.106130e-010
-1.102264e-009
-1.195351e-009
-1.162249e-009
-9.961753e-010
-7.049285e-010
-3.039419e-010
1.747120e-010
6.618495e-010
1.047025e-009
1.212587e-009
1.091626e-009
7.066329e-010
1.595316e-010
-4.114277e-010
-8.675881e-010
-1.083363e-009
-9.651426e-010
-5.040679e-010
1.638927e-010
7.656509e-010
1.011586e-009
7.731698e-010
1.853617e-010
-4.220181e-010
-7.282990e-010
-6.150275e-010
-2.128522e-010
2.135314e-010
4.402146e-010
3.958942e-010
1.609993e-010
-1.099511e-010
-2.769241e-010
-2.722154e-010
-1.185069e-010
8.946028e-011
2.334972e-010
-2.021280e-009
-6.192621e-010
1.122384e-009
1.978786e-009
1.447526e-009
2.743777e-011
-1.250657e-009
-1.602857e-009
-9.701660e-010
9.183521e-011
9.081540e-010
1.122276e-009
7.921802e-010
1.993092e-010
-3.794357e-010
-7.630028e-010
-8.464694e-010
-5.908671e-010
-6.673681e-011
5.218174e-010
9.119020e-010
9.272282e-010
5.775708e-010
3.043749e-011
-5.092841e-010
-9.032136e-010
-1.098294e-009
-1.086143e-009
-8.722371e-010
-4.847855e-010
7.358141e-012
5.076638e-010
9.331106e-010
1.245145e-009
1.444282e-009
1.542233e-009
1.544322e-009
1.455454e-009
1.293717e-009
1.090710e-009
8.774698e-010
6.719968e-010
4.802254e-010
3.057984e-010
1.561647e-010
3.996235e-011
-3.850144e-011
-8.039434e-011
-8.879834e-011
-6.531460e-011
-9.893295e-012
7.747182e-011
1.954920e-010
3.408979e-010
5.075415e-010
6.860185e-010
8.649760e-010
1.032813e-009
1.176778e-009
1.279535e-009
1.318283e-009
1.270953e-009
1.126413e-009
8.896579e-010
5.778044e-010
2.142213e-010
-1.688339e-010
-5.209216e-010
-7.734919e-010
-8.614620e-010
-7.563241e-010
-4.849349e-010
-1.194636e-010
2.485600e-010
5.269738e-010
6.320421e-010
5.089919e-010
1.741224e-010
-2.524971e-010
-5.748472e-010
-6.206893e-010
-3.533869e-010
9.221908e-011
4.846911e-010
6.283582e-010
4.616683e-010
7.188506e-011
-3.559902e-010
-6.148897e-010
-5.581441e-010
-1.822043e-010
3.298372e-010
6.707057e-010
5.922626e-010
1.054615e-010
-4.758779e-010
-7.320396e-010
-4.561057e-010
1.618206e-010
6.599385e-010
-1.271839e-009
-2.481018e-010
9.197889e-010
1.274593e-009
5.612955e-010
-5.930462e-010
-1.220755e-009
-8.092849e-010
3.020548e-010
1.223859e-009
1.235461e-009
3.231616e-010
-8.651731e-010
-1.547762e-009
-1.352954e-009
-4.769794e-010
5.704124e-010
1.337746e-009
1.622801e-009
1.428442e-009
8.414707e-010
-1.264907e-011
-9.416546e-010
-1.690493e-009
-2.032007e-009
-1.880181e-009
-1.322897e-009
-5.487825e-010
2.599898e-010
9.840185e-010
1.556086e-009
1.931463e-009
2.083122e-009
2.017777e-009
1.780711e-009
1.435521e-009
1.036946e-009
6.204813e-010
2.104622e-010
-1.703854e-010
-5.022137e-010
-7.754331e-010
-9.926260e-010
-1.162057e-009
-1.290127e-009
-1.379734e-009
-1.433448e-009
-1.455776e-009
-1.451743e-009
-1.424002e-009
-1.371582e-009
-1.290816e-009
-1.177088e-009
-1.026372e-009
-8.361254e-010
-6.052549e-010
-3.335481e-010
-2.243441e-011
3.214417e-010
6.816755e-010
1.031017e-009
1.335596e-009
1.560504e-009
1.671587e-009
1.635052e-009
1.423069e-009
1.029376e-009
4.860784e-010
-1.331948e-010
-7.279625e-010
-1.191785e-009
-1.427629e-009
-1.362866e-009
-9.781955e-010
-3.456788e-010
3.593284e-010
9.073384e-010
1.114188e-009
9.294280e-010
4.535752e-010
-1.186171e-010
-5.787175e-010
-7.652480e-010
-6.071187e-010
-1.674943e-010
3.387307e-010
6.188548e-010
4.804669e-010
3.106562e-012
-4.668956e-010
-5.559067e-010
-1.748555e-010
3.722257e-010
6.176371e-010
3.304295e-010
-2.626655e-010
-6.537858e-010
-4.933297e-010
9.412534e-011
6.083466e-010
4.665743e-010
3.162150e-010
9.716974e-012
-3.989519e-010
-7.332952e-010
-7.389284e-010
-2.599315e-010
5.632427e-010
1.267829e-009
1.321461e-009
5.242582e-010
-7.554546e-010
-1.754961e-009
-1.823243e-009
-8.829195e-010
5.183536e-010
1.600843e-009
1.864449e-009
1.330377e-009
3.925814e-010
-5.146306e-010
-1.138487e-009
-1.407422e-009
-1.323529e-009
-9.107342e-010
-2.520590e-010
4.775778e-010
1.063292e-009
1.356260e-009
1.336900e-009
1.085297e-009
7.021296e-010
2.570699e-010
-2.068595e-010
-6.467906e-010
-1.014311e-009
-1.274738e-009
-1.423707e-009
-1.481350e-009
-1.472733e-009
-1.415445e-009
-1.321945e-009
-1.206851e-009
-1.087825e-009
-9.799639e-010
-8.914944e-010
-8.252500e-010
-7.829811e-010
-7.673489e-010
-7.803393e-010
-8.208705e-010
-8.843875e-010
-9.644760e-010
-1.054395e-009
-1.146646e-009
-1.230818e-009
-1.292058e-009
-1.312551e-009
-1.275627e-009
-1.169164e-009
-9.858847e-010
-7.229178e-010
-3.857141e-010
3.373242e-012
3.996892e-010
7.425595e-010
9.712398e-010
1.038623e-009
9.158748e-010
5.969331e-010
1.157444e-010
-4.311529e-010
-8.877551e-010
-1.090461e-009
-9.484910e-010
-4.972195e-010
1.147655e-010
6.882986e-010
1.036380e-009
1.024502e-009
6.121351e-010
-8.909357e-011
-7.915679e-010
-1.127566e-009
-8.695381e-010
-1.319405e-010
6.417584e-010
9.600297e-010
6.432031e-010
-3.514492e-011
-5.630885e-010
-5.937239e-010
-1.984554e-010
2.371348e-010
3.653716e-010
1.568642e-010
-1.258275e-010
-2.065871e-010
-5.067014e-011
1.350982e-010
1.846579e-009
5.689488e-010
-1.001244e-009
-1.758052e-009
-1.288285e-009
-6.602095e-011
1.025753e-009
1.360387e-009
8.939446e-010
2.455162e-011
-7.535220e-010
-1.095645e-009
-8.766304e-010
-1.907507e-010
6.538050e-010
1.214394e-009
1.130236e-009
3.736587e-010
-6.796410e-010
-1.465752e-009
-1.587091e-009
-1.030121e-009
-9.890543e-011
8.306406e-010
1.508902e-009
1.840294e-009
1.804911e-009
1.408274e-009
7.057690e-010
-1.641115e-010
-1.010884e-009
-1.675519e-009
-2.090814e-009
-2.271157e-009
-2.258569e-009
-2.084932e-009
-1.775664e-009
-1.369818e-009
-9.221957e-010
-4.838338e-010
-8.392301e-011
2.692536e-010
5.743639e-010
8.273529e-010
1.023338e-009
1.162711e-009
1.251803e-009
1.297540e-009
1.302674e-009
1.266163e-009
1.186623e-009
1.064006e-009
8.980747e-010
6.867360e-010
4.276083e-010
1.222145e-010
-2.211506e-010
-5.882822e-010
-9.611156e-010
-1.316406e-009
-1.621166e-009
-1.831674e-009
-1.902233e-009
-1.800267e-009
-1.516480e-009
-1.064428e-009
-4.781189e-010
1.803088e-010
8.079261e-010
1.267996e-009
1.433775e-009
1.250656e-009
7.716187e-010
1.386071e-010
-4.704621e-010
-8.875981e-010
-9.823409e-010
-6.994793e-010
-1.197408e-010
5.097660e-010
8.572332e-010
7.028945e-010
1.208012e-010
-5.255042e-010
-8.148052e-010
-5.671462e-010
2.864912e-011
5.626491e-010
7.020282e-010
4.038418e-010
-9.863512e-011
-4.849347e-010
-5.498750e-010
-2.954178e-010
1.046434e-010
4.144199e-010
4.606758e-010
2.243661e-010
-1.452906e-010
-4.156206e-010
1.896832e-009
3.185172e-010
-1.425071e-009
-1.862801e-009
-7.140672e-010
9.565848e-010
1.728937e-009
1.026525e-009
-4.966190e-010
-1.605762e-009
-1.504322e-009
-3.550023e-010
1.003908e-009
1.750345e-009
1.566815e-009
6.567260e-010
-5.275211e-010
-1.531351e-009
-2.004243e-009
-1.755326e-009
-8.335383e-010
4.364657e-010
1.569803e-009
2.160458e-009
2.074421e-009
1.455512e-009
5.725020e-010
-3.391861e-010
-1.128679e-009
-1.695462e-009
-1.962415e-009
-1.899044e-009
-1.553425e-009
-1.037356e-009
-4.681803e-010
7.952994e-011
5.754413e-010
1.004166e-009
1.346150e-009
1.585470e-009
1.725891e-009
1.791323e-009
1.810027e-009
1.800548e-009
1.771767e-009
1.731528e-009
1.691078e-009
1.661168e-009
1.646488e-009
1.645413e-009
1.654025e-009
1.668430e-009
1.682761e-009
1.686461e-009
1.665233e-009
1.604834e-009
1.492948e-009
1.317345e-009
1.065018e-009
7.278451e-010
3.128069e-010
-1.524775e-010
-6.245700e-010
-1.053128e-009
-1.382902e-009
-1.549629e-009
-1.486251e-009
-1.152135e-009
-5.722442e-010
1.466533e-010
8.417503e-010
1.344614e-009
1.522636e-009
1.302631e-009
6.986427e-010
-1.475285e-010
-9.566443e-010
-1.395785e-009
-1.251407e-009
-5.834745e-010
2.734980e-010
8.919768e-010
9.963780e-010
6.024134e-010
-2.536163e-011
-5.386744e-010
-6.811065e-010
-4.023790e-010
1.136315e-010
5.287449e-010
5.439624e-010
1.238021e-010
-4.258612e-010
-6.537452e-010
-3.330120e-010
3.050043e-010
7.249531e-010
5.435837e-010
-1.105830e-010
-6.849859e-010
6.795059e-010
-1.714097e-010
-9.350428e-010
-7.310674e-010
3.737578e-010
1.379718e-009
1.263696e-009
-5.242986e-011
-1.566002e-009
-2.023243e-009
-9.789387e-010
8.361786e-010
2.123244e-009
2.031149e-009
7.248857e-010
-8.750510e-010
-1.836027e-009
-1.784453e-009
-9.489128e-010
1.692054e-010
1.119759e-009
1.620804e-009
1.543497e-009
9.109559e-010
-7.515619e-011
-1.074591e-009
-1.751841e-009
-1.930233e-009
-1.636299e-009
-1.019490e-009
-2.420273e-010
5.700354e-010
1.313760e-009
1.894839e-009
2.246762e-009
2.358964e-009
2.274231e-009
2.054126e-009
1.746980e-009
1.384019e-009
9.941608e-010
6.117178e-010
2.677366e-010
-2.164799e-011
-2.550479e-010
-4.354063e-010
-5.619943e-010
-6.315931e-010
-6.435755e-010
-6.008455e-010
-5.061929e-010
-3.599501e-010
-1.622461e-010
8.344364e-011
3.698365e-010
6.874095e-010
1.023122e-009
1.355365e-009
1.650994e-009
1.870004e-009
1.974907e-009
1.936110e-009
1.731047e-009
1.346555e-009
7.938789e-010
1.292242e-010
-5.415960e-010
-1.087098e-009
-1.389678e-009
-1.375893e-009
-1.030531e-009
-4.105199e-010
3.347836e-010
9.677288e-010
1.233678e-009
9.915664e-010
3.219326e-010
-4.814381e-010
-1.050231e-009
-1.124769e-009
-6.730000e-010
9.997350e-011
8.317071e-010
1.144936e-009
8.348290e-010
3.338348e-011
-7.892484e-010
-1.083918e-009
-6.277691e-010
2.467130e-010
8.615197e-010
7.387911e-010
2.365841e-011
-6.293265e-010
-6.442953e-010
-5.321958e-011
5.450298e-010
5.690490e-010
1.826033e-011
-5.388387e-010
-9.163755e-010
-4.600046e-010
2.307992e-010
8.259623e-010
1.013816e-009
6.401294e-010
-1.689484e-010
-9.838275e-010
-1.255411e-009
-6.865761e-010
4.545717e-010
1.402258e-009
1.408764e-009
3.526190e-010
-1.087084e-009
-1.896298e-009
-1.479397e-009
-8.357462e-011
1.428446e-009
2.214629e-009
1.958704e-009
9.125335e-010
-4.129707e-010
-1.565707e-009
-2.268845e-009
-2.389599e-009
-1.912428e-009
-9.612756e-010
2.057196e-010
1.286687e-009
2.060849e-009
2.449775e-009
2.483596e-009
2.230572e-009
1.759823e-009
1.146135e-009
4.770740e-010
-1.641672e-010
-7.246986e-010
-1.188161e-009
-1.557973e-009
-1.839269e-009
-2.036318e-009
-2.159875e-009
-2.229241e-009
-2.264716e-009
-2.279511e-009
-2.279272e-009
-2.266739e-009
-2.244043e-009
-2.210521e-009
-2.160501e-009
-2.084429e-009
-1.971207e-009
-1.808417e-009
-1.581739e-009
-1.277784e-009
-8.905560e-010
-4.262575e-010
9.708271e-011
6.510283e-010
1.192768e-009
1.658381e-009
1.965729e-009
2.034744e-009
1.815979e-009
1.309731e-009
5.703486e-010
-2.929301e-010
-1.113025e-009
-1.680035e-009
-1.801779e-009
-1.400460e-009
-5.849857e-010
3.651522e-010
1.108096e-009
1.377455e-009
1.082156e-009
3.463709e-010
-5.082151e-010
-1.059574e-009
-9.850022e-010
-2.946712e-010
5.868921e-010
1.046897e-009
7.310278e-010
-1.361586e-010
-8.813940e-010
-9.184973e-010
-2.456209e-010
5.541198e-010
8.285886e-010
4.212418e-010
-2.341033e-010
-5.553516e-010
-3.471844e-010
7.968839e-011
2.800826e-010
1.277121e-010
-1.083403e-010
-1.907762e-009
-3.326466e-010
1.402315e-009
1.848407e-009
7.529229e-010
-8.514973e-010
-1.641678e-009
-1.090920e-009
2.572558e-010
1.375714e-009
1.544367e-009
7.250346e-010
-5.726132e-010
-1.644198e-009
-1.911176e-009
-1.159136e-009
3.198925e-010
1.795946e-009
2.461861e-009
1.922878e-009
4.586929e-010
-1.166694e-009
-2.199483e-009
-2.304275e-009
-1.618512e-009
-5.205313e-010
6.227298e-010
1.552596e-009
2.097112e-009
2.156750e-009
1.738726e-009
9.759902e-010
7.429054e-011
-7.816610e-010
-1.486067e-009
-2.002230e-009
-2.322543e-009
-2.448580e-009
-2.398837e-009
-2.216067e-009
-1.955098e-009
-1.662177e-009
-1.366366e-009
-1.086368e-009
-8.392871e-010
-6.409037e-010
-5.008603e-010
-4.213646e-010
-4.010446e-010
-4.386477e-010
-5.329710e-010
-6.808961e-010
-8.763640e-010
-1.109832e-009
-1.366618e-009
-1.625279e-009
-1.858444e-009
-2.035368e-009
-2.122852e-009
-2.084769e-009
-1.886230e-009
-1.506648e-009
-9.558153e-010
-2.813233e-010
4.361941e-010
1.091287e-009
1.559524e-009
1.712703e-009
1.461177e-009
8.157379e-010
-7.360520e-011
-9.446363e-010
-1.512635e-009
-1.574021e-009
-1.078849e-009
-1.647224e-010
8.460952e-010
1.519813e-009
1.494498e-009
7.223645e-010
-4.074708e-010
-1.238872e-009
-1.270673e-009
-5.308073e-010
4.255011e-010
9.308493e-010
7.060128e-010
3.241557e-011
-5.261635e-010
-5.856778e-010
-1.960896e-010
2.768394e-010
4.788692e-010
3.132075e-010
-5.055108e-011
-3.449719e-010
-3.906419e-010
-1.846616e-010
1.268321e-010
3.486386e-010
-1.822543e-009
4.731888e-011
1.860759e-009
1.805450e-009
-7.207433e-011
-1.976386e-009
-2.116483e-009
-3.540551e-010
1.763455e-009
2.466951e-009
1.268440e-009
-7.958977e-010
-2.182486e-009
-2.052738e-009
-6.966238e-010
9.255997e-010
1.912980e-009
1.853476e-009
8.588565e-010
-5.862925e-010
-1.819938e-009
-2.253391e-009
-1.651455e-009
-2.755320e-010
1.258210e-009
2.331607e-009
2.627902e-009
2.187375e-009
1.252091e-009
8.922040e-011
-1.077992e-009
-2.059471e-009
-2.700591e-009
-2.924501e-009
-2.761386e-009
-2.319063e-009
-1.717430e-009
-1.044252e-009
-3.564143e-010
2.994097e-010
8.806458e-010
1.360339e-009
1.735509e-009
2.019720e-009
2.228486e-009
2.371955e-009
2.457345e-009
2.492803e-009
2.486428e-009
2.442373e-009
2.358757e-009
2.228713e-009
2.042839e-009
1.791634e-009
1.467495e-009
1.065927e-009
5.865274e-010
3.621887e-011
-5.638378e-010
-1.171491e-009
-1.724065e-009
-2.147826e-009
-2.369605e-009
-2.324680e-009
-1.967029e-009
-1.293777e-009
-3.796699e-010
6.068100e-010
1.434284e-009
1.881294e-009
1.812841e-009
1.227738e-009
2.761813e-010
-7.454496e-010
-1.449113e-009
-1.499991e-009
-8.233871e-010
2.670754e-010
1.177310e-009
1.376232e-009
7.544521e-010
-2.832738e-010
-1.083212e-009
-1.174077e-009
-5.538394e-010
3.452710e-010
9.520552e-010
9.077010e-010
2.772587e-010
-4.891359e-010
-8.441327e-010
-5.336784e-010
1.823620e-010
7.029814e-010
5.800839e-010
-6.971214e-011
-6.429616e-010
-5.987028e-010
2.094733e-011
6.192171e-010
-8.164073e-010
3.365955e-010
1.261862e-009
7.893639e-010
-7.486764e-010
-1.807922e-009
-1.201685e-009
6.522778e-010
2.071416e-009
1.701760e-009
-1.951515e-010
-1.981842e-009
-2.129589e-009
-5.272844e-010
1.524714e-009
2.480081e-009
1.737120e-009
-9.599960e-011
-1.848086e-009
-2.617873e-009
-2.165652e-009
-8.075749e-010
8.720242e-010
2.251853e-009
2.844341e-009
2.455310e-009
1.268529e-009
-2.482775e-010
-1.587485e-009
-2.425059e-009
-2.679753e-009
-2.425818e-009
-1.787072e-009
-8.984997e-010
8.765423e-011
1.014905e-009
1.766853e-009
2.299563e-009
2.629142e-009
2.792329e-009
2.820413e-009
2.741189e-009
2.589981e-009
2.408386e-009
2.231691e-009
2.080343e-009
1.963264e-009
1.886255e-009
1.855627e-009
1.875296e-009
1.942746e-009
2.048429e-009
2.178228e-009
2.315621e-009
2.440896e-009
2.527871e-009
2.541961e-009
2.444030e-009
2.200077e-009
1.790978e-009
1.216957e-009
4.998148e-010
-3.087050e-010
-1.113105e-009
-1.772133e-009
-2.127306e-009
-2.057624e-009
-1.531401e-009
-6.296862e-010
4.573337e-010
1.449176e-009
2.022310e-009
1.917536e-009
1.095778e-009
-1.556744e-010
-1.291339e-009
-1.771076e-009
-1.373019e-009
-3.399041e-010
7.501151e-010
1.306581e-009
1.050445e-009
1.699682e-010
-7.683957e-010
-1.137151e-009
-6.611058e-010
3.318436e-010
1.078778e-009
9.543287e-010
3.098527e-011
-9.111485e-010
-1.040949e-009
-2.520549e-010
7.052702e-010
9.304422e-010
2.553416e-010
-5.948656e-010
-7.523774e-010
-1.022436e-010
6.174957e-010
5.766860e-010
3.262701e-010
-1.419415e-010
-6.396675e-010
-8.029825e-010
-3.543198e-010
5.330056e-010
1.185626e-009
9.136337e-010
-2.998307e-010
-1.579044e-009
-1.771001e-009
-4.679037e-010
1.493922e-009
2.609500e-009
1.924333e-009
-1.651960e-010
-2.226442e-009
-2.907259e-009
-1.878303e-009
1.041704e-010
1.883512e-009
2.653785e-009
2.252477e-009
1.001990e-009
-5.780292e-010
-1.963765e-009
-2.737419e-009
-2.689896e-009
-1.889349e-009
-6.333952e-010
7.104006e-010
1.862087e-009
2.682779e-009
3.132858e-009
3.218617e-009
2.979903e-009
2.498036e-009
1.882096e-009
1.231501e-009
6.084186e-010
4.147384e-011
-4.534057e-010
-8.614548e-010
-1.173821e-009
-1.394516e-009
-1.536907e-009
-1.612888e-009
-1.626140e-009
-1.574311e-009
-1.454747e-009
-1.266534e-009
-1.007850e-009
-6.737881e-010
-2.596807e-010
2.307444e-010
7.783834e-010
1.348084e-009
1.892442e-009
2.353194e-009
2.658394e-009
2.725066e-009
2.479582e-009
1.893293e-009
1.012804e-009
-3.452046e-011
-1.058384e-009
-1.832988e-009
-2.135873e-009
-1.818600e-009
-9.076741e-010
3.251484e-010
1.411586e-009
1.880009e-009
1.501537e-009
4.364523e-010
-8.152013e-010
-1.637431e-009
-1.595085e-009
-6.817342e-010
6.088776e-010
1.496316e-009
1.388051e-009
3.457494e-010
-8.639377e-010
-1.308507e-009
-6.631023e-010
4.699500e-010
1.070692e-009
6.347156e-010
-3.568028e-010
-9.211047e-010
-5.501479e-010
3.094869e-010
7.614833e-010
4.039303e-010
-2.923492e-010
-5.510310e-010
-1.515815e-010
3.685473e-010
1.746093e-009
7.697905e-011
-1.622234e-009
-1.767492e-009
-2.772506e-010
1.466984e-009
1.953740e-009
8.277107e-010
-9.552402e-010
-2.024163e-009
-1.636706e-009
-1.003272e-010
1.540195e-009
2.195314e-009
1.389725e-009
-4.231851e-010
-2.085709e-009
-2.452627e-009
-1.185173e-009
9.671121e-010
2.663362e-009
2.886359e-009
1.567187e-009
-5.072133e-010
-2.308958e-009
-3.156716e-009
-2.906097e-009
-1.797110e-009
-2.299927e-010
1.367971e-009
2.615152e-009
3.257578e-009
3.238421e-009
2.685496e-009
1.813178e-009
8.173203e-010
-1.661796e-010
-1.045531e-009
-1.753827e-009
-2.255032e-009
-2.556080e-009
-2.698125e-009
-2.730264e-009
-2.690432e-009
-2.606216e-009
-2.504359e-009
-2.412541e-009
-2.351626e-009
-2.329275e-009
-2.342308e-009
-2.383507e-009
-2.444038e-009
-2.509171e-009
-2.553528e-009
-2.542665e-009
-2.440465e-009
-2.215553e-009
-1.842633e-009
-1.303797e-009
-5.986073e-010
2.372612e-010
1.118411e-009
1.915396e-009
2.478701e-009
2.667696e-009
2.379355e-009
1.587859e-009
3.985989e-010
-9.171680e-010
-1.964255e-009
-2.363510e-009
-1.932969e-009
-8.066809e-010
5.810398e-010
1.646191e-009
1.892955e-009
1.169082e-009
-1.743698e-010
-1.373123e-009
-1.660882e-009
-8.154240e-010
5.834703e-010
1.505787e-009
1.261780e-009
8.840466e-011
-1.032156e-009
-1.216004e-009
-4.299860e-010
5.434835e-010
8.720672e-010
4.116564e-010
-2.716384e-010
-5.353808e-010
-2.596343e-010
1.581056e-010
3.008359e-010
1.356729e-010
-6.549382e-011
-1.007660e-010
-3.612926e-011
2.200918e-009
-1.976038e-010
-2.379794e-009
-2.048305e-009
4.336499e-010
2.529061e-009
2.170410e-009
-2.372170e-010
-2.368444e-009
-2.303120e-009
-2.310269e-010
1.945412e-009
2.430855e-009
9.657050e-010
-1.221359e-009
-2.545136e-009
-2.171643e-009
-3.887967e-010
1.728930e-009
2.973524e-009
2.632473e-009
8.543478e-010
-1.431002e-009
-3.041260e-009
-3.217061e-009