# vtk DataFile Version 3.0
vtk output
ASCII
DATASET STRUCTURED_POINTS
DIMENSIONS 100 100 1
SPACING 1 1 1
ORIGIN 0 0 0
POINT_DATA 10000
SCALARS SFBox_profile double
LOOKUP_TABLE default 
9.439907e-004
9.439904e-004
9.439900e-004
9.439896e-004
9.439894e-004
9.439898e-004
9.439907e-004
9.439921e-004
9.439938e-004
9.439954e-004
9.439966e-004
9.439972e-004
9.439970e-004
9.439958e-004
9.439940e-004
9.439916e-004
9.439891e-004
9.439868e-004
9.439850e-004
9.439838e-004
9.439835e-004
9.439839e-004
9.439850e-004
9.439866e-004
9.439885e-004
9.439906e-004
9.439927e-004
9.439946e-004
9.439963e-004
9.439978e-004
9.439990e-004
9.439999e-004
9.440007e-004
9.440012e-004
9.440017e-004
9.440020e-004
9.440023e-004
9.440024e-004
9.440025e-004
9.440024e-004
9.440022e-004
9.440018e-004
9.440013e-004
9.440007e-004
9.440000e-004
9.439993e-004
9.439987e-004
9.439982e-004
9.439978e-004
9.439977e-004
9.439977e-004
9.439980e-004
9.439983e-004
9.439988e-004
9.439993e-004
9.439997e-004
9.440000e-004
9.440003e-004
9.440005e-004
9.440005e-004
9.440004e-004
9.440002e-004
9.439999e-004
9.439994e-004
9.439987e-004
9.439979e-004
9.439967e-004
9.439954e-004
9.439939e-004
9.439923e-004
9.439906e-004
9.439891e-004
9.439877e-004
9.439867e-004
9.439862e-004
9.439861e-004
9.439866e-004
9.439876e-004
9.439889e-004
9.439905e-004
9.439921e-004
9.439935e-004
9.439946e-004
9.439952e-004
9.439953e-004
9.439949e-004
9.439942e-004
9.439933e-004
9.439923e-004
9.439915e-004
9.439909e-004
9.439906e-004
9.439906e-004
9.439909e-004
9.439913e-004
9.439917e-004
9.439921e-004
9.439924e-004
9.439926e-004
9.439927e-004
9.439907e-004
9.439904e-004
9.439900e-004
9.439896e-004
9.439894e-004
9.439898e-004
9.439907e-004
9.439921e-004
9.439938e-004
9.439954e-004
9.439966e-004
9.439972e-004
9.439970e-004
9.439958e-004
9.439940e-004
9.439916e-004
9.439891e-004
9.439868e-004
9.439850e-004
9.439838e-004
9.439835e-004
9.439839e-004
9.439850e-004
9.439866e-004
9.439885e-004
9.439906e-004
9.439927e-004
9.439946e-004
9.439963e-004
9.439978e-004
9.439990e-004
9.439999e-004
9.440007e-004
9.440012e-004
9.440017e-004
9.440020e-004
9.440023e-004
9.440024e-004
9.440025e-004
9.440024e-004
9.440022e-004
9.440018e-004
9.440013e-004
9.440007e-004
9.440000e-004
9.439993e-004
9.439987e-004
9.439982e-004
9.439978e-004
9.439977e-004
9.439977e-004
9.439980e-004
9.439983e-004
9.439988e-004
9.439993e-004
9.439997e-004
9.440000e-004
9.440003e-004
9.440005e-004
9.440005e-004
9.440004e-004
9.440002e-004
9.439999e-004
9.439994e-004
9.439987e-004
9.439979e-004
9.439967e-004
9.439954e-004
9.439939e-004
9.439923e-004
9.439906e-004
9.439891e-004
9.439877e-004
9.439867e-004
9.439862e-004
9.439861e-004
9.439866e-004
9.439876e-004
9.439889e-004
9.439905e-004
9.439921e-004
9.439935e-004
9.439946e-004
9.439952e-004
9.439953e-004
9.439949e-004
9.439942e-004
9.439933e-004
9.439923e-004
9.439915e-004
9.439909e-004
9.439906e-004
9.439906e-004
9.439909e-004
9.439913e-004
9.439917e-004
9.439921e-004
9.439924e-004
9.439926e-004
9.439927e-004
9.439902e-004
9.439901e-004
9.439900e-004
9.439900e-004
9.439903e-004
9.439909e-004
9.439918e-004
9.439929e-004
9.439941e-004
9.439950e-004
9.439955e-004
9.439954e-004
9.439946e-004
9.439933e-004
9.439917e-004
9.439899e-004
9.439883e-004
9.439872e-004
9.439865e-004
9.439865e-004
9.439870e-004
9.439881e-004
9.439894e-004
9.439910e-004
9.439926e-004
9.439941e-004
9.439954e-004
9.439965e-004
9.439974e-004
9.439982e-004
9.439987e-004
9.439991e-004
9.439994e-004
9.439996e-004
9.439998e-004
9.439999e-004
9.440000e-004
9.440000e-004
9.440000e-004
9.439998e-004
9.439996e-004
9.439993e-004
9.439988e-004
9.439983e-004
9.439977e-004
9.439971e-004
9.439966e-004
9.439962e-004
9.439960e-004
9.439960e-004
9.439961e-004
9.439964e-004
9.439968e-004
9.439973e-004
9.439977e-004
9.439981e-004
9.439985e-004
9.439987e-004
9.439988e-004
9.439989e-004
9.439988e-004
9.439987e-004
9.439986e-004
9.439984e-004
9.439981e-004
9.439977e-004
9.439972e-004
9.439965e-004
9.439956e-004
9.439946e-004
9.439934e-004
9.439922e-004
9.439910e-004
9.439899e-004
9.439890e-004
9.439885e-004
9.439883e-004
9.439885e-004
9.439890e-004
9.439899e-004
9.439909e-004
9.439920e-004
9.439930e-004
9.439937e-004
9.439941e-004
9.439942e-004
9.439939e-004
9.439934e-004
9.439927e-004
9.439920e-004
9.439915e-004
9.439911e-004
9.439910e-004
9.439910e-004
9.439913e-004
9.439916e-004
9.439920e-004
9.439923e-004
9.439925e-004
9.439926e-004
9.439894e-004
9.439897e-004
9.439902e-004
9.439909e-004
9.439918e-004
9.439927e-004
9.439935e-004
9.439941e-004
9.439943e-004
9.439940e-004
9.439932e-004
9.439920e-004
9.439907e-004
9.439893e-004
9.439883e-004
9.439878e-004
9.439879e-004
9.439886e-004
9.439899e-004
9.439915e-004
9.439933e-004
9.439950e-004
9.439965e-004
9.439976e-004
9.439982e-004
9.439985e-004
9.439985e-004
9.439982e-004
9.439977e-004
9.439972e-004
9.439967e-004
9.439962e-004
9.439957e-004
9.439954e-004
9.439951e-004
9.439949e-004
9.439947e-004
9.439945e-004
9.439944e-004
9.439942e-004
9.439939e-004
9.439936e-004
9.439933e-004
9.439930e-004
9.439926e-004
9.439924e-004
9.439922e-004
9.439921e-004
9.439921e-004
9.439922e-004
9.439925e-004
9.439928e-004
9.439933e-004
9.439937e-004
9.439941e-004
9.439944e-004
9.439947e-004
9.439949e-004
9.439950e-004
9.439950e-004
9.439951e-004
9.439951e-004
9.439953e-004
9.439955e-004
9.439958e-004
9.439962e-004
9.439966e-004
9.439969e-004
9.439972e-004
9.439973e-004
9.439971e-004
9.439967e-004
9.439960e-004
9.439950e-004
9.439938e-004
9.439926e-004
9.439914e-004
9.439904e-004
9.439897e-004
9.439894e-004
9.439894e-004
9.439898e-004
9.439905e-004
9.439913e-004
9.439921e-004
9.439928e-004
9.439932e-004
9.439933e-004
9.439932e-004
9.439928e-004
9.439924e-004
9.439919e-004
9.439916e-004
9.439914e-004
9.439914e-004
9.439915e-004
9.439918e-004
9.439920e-004
9.439923e-004
9.439924e-004
9.439890e-004
9.439896e-004
9.439907e-004
9.439921e-004
9.439935e-004
9.439946e-004
9.439951e-004
9.439949e-004
9.439939e-004
9.439922e-004
9.439901e-004
9.439881e-004
9.439865e-004
9.439857e-004
9.439859e-004
9.439871e-004
9.439893e-004
9.439921e-004
9.439951e-004
9.439980e-004
9.440004e-004
9.440020e-004
9.440028e-004
9.440026e-004
9.440018e-004
9.440003e-004
9.439985e-004
9.439966e-004
9.439946e-004
9.439929e-004
9.439913e-004
9.439900e-004
9.439889e-004
9.439880e-004
9.439873e-004
9.439868e-004
9.439863e-004
9.439860e-004
9.439857e-004
9.439854e-004
9.439853e-004
9.439852e-004
9.439851e-004
9.439852e-004
9.439853e-004
9.439855e-004
9.439857e-004
9.439860e-004
9.439864e-004
9.439867e-004
9.439871e-004
9.439874e-004
9.439877e-004
9.439880e-004
9.439882e-004
9.439884e-004
9.439885e-004
9.439886e-004
9.439887e-004
9.439887e-004
9.439888e-004
9.439890e-004
9.439894e-004
9.439899e-004
9.439908e-004
9.439918e-004
9.439932e-004
9.439947e-004
9.439962e-004
9.439976e-004
9.439989e-004
9.439997e-004
9.440000e-004
9.439997e-004
9.439988e-004
9.439974e-004
9.439956e-004
9.439936e-004
9.439916e-004
9.439899e-004
9.439887e-004
9.439881e-004
9.439881e-004
9.439887e-004
9.439897e-004
9.439909e-004
9.439920e-004
9.439929e-004
9.439935e-004
9.439936e-004
9.439934e-004
9.439929e-004
9.439924e-004
9.439919e-004
9.439916e-004
9.439915e-004
9.439916e-004
9.439918e-004
9.439920e-004
9.439921e-004
9.439895e-004
9.439904e-004
9.439919e-004
9.439936e-004
9.439952e-004
9.439960e-004
9.439958e-004
9.439945e-004
9.439923e-004
9.439895e-004
9.439868e-004
9.439847e-004
9.439838e-004
9.439842e-004
9.439862e-004
9.439894e-004
9.439933e-004
9.439975e-004
9.440012e-004
9.440040e-004
9.440056e-004
9.440058e-004
9.440047e-004
9.440026e-004
9.439997e-004
9.439965e-004
9.439931e-004
9.439900e-004
9.439872e-004
9.439848e-004
9.439828e-004
9.439812e-004
9.439799e-004
9.439789e-004
9.439781e-004
9.439774e-004
9.439769e-004
9.439764e-004
9.439762e-004
9.439760e-004
9.439761e-004
9.439763e-004
9.439768e-004
9.439774e-004
9.439781e-004
9.439789e-004
9.439797e-004
9.439804e-004
9.439810e-004
9.439814e-004
9.439817e-004
9.439817e-004
9.439817e-004
9.439816e-004
9.439814e-004
9.439813e-004
9.439812e-004
9.439812e-004
9.439811e-004
9.439812e-004
9.439812e-004
9.439814e-004
9.439818e-004
9.439824e-004
9.439834e-004
9.439847e-004
9.439865e-004
9.439886e-004
9.439910e-004
9.439937e-004
9.439962e-004
9.439986e-004
9.440004e-004
9.440015e-004
9.440018e-004
9.440011e-004
9.439996e-004
9.439975e-004
9.439949e-004
9.439922e-004
9.439899e-004
9.439881e-004
9.439871e-004
9.439870e-004
9.439876e-004
9.439889e-004
9.439904e-004
9.439919e-004
9.439931e-004
9.439938e-004
9.439940e-004
9.439938e-004
9.439932e-004
9.439926e-004
9.439920e-004
9.439916e-004
9.439915e-004
9.439916e-004
9.439917e-004
9.439918e-004
9.439913e-004
9.439922e-004
9.439936e-004
9.439951e-004
9.439961e-004
9.439961e-004
9.439949e-004
9.439926e-004
9.439896e-004
9.439865e-004
9.439842e-004
9.439832e-004
9.439839e-004
9.439863e-004
9.439902e-004
9.439948e-004
9.439995e-004
9.440034e-004
9.440060e-004
9.440069e-004
9.440060e-004
9.440036e-004
9.440000e-004
9.439956e-004
9.439911e-004
9.439868e-004
9.439830e-004
9.439799e-004
9.439774e-004
9.439755e-004
9.439742e-004
9.439732e-004
9.439725e-004
9.439719e-004
9.439714e-004
9.439710e-004
9.439706e-004
9.439705e-004
9.439705e-004
9.439707e-004
9.439712e-004
9.439719e-004
9.439729e-004
9.439741e-004
9.439755e-004
9.439768e-004
9.439780e-004
9.439790e-004
9.439796e-004
9.439799e-004
9.439797e-004
9.439792e-004
9.439786e-004
9.439778e-004
9.439770e-004
9.439763e-004
9.439758e-004
9.439755e-004
9.439754e-004
9.439753e-004
9.439753e-004
9.439754e-004
9.439755e-004
9.439758e-004
9.439763e-004
9.439771e-004
9.439784e-004
9.439802e-004
9.439826e-004
9.439856e-004
9.439889e-004
9.439924e-004
9.439957e-004
9.439986e-004
9.440008e-004
9.440019e-004
9.440019e-004
9.440008e-004
9.439987e-004
9.439960e-004
9.439931e-004
9.439903e-004
9.439882e-004
9.439869e-004
9.439867e-004
9.439873e-004
9.439887e-004
9.439903e-004
9.439920e-004
9.439933e-004
9.439941e-004
9.439942e-004
9.439939e-004
9.439933e-004
9.439926e-004
9.439920e-004
9.439916e-004
9.439914e-004
9.439914e-004
9.439914e-004
9.439942e-004
9.439948e-004
9.439955e-004
9.439961e-004
9.439959e-004
9.439947e-004
9.439924e-004
9.439894e-004
9.439864e-004
9.439842e-004
9.439834e-004
9.439846e-004
9.439876e-004
9.439920e-004
9.439971e-004
9.440019e-004
9.440055e-004
9.440072e-004
9.440068e-004
9.440041e-004
9.439998e-004
9.439944e-004
9.439886e-004
9.439831e-004
9.439784e-004
9.439748e-004
9.439724e-004
9.439710e-004
9.439705e-004
9.439705e-004
9.439709e-004
9.439714e-004
9.439718e-004
9.439722e-004
9.439724e-004
9.439726e-004
9.439729e-004
9.439732e-004
9.439737e-004
9.439744e-004
9.439753e-004
9.439765e-004
9.439780e-004
9.439796e-004
9.439812e-004
9.439828e-004
9.439840e-004
9.439849e-004
9.439853e-004
9.439851e-004
9.439843e-004
9.439831e-004
9.439816e-004
9.439800e-004
9.439784e-004
9.439771e-004
9.439761e-004
9.439755e-004
9.439752e-004
9.439750e-004
9.439750e-004
9.439748e-004
9.439746e-004
9.439742e-004
9.439737e-004
9.439734e-004
9.439732e-004
9.439736e-004
9.439746e-004
9.439764e-004
9.439791e-004
9.439826e-004
9.439866e-004
9.439909e-004
9.439950e-004
9.439984e-004
9.440008e-004
9.440019e-004
9.440016e-004
9.440000e-004
9.439975e-004
9.439945e-004
9.439915e-004
9.439890e-004
9.439874e-004
9.439869e-004
9.439873e-004
9.439886e-004
9.439903e-004
9.439920e-004
9.439933e-004
9.439941e-004
9.439942e-004
9.439939e-004
9.439933e-004
9.439925e-004
9.439919e-004
9.439914e-004
9.439911e-004
9.439910e-004
9.439976e-004
9.439976e-004
9.439972e-004
9.439963e-004
9.439945e-004
9.439919e-004
9.439888e-004
9.439859e-004
9.439839e-004
9.439836e-004
9.439854e-004
9.439892e-004
9.439944e-004
9.439999e-004
9.440048e-004
9.440078e-004
9.440082e-004
9.440059e-004
9.440011e-004
9.439946e-004
9.439873e-004
9.439802e-004
9.439742e-004
9.439698e-004
9.439674e-004
9.439668e-004
9.439678e-004
9.439698e-004
9.439724e-004
9.439751e-004
9.439777e-004
9.439799e-004
9.439817e-004
9.439831e-004
9.439842e-004
9.439852e-004
9.439860e-004
9.439869e-004
9.439878e-004
9.439888e-004
9.439899e-004
9.439912e-004
9.439926e-004
9.439939e-004
9.439952e-004
9.439963e-004
9.439971e-004
9.439974e-004
9.439972e-004
9.439965e-004
9.439952e-004
9.439935e-004
9.439914e-004
9.439893e-004
9.439873e-004
9.439856e-004
9.439843e-004
9.439834e-004
9.439830e-004
9.439829e-004
9.439828e-004
9.439827e-004
9.439821e-004
9.439812e-004
9.439797e-004
9.439779e-004
9.439758e-004
9.439738e-004
9.439722e-004
9.439714e-004
9.439717e-004
9.439733e-004
9.439763e-004
9.439804e-004
9.439853e-004
9.439905e-004
9.439953e-004
9.439991e-004
9.440016e-004
9.440023e-004
9.440015e-004
9.439993e-004
9.439962e-004
9.439929e-004
9.439900e-004
9.439880e-004
9.439871e-004
9.439873e-004
9.439884e-004
9.439901e-004
9.439918e-004
9.439932e-004
9.439940e-004
9.439942e-004
9.439939e-004
9.439932e-004
9.439923e-004
9.439916e-004
9.439910e-004
9.439907e-004
9.440007e-004
9.439999e-004
9.439980e-004
9.439953e-004
9.439919e-004
9.439883e-004
9.439851e-004
9.439832e-004
9.439833e-004
9.439858e-004
9.439904e-004
9.439964e-004
9.440025e-004
9.440074e-004
9.440098e-004
9.440089e-004
9.440047e-004
9.439977e-004
9.439890e-004
9.439800e-004
9.439720e-004
9.439662e-004
9.439631e-004
9.439628e-004
9.439652e-004
9.439694e-004
9.439749e-004
9.439807e-004
9.439863e-004
9.439912e-004
9.439953e-004
9.439986e-004
9.440010e-004
9.440029e-004
9.440044e-004
9.440056e-004
9.440066e-004
9.440075e-004
9.440083e-004
9.440090e-004
9.440096e-004
9.440101e-004
9.440104e-004
9.440106e-004
9.440106e-004
9.440105e-004
9.440102e-004
9.440097e-004
9.440090e-004
9.440080e-004
9.440068e-004
9.440054e-004
9.440039e-004
9.440022e-004
9.440007e-004
9.439993e-004
9.439983e-004
9.439977e-004
9.439975e-004
9.439977e-004
9.439979e-004
9.439980e-004
9.439977e-004
9.439968e-004
9.439949e-004
9.439921e-004
9.439885e-004
9.439842e-004
9.439796e-004
9.439753e-004
9.439719e-004
9.439698e-004
9.439696e-004
9.439713e-004
9.439749e-004
9.439800e-004
9.439860e-004
9.439920e-004
9.439973e-004
9.440011e-004
9.440030e-004
9.440028e-004
9.440009e-004
9.439978e-004
9.439942e-004
9.439908e-004
9.439883e-004
9.439871e-004
9.439871e-004
9.439882e-004
9.439899e-004
9.439917e-004
9.439932e-004
9.439941e-004
9.439942e-004
9.439937e-004
9.439929e-004
9.439919e-004
9.439911e-004
9.439906e-004
9.440026e-004
9.440009e-004
9.439976e-004
9.439933e-004
9.439887e-004
9.439848e-004
9.439825e-004
9.439826e-004
9.439855e-004
9.439908e-004
9.439975e-004
9.440043e-004
9.440093e-004
9.440112e-004
9.440091e-004
9.440032e-004
9.439941e-004
9.439836e-004
9.439734e-004
9.439651e-004
9.439602e-004
9.439593e-004
9.439622e-004
9.439682e-004
9.439765e-004
9.439856e-004
9.439947e-004
9.440028e-004
9.440094e-004
9.440145e-004
9.440181e-004
9.440205e-004
9.440221e-004
9.440231e-004
9.440238e-004
9.440242e-004
9.440244e-004
9.440244e-004
9.440241e-004
9.440235e-004
9.440225e-004
9.440211e-004
9.440195e-004
9.440177e-004
9.440157e-004
9.440139e-004
9.440122e-004
9.440109e-004
9.440100e-004
9.440096e-004
9.440096e-004
9.440098e-004
9.440102e-004
9.440106e-004
9.440109e-004
9.440112e-004
9.440115e-004
9.440119e-004
9.440125e-004
9.440133e-004
9.440143e-004
9.440153e-004
9.440159e-004
9.440159e-004
9.440149e-004
9.440126e-004
9.440089e-004
9.440037e-004
9.439973e-004
9.439902e-004
9.439829e-004
9.439764e-004
9.439713e-004
9.439685e-004
9.439683e-004
9.439708e-004
9.439756e-004
9.439820e-004
9.439889e-004
9.439954e-004
9.440004e-004
9.440033e-004
9.440038e-004
9.440021e-004
9.439989e-004
9.439950e-004
9.439912e-004
9.439884e-004
9.439869e-004
9.439869e-004
9.439881e-004
9.439900e-004
9.439919e-004
9.439934e-004
9.439941e-004
9.439940e-004
9.439933e-004
9.439923e-004
9.439913e-004
9.439908e-004
9.440025e-004
9.440001e-004
9.439957e-004
9.439905e-004
9.439856e-004
9.439825e-004
9.439820e-004
9.439848e-004
9.439904e-004
9.439978e-004
9.440051e-004
9.440104e-004
9.440120e-004
9.440089e-004
9.440014e-004
9.439906e-004
9.439786e-004
9.439676e-004
9.439598e-004
9.439565e-004
9.439585e-004
9.439652e-004
9.439756e-004
9.439879e-004
9.440005e-004
9.440119e-004
9.440212e-004
9.440279e-004
9.440320e-004
9.440339e-004
9.440342e-004
9.440334e-004
9.440321e-004
9.440306e-004
9.440290e-004
9.440275e-004
9.440258e-004
9.440239e-004
9.440216e-004
9.440189e-004
9.440159e-004
9.440125e-004
9.440088e-004
9.440051e-004
9.440014e-004
9.439981e-004
9.439954e-004
9.439937e-004
9.439931e-004
9.439938e-004
9.439957e-004
9.439985e-004
9.440020e-004
9.440056e-004
9.440090e-004
9.440120e-004
9.440145e-004
9.440167e-004
9.440187e-004
9.440206e-004
9.440227e-004
9.440248e-004
9.440270e-004
9.440290e-004
9.440302e-004
9.440304e-004
9.440291e-004
9.440257e-004
9.440203e-004
9.440127e-004
9.440036e-004
9.439937e-004
9.439840e-004
9.439757e-004
9.439699e-004
9.439672e-004
9.439680e-004
9.439720e-004
9.439784e-004
9.439860e-004
9.439934e-004
9.439995e-004
9.440032e-004
9.440042e-004
9.440028e-004
9.439995e-004
9.439953e-004
9.439912e-004
9.439882e-004
9.439868e-004
9.439869e-004
9.439883e-004
9.439903e-004
9.439922e-004
9.439935e-004
9.439940e-004
9.439936e-004
9.439927e-004
9.439918e-004
9.439912e-004
9.440001e-004
9.439974e-004
9.439927e-004
9.439875e-004
9.439835e-004
9.439820e-004
9.439841e-004
9.439896e-004
9.439972e-004
9.440050e-004
9.440107e-004
9.440122e-004
9.440085e-004
9.439998e-004
9.439876e-004
9.439743e-004
9.439628e-004
9.439558e-004
9.439547e-004
9.439601e-004
9.439710e-004
9.439857e-004
9.440018e-004
9.440170e-004
9.440294e-004
9.440380e-004
9.440424e-004
9.440429e-004
9.440404e-004
9.440358e-004
9.440302e-004
9.440244e-004
9.440189e-004
9.440139e-004
9.440096e-004
9.440057e-004
9.440022e-004
9.439989e-004
9.439958e-004
9.439928e-004
9.439901e-004
9.439874e-004
9.439848e-004
9.439821e-004
9.439793e-004
9.439765e-004
9.439740e-004
9.439721e-004
9.439712e-004
9.439717e-004
9.439738e-004
9.439772e-004
9.439818e-004
9.439870e-004
9.439922e-004
9.439971e-004
9.440013e-004
9.440050e-004
9.440081e-004
9.440111e-004
9.440141e-004
9.440174e-004
9.440213e-004
9.440256e-004
9.440301e-004
9.440344e-004
9.440376e-004
9.440392e-004
9.440383e-004
9.440344e-004
9.440273e-004
9.440175e-004
9.440057e-004
9.439933e-004
9.439819e-004
9.439729e-004
9.439675e-004
9.439664e-004
9.439693e-004
9.439754e-004
9.439833e-004
9.439915e-004
9.439985e-004
9.440029e-004
9.440044e-004
9.440030e-004
9.439996e-004
9.439952e-004
9.439911e-004
9.439881e-004
9.439868e-004
9.439872e-004
9.439887e-004
9.439907e-004
9.439924e-004
9.439934e-004
9.439936e-004
9.439931e-004
9.439924e-004
9.439919e-004
9.439958e-004
9.439932e-004
9.439890e-004
9.439849e-004
9.439828e-004
9.439840e-004
9.439887e-004
9.439962e-004
9.440042e-004
9.440104e-004
9.440122e-004
9.440083e-004
9.439988e-004
9.439854e-004
9.439711e-004
9.439593e-004
9.439530e-004
9.439542e-004
9.439630e-004
9.439781e-004
9.439968e-004
9.440160e-004
9.440326e-004
9.440444e-004
9.440501e-004
9.440497e-004
9.440441e-004
9.440345e-004
9.440228e-004
9.440103e-004
9.439984e-004
9.439879e-004
9.439792e-004
9.439725e-004
9.439679e-004
9.439654e-004
9.439653e-004
9.439676e-004
9.439726e-004
9.439801e-004
9.439898e-004
9.440008e-004
9.440120e-004
9.440220e-004
9.440295e-004
9.440335e-004
9.440336e-004
9.440300e-004
9.440233e-004
9.440150e-004
9.440061e-004
9.439979e-004
9.439911e-004
9.439861e-004
9.439829e-004
9.439812e-004
9.439806e-004
9.439809e-004
9.439819e-004
9.439836e-004
9.439860e-004
9.439894e-004
9.439940e-004
9.440000e-004
9.440074e-004
9.440158e-004
9.440247e-004
9.440331e-004
9.440399e-004
9.440437e-004
9.440435e-004
9.440388e-004
9.440297e-004
9.440172e-004
9.440029e-004
9.439887e-004
9.439767e-004
9.439686e-004
9.439654e-004
9.439671e-004
9.439729e-004
9.439812e-004
9.439900e-004
9.439976e-004
9.440026e-004
9.440044e-004
9.440030e-004
9.439995e-004
9.439950e-004
9.439908e-004
9.439880e-004
9.439870e-004
9.439875e-004
9.439891e-004
9.439910e-004
9.439924e-004
9.439932e-004
9.439932e-004
9.439930e-004
9.439927e-004
9.439900e-004
9.439881e-004
9.439853e-004
9.439835e-004
9.439841e-004
9.439881e-004
9.439950e-004
9.440031e-004
9.440097e-004
9.440121e-004
9.440085e-004
9.439987e-004
9.439845e-004
9.439692e-004
9.439570e-004
9.439513e-004
9.439544e-004
9.439663e-004
9.439851e-004
9.440074e-004
9.440288e-004
9.440456e-004
9.440552e-004
9.440561e-004
9.440489e-004
9.440350e-004
9.440167e-004
9.439965e-004
9.439766e-004
9.439588e-004
9.439443e-004
9.439340e-004
9.439289e-004
9.439298e-004
9.439380e-004
9.439549e-004
9.439820e-004
9.440206e-004
9.440709e-004
9.441320e-004
9.442013e-004
9.442746e-004
9.443462e-004
9.444099e-004
9.444595e-004
9.444899e-004
9.444981e-004
9.444836e-004
9.444483e-004
9.443964e-004
9.443335e-004
9.442657e-004
9.441987e-004
9.441369e-004
9.440835e-004
9.440399e-004
9.440063e-004
9.439820e-004
9.439656e-004
9.439554e-004
9.439503e-004
9.439490e-004
9.439510e-004
9.439560e-004
9.439638e-004
9.439744e-004
9.439874e-004
9.440021e-004
9.440171e-004
9.440308e-004
9.440412e-004
9.440466e-004
9.440460e-004
9.440392e-004
9.440271e-004
9.440116e-004
9.439952e-004
9.439806e-004
9.439700e-004
9.439650e-004
9.439656e-004
9.439711e-004
9.439797e-004
9.439891e-004
9.439973e-004
9.440026e-004
9.440043e-004
9.440029e-004
9.439991e-004
9.439946e-004
9.439905e-004
9.439879e-004
9.439871e-004
9.439878e-004
9.439894e-004
9.439911e-004
9.439925e-004
9.439932e-004
9.439935e-004
9.439935e-004
9.439837e-004
9.439830e-004
9.439824e-004
9.439834e-004
9.439871e-004
9.439937e-004
9.440017e-004
9.440087e-004
9.440119e-004
9.440091e-004
9.439996e-004
9.439851e-004
9.439690e-004
9.439561e-004
9.439504e-004
9.439547e-004
9.439690e-004
9.439910e-004
9.440161e-004
9.440391e-004
9.440553e-004
9.440615e-004
9.440564e-004
9.440410e-004
9.440178e-004
9.439903e-004
9.439619e-004
9.439357e-004
9.439144e-004
9.439000e-004
9.438948e-004
9.439016e-004
9.439242e-004
9.439680e-004
9.440392e-004
9.441447e-004
9.442907e-004
9.444809e-004
9.447151e-004
9.449879e-004
9.452876e-004
9.455968e-004
9.458934e-004
9.461536e-004
9.463543e-004
9.464767e-004
9.465090e-004
9.464483e-004
9.463010e-004
9.460818e-004
9.458112e-004
9.455131e-004
9.452105e-004
9.449239e-004
9.446681e-004
9.444524e-004
9.442799e-004
9.441491e-004
9.440551e-004
9.439914e-004
9.439508e-004
9.439269e-004
9.439149e-004
9.439112e-004
9.439137e-004
9.439214e-004
9.439340e-004
9.439508e-004
9.439711e-004
9.439930e-004
9.440144e-004
9.440324e-004
9.440447e-004
9.440493e-004
9.440458e-004
9.440349e-004
9.440189e-004
9.440008e-004
9.439839e-004
9.439713e-004
9.439647e-004
9.439647e-004
9.439701e-004
9.439790e-004
9.439889e-004
9.439974e-004
9.440027e-004
9.440043e-004
9.440025e-004
9.439986e-004
9.439939e-004
9.439900e-004
9.439877e-004
9.439871e-004
9.439880e-004
9.439897e-004
9.439915e-004
9.439929e-004
9.439939e-004
9.439943e-004
9.439778e-004
9.439785e-004
9.439806e-004
9.439848e-004
9.439915e-004
9.439997e-004
9.440075e-004
9.440118e-004
9.440101e-004
9.440015e-004
9.439871e-004
9.439705e-004
9.439565e-004
9.439501e-004
9.439546e-004
9.439704e-004
9.439947e-004
9.440222e-004
9.440465e-004
9.440618e-004
9.440641e-004
9.440525e-004
9.440286e-004
9.439961e-004
9.439599e-004
9.439249e-004
9.438954e-004
9.438754e-004
9.438690e-004
9.438815e-004
9.439210e-004
9.439998e-004
9.441350e-004
9.443482e-004
9.446645e-004
9.451087e-004
9.457012e-004
9.464523e-004
9.473571e-004
9.483914e-004
9.495098e-004
9.506481e-004
9.517281e-004
9.526659e-004
9.533828e-004
9.538147e-004
9.539219e-004
9.536944e-004
9.531536e-004
9.523491e-004
9.513518e-004
9.502439e-004
9.491084e-004
9.480193e-004
9.470340e-004
9.461894e-004
9.455020e-004
9.449701e-004
9.445789e-004
9.443055e-004
9.441241e-004
9.440100e-004
9.439422e-004
9.439046e-004
9.438863e-004
9.438807e-004
9.438843e-004
9.438956e-004
9.439139e-004
9.439379e-004
9.439657e-004
9.439942e-004
9.440200e-004
9.440394e-004
9.440497e-004
9.440499e-004
9.440407e-004
9.440245e-004
9.440051e-004
9.439864e-004
9.439722e-004
9.439646e-004
9.439642e-004
9.439698e-004
9.439792e-004
9.439894e-004
9.439980e-004
9.440031e-004
9.440042e-004
9.440019e-004
9.439976e-004
9.439929e-004
9.439892e-004
9.439872e-004
9.439871e-004
9.439884e-004
9.439904e-004
9.439924e-004
9.439940e-004
9.439949e-004
9.439730e-004
9.439753e-004
9.439801e-004
9.439874e-004
9.439965e-004
9.440053e-004
9.440113e-004
9.440115e-004
9.440044e-004
9.439907e-004
9.439736e-004
9.439583e-004
9.439504e-004
9.439539e-004
9.439700e-004
9.439958e-004
9.440252e-004
9.440508e-004
9.440655e-004
9.440645e-004
9.440467e-004
9.440147e-004
9.439737e-004
9.439302e-004
9.438909e-004
9.438623e-004
9.438505e-004
9.438637e-004
9.439144e-004
9.440235e-004
9.442237e-004
9.445630e-004
9.451054e-004
9.459289e-004
9.471185e-004
9.487553e-004
9.509002e-004
9.535772e-004
9.567569e-004
9.603458e-004
9.641835e-004
9.680508e-004
9.716883e-004
9.748237e-004
9.772036e-004
9.786256e-004
9.789648e-004
9.781908e-004
9.763719e-004
9.736659e-004
9.702996e-004
9.665386e-004
9.626550e-004
9.588955e-004
9.554577e-004
9.524754e-004
9.500152e-004
9.480834e-004
9.466389e-004
9.456106e-004
9.449142e-004
9.444655e-004
9.441903e-004
9.440294e-004
9.439393e-004
9.438914e-004
9.438685e-004
9.438618e-004
9.438672e-004
9.438831e-004
9.439081e-004
9.439396e-004
9.439740e-004
9.440067e-004
9.440327e-004
9.440486e-004
9.440524e-004
9.440447e-004
9.440284e-004
9.440078e-004
9.439878e-004
9.439725e-004
9.439644e-004
9.439641e-004
9.439702e-004
9.439801e-004
9.439907e-004
9.439990e-004
9.440036e-004
9.440039e-004
9.440009e-004
9.439962e-004
9.439915e-004
9.439882e-004
9.439869e-004
9.439874e-004
9.439894e-004
9.439918e-004
9.439939e-004
9.439951e-004
9.439696e-004
9.439735e-004
9.439809e-004
9.439908e-004
9.440014e-004
9.440096e-004
9.440126e-004
9.440080e-004
9.439958e-004
9.439787e-004
9.439618e-004
9.439514e-004
9.439526e-004
9.439675e-004
9.439936e-004
9.440248e-004
9.440521e-004
9.440672e-004
9.440641e-004
9.440415e-004
9.440025e-004
9.439540e-004
9.439046e-004
9.438635e-004
9.438399e-004
9.438442e-004
9.438921e-004
9.440110e-004
9.442485e-004
9.446831e-004
9.454342e-004
9.466693e-004
9.486037e-004
9.514899e-004
9.555928e-004
9.611512e-004
9.683288e-004
9.771632e-004
9.875215e-004
9.990745e-004
1.011296e-003
1.023496e-003
1.034876e-003
1.044618e-003
1.051968e-003
1.056335e-003
1.057354e-003
1.054940e-003
1.049294e-003
1.040880e-003
1.030367e-003
1.018548e-003
1.006247e-003
9.942266e-004
9.831160e-004
9.733614e-004
9.652087e-004
9.587159e-004
9.537874e-004
9.502228e-004
9.477678e-004
9.461587e-004
9.451552e-004
9.445590e-004
9.442202e-004
9.440344e-004
9.439349e-004
9.438828e-004
9.438583e-004
9.438526e-004
9.438621e-004
9.438848e-004
9.439178e-004
9.439564e-004
9.439947e-004
9.440266e-004
9.440471e-004
9.440539e-004
9.440473e-004
9.440306e-004
9.440090e-004
9.439879e-004
9.439720e-004
9.439641e-004
9.439645e-004
9.439715e-004
9.439820e-004
9.439925e-004
9.440003e-004
9.440039e-004
9.440032e-004
9.439994e-004
9.439944e-004
9.439900e-004
9.439874e-004
9.439871e-004
9.439886e-004
9.439911e-004
9.439935e-004
9.439950e-004
9.439678e-004
9.439731e-004
9.439827e-004
9.439946e-004
9.440056e-004
9.440122e-004
9.440113e-004
9.440019e-004
9.439856e-004
9.439674e-004
9.439538e-004
9.439512e-004
9.439631e-004
9.439883e-004
9.440205e-004
9.440502e-004
9.440672e-004
9.440642e-004
9.440387e-004
9.439944e-004
9.439395e-004
9.438853e-004
9.438439e-004
9.438287e-004
9.438568e-004
9.439571e-004
9.441836e-004
9.446351e-004
9.454811e-004
9.469904e-004
9.495572e-004
9.537152e-004
9.601269e-004
9.695398e-004
9.827026e-004
1.000246e-003
1.022544e-003
1.049576e-003
1.080823e-003
1.115219e-003
1.151177e-003
1.186695e-003
1.219533e-003
1.247432e-003
1.268359e-003
1.280728e-003
1.283579e-003
1.276687e-003
1.260589e-003
1.236524e-003
1.206293e-003
1.172054e-003
1.136090e-003
1.100569e-003
1.067334e-003
1.037761e-003
1.012685e-003
9.924045e-004
9.767605e-004
9.652559e-004
9.571965e-004
9.518230e-004
9.484161e-004
9.463624e-004
9.451841e-004
9.445378e-004
9.441950e-004
9.440158e-004
9.439213e-004
9.438721e-004
9.438507e-004
9.438506e-004
9.438687e-004
9.439013e-004
9.439427e-004
9.439855e-004
9.440221e-004
9.440462e-004
9.440549e-004
9.440485e-004
9.440311e-004
9.440083e-004
9.439866e-004
9.439708e-004
9.439638e-004
9.439654e-004