# vtk DataFile Version 3.0
vtk output
ASCII
DATASET STRUCTURED_POINTS
DIMENSIONS 100 100 1
SPACING 1 1 1
ORIGIN 0 0 0
POINT_DATA 10000
SCALARS SFBox_profile double
LOOKUP_TABLE default 
0.000000e+000
0.000000e+000
0.000000e+000
0.000000e+000
0.000000e+000
0.000000e+000
0.000000e+000
0.000000e+000
0.000000e+000
0.000000e+000
0.000000e+000
0.000000e+000
0.000000e+000
0.000000e+000
0.000000e+000
0.000000e+000
0.000000e+000
0.000000e+000
0.000000e+000
0.000000e+000
0.000000e+000
0.000000e+000
0.000000e+000
0.000000e+000
0.000000e+000
0.000000e+000
0.000000e+000
0.000000e+000
0.000000e+000
0.000000e+000
0.000000e+000
0.000000e+000
0.000000e+000
0.000000e+000
0.000000e+000
0.000000e+000
0.000000e+000
0.000000e+000
0.000000e+000
0.000000e+000
0.000000e+000
0.000000e+000
0.000000e+000
0.000000e+000
0.000000e+000
0.000000e+000
0.000000e+000
0.000000e+000
0.000000e+000
0.000000e+000
0.000000e+000
0.000000e+000
0.000000e+000
0.000000e+000
0.000000e+000
0.000000e+000
0.000000e+000
0.000000e+000
0.000000e+000
0.000000e+000
0.000000e+000
0.000000e+000
0.000000e+000
0.000000e+000
0.000000e+000
0.000000e+000
0.000000e+000
0.000000e+000
0.000000e+000
0.000000e+000
0.000000e+000
0.000000e+000
0.000000e+000
0.000000e+000
0.000000e+000
0.000000e+000
0.000000e+000
0.000000e+000
0.000000e+000
0.000000e+000
0.000000e+000
0.000000e+000
0.000000e+000
0.000000e+000
0.000000e+000
0.000000e+000
0.000000e+000
0.000000e+000
0.000000e+000
0.000000e+000
0.000000e+000
0.000000e+000
0.000000e+000
0.000000e+000
0.000000e+000
0.000000e+000
0.000000e+000
0.000000e+000
0.000000e+000
0.000000e+000
5.321640e-009
4.930515e-009
4.169755e-009
3.097602e-009
1.829759e-009
5.496916e-010
-5.065097e-010
-1.096882e-009
-1.043455e-009
-3.019573e-010
9.988724e-010
2.571711e-009
4.041281e-009
5.046496e-009
5.329141e-009
4.763200e-009
3.301588e-009
8.556346e-010
-2.840642e-009
-8.313932e-009
-1.633145e-008
-2.776925e-008
-4.341211e-008
-6.376196e-008
-8.893108e-008
-1.186602e-007
-1.524465e-007
-1.897202e-007
-2.299912e-007
-2.729079e-007
-3.182170e-007
-3.656623e-007
-4.148828e-007
-4.653703e-007
-5.165057e-007
-5.676554e-007
-6.182791e-007
-6.679977e-007
-7.165942e-007
-7.639567e-007
-8.100003e-007
-8.546099e-007
-8.976295e-007
-9.388950e-007
-9.782794e-007
-1.015719e-006
-1.051197e-006
-1.084695e-006
-1.116127e-006
-1.145311e-006
-1.171958e-006
-1.195710e-006
-1.216173e-006
-1.232938e-006
-1.245566e-006
-1.253560e-006
-1.256333e-006
-1.253211e-006
-1.243471e-006
-1.226410e-006
-1.201412e-006
-1.168017e-006
-1.125951e-006
-1.075163e-006
-1.015859e-006
-9.485562e-007
-8.741495e-007
-7.939511e-007
-7.096828e-007
-6.233937e-007
-5.373101e-007
-4.536481e-007
-3.744359e-007
-3.013814e-007
-2.358006e-007
-1.785957e-007
-1.302554e-007
-9.085650e-008
-6.006100e-008
-3.712910e-008
-2.097433e-008
-1.027827e-008
-3.655699e-009
1.665134e-010
2.207255e-009
3.166971e-009
3.453550e-009
3.275534e-009
2.756008e-009
2.018806e-009
1.218805e-009
5.186628e-010
3.968359e-011
-1.773417e-010
-1.766973e-010
-5.563829e-011
8.558350e-011
1.845883e-010
2.293208e-010
2.406214e-010
4.509290e-009
4.151790e-009
3.473989e-009
2.554225e-009
1.516200e-009
5.267570e-010
-2.205591e-010
-5.409643e-010
-3.099971e-010
4.819124e-010
1.692329e-009
3.026158e-009
4.077656e-009
4.401033e-009
3.577594e-009
1.242909e-009
-2.947529e-009
-9.405408e-009
-1.870890e-008
-3.165746e-008
-4.923637e-008
-7.248109e-008
-1.022777e-007
-1.391685e-007
-1.832353e-007
-2.341040e-007
-2.910610e-007
-3.532316e-007
-4.197436e-007
-4.898197e-007
-5.627779e-007
-6.379670e-007
-7.146910e-007
-7.921754e-007
-8.695983e-007
-9.461756e-007
-1.021255e-006
-1.094377e-006
-1.165268e-006
-1.233789e-006
-1.299844e-006
-1.363323e-006
-1.424082e-006
-1.481964e-006
-1.536844e-006
-1.588656e-006
-1.637379e-006
-1.682988e-006
-1.725399e-006
-1.764420e-006
-1.799747e-006
-1.830983e-006
-1.857667e-006
-1.879289e-006
-1.895277e-006
-1.904974e-006
-1.907614e-006
-1.902325e-006
-1.888173e-006
-1.864228e-006
-1.829639e-006
-1.783700e-006
-1.725899e-006
-1.655964e-006
-1.573930e-006
-1.480211e-006
-1.375702e-006
-1.261848e-006
-1.140671e-006
-1.014712e-006
-8.868995e-007
-7.603566e-007
-6.381849e-007
-5.232592e-007
-4.180540e-007
-3.245044e-007
-2.439000e-007
-1.768104e-007
-1.230569e-007
-8.175062e-008
-5.141308e-008
-3.017743e-008
-1.603884e-008
-7.102200e-009
-1.770190e-009
1.166689e-009
2.543653e-009
2.909446e-009
2.638759e-009
2.021517e-009
1.302847e-009
6.768582e-010
2.597939e-010
7.363724e-011
5.950432e-011
1.193780e-010
1.670379e-010
1.637039e-010
1.228399e-010
8.582805e-011
3.075538e-009
2.780112e-009
2.254623e-009
1.613345e-009
9.938469e-010
5.316877e-010
3.406157e-010
4.959633e-010
1.014054e-009
1.822332e-009
2.722810e-009
3.359834e-009
3.205274e-009
1.567098e-009
-2.385800e-009
-9.599945e-009
-2.113134e-008
-3.815928e-008
-6.200060e-008
-9.408925e-008
-1.358891e-007
-1.887309e-007
-2.536014e-007
-3.309427e-007
-4.205286e-007
-5.214636e-007
-6.323081e-007
-7.512865e-007
-8.765112e-007
-1.006156e-006
-1.138543e-006
-1.272152e-006
-1.405591e-006
-1.537565e-006
-1.666896e-006
-1.792565e-006
-1.913783e-006
-2.030024e-006
-2.141014e-006
-2.246662e-006
-2.346972e-006
-2.441961e-006
-2.531618e-006
-2.615909e-006
-2.694815e-006
-2.768349e-006
-2.836557e-006
-2.899475e-006
-2.957077e-006
-3.009222e-006
-3.055642e-006
-3.095945e-006
-3.129638e-006
-3.156133e-006
-3.174745e-006
-3.184671e-006
-3.184973e-006
-3.174587e-006
-3.152355e-006
-3.117072e-006
-3.067542e-006
-3.002626e-006
-2.921287e-006
-2.822643e-006
-2.706055e-006
-2.571260e-006
-2.418529e-006
-2.248849e-006
-2.064065e-006
-1.866966e-006
-1.661273e-006
-1.451521e-006
-1.242837e-006
-1.040609e-006
-8.500928e-007
-6.759660e-007
-5.219066e-007
-3.902523e-007
-2.818164e-007
-1.959053e-007
-1.305453e-007
-8.286878e-008
-4.957745e-008
-2.738034e-008
-1.332538e-008
-4.981591e-009
-4.769747e-010
1.565491e-009
2.135453e-009
1.935849e-009
1.450507e-009
9.798867e-010
6.639554e-010
5.132375e-010
4.575558e-010
4.056956e-010
2.978976e-010
1.328015e-010
-3.915788e-011
-1.488078e-010
1.334346e-009
1.126756e-009
8.098291e-010
5.387214e-010
4.630616e-010
6.721863e-010
1.168660e-009
1.870619e-009
2.623254e-009
3.191192e-009
3.211966e-009
2.111501e-009
-9.956882e-010
-7.387965e-009
-1.877091e-008
-3.725199e-008
-6.526014e-008
-1.054225e-007
-1.604071e-007
-2.327305e-007
-3.245294e-007
-4.373046e-007
-5.716701e-007
-7.271615e-007
-9.021627e-007
-1.093990e-006
-1.299134e-006
-1.513608e-006
-1.733332e-006
-1.954462e-006
-2.173613e-006
-2.387954e-006
-2.595200e-006
-2.793556e-006
-2.981660e-006
-3.158548e-006
-3.323649e-006
-3.476774e-006
-3.618082e-006
-3.747996e-006
-3.867091e-006
-3.975982e-006
-4.075240e-006
-4.165368e-006
-4.246805e-006
-4.319959e-006
-4.385207e-006
-4.442886e-006
-4.493255e-006
-4.536466e-006
-4.572553e-006
-4.601444e-006
-4.622983e-006
-4.636953e-006
-4.643079e-006
-4.641020e-006
-4.630350e-006
-4.610534e-006
-4.580905e-006
-4.540624e-006
-4.488617e-006
-4.423507e-006
-4.343538e-006
-4.246538e-006
-4.129954e-006
-3.990997e-006
-3.826911e-006
-3.635383e-006
-3.415038e-006
-3.165984e-006
-2.890309e-006
-2.592417e-006
-2.279087e-006
-1.959173e-006
-1.642904e-006
-1.340851e-006
-1.062724e-006
-8.162252e-007
-6.062254e-007
-4.344233e-007
-2.995504e-007
-1.980165e-007
-1.247923e-007
-7.430183e-008
-4.114426e-008
-2.056049e-008
-8.647308e-009
-2.382294e-009
4.597434e-010
1.431587e-009
1.541031e-009
1.369078e-009
1.181798e-009
1.039579e-009
9.000980e-010
7.037973e-010
4.292103e-010
1.113743e-010
-1.731439e-010
-3.414168e-010
-3.846489e-010
-4.689693e-010
-5.153331e-010
-3.432208e-010
1.893305e-010
1.101332e-009
2.250480e-009
3.343170e-009
3.960899e-009
3.552663e-009
1.351861e-009
-3.790021e-009
-1.361732e-008
-3.066305e-008
-5.834405e-008
-1.009006e-007
-1.631583e-007
-2.501263e-007
-3.664754e-007
-5.159562e-007
-7.008316e-007
-9.214070e-007
-1.175744e-006
-1.459620e-006
-1.766777e-006
-2.089419e-006
-2.418914e-006
-2.746562e-006
-3.064321e-006
-3.365365e-006
-3.644408e-006
-3.897775e-006
-4.123269e-006
-4.319911e-006
-4.487662e-006
-4.627190e-006
-4.739716e-006
-4.826917e-006
-4.890858e-006
-4.933881e-006
-4.958465e-006
-4.967059e-006
-4.961938e-006
-4.945115e-006
-4.918326e-006
-4.883064e-006
-4.840632e-006
-4.792196e-006
-4.738832e-006
-4.681575e-006
-4.621482e-006
-4.559711e-006
-4.497602e-006
-4.436745e-006
-4.379024e-006
-4.326618e-006
-4.281944e-006
-4.247542e-006
-4.225865e-006
-4.218970e-006
-4.228129e-006
-4.253341e-006
-4.292829e-006
-4.342568e-006
-4.395955e-006
-4.443713e-006
-4.474165e-006
-4.473962e-006
-4.429311e-006
-4.327644e-006
-4.159571e-006
-3.920782e-006
-3.613523e-006
-3.247212e-006
-2.837895e-006
-2.406472e-006
-1.975934e-006
-1.568159e-006
-1.200993e-006
-8.862685e-007
-6.291435e-007
-4.287275e-007
-2.796076e-007
-1.737225e-007
-1.020884e-007
-5.608209e-008
-2.820918e-008
-1.243634e-008
-4.222400e-009
-3.745883e-010
1.181670e-009
1.664999e-009
1.698247e-009
1.540960e-009
1.273632e-009
9.215692e-010
5.186108e-010
1.232463e-010
-1.934374e-010
-3.692564e-010
-1.836504e-009
-1.736143e-009
-1.417421e-009
-7.208930e-010
4.366742e-010
1.954889e-009
3.490604e-009
4.448051e-009
3.977028e-009
9.139008e-010
-6.389389e-009
-2.035706e-008
-4.454511e-008
-8.394436e-008
-1.450851e-007
-2.358093e-007
-3.646287e-007
-5.396697e-007
-7.673094e-007
-1.050716e-006
-1.388593e-006
-1.774434e-006
-2.196530e-006
-2.638784e-006
-3.082204e-006
-3.506800e-006
-3.893525e-006
-4.225950e-006
-4.491451e-006
-4.681792e-006
-4.793121e-006
-4.825467e-006
-4.781927e-006
-4.667741e-006
-4.489434e-006
-4.254169e-006
-3.969344e-006
-3.642399e-006
-3.280735e-006
-2.891634e-006
-2.482113e-006
-2.058719e-006
-1.627322e-006
-1.192976e-006
-7.599059e-007
-3.316028e-007
8.898454e-008
4.992188e-007
8.965160e-007
1.278074e-006
1.640596e-006
1.980013e-006
2.291243e-006
2.567979e-006
2.802571e-006
2.985991e-006
3.107968e-006
3.157295e-006
3.122400e-006
2.992163e-006
2.757031e-006
2.410366e-006
1.949994e-006
1.379823e-006
7.113553e-007
-3.515372e-008
-8.302214e-007
-1.635712e-006
-2.406775e-006
-3.095306e-006
-3.654830e-006
-4.046289e-006
-4.243848e-006
-4.239512e-006
-4.045326e-006
-3.692280e-006
-3.225754e-006
-2.698296e-006
-2.161345e-006
-1.657889e-006
-1.217746e-006
-8.562158e-007
-5.757821e-007
-3.696639e-007
-2.258602e-007
-1.306181e-007
-7.083728e-008
-3.540024e-008
-1.566889e-008
-5.437292e-009
-5.807920e-010
1.426608e-009
2.007171e-009
1.906244e-009
1.505445e-009
1.012679e-009
5.514846e-010
1.908730e-010
-4.391070e-011
-1.561622e-010
-2.908863e-009
-2.528439e-009
-1.705109e-009
-3.855148e-010
1.359061e-009
3.212810e-009
4.518267e-009
4.195807e-009
6.355024e-010
-8.503810e-009
-2.663731e-008
-5.872845e-008
-1.117922e-007
-1.952269e-007
-3.207007e-007
-5.013068e-007
-7.497778e-007
-1.075759e-006
-1.482471e-006
-1.963469e-006
-2.500453e-006
-3.063000e-006
-3.610632e-006
-4.096966e-006
-4.475058e-006
-4.702797e-006
-4.747270e-006
-4.587438e-006
-4.214939e-006
-3.633213e-006
-2.855422e-006
-1.901716e-006
-7.963809e-007
4.346766e-007
1.765865e-006
3.173135e-006
4.634558e-006
6.130409e-006
7.643004e-006
9.156502e-006
1.065683e-005
1.213176e-005
1.357104e-005
1.496642e-005
1.631155e-005
1.760162e-005
1.883287e-005
2.000203e-005
2.110558e-005
2.213920e-005
2.309704e-005
2.397119e-005
2.475111e-005
2.542329e-005
2.597090e-005
2.637376e-005
2.660843e-005
2.664864e-005
2.646612e-005
2.603191e-005
2.531808e-005
2.430012e-005
2.295984e-005
2.128886e-005
1.929256e-005
1.699419e-005
1.443862e-005
1.169478e-005
8.855864e-006
6.035987e-006
3.362546e-006
9.641922e-007
-1.044488e-006
-2.579103e-006
-3.598943e-006
-4.114215e-006
-4.184406e-006
-3.907265e-006
-3.400700e-006
-2.782150e-006
-2.150799e-006
-1.576791e-006
-1.098868e-006
-7.289266e-007
-4.602578e-007
-2.761621e-007
-1.567852e-007
-8.346530e-008
-4.086693e-008
-1.756171e-008
-5.703500e-009
-2.843688e-010
1.701724e-009
1.988588e-009
1.565084e-009
9.903831e-010
5.496689e-010
3.295131e-010
2.804511e-010
2.959957e-010
-3.593427e-009
-2.817268e-009
-1.331311e-009
6.862088e-010
2.857787e-009
4.480478e-009
4.355873e-009
5.552584e-010
-9.917798e-009
-3.160736e-008
-7.123447e-008
-1.383977e-007
-2.461250e-007
-4.108779e-007
-6.514372e-007
-9.860473e-007
-1.427419e-006
-1.975852e-006
-2.611771e-006
-3.289976e-006
-3.938194e-006
-4.461634e-006
-4.753413e-006
-4.708690e-006
-4.239125e-006
-3.284334e-006
-1.818149e-006
1.508720e-007
2.583838e-006
5.419108e-006
8.581197e-006
1.198931e-005
1.556431e-005
1.923363e-005
2.293400e-005
2.661243e-005
3.022600e-005
3.374081e-005
3.713070e-005
4.037593e-005
4.346222e-005
4.638002e-005
4.912392e-005
5.169209e-005
5.408554e-005
5.630721e-005
5.836099e-005
6.025070e-005
6.197917e-005
6.354745e-005
6.495409e-005
6.619463e-005
6.726111e-005
6.814184e-005
6.882104e-005
6.927858e-005
6.948955e-005
6.942391e-005
6.904599e-005
6.831416e-005
6.718060e-005
6.559165e-005
6.348919e-005
6.081380e-005
5.751067e-005
5.353880e-005
4.888377e-005
4.357296e-005
3.769079e-005
3.138980e-005
2.489248e-005
1.847929e-005
1.246121e-005
7.139166e-006
2.757941e-006
-5.346561e-007
-2.712166e-006
-3.869694e-006
-4.198753e-006
-3.943465e-006
-3.351102e-006
-2.630917e-006
-1.930956e-006
-1.334790e-006
-8.730817e-007
-5.416227e-007
-3.185580e-007
-1.769177e-007
-9.181849e-008
-4.350164e-008
-1.779015e-008
-5.265328e-009
-2.249000e-011
1.502614e-009
1.413649e-009
9.045062e-010
5.617854e-010
5.427392e-010
7.301734e-010
9.037661e-010
-3.893422e-009
-2.628941e-009
-3.852815e-010
2.265177e-009
4.420249e-009
4.702366e-009
9.484648e-010
-1.030835e-008
-3.458070e-008
-8.036496e-008
-1.601665e-007
-2.913434e-007
-4.962217e-007
-8.005470e-007
-1.228979e-006
-1.796374e-006
-2.494596e-006
-3.276815e-006
-4.044065e-006
-4.640598e-006
-4.863353e-006
-4.486609e-006
-3.297131e-006
-1.130937e-006
2.097871e-006
6.383044e-006
1.162878e-005
1.766633e-005
2.427933e-005
3.123165e-005
3.829250e-005
4.525531e-005
5.194871e-005
5.824042e-005
6.403580e-005
6.927355e-005
7.392047e-005
7.796632e-005
8.141924e-005
8.430161e-005
8.664648e-005
8.849433e-005
8.989019e-005
9.088099e-005
9.151329e-005
9.183145e-005
9.187656e-005
9.168620e-005
9.129497e-005
9.073567e-005
9.004093e-005
8.924511e-005
8.838615e-005
8.750721e-005
8.665736e-005
8.589111e-005
8.526615e-005
8.483893e-005
8.465765e-005
8.475228e-005
8.512181e-005
8.571929e-005
8.643643e-005
8.709096e-005
8.742131e-005
8.709407e-005
8.573004e-005
8.295183e-005
7.845126e-005
7.206683e-005
6.385353e-005
5.412297e-005
4.343424e-005
3.252675e-005
2.220285e-005
1.318539e-005
5.987928e-006
8.347278e-007
-2.349059e-006
-3.878604e-006
-4.204140e-006
-3.795316e-006
-3.049738e-006
-2.245757e-006
-1.539637e-006
-9.919100e-007
-6.034612e-007
-3.469558e-007
-1.876951e-007
-9.438371e-008
-4.296211e-008
-1.668472e-008
-4.665658e-009
-1.521549e-010
8.976629e-010
7.802442e-010
6.349174e-010
8.198644e-010
1.217462e-009
1.528328e-009
-3.716789e-009
-1.965968e-009
9.315685e-010
3.813328e-009
4.949444e-009
1.824362e-009
-9.431880e-009
-3.503195e-008
-8.490091e-008
-1.742498e-007
-3.249595e-007
-5.659875e-007
-9.313445e-007
-1.453322e-006
-2.148162e-006
-2.992477e-006
-3.892730e-006
-4.656625e-006
-4.981033e-006
-4.470921e-006
-2.695082e-006
7.300714e-007
6.050023e-006
1.330102e-005
2.227875e-005
3.255407e-005
4.353045e-005
5.452717e-005
6.486745e-005
7.395324e-005
8.131537e-005
8.663546e-005
8.974229e-005
9.059043e-005
8.923107e-005
8.578374e-005
8.041415e-005
7.331879e-005
6.471449e-005
5.483009e-005
4.389855e-005
3.214899e-005
1.979902e-005
7.048230e-006
-5.926070e-006
-1.897008e-005
-3.195128e-005
-4.475272e-005
-5.726467e-005
-6.937431e-005
-8.095457e-005
-9.185299e-005
-1.018813e-004
-1.108071e-004
-1.183482e-004
-1.241726e-004
-1.279027e-004
-1.291288e-004
-1.274307e-004
-1.224106e-004
-1.137385e-004
-1.012115e-004
-8.482289e-005
-6.483818e-005
-4.186586e-005
-1.690575e-005
8.647837e-006
3.307360e-005
5.448014e-005
7.105262e-005
8.135930e-005
8.465390e-005
8.108617e-005
7.173675e-005
5.843622e-005
4.340061e-005
2.877955e-005
1.624694e-005
6.756245e-006
5.119159e-007
-2.877010e-006
-4.139611e-006
-4.078040e-006
-3.372682e-006
-2.491414e-006
-1.690939e-006
-1.070472e-006
-6.369517e-007
-3.568188e-007
-1.873081e-007
-9.092928e-008
-3.974294e-008
-1.482196e-008
-4.134841e-009
-4.029299e-010
5.271783e-010
7.717536e-010
1.133848e-009
1.645496e-009
2.022148e-009
-2.825507e-009
-7.732876e-010
2.302028e-009
4.412702e-009
2.577433e-009
-7.587299e-009
-3.288321e-008
-8.423367e-008
-1.789098e-007
-3.427596e-007
-6.113327e-007
-1.027739e-006
-1.633458e-006
-2.446759e-006
-3.423997e-006
-4.405141e-006
-5.057890e-006
-4.849831e-006
-3.083757e-006
9.827368e-007
7.944851e-006
1.803166e-005
3.092767e-005
4.569541e-005
6.083315e-005
7.446624e-005
8.462229e-005
8.951520e-005
8.777258e-005
7.856613e-005
6.163462e-005
3.721627e-005
5.924077e-006
-3.139738e-005
-7.379982e-005
-1.203232e-004
-1.700473e-004
-2.221121e-004
-2.757220e-004
-3.301456e-004
-3.847195e-004
-4.388556e-004
-4.920483e-004
-5.438805e-004
-5.940222e-004
-6.422221e-004
-6.882904e-004
-7.320754e-004
-7.734354e-004
-8.122090e-004
-8.481854e-004
-8.810772e-004
-9.104964e-004
-9.359353e-004
-9.567525e-004
-9.721666e-004
-9.812581e-004
-9.829802e-004
-9.761827e-004
-9.596520e-004
-9.321742e-004
-8.926311e-004
-8.401372e-004
-7.742275e-004
-6.950940e-004
-6.038558e-004
-5.028151e-004
-3.956239e-004
-2.872564e-004
-1.836897e-004
-9.124218e-005
-1.561126e-005
3.922009e-005
7.191042e-005
8.414956e-005
8.025146e-005
6.603845e-005
4.744029e-005
2.927172e-005
1.454133e-005
4.413274e-006
-1.362492e-006
-3.824096e-006
-4.213407e-006
-3.585320e-006
-2.646807e-006
-1.771494e-006
-1.098138e-006
-6.369938e-007
-3.466238e-007
-1.760993e-007
-8.242853e-008
-3.465289e-008
-1.245410e-008
-3.354541e-009
-1.677367e-010
8.790767e-010
1.435915e-009
1.938473e-009
2.278669e-009
-9.019940e-010
9.949181e-010
3.215303e-009
2.645985e-009
-5.556298e-009
-2.876711e-008
-7.862455e-008
-1.737181e-007
-3.427556e-007
-6.268621e-007
-1.078102e-006
-1.748654e-006
-2.661726e-006
-3.754164e-006
-4.788123e-006
-5.251215e-006
-4.297655e-006
-8.065557e-007
6.379907e-006
1.803734e-005
3.404331e-005
5.292321e-005
7.163590e-005
8.575417e-005
9.007944e-005
7.952904e-005
5.005033e-005
-6.918014e-007
-7.304203e-005
-1.655119e-004
-2.752295e-004
-3.985024e-004
-5.313525e-004
-6.699368e-004
-8.108173e-004
-9.510840e-004
-1.088367e-003
-1.220788e-003
-1.346896e-003
-1.465614e-003
-1.576199e-003
-1.678212e-003
-1.771483e-003
-1.856073e-003
-1.932219e-003
-2.000282e-003
-2.060687e-003
-2.113878e-003
-2.160275e-003
-2.200248e-003
-2.234105e-003
-2.262085e-003
-2.284364e-003
-2.301061e-003
-2.312238e-003
-2.317893e-003
-2.317931e-003
-2.312103e-003
-2.299913e-003
-2.280470e-003
-2.252318e-003
-2.213236e-003
-2.160074e-003
-2.088710e-003
-1.994228e-003
-1.871498e-003
-1.716249e-003
-1.526647e-003
-1.305066e-003
-1.059460e-003
-8.035293e-004
-5.551433e-004
-3.331587e-004
-1.534607e-004
-2.535926e-005
5.055394e-005
8.204851e-005
8.221131e-005
6.524109e-005
4.295548e-005
2.295558e-005
8.624775e-006
2.716758e-007
-3.431816e-006
-4.254197e-006
-3.688707e-006
-2.700049e-006
-1.771934e-006
-1.071055e-006
-6.037220e-007
-3.183151e-007
-1.562223e-007
-7.037543e-008
-2.827415e-008
-9.455609e-009
-1.948854e-009
7.129124e-010
1.642016e-009
2.058492e-009
2.265805e-009
2.248116e-009
3.186908e-009
2.792432e-009
-3.592914e-009
-2.357217e-008
-6.918745e-008
-1.596862e-007
-3.253652e-007
-6.112087e-007
-1.076947e-006
-1.786302e-006
-2.772420e-006
-3.961819e-006
-5.045374e-006
-5.316130e-006
-3.554740e-006
1.892432e-006
1.268626e-005
2.965200e-005
5.163313e-005
7.437351e-005
8.992862e-005
8.719938e-005
5.379305e-005
-2.122155e-005
-1.444567e-004
-3.163785e-004
-5.311621e-004
-7.779048e-004
-1.042529e-003
-1.309878e-003
-1.565653e-003
-1.797884e-003
-1.997733e-003
-2.159623e-003
-2.280899e-003
-2.361286e-003
-2.402361e-003
-2.407093e-003
-2.379447e-003
-2.324015e-003
-2.245652e-003
-2.149143e-003
-2.038923e-003
-1.918898e-003
-1.792356e-003
-1.661981e-003
-1.529941e-003
-1.398028e-003
-1.267822e-003
-1.140872e-003
-1.018863e-003
-9.037647e-004
-7.979545e-004
-7.043015e-004
-6.262161e-004
-5.676524e-004
-5.330524e-004
-5.272135e-004
-5.550444e-004
-6.211565e-004
-7.292060e-004
-8.808749e-004
-1.074376e-003
-1.302434e-003
-1.549943e-003
-1.791986e-003
-1.993654e-003
-2.113753e-003
-2.113978e-003
-1.972512e-003
-1.696614e-003
-1.326032e-003
-9.224224e-004
-5.492106e-004
-2.531641e-004
-5.514780e-005
4.988060e-005
8.482706e-005
7.830194e-005
5.487737e-005
3.042009e-005
1.219303e-005
1.534520e-006
-3.163681e-006
-4.257277e-006
-3.688030e-006
-2.647398e-006
-1.692265e-006
-9.931802e-007
-5.424131e-007
-2.764531e-007
-1.306524e-007
-5.618796e-008
-2.100446e-008
-5.889796e-009
-1.754881e-010
1.607657e-009
1.999340e-009
2.029529e-009
6.397764e-009
5.177088e-009
-4.627027e-010
-1.734247e-008
-5.713601e-008
-1.389283e-007
-2.932972e-007
-5.670486e-007
-1.025336e-006
-1.743040e-006
-2.768883e-006
-4.035972e-006
-5.193091e-006
-5.366748e-006
-2.957704e-006
4.290289e-006
1.862290e-005
4.075684e-005
6.756335e-005
8.954130e-005
8.935391e-005
4.330080e-005
-7.342898e-005
-2.785416e-004
-5.742589e-004
-9.428804e-004
-1.347312e-003
-1.736238e-003
-2.054176e-003
-2.254066e-003
-2.307388e-003
-2.207923e-003
-1.968757e-003
-1.615197e-003
-1.177276e-003
-6.843698e-004
-1.624094e-004
3.670409e-004
8.868272e-004
1.383969e-003
1.849350e-003
2.277343e-003
2.665309e-003
3.013001e-003
3.321912e-003
3.594642e-003
3.834360e-003
4.044376e-003
4.227848e-003
4.387594e-003
4.526000e-003
4.644986e-003
4.746023e-003
4.830166e-003
4.898073e-003
4.949999e-003
4.985707e-003
5.004288e-003
5.003837e-003
4.980941e-003
4.929933e-003
4.841894e-003
4.703431e-003
4.495422e-003
4.192253e-003
3.762702e-003
3.174529e-003
2.405581e-003
1.463259e-003
4.089064e-004
-6.267405e-004
-1.460230e-003
-1.920128e-003
-1.938549e-003
-1.600342e-003
-1.093274e-003
-6.007630e-004
-2.323349e-004
-1.676106e-005
7.295015e-005
8.508164e-005
6.329880e-005
3.552458e-005
1.425308e-005
2.023435e-006
-3.153257e-006
-4.247291e-006
-3.583618e-006
-2.492796e-006
-1.542019e-006
-8.752827e-007
-4.618088e-007
-2.267001e-007
-1.023880e-007
-4.122207e-008
-1.356962e-008
-2.488488e-009
1.091884e-009
1.755636e-009
1.664737e-009
1.059995e-008
5.587283e-009
-8.914570e-009
-4.280471e-008
-1.136738e-007
-2.508016e-007
-5.005451e-007
-9.305243e-007
-1.624759e-006
-2.651546e-006
-3.970538e-006
-5.236154e-006
-5.484239e-006
-2.807039e-006
5.654985e-006
2.283485e-005
4.935084e-005
7.936262e-005
9.548342e-005
6.552596e-005
-5.394104e-005
-3.039564e-004
-7.000614e-004
-1.208201e-003
-1.731124e-003
-2.116100e-003
-2.201434e-003
-1.888819e-003
-1.188953e-003
-2.086685e-004
9.010695e-004
1.998493e-003
2.982807e-003
3.801042e-003
4.438495e-003
4.903992e-003
5.217533e-003
5.402636e-003
5.482577e-003
5.478860e-003
5.410680e-003
5.294712e-003
5.145026e-003
4.973099e-003
4.787963e-003
4.596464e-003
4.403624e-003
4.213051e-003
4.027358e-003
3.848544e-003
3.678340e-003
3.518491e-003
3.370982e-003
3.238229e-003
3.123210e-003
3.029579e-003
2.961738e-003
2.924900e-003
2.925111e-003
2.969229e-003
3.064769e-003
3.219492e-003
3.440473e-003
3.732211e-003
4.093101e-003
4.509343e-003
4.945434e-003
5.331398e-003
5.550150e-003
5.435416e-003
4.801662e-003
3.535092e-003
1.746750e-003
-1.219959e-004
-1.455691e-003
-1.892094e-003
-1.587265e-003
-9.859845e-004
-4.428064e-004
-9.943101e-005
5.396930e-005
8.711168e-005
6.755371e-005
3.737201e-005
1.429953e-005
1.581926e-006
-3.402576e-006
-4.201572e-006
-3.371228e-006
-2.248702e-006
-1.338733e-006
-7.322981e-007
-3.718462e-007
-1.746362e-007
-7.429503e-008
-2.711454e-008
-7.219142e-009
-2.829904e-010
1.275504e-009
1.262715e-009
1.300615e-008
2.116378e-009
-2.594552e-008
-8.545475e-008
-2.023658e-007
-4.199554e-007
-8.047076e-007
-1.445925e-006
-2.431645e-006
-3.764000e-006
-5.156008e-006
-5.663549e-006
-3.224857e-006
5.519331e-006
2.430085e-005
5.401558e-005
8.628019e-005
9.442423e-005
2.686776e-005
-1.859093e-004
-5.999537e-004
-1.198367e-003
-1.823483e-003
-2.149415e-003
-1.801294e-003
-6.383569e-004
1.083017e-003
2.873664e-003
4.311664e-003
5.201224e-003
5.547004e-003
5.458526e-003
5.072022e-003
4.508705e-003
3.860084e-003
3.188257e-003
2.532248e-003
1.915069e-003
1.349260e-003
8.405811e-004
3.902929e-004
-3.376772e-006
-3.442043e-004
-6.371670e-004
-8.878006e-004
-1.101703e-003
-1.284177e-003
-1.440013e-003
-1.573363e-003
-1.687716e-003
-1.785918e-003
-1.870226e-003
-1.942376e-003
-2.003643e-003
-2.054887e-003
-2.096564e-003
-2.128683e-003
-2.150696e-003
-2.161272e-003
-2.157916e-003
-2.136360e-003
-2.089630e-003
-2.006656e-003
-1.870328e-003
-1.655006e-003
-1.323920e-003
-8.279089e-004
-1.089193e-004
8.852655e-004
2.165360e-003
3.634575e-003
4.998360e-003
5.714468e-003
5.154207e-003
3.131201e-003
4.660465e-004
-1.406533e-003
-1.817475e-003
-1.300289e-003
-6.267536e-004
-1.678328e-004
3.979305e-005
8.727958e-005
6.762452e-005
3.566884e-005
1.232895e-005
3.594862e-007
-3.782530e-006
-4.065601e-006
-3.051023e-006
-1.936803e-006
-1.104915e-006
-5.802179e-007
-2.819114e-007
-1.252941e-007
-4.918845e-008
-1.566651e-008
-3.064349e-009
4.121040e-010
8.531809e-010
1.089526e-008
-8.427691e-009
-5.590393e-008
-1.519073e-007
-3.337400e-007
-6.626370e-007
-1.227634e-006
-2.131746e-006
-3.425324e-006
-4.920807e-006
-5.809562e-006
-4.089046e-006
3.866184e-006
2.260974e-005
5.402643e-005
8.874523e-005
9.222533e-005
-7.681254e-006
-3.108271e-004
-8.837751e-004
-1.626556e-003
-2.109786e-003
-1.614823e-003
2.306925e-004
2.780492e-003
4.837861e-003
5.674572e-003
5.326773e-003
4.234285e-003
2.856730e-003
1.508826e-003
3.516191e-004
-5.626596e-004
-1.243561e-003
-1.727777e-003
-2.058118e-003
-2.273263e-003
-2.404356e-003
-2.475071e-003
-2.502948e-003
-2.500887e-003
-2.478372e-003
-2.442378e-003
-2.398011e-003
-2.348974e-003
-2.297912e-003
-2.246689e-003
-2.196606e-003
-2.148574e-003
-2.103263e-003
-2.061215e-003
-2.022933e-003
-1.988959e-003
-1.959928e-003
-1.936617e-003
-1.919981e-003
-1.911195e-003
-1.911685e-003
-1.923160e-003
-1.947631e-003
-1.987409e-003
-2.045029e-003
-2.123034e-003
-2.223444e-003
-2.346604e-003
-2.488811e-003
-2.637706e-003
-2.763714e-003
-2.805371e-003
-2.647751e-003
-2.101993e-003
-9.212940e-004
1.062247e-003
3.591516e-003
5.591611e-003
5.481203e-003
2.834353e-003
-3.487949e-004
-1.767081e-003
-1.483518e-003
-7.328638e-004
-1.950633e-004
3.935547e-005
8.705311e-005
6.353653e-005
3.071099e-005
8.836567e-006
-1.249820e-006
-4.096697e-006
-3.788431e-006
-2.637916e-006
-1.586619e-006
-8.642900e-007
-4.336098e-007
-1.999190e-007
-8.291179e-008
-2.941687e-008
-7.981626e-009
-1.109026e-009
3.605523e-010
9.426784e-010
-2.985588e-008
-1.037952e-007
-2.494521e-007
-5.187209e-007
-9.938864e-007
-1.783905e-006
-2.980632e-006
-4.511352e-006
-5.787375e-006
-5.082549e-006
1.149539e-006
1.807932e-005
4.925570e-005
8.694413e-005
9.358608e-005
-1.920554e-005
-3.832575e-004
-1.079128e-003
-1.888365e-003
-1.975249e-003
-2.354863e-004
2.968898e-003
5.438054e-003
5.636377e-003
3.977058e-003
1.713919e-003
-2.338859e-004
-1.543815e-003
-2.264767e-003
-2.567960e-003
-2.616230e-003
-2.526011e-003
-2.370016e-003
-2.189962e-003
-2.008132e-003
-1.835475e-003
-1.676680e-003
-1.533167e-003
-1.404743e-003
-1.290486e-003
-1.189181e-003
-1.099534e-003
-1.020274e-003
-9.502028e-004
-8.882200e-004
-8.333427e-004
-7.847162e-004
-7.416206e-004
-7.034761e-004
-6.698446e-004
-6.404307e-004
-6.150825e-004
-5.937932e-004
-5.767069e-004
-5.641304e-004
-5.565544e-004
-5.546897e-004
-5.595219e-004
-5.723959e-004
-5.951401e-004
-6.302450e-004
-6.811158e-004
-7.524128e-004
-8.504877e-004
-9.838726e-004
-1.163648e-003
-1.403148e-003
-1.715537e-003
-2.105613e-003
-2.547763e-003
-2.935452e-003
-2.989296e-003
-2.170669e-003
1.263086e-004
3.607088e-003
5.942174e-003
4.502443e-003
6.378016e-004
-1.636755e-003
-1.540852e-003
-7.354538e-004
-1.704396e-004
5.285839e-005
8.512382e-005
5.533458e-005
2.338053e-005
4.671179e-006
-2.763005e-006
-4.173016e-006
-3.355542e-006
-2.165235e-006
-1.231275e-006
-6.382305e-007
-3.040301e-007
-1.316899e-007
-5.027960e-008
-1.592766e-008
-3.694535e-009
-4.115716e-010
-2.032059e-008
-6.612336e-008
-1.747301e-007
-3.852449e-007
-7.671088e-007
-1.424224e-006
-2.473414e-006
-3.943996e-006
-5.496142e-006