# vtk DataFile Version 3.0
vtk output
ASCII
DATASET STRUCTURED_POINTS
DIMENSIONS 100 100 1
SPACING 1 1 1
ORIGIN 0 0 0
POINT_DATA 10000
SCALARS SFBox_profile double
LOOKUP_TABLE default 
0.000000e+000
0.000000e+000
0.000000e+000
0.000000e+000
0.000000e+000
0.000000e+000
0.000000e+000
0.000000e+000
0.000000e+000
0.000000e+000
0.000000e+000
0.000000e+000
0.000000e+000
0.000000e+000
0.000000e+000
0.000000e+000
0.000000e+000
0.000000e+000
0.000000e+000
0.000000e+000
0.000000e+000
0.000000e+000
0.000000e+000
0.000000e+000
0.000000e+000
0.000000e+000
0.000000e+000
0.000000e+000
0.000000e+000
0.000000e+000
0.000000e+000
0.000000e+000
0.000000e+000
0.000000e+000
0.000000e+000
0.000000e+000
0.000000e+000
0.000000e+000
0.000000e+000
0.000000e+000
0.000000e+000
0.000000e+000
0.000000e+000
0.000000e+000
0.000000e+000
0.000000e+000
0.000000e+000
0.000000e+000
0.000000e+000
0.000000e+000
0.000000e+000
0.000000e+000
0.000000e+000
0.000000e+000
0.000000e+000
0.000000e+000
0.000000e+000
0.000000e+000
0.000000e+000
0.000000e+000
0.000000e+000
0.000000e+000
0.000000e+000
0.000000e+000
0.000000e+000
0.000000e+000
0.000000e+000
0.000000e+000
0.000000e+000
0.000000e+000
0.000000e+000
0.000000e+000
0.000000e+000
0.000000e+000
0.000000e+000
0.000000e+000
0.000000e+000
0.000000e+000
0.000000e+000
0.000000e+000
0.000000e+000
0.000000e+000
0.000000e+000
0.000000e+000
0.000000e+000
0.000000e+000
0.000000e+000
0.000000e+000
0.000000e+000
0.000000e+000
0.000000e+000
0.000000e+000
0.000000e+000
0.000000e+000
0.000000e+000
0.000000e+000
0.000000e+000
0.000000e+000
0.000000e+000
0.000000e+000
-7.331039e-009
-4.640033e-009
-8.752177e-010
1.851928e-009
2.367237e-009
1.122398e-009
-3.601106e-010
-8.092554e-010
-1.839696e-010
5.076523e-010
3.247647e-010
-6.413004e-010
-1.383191e-009
-1.032114e-009
2.326696e-010
1.346596e-009
1.411867e-009
5.446510e-010
-3.321672e-010
-4.750145e-010
-1.921988e-011
2.985664e-010
5.328993e-012
-6.286196e-010
-9.588609e-010
-6.889785e-010
-1.281554e-010
2.266744e-010
2.314248e-010
1.524885e-010
2.638819e-010
5.169884e-010
6.447351e-010
5.042656e-010
2.207769e-010
2.295262e-012
-9.800663e-011
-1.868905e-010
-3.503422e-010
-5.460030e-010
-6.829026e-010
-7.450273e-010
-7.891907e-010
-8.458397e-010
-8.776158e-010
-8.473027e-010
-7.850459e-010
-7.540216e-010
-7.654992e-010
-7.656881e-010
-7.125214e-010
-6.342746e-010
-5.893038e-010
-5.837944e-010
-5.605487e-010
-4.736661e-010
-3.488527e-010
-2.505619e-010
-2.009277e-010
-1.554932e-010
-6.349035e-011
6.697842e-011
1.786674e-010
2.315420e-010
2.414906e-010
2.501511e-010
2.711310e-010
2.782213e-010
2.415508e-010
1.622470e-010
6.882720e-011
-1.070771e-011
-6.644253e-011
-1.031638e-010
-1.304263e-010
-1.558823e-010
-1.778633e-010
-1.787107e-010
-1.333801e-010
-3.669844e-011
7.709563e-011
1.529662e-010
1.617354e-010
1.246317e-010
8.339148e-011
4.802021e-011
-1.224004e-011
-1.162860e-010
-2.172416e-010
-2.218794e-010
-8.071446e-011
1.402952e-010
2.903845e-010
2.525174e-010
4.531751e-011
-1.846986e-010
-2.747471e-010
-1.674131e-010
5.191108e-011
2.221470e-010
-1.937869e-009
-1.087455e-009
9.727560e-011
8.977537e-010
8.598619e-010
1.206085e-010
-6.769681e-010
-8.784798e-010
-3.518029e-010
4.128568e-010
7.566598e-010
4.527042e-010
-1.207833e-010
-3.972326e-010
-1.937660e-010
1.498634e-010
1.858900e-010
-1.431816e-010
-4.625136e-010
-3.994585e-010
7.015044e-012
3.692096e-010
3.856773e-010
1.438061e-010
-2.905503e-011
4.391139e-011
2.158924e-010
2.280505e-010
2.065219e-011
-2.205096e-010
-2.994292e-010
-2.195895e-010
-1.341434e-010
-1.380784e-010
-1.711856e-010
-1.248062e-010
1.322799e-011
1.575008e-010
2.417848e-010
2.872676e-010
3.475014e-010
4.259189e-010
4.797630e-010
4.895622e-010
4.866649e-010
5.035581e-010
5.253389e-010
5.137701e-010
4.669277e-010
4.267328e-010
4.224816e-010
4.297071e-010
4.023208e-010
3.345254e-010
2.687221e-010
2.395158e-010
2.290517e-010
1.917156e-010
1.138631e-010
3.093134e-011
-1.707685e-011
-3.212653e-011
-4.956968e-011
-9.053935e-011
-1.371189e-010
-1.569642e-010
-1.413299e-010
-1.103559e-010
-8.600434e-011
-7.026099e-011
-5.118048e-011
-2.146601e-011
1.504003e-011
5.037529e-011
7.760897e-011
8.930138e-011
7.941735e-011
5.198767e-011
2.302269e-011
6.117491e-012
-3.551044e-012
-2.307409e-011
-5.558199e-011
-7.641813e-011
-5.540798e-011
5.051316e-012
6.186183e-011
6.914455e-011
2.449825e-011
-2.755496e-011
-4.025239e-011
-9.744055e-012
2.607383e-011
2.978226e-011
3.046364e-013
-3.204205e-011
-3.875038e-011
-1.684773e-011
1.542576e-011
3.722948e-011
4.868562e-009
3.181415e-009
8.722134e-010
-7.789908e-010
-1.216848e-009
-8.398499e-010
-4.154096e-010
-3.181076e-010
-3.111567e-010
1.276184e-011
6.682108e-010
1.190947e-009
1.090342e-009
3.475341e-010
-5.479114e-010
-1.035167e-009
-9.409470e-010
-5.344518e-010
-1.923521e-010
-5.401886e-011
1.320387e-011
1.808171e-010
4.509035e-010
6.730537e-010
7.135780e-010
5.693263e-010
3.304110e-010
7.722234e-011
-1.632864e-010
-3.831132e-010
-5.543526e-010
-6.381287e-010
-6.172781e-010
-5.059904e-010
-3.320768e-010
-1.213464e-010
1.025415e-010
3.173976e-010
5.104892e-010
6.821481e-010
8.342346e-010
9.575168e-010
1.037653e-009
1.073173e-009
1.079569e-009
1.072351e-009
1.052587e-009
1.015313e-009
9.674224e-010
9.266369e-010
9.001935e-010
8.727378e-010
8.225389e-010
7.465584e-010
6.618935e-010
5.822619e-010
5.009488e-010
4.018258e-010
2.822925e-010
1.577311e-010
4.362685e-011
-5.914879e-011
-1.571875e-010
-2.476355e-010
-3.154743e-010
-3.478576e-010
-3.454939e-010
-3.171314e-010
-2.672999e-010
-1.952704e-010
-1.054573e-010
-1.256898e-011
6.757192e-011
1.299726e-010
1.789738e-010
2.149121e-010
2.264826e-010
1.993283e-010
1.311355e-010
3.634275e-011
-6.271153e-011
-1.460190e-010
-1.974296e-010
-2.017764e-010
-1.482717e-010
-4.160971e-011
8.960107e-011
1.974013e-010
2.324752e-010
1.680993e-010
2.037285e-011
-1.467524e-010
-2.437933e-010
-2.058525e-010
-4.459415e-011
1.421991e-010
2.278823e-010
1.501683e-010
-3.349736e-011
-1.828981e-010
8.267370e-009
4.962355e-009
5.090182e-010
-2.419611e-009
-2.575285e-009
-8.292739e-010
8.386900e-010
1.082022e-009
1.437976e-010
-6.904368e-010
-4.811262e-010
4.941083e-010
1.146295e-009
7.450654e-010
-3.579781e-010
-1.135624e-009
-9.342013e-010
-7.083483e-011
5.782091e-010
4.912823e-010
-5.011400e-011
-3.721668e-010
-1.506138e-010
3.183470e-010
5.250140e-010
3.032852e-010
-6.525590e-011
-2.278472e-010
-1.318946e-010
-3.216254e-013
-2.073674e-011
-1.463148e-010
-2.020123e-010
-1.118770e-010
3.236144e-011
1.033383e-010
7.876947e-011
3.355629e-011
3.050138e-011
5.833529e-011
7.192584e-011
5.714483e-011
3.667117e-011
2.812532e-011
2.173447e-011
2.337154e-012
-2.365049e-011
-3.500510e-011
-2.328703e-011
-2.110709e-012
1.203095e-011
1.933480e-011
3.166885e-011
5.271002e-011
7.109849e-011
7.503030e-011
6.814549e-011
6.556240e-011
7.465826e-011
8.444992e-011
7.704671e-011
4.819899e-011
1.316113e-011
-8.909210e-012
-1.432535e-011
-1.642488e-011
-2.815950e-011
-4.571105e-011
-5.155057e-011
-3.365778e-011
-9.026274e-014
2.683060e-011
3.122314e-011
1.871506e-011
1.098196e-011
2.455928e-011
5.357537e-011
7.288291e-011
5.980927e-011
1.529487e-011
-3.563841e-011
-6.578231e-011
-6.941693e-011
-6.318205e-011
-6.151414e-011
-5.287612e-011
-7.526410e-012
8.315918e-011
1.746440e-010
1.874034e-010
7.423252e-011
-1.192189e-010
-2.652967e-010
-2.450407e-010
-5.117723e-011
1.879909e-010
2.966574e-010
1.885922e-010
-5.857566e-011
-2.580191e-010
6.096839e-009
3.232942e-009
-5.572047e-010
-2.818492e-009
-2.355403e-009
-2.232051e-011
2.069659e-009
2.277965e-009
6.717091e-010
-1.215795e-009
-1.840709e-009
-9.674225e-010
3.176169e-010
8.003048e-010
3.016218e-010
-3.186822e-010
-2.088897e-010
5.492649e-010
1.096486e-009
7.813675e-010
-1.447947e-010
-8.485957e-010
-8.209373e-010
-3.421941e-010
-5.663382e-011
-2.241479e-010
-5.038033e-010
-4.316081e-010
3.442262e-011
5.157049e-010
6.746326e-010
5.490850e-010
4.134198e-010
4.141229e-010
4.367500e-010
3.067302e-010
2.021434e-011
-2.719626e-010
-4.564857e-010
-5.616541e-010
-6.717851e-010
-8.015529e-010
-8.944911e-010
-9.172588e-010
-9.045285e-010
-9.029769e-010
-9.075135e-010
-8.795253e-010
-8.122412e-010
-7.461749e-010
-7.148617e-010
-6.991808e-010
-6.531187e-010
-5.644661e-010
-4.689738e-010
-4.014442e-010
-3.499561e-010
-2.720514e-010
-1.500312e-010
-1.484627e-011
8.894666e-011
1.514944e-010
2.015656e-010
2.658237e-010
3.347064e-010
3.727401e-010
3.569308e-010
2.988114e-010
2.300554e-010
1.720849e-010
1.212364e-010
5.943458e-011
-2.382647e-011
-1.174490e-010
-1.922357e-010
-2.195983e-010
-1.930044e-010
-1.343209e-010
-7.552476e-011
-2.950536e-011
1.932519e-011
8.894233e-011
1.626067e-010
1.865246e-010
1.173818e-010
-2.265292e-011
-1.456384e-010
-1.654761e-010
-7.465769e-011
4.563161e-011
9.632333e-011
4.724722e-011
-4.093280e-011
-7.744398e-011
-2.533231e-011
6.796904e-011
1.163269e-010
7.151008e-011
-3.618538e-011
-1.239565e-010
-4.362469e-011
-4.510370e-010
-9.872881e-010
-1.175527e-009
-6.226178e-010
5.740755e-010
1.690106e-009
1.828603e-009
7.121751e-010
-9.344231e-010
-1.904597e-009
-1.544480e-009
-3.138486e-010
7.021113e-010
8.388016e-010
3.851942e-010
1.016376e-010
3.222915e-010
6.482045e-010
5.099527e-010
-1.187768e-010
-6.932170e-010
-7.395239e-010
-3.728443e-010
-9.917188e-011
-1.911124e-010
-4.027946e-010
-3.240296e-010
1.055504e-010
5.421649e-010
6.567310e-010
4.839677e-010
3.101330e-010
3.024240e-010
3.537794e-010
2.833918e-010
8.506253e-011
-8.683649e-011
-1.279869e-010
-9.503922e-011
-9.785618e-011
-1.498805e-010
-1.742003e-010
-1.273554e-010
-5.620015e-011
-2.258461e-011
-1.877125e-011
7.423913e-012
6.495356e-011
1.003659e-010
7.284483e-011
1.510022e-011
-5.458010e-012
2.795524e-011
6.380845e-011
5.282795e-011
1.206364e-011
1.626770e-012
4.905245e-011
1.186533e-010
1.590433e-010
1.635715e-010
1.703339e-010
2.094139e-010
2.657905e-010
2.978474e-010
2.818741e-010
2.303931e-010
1.722263e-010
1.246744e-010
8.557359e-011
4.330384e-011
-1.107385e-011
-7.625694e-011
-1.373828e-010
-1.713934e-010
-1.639769e-010
-1.246431e-010
-7.897795e-011
-3.993638e-011
8.798596e-012
8.981645e-011
1.884466e-010
2.418974e-010
1.867920e-010
2.503059e-011
-1.606081e-010
-2.631552e-010
-2.298681e-010
-9.287729e-011
6.567536e-011
1.712069e-010
1.885619e-010
1.216066e-010
4.275410e-012
-1.062179e-010
-1.483731e-010
-9.442143e-011
1.989465e-011
1.115510e-010
-6.361029e-009
-3.609371e-009
-1.027503e-010
1.889624e-009
1.648490e-009
2.847002e-010
-5.992755e-010
-4.152206e-010
1.701183e-010
2.644605e-010
-2.144106e-010
-5.820548e-010
-2.992146e-010
3.779871e-010
7.217150e-010
3.753135e-010
-2.823513e-010
-6.126967e-010
-4.118271e-010
-2.922098e-011
1.303385e-010
5.648963e-011
2.958621e-011
1.902825e-010
3.662052e-010
3.351818e-010
1.298402e-010
-1.839783e-011
9.868913e-012
8.329626e-011
1.937436e-011
-1.639702e-010
-2.732437e-010
-1.841871e-010
2.479613e-011
2.031415e-010
3.213078e-010
4.729084e-010
7.135333e-010
9.728972e-010
1.148673e-009
1.235073e-009
1.310711e-009
1.419624e-009
1.518262e-009
1.550853e-009
1.532885e-009
1.524269e-009
1.539182e-009
1.525842e-009
1.443273e-009
1.324025e-009
1.234600e-009
1.188693e-009
1.130757e-009
1.009408e-009
8.419497e-010
6.893443e-010
5.809807e-010
4.874364e-010
3.686340e-010
2.283531e-010
1.078576e-010
3.558740e-011
-1.244099e-013
-2.832624e-011
-6.033604e-011
-8.504672e-011
-8.991045e-011
-7.422388e-011
-4.301673e-011
7.386942e-014
4.813936e-011
8.686795e-011
1.043594e-010
1.035319e-010
9.644024e-011
8.483324e-011
5.525910e-011
9.877040e-013
-5.568460e-011
-7.465518e-011
-3.732797e-011
2.910601e-011
7.182124e-011
5.674550e-011
-7.313961e-012
-8.155344e-011
-1.240493e-010
-1.057235e-010
-1.908111e-011
1.071912e-010
2.014519e-010
1.821998e-010
2.866681e-011
-1.725492e-010
-2.711259e-010
-1.738213e-010
6.111266e-011
2.554392e-010
-9.270608e-009
-4.617960e-009
1.259559e-009
4.317190e-009
3.074880e-009
-5.171335e-010
-3.086757e-009
-2.758325e-009
-3.959792e-010
1.670236e-009
1.934927e-009
8.113918e-010
-2.443882e-010
-3.707599e-010
3.518594e-011
8.612384e-011
-4.743893e-010
-1.056404e-009
-9.927232e-010
-2.927335e-010
4.422255e-010
7.142969e-010
5.797505e-010
4.248783e-010
4.605079e-010
5.506614e-010
4.757907e-010
2.183487e-010
-5.971480e-011
-2.319040e-010
-3.052765e-010
-3.252619e-010
-2.762812e-010
-1.178464e-010
1.303598e-010
3.971634e-010
6.433437e-010
8.885681e-010
1.146921e-009
1.377527e-009
1.528603e-009
1.607884e-009
1.672291e-009
1.750365e-009
1.809348e-009
1.811708e-009
1.776343e-009
1.756177e-009
1.766474e-009
1.767168e-009
1.722527e-009
1.651898e-009
1.600952e-009
1.575876e-009
1.532170e-009
1.431255e-009
1.286697e-009
1.141353e-009
1.012055e-009
8.763012e-010
7.119972e-010
5.314303e-010
3.667235e-010
2.335216e-010
1.234724e-010
2.908010e-011
-3.994950e-011
-7.135438e-011
-7.065159e-011
-5.535821e-011
-3.186427e-011
1.022616e-011
7.699537e-011
1.519341e-010
2.066131e-010
2.265236e-010
2.182715e-010
1.908223e-010
1.386147e-010
5.066391e-011
-6.541649e-011
-1.744255e-010
-2.306923e-010
-2.046725e-010
-9.967371e-011
4.520688e-011
1.645905e-010
1.942417e-010
1.142128e-010
-2.228823e-011
-1.144623e-010
-9.268529e-011
1.381190e-011
9.430345e-011
5.841340e-011
-7.000222e-011
-1.658240e-010
-1.208829e-010
4.476547e-011
1.924967e-010
-6.992985e-009
-3.201316e-009
1.595032e-009
4.003561e-009
2.647405e-009
-8.776373e-010
-3.461537e-009
-3.092813e-009
-3.922066e-010
2.189143e-009
2.657442e-009
1.103625e-009
-7.279532e-010
-1.289306e-009
-5.749495e-010
2.433897e-010
2.524968e-010
-3.243845e-010
-6.156197e-010
-2.009663e-010
4.712880e-010
7.015123e-010
3.472288e-010
-1.049022e-010
-1.672522e-010
1.309289e-010
3.855775e-010
3.369906e-010
1.207264e-010
3.567074e-011
1.941786e-010
4.601457e-010
6.600213e-010
7.591093e-010
8.289975e-010
9.188213e-010
1.008097e-009
1.058868e-009
1.065081e-009
1.045617e-009
1.019214e-009
9.998578e-010
9.985225e-010
1.012681e-009
1.022567e-009
1.013150e-009
9.971379e-010
1.002960e-009
1.039617e-009
1.086293e-009
1.120970e-009
1.146927e-009
1.180831e-009
1.222881e-009
1.253744e-009
1.260989e-009
1.254188e-009
1.246661e-009
1.232373e-009
1.192904e-009
1.123705e-009
1.040194e-009
9.548320e-010
8.599858e-010
7.434041e-010
6.147770e-010
5.033383e-010
4.256735e-010
3.655208e-010
2.937979e-010
2.049612e-010
1.245581e-010
7.951961e-011
6.837787e-011
6.594418e-011
5.341304e-011
3.670303e-011
3.373210e-011
4.789279e-011
5.730198e-011
3.050061e-011
-4.468724e-011
-1.411921e-010
-1.985770e-010
-1.587178e-010
-1.436784e-011
1.663834e-010
2.718591e-010
2.249360e-010
4.876919e-011
-1.416067e-010
-2.240660e-010
-1.617390e-010
-2.332846e-011
8.322072e-011
9.973934e-011
5.033428e-011
-1.696819e-012
-1.949414e-011
-1.490300e-011
-1.836191e-010
-2.585948e-012
3.404412e-010
6.143371e-010
4.312375e-010
-2.960781e-010
-1.021463e-009
-9.530556e-010
6.960229e-011
1.197132e-009
1.296907e-009
1.417136e-010
-1.245548e-009
-1.568046e-009
-5.584680e-010
7.926900e-010
1.307872e-009
7.879192e-010
3.127303e-011
-1.823234e-010
9.263578e-011
2.197025e-010
-1.446094e-010
-6.499579e-010
-7.287428e-010
-2.777778e-010
2.788381e-010
5.351109e-010
5.389275e-010
6.359459e-010
1.001953e-009
1.455139e-009
1.709736e-009
1.695995e-009
1.574589e-009
1.503328e-009
1.479176e-009
1.409235e-009
1.262475e-009
1.104002e-009
1.006142e-009
9.737328e-010
9.627606e-010
9.410707e-010
9.115316e-010
8.895713e-010
8.801025e-010
8.794264e-010
8.874083e-010
9.093937e-010
9.479712e-010
9.970648e-010
1.045755e-009
1.088937e-009
1.134853e-009
1.199341e-009
1.288008e-009
1.383995e-009
1.458799e-009
1.498476e-009
1.514946e-009
1.525791e-009
1.525313e-009
1.484446e-009
1.383570e-009
1.239592e-009
1.092487e-009
9.647614e-010
8.406136e-010
6.886947e-010
5.017699e-010
3.088379e-010
1.485288e-010
3.513794e-011
-4.673135e-011
-1.161973e-010
-1.682173e-010
-1.733588e-010
-1.074547e-010
1.477798e-011
1.342672e-010
1.816642e-010
1.287799e-010
1.523457e-011
-7.683176e-011
-8.424793e-011
-1.088020e-011
7.787546e-011
1.080625e-010
5.234035e-011
-5.418803e-011
-1.420170e-010
-1.525360e-010
-7.190098e-011
6.005883e-011
1.680844e-010
1.824337e-010
8.515506e-011
-6.956540e-011
-1.844147e-010
8.021954e-009
3.694571e-009
-1.515105e-009
-3.821675e-009
-2.293787e-009
8.113623e-010
2.554758e-009
1.943696e-009
2.323496e-010
-8.908337e-010
-9.773415e-010
-7.234047e-010
-6.972492e-010
-6.399721e-010
-5.838221e-011
8.778673e-010
1.386250e-009
9.898714e-010
1.032959e-010
-4.474969e-010
-3.455622e-010
-2.205412e-011
-7.474742e-012
-2.734740e-010
-3.520140e-010
1.910364e-011
5.844743e-010
9.335748e-010
1.004166e-009
1.088960e-009
1.405410e-009
1.819316e-009
2.041413e-009
1.989363e-009
1.851309e-009
1.822806e-009
1.887491e-009
1.891533e-009
1.761399e-009
1.574151e-009
1.429628e-009
1.324737e-009
1.183074e-009
9.691473e-010
7.285657e-010
5.218475e-010
3.575302e-010
2.073492e-010
6.571602e-011
-3.267114e-011
-5.443961e-011
-7.339932e-012
7.281830e-011
1.676823e-010
2.959837e-010
4.845642e-010
7.268736e-010
9.776370e-010
1.189309e-009
1.349332e-009
1.478320e-009
1.593790e-009
1.681272e-009
1.704489e-009
1.642439e-009
1.512829e-009
1.357749e-009
1.207857e-009
1.061756e-009
8.989638e-010
7.104770e-010
5.152880e-010
3.468232e-010
2.230780e-010
1.306174e-010
4.069071e-011
-5.542429e-011
-1.271410e-010
-1.258726e-010
-3.262448e-011
1.123855e-010
2.295035e-010
2.537205e-010
1.757491e-010
3.903128e-011
-9.416971e-011
-1.731748e-010
-1.714959e-010
-9.364880e-011
1.782610e-011
9.395529e-011
8.420274e-011
5.954872e-012
-5.835958e-011
-3.386664e-011
6.634928e-011
1.413747e-010
9.781307e-011
-4.980667e-011
-1.811158e-010
1.290070e-008
6.002104e-009
-2.407588e-009
-6.236028e-009
-3.736694e-009
1.573842e-009
4.609716e-009
3.256605e-009
-4.036115e-010
-2.790068e-009
-2.313173e-009
-2.809319e-010
1.085232e-009
9.615941e-010
2.156685e-010
-8.108695e-011
1.239959e-010
1.747111e-010
-2.072920e-010
-5.575712e-010
-3.531216e-010
2.872382e-010
7.862219e-010
8.390599e-010
7.132775e-010
8.109262e-010
1.149438e-009
1.417718e-009
1.437369e-009
1.372274e-009
1.455161e-009
1.660066e-009
1.758717e-009
1.635713e-009
1.414185e-009
1.249954e-009
1.104199e-009
7.934949e-010
2.190602e-010
-5.379265e-010
-1.350063e-009
-2.196093e-009
-3.134580e-009
-4.165657e-009
-5.182439e-009
-6.066188e-009
-6.784634e-009
-7.369276e-009
-7.820984e-009
-8.077320e-009
-8.076408e-009
-7.824135e-009
-7.379969e-009
-6.789958e-009
-6.056566e-009
-5.176769e-009
-4.191781e-009
-3.184893e-009
-2.233137e-009
-1.370299e-009
-5.969186e-010
8.373085e-011
6.468064e-010
1.059614e-009
1.307844e-009
1.408398e-009
1.401339e-009
1.330275e-009
1.224769e-009
1.095589e-009
9.462430e-010
7.905128e-010
6.557624e-010
5.627305e-010
5.006439e-010
4.295069e-010
3.160651e-010
1.698103e-010
3.973388e-011
-2.665741e-011
-2.002026e-011
3.154773e-011
8.851047e-011
1.169769e-010
8.959477e-011
-5.170155e-012
-1.363959e-010
-2.227432e-010
-1.820964e-010
-1.342508e-011
1.745137e-010
2.404679e-010
1.365762e-010
-4.209915e-011
-1.441355e-010
-1.034988e-010
7.254120e-012
6.481594e-011
2.627994e-011
-3.778412e-011
1.054941e-008
5.090386e-009
-1.630448e-009
-4.769143e-009
-2.824662e-009
1.410715e-009
3.670085e-009
2.108187e-009
-1.329267e-009
-3.157921e-009
-1.816608e-009
1.085434e-009
2.713443e-009
1.861246e-009
-2.187461e-010
-1.508126e-009
-1.288518e-009
-4.212242e-010
3.435978e-011
-3.721205e-012
1.029828e-010
6.832502e-010
1.357003e-009
1.617485e-009
1.480548e-009
1.377676e-009
1.559154e-009
1.834378e-009
1.900663e-009
1.726184e-009
1.491001e-009
1.255979e-009
8.506892e-010
8.990278e-011
-1.031035e-009
-2.422850e-009
-4.101793e-009
-6.197581e-009
-8.769801e-009
-1.170153e-008
-1.480712e-008
-1.798687e-008
-2.121943e-008
-2.442935e-008
-2.743314e-008
-3.003849e-008
-3.215596e-008
-3.377969e-008
-3.488116e-008
-3.536770e-008
-3.515360e-008
-3.424123e-008
-3.271154e-008
-3.065247e-008
-2.812429e-008
-2.519479e-008
-2.198185e-008
-1.864261e-008
-1.532561e-008
-1.214271e-008
-9.180027e-009
-6.516032e-009
-4.218606e-009
-2.330158e-009
-8.624649e-010
1.987230e-010
8.926919e-010
1.284707e-009
1.454006e-009
1.470064e-009
1.380582e-009
1.224299e-009
1.047831e-009
8.973162e-010
7.897820e-010
7.009413e-010
5.898195e-010
4.358850e-010
2.513065e-010
6.561483e-011
-8.845766e-011
-1.750217e-010
-1.630769e-010
-5.861391e-011
7.052143e-011
1.264448e-010
6.363553e-011
-5.702158e-011
-1.135975e-010
-3.907279e-011
1.063642e-010
1.870993e-010
1.215954e-010
-4.009540e-011
-1.672259e-010
-1.712334e-010
-7.529193e-011
2.973904e-011
8.170065e-011
8.966645e-011
9.216951e-010
6.736181e-010
2.313023e-010
-1.309241e-010
-6.816915e-011
3.324232e-010
4.194439e-010
-3.099515e-010
-1.369096e-009
-1.524487e-009
-1.564180e-010
1.773652e-009
2.477992e-009
1.186625e-009
-9.656296e-010
-2.072458e-009
-1.370396e-009
1.692719e-010
1.086059e-009
9.558363e-010
5.298461e-010
6.088190e-010
1.157346e-009
1.592211e-009
1.631300e-009
1.562441e-009
1.730136e-009
2.033641e-009
2.052962e-009
1.514634e-009
4.483235e-010
-1.084187e-009
-3.235974e-009
-6.275728e-009
-1.033953e-008
-1.538118e-008
-2.132582e-008
-2.815523e-008
-3.580863e-008
-4.407636e-008
-5.265743e-008
-6.129584e-008
-6.980414e-008
-7.796290e-008
-8.546413e-008
-9.199107e-008
-9.732674e-008
-1.013514e-007
-1.039527e-007
-1.049861e-007
-1.043391e-007
-1.020093e-007
-9.810054e-008
-9.276211e-008
-8.615919e-008
-7.849896e-008
-7.005477e-008
-6.114335e-008
-5.208170e-008
-4.316904e-008
-3.468985e-008
-2.690065e-008
-1.999503e-008
-1.408328e-008
-9.207506e-009
-5.365885e-009
-2.511963e-009
-5.393467e-010
7.099282e-010
1.404808e-009
1.688835e-009
1.679581e-009
1.488776e-009
1.225337e-009
9.733275e-010
7.727893e-010
6.243715e-010
5.062921e-010
3.859605e-010
2.326540e-010
4.442720e-011
-1.285827e-010
-2.042496e-010
-1.360654e-010
3.033897e-011
1.777801e-010
2.083285e-010
1.207571e-010
5.677558e-013
-6.314203e-011
-5.009382e-011
-7.592402e-012
8.016816e-012
-1.785471e-011
-5.672027e-011
-7.160847e-011
-4.780666e-011
2.490946e-012
5.448388e-011
8.624373e-011
-1.103516e-008
-5.020052e-009
2.045894e-009
4.935062e-009
2.713802e-009
-1.230818e-009
-3.085375e-009
-2.005268e-009
1.088158e-010
1.277868e-009
1.206241e-009
6.860997e-010
1.861315e-010
-4.099686e-010
-1.009898e-009
-1.002815e-009
-2.516203e-011
1.322420e-009
1.950621e-009
1.464788e-009
5.853413e-010
2.995435e-010
8.146335e-010
1.521570e-009
1.832746e-009
1.753764e-009
1.573259e-009
1.231970e-009
2.087763e-010
-2.042515e-009
-5.754669e-009
-1.098680e-008
-1.793181e-008
-2.693340e-008
-3.822741e-008
-5.177489e-008
-6.735494e-008
-8.471654e-008
-1.035748e-007
-1.235157e-007
-1.439950e-007
-1.644462e-007
-1.843462e-007
-2.031710e-007
-2.203483e-007
-2.353063e-007
-2.475678e-007
-2.567746e-007
-2.626368e-007
-2.649078e-007
-2.634316e-007
-2.582028e-007
-2.493663e-007
-2.371775e-007
-2.219872e-007
-2.042595e-007
-1.845714e-007
-1.635725e-007
-1.419403e-007
-1.203624e-007
-9.952177e-008
-8.004354e-008
-6.241963e-008
-4.696974e-008
-3.386077e-008
-2.314273e-008
-1.475408e-008
-8.507966e-009
-4.107214e-009
-1.203063e-009
5.404843e-010
1.417766e-009
1.686091e-009
1.574200e-009
1.278605e-009
9.537486e-010
7.014066e-010
5.582411e-010
4.921271e-010
4.294479e-010
3.135697e-010
1.532180e-010
1.452658e-011
-3.858087e-011
1.158183e-012
8.298855e-011
1.404639e-010
1.322803e-010
5.616726e-011
-5.493528e-011
-1.439160e-010
-1.556448e-010
-7.771016e-011
3.805729e-011
1.090409e-010
9.205227e-011
2.102135e-011
-3.193765e-011
-3.187180e-011
-8.727726e-012
-1.796776e-008
-8.304265e-009
3.015763e-009
7.509255e-009
3.697013e-009
-2.640746e-009
-4.927532e-009
-1.914515e-009
2.346162e-009
3.544003e-009
1.268577e-009
-1.585405e-009
-2.436766e-009
-1.283935e-009
2.444665e-010
1.060595e-009
1.331017e-009
1.522458e-009
1.564877e-009
1.197355e-009
6.756794e-010
6.433780e-010
1.318079e-009
2.131295e-009
2.283791e-009
1.435128e-009
-3.476087e-010
-3.210212e-009
-7.841230e-009
-1.514996e-008
-2.579329e-008
-4.012315e-008
-5.846562e-008
-8.123699e-008
-1.087216e-007
-1.408197e-007
-1.770615e-007
-2.167932e-007
-2.592685e-007
-3.035899e-007
-3.486695e-007
-3.933152e-007
-4.363494e-007
-4.766458e-007
-5.131095e-007
-5.446979e-007
-5.704900e-007
-5.897347e-007
-6.018483e-007
-6.064094e-007
-6.031884e-007
-5.921803e-007
-5.736057e-007
-5.478983e-007
-5.157133e-007
-4.779437e-007
-4.356996e-007
-3.902470e-007
-3.429498e-007
-2.952358e-007
-2.485489e-007
-2.042475e-007
-1.634760e-007
-1.270783e-007
-9.558537e-008
-6.923748e-008
-4.799640e-008
-3.155202e-008
-1.936277e-008
-1.074438e-008
-4.976998e-009
-1.389128e-009
6.001814e-010
1.476198e-009
1.644060e-009
1.442173e-009
1.133242e-009
8.770980e-010
7.190304e-010
6.226734e-010
5.324695e-010
4.185825e-010
2.801147e-010
1.307294e-010
-2.467702e-012
-7.742566e-011
-6.446823e-011
9.297653e-012
5.948452e-011
1.727798e-011
-8.967493e-011
-1.492610e-010
-7.813855e-011
8.047773e-011
1.903916e-010
1.596466e-010
3.114897e-011
-7.355533e-011
-8.828723e-011
-5.773387e-011
-1.509109e-008
-6.740697e-009
2.843810e-009
6.218001e-009
2.368269e-009
-3.141443e-009
-4.306924e-009
-5.203359e-010
3.645526e-009
3.796303e-009
1.649449e-010
-3.258851e-009
-3.270275e-009
-4.488019e-010
2.172275e-009
2.566888e-009
1.331361e-009
2.821328e-010
3.159600e-010
9.708092e-010
1.554486e-009
1.983521e-009
2.395886e-009
2.405567e-009
1.111971e-009
-2.292211e-009
-8.279234e-009
-1.742912e-008
-3.088103e-008
-5.016041e-008
-7.661764e-008
-1.111411e-007
-1.543153e-007
-2.065914e-007
-2.681285e-007
-3.384936e-007
-4.165950e-007
-5.008924e-007
-5.896076e-007
-6.807625e-007
-7.721607e-007
-8.614769e-007
-9.464384e-007
-1.024953e-006
-1.095130e-006
-1.155277e-006
-1.203917e-006
-1.239836e-006
-1.262112e-006
-1.270117e-006
-1.263528e-006
-1.242333e-006
-1.206829e-006
-1.157645e-006
-1.095791e-006
-1.022691e-006
-9.401722e-007
-8.504019e-007
-7.558227e-007
-6.590938e-007
-5.629981e-007
-4.702756e-007
-3.834090e-007
-3.044344e-007
-2.348226e-007
-1.754266e-007
-1.264713e-007
-8.758441e-008
-5.788150e-008
-3.611257e-008
-2.084795e-008
-1.066481e-008
-4.286774e-009
-6.446605e-010
1.132464e-009
1.746416e-009
1.735318e-009
1.462534e-009
1.131572e-009
8.401630e-010
6.318493e-010
5.050571e-010
4.045512e-010
2.560922e-010
4.570909e-011
-1.411142e-010
-1.897721e-010
-8.118016e-011
6.929233e-011
1.188965e-010
4.221014e-011
-4.973342e-011
-4.091543e-011
5.750257e-011
1.258166e-010
7.941944e-011
-3.391536e-011
-9.520271e-011
-5.559311e-011
1.265884e-011
-3.655726e-009
-1.166237e-009
1.445129e-009
1.778406e-009
-1.945223e-010
-2.094210e-009
-1.630964e-009
8.818088e-010
2.755670e-009
1.827790e-009
-1.072519e-009
-2.907376e-009
-1.695384e-009
1.367043e-009
3.273897e-009
2.438578e-009
1.630722e-010
-1.048455e-009
-1.349582e-010
1.826231e-009
3.154039e-009
3.132723e-009
1.901453e-009
-7.417695e-010
-5.966913e-009
-1.546476e-008
-3.086619e-008
-5.384735e-008
-8.656833e-008
-1.316250e-007
-1.914186e-007
-2.675896e-007
-3.609471e-007
-4.716163e-007
-5.989570e-007
-7.412905e-007
-8.958356e-007
-1.059019e-006
-1.226903e-006
-1.395441e-006
-1.560568e-006
-1.718340e-006
-1.865158e-006
-1.997959e-006
-2.114250e-006
-2.212025e-006
-2.289680e-006
-2.345976e-006
-2.380022e-006
-2.391246e-006
-2.379353e-006
-2.344287e-006
-2.286236e-006
-2.205696e-006
-2.103593e-006
-1.981403e-006
-1.841237e-006
-1.685877e-006
-1.518786e-006
-1.344092e-006
-1.166480e-006
-9.909575e-007
-8.224999e-007
-6.656506e-007
-5.241415e-007
-4.006068e-007
-2.964242e-007
-2.116975e-007
-1.453744e-007
-9.548635e-008
-5.948595e-008
-3.462643e-008
-1.829030e-008
-8.188647e-009
-2.427515e-009
4.912910e-010
1.678981e-009
1.889714e-009
1.606134e-009
1.153555e-009
7.609687e-010
5.372257e-010
4.406805e-010
3.423357e-010
1.660487e-010
-2.852238e-011
-1.142020e-010
-4.328567e-011
9.271381e-011
1.571850e-010
1.060360e-010
1.431400e-011
-2.652671e-011
-1.110273e-011
-6.029907e-012
-4.994100e-011
-9.702063e-011
-7.256637e-011
2.916204e-011
1.244136e-010
9.995641e-009
4.921936e-009
-1.044153e-009
-3.639958e-009
-2.232122e-009
5.127318e-010
1.864321e-009
1.289359e-009
-7.970438e-011
-1.109305e-009
-1.316957e-009
-5.607330e-010
9.689832e-010
2.385969e-009
2.491013e-009
1.047664e-009
-5.841694e-010
-6.184306e-010
1.263136e-009
3.452418e-009
3.876628e-009
1.560998e-009
-3.519646e-009
-1.194885e-008
-2.591222e-008
-4.883782e-008
-8.446566e-008
-1.365243e-007
-2.089983e-007