# vtk DataFile Version 3.0
vtk output
ASCII
DATASET STRUCTURED_POINTS
DIMENSIONS 100 100 1
SPACING 1 1 1
ORIGIN 0 0 0
POINT_DATA 10000
SCALARS SFBox_profile double
LOOKUP_TABLE default 
0.000000e+000
0.000000e+000
0.000000e+000
0.000000e+000
0.000000e+000
0.000000e+000
0.000000e+000
0.000000e+000
0.000000e+000
0.000000e+000
0.000000e+000
0.000000e+000
0.000000e+000
0.000000e+000
0.000000e+000
0.000000e+000
0.000000e+000
0.000000e+000
0.000000e+000
0.000000e+000
0.000000e+000
0.000000e+000
0.000000e+000
0.000000e+000
0.000000e+000
0.000000e+000
0.000000e+000
0.000000e+000
0.000000e+000
0.000000e+000
0.000000e+000
0.000000e+000
0.000000e+000
0.000000e+000
0.000000e+000
0.000000e+000
0.000000e+000
0.000000e+000
0.000000e+000
0.000000e+000
0.000000e+000
0.000000e+000
0.000000e+000
0.000000e+000
0.000000e+000
0.000000e+000
0.000000e+000
0.000000e+000
0.000000e+000
0.000000e+000
0.000000e+000
0.000000e+000
0.000000e+000
0.000000e+000
0.000000e+000
0.000000e+000
0.000000e+000
0.000000e+000
0.000000e+000
0.000000e+000
0.000000e+000
0.000000e+000
0.000000e+000
0.000000e+000
0.000000e+000
0.000000e+000
0.000000e+000
0.000000e+000
0.000000e+000
0.000000e+000
0.000000e+000
0.000000e+000
0.000000e+000
0.000000e+000
0.000000e+000
0.000000e+000
0.000000e+000
0.000000e+000
0.000000e+000
0.000000e+000
0.000000e+000
0.000000e+000
0.000000e+000
0.000000e+000
0.000000e+000
0.000000e+000
0.000000e+000
0.000000e+000
0.000000e+000
0.000000e+000
0.000000e+000
0.000000e+000
0.000000e+000
0.000000e+000
0.000000e+000
0.000000e+000
0.000000e+000
0.000000e+000
0.000000e+000
0.000000e+000
3.989885e-009
1.462542e-009
-1.751565e-009
-3.566985e-009
-3.014084e-009
-7.244045e-010
1.691920e-009
2.822266e-009
2.301351e-009
8.002898e-010
-6.749079e-010
-1.517658e-009
-1.728680e-009
-1.579827e-009
-1.188243e-009
-4.451732e-010
6.873799e-010
1.896001e-009
2.605599e-009
2.392362e-009
1.327467e-009
-7.757663e-011
-1.261258e-009
-1.967139e-009
-2.269674e-009
-2.327360e-009
-2.164814e-009
-1.693564e-009
-8.937334e-010
7.933711e-011
9.825419e-010
1.658708e-009
2.110425e-009
2.419402e-009
2.624876e-009
2.693488e-009
2.588329e-009
2.336646e-009
2.018075e-009
1.698778e-009
1.392143e-009
1.081849e-009
7.673774e-010
4.762810e-010
2.373746e-010
5.507413e-011
-8.476597e-011
-1.906719e-010
-2.556329e-010
-2.703080e-010
-2.373839e-010
-1.669401e-010
-6.121155e-011
8.790374e-011
2.837158e-010
5.133035e-010
7.579051e-010
1.012680e-009
1.286418e-009
1.575526e-009
1.843971e-009
2.040259e-009
2.136961e-009
2.143121e-009
2.067581e-009
1.876625e-009
1.509011e-009
9.477259e-010
2.698724e-010
-3.930855e-010
-9.497174e-010
-1.387614e-009
-1.704198e-009
-1.814301e-009
-1.570409e-009
-9.127147e-010
3.964727e-013
8.429522e-010
1.333240e-009
1.405556e-009
1.174758e-009
7.544235e-010
1.562066e-010
-5.993537e-010
-1.297284e-009
-1.536403e-009
-1.020562e-009
1.020780e-010
1.207643e-009
1.587190e-009
9.800478e-010
-1.959999e-010
-1.131687e-009
-1.216542e-009
-4.714643e-010
5.009382e-010
9.871169e-010
6.828036e-010
-1.164567e-010
-7.674138e-010
4.419142e-010
1.016769e-010
-2.916155e-010
-4.251054e-010
-1.967851e-010
2.047735e-010
4.422018e-010
2.963337e-010
-1.455542e-010
-5.406145e-010
-5.559593e-010
-1.396058e-010
4.306726e-010
7.652931e-010
6.614086e-010
2.290590e-010
-2.445042e-010
-5.427206e-010
-6.462259e-010
-6.493073e-010
-5.940748e-010
-4.144761e-010
-4.040069e-011
4.706652e-010
9.318244e-010
1.162730e-009
1.121452e-009
9.027810e-010
6.222832e-010
3.185372e-010
-3.406307e-011
-4.413534e-010
-8.431449e-010
-1.153895e-009
-1.334724e-009
-1.413729e-009
-1.440290e-009
-1.432989e-009
-1.376885e-009
-1.261098e-009
-1.105010e-009
-9.446336e-010
-8.017144e-010
-6.737012e-010
-5.514573e-010
-4.382906e-010
-3.478889e-010
-2.885820e-010
-2.565564e-010
-2.451796e-010
-2.553414e-010
-2.924479e-010
-3.557779e-010
-4.366843e-010
-5.288720e-010
-6.354202e-010
-7.602439e-010
-8.937951e-010
-1.013713e-009
-1.103113e-009
-1.163483e-009
-1.202152e-009
-1.207156e-009
-1.144099e-009
-9.866922e-010
-7.483678e-010
-4.739886e-010
-1.968867e-010
8.608371e-011
3.845005e-010
6.613948e-010
8.282846e-010
8.107587e-010
6.204022e-010
3.500823e-010
9.193984e-011
-1.305891e-010
-3.378682e-010
-5.090193e-010
-5.503560e-010
-3.770482e-010
-3.117638e-011
3.022753e-010
4.249126e-010
2.876432e-010
2.877447e-011
-1.510875e-010
-1.562973e-010
-5.074114e-011
3.446057e-011
3.203088e-011
-1.951683e-011
-4.350313e-011
-1.271001e-011
3.417777e-011
4.796738e-011
2.271118e-011
-8.761692e-012
-1.976591e-011
-1.589944e-011
-3.480326e-009
-1.329048e-009
1.431706e-009
3.059978e-009
2.730501e-009
9.047759e-010
-1.179973e-009
-2.402506e-009
-2.357503e-009
-1.346873e-009
3.648432e-011
1.295350e-009
2.129458e-009
2.342749e-009
1.804119e-009
5.610851e-010
-1.037844e-009
-2.413303e-009
-3.033353e-009
-2.696793e-009
-1.600745e-009
-1.655461e-010
1.210990e-009
2.283151e-009
2.935296e-009
3.111910e-009
2.800222e-009
2.062377e-009
1.046424e-009
-6.109630e-011
-1.104156e-009
-1.990086e-009
-2.674400e-009
-3.133872e-009
-3.360589e-009
-3.371762e-009
-3.210161e-009
-2.927210e-009
-2.565290e-009
-2.155160e-009
-1.724331e-009
-1.301155e-009
-9.094197e-010
-5.623298e-010
-2.644286e-010
-1.842165e-011
1.716958e-010
3.031432e-010
3.766935e-010
3.947733e-010
3.584391e-010
2.677486e-010
1.243798e-010
-6.818730e-011
-3.071911e-010
-5.908513e-010
-9.139854e-010
-1.263892e-009
-1.622202e-009
-1.970061e-009
-2.288299e-009
-2.550789e-009
-2.720377e-009
-2.756227e-009
-2.627541e-009
-2.320055e-009
-1.832076e-009
-1.173456e-009
-3.789881e-010
4.743546e-010
1.270286e-009
1.882690e-009
2.208958e-009
2.183012e-009
1.776017e-009
1.014891e-009
2.212786e-011
-9.690228e-010
-1.674397e-009
-1.879795e-009
-1.540380e-009
-7.867108e-010
1.481437e-010
1.002453e-009
1.518833e-009
1.482876e-009
8.290417e-010
-2.284316e-010
-1.191849e-009
-1.512982e-009
-9.643013e-010
1.352999e-010
1.075548e-009
1.236033e-009
5.453037e-010
-4.541893e-010
-1.011447e-009
-7.387502e-010
9.824170e-011
8.022990e-010
-4.324287e-009
-1.496113e-009
2.018293e-009
3.852228e-009
3.027891e-009
4.389669e-010
-2.014710e-009
-2.861271e-009
-1.954231e-009
-2.710258e-010
1.035514e-009
1.463230e-009
1.254977e-009
8.786876e-010
5.133159e-010
1.969743e-011
-6.915414e-010
-1.376606e-009
-1.594213e-009
-1.113973e-009
-1.621442e-010
7.458495e-010
1.208780e-009
1.189611e-009
9.187063e-010
6.133495e-010
3.146650e-010
-3.983976e-011
-4.519163e-010
-8.095786e-010
-9.845796e-010
-9.485800e-010
-7.805183e-010
-5.769327e-010
-3.749581e-010
-1.590634e-010
8.147426e-011
3.209404e-010
5.192049e-010
6.594080e-010
7.557460e-010
8.298640e-010
8.886490e-010
9.259220e-010
9.386206e-010
9.350590e-010
9.278101e-010
9.228608e-010
9.180030e-010
9.100981e-010
9.008703e-010
8.944527e-010
8.906285e-010
8.827573e-010
8.633635e-010
8.304970e-010
7.860682e-010
7.271812e-010
6.420308e-010
5.187366e-010
3.590111e-010
1.789307e-010
-7.350741e-012
-2.008783e-010
-4.059344e-010
-6.013925e-010
-7.328154e-010
-7.466489e-010
-6.357359e-010
-4.413928e-010
-2.035368e-010
7.949603e-011
4.186708e-010
7.551235e-010
9.383514e-010
8.233584e-010
4.103742e-010
-1.237032e-010
-5.546212e-010
-7.744619e-010
-8.147261e-010
-7.140994e-010
-4.121173e-010
1.621884e-010
8.762431e-010
1.326172e-009
1.090301e-009
1.386336e-010
-9.991856e-010
-1.547173e-009
-1.079293e-009
1.009969e-010
1.151756e-009
1.327669e-009
5.491480e-010
-5.520775e-010
-1.136486e-009
-8.001945e-010
1.395978e-010
9.165867e-010
-1.434273e-009
-2.928687e-010
9.912686e-010
1.368323e-009
5.613412e-010
-7.310184e-010
-1.404940e-009
-8.517347e-010
5.312185e-010
1.644981e-009
1.571247e-009
3.046222e-010
-1.268140e-009
-2.094345e-009
-1.741129e-009
-5.927227e-010
6.133372e-010
1.398139e-009
1.744781e-009
1.822120e-009
1.637249e-009
1.018546e-009
-9.497156e-011
-1.429768e-009
-2.495860e-009
-2.932042e-009
-2.727573e-009
-2.127126e-009
-1.364986e-009
-5.147219e-010
4.361552e-010
1.432827e-009
2.317707e-009
2.938583e-009
3.260104e-009
3.357356e-009
3.318293e-009
3.172495e-009
2.909414e-009
2.539254e-009
2.115620e-009
1.701305e-009
1.326846e-009
9.887981e-010
6.803226e-010
4.126743e-010
2.062867e-010
6.970402e-011
-5.204612e-012
-2.836524e-011
1.775215e-012
9.341230e-011
2.466505e-010
4.494632e-010
6.900231e-010
9.681075e-010
1.287562e-009
1.636333e-009
1.980110e-009
2.281726e-009
2.523994e-009
2.703446e-009
2.797215e-009
2.746676e-009
2.491250e-009
2.024756e-009
1.408111e-009
7.163019e-010
-1.736448e-011
-7.805056e-010
-1.497260e-009
-1.991387e-009
-2.077613e-009
-1.713659e-009
-1.051019e-009
-3.163619e-010
3.514488e-010
9.235004e-010
1.345289e-009
1.437829e-009
1.015556e-009
1.424262e-010
-7.667163e-010
-1.185468e-009
-8.897003e-010
-1.586763e-010
4.505292e-010
5.602092e-010
2.428800e-010
-1.199488e-010
-2.168506e-010
-5.144239e-011
1.400769e-010
1.576997e-010
8.707210e-012
-1.494100e-010
-1.826379e-010
-8.346939e-011
6.124226e-011
1.581205e-010
2.598790e-009
1.102771e-009
-8.664657e-010
-2.161773e-009
-2.206074e-009
-1.170516e-009
3.323122e-010
1.652399e-009
2.304990e-009
2.010562e-009
7.700326e-010
-1.004078e-009
-2.520994e-009
-2.976217e-009
-2.068813e-009
-2.442757e-010
1.588831e-009
2.654707e-009
2.724672e-009
2.056452e-009
1.027849e-009
-1.279372e-010
-1.282774e-009
-2.240975e-009
-2.720930e-009
-2.543130e-009
-1.802487e-009
-8.137894e-010
1.204999e-010
8.817104e-010
1.497811e-009
1.988923e-009
2.290733e-009
2.324557e-009
2.102950e-009
1.736552e-009
1.341593e-009
9.601621e-010
5.730621e-010
1.691999e-010
-2.183276e-010
-5.421887e-010
-7.876522e-010
-9.780077e-010
-1.139629e-009
-1.274100e-009
-1.367063e-009
-1.414611e-009
-1.430969e-009
-1.430666e-009
-1.411650e-009
-1.361427e-009
-1.275940e-009
-1.164145e-009
-1.031447e-009
-8.653690e-010
-6.462582e-010
-3.724461e-010
-6.640893e-011
2.500405e-010
5.802845e-010
9.389841e-010
1.308613e-009
1.621026e-009
1.797376e-009
1.806754e-009
1.671007e-009
1.405109e-009
9.722942e-010
3.305144e-010
-4.645045e-010
-1.223764e-009
-1.723092e-009
-1.846474e-009
-1.623400e-009
-1.131507e-009
-4.050127e-010
5.127027e-010
1.426998e-009
1.968775e-009
1.802380e-009
9.127437e-010
-3.098554e-010
-1.295981e-009
-1.645104e-009
-1.308823e-009
-5.174236e-010
3.959217e-010
1.098398e-009
1.298512e-009
8.507506e-010
-7.469761e-011
-9.578142e-010
-1.206021e-009
-6.142294e-010
3.938244e-010
1.038345e-009
8.107757e-010
-7.871289e-011
-8.598799e-010
4.372907e-009
1.402365e-009
-2.161025e-009
-3.812149e-009
-2.731702e-009
-1.126257e-010
2.042678e-009
2.492110e-009
1.427283e-009
-6.586101e-011
-1.035579e-009
-1.236517e-009
-9.426112e-010
-4.515740e-010
1.321122e-010
7.284759e-010
1.093229e-009
9.310361e-010
2.047876e-010
-7.337016e-010
-1.372353e-009
-1.408689e-009
-9.070066e-010
-1.431290e-010
6.424496e-010
1.331246e-009
1.842105e-009
2.057304e-009
1.877419e-009
1.326169e-009
5.584950e-010
-2.480536e-010
-9.972694e-010
-1.671009e-009
-2.252656e-009
-2.687022e-009
-2.920559e-009
-2.958802e-009
-2.864459e-009
-2.701178e-009
-2.492070e-009
-2.234387e-009
-1.939652e-009
-1.645219e-009
-1.387968e-009
-1.178731e-009
-1.008734e-009
-8.748490e-010
-7.892778e-010
-7.643895e-010
-7.968747e-010
-8.734959e-010
-9.889794e-010
-1.149489e-009
-1.355529e-009
-1.587997e-009
-1.818580e-009
-2.031999e-009
-2.227956e-009
-2.395663e-009
-2.493856e-009
-2.468848e-009
-2.295484e-009
-1.991088e-009
-1.582753e-009
-1.071915e-009
-4.518856e-010
2.329097e-010
8.619225e-010
1.294801e-009
1.457790e-009
1.366101e-009
1.066029e-009
5.859588e-010
-2.545476e-011
-6.226387e-010
-9.763801e-010
-9.162014e-010
-4.763613e-010
1.111600e-010
5.754898e-010
7.559135e-010
6.170480e-010
1.904736e-010
-4.156984e-010
-9.416934e-010
-1.015344e-009
-4.184116e-010
6.061691e-010
1.371914e-009
1.227415e-009
1.525087e-010
-1.098565e-009
-1.541122e-009
-7.865208e-010
5.781244e-010
1.440397e-009
1.092882e-009
-1.575010e-010
-1.242823e-009
2.611039e-009
4.269776e-010
-1.925458e-009
-2.443091e-009
-7.945646e-010
1.501095e-009
2.440390e-009
1.232765e-009
-1.100332e-009
-2.658606e-009
-2.245626e-009
-2.375337e-010
1.894263e-009
2.829180e-009
2.273958e-009
8.514128e-010
-6.391780e-010
-1.777213e-009
-2.484247e-009
-2.687761e-009
-2.203441e-009
-9.658364e-010
7.268147e-010
2.294149e-009
3.228116e-009
3.370149e-009
2.879212e-009
2.000405e-009
9.027065e-010
-3.009353e-010
-1.467662e-009
-2.423688e-009
-3.049065e-009
-3.334522e-009
-3.345767e-009
-3.149196e-009
-2.783689e-009
-2.287648e-009
-1.722657e-009
-1.155845e-009
-6.269197e-010
-1.434741e-010
2.940308e-010
6.734652e-010
9.793661e-010
1.210434e-009
1.379445e-009
1.496854e-009
1.561415e-009
1.568582e-009
1.521529e-009
1.427759e-009
1.287068e-009
1.090063e-009
8.309005e-010
5.161407e-010
1.562437e-010
-2.477152e-010
-6.995851e-010
-1.187085e-009
-1.671320e-009
-2.103194e-009
-2.445901e-009
-2.671551e-009
-2.736374e-009
-2.576091e-009
-2.143961e-009
-1.456310e-009
-5.929170e-010
3.443756e-010
1.254262e-009
2.007740e-009
2.425019e-009
2.336180e-009
1.706633e-009
7.036534e-010
-3.811381e-010
-1.280490e-009
-1.819424e-009
-1.869952e-009
-1.334020e-009
-2.732852e-010
9.309153e-010
1.657734e-009
1.449726e-009
4.351069e-010
-6.736125e-010
-1.104307e-009
-6.492407e-010
1.843623e-010
6.473272e-010
4.073152e-010
-2.080589e-010
-5.721911e-010
-3.497998e-010
2.292642e-010
6.206481e-010
4.683229e-010
-9.526226e-011
-5.844978e-010
-1.021562e-009
-8.092120e-010
-2.644882e-010
6.291562e-010
1.544107e-009
1.845787e-009
1.021416e-009
-7.600643e-010
-2.493824e-009
-2.918189e-009
-1.499556e-009
1.007367e-009
3.010595e-009
3.251362e-009
1.714422e-009
-4.835652e-010
-2.050948e-009
-2.419599e-009
-1.864500e-009
-9.540179e-010
-1.958435e-011
8.757579e-010
1.635515e-009
1.982791e-009
1.667176e-009
7.532509e-010
-3.690810e-010
-1.269782e-009
-1.753270e-009
-1.872158e-009
-1.742459e-009
-1.404014e-009
-8.506089e-010
-1.324347e-010
6.216621e-010
1.282337e-009
1.794982e-009
2.173520e-009
2.442686e-009
2.605347e-009
2.658957e-009
2.621289e-009
2.527885e-009
2.409973e-009
2.283367e-009
2.156653e-009
2.041193e-009
1.949676e-009
1.889666e-009
1.863014e-009
1.869728e-009
1.908359e-009
1.973192e-009
2.054941e-009
2.144869e-009
2.234181e-009
2.307167e-009
2.338978e-009
2.305214e-009
2.192227e-009
1.992514e-009
1.691543e-009
1.271424e-009
7.384947e-010
1.440387e-010
-4.340667e-010
-9.316109e-010
-1.306855e-009
-1.503811e-009
-1.431392e-009
-1.022004e-009
-3.327652e-010
4.306090e-010
1.023850e-009
1.306677e-009
1.265230e-009
9.109483e-010
2.277357e-010
-7.084496e-010
-1.568223e-009
-1.840213e-009
-1.202621e-009
1.130542e-010
1.370078e-009
1.829920e-009
1.291339e-009
1.900187e-010
-7.904702e-010
-1.200054e-009
-9.977339e-010
-4.049269e-010
2.892458e-010
7.944585e-010
8.547540e-010
3.947026e-010
-3.221345e-010
-7.822552e-010
-6.118667e-010
5.847913e-011
6.547501e-010
-3.647419e-009
-1.159479e-009
1.755796e-009
3.031813e-009
2.140902e-009
1.591378e-010
-1.409449e-009
-1.796367e-009
-1.190784e-009
-1.877618e-010
7.368881e-010
1.282786e-009
1.187772e-009
3.369822e-010
-9.385357e-010
-1.853806e-009
-1.682618e-009
-3.821812e-010
1.307241e-009
2.425368e-009
2.483327e-009
1.660351e-009
4.421214e-010
-8.175363e-010
-1.979391e-009
-2.908195e-009
-3.347013e-009
-3.067732e-009
-2.102069e-009
-7.594391e-010
5.946498e-010
1.756745e-009
2.698237e-009
3.426120e-009
3.889328e-009
4.022704e-009
3.838149e-009
3.436874e-009
2.935080e-009
2.396300e-009
1.835610e-009
1.266655e-009
7.255864e-010
2.524137e-010
-1.354782e-010
-4.443225e-010
-6.844998e-010
-8.563642e-010
-9.531583e-010
-9.714219e-010
-9.155493e-010
-7.933512e-010
-6.083849e-010
-3.567745e-010
-3.291482e-011
3.595662e-010
8.031203e-010
1.275287e-009
1.761073e-009
2.248325e-009
2.704391e-009
3.062824e-009
3.246747e-009
3.210907e-009
2.952165e-009
2.473207e-009
1.754125e-009
7.932417e-010
-3.098668e-010
-1.335863e-009
-2.047421e-009
-2.323099e-009
-2.180600e-009
-1.677458e-009
-8.432509e-010
2.331498e-010
1.262710e-009
1.800312e-009
1.540958e-009
6.163624e-010
-4.344226e-010
-1.040085e-009
-9.787854e-010
-4.355439e-010
2.341279e-010
7.299246e-010
8.458597e-010
4.621496e-010
-3.278499e-010
-1.077927e-009
-1.164224e-009
-3.208875e-010
9.398406e-010
1.586369e-009
9.528053e-010
-5.420521e-010
-1.634796e-009
-1.325555e-009
1.564334e-010
1.500686e-009
-3.581778e-009
-4.339109e-010
2.797228e-009
3.251050e-009
7.632062e-010
-2.243480e-009
-3.117511e-009
-1.273690e-009
1.566101e-009
3.104995e-009
2.377946e-009
2.012470e-010
-1.866670e-009
-2.792489e-009
-2.469411e-009
-1.291277e-009
3.191134e-010
1.947727e-009
3.048224e-009
3.082135e-009
1.923580e-009
6.229481e-011
-1.690315e-009
-2.733404e-009
-2.945994e-009
-2.523399e-009
-1.674036e-009
-5.248225e-010
7.578546e-010
1.891513e-009
2.596366e-009
2.775781e-009
2.543731e-009
2.079234e-009
1.483715e-009
7.803301e-010
6.553815e-012
-7.412487e-010
-1.361583e-009
-1.820078e-009
-2.151786e-009
-2.402242e-009
-2.583082e-009
-2.683905e-009
-2.709387e-009
-2.690870e-009
-2.663709e-009
-2.642663e-009
-2.622484e-009
-2.597319e-009
-2.573473e-009
-2.561929e-009
-2.561186e-009
-2.551253e-009
-2.506904e-009
-2.415610e-009
-2.277689e-009
-2.085961e-009
-1.810921e-009
-1.417679e-009
-9.031761e-010
-3.096543e-010
3.070702e-010
9.154628e-010
1.494791e-009
1.977217e-009
2.226523e-009
2.109944e-009
1.605187e-009
8.237411e-010
-7.697112e-011
-9.776869e-010
-1.764422e-009
-2.235494e-009
-2.126670e-009
-1.314408e-009
-1.368346e-011
1.268809e-009
2.025762e-009
2.022784e-009
1.335144e-009
2.180734e-010
-9.692408e-010
-1.756587e-009
-1.686654e-009
-6.705183e-010
7.293686e-010
1.539324e-009
1.134324e-009
-1.331419e-010
-1.140597e-009
-9.849741e-010
1.486416e-010
1.130162e-009
9.671175e-010
-2.118756e-010
-1.260442e-009
-1.129751e-009
9.420519e-011
1.258849e-009
-1.293311e-009
5.407408e-010
2.071340e-009
1.452923e-009
-1.002336e-009
-3.063991e-009
-2.668860e-009
1.158685e-010
3.081990e-009
3.813253e-009
1.759259e-009
-1.408779e-009
-3.344636e-009
-2.936348e-009
-9.053636e-010
1.156123e-009
2.142692e-009
1.960594e-009
1.088085e-009
-3.897031e-011
-1.163849e-009
-1.991546e-009
-2.134830e-009
-1.389882e-009
5.914903e-012
1.485150e-009
2.533885e-009
2.955002e-009
2.808447e-009
2.203644e-009
1.215993e-009
-3.650142e-011
-1.335791e-009
-2.443346e-009
-3.229474e-009
-3.701947e-009
-3.919186e-009
-3.907195e-009
-3.667885e-009
-3.237711e-009
-2.703512e-009
-2.154546e-009
-1.633728e-009
-1.143132e-009
-6.860361e-010
-2.896115e-010
1.331267e-011
2.126359e-010
3.224865e-010
3.567778e-010
3.106523e-010
1.693173e-010
-6.861584e-011
-3.830811e-010
-7.499948e-010
-1.161517e-009
-1.620131e-009
-2.109155e-009
-2.575770e-009
-2.952579e-009
-3.195115e-009
-3.286621e-009
-3.201274e-009
-2.879587e-009
-2.267564e-009
-1.391022e-009
-3.777058e-010
6.073742e-010
1.438216e-009
2.023787e-009
2.248278e-009
1.979513e-009
1.195807e-009
1.060881e-010
-9.028146e-010
-1.478030e-009
-1.472692e-009
-9.389399e-010
-3.761299e-011
9.603578e-010
1.617451e-009
1.459231e-009
3.666458e-010
-1.109844e-009
-1.975426e-009
-1.544485e-009
-8.440070e-011
1.323621e-009
1.666721e-009
8.329648e-010
-3.729220e-010
-1.000601e-009
-7.465191e-010
-6.459658e-011
3.858284e-010
3.394680e-010
3.507192e-011
-1.457853e-010
-7.288170e-011
7.540834e-011
1.489592e-009
8.384567e-010
-1.459211e-010
-1.058514e-009
-1.516389e-009
-1.224123e-009
-1.585438e-010
1.184373e-009
1.873853e-009
1.197756e-009
-5.608455e-010
-2.082637e-009
-2.010340e-009
-1.892944e-010
2.065398e-009
3.025082e-009
1.968793e-009
-3.352736e-010
-2.415755e-009
-3.265524e-009
-2.821866e-009
-1.577879e-009
1.917968e-013
1.628970e-009
3.005338e-009
3.718713e-009
3.475908e-009
2.359770e-009
7.910045e-010
-7.675804e-010
-2.047687e-009
-2.964891e-009
-3.479937e-009
-3.544166e-009
-3.164513e-009
-2.454638e-009
-1.581623e-009
-6.701233e-010
2.275589e-010
1.084529e-009
1.856155e-009
2.494818e-009
2.989331e-009
3.368849e-009
3.666457e-009
3.890071e-009
4.032607e-009
4.100017e-009
4.117124e-009
4.104816e-009
4.059940e-009
3.963608e-009
3.805669e-009
3.592428e-009
3.327325e-009
2.991288e-009
2.552516e-009
1.997764e-009
1.346367e-009
6.285539e-010
-1.403703e-010
-9.467676e-010
-1.734627e-009
-2.389922e-009
-2.786701e-009
-2.849133e-009
-2.559236e-009
-1.916465e-009
-9.332363e-010
2.928645e-010
1.515307e-009
2.400094e-009
2.693573e-009
2.338758e-009
1.441486e-009
1.847574e-010
-1.155256e-009
-2.137842e-009
-2.263891e-009
-1.340686e-009
1.980708e-010
1.441484e-009
1.636431e-009
7.788593e-010
-4.039437e-010
-1.067474e-009
-8.775269e-010
-1.262080e-010
6.236217e-010
9.339407e-010
6.517264e-010
-8.318268e-011
-8.539990e-010
-1.107486e-009
-5.358975e-010
5.409949e-010
1.275194e-009
9.810658e-010
-1.685367e-010
-1.198826e-009
3.249449e-009
3.162552e-010
-2.596219e-009
-2.872647e-009
-5.686612e-010
2.007660e-009
2.667119e-009
1.157722e-009
-1.069679e-009
-2.410529e-009
-2.247630e-009
-9.163458e-010
8.883889e-010
2.431955e-009
2.976704e-009
2.032407e-009
-1.465293e-010
-2.432658e-009
-3.485834e-009
-2.735993e-009
-7.652584e-010
1.251794e-009
2.444104e-009
2.642044e-009
2.102766e-009
1.082713e-009
-2.524541e-010
-1.646714e-009
-2.691472e-009
-3.033859e-009
-2.613891e-009
-1.656562e-009
-4.537551e-010
8.098918e-010
2.045181e-009
3.160868e-009
4.041186e-009
4.613441e-009
4.896657e-009
4.966034e-009
4.885162e-009
4.685529e-009
4.396516e-009
4.067492e-009
3.750299e-009
3.471684e-009
3.234805e-009
3.044195e-009
2.917762e-009
2.871628e-009
2.902413e-009
2.993093e-009
3.133547e-009
3.325538e-009
3.563678e-009
3.818616e-009
4.047029e-009
4.215172e-009
4.301257e-009
4.271283e-009
4.065888e-009
3.628489e-009
2.949212e-009
2.071659e-009
1.058601e-009
-2.436750e-011
-1.070098e-009
-1.892158e-009
-2.275969e-009
-2.106196e-009
-1.444251e-009
-4.732963e-010
6.039430e-010
1.569711e-009
2.118614e-009
1.907476e-009
8.260077e-010
-7.375346e-010
-1.992091e-009
-2.243096e-009
-1.387926e-009
4.080755e-011
1.283577e-009
1.800436e-009
1.435989e-009
3.832198e-010
-8.484308e-010
-1.535019e-009
-1.138800e-009
1.398148e-010
1.280934e-009
1.222229e-009
-6.762856e-011
-1.372617e-009
-1.328852e-009
1.433734e-010
1.620853e-009
1.561846e-009
-7.066276e-011
-1.692930e-009
3.383278e-009
-3.918204e-010
-3.738258e-009
-3.147042e-009
7.495595e-010
4.076725e-009
3.694595e-009
1.032117e-010
-3.382243e-009
-3.929821e-009
-1.541747e-009
1.496964e-009
2.958411e-009
2.317140e-009
5.269360e-010
-1.191956e-009
-2.125277e-009
-2.024540e-009
-8.967636e-010
8.995695e-010
2.548277e-009
3.124467e-009
2.241426e-009
3.463499e-010
-1.655595e-009
-3.047700e-009
-3.599965e-009
-3.384197e-009
-2.493611e-009
-1.016138e-009
8.182226e-010
2.615380e-009
4.006625e-009
4.840592e-009
5.177137e-009
5.133049e-009
4.775512e-009
4.148851e-009
3.341627e-009
2.482040e-009
1.671787e-009
9.474375e-010
3.072296e-010
-2.450194e-010
-6.932296e-010
-1.031792e-009
-1.274963e-009
-1.440013e-009
-1.531187e-009
-1.545360e-009
-1.485478e-009
-1.358751e-009
-1.163354e-009
-8.865756e-010
-5.195849e-010
-6.708057e-011
4.629319e-010
1.071020e-009
1.753649e-009
2.475099e-009
3.162404e-009
3.734935e-009
4.128559e-009
4.277716e-009
4.087071e-009
3.462060e-009
2.400330e-009
1.048595e-009
-3.530242e-010
-1.580983e-009
-2.460808e-009
-2.807456e-009
-2.426074e-009
-1.284601e-009
2.831406e-010
1.625701e-009
2.139556e-009
1.658293e-009
5.178482e-010
-7.071408e-010
-1.492292e-009
-1.486827e-009
-6.031517e-010
7.948110e-010
1.844625e-009
1.655868e-009
1.424813e-010
-1.612618e-009
-2.114802e-009
-8.509381e-010
1.072762e-009
1.886202e-009
8.880383e-010
-8.284936e-010
-1.496257e-009
-5.134201e-010
9.578914e-010
1.286240e-009
1.492790e-010
-1.147973e-009
2.003535e-009
-6.182504e-010
-2.710099e-009
-1.794323e-009
1.292147e-009
3.335342e-009
2.143942e-009
-1.177225e-009
-3.374391e-009
-2.328348e-009
9.119350e-010
3.283525e-009
2.689200e-009
-2.154735e-010
-2.938945e-009
-3.501867e-009
-1.848731e-009
6.512592e-010
2.595268e-009
3.348189e-009
2.894390e-009
1.448500e-009
-5.877168e-010
-2.517101e-009
-3.548036e-009
-3.269020e-009
-1.904063e-009
-7.133065e-011
1.672684e-009
3.049106e-009
3.944326e-009
4.255450e-009
3.920751e-009
3.042766e-009
1.886716e-009
7.249204e-010
-3.000854e-010
-1.164027e-009
-1.862207e-009
-2.362439e-009
-2.644540e-009
-2.744498e-009
-2.736284e-009
-2.679151e-009
-2.595510e-009
-2.492352e-009
-2.385241e-009
-2.295601e-009
-2.235743e-009
-2.206527e-009
-2.206168e-009
-2.233101e-009
-2.281078e-009
-2.339173e-009
-2.397757e-009
-2.445772e-009
-2.456517e-009
-2.383374e-009
-2.180360e-009
-1.825698e-009
-1.315730e-009
-6.399071e-010
2.118566e-010
1.192864e-009
2.156931e-009
2.900697e-009
3.263982e-009
3.179394e-009
2.627863e-009
1.600619e-009
1.795368e-010
-1.330446e-009
-2.423932e-009
-2.652689e-009
-1.918596e-009
-5.305217e-010
9.907988e-010
2.123383e-009
2.429588e-009
1.662355e-009
2.978546e-011
-1.630794e-009
-2.216575e-009
-1.232269e-009
5.976146e-010
1.771456e-009
1.311557e-009
-2.926516e-010
-1.518109e-009
-1.264708e-009
1.174569e-010
1.258274e-009
1.161744e-009
1.063837e-010
-7.981592e-010
-8.020919e-010
-1.619912e-010
3.304915e-010
2.761322e-010
-2.372041e-012
-3.999706e-010
-2.793530e-010
6.291840e-011
5.567291e-010
7.935979e-010
3.109052e-010
-8.023124e-010
-1.643940e-009
-1.143830e-009
7.638237e-010
2.671804e-009
2.737603e-009
4.643763e-010
-2.566058e-009
-3.933651e-009
-2.507449e-009
5.942914e-010
3.077691e-009
3.413942e-009
1.803312e-009
-4.439266e-010
-2.129256e-009
-2.766628e-009
-2.366632e-009
-1.079035e-009
8.159455e-010
2.774957e-009
4.128283e-009
4.458217e-009
3.817371e-009
2.571730e-009
1.089231e-009
-3.981654e-010
-1.720006e-009
-2.693854e-009
-3.186334e-009
-3.211645e-009
-2.918441e-009
-2.473830e-009
-1.977072e-009
-1.474736e-009
-1.016277e-009
-6.628704e-010
-4.482841e-010
-3.544637e-010
-3.332367e-010
-3.431146e-010
-3.620487e-010
-3.769442e-010
-3.749881e-010
-3.471733e-010
-2.950797e-010
-2.342403e-010
-1.953604e-010
-2.200238e-010
-3.445015e-010
-5.803714e-010
-9.131901e-010
-1.320553e-009
-1.778214e-009
-2.232189e-009
-2.569266e-009
-2.642708e-009
-2.351150e-009
-1.692759e-009
-7.384797e-010
4.222579e-010
1.665273e-009
2.755770e-009
3.352077e-009
3.173153e-009
2.207528e-009
7.542572e-010
-7.357099e-010
-1.831533e-009
-2.175653e-009
-1.539282e-009
-4.109028e-011
1.636407e-009
2.451948e-009
1.733531e-009
-1.403996e-010
-1.868347e-009
-2.223556e-009
-1.061410e-009
6.108760e-010
1.540193e-009
1.224442e-009
1.463644e-010
-7.823960e-010
-9.401872e-010
-3.363710e-010
4.999013e-010
8.990843e-010
5.107542e-010
-3.901209e-010
-1.042490e-009
-8.194892e-010
1.547108e-010
1.040431e-009
-2.969414e-009
2.117891e-010
3.076704e-009
2.757132e-009
-2.392827e-010
-2.936082e-009
-3.007093e-009
-7.205434e-010
1.834650e-009
2.827886e-009
1.896967e-009
-1.063727e-010
-1.930521e-009
-2.512986e-009
-1.401898e-009
8.542534e-010
2.778836e-009
2.887518e-009
9.024452e-010
-1.905463e-009
-3.692339e-009
-3.443728e-009
-1.522916e-009
9.389679e-010
2.977904e-009
4.171618e-009
4.423636e-009
3.728077e-009
2.235127e-009
3.795447e-010
-1.250212e-009
-2.232629e-009
-2.491762e-009
-2.192577e-009
-1.539929e-009
-7.067336e-010
1.137457e-010
6.891223e-010
8.271714e-010
4.596912e-010
-3.654602e-010
-1.557236e-009
-3.026483e-009
-4.671506e-009
-6.354387e-009
-7.915688e-009
-9.214648e-009
-1.015350e-008
-1.067265e-008
-1.073710e-008
-1.033391e-008
-9.481389e-009
-8.239892e-009
-6.714474e-009
-5.041934e-009
-3.364763e-009
-1.810575e-009
-4.946068e-010
4.676851e-010
9.750976e-010
9.917312e-010
5.873926e-010
-8.414616e-011
-8.483594e-010
-1.538395e-009
-1.966544e-009
-1.920566e-009
-1.262313e-009
-6.612374e-011
1.357903e-009
2.601645e-009
3.318366e-009
3.269267e-009
2.329512e-009
6.176998e-010
-1.315333e-009
-2.568131e-009
-2.416150e-009
-9.322529e-010
9.258670e-010
1.962677e-009
1.603372e-009
2.360016e-010
-1.161659e-009
-1.694090e-009
-1.039846e-009
3.881583e-010
1.613447e-009
1.658490e-009
3.466934e-010
-1.314631e-009
-1.827488e-009
-6.290932e-010
1.164049e-009
1.732120e-009
4.566482e-010
-1.310947e-009
-1.639803e-009
-1.523782e-010
1.513065e-009
-4.503811e-009
4.765464e-010
4.665809e-009
3.627307e-009
-1.182205e-009
-4.498320e-009
-3.088459e-009
1.179748e-009
3.847627e-009
2.592371e-009
-9.102639e-010
-3.261504e-009
-2.684400e-009
-8.966277e-011
2.391016e-009
3.261371e-009
2.281163e-009
8.543881e-011
-2.262190e-009
-3.570074e-009
-3.019668e-009
-7.685546e-010
1.996715e-009
3.835082e-009