# vtk DataFile Version 3.0
vtk output
ASCII
DATASET STRUCTURED_POINTS
DIMENSIONS 100 100 1
SPACING 1 1 1
ORIGIN 0 0 0
POINT_DATA 10000
SCALARS SFBox_profile double
LOOKUP_TABLE default 
0.000000e+000
0.000000e+000
0.000000e+000
0.000000e+000
0.000000e+000
0.000000e+000
0.000000e+000
0.000000e+000
0.000000e+000
0.000000e+000
0.000000e+000
0.000000e+000
0.000000e+000
0.000000e+000
0.000000e+000
0.000000e+000
0.000000e+000
0.000000e+000
0.000000e+000
0.000000e+000
0.000000e+000
0.000000e+000
0.000000e+000
0.000000e+000
0.000000e+000
0.000000e+000
0.000000e+000
0.000000e+000
0.000000e+000
0.000000e+000
0.000000e+000
0.000000e+000
0.000000e+000
0.000000e+000
0.000000e+000
0.000000e+000
0.000000e+000
0.000000e+000
0.000000e+000
0.000000e+000
0.000000e+000
0.000000e+000
0.000000e+000
0.000000e+000
0.000000e+000
0.000000e+000
0.000000e+000
0.000000e+000
0.000000e+000
0.000000e+000
0.000000e+000
0.000000e+000
0.000000e+000
0.000000e+000
0.000000e+000
0.000000e+000
0.000000e+000
0.000000e+000
0.000000e+000
0.000000e+000
0.000000e+000
0.000000e+000
0.000000e+000
0.000000e+000
0.000000e+000
0.000000e+000
0.000000e+000
0.000000e+000
0.000000e+000
0.000000e+000
0.000000e+000
0.000000e+000
0.000000e+000
0.000000e+000
0.000000e+000
0.000000e+000
0.000000e+000
0.000000e+000
0.000000e+000
0.000000e+000
0.000000e+000
0.000000e+000
0.000000e+000
0.000000e+000
0.000000e+000
0.000000e+000
0.000000e+000
0.000000e+000
0.000000e+000
0.000000e+000
0.000000e+000
0.000000e+000
0.000000e+000
0.000000e+000
0.000000e+000
0.000000e+000
0.000000e+000
0.000000e+000
0.000000e+000
0.000000e+000
4.140469e-011
5.451594e-011
8.337982e-011
1.334207e-010
2.130556e-010
3.338155e-010
5.101270e-010
7.583927e-010
1.094918e-009
1.532176e-009
2.072938e-009
2.701996e-009
3.375569e-009
4.009057e-009
4.464499e-009
4.539764e-009
3.961987e-009
2.387762e-009
-5.879198e-010
-5.413213e-009
-1.255225e-008
-2.245185e-008
-3.550607e-008
-5.202332e-008
-7.220061e-008
-9.610819e-008
-1.236865e-007
-1.547546e-007
-1.890294e-007
-2.261505e-007
-2.657088e-007
-3.072748e-007
-3.504225e-007
-3.947494e-007
-4.398883e-007
-4.855140e-007
-5.313426e-007
-5.771280e-007
-6.226542e-007
-6.677266e-007
-7.121643e-007
-7.557923e-007
-7.984368e-007
-8.399204e-007
-8.800605e-007
-9.186659e-007
-9.555347e-007
-9.904502e-007
-1.023176e-006
-1.053448e-006
-1.080969e-006
-1.105401e-006
-1.126357e-006
-1.143396e-006
-1.156025e-006
-1.163703e-006
-1.165847e-006
-1.161857e-006
-1.151139e-006
-1.133141e-006
-1.107394e-006
-1.073562e-006
-1.031496e-006
-9.812796e-007
-9.232818e-007
-8.581858e-007
-7.870079e-007
-7.110901e-007
-6.320655e-007
-5.517914e-007
-4.722542e-007
-3.954490e-007
-3.232449e-007
-2.572522e-007
-1.987055e-007
-1.483822e-007
-1.065666e-007
-7.306728e-008
-4.728184e-008
-2.830014e-008
-1.502654e-008
-6.303010e-009
-1.015767e-009
1.825770e-009
3.042395e-009
3.269205e-009
2.964147e-009
2.432625e-009
1.859808e-009
1.343756e-009
9.248072e-010
6.088838e-010
3.842537e-010
2.324247e-010
1.344404e-010
7.395022e-011
3.825485e-011
1.824744e-011
7.880261e-012
3.539427e-012
6.947233e-011
8.762704e-011
1.272187e-010
1.948806e-010
3.006116e-010
4.574759e-010
6.805722e-010
9.847059e-010
1.380054e-009
1.865083e-009
2.416089e-009
2.973138e-009
3.422819e-009
3.579257e-009
3.165894e-009
1.801621e-009
-1.004649e-009
-5.847067e-009
-1.340100e-008
-2.438584e-008
-3.951511e-008
-5.943902e-008
-8.468721e-008
-1.156198e-007
-1.523935e-007
-1.949485e-007
-2.430154e-007
-2.961419e-007
-3.537333e-007
-4.151008e-007
-4.795103e-007
-5.462284e-007
-6.145584e-007
-6.838662e-007
-7.535946e-007
-8.232674e-007
-8.924851e-007
-9.609143e-007
-1.028274e-006
-1.094323e-006
-1.158843e-006
-1.221633e-006
-1.282493e-006
-1.341226e-006
-1.397626e-006
-1.451478e-006
-1.502551e-006
-1.550594e-006
-1.595328e-006
-1.636436e-006
-1.673556e-006
-1.706268e-006
-1.734087e-006
-1.756459e-006
-1.772755e-006
-1.782279e-006
-1.784276e-006
-1.777955e-006
-1.762517e-006
-1.737195e-006
-1.701301e-006
-1.654286e-006
-1.595802e-006
-1.525771e-006
-1.444452e-006
-1.352499e-006
-1.251013e-006
-1.141560e-006
-1.026166e-006
-9.072679e-007
-7.876138e-007
-6.701199e-007
-5.576827e-007
-4.529713e-007
-3.582209e-007
-2.750588e-007
-2.043926e-007
-1.463772e-007
-1.004696e-007
-6.555712e-008
-4.013612e-008
-2.250778e-008
-1.095985e-008
-3.910995e-009
-5.515112e-012
1.842267e-009
2.446024e-009
2.375354e-009
2.000157e-009
1.539875e-009
1.109365e-009
7.567855e-010
4.919438e-010
3.056167e-010
1.815042e-010
1.027987e-010
5.521234e-011
2.792643e-011
1.349402e-011
7.356942e-012
1.339660e-010
1.631688e-010
2.260951e-010
3.316194e-010
4.923836e-010
7.232684e-010
1.038104e-009
1.443524e-009
1.928658e-009
2.449378e-009
2.906183e-009
3.115711e-009
2.777376e-009
1.438642e-009
-1.535373e-009
-6.980469e-009
-1.593191e-008
-2.959587e-008
-4.929003e-008
-7.635465e-008
-1.120420e-007
-1.573979e-007
-2.131524e-007
-2.796379e-007
-3.567469e-007
-4.439361e-007
-5.402748e-007
-6.445268e-007
-7.552537e-007
-8.709224e-007
-9.900054e-007
-1.111062e-006
-1.232799e-006
-1.354098e-006
-1.474031e-006
-1.591851e-006
-1.706968e-006
-1.818927e-006
-1.927379e-006
-2.032051e-006
-2.132726e-006
-2.229223e-006
-2.321382e-006
-2.409048e-006
-2.492064e-006
-2.570259e-006
-2.643440e-006
-2.711379e-006
-2.773807e-006
-2.830399e-006
-2.880764e-006
-2.924433e-006
-2.960849e-006
-2.989362e-006
-3.009224e-006
-3.019593e-006
-3.019540e-006
-3.008063e-006
-2.984108e-006
-2.946603e-006
-2.894493e-006
-2.826797e-006
-2.742665e-006
-2.641466e-006
-2.522880e-006
-2.387016e-006
-2.234541e-006
-2.066807e-006
-1.885959e-006
-1.694994e-006
-1.497738e-006
-1.298718e-006
-1.102915e-006
-9.154102e-007
-7.409597e-007
-5.835647e-007
-4.461036e-007
-3.301013e-007
-2.356788e-007
-1.616862e-007
-1.059855e-007
-6.581645e-008
-3.817189e-008
-2.012123e-008
-9.043833e-009
-2.761771e-009
4.181003e-010
1.729957e-009
2.016336e-009
1.813018e-009
1.433481e-009
1.041971e-009
7.104281e-010
4.589856e-010
2.823974e-010
1.657441e-010
9.277997e-011
4.969401e-011
2.633099e-011
1.621895e-011
2.523561e-010
3.004228e-010
4.027094e-010
5.707229e-010
8.192013e-010
1.161587e-009
1.601448e-009
2.117674e-009
2.640988e-009
3.019513e-009
2.972153e-009
2.030682e-009
-5.252196e-010
-5.731477e-009
-1.498874e-008
-3.008088e-008
-5.314597e-008
-8.658626e-008
-1.329122e-007
-1.945282e-007
-2.734839e-007
-3.712262e-007
-4.883967e-007
-6.247115e-007
-7.789474e-007
-9.490363e-007
-1.132249e-006
-1.325430e-006
-1.525257e-006
-1.728469e-006
-1.932055e-006
-2.133388e-006
-2.330288e-006
-2.521035e-006
-2.704337e-006
-2.879273e-006
-3.045227e-006
-3.201828e-006
-3.348891e-006
-3.486379e-006
-3.614365e-006
-3.733007e-006
-3.842518e-006
-3.943146e-006
-4.035144e-006
-4.118751e-006
-4.194171e-006
-4.261557e-006
-4.321000e-006
-4.372521e-006
-4.416067e-006
-4.451511e-006
-4.478656e-006
-4.497234e-006
-4.506909e-006
-4.507268e-006
-4.497811e-006
-4.477931e-006
-4.446879e-006
-4.403718e-006
-4.347277e-006
-4.276102e-006
-4.188426e-006
-4.082182e-006
-3.955081e-006
-3.804794e-006
-3.629227e-006
-3.426924e-006
-3.197528e-006
-2.942250e-006
-2.664256e-006
-2.368843e-006
-2.063336e-006
-1.756631e-006
-1.458413e-006
-1.178151e-006
-9.240351e-007
-7.020827e-007
-5.155832e-007
-3.649977e-007
-2.482935e-007
-1.615937e-007
-9.996403e-008
-5.816178e-008
-3.122697e-008
-1.486250e-008
-5.610434e-009
-8.671975e-010
1.206797e-009
1.830468e-009
1.757623e-009
1.418506e-009
1.034298e-009
7.014355e-010
4.486762e-010
2.726643e-010
1.581774e-010
8.846212e-011
4.974508e-011
3.271697e-011
4.523964e-010
5.294605e-010
6.911181e-010
9.501106e-010
1.318683e-009
1.797313e-009
2.354596e-009
2.894107e-009
3.203692e-009
2.883439e-009
1.251131e-009
-2.771108e-009
-1.077795e-008
-2.498973e-008
-4.831980e-008
-8.436498e-008
-1.372832e-007
-2.115323e-007
-3.114671e-007
-4.408251e-007
-6.021736e-007
-7.964187e-007
-1.022486e-006
-1.277248e-006
-1.555736e-006
-1.851576e-006
-2.157587e-006
-2.466410e-006
-2.771082e-006
-3.065479e-006
-3.344588e-006
-3.604616e-006
-3.842954e-006
-4.058032e-006
-4.249127e-006
-4.416150e-006
-4.559473e-006
-4.679794e-006
-4.778058e-006
-4.855419e-006
-4.913208e-006
-4.952913e-006
-4.976148e-006
-4.984605e-006
-4.979999e-006
-4.964025e-006
-4.938313e-006
-4.904411e-006
-4.863789e-006
-4.817859e-006
-4.768024e-006
-4.715726e-006
-4.662506e-006
-4.610047e-006
-4.560196e-006
-4.514948e-006
-4.476381e-006
-4.446520e-006
-4.427134e-006
-4.419443e-006
-4.423761e-006
-4.439082e-006
-4.462669e-006
-4.489704e-006
-4.513100e-006
-4.523588e-006
-4.510156e-006
-4.460921e-006
-4.364410e-006
-4.211144e-006
-3.995321e-006
-3.716293e-006
-3.379502e-006
-2.996561e-006
-2.584310e-006
-2.162874e-006
-1.753046e-006
-1.373507e-006
-1.038507e-006
-7.564953e-007
-5.299317e-007
-3.561450e-007
-2.288537e-007
-1.398716e-007
-8.060394e-008
-4.311748e-008
-2.074289e-008
-8.283970e-009
-1.955432e-009
8.304555e-010
1.733333e-009
1.747193e-009
1.421822e-009
1.031290e-009
6.915576e-010
4.362553e-010
2.617555e-010
1.517099e-010
8.904944e-011
6.105443e-011
7.729567e-010
8.911364e-010
1.134495e-009
1.511343e-009
2.017815e-009
2.612306e-009
3.171565e-009
3.420619e-009
2.828576e-009
4.646769e-010
-5.184883e-009
-1.642782e-008
-3.657678e-008
-7.011343e-008
-1.227388e-007
-2.012291e-007
-3.130187e-007
-4.654605e-007
-6.647843e-007
-9.148761e-007
-1.216109e-006
-1.564516e-006
-1.951560e-006
-2.364619e-006
-2.788132e-006
-3.205164e-006
-3.599076e-006
-3.955002e-006
-4.260905e-006
-4.508149e-006
-4.691567e-006
-4.809159e-006
-4.861512e-006
-4.851108e-006
-4.781643e-006
-4.657461e-006
-4.483161e-006
-4.263396e-006
-4.002831e-006
-3.706185e-006
-3.378305e-006
-3.024213e-006
-2.649087e-006
-2.258199e-006
-1.856819e-006
-1.450116e-006
-1.043105e-006
-6.406338e-007
-2.474568e-007
1.316419e-007
4.916652e-007
8.271946e-007
1.132183e-006
1.399783e-006
1.622243e-006
1.790917e-006
1.896420e-006
1.928968e-006
1.878945e-006
1.737701e-006
1.498604e-006
1.158306e-006
7.181437e-007
1.855302e-007
-4.248625e-007
-1.090408e-006
-1.780615e-006
-2.458271e-006
-3.081830e-006
-3.609052e-006
-4.001633e-006
-4.230271e-006
-4.279313e-006
-4.149944e-006
-3.860980e-006
-3.446692e-006
-2.951803e-006
-2.424576e-006
-1.909553e-006
-1.441679e-006
-1.043068e-006
-7.227951e-007
-4.791429e-007
-3.031565e-007
-1.823039e-007
-1.034143e-007
-5.457479e-008
-2.605355e-008
-1.050788e-008
-2.764877e-009
5.938894e-010
1.687346e-009
1.741654e-009
1.411502e-009
1.011178e-009
6.678343e-010
4.156420e-010
2.492616e-010
1.516911e-010
1.073331e-010
1.263198e-009
1.434498e-009
1.778019e-009
2.282909e-009
2.897112e-009
3.473130e-009
3.677332e-009
2.848919e-009
-2.045203e-010
-7.481683e-009
-2.212483e-008
-4.878730e-008
-9.396314e-008
-1.661655e-007
-2.757940e-007
-4.344975e-007
-6.538573e-007
-9.433233e-007
-1.307574e-006
-1.743775e-006
-2.239484e-006
-2.771940e-006
-3.309229e-006
-3.813261e-006
-4.243965e-006
-4.563795e-006
-4.741618e-006
-4.755323e-006
-4.592899e-006
-4.252096e-006
-3.738999e-006
-3.065972e-006
-2.249391e-006
-1.307531e-006
-2.588720e-007
8.790512e-007
2.090214e-006
3.360177e-006
4.675831e-006
6.024975e-006
7.395922e-006
8.777227e-006
1.015759e-005
1.152590e-005
1.287137e-005
1.418364e-005
1.545283e-005
1.666947e-005
1.782425e-005
1.890768e-005
1.990962e-005
2.081881e-005
2.162230e-005
2.230512e-005
2.284991e-005
2.323685e-005
2.344382e-005
2.344683e-005
2.322093e-005
2.274150e-005
2.198607e-005
2.093674e-005
1.958306e-005
1.792545e-005
1.597877e-005
1.377569e-005
1.136932e-005
8.834182e-006
6.264769e-006
3.770715e-006
1.468280e-006
-5.315669e-007
-2.137018e-006
-3.288833e-006
-3.970220e-006
-4.210275e-006
-4.079259e-006
-3.676057e-006
-3.110609e-006
-2.485760e-006
-1.883130e-006
-1.356022e-006
-9.297468e-007
-6.073539e-007
-3.776676e-007
-2.228505e-007
-1.239555e-007
-6.415325e-008
-3.008047e-008
-1.197583e-008
-3.192169e-009
5.135189e-010
1.680285e-009
1.725192e-009
1.376442e-009
9.688667e-010
6.305634e-010
3.923485e-010
2.471806e-010
1.797642e-010
1.978055e-009
2.208957e-009
2.652783e-009
3.247089e-009
3.824515e-009
4.003675e-009
3.010722e-009
-5.918312e-010
-9.288361e-009
-2.710888e-008
-6.021307e-008
-1.174723e-007
-2.108764e-007
-3.554815e-007
-5.684919e-007
-8.670115e-007
-1.264116e-006
-1.763353e-006
-2.352548e-006
-2.998641e-006
-3.645639e-006
-4.217231e-006
-4.624297e-006
-4.775898e-006
-4.591186e-006
-4.009526e-006
-2.996811e-006
-1.547209e-006
3.192207e-007
2.561830e-006
5.126157e-006
7.950848e-006
1.097371e-005
1.413625e-005
1.738652e-005
2.068029e-005
2.398091e-005
2.725842e-005
3.048813e-005
3.364932e-005
3.672413e-005
3.969681e-005
4.255335e-005
4.528136e-005
4.787005e-005
5.031017e-005
5.259381e-005
5.471412e-005
5.666474e-005
5.843918e-005
6.003015e-005
6.142877e-005
6.262398e-005
6.360187e-005
6.434511e-005
6.483252e-005
6.503859e-005
6.493306e-005
6.448067e-005
6.364101e-005
6.236886e-005
6.061531e-005
5.833017e-005
5.546637e-005
5.198675e-005
4.787369e-005
4.314109e-005
3.784720e-005
3.210573e-005
2.609119e-005
2.003448e-005
1.420605e-005
8.886469e-006
4.328263e-006
7.165674e-007
-1.861825e-006
-3.432055e-006
-4.122396e-006
-4.134345e-006
-3.699816e-006
-3.037831e-006
-2.322346e-006
-1.667757e-006
-1.131491e-006
-7.276286e-007
-4.439182e-007
-2.564376e-007
-1.394281e-007
-7.044803e-008
-3.219671e-008
-1.245110e-008
-3.172042e-009
5.930427e-010
1.701990e-009
1.690418e-009
1.315642e-009
9.095708e-010
5.913450e-010
3.864755e-010
2.886216e-010
2.967225e-009
3.247628e-009
3.745294e-009
4.281584e-009
4.444326e-009
3.378445e-009
-5.496766e-010
-1.025078e-008
-3.059749e-008
-6.927922e-008
-1.377305e-007
-2.518966e-007
-4.323825e-007
-7.032370e-007
-1.088345e-006
-1.604400e-006
-2.250116e-006
-2.993039e-006
-3.757565e-006
-4.419378e-006
-4.810931e-006
-4.739496e-006
-4.014736e-006
-2.479134e-006
-3.354438e-008
3.348101e-006
7.617298e-006
1.266123e-005
1.832093e-005
2.441259e-005
3.074796e-005
3.715092e-005
4.346861e-005
4.957689e-005
5.538090e-005
6.081209e-005
6.582364e-005
7.038574e-005
7.448159e-005
7.810456e-005
8.125645e-005
8.394642e-005
8.619022e-005
8.800947e-005
8.943078e-005
9.048470e-005
9.120463e-005
9.162584e-005
9.178481e-005
9.171893e-005
9.146662e-005
9.106779e-005
9.056440e-005
9.000091e-005
8.942415e-005
8.888220e-005
8.842178e-005
8.808373e-005
8.789604e-005
8.786456e-005
8.796159e-005
8.811351e-005
8.818961e-005
8.799522e-005
8.727362e-005
8.572119e-005
8.301949e-005
7.888453e-005
7.312842e-005
6.572206e-005
5.684254e-005
4.688788e-005
3.644656e-005
2.621967e-005
1.690752e-005
9.086550e-006
3.109834e-006
-9.406035e-007
-3.238281e-006
-4.140957e-006
-4.088345e-006
-3.502136e-006
-2.715910e-006
-1.947187e-006
-1.306277e-006
-8.257049e-007
-4.933072e-007
-2.783431e-007
-1.475035e-007
-7.245603e-008
-3.205096e-008
-1.185754e-008
-2.718602e-009
8.048711e-010
1.735490e-009
1.634024e-009
1.237097e-009
8.513889e-010
5.804145e-010
4.456897e-010
4.254251e-009
4.537573e-009
4.946388e-009
5.066287e-009
4.006072e-009
1.327465e-011
-1.013015e-008
-3.198305e-008
-7.460413e-008
-1.519094e-007
-2.839418e-007
-4.974066e-007
-8.242516e-007
-1.296350e-006
-1.933897e-006
-2.725902e-006
-3.604215e-006
-4.417808e-006
-4.919024e-006
-4.774200e-006
-3.604786e-006
-1.053650e-006
3.139637e-006
9.075409e-006
1.666006e-005
2.560937e-005
3.548612e-005
4.576060e-005
5.587876e-005
6.532314e-005
7.365769e-005
8.055264e-005
8.579024e-005
8.925493e-005
9.091345e-005
9.079162e-005
8.895342e-005
8.548619e-005
8.049277e-005
7.408924e-005
6.640546e-005
5.758605e-005
4.778998e-005
3.718829e-005
2.596018e-005
1.428878e-005
2.357488e-006
-9.651787e-006
-2.155809e-005
-3.317832e-005
-4.432191e-005
-5.478415e-005
-6.433899e-005
-7.273280e-005
-7.968042e-005
-8.486514e-005
-8.794446e-005
-8.856334e-005
-8.637696e-005
-8.108417e-005
-7.247269e-005
-6.047476e-005
-4.523001e-005
-2.714781e-005
-6.956844e-006
1.427560e-005
3.517463e-005
5.415663e-005
6.960301e-005
8.009632e-005
8.468139e-005
8.309051e-005
7.586052e-005
6.428451e-005
5.018577e-005
3.556152e-005
2.219062e-005
1.131966e-005
3.517160e-006
-1.286902e-006
-3.621000e-006
-4.227521e-006
-3.838248e-006
-3.028382e-006
-2.165788e-006
-1.433845e-006
-8.889335e-007
-5.189009e-007
-2.852811e-007
-1.469080e-007
-6.985312e-008
-2.967942e-008
-1.031451e-008
-1.930799e-009
1.093049e-009
1.761252e-009
1.561690e-009
1.165014e-009
8.367276e-010
6.628975e-010
5.802238e-009
5.972800e-009
5.973939e-009
4.947323e-009
1.122611e-009
-8.859155e-009
-3.098617e-008
-7.533628e-008
-1.579097e-007
-3.025353e-007
-5.420323e-007
-9.168631e-007
-1.468079e-006
-2.219930e-006
-3.147750e-006
-4.131308e-006
-4.904295e-006
-5.023494e-006
-3.887413e-006
-8.245901e-007
4.753860e-006
1.317223e-005
2.433206e-005
3.762887e-005
5.197307e-005
6.591764e-005
7.786081e-005
8.626841e-005
8.986286e-005
8.774537e-005
7.944034e-005
6.487100e-005
4.428652e-005
1.816371e-005
-1.289444e-005
-4.824456e-005
-8.726055e-005
-1.293600e-004
-1.740047e-004
-2.206864e-004
-2.689088e-004
-3.181751e-004
-3.679843e-004
-4.178361e-004
-4.672404e-004
-5.157278e-004
-5.628557e-004
-6.082084e-004
-6.513902e-004
-6.920111e-004
-7.296675e-004
-7.639205e-004
-7.942725e-004
-8.201476e-004
-8.408745e-004
-8.556778e-004
-8.636774e-004
-8.639007e-004
-8.553102e-004
-8.368519e-004
-8.075306e-004
-7.665190e-004
-7.133057e-004
-6.478832e-004
-5.709667e-004
-4.842126e-004
-3.903873e-004
-2.934128e-004
-1.982088e-004
-1.102728e-004
-3.498777e-005
2.326385e-005
6.199955e-005
8.126302e-005
8.368173e-005
7.383745e-005
5.715020e-005
3.866887e-005
2.213790e-005
9.598186e-006
1.528036e-006
-2.682379e-006
-4.155151e-006
-4.041957e-006
-3.238876e-006
-2.302198e-006
-1.498997e-006
-9.088063e-007
-5.169754e-007
-2.761979e-007
-1.377557e-007
-6.308884e-008
-2.550278e-008
-8.107572e-009
-9.648799e-010
1.392731e-009
1.771101e-009
1.501009e-009
1.155158e-009
9.498169e-010
7.463736e-009
7.287402e-009
6.266713e-009
2.756479e-009
-6.540891e-009
-2.771613e-008
-7.136190e-008
-1.548663e-007
-3.050339e-007
-5.601269e-007
-9.690697e-007
-1.583201e-006
-2.432894e-006
-3.479881e-006
-4.541452e-006
-5.200192e-006
-4.740899e-006
-2.178421e-006
3.566803e-006
1.333670e-005
2.730870e-005
4.459840e-005
6.303547e-005
7.923397e-005
8.900829e-005
8.803570e-005
7.257934e-005
4.008181e-005
-1.052224e-005
-7.882003e-005
-1.631875e-004
-2.611803e-004
-3.699374e-004
-4.865290e-004
-6.082119e-004
-7.325817e-004
-8.576244e-004
-9.816905e-004
-1.103427e-003
-1.221698e-003
-1.335528e-003
-1.444069e-003
-1.546595e-003
-1.642514e-003
-1.731381e-003
-1.812901e-003
-1.886920e-003
-1.953405e-003
-2.012412e-003
-2.064055e-003
-2.108470e-003
-2.145794e-003
-2.176132e-003
-2.199548e-003
-2.216033e-003
-2.225485e-003
-2.227658e-003
-2.222098e-003
-2.208051e-003
-2.184338e-003
-2.149220e-003
-2.100282e-003
-2.034375e-003
-1.947724e-003
-1.836297e-003
-1.696532e-003
-1.526457e-003
-1.327065e-003
-1.103569e-003
-8.659982e-004
-6.285910e-004
-4.078215e-004
-2.193770e-004
-7.484775e-005
2.095640e-005
7.107120e-005
8.506037e-005
7.573528e-005
5.553940e-005
3.392633e-005
1.633434e-005
4.646063e-006
-1.611188e-006
-3.985571e-006
-4.138933e-006
-3.339966e-006
-2.344092e-006
-1.493983e-006
-8.826535e-007
-4.878627e-007
-2.525318e-007
-1.215227e-007
-5.327029e-008
-2.021407e-008
-5.608996e-009
1.420498e-011
1.659390e-009
1.789093e-009
1.520364e-009
1.309754e-009
8.914901e-009
7.969833e-009
4.852874e-009
-3.404352e-009
-2.262313e-008
-6.331682e-008
-1.433487e-007
-2.912495e-007
-5.493238e-007
-9.740069e-007
-1.627615e-006
-2.550430e-006
-3.697332e-006
-4.826890e-006
-5.355225e-006
-4.237696e-006
1.490508e-009
8.955112e-006
2.366517e-005
4.367728e-005
6.607153e-005
8.485527e-005
9.117587e-005
7.460188e-005
2.519497e-005
-6.418971e-005
-1.961743e-004
-3.683489e-004
-5.739358e-004
-8.031249e-004
-1.044601e-003
-1.286963e-003
-1.519872e-003
-1.734813e-003
-1.925425e-003
-2.087452e-003
-2.218432e-003
-2.317313e-003
-2.384119e-003
-2.419736e-003
-2.425787e-003
-2.404553e-003
-2.358879e-003
-2.292040e-003
-2.207574e-003
-2.109092e-003
-2.000125e-003
-1.884002e-003
-1.763811e-003
-1.642404e-003
-1.522474e-003
-1.406652e-003
-1.297628e-003
-1.198262e-003
-1.111685e-003
-1.041349e-003
-9.910363e-004
-9.647849e-004
-9.667175e-004
-1.000722e-003
-1.069933e-003
-1.175927e-003
-1.317577e-003
-1.489518e-003
-1.680357e-003
-1.871074e-003
-2.034517e-003
-2.137423e-003
-2.146258e-003
-2.036909e-003
-1.805476e-003
-1.474745e-003
-1.091054e-003
-7.110791e-004
-3.849636e-004
-1.439962e-004
4.063545e-006
7.226871e-005
8.540753e-005
6.948582e-005
4.460067e-005
2.240193e-005
7.305549e-006
-7.753236e-007
-3.856218e-006
-4.161485e-006
-3.331128e-006
-2.288074e-006
-1.419551e-006
-8.141584e-007
-4.358677e-007
-2.178602e-007
-1.006743e-007
-4.187922e-008
-1.459894e-008
-3.176300e-009
8.874966e-010
1.900783e-009
1.892607e-009
1.734337e-009
9.578415e-009
7.165268e-009
2.063980e-010
-1.638670e-008
-5.241163e-008
-1.251984e-007
-2.634719e-007
-5.115526e-007
-9.313987e-007
-1.595957e-006
-2.559912e-006
-3.784711e-006
-4.993118e-006
-5.455578e-006
-3.787585e-006
2.046885e-006
1.424595e-005
3.396402e-005
5.939865e-005
8.360311e-005
9.296926e-005
6.784440e-005
-1.380454e-005
-1.701930e-004
-4.087718e-004
-7.217738e-004
-1.085786e-003
-1.464671e-003
-1.815498e-003
-2.096680e-003
-2.275847e-003
-2.334847e-003
-2.270663e-003
-2.092743e-003
-1.818360e-003
-1.467917e-003
-1.061574e-003
-6.175472e-004
-1.516743e-004
3.224206e-004
7.930695e-004
1.250449e-003
1.686616e-003
2.095582e-003
2.473319e-003
2.817620e-003
3.127831e-003
3.404501e-003
3.648989e-003
3.863113e-003
4.048848e-003
4.208091e-003
4.342500e-003
4.453369e-003
4.541531e-003
4.607243e-003
4.650023e-003
4.668405e-003
4.659562e-003
4.618767e-003
4.538667e-003
4.408411e-003
4.212769e-003
3.931616e-003
3.540583e-003
3.014223e-003
2.333622e-003
1.499915e-003
5.524552e-004
-4.158264e-004
-1.260821e-003
-1.823372e-003
-1.998238e-003
-1.798416e-003
-1.356123e-003
-8.487279e-004
-4.149804e-004
-1.207102e-004
3.326662e-005
8.432812e-005
7.858561e-005
5.241080e-005
2.654435e-005
8.801653e-006
-4.764028e-007
-3.857188e-006
-4.123286e-006
-3.212984e-006
-2.139305e-006
-1.284801e-006
-7.126089e-007
-3.682889e-007
-1.770498e-007
-7.807431e-008
-3.041832e-008
-9.346840e-009
-1.058758e-009
1.627933e-009
2.196737e-009
2.196777e-009
8.545635e-009
3.580801e-009
-9.883168e-009
-4.017900e-008
-1.030814e-007
-2.258991e-007
-4.525690e-007
-8.476244e-007
-1.492644e-006
-2.459866e-006
-3.733724e-006
-5.040681e-006
-5.568629e-006
-3.652932e-006
3.303480e-006
1.819281e-005
4.229872e-005
7.185967e-005
9.365114e-005
8.159599e-005
-1.673119e-006
-1.952300e-004
-5.223442e-004
-9.704549e-004
-1.478272e-003
-1.935719e-003
-2.206990e-003
-2.178703e-003
-1.806061e-003
-1.125564e-003
-2.317941e-004
7.602177e-004
1.746702e-003
2.652594e-003
3.435116e-003
4.078125e-003
4.583006e-003
4.960374e-003
5.224483e-003
5.390273e-003
5.472205e-003
5.483960e-003
5.438409e-003
5.347548e-003
5.222350e-003
5.072594e-003
4.906746e-003
4.731941e-003
4.554082e-003
4.378033e-003
4.207873e-003
4.047177e-003
3.899284e-003
3.767557e-003
3.655591e-003
3.567385e-003
3.507468e-003
3.480968e-003
3.493597e-003
3.551503e-003
3.660891e-003
3.827220e-003
4.053671e-003
4.338419e-003
4.670102e-003
5.020892e-003
5.337170e-003
5.529614e-003
5.468548e-003
4.997564e-003
3.986759e-003
2.441566e-003
6.259123e-004
-9.489566e-004
-1.798957e-003
-1.823034e-003
-1.333527e-003
-7.362878e-004
-2.768850e-004
-1.972194e-005
7.665853e-005
8.303927e-005
5.637341e-005
2.791864e-005
8.728092e-006
-8.221072e-007
-3.983769e-006
-4.009374e-006
-2.987557e-006
-1.911699e-006
-1.105868e-006
-5.910356e-007
-2.938197e-007
-1.351759e-007
-5.636173e-008
-2.009421e-008
-4.906340e-009
6.618663e-010
2.310690e-009
2.644415e-009
4.514847e-009
-4.583633e-009
-2.838998e-008
-7.998216e-008
-1.836969e-007
-3.806390e-007
-7.343618e-007
-1.331246e-006
-2.260794e-006
-3.543716e-006
-4.955238e-006
-5.695930e-006
-3.956841e-006
3.320283e-006
1.979209e-005
4.714776e-005
7.973677e-005
9.671988e-005
5.525739e-005
-1.064418e-004
-4.468967e-004
-9.760187e-004
-1.598974e-003
-2.080093e-003
-2.090107e-003
-1.395522e-003
-5.238062e-005
1.610633e-003
3.195433e-003
4.423108e-003
5.188793e-003
5.516104e-003
5.490489e-003
5.211889e-003
4.770078e-003
4.235327e-003
3.657851e-003
3.071370e-003
2.497735e-003
1.950900e-003
1.439701e-003
9.695198e-004
5.431840e-004
1.614845e-004
-1.764454e-004
-4.727591e-004
-7.305084e-004
-9.532607e-004
-1.144758e-003
-1.308645e-003
-1.448274e-003
-1.566578e-003
-1.666001e-003
-1.748456e-003
-1.815297e-003
-1.867265e-003
-1.904399e-003
-1.925854e-003
-1.929615e-003
-1.912011e-003
-1.867003e-003
-1.785124e-003
-1.652035e-003
-1.446721e-003
-1.139637e-003
-6.917700e-004
-5.677323e-005
8.097177e-004
1.927168e-003
3.245955e-003
4.579532e-003
5.538870e-003
5.567509e-003
4.240235e-003
1.813648e-003
-5.709277e-004
-1.758373e-003
-1.667757e-003
-1.020528e-003
-4.175304e-004
-6.458261e-005
7.007599e-005
8.417914e-005
5.615680e-005
2.625884e-005
7.110765e-006
-1.680851e-006
-4.139693e-006
-3.788262e-006
-2.664171e-006
-1.627739e-006
-9.033428e-007
-4.636421e-007
-2.207803e-007
-9.652628e-008
-3.746977e-008
-1.161880e-008
-1.422651e-009
2.055417e-009
2.991564e-009
-4.232499e-009
-1.964985e-008
-5.903502e-008
-1.420984e-007
-3.048293e-007
-6.061598e-007
-1.132095e-006
-1.984803e-006
-3.225901e-006
-4.714763e-006
-5.765842e-006
-4.615936e-006
2.034959e-006
1.858438e-005
4.765103e-005
8.287834e-005
9.678877e-005
2.838721e-005
-2.131504e-004
-7.049752e-004
-1.407904e-003
-2.025998e-003
-1.962964e-003
-6.978439e-004
1.550120e-003
3.839845e-003
5.297535e-003
5.647066e-003
5.103661e-003
4.048507e-003
2.814045e-003
1.617153e-003
5.704166e-004
-2.857582e-004
-9.535906e-004
-1.456166e-003
-1.823362e-003
-2.084071e-003
-2.262875e-003
-2.379365e-003
-2.448696e-003
-2.482517e-003
-2.489856e-003
-2.477791e-003
-2.451926e-003
-2.416707e-003
-2.375651e-003
-2.331526e-003
-2.286494e-003
-2.242256e-003
-2.200172e-003
-2.161379e-003
-2.126888e-003
-2.097676e-003
-2.074755e-003
-2.059240e-003
-2.052401e-003
-2.055699e-003
-2.070807e-003
-2.099604e-003
-2.144095e-003
-2.206215e-003
-2.287380e-003
-2.387576e-003
-2.503568e-003
-2.625526e-003
-2.730915e-003
-2.774043e-003
-2.670131e-003
-2.276968e-003
-1.392243e-003
1.826430e-004
2.431325e-003
4.762869e-003
5.864791e-003
4.535479e-003
1.378997e-003
-1.189509e-003
-1.790022e-003
-1.201708e-003
-4.980594e-004
-8.106946e-005
7.035390e-005
8.269375e-005
5.179353e-005
2.190684e-005
4.396804e-006
-2.739708e-006
-4.188825e-006
-3.437515e-006
-2.265462e-006
-1.316272e-006
-6.986586e-007
-3.431583e-007
-1.556579e-007
-6.394526e-008
-2.239530e-008
-5.173468e-009
1.188708e-009
3.114112e-009
-1.979464e-008
-4.439248e-008
-1.061297e-007
-2.335625e-007
-4.776637e-007
-9.184985e-007
-1.662901e-006
-2.807426e-006
-4.309361e-006
-5.672318e-006
-5.373686e-006
-1.891667e-007
1.479734e-005
4.362135e-005
8.130867e-005
9.768417e-005
1.721034e-005
-2.811430e-004
-8.959283e-004
-1.709550e-003
-2.097367e-003
-9.998134e-004
1.795329e-003
4.668939e-003
5.808726e-003
4.959895e-003
3.034243e-003
1.004505e-003
-6.023173e-004
-1.662664e-003
-2.258611e-003
-2.527012e-003
-2.589011e-003
-2.531729e-003
-2.411628e-003
-2.263003e-003
-2.105628e-003
-1.950295e-003
-1.802494e-003
-1.664719e-003
-1.537854e-003
-1.421956e-003
-1.316681e-003
-1.221492e-003
-1.135772e-003
-1.058867e-003
-9.901220e-004
-9.289071e-004
-8.746365e-004
-8.267927e-004
-7.849468e-004
-7.487773e-004
-7.180871e-004
-6.928214e-004
-6.730861e-004
-6.591719e-004
-6.515877e-004
-6.511071e-004
-6.588369e-004
-6.763143e-004
-7.056465e-004
-7.497021e-004
-8.123697e-004
-8.988855e-004
-1.016207e-003
-1.173324e-003
-1.381174e-003
-1.651276e-003
-1.990844e-003
-2.389365e-003
-2.786780e-003
-3.009903e-003
-2.683033e-003
-1.229192e-003
1.672147e-003
4.945252e-003
5.844696e-003
3.037608e-003
-5.523903e-004
-1.792574e-003
-1.258206e-003
-4.941089e-004
-6.168633e-005
7.718305e-005
7.782159e-005
4.369122e-005
1.576007e-005
1.303546e-006
-3.637279e-006
-4.024711e-006
-2.965253e-006
-1.827596e-006
-1.007768e-006
-5.102806e-007
-2.388136e-007
-1.022988e-007
-3.863482e-008
-1.125206e-008
-5.944784e-010
2.847469e-009
-4.453354e-008
-8.186553e-008
-1.742529e-007
-3.614788e-007
-7.125587e-007
-1.329721e-006
-2.330355e-006
-3.759119e-006
-5.335811e-006
-5.918717e-006
-2.696826e-006