# vtk DataFile Version 3.0
vtk output
ASCII
DATASET STRUCTURED_POINTS
DIMENSIONS 100 100 1
SPACING 1 1 1
ORIGIN 0 0 0
POINT_DATA 10000
SCALARS SFBox_profile double
LOOKUP_TABLE default 
9.439922e-003
9.439921e-003
9.439919e-003
9.439919e-003
9.439919e-003
9.439920e-003
9.439921e-003
9.439922e-003
9.439921e-003
9.439919e-003
9.439919e-003
9.439919e-003
9.439919e-003
9.439920e-003
9.439921e-003
9.439921e-003
9.439920e-003
9.439920e-003
9.439920e-003
9.439920e-003
9.439920e-003
9.439919e-003
9.439919e-003
9.439919e-003
9.439920e-003
9.439920e-003
9.439920e-003
9.439921e-003
9.439921e-003
9.439922e-003
9.439923e-003
9.439923e-003
9.439923e-003
9.439924e-003
9.439924e-003
9.439925e-003
9.439925e-003
9.439925e-003
9.439925e-003
9.439926e-003
9.439926e-003
9.439927e-003
9.439927e-003
9.439927e-003
9.439928e-003
9.439928e-003
9.439928e-003
9.439928e-003
9.439928e-003
9.439929e-003
9.439929e-003
9.439929e-003
9.439929e-003
9.439929e-003
9.439928e-003
9.439928e-003
9.439928e-003
9.439927e-003
9.439927e-003
9.439927e-003
9.439926e-003
9.439926e-003
9.439925e-003
9.439925e-003
9.439925e-003
9.439924e-003
9.439924e-003
9.439924e-003
9.439923e-003
9.439923e-003
9.439923e-003
9.439922e-003
9.439921e-003
9.439921e-003
9.439921e-003
9.439921e-003
9.439920e-003
9.439919e-003
9.439919e-003
9.439920e-003
9.439920e-003
9.439920e-003
9.439920e-003
9.439920e-003
9.439921e-003
9.439921e-003
9.439921e-003
9.439920e-003
9.439919e-003
9.439919e-003
9.439919e-003
9.439920e-003
9.439921e-003
9.439921e-003
9.439920e-003
9.439920e-003
9.439920e-003
9.439920e-003
9.439920e-003
9.439920e-003
9.439922e-003
9.439921e-003
9.439919e-003
9.439919e-003
9.439919e-003
9.439920e-003
9.439921e-003
9.439922e-003
9.439921e-003
9.439919e-003
9.439919e-003
9.439919e-003
9.439919e-003
9.439920e-003
9.439921e-003
9.439921e-003
9.439920e-003
9.439920e-003
9.439920e-003
9.439920e-003
9.439920e-003
9.439919e-003
9.439919e-003
9.439919e-003
9.439920e-003
9.439920e-003
9.439920e-003
9.439921e-003
9.439921e-003
9.439922e-003
9.439923e-003
9.439923e-003
9.439923e-003
9.439924e-003
9.439924e-003
9.439925e-003
9.439925e-003
9.439925e-003
9.439925e-003
9.439926e-003
9.439926e-003
9.439927e-003
9.439927e-003
9.439927e-003
9.439928e-003
9.439928e-003
9.439928e-003
9.439928e-003
9.439928e-003
9.439929e-003
9.439929e-003
9.439929e-003
9.439929e-003
9.439929e-003
9.439928e-003
9.439928e-003
9.439928e-003
9.439927e-003
9.439927e-003
9.439927e-003
9.439926e-003
9.439926e-003
9.439925e-003
9.439925e-003
9.439925e-003
9.439924e-003
9.439924e-003
9.439924e-003
9.439923e-003
9.439923e-003
9.439923e-003
9.439922e-003
9.439921e-003
9.439921e-003
9.439921e-003
9.439921e-003
9.439920e-003
9.439919e-003
9.439919e-003
9.439920e-003
9.439920e-003
9.439920e-003
9.439920e-003
9.439920e-003
9.439921e-003
9.439921e-003
9.439921e-003
9.439920e-003
9.439919e-003
9.439919e-003
9.439919e-003
9.439920e-003
9.439921e-003
9.439921e-003
9.439920e-003
9.439920e-003
9.439920e-003
9.439920e-003
9.439920e-003
9.439920e-003
9.439920e-003
9.439920e-003
9.439920e-003
9.439920e-003
9.439920e-003
9.439920e-003
9.439920e-003
9.439920e-003
9.439920e-003
9.439920e-003
9.439920e-003
9.439920e-003
9.439920e-003
9.439920e-003
9.439920e-003
9.439920e-003
9.439919e-003
9.439920e-003
9.439920e-003
9.439920e-003
9.439920e-003
9.439921e-003
9.439921e-003
9.439921e-003
9.439921e-003
9.439921e-003
9.439921e-003
9.439921e-003
9.439922e-003
9.439922e-003
9.439922e-003
9.439923e-003
9.439923e-003
9.439924e-003
9.439924e-003
9.439925e-003
9.439926e-003
9.439927e-003
9.439927e-003
9.439928e-003
9.439929e-003
9.439929e-003
9.439930e-003
9.439931e-003
9.439931e-003
9.439931e-003
9.439932e-003
9.439932e-003
9.439932e-003
9.439933e-003
9.439933e-003
9.439933e-003
9.439933e-003
9.439933e-003
9.439932e-003
9.439932e-003
9.439932e-003
9.439931e-003
9.439931e-003
9.439930e-003
9.439930e-003
9.439929e-003
9.439928e-003
9.439927e-003
9.439927e-003
9.439926e-003
9.439925e-003
9.439924e-003
9.439923e-003
9.439923e-003
9.439922e-003
9.439922e-003
9.439921e-003
9.439921e-003
9.439921e-003
9.439921e-003
9.439921e-003
9.439921e-003
9.439920e-003
9.439921e-003
9.439920e-003
9.439920e-003
9.439920e-003
9.439920e-003
9.439920e-003
9.439920e-003
9.439920e-003
9.439920e-003
9.439920e-003
9.439920e-003
9.439920e-003
9.439920e-003
9.439920e-003
9.439920e-003
9.439920e-003
9.439920e-003
9.439920e-003
9.439920e-003
9.439920e-003
9.439920e-003
9.439918e-003
9.439919e-003
9.439921e-003
9.439922e-003
9.439921e-003
9.439920e-003
9.439919e-003
9.439919e-003
9.439919e-003
9.439921e-003
9.439921e-003
9.439921e-003
9.439921e-003
9.439920e-003
9.439919e-003
9.439919e-003
9.439919e-003
9.439919e-003
9.439920e-003
9.439920e-003
9.439921e-003
9.439921e-003
9.439922e-003
9.439922e-003
9.439922e-003
9.439922e-003
9.439923e-003
9.439923e-003
9.439923e-003
9.439923e-003
9.439924e-003
9.439925e-003
9.439926e-003
9.439927e-003
9.439928e-003
9.439929e-003
9.439930e-003
9.439931e-003
9.439932e-003
9.439933e-003
9.439934e-003
9.439935e-003
9.439936e-003
9.439937e-003
9.439937e-003
9.439938e-003
9.439938e-003
9.439939e-003
9.439939e-003
9.439939e-003
9.439939e-003
9.439939e-003
9.439939e-003
9.439939e-003
9.439939e-003
9.439939e-003
9.439938e-003
9.439938e-003
9.439937e-003
9.439936e-003
9.439935e-003
9.439934e-003
9.439933e-003
9.439932e-003
9.439931e-003
9.439930e-003
9.439928e-003
9.439927e-003
9.439926e-003
9.439925e-003
9.439924e-003
9.439923e-003
9.439923e-003
9.439922e-003
9.439922e-003
9.439922e-003
9.439922e-003
9.439922e-003
9.439921e-003
9.439921e-003
9.439921e-003
9.439920e-003
9.439920e-003
9.439920e-003
9.439919e-003
9.439919e-003
9.439919e-003
9.439920e-003
9.439921e-003
9.439921e-003
9.439921e-003
9.439920e-003
9.439919e-003
9.439919e-003
9.439920e-003
9.439920e-003
9.439920e-003
9.439920e-003
9.439920e-003
9.439920e-003
9.439918e-003
9.439919e-003
9.439921e-003
9.439922e-003
9.439921e-003
9.439920e-003
9.439919e-003
9.439918e-003
9.439919e-003
9.439920e-003
9.439921e-003
9.439921e-003
9.439920e-003
9.439919e-003
9.439919e-003
9.439920e-003
9.439920e-003
9.439920e-003
9.439920e-003
9.439920e-003
9.439921e-003
9.439921e-003
9.439922e-003
9.439922e-003
9.439923e-003
9.439923e-003
9.439924e-003
9.439926e-003
9.439927e-003
9.439928e-003
9.439929e-003
9.439931e-003
9.439932e-003
9.439934e-003
9.439935e-003
9.439937e-003
9.439938e-003
9.439939e-003
9.439940e-003
9.439941e-003
9.439942e-003
9.439943e-003
9.439944e-003
9.439944e-003
9.439945e-003
9.439945e-003
9.439946e-003
9.439946e-003
9.439946e-003
9.439946e-003
9.439946e-003
9.439946e-003
9.439946e-003
9.439946e-003
9.439945e-003
9.439945e-003
9.439945e-003
9.439944e-003
9.439943e-003
9.439943e-003
9.439942e-003
9.439941e-003
9.439940e-003
9.439939e-003
9.439938e-003
9.439936e-003
9.439935e-003
9.439934e-003
9.439932e-003
9.439930e-003
9.439929e-003
9.439928e-003
9.439926e-003
9.439925e-003
9.439924e-003
9.439923e-003
9.439922e-003
9.439922e-003
9.439921e-003
9.439921e-003
9.439920e-003
9.439920e-003
9.439920e-003
9.439920e-003
9.439920e-003
9.439919e-003
9.439919e-003
9.439920e-003
9.439921e-003
9.439921e-003
9.439920e-003
9.439920e-003
9.439919e-003
9.439919e-003
9.439920e-003
9.439920e-003
9.439920e-003
9.439920e-003
9.439920e-003
9.439920e-003
9.439920e-003
9.439920e-003
9.439920e-003
9.439920e-003
9.439920e-003
9.439921e-003
9.439920e-003
9.439920e-003
9.439920e-003
9.439920e-003
9.439920e-003
9.439920e-003
9.439919e-003
9.439919e-003
9.439920e-003
9.439921e-003
9.439922e-003
9.439922e-003
9.439921e-003
9.439921e-003
9.439921e-003
9.439922e-003
9.439922e-003
9.439923e-003
9.439924e-003
9.439926e-003
9.439928e-003
9.439930e-003
9.439933e-003
9.439935e-003
9.439937e-003
9.439939e-003
9.439941e-003
9.439943e-003
9.439944e-003
9.439945e-003
9.439946e-003
9.439947e-003
9.439947e-003
9.439947e-003
9.439947e-003
9.439947e-003
9.439947e-003
9.439947e-003
9.439946e-003
9.439946e-003
9.439945e-003
9.439945e-003
9.439944e-003
9.439944e-003
9.439944e-003
9.439943e-003
9.439943e-003
9.439943e-003
9.439943e-003
9.439943e-003
9.439943e-003
9.439943e-003
9.439943e-003
9.439943e-003
9.439944e-003
9.439944e-003
9.439944e-003
9.439944e-003
9.439943e-003
9.439943e-003
9.439942e-003
9.439941e-003
9.439939e-003
9.439937e-003
9.439936e-003
9.439934e-003
9.439932e-003
9.439929e-003
9.439927e-003
9.439925e-003
9.439924e-003
9.439923e-003
9.439922e-003
9.439921e-003
9.439920e-003
9.439920e-003
9.439921e-003
9.439921e-003
9.439921e-003
9.439920e-003
9.439920e-003
9.439920e-003
9.439920e-003
9.439920e-003
9.439920e-003
9.439920e-003
9.439920e-003
9.439920e-003
9.439920e-003
9.439920e-003
9.439920e-003
9.439920e-003
9.439920e-003
9.439920e-003
9.439922e-003
9.439921e-003
9.439919e-003
9.439918e-003
9.439919e-003
9.439921e-003
9.439921e-003
9.439921e-003
9.439920e-003
9.439919e-003
9.439919e-003
9.439919e-003
9.439919e-003
9.439920e-003
9.439921e-003
9.439921e-003
9.439922e-003
9.439922e-003
9.439922e-003
9.439922e-003
9.439923e-003
9.439924e-003
9.439926e-003
9.439927e-003
9.439929e-003
9.439931e-003
9.439934e-003
9.439937e-003
9.439940e-003
9.439942e-003
9.439944e-003
9.439946e-003
9.439947e-003
9.439947e-003
9.439947e-003
9.439946e-003
9.439944e-003
9.439942e-003
9.439940e-003
9.439936e-003
9.439933e-003
9.439929e-003
9.439926e-003
9.439922e-003
9.439918e-003
9.439914e-003
9.439911e-003
9.439908e-003
9.439905e-003
9.439903e-003
9.439902e-003
9.439900e-003
9.439900e-003
9.439900e-003
9.439901e-003
9.439903e-003
9.439906e-003
9.439909e-003
9.439912e-003
9.439916e-003
9.439920e-003
9.439925e-003
9.439929e-003
9.439933e-003
9.439936e-003
9.439939e-003
9.439941e-003
9.439943e-003
9.439943e-003
9.439942e-003
9.439941e-003
9.439940e-003
9.439938e-003
9.439935e-003
9.439932e-003
9.439930e-003
9.439928e-003
9.439926e-003
9.439924e-003
9.439923e-003
9.439922e-003
9.439921e-003
9.439921e-003
9.439921e-003
9.439921e-003
9.439921e-003
9.439920e-003
9.439920e-003
9.439920e-003
9.439919e-003
9.439919e-003
9.439920e-003
9.439920e-003
9.439921e-003
9.439920e-003
9.439920e-003
9.439919e-003
9.439920e-003
9.439920e-003
9.439920e-003
9.439923e-003
9.439921e-003
9.439919e-003
9.439918e-003
9.439919e-003
9.439920e-003
9.439921e-003
9.439921e-003
9.439920e-003
9.439920e-003
9.439919e-003
9.439920e-003
9.439920e-003
9.439921e-003
9.439921e-003
9.439921e-003
9.439921e-003
9.439922e-003
9.439923e-003
9.439924e-003
9.439926e-003
9.439929e-003
9.439931e-003
9.439934e-003
9.439937e-003
9.439940e-003
9.439942e-003
9.439945e-003
9.439946e-003
9.439946e-003
9.439945e-003
9.439943e-003
9.439940e-003
9.439934e-003
9.439927e-003
9.439918e-003
9.439907e-003
9.439895e-003
9.439882e-003
9.439868e-003
9.439853e-003
9.439838e-003
9.439823e-003
9.439808e-003
9.439794e-003
9.439781e-003
9.439769e-003
9.439759e-003
9.439750e-003
9.439743e-003
9.439738e-003
9.439735e-003
9.439734e-003
9.439736e-003
9.439741e-003
9.439748e-003
9.439757e-003
9.439769e-003
9.439783e-003
9.439799e-003
9.439816e-003
9.439834e-003
9.439852e-003
9.439869e-003
9.439885e-003
9.439900e-003
9.439913e-003
9.439923e-003
9.439931e-003
9.439936e-003
9.439940e-003
9.439942e-003
9.439942e-003
9.439940e-003
9.439938e-003
9.439936e-003
9.439934e-003
9.439931e-003
9.439929e-003
9.439926e-003
9.439925e-003
9.439923e-003
9.439922e-003
9.439921e-003
9.439921e-003
9.439921e-003
9.439921e-003
9.439920e-003
9.439920e-003
9.439920e-003
9.439920e-003
9.439920e-003
9.439921e-003
9.439921e-003
9.439920e-003
9.439920e-003
9.439919e-003
9.439920e-003
9.439920e-003
9.439921e-003
9.439921e-003
9.439921e-003
9.439920e-003
9.439920e-003
9.439919e-003
9.439920e-003
9.439920e-003
9.439920e-003
9.439920e-003
9.439920e-003
9.439920e-003
9.439921e-003
9.439922e-003
9.439922e-003
9.439921e-003
9.439921e-003
9.439921e-003
9.439923e-003
9.439926e-003
9.439929e-003
9.439932e-003
9.439935e-003
9.439938e-003
9.439942e-003
9.439945e-003
9.439947e-003
9.439948e-003
9.439947e-003
9.439943e-003
9.439936e-003
9.439925e-003
9.439910e-003
9.439890e-003
9.439865e-003
9.439835e-003
9.439801e-003
9.439763e-003
9.439722e-003
9.439678e-003
9.439633e-003
9.439587e-003
9.439540e-003
9.439495e-003
9.439452e-003
9.439411e-003
9.439373e-003
9.439339e-003
9.439309e-003
9.439284e-003
9.439264e-003
9.439251e-003
9.439244e-003
9.439243e-003
9.439250e-003
9.439263e-003
9.439285e-003
9.439313e-003
9.439348e-003
9.439390e-003
9.439437e-003
9.439488e-003
9.439542e-003
9.439597e-003
9.439652e-003
9.439705e-003
9.439754e-003
9.439798e-003
9.439837e-003
9.439869e-003
9.439894e-003
9.439914e-003
9.439927e-003
9.439936e-003
9.439941e-003
9.439942e-003
9.439942e-003
9.439940e-003
9.439937e-003
9.439934e-003
9.439931e-003
9.439928e-003
9.439926e-003
9.439924e-003
9.439922e-003
9.439921e-003
9.439921e-003
9.439921e-003
9.439921e-003
9.439921e-003
9.439920e-003
9.439920e-003
9.439920e-003
9.439920e-003
9.439920e-003
9.439920e-003
9.439920e-003
9.439920e-003
9.439920e-003
9.439920e-003
9.439920e-003
9.439917e-003
9.439919e-003
9.439921e-003
9.439922e-003
9.439921e-003
9.439919e-003
9.439919e-003
9.439919e-003
9.439920e-003
9.439920e-003
9.439921e-003
9.439921e-003
9.439922e-003
9.439922e-003
9.439922e-003
9.439923e-003
9.439925e-003
9.439927e-003
9.439931e-003
9.439934e-003
9.439938e-003
9.439941e-003
9.439945e-003
9.439948e-003
9.439949e-003
9.439946e-003
9.439938e-003
9.439925e-003
9.439903e-003
9.439873e-003
9.439831e-003
9.439778e-003
9.439712e-003
9.439634e-003
9.439545e-003
9.439445e-003
9.439336e-003
9.439220e-003
9.439099e-003
9.438976e-003
9.438851e-003
9.438729e-003
9.438610e-003
9.438497e-003
9.438391e-003
9.438294e-003
9.438207e-003
9.438132e-003
9.438070e-003
9.438022e-003
9.437988e-003
9.437971e-003
9.437971e-003
9.437989e-003
9.438025e-003
9.438081e-003
9.438154e-003
9.438246e-003
9.438354e-003
9.438476e-003
9.438610e-003
9.438753e-003
9.438900e-003
9.439048e-003
9.439192e-003
9.439330e-003
9.439456e-003
9.439568e-003
9.439665e-003
9.439746e-003
9.439810e-003
9.439859e-003
9.439894e-003
9.439918e-003
9.439932e-003
9.439940e-003
9.439942e-003
9.439941e-003
9.439939e-003
9.439936e-003
9.439933e-003
9.439930e-003
9.439927e-003
9.439924e-003
9.439923e-003
9.439922e-003
9.439921e-003
9.439921e-003
9.439921e-003
9.439921e-003
9.439920e-003
9.439920e-003
9.439920e-003
9.439919e-003
9.439919e-003
9.439920e-003
9.439921e-003
9.439921e-003
9.439920e-003
9.439920e-003
9.439916e-003
9.439918e-003
9.439921e-003
9.439922e-003
9.439921e-003
9.439920e-003
9.439919e-003
9.439919e-003
9.439920e-003
9.439921e-003
9.439921e-003
9.439921e-003
9.439921e-003
9.439923e-003
9.439925e-003
9.439927e-003
9.439930e-003
9.439934e-003
9.439938e-003
9.439942e-003
9.439945e-003
9.439948e-003
9.439948e-003
9.439945e-003
9.439935e-003
9.439914e-003
9.439880e-003
9.439828e-003
9.439756e-003
9.439660e-003
9.439537e-003
9.439385e-003
9.439205e-003
9.438996e-003
9.438761e-003
9.438503e-003
9.438226e-003
9.437934e-003
9.437634e-003
9.437330e-003
9.437028e-003
9.436732e-003
9.436448e-003
9.436178e-003
9.435928e-003
9.435699e-003
9.435496e-003
9.435321e-003
9.435176e-003
9.435064e-003
9.434988e-003
9.434950e-003
9.434952e-003
9.434996e-003
9.435083e-003
9.435214e-003
9.435389e-003
9.435606e-003
9.435863e-003
9.436155e-003
9.436476e-003
9.436820e-003
9.437178e-003
9.437541e-003
9.437898e-003
9.438241e-003
9.438560e-003
9.438850e-003
9.439105e-003
9.439322e-003
9.439500e-003
9.439641e-003
9.439748e-003
9.439825e-003
9.439878e-003
9.439912e-003
9.439930e-003
9.439939e-003
9.439942e-003
9.439941e-003
9.439938e-003
9.439935e-003
9.439932e-003
9.439928e-003
9.439926e-003
9.439924e-003
9.439922e-003
9.439921e-003
9.439921e-003
9.439920e-003
9.439921e-003
9.439920e-003
9.439920e-003
9.439919e-003
9.439920e-003
9.439920e-003
9.439921e-003
9.439921e-003
9.439920e-003
9.439919e-003
9.439917e-003
9.439919e-003
9.439921e-003
9.439921e-003
9.439921e-003
9.439920e-003
9.439920e-003
9.439920e-003
9.439921e-003
9.439921e-003
9.439921e-003
9.439921e-003
9.439922e-003
9.439925e-003
9.439928e-003
9.439932e-003
9.439936e-003
9.439941e-003
9.439946e-003
9.439950e-003
9.439951e-003
9.439947e-003
9.439935e-003
9.439910e-003
9.439865e-003
9.439793e-003
9.439687e-003
9.439537e-003
9.439337e-003
9.439080e-003
9.438761e-003
9.438377e-003
9.437928e-003
9.437418e-003
9.436853e-003
9.436240e-003
9.435590e-003
9.434913e-003
9.434222e-003
9.433529e-003
9.432845e-003
9.432180e-003
9.431544e-003
9.430945e-003
9.430392e-003
9.429889e-003
9.429444e-003
9.429062e-003
9.428748e-003
9.428507e-003
9.428344e-003
9.428263e-003
9.428270e-003
9.428369e-003
9.428562e-003
9.428852e-003
9.429238e-003
9.429718e-003
9.430287e-003
9.430936e-003
9.431655e-003
9.432427e-003
9.433236e-003
9.434062e-003
9.434883e-003
9.435678e-003
9.436428e-003
9.437116e-003
9.437729e-003
9.438260e-003
9.438704e-003
9.439063e-003
9.439343e-003
9.439554e-003
9.439705e-003
9.439808e-003
9.439874e-003
9.439913e-003
9.439933e-003
9.439941e-003
9.439943e-003
9.439941e-003
9.439937e-003
9.439933e-003
9.439930e-003
9.439927e-003
9.439924e-003
9.439922e-003
9.439921e-003
9.439921e-003
9.439921e-003
9.439921e-003
9.439920e-003
9.439920e-003
9.439920e-003
9.439920e-003
9.439920e-003
9.439920e-003
9.439920e-003
9.439919e-003
9.439922e-003
9.439920e-003
9.439919e-003
9.439919e-003
9.439919e-003
9.439920e-003
9.439920e-003
9.439921e-003
9.439922e-003
9.439922e-003
9.439922e-003
9.439923e-003
9.439925e-003
9.439928e-003
9.439933e-003
9.439938e-003
9.439943e-003
9.439948e-003
9.439951e-003
9.439951e-003
9.439942e-003
9.439917e-003
9.439868e-003
9.439783e-003
9.439649e-003
9.439450e-003
9.439168e-003
9.438787e-003
9.438291e-003
9.437668e-003
9.436909e-003
9.436011e-003
9.434978e-003
9.433819e-003
9.432550e-003
9.431190e-003
9.429763e-003
9.428293e-003
9.426806e-003
9.425326e-003
9.423878e-003
9.422481e-003
9.421154e-003
9.419913e-003
9.418772e-003
9.417743e-003
9.416836e-003
9.416061e-003
9.415427e-003
9.414943e-003
9.414618e-003
9.414461e-003
9.414482e-003
9.414688e-003
9.415086e-003
9.415680e-003
9.416472e-003
9.417459e-003
9.418632e-003
9.419978e-003
9.421475e-003
9.423094e-003
9.424803e-003
9.426561e-003
9.428326e-003
9.430052e-003
9.431697e-003
9.433224e-003
9.434602e-003
9.435810e-003
9.436836e-003
9.437681e-003
9.438353e-003
9.438869e-003
9.439250e-003
9.439519e-003
9.439700e-003
9.439816e-003
9.439885e-003
9.439922e-003
9.439938e-003
9.439943e-003
9.439942e-003
9.439938e-003
9.439935e-003
9.439931e-003
9.439927e-003
9.439924e-003
9.439922e-003
9.439921e-003
9.439921e-003
9.439921e-003
9.439921e-003
9.439920e-003
9.439920e-003
9.439920e-003
9.439920e-003
9.439920e-003
9.439920e-003
9.439920e-003
9.439925e-003
9.439922e-003
9.439919e-003
9.439918e-003
9.439919e-003
9.439920e-003
9.439921e-003
9.439921e-003
9.439921e-003
9.439922e-003
9.439924e-003
9.439927e-003
9.439930e-003
9.439934e-003
9.439940e-003
9.439946e-003
9.439951e-003
9.439953e-003
9.439948e-003
9.439929e-003
9.439886e-003
9.439803e-003
9.439659e-003
9.439431e-003
9.439088e-003
9.438597e-003
9.437922e-003
9.437031e-003
9.435893e-003
9.434486e-003
9.432799e-003
9.430833e-003
9.428603e-003
9.426136e-003
9.423469e-003
9.420648e-003
9.417724e-003
9.414749e-003
9.411774e-003
9.408848e-003
9.406014e-003
9.403308e-003
9.400762e-003
9.398403e-003
9.396251e-003
9.394325e-003
9.392641e-003
9.391212e-003
9.390051e-003
9.389173e-003
9.388591e-003
9.388321e-003
9.388376e-003
9.388772e-003
9.389522e-003
9.390636e-003
9.392118e-003
9.393970e-003
9.396181e-003
9.398731e-003
9.401589e-003
9.404711e-003
9.408037e-003
9.411499e-003
9.415016e-003
9.418503e-003
9.421872e-003
9.425042e-003
9.427944e-003
9.430524e-003
9.432749e-003
9.434609e-003
9.436112e-003
9.437286e-003
9.438170e-003
9.438810e-003
9.439255e-003
9.439551e-003
9.439737e-003
9.439846e-003
9.439905e-003
9.439932e-003
9.439942e-003
9.439943e-003
9.439939e-003
9.439935e-003
9.439931e-003
9.439927e-003
9.439925e-003
9.439923e-003
9.439922e-003
9.439921e-003
9.439921e-003
9.439921e-003
9.439921e-003
9.439920e-003
9.439919e-003
9.439919e-003
9.439920e-003
9.439921e-003
9.439924e-003
9.439921e-003
9.439919e-003
9.439918e-003
9.439920e-003
9.439921e-003
9.439922e-003
9.439921e-003
9.439921e-003
9.439923e-003
9.439927e-003
9.439932e-003
9.439936e-003
9.439942e-003
9.439948e-003
9.439953e-003
9.439954e-003
9.439944e-003
9.439913e-003
9.439845e-003
9.439716e-003
9.439492e-003
9.439131e-003
9.438581e-003
9.437780e-003
9.436661e-003
9.435155e-003
9.433200e-003
9.430746e-003
9.427762e-003
9.424244e-003
9.420212e-003
9.415716e-003
9.410828e-003
9.405639e-003
9.400251e-003
9.394768e-003
9.389293e-003
9.383919e-003
9.378728e-003
9.373788e-003
9.369151e-003
9.364861e-003
9.360947e-003
9.357431e-003
9.354331e-003
9.351658e-003
9.349423e-003
9.347637e-003
9.346312e-003
9.345461e-003
9.345101e-003
9.345250e-003
9.345929e-003
9.347159e-003
9.348960e-003
9.351349e-003
9.354340e-003
9.357936e-003
9.362126e-003
9.366884e-003
9.372164e-003
9.377892e-003
9.383972e-003
9.390277e-003
9.396663e-003
9.402969e-003
9.409031e-003
9.414696e-003
9.419835e-003
9.424352e-003
9.428196e-003
9.431359e-003
9.433871e-003
9.435797e-003
9.437218e-003
9.438227e-003
9.438914e-003
9.439362e-003
9.439638e-003
9.439798e-003
9.439884e-003
9.439925e-003
9.439941e-003
9.439943e-003
9.439940e-003
9.439936e-003
9.439932e-003
9.439928e-003
9.439925e-003
9.439923e-003
9.439921e-003
9.439920e-003
9.439921e-003
9.439921e-003
9.439920e-003
9.439919e-003
9.439919e-003
9.439920e-003
9.439921e-003
9.439921e-003
9.439920e-003
9.439919e-003
9.439920e-003
9.439921e-003
9.439922e-003
9.439922e-003
9.439922e-003
9.439923e-003
9.439926e-003
9.439931e-003
9.439937e-003
9.439943e-003
9.439949e-003
9.439955e-003
9.439955e-003
9.439940e-003
9.439896e-003
9.439798e-003
9.439613e-003
9.439288e-003
9.438756e-003
9.437930e-003
9.436702e-003
9.434953e-003
9.432555e-003
9.429389e-003
9.425352e-003
9.420380e-003
9.414459e-003
9.407630e-003
9.399994e-003
9.391701e-003
9.382943e-003
9.373932e-003
9.364882e-003
9.355996e-003
9.347446e-003
9.339375e-003
9.331885e-003
9.325044e-003
9.318888e-003
9.313428e-003
9.308657e-003
9.304556e-003
9.301100e-003
9.298261e-003
9.296010e-003
9.294323e-003
9.293176e-003
9.292555e-003
9.292449e-003
9.292858e-003
9.293792e-003
9.295272e-003
9.297332e-003
9.300019e-003
9.303389e-003
9.307509e-003
9.312445e-003
9.318256e-003
9.324983e-003
9.332627e-003
9.341140e-003
9.350410e-003
9.360255e-003
9.370425e-003
9.380625e-003
9.390531e-003
9.399836e-003
9.408276e-003
9.415660e-003
9.421886e-003
9.426942e-003
9.430895e-003
9.433869e-003
9.436020e-003
9.437516e-003
9.438512e-003
9.439145e-003
9.439529e-003
9.439748e-003
9.439864e-003
9.439919e-003
9.439939e-003
9.439943e-003
9.439941e-003
9.439936e-003
9.439932e-003
9.439928e-003
9.439924e-003
9.439922e-003
9.439921e-003
9.439921e-003
9.439921e-003
9.439921e-003
9.439920e-003
9.439920e-003
9.439920e-003
9.439920e-003
9.439918e-003
9.439919e-003
9.439920e-003
9.439921e-003
9.439922e-003
9.439922e-003
9.439923e-003
9.439924e-003
9.439926e-003
9.439931e-003
9.439937e-003
9.439944e-003
9.439951e-003
9.439956e-003
9.439954e-003
9.439935e-003
9.439878e-003
9.439751e-003
9.439504e-003
9.439064e-003
9.438329e-003
9.437161e-003
9.435388e-003
9.432809e-003
9.429205e-003
9.424360e-003
9.418095e-003
9.410295e-003
9.400949e-003
9.390171e-003
9.378205e-003
9.365410e-003
9.352235e-003
9.339164e-003
9.326675e-003
9.315186e-003
9.305027e-003
9.296420e-003
9.289471e-003
9.284186e-003
9.280481e-003
9.278210e-003
9.277188e-003
9.277210e-003
9.278068e-003
9.279556e-003
9.281482e-003
9.283664e-003
9.285927e-003
9.288112e-003
9.290069e-003
9.291665e-003
9.292794e-003
9.293379e-003
9.293391e-003
9.292860e-003
9.291887e-003
9.290654e-003
9.289432e-003
9.288575e-003
9.288504e-003
9.289669e-003
9.292507e-003
9.297374e-003
9.304482e-003
9.313845e-003
9.325249e-003
9.338255e-003
9.352247e-003
9.366511e-003
9.380332e-003
9.393086e-003
9.404316e-003
9.413763e-003
9.421367e-003
9.427229e-003
9.431562e-003
9.434634e-003
9.436721e-003
9.438079e-003
9.438924e-003
9.439423e-003
9.439702e-003
9.439846e-003
9.439913e-003
9.439938e-003
9.439943e-003
9.439941e-003
9.439936e-003
9.439931e-003
9.439927e-003
9.439924e-003
9.439922e-003
9.439921e-003
9.439921e-003
9.439921e-003
9.439921e-003
9.439920e-003
9.439920e-003
9.439919e-003
9.439917e-003
9.439919e-003
9.439922e-003
9.439922e-003
9.439921e-003
9.439921e-003
9.439923e-003
9.439927e-003
9.439932e-003
9.439937e-003
9.439944e-003
9.439952e-003
9.439957e-003
9.439955e-003
9.439931e-003
9.439863e-003
9.439708e-003
9.439402e-003
9.438843e-003
9.437886e-003
9.436331e-003
9.433917e-003
9.430325e-003
9.425203e-003
9.418197e-003
9.409016e-003
9.397500e-003
9.383708e-003
9.367981e-003
9.350971e-003
9.333619e-003
9.317076e-003
9.302577e-003
9.291300e-003
9.284229e-003
9.282053e-003
9.285111e-003
9.293385e-003
9.306536e-003
9.323965e-003
9.344897e-003
9.368454e-003
9.393733e-003
9.419857e-003
9.446004e-003
9.471424e-003
9.495424e-003
9.517365e-003
9.536639e-003
9.552662e-003
9.564869e-003
9.572728e-003
9.575756e-003
9.573555e-003
9.565858e-003
9.552582e-003
9.533886e-003
9.510233e-003
9.482431e-003
9.451659e-003
9.419447e-003
9.387611e-003
9.358116e-003
9.332885e-003
9.313580e-003
9.301369e-003
9.296749e-003
9.299465e-003
9.308540e-003
9.322439e-003
9.339323e-003
9.357330e-003
9.374845e-003
9.390668e-003
9.404091e-003
9.414858e-003
9.423064e-003
9.429027e-003
9.433167e-003
9.435917e-003
9.437664e-003
9.438724e-003
9.439335e-003
9.439666e-003
9.439833e-003
9.439909e-003
9.439937e-003
9.439943e-003
9.439941e-003
9.439935e-003
9.439931e-003
9.439927e-003
9.439924e-003
9.439922e-003
9.439921e-003
9.439920e-003
9.439921e-003
9.439921e-003
9.439920e-003
9.439919e-003
9.439918e-003
9.439921e-003
9.439923e-003
9.439922e-003
9.439921e-003
9.439921e-003
9.439925e-003
9.439931e-003
9.439938e-003
9.439944e-003
9.439952e-003
9.439958e-003
9.439957e-003
9.439932e-003
9.439856e-003
9.439680e-003
9.439323e-003
9.438655e-003
9.437483e-003
9.435528e-003
9.432419e-003
9.427688e-003
9.420800e-003
9.411215e-003
9.398502e-003
9.382502e-003
9.363524e-003
9.342524e-003
9.321224e-003
9.302091e-003
9.288170e-003
9.282754e-003
9.288979e-003
9.309422e-003
9.345771e-003
9.398651e-003
9.467591e-003
9.551137e-003
9.647049e-003
9.752555e-003
9.864607e-003
9.980113e-003
1.009612e-002
1.020993e-002
1.031914e-002
1.042163e-002
1.051552e-002
1.059908e-002
1.067064e-002
1.072860e-002
1.077135e-002
1.079731e-002
1.080494e-002
1.079292e-002
1.076019e-002
1.070616e-002
1.063087e-002
1.053521e-002
1.042113e-002
1.029170e-002
1.015124e-002
1.000518e-002
9.859778e-003
9.721652e-003
9.597139e-003
9.491576e-003
9.408640e-003
9.349873e-003
9.314535e-003
9.299824e-003
9.301436e-003
9.314343e-003
9.333612e-003
9.355057e-003
9.375631e-003
9.393499e-003
9.407875e-003
9.418733e-003
9.426495e-003
9.431774e-003
9.435199e-003
9.437320e-003
9.438573e-003
9.439276e-003
9.439647e-003
9.439830e-003
9.439910e-003
9.439938e-003
9.439943e-003
9.439940e-003
9.439935e-003
9.439931e-003
9.439927e-003
9.439923e-003
9.439921e-003
9.439920e-003
9.439921e-003
9.439921e-003
9.439920e-003
9.439920e-003
9.439919e-003
9.439922e-003
9.439923e-003
9.439923e-003
9.439922e-003
9.439924e-003
9.439929e-003
9.439936e-003
9.439944e-003
9.439952e-003
9.439958e-003
9.439958e-003
9.439935e-003
9.439859e-003
9.439672e-003
9.439281e-003
9.438530e-003
9.437174e-003
9.434854e-003
9.431069e-003
9.425169e-003
9.416393e-003
9.403966e-003
9.387305e-003
9.366357e-003
9.342037e-003
9.316713e-003
9.294579e-003
9.281754e-003
9.285967e-003
9.315802e-003
9.379621e-003
9.484397e-003
9.634725e-003
9.832197e-003
1.007526e-002
1.035950e-002
1.067821e-002
1.102317e-002
1.138540e-002
1.175582e-002
1.212587e-002
1.248782e-002
1.283495e-002
1.316160e-002
1.346296e-002
1.373489e-002
1.397363e-002
1.417557e-002
1.433709e-002
1.445446e-002
1.452384e-002
1.454138e-002
1.450343e-002
1.440683e-002
1.424931e-002
1.402998e-002
1.374984e-002
1.341240e-002
1.302415e-002
1.259491e-002
1.213789e-002
1.166923e-002
1.120710e-002
1.077021e-002
1.037588e-002
1.003816e-002
9.766019e-003
9.562362e-003
9.423912e-003
9.342156e-003
9.305134e-003
9.299635e-003
9.313271e-003
9.335956e-003
9.360577e-003
9.382917e-003
9.401070e-003
9.414683e-003
9.424258e-003
9.430630e-003
9.434665e-003
9.437098e-003
9.438496e-003
9.439259e-003
9.439650e-003