# vtk DataFile Version 3.0
vtk output
ASCII
DATASET STRUCTURED_POINTS
DIMENSIONS 100 100 1
SPACING 1 1 1
ORIGIN 0 0 0
POINT_DATA 10000
SCALARS SFBox_profile double
LOOKUP_TABLE default 
9.439920e-003
9.439920e-003
9.439920e-003
9.439920e-003
9.439920e-003
9.439920e-003
9.439921e-003
9.439921e-003
9.439921e-003
9.439921e-003
9.439921e-003
9.439922e-003
9.439922e-003
9.439923e-003
9.439924e-003
9.439925e-003
9.439927e-003
9.439929e-003
9.439931e-003
9.439933e-003
9.439936e-003
9.439939e-003
9.439942e-003
9.439946e-003
9.439949e-003
9.439953e-003
9.439956e-003
9.439959e-003
9.439962e-003
9.439965e-003
9.439967e-003
9.439969e-003
9.439971e-003
9.439972e-003
9.439973e-003
9.439973e-003
9.439973e-003
9.439973e-003
9.439972e-003
9.439972e-003
9.439970e-003
9.439969e-003
9.439968e-003
9.439966e-003
9.439964e-003
9.439963e-003
9.439962e-003
9.439960e-003
9.439959e-003
9.439958e-003
9.439958e-003
9.439958e-003
9.439958e-003
9.439959e-003
9.439959e-003
9.439960e-003
9.439961e-003
9.439962e-003
9.439963e-003
9.439964e-003
9.439965e-003
9.439965e-003
9.439964e-003
9.439963e-003
9.439962e-003
9.439959e-003
9.439957e-003
9.439953e-003
9.439950e-003
9.439946e-003
9.439943e-003
9.439939e-003
9.439936e-003
9.439933e-003
9.439930e-003
9.439928e-003
9.439926e-003
9.439924e-003
9.439923e-003
9.439922e-003
9.439921e-003
9.439921e-003
9.439921e-003
9.439920e-003
9.439920e-003
9.439920e-003
9.439920e-003
9.439920e-003
9.439920e-003
9.439920e-003
9.439920e-003
9.439920e-003
9.439920e-003
9.439920e-003
9.439920e-003
9.439920e-003
9.439920e-003
9.439920e-003
9.439920e-003
9.439920e-003
9.439920e-003
9.439920e-003
9.439920e-003
9.439920e-003
9.439920e-003
9.439920e-003
9.439921e-003
9.439921e-003
9.439921e-003
9.439921e-003
9.439921e-003
9.439922e-003
9.439922e-003
9.439923e-003
9.439924e-003
9.439925e-003
9.439927e-003
9.439929e-003
9.439931e-003
9.439933e-003
9.439936e-003
9.439939e-003
9.439942e-003
9.439946e-003
9.439949e-003
9.439953e-003
9.439956e-003
9.439959e-003
9.439962e-003
9.439965e-003
9.439967e-003
9.439969e-003
9.439971e-003
9.439972e-003
9.439973e-003
9.439973e-003
9.439973e-003
9.439973e-003
9.439972e-003
9.439972e-003
9.439970e-003
9.439969e-003
9.439968e-003
9.439966e-003
9.439964e-003
9.439963e-003
9.439962e-003
9.439960e-003
9.439959e-003
9.439958e-003
9.439958e-003
9.439958e-003
9.439958e-003
9.439959e-003
9.439959e-003
9.439960e-003
9.439961e-003
9.439962e-003
9.439963e-003
9.439964e-003
9.439965e-003
9.439965e-003
9.439964e-003
9.439963e-003
9.439962e-003
9.439959e-003
9.439957e-003
9.439953e-003
9.439950e-003
9.439946e-003
9.439943e-003
9.439939e-003
9.439936e-003
9.439933e-003
9.439930e-003
9.439928e-003
9.439926e-003
9.439924e-003
9.439923e-003
9.439922e-003
9.439921e-003
9.439921e-003
9.439921e-003
9.439920e-003
9.439920e-003
9.439920e-003
9.439920e-003
9.439920e-003
9.439920e-003
9.439920e-003
9.439920e-003
9.439920e-003
9.439920e-003
9.439920e-003
9.439920e-003
9.439920e-003
9.439920e-003
9.439920e-003
9.439920e-003
9.439920e-003
9.439920e-003
9.439920e-003
9.439920e-003
9.439920e-003
9.439920e-003
9.439921e-003
9.439921e-003
9.439921e-003
9.439921e-003
9.439921e-003
9.439922e-003
9.439922e-003
9.439923e-003
9.439924e-003
9.439926e-003
9.439927e-003
9.439929e-003
9.439932e-003
9.439934e-003
9.439937e-003
9.439940e-003
9.439943e-003
9.439947e-003
9.439950e-003
9.439952e-003
9.439954e-003
9.439956e-003
9.439957e-003
9.439957e-003
9.439957e-003
9.439956e-003
9.439954e-003
9.439951e-003
9.439947e-003
9.439943e-003
9.439938e-003
9.439933e-003
9.439927e-003
9.439920e-003
9.439914e-003
9.439907e-003
9.439901e-003
9.439894e-003
9.439888e-003
9.439882e-003
9.439877e-003
9.439873e-003
9.439869e-003
9.439866e-003
9.439865e-003
9.439865e-003
9.439866e-003
9.439869e-003
9.439872e-003
9.439878e-003
9.439884e-003
9.439891e-003
9.439898e-003
9.439907e-003
9.439915e-003
9.439923e-003
9.439930e-003
9.439937e-003
9.439942e-003
9.439946e-003
9.439949e-003
9.439950e-003
9.439951e-003
9.439950e-003
9.439948e-003
9.439945e-003
9.439942e-003
9.439939e-003
9.439936e-003
9.439933e-003
9.439930e-003
9.439928e-003
9.439926e-003
9.439924e-003
9.439923e-003
9.439922e-003
9.439921e-003
9.439921e-003
9.439921e-003
9.439920e-003
9.439920e-003
9.439920e-003
9.439920e-003
9.439920e-003
9.439920e-003
9.439920e-003
9.439920e-003
9.439920e-003
9.439920e-003
9.439920e-003
9.439920e-003
9.439920e-003
9.439920e-003
9.439920e-003
9.439920e-003
9.439920e-003
9.439920e-003
9.439920e-003
9.439921e-003
9.439921e-003
9.439921e-003
9.439921e-003
9.439921e-003
9.439922e-003
9.439922e-003
9.439923e-003
9.439924e-003
9.439925e-003
9.439927e-003
9.439929e-003
9.439932e-003
9.439935e-003
9.439938e-003
9.439941e-003
9.439944e-003
9.439947e-003
9.439949e-003
9.439951e-003
9.439951e-003
9.439950e-003
9.439947e-003
9.439942e-003
9.439935e-003
9.439926e-003
9.439915e-003
9.439902e-003
9.439887e-003
9.439870e-003
9.439851e-003
9.439831e-003
9.439810e-003
9.439788e-003
9.439765e-003
9.439742e-003
9.439719e-003
9.439696e-003
9.439674e-003
9.439653e-003
9.439633e-003
9.439615e-003
9.439599e-003
9.439586e-003
9.439576e-003
9.439569e-003
9.439566e-003
9.439567e-003
9.439573e-003
9.439582e-003
9.439596e-003
9.439613e-003
9.439635e-003
9.439659e-003
9.439687e-003
9.439716e-003
9.439746e-003
9.439777e-003
9.439806e-003
9.439835e-003
9.439860e-003
9.439883e-003
9.439902e-003
9.439918e-003
9.439929e-003
9.439937e-003
9.439942e-003
9.439945e-003
9.439945e-003
9.439943e-003
9.439941e-003
9.439938e-003
9.439935e-003
9.439932e-003
9.439929e-003
9.439927e-003
9.439925e-003
9.439923e-003
9.439922e-003
9.439922e-003
9.439921e-003
9.439921e-003
9.439920e-003
9.439920e-003
9.439920e-003
9.439920e-003
9.439920e-003
9.439920e-003
9.439920e-003
9.439920e-003
9.439920e-003
9.439920e-003
9.439920e-003
9.439920e-003
9.439920e-003
9.439920e-003
9.439920e-003
9.439921e-003
9.439921e-003
9.439921e-003
9.439921e-003
9.439921e-003
9.439921e-003
9.439921e-003
9.439922e-003
9.439923e-003
9.439924e-003
9.439925e-003
9.439927e-003
9.439929e-003
9.439932e-003
9.439935e-003
9.439939e-003
9.439942e-003
9.439946e-003
9.439949e-003
9.439950e-003
9.439950e-003
9.439948e-003
9.439942e-003
9.439932e-003
9.439917e-003
9.439898e-003
9.439873e-003
9.439843e-003
9.439807e-003
9.439766e-003
9.439719e-003
9.439668e-003
9.439613e-003
9.439555e-003
9.439493e-003
9.439430e-003
9.439365e-003
9.439299e-003
9.439234e-003
9.439169e-003
9.439106e-003
9.439045e-003
9.438987e-003
9.438934e-003
9.438887e-003
9.438845e-003
9.438811e-003
9.438785e-003
9.438769e-003
9.438762e-003
9.438766e-003
9.438782e-003
9.438809e-003
9.438847e-003
9.438896e-003
9.438955e-003
9.439024e-003
9.439101e-003
9.439183e-003
9.439270e-003
9.439358e-003
9.439446e-003
9.439530e-003
9.439610e-003
9.439682e-003
9.439746e-003
9.439800e-003
9.439845e-003
9.439880e-003
9.439906e-003
9.439924e-003
9.439935e-003
9.439941e-003
9.439943e-003
9.439943e-003
9.439940e-003
9.439937e-003
9.439934e-003
9.439931e-003
9.439928e-003
9.439926e-003
9.439924e-003
9.439923e-003
9.439922e-003
9.439921e-003
9.439921e-003
9.439920e-003
9.439920e-003
9.439920e-003
9.439920e-003
9.439920e-003
9.439920e-003
9.439920e-003
9.439920e-003
9.439920e-003
9.439920e-003
9.439920e-003
9.439920e-003
9.439920e-003
9.439920e-003
9.439921e-003
9.439921e-003
9.439921e-003
9.439921e-003
9.439921e-003
9.439922e-003
9.439922e-003
9.439923e-003
9.439925e-003
9.439926e-003
9.439929e-003
9.439932e-003
9.439935e-003
9.439939e-003
9.439943e-003
9.439947e-003
9.439950e-003
9.439952e-003
9.439950e-003
9.439943e-003
9.439931e-003
9.439911e-003
9.439882e-003
9.439842e-003
9.439790e-003
9.439724e-003
9.439645e-003
9.439553e-003
9.439447e-003
9.439329e-003
9.439199e-003
9.439059e-003
9.438911e-003
9.438755e-003
9.438594e-003
9.438430e-003
9.438263e-003
9.438097e-003
9.437932e-003
9.437770e-003
9.437613e-003
9.437464e-003
9.437323e-003
9.437195e-003
9.437079e-003
9.436980e-003
9.436898e-003
9.436837e-003
9.436799e-003
9.436785e-003
9.436797e-003
9.436836e-003
9.436902e-003
9.436997e-003
9.437119e-003
9.437267e-003
9.437438e-003
9.437629e-003
9.437836e-003
9.438055e-003
9.438280e-003
9.438506e-003
9.438726e-003
9.438935e-003
9.439129e-003
9.439304e-003
9.439457e-003
9.439587e-003
9.439692e-003
9.439776e-003
9.439838e-003
9.439883e-003
9.439912e-003
9.439930e-003
9.439940e-003
9.439943e-003
9.439943e-003
9.439940e-003
9.439937e-003
9.439933e-003
9.439930e-003
9.439927e-003
9.439925e-003
9.439923e-003
9.439922e-003
9.439921e-003
9.439921e-003
9.439921e-003
9.439920e-003
9.439920e-003
9.439920e-003
9.439920e-003
9.439920e-003
9.439920e-003
9.439920e-003
9.439920e-003
9.439920e-003
9.439920e-003
9.439920e-003
9.439920e-003
9.439921e-003
9.439921e-003
9.439921e-003
9.439921e-003
9.439922e-003
9.439923e-003
9.439924e-003
9.439926e-003
9.439928e-003
9.439931e-003
9.439935e-003
9.439939e-003
9.439944e-003
9.439948e-003
9.439952e-003
9.439953e-003
9.439950e-003
9.439941e-003
9.439922e-003
9.439890e-003
9.439842e-003
9.439773e-003
9.439680e-003
9.439560e-003
9.439411e-003
9.439231e-003
9.439019e-003
9.438775e-003
9.438502e-003
9.438202e-003
9.437877e-003
9.437532e-003
9.437169e-003
9.436793e-003
9.436408e-003
9.436018e-003
9.435626e-003
9.435237e-003
9.434854e-003
9.434480e-003
9.434121e-003
9.433781e-003
9.433462e-003
9.433171e-003
9.432912e-003
9.432689e-003
9.432508e-003
9.432373e-003
9.432288e-003
9.432259e-003
9.432288e-003
9.432379e-003
9.432532e-003
9.432749e-003
9.433028e-003
9.433366e-003
9.433759e-003
9.434200e-003
9.434680e-003
9.435190e-003
9.435718e-003
9.436252e-003
9.436777e-003
9.437283e-003
9.437757e-003
9.438190e-003
9.438575e-003
9.438906e-003
9.439183e-003
9.439407e-003
9.439582e-003
9.439712e-003
9.439805e-003
9.439868e-003
9.439907e-003
9.439929e-003
9.439940e-003
9.439943e-003
9.439942e-003
9.439939e-003
9.439935e-003
9.439931e-003
9.439928e-003
9.439926e-003
9.439924e-003
9.439922e-003
9.439921e-003
9.439921e-003
9.439921e-003
9.439920e-003
9.439920e-003
9.439920e-003
9.439920e-003
9.439920e-003
9.439920e-003
9.439920e-003
9.439920e-003
9.439920e-003
9.439920e-003
9.439920e-003
9.439921e-003
9.439921e-003
9.439922e-003
9.439922e-003
9.439923e-003
9.439925e-003
9.439927e-003
9.439930e-003
9.439933e-003
9.439938e-003
9.439943e-003
9.439948e-003
9.439953e-003
9.439955e-003
9.439953e-003
9.439942e-003
9.439919e-003
9.439877e-003
9.439809e-003
9.439708e-003
9.439566e-003
9.439375e-003
9.439126e-003
9.438815e-003
9.438436e-003
9.437988e-003
9.437470e-003
9.436885e-003
9.436238e-003
9.435534e-003
9.434782e-003
9.433990e-003
9.433167e-003
9.432322e-003
9.431463e-003
9.430600e-003
9.429740e-003
9.428892e-003
9.428062e-003
9.427259e-003
9.426490e-003
9.425764e-003
9.425090e-003
9.424475e-003
9.423931e-003
9.423465e-003
9.423087e-003
9.422808e-003
9.422636e-003
9.422579e-003
9.422645e-003
9.422839e-003
9.423166e-003
9.423627e-003
9.424221e-003
9.424942e-003
9.425783e-003
9.426731e-003
9.427770e-003
9.428879e-003
9.430035e-003
9.431213e-003
9.432384e-003
9.433521e-003
9.434598e-003
9.435593e-003
9.436489e-003
9.437272e-003
9.437937e-003
9.438484e-003
9.438920e-003
9.439254e-003
9.439501e-003
9.439676e-003
9.439793e-003
9.439867e-003
9.439911e-003
9.439933e-003
9.439942e-003
9.439943e-003
9.439941e-003
9.439937e-003
9.439933e-003
9.439929e-003
9.439926e-003
9.439924e-003
9.439923e-003
9.439922e-003
9.439921e-003
9.439921e-003
9.439920e-003
9.439920e-003
9.439920e-003
9.439920e-003
9.439920e-003
9.439920e-003
9.439920e-003
9.439920e-003
9.439920e-003
9.439920e-003
9.439922e-003
9.439922e-003
9.439923e-003
9.439924e-003
9.439926e-003
9.439928e-003
9.439931e-003
9.439936e-003
9.439941e-003
9.439947e-003
9.439953e-003
9.439957e-003
9.439957e-003
9.439948e-003
9.439924e-003
9.439878e-003
9.439798e-003
9.439671e-003
9.439482e-003
9.439214e-003
9.438850e-003
9.438374e-003
9.437770e-003
9.437028e-003
9.436141e-003
9.435107e-003
9.433930e-003
9.432618e-003
9.431184e-003
9.429643e-003
9.428015e-003
9.426318e-003
9.424573e-003
9.422797e-003
9.421011e-003
9.419230e-003
9.417472e-003
9.415750e-003
9.414079e-003
9.412474e-003
9.410948e-003
9.409517e-003
9.408195e-003
9.406998e-003
9.405942e-003
9.405045e-003
9.404322e-003
9.403792e-003
9.403469e-003
9.403370e-003
9.403509e-003
9.403896e-003
9.404539e-003
9.405445e-003
9.406612e-003
9.408033e-003
9.409698e-003
9.411584e-003
9.413665e-003
9.415905e-003
9.418260e-003
9.420682e-003
9.423115e-003
9.425504e-003
9.427795e-003
9.429937e-003
9.431888e-003
9.433618e-003
9.435109e-003
9.436354e-003
9.437362e-003
9.438152e-003
9.438748e-003
9.439181e-003
9.439483e-003
9.439683e-003
9.439809e-003
9.439882e-003
9.439921e-003
9.439939e-003
9.439944e-003
9.439942e-003
9.439938e-003
9.439934e-003
9.439930e-003
9.439927e-003
9.439924e-003
9.439923e-003
9.439922e-003
9.439921e-003
9.439921e-003
9.439920e-003
9.439920e-003
9.439920e-003
9.439920e-003
9.439920e-003
9.439920e-003
9.439920e-003
9.439920e-003
9.439920e-003
9.439923e-003
9.439924e-003
9.439925e-003
9.439927e-003
9.439929e-003
9.439933e-003
9.439938e-003
9.439944e-003
9.439951e-003
9.439957e-003
9.439960e-003
9.439956e-003
9.439938e-003
9.439896e-003
9.439815e-003
9.439678e-003
9.439460e-003
9.439133e-003
9.438664e-003
9.438019e-003
9.437163e-003
9.436065e-003
9.434698e-003
9.433046e-003
9.431101e-003
9.428868e-003
9.426360e-003
9.423605e-003
9.420634e-003
9.417486e-003
9.414202e-003
9.410825e-003
9.407396e-003
9.403953e-003
9.400530e-003
9.397160e-003
9.393871e-003
9.390689e-003
9.387637e-003
9.384737e-003
9.382011e-003
9.379481e-003
9.377169e-003
9.375097e-003
9.373289e-003
9.371767e-003
9.370556e-003
9.369681e-003
9.369164e-003
9.369031e-003
9.369301e-003
9.369995e-003
9.371130e-003
9.372717e-003
9.374762e-003
9.377263e-003
9.380210e-003
9.383580e-003
9.387336e-003
9.391428e-003
9.395789e-003
9.400337e-003
9.404979e-003
9.409610e-003
9.414122e-003
9.418412e-003
9.422384e-003
9.425963e-003
9.429097e-003
9.431758e-003
9.433947e-003
9.435690e-003
9.437031e-003
9.438024e-003
9.438733e-003
9.439218e-003
9.439535e-003
9.439731e-003
9.439845e-003
9.439905e-003
9.439933e-003
9.439943e-003
9.439943e-003
9.439940e-003
9.439935e-003
9.439931e-003
9.439927e-003
9.439924e-003
9.439923e-003
9.439922e-003
9.439921e-003
9.439921e-003
9.439920e-003
9.439920e-003
9.439920e-003
9.439920e-003
9.439920e-003
9.439920e-003
9.439920e-003
9.439920e-003
9.439926e-003
9.439926e-003
9.439928e-003
9.439931e-003
9.439935e-003
9.439941e-003
9.439948e-003
9.439955e-003
9.439961e-003
9.439962e-003
9.439953e-003
9.439922e-003
9.439856e-003
9.439730e-003
9.439513e-003
9.439166e-003
9.438638e-003
9.437870e-003
9.436796e-003
9.435349e-003
9.433465e-003
9.431090e-003
9.428185e-003
9.424731e-003
9.420733e-003
9.416222e-003
9.411249e-003
9.405884e-003
9.400209e-003
9.394314e-003
9.388287e-003
9.382216e-003
9.376179e-003
9.370244e-003
9.364472e-003
9.358911e-003
9.353603e-003
9.348582e-003
9.343878e-003
9.339513e-003
9.335509e-003
9.331883e-003
9.328652e-003
9.325831e-003
9.323433e-003
9.321474e-003
9.319969e-003
9.318934e-003
9.318387e-003
9.318347e-003
9.318836e-003
9.319880e-003
9.321503e-003
9.323736e-003
9.326605e-003
9.330139e-003
9.334358e-003
9.339270e-003
9.344870e-003
9.351126e-003
9.357979e-003
9.365336e-003
9.373067e-003
9.381010e-003
9.388976e-003
9.396762e-003
9.404166e-003
9.411006e-003
9.417133e-003
9.422450e-003
9.426913e-003
9.430534e-003
9.433370e-003
9.435511e-003
9.437069e-003
9.438157e-003
9.438887e-003
9.439355e-003
9.439639e-003
9.439802e-003
9.439887e-003
9.439927e-003
9.439942e-003
9.439944e-003
9.439940e-003
9.439935e-003
9.439931e-003
9.439927e-003
9.439924e-003
9.439923e-003
9.439922e-003
9.439921e-003
9.439920e-003
9.439920e-003
9.439920e-003
9.439920e-003
9.439920e-003
9.439920e-003
9.439920e-003
9.439920e-003
9.439929e-003
9.439931e-003
9.439933e-003
9.439938e-003
9.439944e-003
9.439951e-003
9.439959e-003
9.439965e-003
9.439964e-003
9.439949e-003
9.439904e-003
9.439807e-003
9.439624e-003
9.439307e-003
9.438789e-003
9.437989e-003
9.436804e-003
9.435119e-003
9.432810e-003
9.429757e-003
9.425855e-003
9.421028e-003
9.415242e-003
9.408512e-003
9.400909e-003
9.392551e-003
9.383599e-003
9.374241e-003
9.364675e-003
9.355100e-003
9.345697e-003
9.336625e-003
9.328015e-003
9.319968e-003
9.312560e-003
9.305839e-003
9.299838e-003
9.294570e-003
9.290034e-003
9.286215e-003
9.283087e-003
9.280611e-003
9.278739e-003
9.277412e-003
9.276569e-003
9.276141e-003
9.276063e-003
9.276271e-003
9.276710e-003
9.277338e-003
9.278130e-003
9.279084e-003
9.280227e-003
9.281617e-003
9.283350e-003
9.285552e-003
9.288380e-003
9.292007e-003
9.296608e-003
9.302338e-003
9.309307e-003
9.317556e-003
9.327037e-003
9.337598e-003
9.348983e-003
9.360847e-003
9.372780e-003
9.384357e-003
9.395178e-003
9.404918e-003
9.413354e-003
9.420387e-003
9.426025e-003
9.430375e-003
9.433601e-003
9.435901e-003
9.437476e-003
9.438509e-003
9.439157e-003
9.439542e-003
9.439758e-003
9.439870e-003
9.439921e-003
9.439941e-003
9.439944e-003
9.439941e-003
9.439936e-003
9.439931e-003
9.439927e-003
9.439924e-003
9.439923e-003
9.439921e-003
9.439921e-003
9.439920e-003
9.439920e-003
9.439920e-003
9.439920e-003
9.439920e-003
9.439920e-003
9.439920e-003
9.439935e-003
9.439937e-003
9.439941e-003
9.439947e-003
9.439955e-003
9.439963e-003
9.439969e-003
9.439966e-003
9.439945e-003
9.439885e-003
9.439755e-003
9.439508e-003
9.439071e-003
9.438347e-003
9.437205e-003
9.435480e-003
9.432981e-003
9.429496e-003
9.424814e-003
9.418750e-003
9.411176e-003
9.402051e-003
9.391445e-003
9.379552e-003
9.366680e-003
9.353234e-003
9.339678e-003
9.326494e-003
9.314142e-003
9.303029e-003
9.293482e-003
9.285737e-003
9.279943e-003
9.276167e-003
9.274408e-003
9.274612e-003
9.276683e-003
9.280493e-003
9.285877e-003
9.292640e-003
9.300549e-003
9.309331e-003
9.318679e-003
9.328254e-003
9.337690e-003
9.346608e-003
9.354626e-003
9.361370e-003
9.366495e-003
9.369697e-003
9.370738e-003
9.369468e-003
9.365847e-003
9.359974e-003
9.352097e-003
9.342632e-003
9.332160e-003
9.321404e-003
9.311195e-003
9.302412e-003
9.295908e-003
9.292424e-003
9.292499e-003
9.296394e-003
9.304034e-003
9.315001e-003
9.328568e-003
9.343788e-003
9.359624e-003
9.375082e-003
9.389339e-003
9.401817e-003
9.412218e-003
9.420494e-003
9.426792e-003
9.431383e-003
9.434592e-003
9.436740e-003
9.438118e-003
9.438961e-003
9.439451e-003
9.439720e-003
9.439856e-003
9.439917e-003
9.439940e-003
9.439944e-003
9.439941e-003
9.439935e-003
9.439930e-003
9.439927e-003
9.439924e-003
9.439922e-003
9.439921e-003
9.439921e-003
9.439920e-003
9.439920e-003
9.439920e-003
9.439920e-003
9.439920e-003
9.439920e-003
9.439943e-003
9.439946e-003
9.439951e-003
9.439959e-003
9.439967e-003
9.439973e-003
9.439970e-003
9.439943e-003
9.439869e-003
9.439707e-003
9.439393e-003
9.438829e-003
9.437873e-003
9.436334e-003
9.433962e-003
9.430455e-003
9.425472e-003
9.418670e-003
9.409752e-003
9.398536e-003
9.385030e-003
9.369495e-003
9.352487e-003
9.334849e-003
9.317662e-003
9.302149e-003
9.289561e-003
9.281056e-003
9.277601e-003
9.279907e-003
9.288399e-003
9.303219e-003
9.324264e-003
9.351228e-003
9.383666e-003
9.421033e-003
9.462722e-003
9.508076e-003
9.556378e-003
9.606842e-003
9.658591e-003
9.710646e-003
9.761926e-003
9.811256e-003
9.857389e-003
9.899028e-003
9.934865e-003
9.963614e-003
9.984057e-003
9.995093e-003
9.995804e-003
9.985517e-003
9.963890e-003
9.930983e-003
9.887341e-003
9.834047e-003
9.772750e-003
9.705655e-003
9.635450e-003
9.565177e-003
9.498048e-003
9.437195e-003
9.385391e-003
9.344758e-003
9.316518e-003
9.300832e-003
9.296774e-003
9.302480e-003
9.315440e-003
9.332887e-003
9.352192e-003
9.371181e-003
9.388325e-003
9.402763e-003
9.414221e-003
9.422844e-003
9.429025e-003
9.433256e-003
9.436025e-003
9.437759e-003
9.438794e-003
9.439380e-003
9.439693e-003
9.439847e-003
9.439915e-003
9.439940e-003
9.439944e-003
9.439940e-003
9.439935e-003
9.439930e-003
9.439926e-003
9.439924e-003
9.439922e-003
9.439921e-003
9.439921e-003
9.439920e-003
9.439920e-003
9.439920e-003
9.439920e-003
9.439920e-003
9.439955e-003
9.439959e-003
9.439965e-003
9.439973e-003
9.439979e-003
9.439974e-003
9.439944e-003
9.439859e-003
9.439670e-003
9.439296e-003
9.438608e-003
9.437418e-003
9.435457e-003
9.432368e-003
9.427704e-003
9.420950e-003
9.411582e-003
9.399164e-003
9.383492e-003
9.364778e-003
9.343821e-003
9.322129e-003
9.301952e-003
9.286162e-003
9.278022e-003
9.280856e-003
9.297701e-003
9.331006e-003
9.382426e-003
9.452730e-003
9.541830e-003
9.648887e-003
9.772479e-003
9.910782e-003
1.006175e-002
1.022324e-002
1.039309e-002
1.056916e-002
1.074923e-002
1.093098e-002
1.111192e-002
1.128932e-002
1.146022e-002
1.162143e-002
1.176959e-002
1.190120e-002
1.201275e-002
1.210073e-002
1.216182e-002
1.219291e-002
1.219132e-002
1.215493e-002
1.208240e-002
1.197337e-002
1.182868e-002
1.165060e-002
1.144293e-002
1.121110e-002
1.096210e-002
1.070425e-002
1.044685e-002
1.019960e-002
9.971867e-003
9.771862e-003
9.605753e-003
9.476973e-003
9.385821e-003
9.329520e-003
9.302764e-003
9.298652e-003
9.309809e-003
9.329435e-003
9.352057e-003
9.373873e-003
9.392709e-003
9.407703e-003
9.418881e-003
9.426761e-003
9.432044e-003
9.435421e-003
9.437481e-003
9.438679e-003
9.439340e-003
9.439683e-003
9.439847e-003
9.439917e-003
9.439940e-003
9.439944e-003
9.439939e-003
9.439934e-003
9.439929e-003
9.439926e-003
9.439923e-003
9.439922e-003
9.439921e-003
9.439920e-003
9.439920e-003
9.439920e-003
9.439920e-003
9.439920e-003
9.439971e-003
9.439975e-003
9.439981e-003
9.439986e-003
9.439981e-003
9.439950e-003
9.439859e-003
9.439652e-003
9.439231e-003
9.438440e-003
9.437038e-003
9.434673e-003
9.430862e-003
9.424980e-003
9.416293e-003
9.404045e-003
9.387645e-003
9.366961e-003
9.342724e-003
9.316975e-003
9.293440e-003
9.277699e-003
9.276997e-003
9.299700e-003
9.354433e-003
9.449100e-003
9.589973e-003
9.781056e-003
1.002379e-002
1.031711e-002
1.065778e-002
1.104095e-002
1.146065e-002
1.191041e-002
1.238369e-002
1.287418e-002
1.337595e-002
1.388339e-002
1.439106e-002
1.489346e-002
1.538482e-002
1.585897e-002
1.630929e-002
1.672868e-002
1.710973e-002
1.744473e-002
1.772589e-002
1.794545e-002
1.809587e-002
1.817000e-002
1.816141e-002
1.806466e-002
1.787575e-002
1.759258e-002
1.721549e-002
1.674782e-002
1.619638e-002
1.557182e-002
1.488885e-002
1.416606e-002
1.342550e-002
1.269166e-002
1.198999e-002
1.134484e-002
1.077717e-002
1.030214e-002
9.927335e-003
9.651981e-003
9.467428e-003
9.358985e-003
9.308626e-003
9.297943e-003
9.310642e-003
9.334098e-003
9.359813e-003
9.382984e-003
9.401583e-003
9.415336e-003
9.424865e-003
9.431114e-003
9.435011e-003
9.437327e-003
9.438636e-003
9.439338e-003
9.439691e-003
9.439854e-003
9.439921e-003
9.439941e-003
9.439943e-003
9.439938e-003
9.439933e-003
9.439928e-003
9.439925e-003
9.439923e-003
9.439921e-003
9.439921e-003
9.439920e-003
9.439920e-003
9.439920e-003
9.439920e-003
9.439991e-003
9.439994e-003
9.439997e-003
9.439992e-003
9.439961e-003
9.439869e-003
9.439655e-003
9.439208e-003
9.438348e-003
9.436784e-003
9.434083e-003
9.429625e-003
9.422586e-003
9.411970e-003
9.396747e-003
9.376161e-003
9.350293e-003
9.320900e-003
9.292464e-003
9.273214e-003
9.275759e-003
9.316961e-003
9.416805e-003
9.596345e-003
9.875117e-003
1.026860e-002
1.078627e-002
1.143068e-002
1.219755e-002
1.307672e-002
1.405370e-002
1.511137e-002
1.623155e-002
1.739634e-002
1.858907e-002
1.979482e-002
2.100050e-002
2.219449e-002
2.336617e-002
2.450526e-002
2.560130e-002
2.664332e-002
2.761962e-002
2.851781e-002
2.932492e-002
3.002752e-002
3.061192e-002
3.106434e-002
3.137108e-002
3.151882e-002
3.149487e-002
3.128772e-002
3.088763e-002
3.028748e-002
2.948381e-002
2.847794e-002
2.727724e-002
2.589638e-002
2.435845e-002
2.269572e-002
2.094980e-002
1.917092e-002
1.741578e-002
1.574390e-002
1.421235e-002
1.286960e-002
1.174950e-002
1.086695e-002
1.021642e-002
9.774053e-003
9.502938e-003
9.360204e-003
9.304068e-003
9.299176e-003
9.319311e-003
9.347537e-003
9.374592e-003
9.396554e-003
9.412645e-003
9.423590e-003
9.430599e-003
9.434858e-003
9.437320e-003
9.438672e-003
9.439375e-003
9.439716e-003
9.439868e-003
9.439926e-003
9.439942e-003
9.439942e-003
9.439937e-003
9.439931e-003
9.439927e-003
9.439924e-003
9.439922e-003
9.439921e-003
9.439921e-003
9.439920e-003
9.439920e-003
9.439920e-003
9.440014e-003
9.440014e-003
9.440007e-003
9.439977e-003
9.439890e-003
9.439680e-003
9.439232e-003
9.438346e-003
9.436695e-003
9.433770e-003
9.428821e-003
9.420821e-003
9.408486e-003
9.390467e-003
9.365826e-003
9.335000e-003
9.301390e-003
9.273564e-003
9.267706e-003
9.309547e-003
9.434791e-003
9.687186e-003
1.011408e-002
1.076015e-002
1.166080e-002
1.283671e-002
1.429107e-002
1.600960e-002
1.796326e-002
2.011261e-002
2.241256e-002
2.481690e-002
2.728168e-002
2.976766e-002
3.224156e-002
3.467622e-002
3.705006e-002
3.934583e-002
4.154917e-002
4.364714e-002
4.562711e-002
4.747600e-002
4.917990e-002
5.072401e-002
5.209268e-002
5.326956e-002
5.423763e-002
5.497925e-002
5.547614e-002
5.570943e-002
5.565978e-002
5.530769e-002
5.463409e-002
5.362125e-002
5.225412e-002
5.052214e-002
4.842153e-002
4.595811e-002
4.315053e-002
4.003379e-002
3.666245e-002
3.311288e-002
2.948322e-002
2.588984e-002
2.245922e-002
1.931539e-002
1.656451e-002
1.427987e-002
1.249134e-002
1.118261e-002
1.029752e-002
9.753768e-003
9.459813e-003
9.330295e-003
9.296232e-003
9.308858e-003
9.338154e-003
9.368421e-003
9.393220e-003
9.411167e-003
9.423116e-003
9.430577e-003
9.434986e-003
9.437462e-003
9.438780e-003
9.439443e-003
9.439753e-003
9.439885e-003
9.439932e-003
9.439943e-003
9.439941e-003
9.439935e-003
9.439930e-003
9.439926e-003
9.439923e-003
9.439922e-003
9.439921e-003
9.439920e-003
9.439920e-003
9.439920e-003
9.440036e-003
9.440028e-003
9.440000e-003
9.439920e-003
9.439725e-003
9.439299e-003
9.438434e-003
9.436780e-003
9.433775e-003
9.428561e-003
9.419921e-003
9.406282e-003
9.385939e-003
9.357718e-003
9.322455e-003
9.285692e-003
9.261797e-003
9.279124e-003
9.384868e-003
9.647422e-003
1.015386e-002
1.100132e-002
1.228306e-002
1.407244e-002
1.640898e-002
1.929060e-002
2.267367e-002
2.648038e-002
3.061070e-002
3.495557e-002
3.940854e-002
4.387416e-002
4.827285e-002
5.254264e-002
5.663849e-002
6.053018e-002
6.419917e-002
6.763525e-002
7.083334e-002
7.379086e-002
7.650586e-002
7.897584e-002
8.119723e-002
8.316517e-002
8.487343e-002
8.631436e-002
8.747865e-002
8.835504e-002
8.892981e-002
8.918629e-002
8.910433e-002
8.865991e-002
8.782485e-002
8.656693e-002
8.485052e-002
8.263784e-002
7.989135e-002
7.657754e-002
7.267255e-002
6.816986e-002
6.309001e-002
5.749146e-002
5.148040e-002
4.521649e-002
3.891008e-002
3.280759e-002
2.716390e-002
2.220542e-002
1.809276e-002
1.489423e-002
1.257947e-002
1.103565e-002
1.010004e-002
9.597423e-003
9.370985e-003
9.299828e-003
9.302734e-003
9.332317e-003
9.365112e-003
9.391997e-003
9.411106e-003
9.423515e-003
9.431050e-003
9.435375e-003
9.437729e-003
9.438943e-003
9.439532e-003
9.439797e-003
9.439903e-003
9.439937e-003
9.439943e-003
9.439939e-003
9.439933e-003
9.439928e-003
9.439925e-003
9.439923e-003
9.439921e-003
9.439921e-003
9.439920e-003
9.439920e-003
9.440051e-003
9.440027e-003
9.439957e-003
9.439785e-003
9.439399e-003
9.438596e-003
9.437024e-003
9.434093e-003
9.428876e-003
9.420006e-003
9.405648e-003
9.383719e-003
9.352706e-003
9.313688e-003
9.274392e-003
9.256033e-003
9.302861e-003
9.492560e-003
9.943372e-003
1.081245e-002
1.228097e-002
1.452583e-002
1.768351e-002
2.181686e-002
2.689559e-002
3.279722e-002
3.932734e-002
4.625201e-002
5.333199e-002
6.035079e-002
6.713220e-002
7.354718e-002
7.951260e-002
8.498476e-002
8.995071e-002
9.441921e-002
9.841286e-002
1.019618e-001
1.050989e-001
1.078573e-001
1.102679e-001
1.123588e-001
1.141549e-001
1.156778e-001
1.169457e-001
1.179732e-001
1.187711e-001
1.193461e-001
1.197002e-001
1.198298e-001
1.197249e-001
1.193678e-001
1.187315e-001
1.177785e-001
1.164585e-001
1.147074e-001
1.124456e-001
1.095788e-001
1.060008e-001
1.016011e-001
9.627823e-002
8.996057e-002
8.263393e-002
7.437314e-002
6.536995e-002
5.594536e-002
4.653291e-002
3.762531e-002
2.969045e-002
2.307984e-002
1.796155e-002
1.430304e-002
1.190816e-002
1.048925e-002
9.744127e-003
9.413075e-003
9.305478e-003
9.300111e-003
9.330283e-003
9.364989e-003
9.393036e-003
9.412467e-003
9.424726e-003
9.431947e-003
9.435964e-003
9.438082e-003