# vtk DataFile Version 3.0
vtk output
ASCII
DATASET STRUCTURED_POINTS
DIMENSIONS 100 100 1
SPACING 1 1 1
ORIGIN 0 0 0
POINT_DATA 10000
SCALARS SFBox_profile double
LOOKUP_TABLE default 
0.000000e+000
0.000000e+000
0.000000e+000
0.000000e+000
0.000000e+000
0.000000e+000
0.000000e+000
0.000000e+000
0.000000e+000
0.000000e+000
0.000000e+000
0.000000e+000
0.000000e+000
0.000000e+000
0.000000e+000
0.000000e+000
0.000000e+000
0.000000e+000
0.000000e+000
0.000000e+000
0.000000e+000
0.000000e+000
0.000000e+000
0.000000e+000
0.000000e+000
0.000000e+000
0.000000e+000
0.000000e+000
0.000000e+000
0.000000e+000
0.000000e+000
0.000000e+000
0.000000e+000
0.000000e+000
0.000000e+000
0.000000e+000
0.000000e+000
0.000000e+000
0.000000e+000
0.000000e+000
0.000000e+000
0.000000e+000
0.000000e+000
0.000000e+000
0.000000e+000
0.000000e+000
0.000000e+000
0.000000e+000
0.000000e+000
0.000000e+000
0.000000e+000
0.000000e+000
0.000000e+000
0.000000e+000
0.000000e+000
0.000000e+000
0.000000e+000
0.000000e+000
0.000000e+000
0.000000e+000
0.000000e+000
0.000000e+000
0.000000e+000
0.000000e+000
0.000000e+000
0.000000e+000
0.000000e+000
0.000000e+000
0.000000e+000
0.000000e+000
0.000000e+000
0.000000e+000
0.000000e+000
0.000000e+000
0.000000e+000
0.000000e+000
0.000000e+000
0.000000e+000
0.000000e+000
0.000000e+000
0.000000e+000
0.000000e+000
0.000000e+000
0.000000e+000
0.000000e+000
0.000000e+000
0.000000e+000
0.000000e+000
0.000000e+000
0.000000e+000
0.000000e+000
0.000000e+000
0.000000e+000
0.000000e+000
0.000000e+000
0.000000e+000
0.000000e+000
0.000000e+000
0.000000e+000
0.000000e+000
1.132744e-008
4.374828e-009
-4.984639e-009
-1.099601e-008
-1.006552e-008
-2.864092e-009
6.088393e-009
1.121703e-008
9.418659e-009
2.045690e-009
-6.058363e-009
-9.888899e-009
-7.643837e-009
-1.681053e-009
3.584026e-009
5.117908e-009
3.288636e-009
9.460596e-010
5.580619e-010
2.019907e-009
3.037886e-009
1.579064e-009
-2.009212e-009
-5.222476e-009
-5.705256e-009
-3.401421e-009
-5.133266e-010
6.172854e-010
-3.793666e-010
-1.778013e-009
-1.600692e-009
4.693572e-010
2.924965e-009
4.022139e-009
3.436698e-009
2.399989e-009
2.342820e-009
3.506816e-009
4.851957e-009
5.194611e-009
4.346692e-009
3.182705e-009
2.711543e-009
3.144939e-009
3.815565e-009
3.902657e-009
3.208428e-009
2.292853e-009
1.921350e-009
2.367675e-009
3.182691e-009
3.610729e-009
3.284483e-009
2.581974e-009
2.294027e-009
2.858614e-009
3.869512e-009
4.391910e-009
3.866626e-009
2.731604e-009
2.059168e-009
2.468593e-009
3.401298e-009
3.596663e-009
2.394144e-009
5.298240e-010
-5.050737e-010
4.858534e-013
1.129748e-009
1.167768e-009
-6.276891e-010
-3.124040e-009
-4.301024e-009
-3.217345e-009
-9.685457e-010
3.940772e-010
-6.020038e-011
-1.178899e-009
-9.104656e-010
1.494292e-009
4.462867e-009
5.352520e-009
2.861663e-009
-1.644527e-009
-5.134405e-009
-5.337707e-009
-2.463155e-009
1.190251e-009
3.210827e-009
2.840542e-009
1.140298e-009
-2.909178e-010
-7.029305e-010
-5.033823e-010
-4.658531e-010
-8.004661e-010
-1.005162e-009
-5.278168e-010
5.309816e-010
1.417232e-009
1.373685e-009
7.788994e-010
-1.916413e-010
-1.111422e-009
-1.453629e-009
-9.250564e-010
2.050448e-010
1.155598e-009
1.177015e-009
2.144526e-010
-9.198719e-010
-1.146971e-009
-8.223039e-011
1.488307e-009
2.149680e-009
1.064651e-009
-1.191050e-009
-2.982268e-009
-2.945649e-009
-1.153603e-009
9.578458e-010
1.866480e-009
1.285968e-009
3.078423e-010
2.501727e-010
1.338746e-009
2.499424e-009
2.441877e-009
9.458857e-010
-9.178650e-010
-1.822399e-009
-1.424797e-009
-6.006143e-010
-5.016632e-010
-1.424578e-009
-2.597465e-009
-3.016876e-009
-2.435824e-009
-1.535514e-009
-1.192711e-009
-1.633667e-009
-2.291854e-009
-2.429471e-009
-1.856475e-009
-1.066190e-009
-7.233283e-010
-1.038249e-009
-1.606274e-009
-1.819250e-009
-1.441463e-009
-8.235340e-010
-5.688606e-010
-9.582251e-010
-1.663833e-009
-2.039551e-009
-1.743929e-009
-1.103871e-009
-8.255578e-010
-1.285083e-009
-2.097729e-009
-2.452249e-009
-1.934001e-009
-1.001605e-009
-5.659301e-010
-1.039455e-009
-1.838097e-009
-1.917429e-009
-8.526576e-010
6.559354e-010
1.432371e-009
1.009057e-009
1.206822e-010
-4.433383e-011
9.010631e-010
2.075707e-009
2.166816e-009
7.545073e-010
-1.202908e-009
-2.217220e-009
-1.624343e-009
-1.387091e-010
8.827685e-010
7.047011e-010
-2.078005e-010
-7.729602e-010
-3.863056e-010
5.465518e-010
1.083811e-009
6.900830e-010
-2.764434e-010
-9.469257e-010
-7.680399e-010
2.214598e-011
6.705937e-010
6.242837e-010
5.376220e-012
-5.576677e-010
-5.401040e-010
6.670903e-012
5.357403e-010
-1.004201e-008
-3.509965e-009
4.995100e-009
9.960635e-009
8.403132e-009
1.581038e-009
-6.042766e-009
-9.792454e-009
-7.702710e-009
-1.489140e-009
4.914615e-009
8.055172e-009
6.953099e-009
3.155340e-009
-8.484463e-010
-3.404061e-009
-4.346574e-009
-4.354160e-009
-3.914518e-009
-2.928013e-009
-1.150988e-009
1.181070e-009
3.291636e-009
4.424440e-009
4.421645e-009
3.736876e-009
2.925631e-009
2.175607e-009
1.323122e-009
2.356760e-010
-9.284442e-010
-1.868159e-009
-2.481750e-009
-2.976925e-009
-3.613806e-009
-4.381041e-009
-4.982257e-009
-5.153590e-009
-4.957746e-009
-4.726735e-009
-4.715043e-009
-4.840983e-009
-4.794377e-009
-4.391869e-009
-3.798593e-009
-3.380778e-009
-3.344267e-009
-3.536270e-009
-3.615419e-009
-3.413088e-009
-3.111845e-009
-3.055435e-009
-3.385126e-009
-3.879493e-009
-4.168176e-009
-4.101831e-009
-3.892028e-009
-3.870327e-009
-4.118144e-009
-4.363327e-009
-4.260363e-009
-3.757143e-009
-3.150501e-009
-2.766064e-009
-2.609107e-009
-2.367146e-009
-1.757084e-009
-8.288072e-010
1.076222e-010
8.331138e-010
1.434911e-009
2.134133e-009
2.928283e-009
3.472986e-009
3.356589e-009
2.471495e-009
1.081552e-009
-4.524655e-010
-1.927032e-009
-3.212840e-009
-3.970190e-009
-3.620555e-009
-1.800996e-009
1.054147e-009
3.650764e-009
4.552694e-009
3.201093e-009
3.917089e-010
-2.231323e-009
-3.286610e-009
-2.505134e-009
-7.172824e-010
8.892894e-010
1.576893e-009
1.351904e-009
6.886010e-010
6.158239e-011
-3.201513e-010
-4.834096e-010
-5.313353e-010
-1.303971e-008
-4.965153e-009
5.770159e-009
1.243802e-008
1.107904e-008
2.838071e-009
-6.866787e-009
-1.187698e-008
-9.293367e-009
-1.271561e-009
6.649101e-009
9.501932e-009
6.248647e-009
8.886694e-011
-4.354282e-009
-4.607868e-009
-1.826285e-009
8.003713e-010
1.057450e-009
-5.769024e-010
-1.846815e-009
-1.136038e-009
1.000969e-009
2.542128e-009
2.063772e-009
7.818413e-011
-1.576496e-009
-1.543131e-009
-1.212440e-010
1.230977e-009
1.396673e-009
5.523014e-010
-2.500413e-010
-2.555930e-010
3.205848e-010
6.922220e-010
3.941821e-010
-3.037562e-010
-7.902867e-010
-7.724167e-010
-4.888567e-010
-3.507235e-010
-4.930880e-010
-7.144354e-010
-7.768400e-010
-6.660684e-010
-5.450435e-010
-5.306786e-010
-5.895048e-010
-6.379902e-010
-6.664912e-010
-7.171230e-010
-7.785859e-010
-7.791285e-010
-7.037304e-010
-6.566905e-010
-7.382044e-010
-8.675253e-010
-8.117868e-010
-4.531073e-010
7.940181e-012
2.123391e-010
5.266486e-011
-1.411619e-010
6.497181e-011
6.630950e-010
1.087689e-009
7.731883e-010
-1.536331e-010
-8.531441e-010
-5.763695e-010
4.977536e-010
1.342140e-009
1.111572e-009
8.065435e-011
-5.749481e-010
-4.232509e-011
1.114740e-009
1.361924e-009
-2.313087e-010
-2.795347e-009
-4.161317e-009
-2.757756e-009
8.279511e-010
4.140003e-009
4.817147e-009
2.498960e-009
-9.823936e-010
-3.200018e-009
-3.031518e-009
-1.251703e-009
4.787327e-010
1.109747e-009
8.282595e-010
4.633796e-010
4.811840e-010
6.064246e-010
3.209257e-010
-4.249058e-010
-1.085818e-009
-4.722100e-009
-2.296897e-009
1.248583e-009
3.997654e-009
4.328293e-009
1.972850e-009
-1.530348e-009
-3.666439e-009
-2.780891e-009
4.314366e-010
3.211068e-009
2.891258e-009
-7.095517e-010
-4.803979e-009
-5.753690e-009
-2.166540e-009
3.720694e-009
7.725848e-009
7.117055e-009
2.761688e-009
-1.851415e-009
-3.752777e-009
-2.883572e-009
-1.630060e-009
-2.161623e-009
-4.263595e-009
-5.707745e-009
-4.612072e-009
-1.336517e-009
1.917035e-009
3.247890e-009
2.724654e-009
2.016697e-009
2.566232e-009
4.238525e-009
5.690411e-009
5.857832e-009
4.949131e-009
4.051095e-009
3.954725e-009
4.474156e-009
4.828010e-009
4.510163e-009
3.716432e-009
3.023083e-009
2.797907e-009
2.950671e-009
3.141093e-009
3.115675e-009
2.863020e-009
2.563775e-009
2.459562e-009
2.702665e-009
3.213347e-009
3.663834e-009
3.712378e-009
3.361513e-009
3.056144e-009
3.288792e-009
4.024841e-009
4.598762e-009
4.337881e-009
3.338859e-009
2.497404e-009
2.598158e-009
3.358530e-009
3.541935e-009
2.194612e-009
-2.341021e-010
-2.173237e-009
-2.473650e-009
-1.634161e-009
-1.314510e-009
-2.507064e-009
-4.264166e-009
-4.448594e-009
-1.907805e-009
2.105043e-009
4.810441e-009
4.350225e-009
1.457830e-009
-1.270811e-009
-1.782329e-009
-3.188657e-010
1.095196e-009
7.933138e-010
-9.265224e-010
-2.234409e-009
-1.681230e-009
3.569620e-010
2.073741e-009
1.986478e-009
3.044302e-010
-1.357924e-009
-1.551920e-009
-3.030770e-010
1.040881e-009
1.180344e-009
9.073618e-011
-1.040452e-009
8.181703e-009
2.368636e-009
-4.770314e-009
-8.219530e-009
-5.986643e-009
-1.162126e-010
5.280672e-009
7.126609e-009
5.144283e-009
1.249173e-009
-2.396806e-009
-4.754585e-009
-5.741928e-009
-5.272816e-009
-2.940220e-009
1.177557e-009
5.622226e-009
7.961480e-009
6.569460e-009
2.208396e-009
-2.297589e-009
-4.276872e-009
-3.364426e-009
-1.557369e-009
-1.118439e-009
-2.388112e-009
-3.637350e-009
-3.013089e-009
-5.246553e-010
1.949674e-009
2.565765e-009
1.315525e-009
-8.273624e-011
2.033025e-011
1.630428e-009
3.289541e-009
3.654587e-009
2.767140e-009
1.811552e-009
1.804971e-009
2.650552e-009
3.412137e-009
3.340782e-009
2.544197e-009
1.744515e-009
1.536789e-009
1.917127e-009
2.413238e-009
2.552263e-009
2.224846e-009
1.727502e-009
1.523212e-009
1.879491e-009
2.607092e-009
3.138829e-009
2.994319e-009
2.283048e-009
1.704492e-009
1.894637e-009
2.695622e-009
3.178578e-009
2.561702e-009
1.137649e-009
1.346216e-010
4.861092e-010
1.746804e-009
2.407740e-009
1.431757e-009
-5.754022e-010
-1.900674e-009
-1.522628e-009
-2.817780e-010
-7.506644e-011
-1.802835e-009
-4.206872e-009
-4.907937e-009
-2.687890e-009
1.258023e-009
4.346732e-009
4.864227e-009
3.237323e-009
1.217255e-009
1.970039e-011
-6.058197e-010
-1.561647e-009
-2.932460e-009
-3.579571e-009
-2.293602e-009
7.107190e-010
3.580433e-009
4.242883e-009
2.185447e-009
-1.048893e-009
-3.110376e-009
-2.727121e-009
-6.074762e-010
1.329975e-009
1.636179e-009
4.572128e-010
-7.859166e-010
1.478799e-008
5.115165e-009
-7.166882e-009
-1.382796e-008
-1.101400e-008
-1.454351e-009
7.954057e-009
1.120052e-008
7.117733e-009
-4.655884e-010
-6.098843e-009
-6.731401e-009
-3.318963e-009
7.962092e-010
2.879051e-009
2.527771e-009
1.062676e-009
-2.423767e-010
-1.139954e-009
-1.896689e-009
-2.316570e-009
-1.676701e-009
3.198466e-010
2.800772e-009
4.247709e-009
3.870803e-009
2.357796e-009
1.128655e-009
8.592222e-010
8.604897e-010
-2.911310e-011
-2.038816e-009
-4.096039e-009
-4.888012e-009
-4.194210e-009
-3.072860e-009
-2.752360e-009
-3.436278e-009
-4.233962e-009
-4.178103e-009
-3.200057e-009
-2.108137e-009
-1.721370e-009
-2.109252e-009
-2.635725e-009
-2.634599e-009
-2.004725e-009
-1.227735e-009
-8.978376e-010
-1.217201e-009
-1.846155e-009
-2.192577e-009
-1.918324e-009
-1.268515e-009
-9.063839e-010
-1.314134e-009
-2.272093e-009
-2.982246e-009
-2.835494e-009
-2.098080e-009
-1.731737e-009
-2.403677e-009
-3.681297e-009
-4.348140e-009
-3.625262e-009
-2.026719e-009
-8.614862e-010
-8.358904e-010
-1.260429e-009
-7.878837e-010
1.050486e-009
3.171432e-009
3.910118e-009
2.650917e-009
4.192012e-010
-1.144707e-009
-1.296301e-009
-6.211665e-010
-9.743480e-011
1.932024e-011
2.319811e-010
8.515607e-010
1.319183e-009
7.151959e-010
-1.057175e-009
-2.793053e-009
-2.904094e-009
-9.257739e-010
1.884612e-009
3.505652e-009
2.810761e-009
4.372871e-010
-1.835036e-009
-2.541214e-009
-1.545901e-009
1.039274e-010
1.156296e-009
1.067261e-009
2.202022e-010
-5.283770e-010
9.231431e-009
3.536613e-009
-3.860866e-009
-8.107927e-009
-6.651735e-009
-9.233343e-010
4.675632e-009
5.976232e-009
2.217463e-009
-3.294311e-009
-5.768481e-009
-2.842154e-009
3.381987e-009
7.966625e-009
7.139931e-009
1.288936e-009
-5.541731e-009
-9.034785e-009
-7.803382e-009
-3.777455e-009
9.633249e-011
2.363318e-009
3.543066e-009
4.657427e-009
5.741032e-009
5.897290e-009
4.544131e-009
2.245570e-009
1.935387e-010
-9.705271e-010
-1.624762e-009
-2.483354e-009
-3.655099e-009
-4.542394e-009
-4.619137e-009
-4.111616e-009
-3.783581e-009
-4.100008e-009
-4.734854e-009
-4.954410e-009
-4.419708e-009
-3.533126e-009
-3.000512e-009
-3.116194e-009
-3.509600e-009
-3.561746e-009
-3.031383e-009
-2.280758e-009
-1.920062e-009
-2.230585e-009
-2.900916e-009
-3.313624e-009
-3.125928e-009
-2.608381e-009
-2.396670e-009
-2.854250e-009
-3.662333e-009
-4.093590e-009
-3.751093e-009
-3.017849e-009
-2.692918e-009
-3.142703e-009
-3.874379e-009
-4.037448e-009
-3.339122e-009
-2.352802e-009
-1.843098e-009
-1.852590e-009
-1.605249e-009
-3.713890e-010
1.671860e-009
3.559779e-009
4.483617e-009
4.454458e-009
3.953149e-009
3.090907e-009
1.427715e-009
-1.218226e-009
-3.950357e-009
-5.142820e-009
-3.864472e-009
-9.427825e-010
1.577115e-009
2.187725e-009
1.172262e-009
1.070309e-010
1.668586e-010
1.000859e-009
1.287743e-009
2.878552e-010
-1.295175e-009
-2.026047e-009
-1.218469e-009
3.830460e-010
1.382879e-009
1.099657e-009
1.030448e-010
-5.370619e-010
-3.891020e-010
3.396149e-011
-4.220654e-009
-1.054291e-009
2.626819e-009
4.163088e-009
2.952554e-009
4.074309e-010
-1.773641e-009
-3.025355e-009
-3.660942e-009
-3.607077e-009
-1.961771e-009
1.806996e-009
6.313752e-009
8.449297e-009
5.781240e-009
-8.766079e-010
-7.422021e-009
-9.468193e-009
-5.901654e-009
2.590379e-010
4.527222e-009
4.656936e-009
2.027895e-009
-2.868233e-010
-5.782557e-010
3.163791e-010
5.158208e-010
-6.484911e-010
-2.026842e-009
-2.081615e-009
-5.822973e-010
1.249354e-009
2.101972e-009
1.831962e-009
1.335975e-009
1.394475e-009
1.869579e-009
2.049086e-009
1.576899e-009
8.559142e-010
5.402957e-010
7.863042e-010
1.121919e-009
1.024936e-009
5.129712e-010
9.544073e-011
1.813244e-010
6.194403e-010
8.669386e-010
5.843114e-010
4.734217e-012
-3.180297e-010
-1.071494e-010
3.427941e-010
4.992912e-010
1.945307e-010
-1.710893e-010
-6.806574e-011
5.588032e-010
1.213167e-009
1.406402e-009
1.214998e-009
1.161696e-009
1.527697e-009
1.919062e-009
1.668163e-009
6.561151e-010
-4.367788e-010
-8.337343e-010
-5.358680e-010
-2.822221e-010
-5.516377e-010
-7.955395e-010
2.556980e-011
2.032990e-009
3.782046e-009
3.380749e-009
4.341138e-010
-3.237035e-009
-5.042671e-009
-3.910965e-009
-1.131578e-009
1.065333e-009
1.657940e-009
1.471041e-009
1.771954e-009
2.528075e-009
2.351822e-009
2.337584e-010
-2.885413e-009
-4.580010e-009
-3.172134e-009
4.819966e-010
3.542355e-009
3.668583e-009
1.093486e-009
-1.690748e-009
-2.309824e-009
-6.580231e-010
1.200218e-009
-1.463566e-008
-4.633302e-009
7.456952e-009
1.306426e-008
9.298458e-009
2.860769e-010
-6.952409e-009
-8.140895e-009
-4.243286e-009
5.975060e-010
3.070821e-009
2.873882e-009
1.655625e-009
6.228062e-010
-3.993646e-010
-1.775649e-009
-2.652905e-009
-1.421527e-009
2.233691e-009
6.117219e-009
6.935867e-009
3.286581e-009
-2.774630e-009
-7.344605e-009
-8.010547e-009
-5.671094e-009
-3.170352e-009
-2.326615e-009
-2.425574e-009
-1.501124e-009
1.242128e-009
4.517327e-009
6.359599e-009
6.142771e-009
5.040348e-009
4.625076e-009
5.277253e-009
6.060217e-009
5.968876e-009
5.034354e-009
4.142710e-009
3.961708e-009
4.267677e-009
4.344597e-009
3.863097e-009
3.199766e-009
2.914720e-009
3.085203e-009
3.276918e-009
3.120511e-009
2.757441e-009
2.628335e-009
2.897047e-009
3.238040e-009
3.254253e-009
3.002528e-009
2.949980e-009
3.379371e-009
3.977486e-009
4.172445e-009
3.868425e-009
3.655833e-009
4.126658e-009
5.036420e-009
5.377070e-009
4.432828e-009
2.654208e-009
1.234133e-009
7.287834e-010
3.105695e-010
-1.306543e-009
-4.140197e-009
-6.403619e-009
-6.028952e-009
-2.823662e-009
1.061938e-009
3.013306e-009
2.319814e-009
5.942744e-010
-1.269378e-010
5.039948e-010
1.083907e-009
3.784862e-010
-1.050552e-009
-1.415162e-009
1.451003e-010
2.283456e-009
2.612687e-009
2.240638e-010
-3.091277e-009
-4.326281e-009
-2.101365e-009
1.903573e-009
4.364383e-009
3.278314e-009
-2.704106e-010
-3.138469e-009
-2.953429e-009
-1.657618e-010
2.475002e-009
-1.361575e-008
-4.040931e-009
7.290869e-009
1.192918e-008
7.254914e-009
-1.987503e-009
-8.006009e-009
-6.384449e-009
6.619753e-010
6.657551e-009
6.538729e-009
6.642783e-010
-6.046157e-009
-8.602768e-009
-5.809736e-009
-3.369109e-010
4.316267e-009
6.589722e-009
6.944958e-009
6.041036e-009
3.630327e-009
-5.434413e-010
-5.271022e-009
-8.066469e-009
-7.244600e-009
-3.692687e-009
-2.275996e-010
9.806446e-010
2.733339e-010
-2.500058e-010
8.210961e-010
2.747652e-009
3.635940e-009
2.624238e-009
8.081074e-010
-8.004992e-013
8.194567e-010
2.214509e-009
2.752396e-009
2.133458e-009
1.298987e-009
1.225643e-009
1.885404e-009
2.458290e-009
2.362974e-009
1.842031e-009
1.531291e-009
1.675418e-009
1.950877e-009
1.996674e-009
1.885700e-009
1.940589e-009
2.204939e-009
2.329501e-009
2.057220e-009
1.650922e-009
1.621361e-009
2.022534e-009
2.239026e-009
1.674570e-009
5.939801e-010
1.919135e-011
6.203788e-010
1.833551e-009
2.353382e-009
1.599038e-009
4.794274e-010
4.171409e-010
1.588678e-009
2.420064e-009
1.126753e-009
-2.237583e-009
-5.502942e-009
-6.326906e-009
-4.367271e-009
-1.399301e-009
6.549513e-010
1.543403e-009
2.383032e-009
3.770063e-009
4.660514e-009
3.446754e-009
4.597306e-011
-3.457882e-009
-4.540007e-009
-2.621663e-009
3.751140e-010
1.891232e-009
1.101352e-009
-5.524945e-010
-1.038042e-009
2.033175e-010
1.831182e-009
2.058487e-009
4.187347e-010
-1.816289e-009
-2.802042e-009
-1.697227e-009
6.885578e-010
2.575454e-009
-2.264595e-009
6.354335e-011
2.435374e-009
2.391733e-009
-5.301291e-010
-4.043241e-009
-4.689076e-009
-8.555437e-010
5.248366e-009
8.784270e-009
6.173338e-009
-1.512759e-009
-8.908532e-009
-1.054536e-008
-5.342794e-009
2.610650e-009
7.636299e-009
7.042768e-009
2.632751e-009
-1.729691e-009
-3.630067e-009
-3.323277e-009
-2.174853e-009
-7.228344e-010
1.398897e-009
4.052073e-009
5.880760e-009
5.430260e-009
2.804844e-009
-2.147070e-010
-1.881202e-009
-2.132478e-009
-2.349659e-009
-3.576559e-009
-5.279667e-009
-6.011938e-009
-5.113466e-009
-3.463625e-009
-2.497722e-009
-2.699885e-009
-3.263108e-009
-3.154865e-009
-2.256333e-009
-1.332273e-009
-1.051599e-009
-1.297396e-009
-1.477944e-009
-1.289799e-009
-9.594858e-010
-7.911204e-010
-7.387012e-010
-5.782955e-010
-3.618161e-010
-4.323992e-010
-9.156771e-010
-1.404837e-009
-1.393577e-009
-1.005320e-009
-1.030273e-009
-2.039023e-009
-3.560064e-009
-4.417100e-009
-4.002405e-009
-3.026730e-009
-2.737164e-009
-3.378412e-009
-3.709122e-009
-2.302299e-009
7.240438e-010
3.539048e-009
4.306140e-009
2.939597e-009
9.951648e-010
-1.001380e-010
-3.999212e-010
-8.710163e-010
-1.746236e-009
-1.939798e-009
-3.583184e-010
2.427433e-009
4.260972e-009
3.380626e-009
2.256461e-010
-2.901731e-009
-3.959772e-009
-2.835009e-009
-9.604002e-010
3.954443e-010
1.153947e-009
1.828699e-009
2.365098e-009
2.012965e-009
3.897231e-010
-1.671067e-009
-2.676440e-009
-1.926096e-009
-2.262841e-010
9.668307e-010
1.021183e-009
5.841219e-010
1.012563e-008
3.764651e-009
-3.936370e-009
-7.843046e-009
-6.544245e-009
-2.413389e-009
1.364737e-009
3.387392e-009
3.981879e-009
3.517787e-009
1.683477e-009
-1.381680e-009
-3.928194e-009
-3.548748e-009
2.252260e-010
4.583199e-009
5.403885e-009
1.071596e-009
-5.636123e-009
-9.705558e-009
-8.148151e-009
-2.296950e-009
3.852474e-009
7.258021e-009
7.771491e-009
6.991911e-009
5.953012e-009
4.342280e-009
1.694150e-009
-1.354462e-009
-3.429001e-009
-3.873356e-009
-3.422536e-009
-3.275160e-009
-3.736160e-009
-4.046600e-009
-3.493798e-009
-2.369306e-009
-1.638405e-009
-1.807824e-009
-2.389512e-009
-2.536860e-009
-2.006907e-009
-1.318962e-009
-1.049884e-009
-1.207824e-009
-1.379145e-009
-1.310356e-009
-1.132004e-009
-1.036419e-009
-9.716344e-010
-8.021248e-010
-6.423723e-010
-7.822491e-010
-1.225104e-009
-1.509619e-009
-1.208386e-009
-5.598336e-010
-3.545460e-010
-1.050007e-009
-2.140601e-009
-2.652369e-009
-2.292566e-009
-1.869564e-009
-2.355953e-009
-3.613004e-009
-4.323389e-009
-3.325601e-009
-8.577196e-010
1.728529e-009
3.414465e-009
4.363895e-009
5.186329e-009
5.649557e-009
4.634438e-009
1.587657e-009
-2.266397e-009
-4.624879e-009
-4.191737e-009
-1.893689e-009
1.473260e-010
7.291290e-010
4.209552e-010
3.639638e-010
6.692833e-010
4.369052e-010
-7.023333e-010
-1.623526e-009
-8.020817e-010
1.642621e-009
3.493432e-009
2.505241e-009
-1.025106e-009
-4.102986e-009
-3.805226e-009
-2.758844e-010
3.224480e-009
3.449968e-009
3.829711e-010
-2.755809e-009
1.426791e-008
3.619200e-009
-8.194596e-009
-1.177698e-008
-5.670506e-009
3.417896e-009
7.420298e-009
3.955145e-009
-2.608316e-009
-6.117076e-009
-4.206515e-009
6.269772e-010
4.450418e-009
5.541975e-009
4.712380e-009
3.003645e-009
2.071106e-010
-3.989205e-009
-8.077668e-009
-9.037540e-009
-5.144860e-009
1.727662e-009
7.163557e-009
7.880780e-009
4.394598e-009
8.101279e-011
-2.149995e-009
-2.077992e-009
-1.371534e-009
-1.215930e-009
-1.169094e-009
-1.883996e-010
1.792041e-009
3.680515e-009
4.461594e-009
4.220332e-009
3.817043e-009
3.800717e-009
3.922728e-009
3.679368e-009
3.039394e-009
2.455874e-009
2.281577e-009
2.397841e-009
2.453978e-009
2.300849e-009
2.064623e-009
1.885826e-009
1.762156e-009
1.666943e-009
1.660655e-009
1.766468e-009
1.824719e-009
1.649906e-009
1.357585e-009
1.365978e-009
1.929715e-009
2.746466e-009
3.220455e-009
3.163916e-009
3.059394e-009
3.451567e-009
4.151747e-009
4.294527e-009
3.295389e-009
1.581336e-009
1.520045e-010
-5.286159e-010
-9.041063e-010
-1.445251e-009
-1.672581e-009
-5.231267e-010
2.148560e-009
4.766787e-009
5.193911e-009
2.819864e-009
-7.389271e-010
-3.210781e-009
-3.786497e-009
-3.415502e-009
-3.097854e-009
-2.422321e-009
-2.840941e-010
3.064767e-009
5.357219e-009
4.312644e-009
3.164278e-010
-3.387759e-009
-3.646047e-009
-5.838601e-010
2.415979e-009
2.134683e-009
-1.124072e-009
-3.773004e-009
-2.634142e-009
1.660945e-009
5.083546e-009
4.117150e-009
-6.926149e-010
-5.091947e-009
8.411851e-009
-1.300079e-013
-8.229629e-009
-8.164307e-009
2.715832e-010
9.206298e-009
1.020412e-008
1.998773e-009
-8.474583e-009
-1.245280e-008
-7.028743e-009
2.840238e-009
9.330955e-009
8.565185e-009
2.943067e-009
-2.315852e-009
-4.136372e-009
-3.165670e-009
-1.438362e-009
2.876050e-010
2.440405e-009
4.615686e-009
4.846122e-009
1.524195e-009
-4.240133e-009
-8.880831e-009
-9.368639e-009
-5.857410e-009
-1.226746e-009
1.838774e-009
3.065675e-009
4.014372e-009
5.806468e-009
7.853267e-009
8.760257e-009
8.034916e-009
6.585575e-009
5.658013e-009
5.607712e-009
5.818435e-009
5.598102e-009
4.901597e-009
4.196362e-009
3.852818e-009
3.812754e-009
3.770348e-009
3.518434e-009
3.093439e-009
2.686966e-009
2.479986e-009
2.508449e-009
2.623119e-009
2.611439e-009
2.433077e-009
2.322485e-009
2.562164e-009
3.123054e-009
3.637074e-009
3.836385e-009
3.956763e-009
4.515251e-009
5.615159e-009
6.638223e-009
6.833335e-009
6.169908e-009
5.336297e-009
4.744698e-009
3.773459e-009
1.410735e-009
-2.227755e-009
-5.360414e-009
-5.954349e-009
-3.763008e-009
-6.835549e-010
1.111136e-009
1.227217e-009
9.678394e-010
1.310251e-009
1.510049e-009
1.729338e-010
-2.458665e-009
-3.985150e-009
-2.170300e-009
2.286171e-009
5.812959e-009
5.212126e-009
8.470583e-010
-3.604309e-009
-4.650275e-009
-2.172458e-009
8.476581e-010
1.553861e-009
-3.807568e-011
-1.444397e-009
-5.734381e-010
2.022763e-009
3.710089e-009
2.439927e-009
-1.156575e-009
-4.226499e-009
-1.364783e-009
-3.308872e-009
-4.073500e-009
-1.003549e-009
4.896679e-009
9.099251e-009
7.324916e-009
-1.826957e-010
-8.029293e-009
-9.908051e-009
-4.251521e-009
4.035480e-009
7.781012e-009
3.995355e-009
-3.524565e-009
-7.887660e-009
-5.401326e-009
1.588683e-009
7.577780e-009
9.011732e-009
6.484649e-009
2.657773e-009
-8.792935e-010
-4.213970e-009
-7.263212e-009
-8.536089e-009
-6.427260e-009
-1.458004e-009
3.509884e-009
5.685088e-009
4.823862e-009
3.090009e-009
2.581731e-009
3.314890e-009
3.696630e-009
2.624666e-009
7.229326e-010
-4.965116e-010
-3.476782e-010
3.998482e-010
4.831320e-010
-5.456940e-010
-2.050445e-009
-3.147692e-009
-3.593098e-009
-3.838537e-009
-4.389278e-009
-5.242050e-009
-5.938707e-009
-6.074352e-009
-5.692481e-009
-5.185534e-009
-4.840353e-009
-4.528236e-009
-3.896157e-009
-2.869843e-009
-1.873665e-009
-1.420460e-009
-1.470424e-009
-1.357206e-009
-5.130013e-010
7.893848e-010
1.659700e-009
1.681192e-009
1.578599e-009
2.451962e-009
4.260913e-009
5.392204e-009
4.126878e-009
5.755490e-010
-3.150277e-009
-4.906709e-009
-4.496926e-009
-3.420266e-009
-2.754713e-009
-1.814602e-009
6.757930e-010
4.295973e-009
6.516354e-009
5.072703e-009
6.327550e-010
-3.388117e-009
-3.948262e-009
-1.218626e-009
1.815854e-009
2.428910e-009
5.872912e-010
-1.569089e-009
-2.184013e-009
-1.264747e-009
-4.185106e-011
6.218040e-010
8.304808e-010
9.585873e-010
9.418689e-010
5.031801e-010
-2.143717e-010
-6.522191e-010
-5.190861e-010
-1.812456e-010
-7.594954e-009
-2.945654e-009
2.430812e-009
4.852861e-009
3.803359e-009
1.345787e-009
-5.254091e-010
-1.329566e-009
-1.286215e-009
-2.306596e-010
1.826785e-009
3.431702e-009
2.204990e-009
-2.494268e-009
-7.703927e-009
-8.697345e-009
-3.446014e-009
4.824318e-009
1.005665e-008
8.673234e-009
2.523979e-009
-3.299252e-009
-5.196987e-009
-3.475504e-009
-6.255546e-010
1.785862e-009
3.980031e-009
6.258305e-009
7.536829e-009
6.243379e-009
2.407695e-009
-1.842432e-009
-4.207247e-009
-4.419623e-009
-4.248401e-009
-5.408467e-009
-7.814667e-009
-1.002718e-008
-1.113643e-008
-1.183469e-008
-1.357263e-008
-1.692536e-008
-2.102094e-008
-2.451601e-008
-2.689656e-008
-2.870927e-008
-3.065132e-008
-3.265581e-008
-3.395538e-008
-3.393776e-008
-3.277361e-008
-3.113882e-008
-2.940740e-008
-2.727898e-008
-2.429061e-008
-2.061250e-008
-1.713310e-008
-1.462285e-008
-1.290272e-008
-1.107185e-008
-8.656973e-009
-6.339003e-009
-5.234492e-009
-5.406473e-009
-5.399864e-009
-3.606724e-009
-9.712329e-011
3.220784e-009
4.470248e-009
3.665877e-009
2.425405e-009
1.902100e-009
1.484237e-009
-8.468922e-011
-2.536848e-009
-3.703579e-009
-1.727275e-009
2.561002e-009
5.973802e-009
5.874309e-009
2.567446e-009
-1.304824e-009
-3.440021e-009
-3.582879e-009
-2.763383e-009
-1.612432e-009
-4.123036e-011
1.669783e-009
2.381662e-009
1.308743e-009
-5.842695e-010
-1.200569e-009
3.020761e-010
2.172982e-009
1.778647e-009
-1.241546e-009
-4.064614e-009
-3.458358e-009
5.806581e-010
4.439329e-009
-7.871950e-009
6.247013e-010
8.344746e-009
7.291227e-009
-1.380713e-009
-9.131028e-009
-8.830389e-009
-1.261572e-009
6.659278e-009
8.995574e-009
5.546673e-009
3.038181e-010
-3.264984e-009
-4.572390e-009
-4.408598e-009
-2.853495e-009
2.952145e-010
3.643304e-009
4.280187e-009
6.597025e-010
-4.943362e-009
-7.780092e-009
-4.907650e-009
2.027807e-009
8.442630e-009
1.100513e-008
9.935591e-009
7.500386e-009
5.090417e-009
2.333264e-009
-1.303385e-009
-5.011809e-009
-7.337336e-009
-8.105816e-009
-9.019046e-009
-1.206250e-008
-1.758490e-008
-2.425916e-008
-3.083260e-008
-3.751981e-008
-4.547518e-008
-5.512051e-008
-6.535557e-008
-7.450685e-008
-8.182684e-008
-8.783589e-008
-9.324707e-008
-9.782643e-008
-1.004960e-007
-1.004719e-007
-9.805854e-008
-9.419396e-008
-8.933892e-008
-8.306720e-008
-7.486481e-008
-6.517221e-008
-5.535218e-008
-4.651604e-008
-3.856749e-008
-3.067564e-008
-2.270225e-008
-1.584007e-008
-1.151451e-008
-9.688571e-009
-8.604678e-009
-6.443764e-009
-3.088591e-009
5.255036e-011
1.927936e-009
3.097906e-009
4.768790e-009
6.815917e-009
7.420660e-009
5.062737e-009
6.181590e-010
-3.047152e-009
-3.723939e-009
-1.818005e-009
4.761022e-010
1.575217e-009
1.592208e-009
1.180298e-009
1.742386e-010
-1.873222e-009
-4.061012e-009
-4.127400e-009
-8.656785e-010
3.729266e-009
5.705071e-009
3.129979e-009
-1.509128e-009
-3.601558e-009
-1.308722e-009
2.322604e-009
2.653295e-009
-1.263202e-009
-5.309141e-009
-4.619484e-009
9.737408e-010
6.381124e-009
-5.309392e-009
3.647506e-009
1.072254e-008
6.952059e-009
-5.216153e-009
-1.442648e-008
-1.190736e-008
-1.391530e-011
1.051336e-008
1.115640e-008
3.150975e-009
-4.986585e-009
-6.314439e-009
-1.320109e-009
4.233411e-009
5.734587e-009
3.242810e-009
-4.630835e-010
-3.535398e-009
-5.859081e-009
-7.096652e-009
-5.674813e-009
-6.315338e-010
6.100143e-009
1.041937e-008
9.601293e-009