# vtk DataFile Version 3.0
vtk output
ASCII
DATASET STRUCTURED_POINTS
DIMENSIONS 100 100 1
SPACING 1 1 1
ORIGIN 0 0 0
POINT_DATA 10000
SCALARS SFBox_profile double
LOOKUP_TABLE default 
9.439917e-003
9.439918e-003
9.439920e-003
9.439921e-003
9.439922e-003
9.439922e-003
9.439922e-003
9.439921e-003
9.439920e-003
9.439920e-003
9.439919e-003
9.439919e-003
9.439920e-003
9.439920e-003
9.439919e-003
9.439919e-003
9.439919e-003
9.439919e-003
9.439920e-003
9.439920e-003
9.439921e-003
9.439921e-003
9.439921e-003
9.439921e-003
9.439920e-003
9.439920e-003
9.439920e-003
9.439920e-003
9.439920e-003
9.439920e-003
9.439920e-003
9.439920e-003
9.439919e-003
9.439920e-003
9.439920e-003
9.439920e-003
9.439921e-003
9.439921e-003
9.439921e-003
9.439921e-003
9.439921e-003
9.439922e-003
9.439922e-003
9.439922e-003
9.439923e-003
9.439923e-003
9.439923e-003
9.439923e-003
9.439923e-003
9.439924e-003
9.439924e-003
9.439924e-003
9.439924e-003
9.439924e-003
9.439924e-003
9.439924e-003
9.439924e-003
9.439924e-003
9.439923e-003
9.439923e-003
9.439923e-003
9.439923e-003
9.439922e-003
9.439922e-003
9.439921e-003
9.439921e-003
9.439920e-003
9.439920e-003
9.439920e-003
9.439920e-003
9.439920e-003
9.439920e-003
9.439920e-003
9.439920e-003
9.439920e-003
9.439920e-003
9.439921e-003
9.439922e-003
9.439922e-003
9.439922e-003
9.439922e-003
9.439921e-003
9.439920e-003
9.439920e-003
9.439920e-003
9.439919e-003
9.439919e-003
9.439918e-003
9.439918e-003
9.439918e-003
9.439918e-003
9.439919e-003
9.439920e-003
9.439921e-003
9.439922e-003
9.439922e-003
9.439921e-003
9.439920e-003
9.439919e-003
9.439919e-003
9.439917e-003
9.439918e-003
9.439920e-003
9.439921e-003
9.439922e-003
9.439922e-003
9.439922e-003
9.439921e-003
9.439920e-003
9.439920e-003
9.439919e-003
9.439919e-003
9.439920e-003
9.439920e-003
9.439919e-003
9.439919e-003
9.439919e-003
9.439919e-003
9.439920e-003
9.439920e-003
9.439921e-003
9.439921e-003
9.439921e-003
9.439921e-003
9.439920e-003
9.439920e-003
9.439920e-003
9.439920e-003
9.439920e-003
9.439920e-003
9.439920e-003
9.439920e-003
9.439919e-003
9.439920e-003
9.439920e-003
9.439920e-003
9.439921e-003
9.439921e-003
9.439921e-003
9.439921e-003
9.439921e-003
9.439922e-003
9.439922e-003
9.439922e-003
9.439923e-003
9.439923e-003
9.439923e-003
9.439923e-003
9.439923e-003
9.439924e-003
9.439924e-003
9.439924e-003
9.439924e-003
9.439924e-003
9.439924e-003
9.439924e-003
9.439924e-003
9.439924e-003
9.439923e-003
9.439923e-003
9.439923e-003
9.439923e-003
9.439922e-003
9.439922e-003
9.439921e-003
9.439921e-003
9.439920e-003
9.439920e-003
9.439920e-003
9.439920e-003
9.439920e-003
9.439920e-003
9.439920e-003
9.439920e-003
9.439920e-003
9.439920e-003
9.439921e-003
9.439922e-003
9.439922e-003
9.439922e-003
9.439922e-003
9.439921e-003
9.439920e-003
9.439920e-003
9.439920e-003
9.439919e-003
9.439919e-003
9.439918e-003
9.439918e-003
9.439918e-003
9.439918e-003
9.439919e-003
9.439920e-003
9.439921e-003
9.439922e-003
9.439922e-003
9.439921e-003
9.439920e-003
9.439919e-003
9.439919e-003
9.439919e-003
9.439919e-003
9.439920e-003
9.439921e-003
9.439921e-003
9.439921e-003
9.439921e-003
9.439920e-003
9.439920e-003
9.439920e-003
9.439920e-003
9.439920e-003
9.439920e-003
9.439920e-003
9.439920e-003
9.439920e-003
9.439920e-003
9.439920e-003
9.439920e-003
9.439920e-003
9.439920e-003
9.439920e-003
9.439920e-003
9.439920e-003
9.439920e-003
9.439920e-003
9.439920e-003
9.439920e-003
9.439921e-003
9.439921e-003
9.439921e-003
9.439921e-003
9.439921e-003
9.439921e-003
9.439922e-003
9.439922e-003
9.439923e-003
9.439923e-003
9.439923e-003
9.439923e-003
9.439924e-003
9.439924e-003
9.439924e-003
9.439925e-003
9.439925e-003
9.439925e-003
9.439926e-003
9.439926e-003
9.439926e-003
9.439926e-003
9.439926e-003
9.439926e-003
9.439926e-003
9.439927e-003
9.439927e-003
9.439927e-003
9.439926e-003
9.439926e-003
9.439926e-003
9.439925e-003
9.439925e-003
9.439925e-003
9.439925e-003
9.439924e-003
9.439924e-003
9.439923e-003
9.439923e-003
9.439922e-003
9.439922e-003
9.439922e-003
9.439922e-003
9.439921e-003
9.439921e-003
9.439921e-003
9.439920e-003
9.439920e-003
9.439921e-003
9.439921e-003
9.439921e-003
9.439921e-003
9.439921e-003
9.439920e-003
9.439920e-003
9.439920e-003
9.439920e-003
9.439919e-003
9.439919e-003
9.439919e-003
9.439919e-003
9.439919e-003
9.439919e-003
9.439919e-003
9.439920e-003
9.439921e-003
9.439921e-003
9.439921e-003
9.439921e-003
9.439920e-003
9.439920e-003
9.439919e-003
9.439921e-003
9.439921e-003
9.439921e-003
9.439920e-003
9.439920e-003
9.439920e-003
9.439920e-003
9.439920e-003
9.439920e-003
9.439920e-003
9.439920e-003
9.439920e-003
9.439920e-003
9.439920e-003
9.439920e-003
9.439920e-003
9.439920e-003
9.439920e-003
9.439919e-003
9.439919e-003
9.439919e-003
9.439919e-003
9.439919e-003
9.439920e-003
9.439920e-003
9.439920e-003
9.439921e-003
9.439921e-003
9.439922e-003
9.439922e-003
9.439923e-003
9.439923e-003
9.439924e-003
9.439924e-003
9.439925e-003
9.439925e-003
9.439926e-003
9.439926e-003
9.439927e-003
9.439927e-003
9.439928e-003
9.439928e-003
9.439929e-003
9.439929e-003
9.439930e-003
9.439930e-003
9.439930e-003
9.439931e-003
9.439931e-003
9.439931e-003
9.439931e-003
9.439931e-003
9.439932e-003
9.439932e-003
9.439932e-003
9.439931e-003
9.439931e-003
9.439931e-003
9.439930e-003
9.439930e-003
9.439930e-003
9.439929e-003
9.439929e-003
9.439928e-003
9.439928e-003
9.439927e-003
9.439927e-003
9.439926e-003
9.439926e-003
9.439925e-003
9.439924e-003
9.439924e-003
9.439923e-003
9.439922e-003
9.439921e-003
9.439921e-003
9.439920e-003
9.439920e-003
9.439919e-003
9.439919e-003
9.439919e-003
9.439919e-003
9.439919e-003
9.439919e-003
9.439920e-003
9.439920e-003
9.439920e-003
9.439920e-003
9.439920e-003
9.439920e-003
9.439920e-003
9.439920e-003
9.439920e-003
9.439920e-003
9.439920e-003
9.439920e-003
9.439920e-003
9.439920e-003
9.439920e-003
9.439920e-003
9.439923e-003
9.439922e-003
9.439921e-003
9.439920e-003
9.439919e-003
9.439919e-003
9.439919e-003
9.439919e-003
9.439920e-003
9.439920e-003
9.439920e-003
9.439920e-003
9.439921e-003
9.439921e-003
9.439921e-003
9.439921e-003
9.439920e-003
9.439920e-003
9.439920e-003
9.439919e-003
9.439919e-003
9.439919e-003
9.439919e-003
9.439920e-003
9.439920e-003
9.439921e-003
9.439922e-003
9.439923e-003
9.439923e-003
9.439924e-003
9.439925e-003
9.439926e-003
9.439927e-003
9.439928e-003
9.439929e-003
9.439930e-003
9.439930e-003
9.439931e-003
9.439932e-003
9.439933e-003
9.439934e-003
9.439934e-003
9.439935e-003
9.439936e-003
9.439936e-003
9.439937e-003
9.439937e-003
9.439938e-003
9.439938e-003
9.439938e-003
9.439938e-003
9.439939e-003
9.439939e-003
9.439939e-003
9.439938e-003
9.439938e-003
9.439938e-003
9.439937e-003
9.439937e-003
9.439936e-003
9.439936e-003
9.439935e-003
9.439934e-003
9.439933e-003
9.439933e-003
9.439932e-003
9.439931e-003
9.439930e-003
9.439929e-003
9.439928e-003
9.439927e-003
9.439926e-003
9.439925e-003
9.439924e-003
9.439923e-003
9.439921e-003
9.439920e-003
9.439919e-003
9.439919e-003
9.439918e-003
9.439918e-003
9.439918e-003
9.439919e-003
9.439919e-003
9.439920e-003
9.439920e-003
9.439921e-003
9.439921e-003
9.439921e-003
9.439921e-003
9.439920e-003
9.439920e-003
9.439920e-003
9.439919e-003
9.439919e-003
9.439919e-003
9.439920e-003
9.439920e-003
9.439921e-003
9.439921e-003
9.439924e-003
9.439923e-003
9.439921e-003
9.439920e-003
9.439919e-003
9.439918e-003
9.439919e-003
9.439919e-003
9.439920e-003
9.439920e-003
9.439920e-003
9.439920e-003
9.439920e-003
9.439920e-003
9.439920e-003
9.439921e-003
9.439921e-003
9.439920e-003
9.439920e-003
9.439920e-003
9.439920e-003
9.439920e-003
9.439920e-003
9.439921e-003
9.439922e-003
9.439923e-003
9.439924e-003
9.439925e-003
9.439926e-003
9.439927e-003
9.439928e-003
9.439930e-003
9.439931e-003
9.439933e-003
9.439934e-003
9.439935e-003
9.439936e-003
9.439938e-003
9.439939e-003
9.439940e-003
9.439941e-003
9.439942e-003
9.439943e-003
9.439943e-003
9.439944e-003
9.439945e-003
9.439945e-003
9.439945e-003
9.439946e-003
9.439946e-003
9.439946e-003
9.439946e-003
9.439946e-003
9.439946e-003
9.439945e-003
9.439945e-003
9.439944e-003
9.439944e-003
9.439943e-003
9.439942e-003
9.439942e-003
9.439941e-003
9.439940e-003
9.439939e-003
9.439938e-003
9.439936e-003
9.439935e-003
9.439934e-003
9.439933e-003
9.439931e-003
9.439930e-003
9.439928e-003
9.439927e-003
9.439926e-003
9.439924e-003
9.439923e-003
9.439921e-003
9.439920e-003
9.439919e-003
9.439919e-003
9.439918e-003
9.439919e-003
9.439919e-003
9.439920e-003
9.439920e-003
9.439920e-003
9.439921e-003
9.439921e-003
9.439921e-003
9.439921e-003
9.439921e-003
9.439920e-003
9.439920e-003
9.439919e-003
9.439919e-003
9.439919e-003
9.439919e-003
9.439920e-003
9.439921e-003
9.439921e-003
9.439923e-003
9.439922e-003
9.439921e-003
9.439919e-003
9.439919e-003
9.439919e-003
9.439919e-003
9.439920e-003
9.439920e-003
9.439920e-003
9.439920e-003
9.439920e-003
9.439919e-003
9.439919e-003
9.439920e-003
9.439920e-003
9.439921e-003
9.439921e-003
9.439921e-003
9.439921e-003
9.439921e-003
9.439922e-003
9.439922e-003
9.439923e-003
9.439925e-003
9.439926e-003
9.439927e-003
9.439928e-003
9.439930e-003
9.439931e-003
9.439933e-003
9.439935e-003
9.439937e-003
9.439939e-003
9.439940e-003
9.439942e-003
9.439943e-003
9.439944e-003
9.439945e-003
9.439946e-003
9.439947e-003
9.439947e-003
9.439947e-003
9.439947e-003
9.439947e-003
9.439947e-003
9.439947e-003
9.439946e-003
9.439946e-003
9.439946e-003
9.439945e-003
9.439945e-003
9.439945e-003
9.439944e-003
9.439944e-003
9.439944e-003
9.439944e-003
9.439944e-003
9.439944e-003
9.439944e-003
9.439944e-003
9.439943e-003
9.439943e-003
9.439942e-003
9.439941e-003
9.439941e-003
9.439939e-003
9.439938e-003
9.439936e-003
9.439934e-003
9.439933e-003
9.439931e-003
9.439929e-003
9.439928e-003
9.439927e-003
9.439925e-003
9.439924e-003
9.439922e-003
9.439921e-003
9.439921e-003
9.439920e-003
9.439920e-003
9.439920e-003
9.439920e-003
9.439920e-003
9.439920e-003
9.439920e-003
9.439920e-003
9.439921e-003
9.439921e-003
9.439921e-003
9.439920e-003
9.439920e-003
9.439919e-003
9.439919e-003
9.439919e-003
9.439919e-003
9.439920e-003
9.439921e-003
9.439921e-003
9.439921e-003
9.439921e-003
9.439920e-003
9.439919e-003
9.439919e-003
9.439919e-003
9.439920e-003
9.439920e-003
9.439921e-003
9.439921e-003
9.439920e-003
9.439919e-003
9.439919e-003
9.439919e-003
9.439919e-003
9.439920e-003
9.439921e-003
9.439921e-003
9.439922e-003
9.439923e-003
9.439923e-003
9.439924e-003
9.439925e-003
9.439927e-003
9.439929e-003
9.439930e-003
9.439932e-003
9.439934e-003
9.439936e-003
9.439938e-003
9.439940e-003
9.439942e-003
9.439944e-003
9.439945e-003
9.439945e-003
9.439945e-003
9.439945e-003
9.439944e-003
9.439943e-003
9.439941e-003
9.439939e-003
9.439936e-003
9.439933e-003
9.439930e-003
9.439926e-003
9.439923e-003
9.439920e-003
9.439917e-003
9.439915e-003
9.439913e-003
9.439911e-003
9.439910e-003
9.439910e-003
9.439909e-003
9.439910e-003
9.439911e-003
9.439913e-003
9.439916e-003
9.439919e-003
9.439922e-003
9.439926e-003
9.439929e-003
9.439932e-003
9.439934e-003
9.439937e-003
9.439939e-003
9.439940e-003
9.439940e-003
9.439939e-003
9.439938e-003
9.439937e-003
9.439935e-003
9.439933e-003
9.439932e-003
9.439930e-003
9.439929e-003
9.439927e-003
9.439926e-003
9.439924e-003
9.439924e-003
9.439923e-003
9.439923e-003
9.439922e-003
9.439921e-003
9.439921e-003
9.439920e-003
9.439920e-003
9.439920e-003
9.439920e-003
9.439920e-003
9.439921e-003
9.439920e-003
9.439920e-003
9.439920e-003
9.439919e-003
9.439919e-003
9.439919e-003
9.439920e-003
9.439920e-003
9.439921e-003
9.439919e-003
9.439919e-003
9.439919e-003
9.439920e-003
9.439920e-003
9.439920e-003
9.439921e-003
9.439921e-003
9.439921e-003
9.439920e-003
9.439920e-003
9.439919e-003
9.439919e-003
9.439919e-003
9.439919e-003
9.439920e-003
9.439921e-003
9.439922e-003
9.439923e-003
9.439924e-003
9.439926e-003
9.439927e-003
9.439930e-003
9.439932e-003
9.439934e-003
9.439937e-003
9.439939e-003
9.439942e-003
9.439944e-003
9.439945e-003
9.439946e-003
9.439946e-003
9.439944e-003
9.439941e-003
9.439937e-003
9.439930e-003
9.439922e-003
9.439913e-003
9.439903e-003
9.439892e-003
9.439879e-003
9.439866e-003
9.439853e-003
9.439840e-003
9.439827e-003
9.439815e-003
9.439804e-003
9.439794e-003
9.439785e-003
9.439778e-003
9.439773e-003
9.439770e-003
9.439769e-003
9.439770e-003
9.439774e-003
9.439780e-003
9.439788e-003
9.439799e-003
9.439812e-003
9.439826e-003
9.439841e-003
9.439856e-003
9.439871e-003
9.439885e-003
9.439899e-003
9.439911e-003
9.439921e-003
9.439928e-003
9.439934e-003
9.439937e-003
9.439939e-003
9.439939e-003
9.439939e-003
9.439937e-003
9.439936e-003
9.439934e-003
9.439932e-003
9.439930e-003
9.439928e-003
9.439927e-003
9.439926e-003
9.439925e-003
9.439924e-003
9.439922e-003
9.439921e-003
9.439920e-003
9.439919e-003
9.439919e-003
9.439919e-003
9.439920e-003
9.439920e-003
9.439920e-003
9.439920e-003
9.439920e-003
9.439920e-003
9.439920e-003
9.439920e-003
9.439920e-003
9.439920e-003
9.439920e-003
9.439917e-003
9.439918e-003
9.439919e-003
9.439920e-003
9.439921e-003
9.439921e-003
9.439921e-003
9.439921e-003
9.439920e-003
9.439920e-003
9.439920e-003
9.439920e-003
9.439920e-003
9.439920e-003
9.439920e-003
9.439921e-003
9.439922e-003
9.439923e-003
9.439925e-003
9.439927e-003
9.439929e-003
9.439932e-003
9.439935e-003
9.439938e-003
9.439942e-003
9.439945e-003
9.439947e-003
9.439948e-003
9.439947e-003
9.439944e-003
9.439938e-003
9.439928e-003
9.439915e-003
9.439897e-003
9.439875e-003
9.439849e-003
9.439819e-003
9.439785e-003
9.439749e-003
9.439710e-003
9.439670e-003
9.439629e-003
9.439589e-003
9.439549e-003
9.439511e-003
9.439475e-003
9.439443e-003
9.439414e-003
9.439389e-003
9.439370e-003
9.439356e-003
9.439348e-003
9.439346e-003
9.439351e-003
9.439363e-003
9.439383e-003
9.439408e-003
9.439441e-003
9.439479e-003
9.439522e-003
9.439568e-003
9.439616e-003
9.439665e-003
9.439713e-003
9.439758e-003
9.439800e-003
9.439836e-003
9.439867e-003
9.439892e-003
9.439911e-003
9.439925e-003
9.439933e-003
9.439939e-003
9.439941e-003
9.439941e-003
9.439939e-003
9.439937e-003
9.439935e-003
9.439932e-003
9.439930e-003
9.439928e-003
9.439927e-003
9.439925e-003
9.439923e-003
9.439922e-003
9.439920e-003
9.439920e-003
9.439919e-003
9.439919e-003
9.439920e-003
9.439920e-003
9.439920e-003
9.439920e-003
9.439921e-003
9.439921e-003
9.439920e-003
9.439920e-003
9.439920e-003
9.439919e-003
9.439919e-003
9.439917e-003
9.439918e-003
9.439919e-003
9.439920e-003
9.439921e-003
9.439921e-003
9.439920e-003
9.439920e-003
9.439920e-003
9.439920e-003
9.439920e-003
9.439921e-003
9.439921e-003
9.439921e-003
9.439922e-003
9.439922e-003
9.439924e-003
9.439925e-003
9.439928e-003
9.439931e-003
9.439934e-003
9.439938e-003
9.439942e-003
9.439945e-003
9.439948e-003
9.439948e-003
9.439946e-003
9.439939e-003
9.439926e-003
9.439906e-003
9.439878e-003
9.439840e-003
9.439792e-003
9.439732e-003
9.439662e-003
9.439582e-003
9.439493e-003
9.439396e-003
9.439293e-003
9.439185e-003
9.439076e-003
9.438965e-003
9.438857e-003
9.438752e-003
9.438652e-003
9.438560e-003
9.438476e-003
9.438403e-003
9.438341e-003
9.438292e-003
9.438258e-003
9.438239e-003
9.438236e-003
9.438251e-003
9.438284e-003
9.438335e-003
9.438403e-003
9.438489e-003
9.438589e-003
9.438703e-003
9.438826e-003
9.438956e-003
9.439089e-003
9.439220e-003
9.439347e-003
9.439465e-003
9.439572e-003
9.439665e-003
9.439743e-003
9.439806e-003
9.439855e-003
9.439890e-003
9.439915e-003
9.439930e-003
9.439938e-003
9.439942e-003
9.439941e-003
9.439940e-003
9.439937e-003
9.439934e-003
9.439931e-003
9.439929e-003
9.439926e-003
9.439924e-003
9.439923e-003
9.439922e-003
9.439921e-003
9.439920e-003
9.439920e-003
9.439920e-003
9.439920e-003
9.439920e-003
9.439920e-003
9.439921e-003
9.439921e-003
9.439921e-003
9.439920e-003
9.439920e-003
9.439919e-003
9.439919e-003
9.439917e-003
9.439918e-003
9.439920e-003
9.439921e-003
9.439921e-003
9.439920e-003
9.439920e-003
9.439919e-003
9.439919e-003
9.439919e-003
9.439920e-003
9.439922e-003
9.439923e-003
9.439923e-003
9.439924e-003
9.439925e-003
9.439927e-003
9.439929e-003
9.439933e-003
9.439937e-003
9.439942e-003
9.439946e-003
9.439948e-003
9.439949e-003
9.439945e-003
9.439934e-003
9.439914e-003
9.439881e-003
9.439832e-003
9.439764e-003
9.439674e-003
9.439560e-003
9.439421e-003
9.439257e-003
9.439067e-003
9.438855e-003
9.438623e-003
9.438374e-003
9.438113e-003
9.437844e-003
9.437573e-003
9.437302e-003
9.437038e-003
9.436785e-003
9.436546e-003
9.436326e-003
9.436127e-003
9.435954e-003
9.435809e-003
9.435695e-003
9.435616e-003
9.435573e-003
9.435570e-003
9.435607e-003
9.435687e-003
9.435809e-003
9.435974e-003
9.436179e-003
9.436421e-003
9.436696e-003
9.436996e-003
9.437314e-003
9.437641e-003
9.437969e-003
9.438287e-003
9.438588e-003
9.438863e-003
9.439108e-003
9.439318e-003
9.439493e-003
9.439633e-003
9.439740e-003
9.439819e-003
9.439873e-003
9.439907e-003
9.439928e-003
9.439938e-003
9.439941e-003
9.439941e-003
9.439939e-003
9.439935e-003
9.439932e-003
9.439929e-003
9.439926e-003
9.439924e-003
9.439923e-003
9.439922e-003
9.439922e-003
9.439921e-003
9.439920e-003
9.439920e-003
9.439920e-003
9.439920e-003
9.439920e-003
9.439921e-003
9.439921e-003
9.439920e-003
9.439920e-003
9.439919e-003
9.439919e-003
9.439918e-003
9.439919e-003
9.439920e-003
9.439920e-003
9.439921e-003
9.439920e-003
9.439919e-003
9.439919e-003
9.439919e-003
9.439919e-003
9.439921e-003
9.439922e-003
9.439924e-003
9.439925e-003
9.439927e-003
9.439929e-003
9.439932e-003
9.439936e-003
9.439940e-003
9.439945e-003
9.439949e-003
9.439950e-003
9.439946e-003
9.439933e-003
9.439906e-003
9.439861e-003
9.439791e-003
9.439687e-003
9.439544e-003
9.439355e-003
9.439114e-003
9.438817e-003
9.438463e-003
9.438051e-003
9.437586e-003
9.437073e-003
9.436517e-003
9.435930e-003
9.435319e-003
9.434696e-003
9.434071e-003
9.433455e-003
9.432858e-003
9.432287e-003
9.431753e-003
9.431262e-003
9.430823e-003
9.430441e-003
9.430123e-003
9.429875e-003
9.429703e-003
9.429612e-003
9.429608e-003
9.429694e-003
9.429873e-003
9.430147e-003
9.430515e-003
9.430974e-003
9.431516e-003
9.432133e-003
9.432811e-003
9.433535e-003
9.434284e-003
9.435040e-003
9.435782e-003
9.436489e-003
9.437145e-003
9.437735e-003
9.438251e-003
9.438687e-003
9.439044e-003
9.439325e-003
9.439537e-003
9.439691e-003
9.439797e-003
9.439866e-003
9.439907e-003
9.439929e-003
9.439939e-003
9.439942e-003
9.439940e-003
9.439937e-003
9.439933e-003
9.439930e-003
9.439927e-003
9.439926e-003
9.439924e-003
9.439923e-003
9.439922e-003
9.439921e-003
9.439920e-003
9.439920e-003
9.439920e-003
9.439920e-003
9.439920e-003
9.439920e-003
9.439920e-003
9.439920e-003
9.439919e-003
9.439919e-003
9.439919e-003
9.439919e-003
9.439920e-003
9.439920e-003
9.439920e-003
9.439920e-003
9.439920e-003
9.439919e-003
9.439919e-003
9.439920e-003
9.439921e-003
9.439923e-003
9.439925e-003
9.439928e-003
9.439931e-003
9.439934e-003
9.439939e-003
9.439944e-003
9.439949e-003
9.439952e-003
9.439950e-003
9.439938e-003
9.439911e-003
9.439859e-003
9.439772e-003
9.439637e-003
9.439440e-003
9.439166e-003
9.438800e-003
9.438329e-003
9.437741e-003
9.437032e-003
9.436199e-003
9.435246e-003
9.434184e-003
9.433024e-003
9.431785e-003
9.430486e-003
9.429151e-003
9.427801e-003
9.426459e-003
9.425146e-003
9.423881e-003
9.422683e-003
9.421567e-003
9.420549e-003
9.419641e-003
9.418857e-003
9.418207e-003
9.417703e-003
9.417356e-003
9.417177e-003
9.417174e-003
9.417356e-003
9.417730e-003
9.418300e-003
9.419065e-003
9.420019e-003
9.421152e-003
9.422446e-003
9.423876e-003
9.425411e-003
9.427015e-003
9.428646e-003
9.430261e-003
9.431817e-003
9.433277e-003
9.434607e-003
9.435784e-003
9.436793e-003
9.437632e-003
9.438305e-003
9.438826e-003
9.439214e-003
9.439491e-003
9.439680e-003
9.439801e-003
9.439875e-003
9.439916e-003
9.439935e-003
9.439942e-003
9.439941e-003
9.439938e-003
9.439934e-003
9.439931e-003
9.439929e-003
9.439927e-003
9.439925e-003
9.439923e-003
9.439922e-003
9.439920e-003
9.439920e-003
9.439920e-003
9.439920e-003
9.439920e-003
9.439920e-003
9.439920e-003
9.439920e-003
9.439920e-003
9.439919e-003
9.439919e-003
9.439919e-003
9.439919e-003
9.439919e-003
9.439920e-003
9.439920e-003
9.439920e-003
9.439920e-003
9.439921e-003
9.439921e-003
9.439923e-003
9.439925e-003
9.439927e-003
9.439931e-003
9.439936e-003
9.439941e-003
9.439947e-003
9.439952e-003
9.439953e-003
9.439946e-003
9.439924e-003
9.439875e-003
9.439785e-003
9.439635e-003
9.439401e-003
9.439056e-003
9.438570e-003
9.437911e-003
9.437050e-003
9.435962e-003
9.434630e-003
9.433047e-003
9.431215e-003
9.429148e-003
9.426873e-003
9.424422e-003
9.421835e-003
9.419158e-003
9.416436e-003
9.413716e-003
9.411040e-003
9.408449e-003
9.405977e-003
9.403656e-003
9.401513e-003
9.399572e-003
9.397856e-003
9.396382e-003
9.395171e-003
9.394240e-003
9.393605e-003
9.393286e-003
9.393297e-003
9.393656e-003
9.394373e-003
9.395459e-003
9.396914e-003
9.398735e-003
9.400905e-003
9.403398e-003
9.406176e-003
9.409184e-003
9.412359e-003
9.415624e-003
9.418897e-003
9.422092e-003
9.425128e-003
9.427934e-003
9.430451e-003
9.432642e-003
9.434490e-003
9.435997e-003
9.437184e-003
9.438085e-003
9.438744e-003
9.439207e-003
9.439517e-003
9.439714e-003
9.439832e-003
9.439897e-003
9.439929e-003
9.439941e-003
9.439943e-003
9.439940e-003
9.439936e-003
9.439932e-003
9.439929e-003
9.439926e-003
9.439924e-003
9.439922e-003
9.439921e-003
9.439920e-003
9.439920e-003
9.439920e-003
9.439920e-003
9.439920e-003
9.439920e-003
9.439920e-003
9.439920e-003
9.439920e-003
9.439920e-003
9.439919e-003
9.439919e-003
9.439919e-003
9.439919e-003
9.439920e-003
9.439921e-003
9.439922e-003
9.439923e-003
9.439924e-003
9.439925e-003
9.439927e-003
9.439931e-003
9.439936e-003
9.439943e-003
9.439949e-003
9.439954e-003
9.439952e-003
9.439939e-003
9.439902e-003
9.439825e-003
9.439684e-003
9.439446e-003
9.439070e-003
9.438507e-003
9.437700e-003
9.436587e-003
9.435110e-003
9.433215e-003
9.430861e-003
9.428026e-003
9.424710e-003
9.420934e-003
9.416746e-003
9.412211e-003
9.407409e-003
9.402429e-003
9.397363e-003
9.392302e-003
9.387329e-003
9.382520e-003
9.377938e-003
9.373637e-003
9.369660e-003
9.366042e-003
9.362812e-003
9.359994e-003
9.357609e-003
9.355676e-003
9.354215e-003
9.353245e-003
9.352789e-003
9.352867e-003
9.353502e-003
9.354714e-003
9.356522e-003
9.358938e-003
9.361967e-003
9.365601e-003
9.369818e-003
9.374575e-003
9.379809e-003
9.385429e-003
9.391318e-003
9.397340e-003
9.403340e-003
9.409158e-003
9.414643e-003
9.419661e-003
9.424111e-003
9.427931e-003
9.431101e-003
9.433642e-003
9.435606e-003
9.437069e-003
9.438116e-003
9.438837e-003
9.439310e-003
9.439605e-003
9.439779e-003
9.439874e-003
9.439920e-003
9.439939e-003
9.439943e-003
9.439941e-003
9.439937e-003
9.439933e-003
9.439929e-003
9.439926e-003
9.439923e-003
9.439922e-003
9.439921e-003
9.439921e-003
9.439920e-003
9.439920e-003
9.439920e-003
9.439920e-003
9.439920e-003
9.439920e-003
9.439920e-003
9.439920e-003
9.439919e-003
9.439918e-003
9.439918e-003
9.439918e-003
9.439920e-003
9.439922e-003
9.439924e-003
9.439925e-003
9.439926e-003
9.439928e-003
9.439932e-003
9.439937e-003
9.439943e-003
9.439951e-003
9.439955e-003
9.439951e-003
9.439930e-003
9.439876e-003
9.439764e-003
9.439558e-003
9.439207e-003
9.438643e-003
9.437781e-003
9.436521e-003
9.434754e-003
9.432365e-003
9.429250e-003
9.425326e-003
9.420544e-003
9.414898e-003
9.408434e-003
9.401245e-003
9.393468e-003
9.385270e-003
9.376837e-003
9.368355e-003
9.360002e-003
9.351933e-003
9.344278e-003
9.337136e-003
9.330578e-003
9.324649e-003
9.319370e-003
9.314749e-003
9.310781e-003
9.307456e-003
9.304762e-003
9.302684e-003
9.301212e-003
9.300340e-003
9.300065e-003
9.300392e-003
9.301333e-003
9.302911e-003
9.305156e-003
9.308109e-003
9.311818e-003
9.316335e-003
9.321708e-003
9.327969e-003
9.335122e-003
9.343128e-003
9.351890e-003
9.361245e-003
9.370968e-003
9.380782e-003
9.390384e-003
9.399473e-003
9.407784e-003
9.415115e-003
9.421350e-003
9.426458e-003
9.430487e-003
9.433545e-003
9.435777e-003
9.437342e-003
9.438394e-003
9.439070e-003
9.439483e-003
9.439721e-003
9.439849e-003
9.439911e-003
9.439937e-003
9.439943e-003
9.439942e-003
9.439937e-003
9.439932e-003
9.439928e-003
9.439925e-003
9.439923e-003
9.439922e-003
9.439922e-003
9.439921e-003
9.439920e-003
9.439920e-003
9.439920e-003
9.439920e-003
9.439920e-003
9.439920e-003
9.439921e-003
9.439920e-003
9.439918e-003
9.439917e-003
9.439918e-003
9.439920e-003
9.439922e-003
9.439925e-003
9.439927e-003
9.439930e-003
9.439933e-003
9.439938e-003
9.439944e-003
9.439952e-003
9.439956e-003
9.439951e-003
9.439922e-003
9.439850e-003
9.439700e-003
9.439420e-003
9.438934e-003
9.438137e-003
9.436896e-003
9.435044e-003
9.432393e-003
9.428743e-003
9.423907e-003
9.417734e-003
9.410137e-003
9.401125e-003
9.390812e-003
9.379425e-003
9.367285e-003
9.354781e-003
9.342330e-003
9.330341e-003
9.319176e-003
9.309125e-003
9.300393e-003
9.293096e-003
9.287262e-003
9.282846e-003
9.279746e-003
9.277817e-003
9.276891e-003
9.276790e-003
9.277335e-003
9.278352e-003
9.279676e-003
9.281152e-003
9.282637e-003
9.284005e-003
9.285152e-003
9.286008e-003
9.286545e-003
9.286793e-003
9.286856e-003
9.286920e-003
9.287252e-003
9.288198e-003
9.290149e-003
9.293503e-003
9.298607e-003
9.305693e-003
9.314821e-003
9.325847e-003
9.338410e-003
9.351970e-003
9.365876e-003
9.379448e-003
9.392076e-003
9.403293e-003
9.412815e-003
9.420550e-003
9.426567e-003
9.431056e-003
9.434266e-003
9.436467e-003
9.437912e-003
9.438819e-003
9.439361e-003
9.439667e-003
9.439827e-003
9.439904e-003
9.439935e-003
9.439943e-003
9.439941e-003
9.439936e-003
9.439931e-003
9.439928e-003
9.439925e-003
9.439924e-003
9.439923e-003
9.439922e-003
9.439921e-003
9.439920e-003
9.439919e-003
9.439920e-003
9.439920e-003
9.439920e-003
9.439922e-003
9.439921e-003
9.439919e-003
9.439918e-003
9.439918e-003
9.439920e-003
9.439923e-003
9.439926e-003
9.439930e-003
9.439934e-003
9.439939e-003
9.439946e-003
9.439953e-003
9.439957e-003
9.439950e-003
9.439916e-003
9.439829e-003
9.439642e-003
9.439286e-003
9.438654e-003
9.437595e-003
9.435908e-003
9.433336e-003
9.429578e-003
9.424305e-003
9.417206e-003
9.408036e-003
9.396687e-003
9.383250e-003
9.368063e-003
9.351729e-003
9.335081e-003
9.319112e-003
9.304871e-003
9.293346e-003
9.285363e-003
9.281509e-003
9.282092e-003
9.287140e-003
9.296415e-003
9.309467e-003
9.325678e-003
9.344321e-003
9.364618e-003
9.385779e-003
9.407033e-003
9.427649e-003
9.446939e-003
9.464250e-003
9.478964e-003
9.490492e-003
9.498286e-003
9.501854e-003
9.500794e-003
9.494845e-003
9.483946e-003
9.468298e-003
9.448425e-003
9.425214e-003
9.399921e-003
9.374119e-003
9.349596e-003
9.328177e-003
9.311519e-003
9.300881e-003
9.296940e-003
9.299676e-003
9.308373e-003
9.321738e-003
9.338118e-003
9.355773e-003
9.373132e-003
9.388987e-003
9.402578e-003
9.413592e-003
9.422069e-003
9.428288e-003
9.432647e-003
9.435569e-003
9.437442e-003
9.438589e-003
9.439257e-003
9.439624e-003
9.439813e-003
9.439900e-003
9.439934e-003
9.439943e-003
9.439941e-003
9.439936e-003
9.439931e-003
9.439928e-003
9.439926e-003
9.439924e-003
9.439922e-003
9.439921e-003
9.439920e-003
9.439919e-003
9.439920e-003
9.439920e-003
9.439920e-003
9.439923e-003
9.439922e-003
9.439920e-003
9.439919e-003
9.439919e-003
9.439921e-003
9.439924e-003
9.439928e-003
9.439933e-003
9.439939e-003
9.439946e-003
9.439954e-003
9.439958e-003
9.439950e-003
9.439913e-003
9.439815e-003
9.439598e-003
9.439174e-003
9.438401e-003
9.437075e-003
9.434910e-003
9.431533e-003
9.426489e-003
9.419277e-003
9.409414e-003
9.396552e-003
9.380621e-003
9.361993e-003
9.341623e-003
9.321117e-003
9.302679e-003
9.288943e-003
9.282693e-003
9.286527e-003
9.302553e-003
9.332143e-003
9.375810e-003
9.433199e-003
9.503170e-003
9.583940e-003
9.673263e-003
9.768601e-003
9.867295e-003
9.966698e-003
1.006428e-002
1.015768e-002
1.024473e-002
1.032340e-002
1.039181e-002
1.044816e-002
1.049068e-002
1.051768e-002
1.052759e-002
1.051901e-002
1.049090e-002
1.044274e-002
1.037475e-002
1.028809e-002
1.018505e-002
1.006916e-002
9.945123e-003
9.818600e-003
9.695813e-003
9.582943e-003
9.485447e-003
9.407385e-003
9.350907e-003
9.316007e-003
9.300632e-003
9.301133e-003
9.312966e-003
9.331476e-003
9.352570e-003
9.373157e-003
9.391290e-003
9.406061e-003
9.417343e-003
9.425492e-003
9.431088e-003
9.434753e-003
9.437044e-003
9.438411e-003
9.439186e-003
9.439601e-003
9.439807e-003
9.439900e-003