# vtk DataFile Version 3.0
vtk output
ASCII
DATASET STRUCTURED_POINTS
DIMENSIONS 100 100 1
SPACING 1 1 1
ORIGIN 0 0 0
POINT_DATA 10000
SCALARS SFBox_profile double
LOOKUP_TABLE default 
0.000000e+000
0.000000e+000
0.000000e+000
0.000000e+000
0.000000e+000
0.000000e+000
0.000000e+000
0.000000e+000
0.000000e+000
0.000000e+000
0.000000e+000
0.000000e+000
0.000000e+000
0.000000e+000
0.000000e+000
0.000000e+000
0.000000e+000
0.000000e+000
0.000000e+000
0.000000e+000
0.000000e+000
0.000000e+000
0.000000e+000
0.000000e+000
0.000000e+000
0.000000e+000
0.000000e+000
0.000000e+000
0.000000e+000
0.000000e+000
0.000000e+000
0.000000e+000
0.000000e+000
0.000000e+000
0.000000e+000
0.000000e+000
0.000000e+000
0.000000e+000
0.000000e+000
0.000000e+000
0.000000e+000
0.000000e+000
0.000000e+000
0.000000e+000
0.000000e+000
0.000000e+000
0.000000e+000
0.000000e+000
0.000000e+000
0.000000e+000
0.000000e+000
0.000000e+000
0.000000e+000
0.000000e+000
0.000000e+000
0.000000e+000
0.000000e+000
0.000000e+000
0.000000e+000
0.000000e+000
0.000000e+000
0.000000e+000
0.000000e+000
0.000000e+000
0.000000e+000
0.000000e+000
0.000000e+000
0.000000e+000
0.000000e+000
0.000000e+000
0.000000e+000
0.000000e+000
0.000000e+000
0.000000e+000
0.000000e+000
0.000000e+000
0.000000e+000
0.000000e+000
0.000000e+000
0.000000e+000
0.000000e+000
0.000000e+000
0.000000e+000
0.000000e+000
0.000000e+000
0.000000e+000
0.000000e+000
0.000000e+000
0.000000e+000
0.000000e+000
0.000000e+000
0.000000e+000
0.000000e+000
0.000000e+000
0.000000e+000
0.000000e+000
0.000000e+000
0.000000e+000
0.000000e+000
0.000000e+000
-2.532927e-012
-1.427504e-012
1.144833e-012
5.950635e-012
1.424514e-011
2.788587e-011
4.946004e-011
8.240074e-011
1.310529e-010
2.006471e-010
2.971238e-010
4.267638e-010
5.955877e-010
8.085247e-010
1.068389e-009
1.374767e-009
1.722952e-009
2.103119e-009
2.499923e-009
2.892662e-009
3.256097e-009
3.561878e-009
3.780469e-009
3.883317e-009
3.845008e-009
3.645137e-009
3.269662e-009
2.711620e-009
1.971182e-009
1.055095e-009
-2.433180e-011
-1.250549e-009
-2.604211e-009
-4.064601e-009
-5.610909e-009
-7.223286e-009
-8.883601e-009
-1.057589e-008
-1.228643e-008
-1.400359e-008
-1.571724e-008
-1.741809e-008
-1.909673e-008
-2.074277e-008
-2.234381e-008
-2.388472e-008
-2.534702e-008
-2.670849e-008
-2.794319e-008
-2.902175e-008
-2.991197e-008
-3.057990e-008
-3.099114e-008
-3.111255e-008
-3.091420e-008
-3.037163e-008
-2.946816e-008
-2.819736e-008
-2.656521e-008
-2.459211e-008
-2.231404e-008
-1.978295e-008
-1.706591e-008
-1.424276e-008
-1.140238e-008
-8.637472e-009
-6.038353e-009
-3.686327e-009
-1.647343e-009
3.314556e-011
1.333415e-009
2.256253e-009
2.827152e-009
3.090167e-009
3.102082e-009
2.925773e-009
2.623751e-009
2.252723e-009
1.859772e-009
1.480372e-009
1.138157e-009
8.460695e-010
6.083931e-010
4.231594e-010
2.844970e-010
1.846290e-010
1.153794e-010
6.916005e-011
3.950676e-011
2.126858e-011
1.056750e-011
4.628408e-012
1.559157e-012
1.281336e-013
-4.277451e-013
-5.569749e-013
-5.086082e-013
-4.116233e-013
-3.269477e-013
-2.804307e-013
3.187380e-013
2.224404e-012
6.552801e-012
1.439353e-011
2.750372e-011
4.843522e-011
8.065689e-011
1.286317e-010
1.977852e-010
2.942943e-010
4.246176e-010
5.947006e-010
8.088273e-010
1.068143e-009
1.368963e-009
1.701055e-009
2.046190e-009
2.377263e-009
2.658285e-009
2.845459e-009
2.889363e-009
2.738126e-009
2.341227e-009
1.653482e-009
6.386773e-010
-7.276048e-010
-2.456302e-009
-4.544465e-009
-6.976078e-009
-9.723887e-009
-1.275193e-008
-1.601839e-008
-1.947850e-008
-2.308720e-008
-2.680134e-008
-3.058140e-008
-3.439254e-008
-3.820508e-008
-4.199438e-008
-4.574008e-008
-4.942493e-008
-5.303324e-008
-5.654912e-008
-5.995458e-008
-6.322784e-008
-6.634182e-008
-6.926301e-008
-7.195087e-008
-7.435774e-008
-7.642933e-008
-7.810589e-008
-7.932396e-008
-8.001872e-008
-8.012693e-008
-7.959044e-008
-7.836010e-008
-7.640005e-008
-7.369216e-008
-7.024032e-008
-6.607429e-008
-6.125261e-008
-5.586399e-008
-5.002675e-008
-4.388575e-008
-3.760657e-008
-3.136696e-008
-2.534608e-008
-1.971239e-008
-1.461149e-008
-1.015537e-008
-6.414668e-009
-3.414944e-009
-1.137648e-009
4.744007e-010
1.507913e-009
2.067843e-009
2.265620e-009
2.208550e-009
1.991609e-009
1.692295e-009
1.368620e-009
1.059741e-009
7.884992e-010
5.649678e-010
3.902439e-010
2.598990e-010
1.667549e-010
1.028722e-010
6.079705e-011
3.420588e-011
1.811872e-011
8.846720e-012
3.798968e-012
1.244572e-012
8.195935e-014
-3.567531e-013
-4.553962e-013
-4.216541e-013
-3.608223e-013
-3.215660e-013
7.799214e-012
1.160508e-011
2.008516e-011
3.504354e-011
5.933650e-011
9.699889e-011
1.533150e-010
2.347404e-010
3.485543e-010
5.020961e-010
7.014565e-010
9.495171e-010
1.243334e-009
1.570993e-009
1.908237e-009
2.215369e-009
2.435027e-009
2.491533e-009
2.292337e-009
1.731871e-009
6.977282e-010
-9.213875e-010
-3.226817e-009
-6.301365e-009
-1.020213e-008
-1.495567e-008
-2.055607e-008
-2.696596e-008
-3.412020e-008
-4.193147e-008
-5.029704e-008
-5.910576e-008
-6.824471e-008
-7.760489e-008
-8.708569e-008
-9.659795e-008
-1.060656e-007
-1.154260e-007
-1.246288e-007
-1.336337e-007
-1.424079e-007
-1.509216e-007
-1.591446e-007
-1.670420e-007
-1.745702e-007
-1.816739e-007
-1.882837e-007
-1.943149e-007
-1.996670e-007
-2.042249e-007
-2.078614e-007
-2.104403e-007
-2.118214e-007
-2.118663e-007
-2.104453e-007
-2.074459e-007
-2.027810e-007
-1.963988e-007
-1.882920e-007
-1.785067e-007
-1.671499e-007
-1.543940e-007
-1.404778e-007
-1.257028e-007
-1.104228e-007
-9.502872e-008
-7.992654e-008
-6.551213e-008
-5.214403e-008
-4.011795e-008
-2.964601e-008
-2.084398e-008
-1.372827e-008
-8.223103e-009
-4.176769e-009
-1.384110e-009
3.882331e-010
1.377560e-009
1.804900e-009
1.860821e-009
1.697881e-009
1.429149e-009
1.131404e-009
8.512280e-010
6.123042e-010
4.225568e-010
2.802579e-010
1.787060e-010
1.094405e-010
6.419231e-011
3.587343e-011
1.891965e-011
9.247923e-012
4.029142e-012
1.401909e-012
1.999938e-013
-2.715532e-013
-4.061496e-013
-4.134827e-013
-3.965771e-013
2.394131e-011
3.140011e-011
4.780138e-011
7.618664e-011
1.212618e-010
1.894447e-010
2.887138e-010
4.280500e-010
6.162210e-010
8.596267e-010
1.158954e-009
1.504507e-009
1.870288e-009
2.207256e-009
2.436536e-009
2.443782e-009
2.076083e-009
1.142822e-009
-5.784595e-010
-3.330862e-009
-7.362157e-009
-1.290563e-008
-2.016007e-008
-2.927163e-008
-4.032001e-008
-5.331089e-008
-6.817540e-008
-8.477623e-008
-1.029192e-007
-1.223684e-007
-1.428630e-007
-1.641332e-007
-1.859152e-007
-2.079624e-007
-2.300543e-007
-2.520013e-007
-2.736468e-007
-2.948662e-007
-3.155632e-007
-3.356642e-007
-3.551111e-007
-3.738527e-007
-3.918360e-007
-4.089979e-007
-4.252566e-007
-4.405056e-007
-4.546090e-007
-4.673987e-007
-4.786738e-007
-4.882032e-007
-4.957292e-007
-5.009745e-007
-5.036513e-007
-5.034720e-007
-5.001629e-007
-4.934793e-007
-4.832231e-007
-4.692612e-007
-4.515453e-007
-4.301313e-007
-4.051962e-007
-3.770519e-007
-3.461516e-007
-3.130877e-007
-2.785774e-007
-2.434360e-007
-2.085368e-007
-1.747602e-007
-1.429358e-007
-1.137840e-007
-8.786429e-008
-6.553793e-008
-4.695001e-008
-3.203469e-008
-2.054185e-008
-1.208082e-008
-6.173576e-009
-2.309153e-009
8.268422e-012
1.223029e-009
1.705751e-009
1.744837e-009
1.549171e-009
1.258436e-009
9.572707e-010
6.901453e-010
4.747497e-010
3.127561e-010
1.976330e-010
1.197728e-010
6.947189e-011
3.838986e-011
2.003425e-011
9.707691e-012
4.209317e-012
1.471603e-012
2.227436e-013
-2.794159e-013
-4.461716e-013
-4.861971e-013
5.601174e-011
6.996764e-011
1.003324e-010
1.520499e-010
2.325335e-010
3.513915e-010
5.195785e-010
7.475510e-010
1.041893e-009
1.399870e-009
1.801472e-009
2.198802e-009
2.503194e-009
2.571214e-009
2.191491e-009
1.075116e-009
-1.147295e-009
-4.919025e-009
-1.073932e-008
-1.913401e-008
-3.061680e-008
-4.564549e-008
-6.457889e-008
-8.764061e-008
-1.148951e-007
-1.462390e-007
-1.814089e-007
-2.200032e-007
-2.615141e-007
-3.053652e-007
-3.509501e-007
-3.976674e-007
-4.449495e-007
-4.922849e-007
-5.392315e-007
-5.854237e-007
-6.305716e-007
-6.744555e-007
-7.169155e-007
-7.578376e-007
-7.971376e-007
-8.347442e-007
-8.705811e-007
-9.045507e-007
-9.365195e-007
-9.663065e-007
-9.936745e-007
-1.018326e-006
-1.039902e-006
-1.057987e-006
-1.072113e-006
-1.081775e-006
-1.086440e-006
-1.085571e-006
-1.078645e-006
-1.065180e-006
-1.044762e-006
-1.017083e-006
-9.819715e-007
-9.394342e-007
-8.896916e-007
-8.332114e-007
-7.707338e-007
-7.032809e-007
-6.321484e-007
-5.588706e-007
-4.851591e-007
-4.128128e-007
-3.436068e-007
-2.791674e-007
-2.208516e-007
-1.696450e-007
-1.260972e-007
-9.030425e-008
-6.194073e-008
-4.033632e-008
-2.458139e-008
-1.364351e-008
-6.476854e-009
-2.110222e-009
2.938215e-010
1.409847e-009
1.746353e-009
1.661288e-009
1.388275e-009
1.066471e-009
7.688322e-010
5.257738e-010
3.430746e-010
2.142103e-010
1.280608e-010
7.318563e-011
3.980768e-011
2.042659e-011
9.713323e-012
4.108974e-012
1.362535e-012
1.218274e-013
-3.806756e-013
-5.473931e-013
1.159863e-010
1.409102e-010
1.945962e-010
2.845878e-010
4.216647e-010
6.186050e-010
8.875133e-010
1.234821e-009
1.652909e-009
2.107308e-009
2.518774e-009
2.740256e-009
2.530030e-009
1.523881e-009
-7.889887e-010
-5.080244e-009
-1.218030e-008
-2.305423e-008
-3.875267e-008
-6.033929e-008
-8.880104e-008
-1.249524e-007
-1.693476e-007
-2.222145e-007
-2.834212e-007
-3.524793e-007
-4.285829e-007
-5.106753e-007
-5.975323e-007
-6.878493e-007
-7.803240e-007
-8.737247e-007
-9.669425e-007
-1.059024e-006
-1.149188e-006
-1.236826e-006
-1.321489e-006
-1.402868e-006
-1.480768e-006
-1.555071e-006
-1.625711e-006
-1.692637e-006
-1.755787e-006
-1.815056e-006
-1.870281e-006
-1.921218e-006
-1.967533e-006
-2.008796e-006
-2.044483e-006
-2.073975e-006
-2.096576e-006
-2.111517e-006
-2.117981e-006
-2.115122e-006
-2.102088e-006
-2.078056e-006
-2.042266e-006
-1.994070e-006
-1.932983e-006
-1.858746e-006
-1.771399e-006
-1.671353e-006
-1.559460e-006
-1.437075e-006
-1.306090e-006
-1.168931e-006
-1.028504e-006
-8.880782e-007
-7.511064e-007
-6.209868e-007
-5.007983e-007
-3.930415e-007
-2.994317e-007
-2.207799e-007
-1.569862e-007
-1.071418e-007
-6.971928e-008
-4.280887e-008
-2.435855e-008
-1.238049e-008
-5.100829e-009
-1.045451e-009
9.325039e-010
1.669621e-009
1.736922e-009
1.496712e-009
1.159588e-009
8.341192e-010
5.657909e-010
3.648623e-010
2.246038e-010
1.321487e-010
7.421385e-011
3.960195e-011
1.988433e-011
9.199488e-012
3.721015e-012
1.088153e-012
-7.218580e-014
-4.946536e-013
2.224486e-010
2.650053e-010
3.556753e-010
5.049402e-010
7.265043e-010
1.033622e-009
1.432079e-009
1.908024e-009
2.408611e-009
2.813578e-009
2.896758e-009
2.278275e-009
3.709741e-010
-3.671889e-009
-1.099703e-008
-2.306628e-008
-4.163280e-008
-6.866765e-008
-1.062328e-007
-1.563072e-007
-2.205851e-007
-3.002745e-007
-3.959316e-007
-5.073596e-007
-6.335929e-007
-7.729673e-007
-9.232631e-007
-1.081893e-006
-1.246107e-006
-1.413180e-006
-1.580571e-006
-1.746038e-006
-1.907707e-006
-2.064099e-006
-2.214128e-006
-2.357060e-006
-2.492465e-006
-2.620151e-006
-2.740094e-006
-2.852380e-006
-2.957144e-006
-3.054524e-006
-3.144620e-006
-3.227469e-006
-3.303025e-006
-3.371146e-006
-3.431587e-006
-3.484003e-006
-3.527947e-006
-3.562878e-006
-3.588165e-006
-3.603089e-006
-3.606844e-006
-3.598540e-006
-3.577202e-006
-3.541771e-006
-3.491119e-006
-3.424073e-006
-3.339456e-006
-3.236165e-006
-3.113266e-006
-2.970141e-006
-2.806651e-006
-2.623340e-006
-2.421629e-006
-2.203998e-006
-1.974087e-006
-1.736687e-006
-1.497565e-006
-1.263104e-006
-1.039787e-006
-8.335851e-007
-6.493539e-007
-4.903622e-007
-3.580411e-007
-2.520040e-007
-1.703154e-007
-1.099321e-007
-6.721220e-008
-3.839098e-008
-1.995401e-008
-8.876216e-009
-2.730677e-009
3.071457e-010
1.524650e-009
1.772813e-009
1.575255e-009
1.227726e-009
8.788731e-010
5.899256e-010
3.751887e-010
2.272661e-010
1.313421e-010
7.232366e-011
3.775055e-011
1.845825e-011
8.227281e-012
3.104264e-012
7.327829e-013
-1.724777e-013
4.026543e-010
4.720931e-010
6.181123e-010
8.531123e-010
1.190086e-009
1.633337e-009
2.161820e-009
2.701603e-009
3.083609e-009
2.983523e-009
1.842825e-009
-1.225963e-009
-7.540672e-009
-1.894094e-008
-3.784577e-008
-6.724833e-008
-1.106193e-007
-1.716982e-007
-2.541709e-007
-3.612581e-007
-4.952701e-007
-6.572079e-007
-8.464948e-007
-1.060901e-006
-1.296686e-006
-1.548928e-006
-1.811986e-006
-2.079989e-006
-2.347304e-006
-2.608888e-006
-2.860538e-006
-3.099004e-006
-3.322005e-006
-3.528164e-006
-3.716888e-006
-3.888205e-006
-4.042597e-006
-4.180829e-006
-4.303804e-006
-4.412449e-006
-4.507641e-006
-4.590166e-006
-4.660712e-006
-4.719885e-006
-4.768240e-006
-4.806310e-006
-4.834647e-006
-4.853837e-006
-4.864523e-006
-4.867392e-006
-4.863153e-006
-4.852490e-006
-4.835990e-006
-4.814046e-006
-4.786745e-006
-4.753742e-006
-4.714128e-006
-4.666317e-006
-4.607960e-006
-4.535921e-006
-4.446334e-006
-4.334781e-006
-4.196610e-006
-4.027416e-006
-3.823680e-006
-3.583514e-006
-3.307408e-006
-2.998833e-006
-2.664520e-006
-2.314254e-006
-1.960110e-006
-1.615199e-006
-1.292111e-006
-1.001386e-006
-7.503255e-007
-5.424059e-007
-3.773707e-007
-2.518979e-007
-1.606099e-007
-9.715197e-008
-5.512048e-008
-2.871852e-008
-1.311871e-008
-4.577120e-009
-3.729221e-010
1.350382e-009
1.780069e-009
1.623335e-009
1.267033e-009
8.995154e-010
5.958779e-010
3.729401e-010
2.218610e-010
1.257008e-010
6.771471e-011
3.445949e-011
1.631525e-011
6.941027e-012
2.452470e-012
6.866634e-013
6.941561e-010
8.020794e-010
1.025178e-009
1.373240e-009
1.847366e-009
2.418615e-009
2.991189e-009
3.343533e-009
3.040595e-009
1.312437e-009
-3.100473e-009
-1.212578e-008
-2.853885e-008
-5.610496e-008
-9.962964e-008
-1.648530e-007
-2.581257e-007
-3.858293e-007
-5.535551e-007
-7.651372e-007
-1.021713e-006
-1.321035e-006
-1.657232e-006
-2.021126e-006
-2.401064e-006
-2.784101e-006
-3.157298e-006
-3.508888e-006
-3.829150e-006
-4.110894e-006
-4.349600e-006
-4.543263e-006
-4.692039e-006
-4.797800e-006
-4.863638e-006
-4.893377e-006
-4.891135e-006
-4.860962e-006
-4.806578e-006
-4.731236e-006
-4.637703e-006
-4.528339e-006
-4.405253e-006
-4.270504e-006
-4.126305e-006
-3.975213e-006
-3.820283e-006
-3.665163e-006
-3.514126e-006
-3.372039e-006
-3.244245e-006
-3.136380e-006
-3.054113e-006
-3.002798e-006
-2.987078e-006
-3.010403e-006
-3.074520e-006
-3.178928e-006
-3.320360e-006
-3.492320e-006
-3.684777e-006
-3.884105e-006
-4.073391e-006
-4.233252e-006
-4.343248e-006
-4.383900e-006
-4.339157e-006
-4.198993e-006
-3.961630e-006
-3.634803e-006
-3.235590e-006
-2.788579e-006
-2.322575e-006
-1.866480e-006
-1.445270e-006
-1.076992e-006
-7.713853e-007
-5.302284e-007
-3.490075e-007
-2.192223e-007
-1.306564e-007
-7.316190e-008
-3.778912e-008
-1.731318e-008
-6.313035e-009
-9.798862e-010
1.198405e-009
1.774812e-009
1.643314e-009
1.276130e-009
8.946734e-010
5.831512e-010
3.583241e-010
2.089244e-010
1.158050e-010
6.087249e-011
3.009679e-011
1.376875e-011
5.742072e-012
2.515617e-012
1.144877e-009
1.303531e-009
1.623634e-009
2.100089e-009
2.695054e-009
3.292049e-009
3.619029e-009
3.128549e-009
8.237484e-010
-4.975843e-009
-1.692271e-008
-3.895750e-008
-7.659727e-008
-1.371043e-007
-2.294081e-007
-3.636285e-007
-5.500637e-007
-7.975883e-007
-1.111584e-006
-1.491761e-006
-1.930417e-006
-2.411740e-006
-2.912520e-006
-3.404288e-006
-3.856466e-006
-4.239845e-006
-4.529678e-006
-4.707849e-006
-4.763877e-006
-4.694813e-006
-4.504317e-006
-4.201240e-006
-3.798042e-006
-3.309253e-006
-2.750115e-006
-2.135469e-006
-1.478907e-006
-7.922276e-007
-8.518134e-008
6.344792e-007
1.360693e-006
2.088580e-006
2.813811e-006
3.531939e-006
4.237770e-006
4.924833e-006
5.584994e-006
6.208227e-006
6.782564e-006
7.294204e-006
7.727787e-006
8.066823e-006
8.294265e-006
8.393225e-006
8.347844e-006
8.144313e-006
7.772054e-006
7.225064e-006
6.503404e-006
5.614777e-006
4.576070e-006
3.414657e-006
2.169112e-006
8.889188e-007
-3.673099e-007
-1.535445e-006
-2.551389e-006
-3.358167e-006
-3.913623e-006
-4.197239e-006
-4.214341e-006
-3.996240e-006
-3.595687e-006
-3.078278e-006
-2.511740e-006
-1.955681e-006
-1.454303e-006
-1.033422e-006
-7.017330e-007
-4.549438e-007
-2.809450e-007
-1.644804e-007
-9.048947e-008
-4.599727e-008
-2.084060e-008
-7.640667e-009
-1.386501e-009
1.114980e-009
1.769968e-009
1.637157e-009
1.254883e-009
8.647092e-010
5.527989e-010
3.326699e-010
1.896956e-010
1.026373e-010
5.253038e-011
2.528279e-011
1.158389e-011
5.980575e-012
1.809795e-009
2.027445e-009
2.450193e-009
3.030328e-009
3.633312e-009
3.944368e-009
3.315480e-009
5.324751e-010
-6.514757e-009
-2.126271e-008
-4.898131e-008
-9.728684e-008
-1.765217e-007
-2.997744e-007
-4.822224e-007
-7.394320e-007
-1.084337e-006
-1.522952e-006
-2.049449e-006
-2.641893e-006
-3.260230e-006
-3.847805e-006
-4.336704e-006
-4.655984e-006
-4.740907e-006
-4.541080e-006
-4.025855e-006
-3.186257e-006
-2.033631e-006
-5.959330e-007
1.087194e-006
2.969518e-006
5.002764e-006
7.140258e-006
9.339548e-006
1.156405e-005
1.378386e-005
1.597580e-005
1.812296e-005
2.021365e-005
2.224012e-005
2.419703e-005
2.607992e-005
2.788374e-005
2.960166e-005
3.122419e-005
3.273851e-005
3.412829e-005
3.537368e-005
3.645153e-005
3.733583e-005
3.799819e-005
3.840847e-005
3.853543e-005
3.834752e-005
3.781383e-005
3.690540e-005
3.559702e-005
3.386970e-005
3.171402e-005
2.913437e-005
2.615394e-005
2.281991e-005
1.920786e-005
1.542402e-005
1.160378e-005
7.904788e-006
4.494010e-006
1.529222e-006
-8.624227e-007
-2.604361e-006
-3.683915e-006
-4.154562e-006
-4.125411e-006
-3.739855e-006
-3.148932e-006
-2.486548e-006
-1.852779e-006
-1.308099e-006
-8.773712e-007
-5.596320e-007
-3.391466e-007
-1.945439e-007
-1.047752e-007
-5.212063e-008
-2.311740e-008
-8.312116e-009
-1.502938e-009
1.125307e-009
1.769546e-009
1.604744e-009
1.204014e-009
8.115771e-010
5.072572e-010
2.982376e-010
1.659658e-010
8.754151e-011
4.382463e-011
2.138129e-011
1.206005e-011
2.741599e-009
3.012789e-009
3.504468e-009
4.070014e-009
4.364876e-009
3.665391e-009
5.779100e-010
-7.394052e-009
-2.444603e-008
-5.722102e-008
-1.156332e-007
-2.135780e-007
-3.691674e-007
-6.039034e-007
-9.399814e-007
-1.394897e-006
-1.973026e-006
-2.655100e-006
-3.388231e-006
-4.080496e-006
-4.603822e-006
-4.806702e-006
-4.534827e-006
-3.654773e-006
-2.074763e-006
2.423372e-007
3.276059e-006
6.954723e-006
1.116838e-005
1.578462e-005
2.066392e-005
2.567236e-005
3.069060e-005
3.561932e-005
4.038137e-005
4.492145e-005
4.920390e-005
5.320939e-005
5.693111e-005
6.037094e-005
6.353599e-005
6.643567e-005
6.907951e-005
7.147561e-005
7.362989e-005
7.554591e-005
7.722506e-005
7.866716e-005
7.987095e-005
8.083442e-005
8.155481e-005
8.202786e-005
8.224649e-005
8.219864e-005
8.186453e-005
8.121358e-005
8.020144e-005
7.876782e-005
7.683623e-005
7.431660e-005
7.111208e-005
6.713088e-005
6.230352e-005
5.660455e-005
5.007613e-005
4.284871e-005
3.515210e-005
2.730954e-005
1.971004e-005
1.275925e-005
6.817136e-006
2.137084e-006
-1.176957e-006
-3.182525e-006
-4.075868e-006
-4.140722e-006
-3.684547e-006
-2.981215e-006
-2.234746e-006
-1.569088e-006
-1.038927e-006
-6.510915e-007
-3.864849e-007
-2.166975e-007
-1.138777e-007
-5.516602e-008
-2.374289e-008
-8.197386e-009
-1.303813e-009
1.224963e-009
1.766954e-009
1.544023e-009
1.125314e-009
7.387718e-010
4.501254e-010
2.580028e-010
1.400195e-010
7.246482e-011
3.704979e-011
2.212849e-011
3.971959e-009
4.259567e-009
4.702190e-009
4.948454e-009
4.235890e-009
1.054745e-009
-7.381233e-009
-2.590326e-008
-6.241026e-008
-1.290804e-007
-2.435440e-007
-4.295049e-007
-7.158446e-007
-1.132674e-006
-1.702410e-006
-2.424449e-006
-3.254263e-006
-4.081776e-006
-4.717971e-006
-4.899702e-006
-4.318346e-006
-2.669319e-006
2.893435e-007
4.685348e-006
1.050167e-005
1.757425e-005
2.561629e-005
3.426126e-005
4.311313e-005
5.179248e-005
5.997118e-005
6.739267e-005
7.387936e-005
7.933004e-005
8.371041e-005
8.703941e-005
8.937368e-005
9.079234e-005
9.138382e-005
9.123619e-005
9.043146e-005
8.904379e-005
8.714082e-005
8.478746e-005
8.205089e-005
7.900611e-005
7.574108e-005
7.236071e-005
6.898921e-005
6.577011e-005
6.286357e-005
6.044065e-005
5.867422e-005
5.772646e-005
5.773300e-005
5.878420e-005
6.090423e-005
6.402973e-005
6.799001e-005
7.249254e-005
7.711795e-005
8.133039e-005
8.450927e-005
8.600763e-005
8.523826e-005
8.178074e-005
7.549045e-005
6.657958e-005
5.563711e-005
4.356579e-005
3.143837e-005
2.030295e-005
1.098902e-005
3.970709e-006
-6.764243e-007
-3.222277e-006
-4.157898e-006
-4.045339e-006
-3.389489e-006
-2.562876e-006
-1.788989e-006
-1.167656e-006
-7.176318e-007
-4.163752e-007
-2.276289e-007
-1.163474e-007
-5.461995e-008
-2.260653e-008
-7.321270e-009
-8.358020e-010
1.381503e-009
1.747788e-009
1.452685e-009
1.022186e-009
6.512327e-010
3.859189e-010
2.155896e-010
1.150036e-010
6.108108e-011
3.803029e-011
5.479786e-009
5.685012e-009
5.802604e-009
5.089612e-009
2.005707e-009
-6.384469e-009
-2.533252e-008
-6.370456e-008
-1.356260e-007
-2.622386e-007
-4.729192e-007
-8.045583e-007
-1.296348e-006
-1.976331e-006
-2.835946e-006
-3.792094e-006
-4.644213e-006
-5.044259e-006
-4.503341e-006
-2.452639e-006
1.643007e-006
8.144047e-006
1.710831e-005
2.821685e-005
4.077732e-005
5.380684e-005
6.617426e-005
7.676272e-005
8.461297e-005
8.901997e-005
8.957325e-005
8.614776e-005
7.886142e-005
6.801674e-005
5.403848e-005
3.741441e-005
1.864335e-005
-1.806008e-006
-2.352245e-005
-4.616430e-005
-6.945705e-005
-9.317915e-005
-1.171401e-004
-1.411546e-004
-1.650173e-004
-1.884797e-004
-2.112327e-004
-2.328945e-004
-2.530060e-004
-2.710325e-004
-2.863731e-004
-2.983761e-004
-3.063627e-004
-3.096562e-004
-3.076205e-004
-2.997058e-004
-2.855039e-004
-2.648130e-004
-2.377108e-004
-2.046334e-004
-1.664519e-004
-1.245335e-004
-8.076392e-005
-3.750088e-005
2.576273e-006
3.674384e-005
6.262797e-005
7.865182e-005
8.441456e-005
8.085771e-005
7.011993e-005
5.509243e-005
3.880254e-005
2.380741e-005
1.177896e-005
3.385430e-006
-1.559455e-006
-3.784512e-006
-4.212242e-006
-3.683114e-006
-2.808089e-006
-1.944287e-006
-1.247741e-006
-7.502013e-007
-4.244344e-007
-2.256438e-007
-1.117892e-007
-5.058304e-008
-1.991769e-008
-5.855763e-009
-2.031809e-010
1.545389e-009
1.695733e-009
1.330491e-009
9.001064e-010
5.551921e-010
3.200351e-010
1.758304e-010
9.654975e-011
6.213020e-011
7.143553e-009
7.059646e-009
6.306257e-009
3.437045e-009
-4.456681e-009
-2.276402e-008
-6.088469e-008
-1.342984e-007
-2.669781e-007
-4.934242e-007
-8.585165e-007
-1.411468e-006
-2.187609e-006
-3.170230e-006
-4.228270e-006
-5.038929e-006
-5.026531e-006
-3.368213e-006
8.857809e-007
8.565109e-006
2.004968e-005
3.495121e-005
5.191760e-005
6.864797e-005
8.215960e-005
8.925117e-005
8.702891e-005
7.335794e-005
4.713197e-005
8.315525e-006
-4.220769e-005
-1.028960e-004
-1.718314e-004
-2.469636e-004
-3.262963e-004
-4.080170e-004
-4.905803e-004
-5.727480e-004
-6.535922e-004
-7.324633e-004
-8.089332e-004
-8.827230e-004
-9.536273e-004
-1.021444e-003
-1.085918e-003
-1.146698e-003
-1.203317e-003
-1.255181e-003
-1.301571e-003
-1.341659e-003
-1.374521e-003
-1.399149e-003
-1.414463e-003
-1.419317e-003
-1.412501e-003
-1.392753e-003
-1.358780e-003
-1.309319e-003
-1.243242e-003
-1.159740e-003
-1.058593e-003
-9.405265e-004
-8.076143e-004
-6.636493e-004
-5.143284e-004
-3.670850e-004
-2.304246e-004
-1.127452e-004
-2.081086e-005
4.175092e-005
7.539798e-005
8.456689e-005
7.640765e-005
5.887889e-005
3.893862e-005
2.136755e-005
8.490242e-006
6.201833e-007
-3.162146e-006
-4.231332e-006
-3.860070e-006
-2.952999e-006
-2.018772e-006
-1.269133e-006
-7.442642e-007
-4.094825e-007
-2.110789e-007
-1.009614e-007
-4.374156e-008
-1.614737e-008
-4.071092e-009
4.629947e-010
1.665809e-009
1.599103e-009
1.181184e-009
7.668258e-010
4.582460e-010
2.595742e-010
1.470299e-010
9.731476e-011
8.676961e-009
7.923082e-009
5.324863e-009
-1.761220e-009
-1.853170e-008
-5.439520e-008
-1.253838e-007
-2.572078e-007
-4.882630e-007
-8.705461e-007
-1.463718e-006
-2.313213e-006
-3.398995e-006
-4.543480e-006
-5.285335e-006
-4.766110e-006
-1.724422e-006
5.289545e-006
1.741583e-005
3.475319e-005
5.558352e-005
7.583980e-005
8.913850e-005
8.759606e-005
6.327466e-005
9.853128e-006
-7.599098e-005
-1.939797e-004
-3.405251e-004
-5.096269e-004
-6.939853e-004
-8.860326e-004
-1.078727e-003
-1.266067e-003
-1.443359e-003
-1.607284e-003
-1.755808e-003
-1.887991e-003
-2.003727e-003
-2.103471e-003
-2.187990e-003
-2.258185e-003
-2.314969e-003
-2.359223e-003
-2.391805e-003
-2.413601e-003
-2.425587e-003
-2.428902e-003
-2.424900e-003
-2.415163e-003
-2.401477e-003
-2.385749e-003
-2.369868e-003
-2.355504e-003
-2.343843e-003
-2.335271e-003
-2.329000e-003
-2.322690e-003
-2.312081e-003
-2.290769e-003
-2.250252e-003
-2.180462e-003
-2.071032e-003
-1.913445e-003
-1.703943e-003
-1.446518e-003
-1.154709e-003
-8.507506e-004
-5.615487e-004
-3.126450e-004
-1.223036e-004
2.492062e-006
6.691767e-005
8.529373e-005
7.548875e-005
5.366845e-005
3.113061e-005
1.366973e-005
2.779428e-006
-2.541585e-006
-4.189871e-006
-3.934438e-006
-2.990209e-006
-2.005024e-006
-1.229220e-006
-7.007379e-007
-3.738089e-007
-1.862121e-007
-8.557827e-008
-3.518683e-008
-1.190332e-008
-2.263518e-009
1.040582e-009
1.705462e-009
1.455553e-009
1.013366e-009
6.325974e-010
3.704902e-010
2.163875e-010
1.469224e-010
9.551244e-009
7.484943e-009
1.434052e-009
-1.318505e-008
-4.521478e-008
-1.103330e-007
-2.346150e-007
-4.585325e-007
-8.393658e-007
-1.446666e-006
-2.339216e-006
-3.503805e-006
-4.733354e-006
-5.441450e-006
-4.471059e-006
-5.075622e-008
9.872784e-006
2.672891e-005
4.983172e-005
7.461510e-005
9.127063e-005
8.482276e-005
3.746553e-005
-6.713631e-005
-2.387120e-004
-4.765742e-004
-7.688059e-004
-1.094096e-003
-1.425317e-003
-1.734169e-003
-1.995845e-003
-2.192430e-003
-2.314366e-003
-2.360104e-003
-2.334560e-003
-2.246957e-003
-2.108590e-003
-1.930931e-003
-1.724316e-003
-1.497300e-003
-1.256566e-003
-1.007200e-003
-7.531556e-004
-4.977444e-004
-2.440688e-004
4.659517e-006
2.449259e-004
4.728339e-004
6.841141e-004
8.741859e-004
1.038235e-003
1.171277e-003
1.268182e-003
1.323659e-003
1.332223e-003
1.288177e-003
1.185699e-003
1.019166e-003
7.838779e-004
4.774425e-004
1.020624e-004
-3.321120e-004
-8.027973e-004
-1.271691e-003
-1.683551e-003
-1.972427e-003
-2.078496e-003
-1.972845e-003
-1.677373e-003
-1.263181e-003
-8.238279e-004
-4.407068e-004
-1.615335e-004
3.775086e-006
7.481762e-005
8.474820e-005
6.543702e-005
3.929031e-005
1.779487e-005
4.313071e-006
-2.181224e-006
-4.167388e-006
-3.918732e-006
-2.918595e-006
-1.904671e-006
-1.133222e-006
-6.257806e-007
-3.226290e-007
-1.547036e-007
-6.788490e-008
-2.614585e-008
-7.782297e-009
-6.848707e-010
1.444845e-009
1.649542e-009
1.273757e-009
8.407320e-010
5.115527e-010
3.084201e-010
2.145801e-010
8.913269e-009
4.523994e-009
-7.468035e-009
-3.464790e-008
-9.140061e-008
-2.026963e-007
-4.088977e-007
-7.698576e-007
-1.363008e-006
-2.262590e-006
-3.475033e-006
-4.795108e-006
-5.561308e-006
-4.363925e-006
1.084608e-006
1.352332e-005
3.469966e-005
6.266001e-005
8.813745e-005
9.142919e-005
4.258469e-005
-9.245393e-005
-3.396967e-004
-7.020844e-004
-1.148967e-003
-1.614143e-003
-2.005244e-003
-2.228022e-003
-2.217255e-003
-1.956331e-003
-1.475531e-003
-8.346194e-004
-1.024427e-004
6.580198e-004
1.397501e-003
2.082784e-003
2.695502e-003
3.229021e-003
3.684710e-003
4.068508e-003
4.388306e-003
4.652237e-003
4.867751e-003
5.041278e-003
5.178251e-003
5.283331e-003
5.360697e-003
5.414334e-003
5.448240e-003
5.466540e-003
5.473483e-003
5.473325e-003
5.470093e-003
5.467228e-003
5.467103e-003
5.470357e-003
5.475017e-003
5.475311e-003
5.460101e-003
5.410892e-003
5.299528e-003
5.086133e-003
4.718847e-003
4.138810e-003
3.296301e-003
2.183826e-003
8.818380e-004
-4.120005e-004
-1.420410e-003
-1.913310e-003
-1.852701e-003
-1.417088e-003
-8.680305e-004
-4.011104e-004
-9.834342e-005
4.744386e-005
8.656755e-005
7.294683e-005
4.446372e-005
1.993187e-005
4.768757e-006
-2.232139e-006
-4.189875e-006
-3.811537e-006
-2.741777e-006
-1.728245e-006
-9.932915e-007
-5.294850e-007
-2.628941e-007
-1.207476e-007
-5.014454e-008
-1.771144e-008
-4.246565e-009
5.049437e-010
1.642112e-009
1.507370e-009
1.072852e-009
6.832664e-010
4.263412e-010
3.039349e-010
5.515207e-009
-2.692931e-009
-2.426048e-008
-7.121035e-008
-1.659593e-007
-3.465009e-007
-6.719907e-007
-1.224157e-006
-2.092010e-006
-3.312200e-006
-4.718440e-006
-5.653376e-006
-4.569196e-006
1.248738e-006
1.526755e-005
3.974567e-005