# vtk DataFile Version 3.0
vtk output
ASCII
DATASET STRUCTURED_POINTS
DIMENSIONS 100 100 1
SPACING 1 1 1
ORIGIN 0 0 0
POINT_DATA 10000
SCALARS SFBox_profile double
LOOKUP_TABLE default 
0.000000e+000
0.000000e+000
0.000000e+000
0.000000e+000
0.000000e+000
0.000000e+000
0.000000e+000
0.000000e+000
0.000000e+000
0.000000e+000
0.000000e+000
0.000000e+000
0.000000e+000
0.000000e+000
0.000000e+000
0.000000e+000
0.000000e+000
0.000000e+000
0.000000e+000
0.000000e+000
0.000000e+000
0.000000e+000
0.000000e+000
0.000000e+000
0.000000e+000
0.000000e+000
0.000000e+000
0.000000e+000
0.000000e+000
0.000000e+000
0.000000e+000
0.000000e+000
0.000000e+000
0.000000e+000
0.000000e+000
0.000000e+000
0.000000e+000
0.000000e+000
0.000000e+000
0.000000e+000
0.000000e+000
0.000000e+000
0.000000e+000
0.000000e+000
0.000000e+000
0.000000e+000
0.000000e+000
0.000000e+000
0.000000e+000
0.000000e+000
0.000000e+000
0.000000e+000
0.000000e+000
0.000000e+000
0.000000e+000
0.000000e+000
0.000000e+000
0.000000e+000
0.000000e+000
0.000000e+000
0.000000e+000
0.000000e+000
0.000000e+000
0.000000e+000
0.000000e+000
0.000000e+000
0.000000e+000
0.000000e+000
0.000000e+000
0.000000e+000
0.000000e+000
0.000000e+000
0.000000e+000
0.000000e+000
0.000000e+000
0.000000e+000
0.000000e+000
0.000000e+000
0.000000e+000
0.000000e+000
0.000000e+000
0.000000e+000
0.000000e+000
0.000000e+000
0.000000e+000
0.000000e+000
0.000000e+000
0.000000e+000
0.000000e+000
0.000000e+000
0.000000e+000
0.000000e+000
0.000000e+000
0.000000e+000
0.000000e+000
0.000000e+000
0.000000e+000
0.000000e+000
0.000000e+000
0.000000e+000
-9.101928e-012
-3.412214e-012
3.978627e-012
8.317278e-012
7.270422e-012
2.158735e-012
-3.411664e-012
-6.240595e-012
-5.460404e-012
-2.474941e-012
6.341346e-013
2.677201e-012
3.682540e-012
4.056231e-012
3.703877e-012
2.081301e-012
-9.321991e-013
-4.358182e-012
-6.484357e-012
-6.065927e-012
-3.291292e-012
3.692293e-013
3.276331e-012
4.689755e-012
4.919075e-012
4.615987e-012
4.037075e-012
2.965707e-012
1.216151e-012
-9.306159e-013
-2.843068e-012
-4.037132e-012
-4.510861e-012
-4.602471e-012
-4.588602e-012
-4.461268e-012
-4.062836e-012
-3.357878e-012
-2.521281e-012
-1.779827e-012
-1.216979e-012
-7.544068e-013
-2.951858e-013
1.540887e-013
5.050738e-013
6.984772e-013
7.643523e-013
7.732661e-013
7.516623e-013
6.612982e-013
4.570777e-013
1.435882e-013
-2.338915e-013
-6.464966e-013
-1.111658e-012
-1.657148e-012
-2.260684e-012
-2.841776e-012
-3.317120e-012
-3.656289e-012
-3.862190e-012
-3.895977e-012
-3.644694e-012
-2.993917e-012
-1.949290e-012
-6.675245e-013
6.457041e-013
1.861227e-012
2.917287e-012
3.681716e-012
3.871850e-012
3.200982e-012
1.666065e-012
-3.114410e-013
-2.079375e-012
-3.134502e-012
-3.336484e-012
-2.786427e-012
-1.584555e-012
1.791806e-013
2.158992e-012
3.575762e-012
3.532027e-012
1.725074e-012
-1.060324e-012
-3.254102e-012
-3.527624e-012
-1.768755e-012
8.052852e-013
2.526625e-012
2.453783e-012
9.384237e-013
-7.885587e-013
-1.594762e-012
-1.194318e-012
-1.704390e-013
6.124302e-013
6.740833e-013
1.808446e-013
-2.999142e-013
-1.683062e-012
-4.151474e-013
1.089537e-012
1.667663e-012
9.176912e-013
-5.156442e-013
-1.471677e-012
-1.197424e-012
6.729744e-014
1.300565e-012
1.526114e-012
5.825075e-013
-7.964778e-013
-1.612181e-012
-1.389920e-012
-4.507981e-013
4.881730e-013
9.610261e-013
1.033217e-012
1.027477e-012
1.057375e-012
8.842774e-013
2.261133e-013
-8.432392e-013
-1.847015e-012
-2.276216e-012
-1.999274e-012
-1.310192e-012
-6.055790e-013
-4.446711e-014
4.830619e-013
1.107462e-012
1.763358e-012
2.234684e-012
2.374785e-012
2.244373e-012
2.027307e-012
1.844199e-012
1.669948e-012
1.420425e-012
1.082746e-012
7.397556e-013
4.817049e-013
3.206380e-013
2.015633e-013
8.145625e-014
-2.259441e-014
-6.365120e-014
-2.392169e-014
6.797051e-014
1.771028e-013
3.033564e-013
4.748362e-013
7.031482e-013
9.608286e-013
1.204306e-012
1.416252e-012
1.609497e-012
1.785715e-012
1.899042e-012
1.877576e-012
1.686533e-012
1.360145e-012
9.596123e-013
5.070011e-013
-1.936783e-014
-6.071982e-013
-1.139911e-012
-1.437231e-012
-1.390320e-012
-1.054306e-012
-5.938016e-013
-1.348148e-013
3.062066e-013
7.320678e-013
1.032016e-012
9.997512e-013
5.339680e-013
-1.772229e-013
-7.227887e-013
-7.759061e-013
-3.703447e-013
1.322422e-013
3.590263e-013
2.321868e-013
-2.161343e-014
-1.320945e-013
-4.166379e-014
9.000714e-014
9.710238e-014
-1.356084e-014
-9.791025e-014
-5.550016e-014
5.389063e-014
9.086258e-014
2.075959e-015
-1.134575e-013
-1.178570e-013
8.363681e-015
1.394468e-013
6.967620e-012
2.869135e-012
-2.608422e-012
-6.168454e-012
-6.025898e-012
-2.746419e-012
1.522175e-012
4.595727e-012
5.383984e-012
4.017434e-012
1.291044e-012
-1.874582e-012
-4.576911e-012
-5.910274e-012
-5.167735e-012
-2.304744e-012
1.756202e-012
5.408205e-012
7.169147e-012
6.459670e-012
3.794843e-012
3.178496e-013
-2.884103e-012
-5.177753e-012
-6.350160e-012
-6.390400e-012
-5.374716e-012
-3.511659e-012
-1.180988e-012
1.160000e-012
3.149905e-012
4.621121e-012
5.559070e-012
5.999865e-012
5.984503e-012
5.578614e-012
4.897792e-012
4.078157e-012
3.223152e-012
2.383900e-012
1.585928e-012
8.620981e-013
2.515014e-013
-2.269030e-013
-5.830966e-013
-8.370809e-013
-9.943358e-013
-1.044827e-012
-9.823332e-013
-8.151434e-013
-5.560642e-013
-2.060241e-013
2.435466e-013
7.934208e-013
1.425574e-012
2.109890e-012
2.817187e-012
3.515503e-012
4.152407e-012
4.646956e-012
4.905229e-012
4.849068e-012
4.428008e-012
3.613682e-012
2.405426e-012
8.597278e-013
-8.730331e-013
-2.547941e-012
-3.876923e-012
-4.597857e-012
-4.524475e-012
-3.580585e-012
-1.852547e-012
3.504158e-013
2.497412e-012
3.968652e-012
4.286764e-012
3.325371e-012
1.373006e-012
-9.629824e-013
-2.928052e-012
-3.821153e-012
-3.230912e-012
-1.287251e-012
1.225259e-012
3.102980e-012
3.337967e-012
1.785044e-012
-6.312957e-013
-2.436253e-012
-2.574039e-012
-1.127827e-012
7.717884e-013
1.802657e-012
1.410141e-012
1.376173e-013
-9.011510e-013
-9.474100e-013
-1.597113e-013
6.118445e-013
9.822340e-012
3.536024e-012
-4.491713e-012
-8.952333e-012
-7.450480e-012
-1.759113e-012
3.983494e-012
6.431853e-012
5.050445e-012
1.727868e-012
-1.217987e-012
-2.732069e-012
-3.153352e-012
-3.119566e-012
-2.624279e-012
-1.176487e-012
1.268447e-012
3.750475e-012
4.831823e-012
3.758209e-012
1.132014e-012
-1.549502e-012
-3.038155e-012
-3.119221e-012
-2.433994e-012
-1.688265e-012
-1.077644e-012
-3.890018e-013
5.146588e-013
1.419436e-012
1.950435e-012
1.941142e-012
1.566056e-012
1.132429e-012
8.032506e-013
5.295553e-013
2.050655e-013
-1.724383e-013
-5.035825e-013
-7.055867e-013
-7.913584e-013
-8.362654e-013
-8.911076e-013
-9.475897e-013
-9.725049e-013
-9.594563e-013
-9.335257e-013
-9.214468e-013
-9.257238e-013
-9.283749e-013
-9.141215e-013
-8.819508e-013
-8.390795e-013
-7.852044e-013
-7.048319e-013
-5.755388e-013
-3.863633e-013
-1.467150e-013
1.243234e-013
4.164561e-013
7.309168e-013
1.052296e-012
1.320501e-012
1.442260e-012
1.346881e-012
1.032939e-012
5.505561e-013
-5.678082e-014
-7.684761e-013
-1.512732e-012
-2.085082e-012
-2.191270e-012
-1.641322e-012
-5.342550e-013
7.564987e-013
1.807217e-012
2.357886e-012
2.323726e-012
1.659859e-012
3.431952e-013
-1.408500e-012
-2.926215e-012
-3.280350e-012
-1.935028e-012
6.257533e-013
2.958697e-012
3.566334e-012
2.015753e-012
-6.566645e-013
-2.659185e-012
-2.750337e-012
-1.100707e-012
9.445256e-013
1.952023e-012
1.438069e-012
8.060732e-014
-9.561055e-013
-9.623496e-013
-1.570674e-013
6.082525e-013
4.893051e-012
1.131827e-012
-3.254859e-012
-4.808822e-012
-2.476967e-012
1.673574e-012
4.233441e-012
3.217677e-012
-4.247447e-013
-3.712256e-012
-4.096132e-012
-1.414761e-012
2.204163e-012
4.220966e-012
3.623449e-012
1.338509e-012
-9.565108e-013
-2.307417e-012
-2.888835e-012
-3.222751e-012
-3.265615e-012
-2.392424e-012
-2.243217e-013
2.672832e-012
5.028926e-012
5.818707e-012
4.986033e-012
3.286954e-012
1.516771e-012
-6.138847e-014
-1.612834e-012
-3.234174e-012
-4.674529e-012
-5.540949e-012
-5.681976e-012
-5.308794e-012
-4.758389e-012
-4.202961e-012
-3.597231e-012
-2.859187e-012
-2.033724e-012
-1.271258e-012
-6.839109e-013
-2.631633e-013
6.768082e-014
3.483528e-013
5.458944e-013
6.087020e-013
5.275957e-013
3.410153e-013
8.562653e-014
-2.428091e-013
-6.730691e-013
-1.215374e-012
-1.833231e-012
-2.466911e-012
-3.074098e-012
-3.639875e-012
-4.138992e-012
-4.490407e-012
-4.568558e-012
-4.277580e-012
-3.615298e-012
-2.656243e-012
-1.471573e-012
-9.507875e-014
1.395081e-012
2.765668e-012
3.647766e-012
3.741202e-012
3.028196e-012
1.785448e-012
3.689765e-013
-9.853705e-013
-2.125160e-012
-2.795581e-012
-2.621328e-012
-1.425099e-012
3.929174e-013
1.897239e-012
2.217081e-012
1.248635e-012
-2.142031e-013
-1.107239e-012
-9.484992e-013
-1.472094e-013
4.744988e-013
4.459472e-013
-2.191505e-014
-3.770589e-013
-3.078586e-013
2.412299e-014
2.524230e-013
2.067391e-013
2.536375e-014
-7.227277e-014
-3.504864e-014
2.047704e-014
-1.249290e-015
-5.859469e-014
-3.468875e-012
-2.044463e-012
2.660948e-013
2.620815e-012
4.069765e-012
3.809889e-012
1.567912e-012
-1.999266e-012
-5.254884e-012
-6.246223e-012
-3.921665e-012
9.076283e-013
5.758762e-012
7.929877e-012
6.247025e-012
1.772206e-012
-3.060410e-012
-6.120142e-012
-6.705318e-012
-5.394085e-012
-3.095821e-012
-3.618387e-013
2.514366e-012
5.029660e-012
6.398765e-012
6.062454e-012
4.218651e-012
1.747240e-012
-4.379952e-013
-1.973155e-012
-3.037135e-012
-3.880220e-012
-4.459216e-012
-4.530772e-012
-4.008559e-012
-3.127011e-012
-2.249063e-012
-1.560497e-012
-9.910322e-013
-3.991526e-013
2.273745e-013
7.656475e-013
1.112238e-012
1.293777e-012
1.419414e-012
1.555234e-012
1.671966e-012
1.704140e-012
1.636597e-012
1.513975e-012
1.380007e-012
1.221008e-012
9.829569e-013
6.318476e-013
1.894025e-013
-2.989714e-013
-8.199210e-013
-1.402616e-012
-2.058198e-012
-2.717148e-012
-3.241634e-012
-3.511556e-012
-3.490959e-012
-3.190737e-012
-2.574106e-012
-1.545828e-012
-8.175889e-014
1.615978e-012
3.130145e-012
4.040191e-012
4.140883e-012
3.460044e-012
2.102781e-012
1.765811e-013
-2.056492e-012
-3.981911e-012
-4.747909e-012
-3.778617e-012
-1.305041e-012
1.605088e-012
3.633727e-012
3.978007e-012
2.709549e-012
5.598819e-013
-1.550112e-012
-2.848855e-012
-2.862326e-012
-1.553808e-012
5.082364e-013
2.230658e-012
2.561129e-012
1.266118e-012
-7.445623e-013
-2.005955e-012
-1.640081e-012
-9.128556e-014
1.255605e-012
1.287578e-012
1.324161e-013
-1.008410e-012
-8.647214e-012
-3.177768e-012
3.764658e-012
7.616511e-012
6.452829e-012
1.859334e-012
-2.821853e-012
-5.066057e-012
-4.477038e-012
-2.225566e-012
3.118314e-013
2.338770e-012
3.479349e-012
3.388641e-012
1.872028e-012
-6.145885e-013
-2.857423e-012
-3.569829e-012
-2.360993e-012
-5.954771e-014
1.940945e-012
2.699977e-012
2.206657e-012
1.038645e-012
-2.687872e-013
-1.486812e-012
-2.486606e-012
-3.010748e-012
-2.775694e-012
-1.776317e-012
-3.761809e-013
9.556957e-013
1.982044e-012
2.755466e-012
3.389753e-012
3.848941e-012
3.988489e-012
3.756994e-012
3.290742e-012
2.797867e-012
2.378522e-012
1.989134e-012
1.563406e-012
1.124851e-012
7.712020e-013
5.675041e-013
4.877959e-013
4.650823e-013
4.767301e-013
5.625701e-013
7.651021e-013
1.071819e-012
1.424442e-012
1.779740e-012
2.143671e-012
2.531860e-012
2.909694e-012
3.183642e-012
3.262691e-012
3.121972e-012
2.790874e-012
2.282459e-012
1.561152e-012
6.132991e-013
-4.521527e-013
-1.393808e-012
-1.969611e-012
-2.075443e-012
-1.760477e-012
-1.116236e-012
-2.153738e-013
8.055673e-013
1.630832e-012
1.834512e-012
1.176837e-012
-1.283126e-013
-1.456140e-012
-2.135045e-012
-1.832113e-012
-6.762037e-013
8.709701e-013
2.192921e-012
2.655991e-012
1.832271e-012
-1.384696e-013
-2.327062e-012
-3.361697e-012
-2.355395e-012
2.423009e-013
2.724175e-012
3.308118e-012
1.564150e-012
-1.152973e-012
-2.748068e-012
-2.089455e-012
8.291125e-014
1.842325e-012
1.758877e-012
1.039040e-013
-1.472987e-012
-7.229189e-012
-1.508366e-012
4.983028e-012
6.982962e-012
3.226709e-012
-2.804143e-012
-6.065341e-012
-4.151880e-012
1.019380e-012
5.175288e-012
5.292325e-012
1.712409e-012
-2.699106e-012
-5.140578e-012
-4.767665e-012
-2.559055e-012
1.152634e-013
2.546021e-012
4.536875e-012
5.696996e-012
5.295291e-012
2.924322e-012
-8.190348e-013
-4.489610e-012
-6.713490e-012
-7.002729e-012
-5.780231e-012
-3.773931e-012
-1.479997e-012
8.756372e-013
3.075723e-012
4.796936e-012
5.777153e-012
6.012010e-012
5.719437e-012
5.129240e-012
4.344207e-012
3.396296e-012
2.364889e-012
1.390485e-012
5.768627e-013
-7.627673e-014
-6.291541e-013
-1.106202e-012
-1.471712e-012
-1.689011e-012
-1.775872e-012
-1.785445e-012
-1.743681e-012
-1.623368e-012
-1.385177e-012
-1.025779e-012
-5.765144e-013
-5.510161e-014
5.582387e-013
1.286854e-012
2.106515e-012
2.937131e-012
3.690816e-012
4.307173e-012
4.731004e-012
4.862186e-012
4.559808e-012
3.721989e-012
2.372727e-012
6.649704e-013
-1.182859e-012
-2.930599e-012
-4.286047e-012
-4.894521e-012
-4.456883e-012
-2.942745e-012
-7.114349e-013
1.597643e-012
3.329224e-012
4.020840e-012
3.470903e-012
1.782710e-012
-5.314996e-013
-2.534900e-012
-3.217545e-012
-2.165675e-012
-3.290170e-014
1.754932e-012
2.016330e-012
7.556112e-013
-8.411085e-013
-1.421114e-012
-6.142503e-013
7.165162e-013
1.320509e-012
6.912423e-013
-5.414266e-013
-1.255604e-012
-8.594259e-013
2.321304e-013
1.032665e-012
8.747195e-013
-4.079101e-014
-8.667057e-013
-1.128481e-012
1.173645e-012
3.052811e-012
1.921031e-012
-2.021376e-012
-5.629831e-012
-5.400983e-012
-6.312902e-013
5.619019e-012
8.731300e-012
6.159560e-012
-5.306169e-013
-6.895620e-012
-9.010057e-012
-6.163190e-012
-8.076639e-013
3.775849e-012
5.815925e-012
5.552028e-012
4.060112e-012
2.003853e-012
-4.794930e-013
-3.066251e-012
-4.872937e-012
-4.992744e-012
-3.343098e-012
-8.379773e-013
1.318745e-012
2.486571e-012
2.795286e-012
2.672121e-012
2.323044e-012
1.679338e-012
7.032980e-013
-4.089887e-013
-1.351179e-012
-1.959969e-012
-2.292943e-012
-2.484328e-012
-2.588872e-012
-2.579629e-012
-2.447068e-012
-2.249288e-012
-2.063934e-012
-1.921760e-012
-1.809739e-012
-1.719313e-012
-1.669928e-012
-1.682299e-012
-1.749621e-012
-1.845821e-012
-1.956423e-012
-2.078962e-012
-2.201525e-012
-2.285521e-012
-2.284648e-012
-2.171106e-012
-1.931331e-012
-1.545906e-012
-9.879656e-013
-2.663853e-013
5.428079e-013
1.314727e-012
1.927035e-012
2.274590e-012
2.240612e-012
1.699070e-012
6.125553e-013
-8.359217e-013
-2.238531e-012
-3.135675e-012
-3.229110e-012
-2.452890e-012
-9.058623e-013
1.161018e-012
3.217710e-012
4.413431e-012
3.916672e-012
1.580764e-012
-1.640313e-012
-4.069593e-012
-4.373490e-012
-2.497931e-012
3.231286e-013
2.481461e-012
3.039718e-012
2.110474e-012
4.709385e-013
-1.035244e-012
-1.833585e-012
-1.674806e-012
-6.798009e-013
6.024850e-013
1.379956e-012
1.138729e-012
1.148007e-013
-8.185465e-013
-8.873380e-013
-1.282681e-013
6.476793e-013
4.847278e-012
2.416767e-012
-1.028740e-012
-3.739854e-012
-4.570342e-012
-3.308719e-012
-5.210676e-013
2.660903e-012
4.744199e-012
4.418658e-012
1.484847e-012
-2.552056e-012
-5.116760e-012
-4.348091e-012
-6.718786e-013
3.338266e-012
4.894793e-012
3.112366e-012
-5.096692e-013
-3.529075e-012
-4.462820e-012
-3.476320e-012
-1.580462e-012
4.955898e-013
2.582725e-012
4.520498e-012
5.719947e-012
5.479821e-012
3.680658e-012
1.010099e-012
-1.552939e-012
-3.437864e-012
-4.675137e-012
-5.519566e-012
-6.032276e-012
-6.059808e-012
-5.520831e-012
-4.587964e-012
-3.567189e-012
-2.654128e-012
-1.851429e-012
-1.091141e-012
-3.741997e-013
2.235650e-013
6.435932e-013
8.988220e-013
1.039209e-012
1.090727e-012
1.040113e-012
8.679873e-013
5.701174e-013
1.561714e-013
-3.635331e-013
-9.781757e-013
-1.674477e-012
-2.433611e-012
-3.222688e-012
-3.974334e-012
-4.582125e-012
-4.932618e-012
-4.944925e-012
-4.575350e-012
-3.783470e-012
-2.530573e-012
-8.606565e-013
9.979360e-013
2.649780e-012
3.702862e-012
3.951807e-012
3.402606e-012
2.164017e-012
4.070506e-013
-1.502841e-012
-2.902385e-012
-3.065348e-012
-1.750516e-012
4.129368e-013
2.181525e-012
2.520330e-012
1.320969e-012
-5.821711e-013
-2.057351e-012
-2.369040e-012
-1.435924e-012
2.945933e-013
2.033286e-012
2.837853e-012
2.026479e-012
-2.085275e-013
-2.553745e-012
-3.283098e-012
-1.649273e-012
1.241706e-012
3.114941e-012
2.423843e-012
-2.032383e-013
-2.429464e-012
-2.302462e-012
-5.912639e-014
2.100146e-012
7.095912e-012
1.401577e-012
-4.918231e-012
-6.668419e-012
-2.899261e-012
2.740463e-012
5.547255e-012
3.695930e-012
-8.008052e-013
-4.362639e-012
-4.793102e-012
-2.376381e-012
1.151028e-012
4.121711e-012
5.531246e-012
4.833195e-012
1.913805e-012
-2.449221e-012
-6.416887e-012
-7.929488e-012
-6.110138e-012
-1.937655e-012
2.503718e-012
5.499811e-012
6.565982e-012
6.129531e-012
4.702614e-012
2.522422e-012
-1.508443e-013
-2.714006e-012
-4.427915e-012
-4.944434e-012
-4.529023e-012
-3.730351e-012
-2.886643e-012
-1.988089e-012
-9.399151e-013
1.665973e-013
1.087471e-012
1.668901e-012
1.975675e-012
2.180777e-012
2.378529e-012
2.533159e-012
2.582874e-012
2.539414e-012
2.479085e-012
2.458251e-012
2.470739e-012
2.470335e-012
2.423637e-012
2.329933e-012
2.199795e-012
2.024805e-012
1.764025e-012
1.361126e-012
7.833288e-013
4.972686e-014
-7.767154e-013
-1.634694e-012
-2.482218e-012
-3.251088e-012
-3.775739e-012
-3.811258e-012
-3.170449e-012
-1.871153e-012
-1.414349e-013
1.713558e-012
3.406244e-012
4.611299e-012
4.885262e-012
3.816753e-012
1.414406e-012
-1.614550e-012
-4.074619e-012
-4.933594e-012
-3.912254e-012
-1.566983e-012
1.091787e-012
3.052348e-012
3.576324e-012
2.420975e-012
9.870418e-014
-2.101397e-012
-2.742774e-012
-1.339585e-012
1.015792e-012
2.340888e-012
1.444935e-012
-8.846236e-013
-2.469133e-012
-1.734546e-012
7.287887e-013
2.629696e-012
2.129186e-012
-3.604685e-013
-2.514085e-012
-2.296769e-012
7.828518e-014
2.342427e-012
5.272320e-012
-5.556977e-013
-6.179741e-012
-5.808431e-012
6.119061e-013
7.379269e-012
8.302050e-012
2.252904e-012
-5.965810e-012
-9.921514e-012
-6.886856e-012
4.228600e-013
6.679542e-012
8.278005e-012
5.392470e-012
7.071760e-013
-3.170671e-012
-5.110185e-012
-5.097639e-012
-3.404272e-012
-4.717317e-013
2.703665e-012
4.680034e-012
4.446323e-012
2.223131e-012
-7.118278e-013
-3.015443e-012
-4.100241e-012
-4.110817e-012
-3.359965e-012
-1.983883e-012
-1.011089e-013
1.928021e-012
3.586707e-012
4.556898e-012
4.906824e-012
4.906232e-012
4.715682e-012
4.306022e-012
3.633474e-012
2.802858e-012
2.017657e-012
1.407192e-012
9.498296e-013
5.611695e-013
2.194706e-013
-1.385661e-014
-7.594128e-014
2.840060e-014
2.431869e-013
5.260793e-013
8.851493e-013
1.353592e-012
1.935877e-012
2.577265e-012
3.185622e-012
3.682801e-012
4.030562e-012
4.196308e-012
4.100878e-012
3.618966e-012
2.673942e-012
1.341849e-012
-1.486696e-013
-1.527224e-012
-2.583997e-012
-3.148156e-012
-3.019892e-012
-2.032551e-012
-2.862160e-013
1.682677e-012
3.055362e-012
3.174593e-012
1.934479e-012
-1.835421e-013
-2.368113e-012
-3.754748e-012
-3.637327e-012
-1.762854e-012
1.275986e-012
3.974534e-012
4.628430e-012
2.591216e-012
-9.593293e-013
-3.664219e-012
-3.749287e-012
-1.439122e-012
1.285208e-012
2.408443e-012
1.510173e-012
-1.421329e-013
-9.723174e-013
-5.299525e-013
3.361245e-013
5.443191e-013
-1.004922e-013
-8.175113e-013
-7.532938e-013
1.112655e-013
9.538253e-013
1.281911e-012
-1.550427e-012
-3.721448e-012
-2.119052e-012
2.619386e-012
6.369971e-012
5.281920e-012
-4.399468e-013
-6.343805e-012
-7.489604e-012
-2.814924e-012
3.875593e-012
7.201080e-012
4.754440e-012
-1.141258e-012
-5.768301e-012
-5.996210e-012
-2.320672e-012
2.346519e-012
5.364546e-012
5.903570e-012
4.499028e-012
1.879302e-012
-1.455315e-012
-4.818661e-012
-7.111421e-012
-7.364395e-012
-5.502850e-012
-2.429999e-012
6.802845e-013
3.125810e-012
4.794290e-012
5.767817e-012
6.023280e-012
5.524074e-012
4.438549e-012
3.125390e-012
1.886473e-012
8.023980e-013
-1.852900e-013
-1.084459e-012
-1.807338e-012
-2.281722e-012
-2.551057e-012
-2.729682e-012
-2.886962e-012
-2.998533e-012
-3.011355e-012
-2.920510e-012
-2.773908e-012
-2.606131e-012
-2.389048e-012
-2.052020e-012
-1.546355e-012
-8.822557e-013
-1.030940e-013
7.681539e-013
1.738921e-012
2.788553e-012
3.798917e-012
4.560643e-012
4.864708e-012
4.594057e-012
3.722080e-012
2.259886e-012
2.739652e-013
-1.990873e-012
-4.026977e-012
-5.196023e-012
-5.042420e-012
-3.548120e-012
-1.136278e-012
1.502687e-012
3.567299e-012
4.280835e-012
3.189450e-012
6.162626e-013
-2.159201e-012
-3.475193e-012
-2.447715e-012
2.114326e-013
2.583405e-012
2.974454e-012
1.211297e-012
-1.313115e-012
-2.808775e-012
-2.402635e-012
-5.687430e-013
1.426561e-012
2.414653e-012
1.923738e-012
3.275682e-013
-1.370168e-012
-2.069646e-012
-1.293679e-012
3.672695e-013
1.594906e-012
1.393761e-012
-7.224328e-015
-1.308229e-012
-2.820117e-012
-9.443842e-013
1.360164e-012
2.523793e-012
1.955825e-012
1.922318e-013
-1.681242e-012
-2.590177e-012
-1.803898e-012
6.548860e-013
3.564273e-012
4.759111e-012
2.573308e-012
-2.403372e-012
-7.068809e-012
-7.862998e-012
-3.672046e-012
3.046076e-012
8.084507e-012
8.667779e-012
5.190000e-012
2.561065e-013
-3.643585e-012
-5.556388e-012
-5.740922e-012
-4.624184e-012
-2.415604e-012
4.796117e-013
3.154102e-012
4.611202e-012
4.476872e-012
3.191044e-012
1.511229e-012
-8.379242e-014
-1.509406e-012
-2.774228e-012
-3.749640e-012
-4.261985e-012
-4.301556e-012
-4.045532e-012
-3.683848e-012
-3.282271e-012
-2.824801e-012
-2.335720e-012
-1.908921e-012
-1.625556e-012
-1.486821e-012
-1.442413e-012
-1.470418e-012
-1.601202e-012
-1.865467e-012
-2.237714e-012
-2.643329e-012
-3.016005e-012
-3.332426e-012
-3.576214e-012
-3.683846e-012
-3.542604e-012
-3.057417e-012
-2.222171e-012
-1.113307e-012
1.637658e-013
1.487349e-012
2.661015e-012
3.367818e-012
3.274010e-012
2.234316e-012
4.333378e-013
-1.670571e-012
-3.509525e-012
-4.514362e-012
-4.175383e-012
-2.248776e-012
8.720708e-013
3.975808e-012
5.482709e-012
4.444268e-012
1.332059e-012
-2.138075e-012
-4.108857e-012
-3.744787e-012
-1.591021e-012
9.605282e-013
2.524775e-012
2.367247e-012
7.092247e-013
-1.312592e-012
-2.201460e-012
-1.152963e-012
1.088011e-012
2.557951e-012
1.721420e-012
-9.216237e-013
-3.002505e-012
-2.417634e-012
5.050677e-013
3.090811e-012
2.823555e-012
-1.280522e-013
-2.966281e-012
-5.758972e-012
3.027265e-013
6.202679e-012
6.091342e-012
1.385798e-014
-6.462941e-012
-7.662251e-012
-2.763836e-012
4.071685e-012
7.759948e-012
6.283426e-012
1.364434e-012
-3.708782e-012
-6.430642e-012
-5.896574e-012
-2.548565e-012
2.093865e-012
5.705198e-012
6.130498e-012
2.894875e-012
-2.113133e-012
-5.799127e-012
-6.087735e-012
-3.253391e-012
7.312880e-013
3.944717e-012
5.621796e-012
5.896438e-012
4.990380e-012
2.950301e-012
3.291349e-014
-3.020548e-012
-5.324182e-012
-6.439286e-012
-6.551546e-012
-6.097217e-012
-5.329928e-012
-4.262927e-012
-2.917345e-012
-1.475316e-012
-1.732025e-013
8.850008e-013
1.747445e-012
2.481251e-012
3.072122e-012
3.461493e-012
3.637323e-012
3.646614e-012
3.528575e-012
3.270252e-012
2.835824e-012
2.224494e-012
1.472594e-012
6.083609e-013
-3.734023e-013
-1.473648e-012
-2.632161e-012
-3.727924e-012
-4.629080e-012
-5.226006e-012
-5.402445e-012
-5.003815e-012
-3.898347e-012
-2.118188e-012
6.112096e-014
2.197639e-012
3.841265e-012
4.617353e-012
4.231826e-012
2.567959e-012
-5.353689e-014
-2.698017e-012
-4.109098e-012
-3.458794e-012
-1.012298e-012
1.916571e-012
3.743556e-012
3.531802e-012
1.418428e-012
-1.538079e-012
-3.826195e-012
-4.099966e-012
-1.944238e-012
1.549226e-012
4.108301e-012
3.800616e-012
7.624408e-013
-2.576987e-012
-3.433653e-012
-1.229171e-012
1.767844e-012
2.593498e-012
5.457331e-013
-2.093153e-012
-2.421905e-012
1.183920e-014
2.681339e-012
2.712161e-012
-6.684699e-014
-2.883571e-012
-6.622442e-012
8.957996e-013
7.835819e-012
6.863566e-012
-1.291937e-012
-8.781186e-012
-8.476821e-012
-7.389019e-013
7.310458e-012
8.749285e-012
2.995007e-012
-4.417944e-012
-7.376154e-012
-4.281328e-012
1.613519e-012
5.804651e-012
6.022282e-012
2.875451e-012
-1.647675e-012
-5.600818e-012
-7.477833e-012
-6.335215e-012
-2.326177e-012
2.916005e-012
6.961149e-012
8.100928e-012
6.362414e-012
3.111118e-012
-2.062856e-013
-2.879810e-012
-4.764722e-012
-5.730368e-012
-5.544745e-012
-4.226059e-012
-2.247858e-012
-2.553871e-013
1.390933e-012
2.731153e-012
3.934457e-012
5.017466e-012
5.861131e-012
6.410654e-012
6.762487e-012
7.052778e-012
7.316970e-012
7.495484e-012
7.539670e-012
7.469431e-012
7.330342e-012
7.131824e-012
6.852587e-012
6.485069e-012
6.046530e-012
5.539134e-012
4.926364e-012
4.160504e-012
3.220880e-012
2.111115e-012
8.267806e-013
-6.255296e-013
-2.146285e-012
-3.491619e-012
-4.344996e-012
-4.457352e-012
-3.723828e-012
-2.156082e-012
1.198129e-013
2.729216e-012
4.924453e-012
5.761556e-012
4.630422e-012
1.773883e-012
-1.692688e-012
-4.328479e-012
-5.072299e-012
-3.667041e-012
-7.323554e-013
2.380878e-012
4.015689e-012
3.078795e-012
1.730423e-014
-3.048514e-012
-3.685447e-012
-1.218225e-012
2.393529e-012
4.053674e-012
2.297683e-012
-1.287414e-012
-3.514765e-012
-2.592188e-012
2.846071e-013
2.288988e-012
1.799427e-012
-1.949528e-013
-1.416697e-012
-7.638036e-013
7.110882e-013
1.190645e-012
1.648674e-013
-1.098102e-012
-4.605491e-012
5.231073e-013
5.085747e-012
4.134202e-012
-1.352506e-012
-5.544018e-012
-3.879212e-012
2.108994e-012
6.238258e-012
3.945811e-012
-2.991157e-012
-8.037579e-012
-6.169448e-012
1.394108e-012
8.450632e-012
9.476935e-012
4.117520e-012
-3.302620e-012
-7.915957e-012
-7.809549e-012
-4.249801e-012
3.469620e-013
4.119237e-012
6.020280e-012
5.509140e-012
2.696512e-012
-1.311839e-012
-4.749073e-012
-6.235059e-012
-5.574661e-012
-3.545424e-012
-1.039404e-012
1.490595e-012
3.893401e-012
5.951305e-012
7.367817e-012
8.059317e-012
8.296208e-012
8.472313e-012
8.785738e-012
9.186711e-012
9.575632e-012
9.960676e-012
1.040513e-011
1.088849e-011
1.128384e-011
1.146547e-011
1.139928e-011
1.112605e-011
1.069242e-011
1.013215e-011
9.493099e-012
8.848836e-012
8.268243e-012
7.785405e-012
7.405968e-012
7.112771e-012
6.836160e-012
6.424625e-012
5.687217e-012
4.500645e-012
2.878810e-012
9.447416e-013
-1.121710e-012
-3.042346e-012
-4.360997e-012
-4.525331e-012
-3.216321e-012
-7.056802e-013
2.112442e-012
4.107381e-012
4.429131e-012
2.838609e-012
-1.888963e-013
-3.476918e-012
-5.399703e-012
-4.629596e-012
-1.201973e-012
3.012964e-012
5.278587e-012
4.030919e-012
2.930095e-013
-3.016353e-012
-3.488526e-012
-1.205278e-012
1.529947e-012
2.381003e-012
9.614897e-013
-1.137328e-012
-2.021498e-012
-1.121288e-012
5.998918e-013
1.707573e-012
1.467287e-012
2.222525e-013
-1.054198e-012
-1.494945e-012
-8.706135e-013
3.285620e-013
1.248038e-012
1.787578e-013
-1.119023e-013
-6.212891e-013
-1.035565e-012
-7.636772e-013
6.116376e-013
2.582164e-012
3.523002e-012
1.804366e-012
-2.344040e-012
-6.120098e-012
-5.998821e-012
-1.042434e-012
5.497164e-012
8.412822e-012
5.039295e-012
-2.168589e-012
-7.594779e-012
-7.218491e-012
-1.736828e-012
4.564415e-012
7.612303e-012
6.300204e-012
2.226582e-012
-2.338589e-012
-5.899284e-012
-7.737562e-012
-7.453096e-012
-5.027789e-012
-1.187366e-012
2.756451e-012
5.681594e-012
7.287269e-012
7.977429e-012
8.272305e-012
8.451817e-012
8.675268e-012
9.204193e-012
1.034694e-011
1.220996e-011
1.460435e-011
1.721496e-011
1.980691e-011
2.224377e-011
2.437166e-011
2.596772e-011
2.682331e-011
2.684743e-011
2.607431e-011
2.460199e-011
2.255067e-011
2.007166e-011
1.735854e-011
1.462696e-011
1.208918e-011
9.939175e-012
8.328741e-012
7.310811e-012
6.801516e-012
6.606907e-012
6.494226e-012
6.218319e-012
5.494308e-012
4.030136e-012
1.713157e-012
-1.169956e-012
-3.911731e-012
-5.659924e-012
-5.792999e-012
-4.162696e-012
-1.163490e-012
2.248574e-012
4.669441e-012
4.772359e-012
2.229910e-012
-1.646363e-012
-4.410016e-012
-4.132008e-012
-9.676694e-013
2.812717e-012
4.523372e-012
3.094094e-012
-2.506793e-013
-3.087167e-012
-3.605505e-012
-1.738829e-012
9.975347e-013
2.631670e-012
2.080081e-012
-6.600695e-014
-1.919997e-012
-1.800323e-012
2.085751e-013
2.149039e-012
1.958984e-012
-3.945729e-013
-2.662206e-012
-2.470376e-012
1.855002e-013
2.786160e-012
5.796330e-012
-3.200756e-013
-6.173944e-012
-5.970568e-012
-6.456193e-014
5.882480e-012
6.652833e-012
2.063855e-012
-3.625358e-012
-5.964204e-012
-3.751232e-012
8.612040e-013
4.540887e-012
4.921189e-012
1.663225e-012
-3.378770e-012
-6.901412e-012
-6.045234e-012
-6.551477e-013
6.051452e-012
9.567181e-012
7.506709e-012
1.358069e-012
-4.956490e-012
-8.180270e-012
-7.621773e-012
-4.625154e-012