# vtk DataFile Version 3.0
vtk output
ASCII
DATASET STRUCTURED_POINTS
DIMENSIONS 100 100 1
SPACING 1 1 1
ORIGIN 0 0 0
POINT_DATA 10000
SCALARS SFBox_profile double
LOOKUP_TABLE default 
0.000000e+000
0.000000e+000
0.000000e+000
0.000000e+000
0.000000e+000
0.000000e+000
0.000000e+000
0.000000e+000
0.000000e+000
0.000000e+000
0.000000e+000
0.000000e+000
0.000000e+000
0.000000e+000
0.000000e+000
0.000000e+000
0.000000e+000
0.000000e+000
0.000000e+000
0.000000e+000
0.000000e+000
0.000000e+000
0.000000e+000
0.000000e+000
0.000000e+000
0.000000e+000
0.000000e+000
0.000000e+000
0.000000e+000
0.000000e+000
0.000000e+000
0.000000e+000
0.000000e+000
0.000000e+000
0.000000e+000
0.000000e+000
0.000000e+000
0.000000e+000
0.000000e+000
0.000000e+000
0.000000e+000
0.000000e+000
0.000000e+000
0.000000e+000
0.000000e+000
0.000000e+000
0.000000e+000
0.000000e+000
0.000000e+000
0.000000e+000
0.000000e+000
0.000000e+000
0.000000e+000
0.000000e+000
0.000000e+000
0.000000e+000
0.000000e+000
0.000000e+000
0.000000e+000
0.000000e+000
0.000000e+000
0.000000e+000
0.000000e+000
0.000000e+000
0.000000e+000
0.000000e+000
0.000000e+000
0.000000e+000
0.000000e+000
0.000000e+000
0.000000e+000
0.000000e+000
0.000000e+000
0.000000e+000
0.000000e+000
0.000000e+000
0.000000e+000
0.000000e+000
0.000000e+000
0.000000e+000
0.000000e+000
0.000000e+000
0.000000e+000
0.000000e+000
0.000000e+000
0.000000e+000
0.000000e+000
0.000000e+000
0.000000e+000
0.000000e+000
0.000000e+000
0.000000e+000
0.000000e+000
0.000000e+000
0.000000e+000
0.000000e+000
0.000000e+000
0.000000e+000
0.000000e+000
0.000000e+000
7.289238e-008
4.636348e-008
9.165672e-009
-1.808541e-008
-2.389191e-008
-1.227356e-008
2.559923e-009
8.331371e-009
3.614110e-009
-3.282163e-009
-3.529859e-009
3.651590e-009
1.076255e-008
9.823012e-009
4.058282e-010
-9.871928e-009
-1.267447e-008
-6.728615e-009
1.533101e-009
4.738874e-009
1.648519e-009
-2.502291e-009
-2.177483e-009
2.622231e-009
6.859953e-009
6.210504e-009
1.524762e-009
-2.587812e-009
-2.940899e-009
-7.628371e-010
4.426335e-010
-8.353932e-010
-2.709011e-009
-2.530480e-009
-5.043844e-011
2.576127e-009
3.523728e-009
3.249383e-009
3.522269e-009
5.097865e-009
6.973282e-009
7.853955e-009
7.724164e-009
7.613055e-009
8.143845e-009
8.858127e-009
9.023125e-009
8.643269e-009
8.334544e-009
8.406247e-009
8.499315e-009
8.200682e-009
7.657752e-009
7.314218e-009
7.216928e-009
6.943768e-009
6.251305e-009
5.462702e-009
4.990215e-009
4.678007e-009
3.974700e-009
2.770243e-009
1.699135e-009
1.360658e-009
1.443955e-009
1.027081e-009
-1.946974e-010
-1.350130e-009
-1.379709e-009
-4.282087e-010
1.904853e-010
-4.109908e-010
-1.457460e-009
-1.294204e-009
5.833319e-010
2.687158e-009
3.053783e-009
1.484704e-009
-1.255151e-010
1.015660e-010
1.799534e-009
2.589397e-009
6.597145e-010
-3.063823e-009
-5.556619e-009
-4.566911e-009
-7.979473e-010
2.777706e-009
3.700861e-009
2.106137e-009
1.791180e-010
-2.324878e-010
6.377234e-010
1.013451e-009
-3.307256e-010
-2.615156e-009
-3.686046e-009
-2.097129e-009
1.366754e-009
4.181904e-009
1.955911e-008
1.076467e-008
-1.042821e-009
-8.418639e-009
-7.508098e-009
-5.829952e-010
6.028578e-009
7.014545e-009
2.139940e-009
-3.979634e-009
-6.130076e-009
-3.035237e-009
1.841679e-009
3.852646e-009
1.621946e-009
-1.889250e-009
-2.647722e-009
2.510725e-010
3.748935e-009
4.133874e-009
9.365264e-010
-2.694548e-009
-3.416941e-009
-1.131823e-009
1.225964e-009
1.100772e-009
-9.744987e-010
-2.277733e-009
-1.136007e-009
1.281303e-009
2.497478e-009
1.573968e-009
-6.313550e-011
-5.413151e-010
2.834382e-010
9.201128e-010
2.222565e-010
-1.290708e-009
-2.243876e-009
-2.118832e-009
-1.712237e-009
-1.963921e-009
-2.797375e-009
-3.379417e-009
-3.269050e-009
-2.896985e-009
-2.875746e-009
-3.193107e-009
-3.344366e-009
-3.092672e-009
-2.756883e-009
-2.696467e-009
-2.798071e-009
-2.688333e-009
-2.311063e-009
-2.003192e-009
-1.968668e-009
-1.944170e-009
-1.576309e-009
-9.791198e-010
-6.339219e-010
-7.122584e-010
-7.712610e-010
-3.210222e-010
4.539860e-010
8.404133e-010
5.115285e-010
2.522544e-011
1.684844e-010
9.123135e-010
1.340591e-009
7.469779e-010
-4.208283e-010
-9.968079e-010
-4.673836e-010
3.711782e-010
3.215140e-010
-7.660436e-010
-1.724754e-009
-1.351625e-009
2.051890e-010
1.538574e-009
1.465365e-009
2.574453e-010
-7.090965e-010
-4.549350e-010
5.979388e-010
1.151762e-009
4.549105e-010
-9.048275e-010
-1.614861e-009
-9.632690e-010
4.759126e-010
1.419871e-009
1.084664e-009
-1.391111e-010
-1.110717e-009
-9.952499e-010
2.457439e-011
9.702535e-010
-4.515788e-008
-3.079942e-008
-1.012157e-008
6.479651e-009
1.305809e-008
1.084830e-008
5.421462e-009
1.422398e-009
-4.372964e-010
-2.135736e-009
-4.935490e-009
-7.530448e-009
-7.388054e-009
-3.546422e-009
2.146854e-009
6.512495e-009
7.601662e-009
5.870448e-009
3.181295e-009
1.002043e-009
-4.214867e-010
-1.539282e-009
-2.618883e-009
-3.481708e-009
-3.817236e-009
-3.461449e-009
-2.390607e-009
-7.064889e-010
1.219309e-009
2.731351e-009
3.275513e-009
2.876153e-009
2.102949e-009
1.457186e-009
8.558025e-010
-1.614458e-010
-1.752177e-009
-3.472269e-009
-4.739242e-009
-5.474217e-009
-6.117874e-009
-7.021984e-009
-8.002884e-009
-8.602570e-009
-8.680841e-009
-8.568616e-009
-8.624528e-009
-8.807939e-009
-8.806934e-009
-8.495970e-009
-8.091737e-009
-7.833573e-009
-7.664558e-009
-7.347616e-009
-6.820777e-009
-6.274122e-009
-5.847669e-009
-5.396868e-009
-4.677989e-009
-3.707162e-009
-2.785885e-009
-2.133720e-009
-1.613811e-009
-9.281243e-010
-3.495999e-011
7.606701e-010
1.167984e-009
1.258733e-009
1.357766e-009
1.618543e-009
1.815248e-009
1.595466e-009
8.740144e-010
-8.223391e-011
-9.214868e-010
-1.482133e-009
-1.809632e-009
-1.995306e-009
-2.057370e-009
-1.923930e-009
-1.442204e-009
-4.267093e-010
1.150617e-009
2.895551e-009
3.976840e-009
3.595115e-009
1.667693e-009
-9.157351e-010
-2.830890e-009
-3.256622e-009
-2.378411e-009
-1.025445e-009
1.330189e-010
1.004476e-009
1.758332e-009
2.261700e-009
2.005884e-009
6.744016e-010
-1.272652e-009
-2.717971e-009
-7.347735e-008
-4.589212e-008
-7.790528e-009
1.910471e-008
2.350128e-008
1.073203e-008
-3.972837e-009
-8.656541e-009
-3.088336e-009
3.775033e-009
3.718728e-009
-3.036469e-009
-9.041073e-009
-7.629100e-009
4.995815e-010
8.297468e-009
9.389425e-009
3.870468e-009
-2.530453e-009
-4.427164e-009
-1.604435e-009
1.748535e-009
1.858781e-009
-1.030567e-009
-3.590298e-009
-3.207023e-009
-4.276742e-010
2.122265e-009
2.626837e-009
1.577311e-009
6.985293e-010
9.385614e-010
1.741213e-009
2.023719e-009
1.450371e-009
6.250175e-010
2.686723e-010
4.764466e-010
7.912795e-010
8.052831e-010
5.419593e-010
3.049801e-010
3.047469e-010
4.935939e-010
6.923677e-010
7.849020e-010
7.830472e-010
7.647496e-010
7.910596e-010
8.667342e-010
9.472118e-010
9.791450e-010
9.515370e-010
9.106816e-010
9.093820e-010
9.379008e-010
9.290769e-010
8.538821e-010
7.944338e-010
8.746379e-010
1.095528e-009
1.277020e-009
1.226548e-009
9.807112e-010
8.197226e-010
9.706709e-010
1.303446e-009
1.413269e-009
1.080209e-009
6.027704e-010
5.400263e-010
1.045514e-009
1.545497e-009
1.257081e-009
9.893683e-011
-1.041787e-009
-1.149678e-009
-2.354651e-010
5.180106e-010
-2.544200e-011
-1.568310e-009
-2.413587e-009
-1.119656e-009
1.828767e-009
4.160024e-009
3.827227e-009
9.747175e-010
-2.130060e-009
-3.185429e-009
-1.913366e-009
-7.797103e-011
4.627762e-010
-3.693510e-010
-9.682561e-010
6.168419e-011
2.224049e-009
3.440025e-009
2.093406e-009
-1.215501e-009
-3.986958e-009
-5.019627e-008
-2.690282e-008
3.784870e-009
2.196688e-008
1.831988e-008
9.943967e-011
-1.582660e-008
-1.689637e-008
-4.216671e-009
1.001069e-008
1.402722e-008
6.466597e-009
-3.871502e-009
-7.332540e-009
-2.434327e-009
3.841699e-009
3.989388e-009
-2.330117e-009
-8.465639e-009
-8.026223e-009
-1.328429e-009
5.425948e-009
6.780336e-009
3.188795e-009
-3.659679e-010
-1.180039e-010
2.829886e-009
4.457881e-009
2.579828e-009
-1.007534e-009
-2.895268e-009
-1.783178e-009
6.082341e-010
1.946184e-009
1.860508e-009
1.876088e-009
3.272254e-009
5.627871e-009
7.549173e-009
8.351007e-009
8.612938e-009
9.209718e-009
1.024165e-008
1.111357e-008
1.140689e-008
1.132924e-008
1.130184e-008
1.139800e-008
1.137357e-008
1.110909e-008
1.077488e-008
1.053832e-008
1.031150e-008
9.917492e-009
9.388293e-009
8.913218e-009
8.508249e-009
7.935213e-009
7.052341e-009
6.101530e-009
5.446260e-009
5.044562e-009
4.412643e-009
3.251277e-009
1.958577e-009
1.259503e-009
1.292642e-009
1.322383e-009
5.944986e-010
-6.134584e-010
-1.121146e-009
-1.950963e-010
1.423994e-009
2.175342e-009
1.434605e-009
3.429696e-010
5.777480e-010
2.315859e-009
3.749718e-009
2.907137e-009
-1.029565e-010
-2.942087e-009
-3.312670e-009
-1.292580e-009
7.799674e-010
7.857597e-010
-9.614399e-010
-2.118830e-009
-8.973317e-010
1.919689e-009
3.656576e-009
2.438399e-009
-8.525102e-010
-3.333689e-009
-2.841507e-009
4.527399e-011
2.597486e-009
2.520517e-009
5.806138e-011
-2.326801e-009
4.918090e-010
6.075763e-009
1.201110e-008
1.185730e-008
3.281006e-009
-9.319486e-009
-1.740287e-008
-1.472897e-008
-2.685304e-009
1.030987e-008
1.539793e-008
1.039337e-008
1.036354e-009
-4.754875e-009
-4.090419e-009
-8.482512e-010
-6.054187e-010
-4.361171e-009
-7.679600e-009
-5.890932e-009
5.424874e-010
6.380941e-009
7.138623e-009
3.600140e-009
4.834757e-010
1.047008e-009
3.782749e-009
4.646533e-009
1.910548e-009
-1.970598e-009
-3.312021e-009
-1.258835e-009
1.658941e-009
2.708828e-009
1.893023e-009
1.404396e-009
2.712065e-009
4.938877e-009
6.201899e-009
5.916726e-009
5.230084e-009
5.367102e-009
6.184056e-009
6.615830e-009
6.154253e-009
5.377172e-009
5.041716e-009
5.127970e-009
5.055823e-009
4.589616e-009
4.115876e-009
4.010338e-009
4.099774e-009
3.983046e-009
3.672423e-009
3.568256e-009
3.798089e-009
3.926564e-009
3.536280e-009
2.887242e-009
2.651345e-009
2.981069e-009
3.190688e-009
2.605967e-009
1.534360e-009
1.000411e-009
1.442133e-009
2.021169e-009
1.567370e-009
1.075248e-010
-9.620487e-010
-4.389459e-010
1.192876e-009
2.212502e-009
1.645358e-009
4.583105e-010
4.730559e-010
2.179225e-009
3.986952e-009
3.850580e-009
1.472432e-009
-1.374385e-009
-2.722996e-009
-2.350653e-009
-1.662474e-009
-1.798962e-009
-2.223033e-009
-1.407515e-009
1.182803e-009
4.077167e-009
4.950361e-009
2.812076e-009
-9.633592e-010
-3.759093e-009
-3.881089e-009
-1.782693e-009
6.024850e-010
1.621709e-009
1.144465e-009
3.322248e-010
4.137721e-008
2.702744e-008
7.297824e-009
-7.020563e-009
-1.108962e-008
-7.814516e-009
-3.175283e-009
-5.314165e-010
7.614640e-010
2.370887e-009
4.009226e-009
3.874702e-009
1.370523e-009
-1.657313e-009
-2.785063e-009
-1.638304e-009
-5.056863e-011
3.428725e-010
3.446233e-012
5.383366e-010
2.227180e-009
3.324097e-009
2.184700e-009
-4.114830e-010
-1.810569e-009
-4.796177e-010
2.122611e-009
3.170350e-009
1.753985e-009
-9.201824e-011
1.388507e-010
2.414519e-009
4.193903e-009
3.379471e-009
6.127412e-010
-1.724227e-009
-2.392574e-009
-2.530982e-009
-3.953623e-009
-6.842303e-009
-9.664430e-009
-1.117093e-008
-1.181242e-008
-1.291260e-008
-1.488755e-008
-1.683359e-008
-1.781982e-008
-1.803150e-008
-1.832934e-008
-1.900809e-008
-1.948883e-008
-1.923750e-008
-1.851209e-008
-1.790563e-008
-1.742339e-008
-1.646929e-008
-1.476832e-008
-1.287509e-008
-1.147851e-008
-1.043569e-008
-8.925060e-009
-6.601589e-009
-4.203188e-009
-2.707328e-009
-2.077280e-009
-1.274390e-009
3.829728e-010
2.225857e-009
2.939479e-009
2.163511e-009
1.004045e-009
7.800949e-010
1.506264e-009
1.945767e-009
1.153494e-009
-3.551278e-010
-1.171052e-009
-5.606887e-010
8.079499e-010
1.707201e-009
1.629705e-009
1.033735e-009
4.969149e-010
1.428407e-011
-7.010286e-010
-1.466316e-009
-1.560983e-009
-5.388287e-010
1.077088e-009
2.136682e-009
1.923236e-009
7.611433e-010
-4.453156e-010
-1.122047e-009
-1.346857e-009
-1.372412e-009
-1.116085e-009
-3.150183e-010
9.006380e-010
1.845615e-009
5.283098e-008
2.672210e-008
-6.431873e-009
-2.404320e-008
-1.760538e-008
2.397827e-009
1.732099e-008
1.629155e-008
3.327916e-009
-9.018924e-009
-1.183186e-008
-6.259553e-009
2.295979e-010
2.203210e-009
5.510780e-010
-3.364516e-010
1.920654e-009
5.545945e-009
7.171814e-009
5.435319e-009
1.792519e-009
-1.452322e-009
-3.114673e-009
-3.268926e-009
-2.347049e-009
-7.606302e-010
8.507027e-010
1.765208e-009
1.908472e-009
2.053294e-009
2.813567e-009
3.521296e-009
2.602063e-009
-7.070221e-010
-5.336321e-009
-9.460574e-009
-1.249742e-008
-1.560812e-008
-2.008589e-008
-2.564961e-008
-3.075338e-008
-3.444826e-008
-3.740525e-008
-4.087129e-008
-4.499858e-008
-4.868950e-008
-5.103005e-008
-5.235604e-008
-5.362564e-008
-5.507136e-008
-5.595988e-008
-5.567097e-008
-5.452560e-008
-5.324494e-008
-5.187019e-008
-4.969253e-008
-4.629124e-008
-4.221674e-008
-3.834289e-008
-3.475703e-008
-3.071430e-008
-2.575292e-008
-2.048874e-008
-1.600738e-008
-1.261600e-008
-9.562010e-009
-6.080285e-009
-2.440969e-009
2.988725e-010
1.494359e-009
1.591291e-009
1.545642e-009
1.784905e-009
1.927725e-009
1.426847e-009
2.502792e-010
-1.104618e-009
-2.044471e-009
-2.169354e-009
-1.311504e-009
3.628681e-010
2.180253e-009
3.164617e-009
2.775411e-009
1.504412e-009
4.943920e-010
3.617462e-010
4.976428e-010
-2.009968e-010
-1.842692e-009
-3.042122e-009
-2.233937e-009
4.595707e-010
2.935979e-009
2.993002e-009
5.738881e-010
-2.028038e-009
-2.380566e-009
-3.385393e-010
1.839190e-009
3.986727e-008
1.487242e-008
-1.547616e-008
-2.812547e-008
-1.525472e-008
1.030698e-008
2.688968e-008
2.221814e-008
2.317999e-009
-1.565715e-008
-1.898091e-008
-8.970894e-009
2.888468e-009
6.894757e-009
3.125900e-009
-1.136348e-009
-2.119961e-010
4.552520e-009
7.456957e-009
5.114119e-009
-3.100823e-010
-3.975956e-009
-3.397294e-009
-2.261756e-010
2.250043e-009
2.449102e-009
1.253485e-009
2.436879e-010
-1.015992e-010
-5.667347e-010
-2.238675e-009
-5.724639e-009
-1.098493e-008
-1.745028e-008
-2.428658e-008
-3.093522e-008
-3.762641e-008
-4.517749e-008
-5.403267e-008
-6.357191e-008
-7.262712e-008
-8.070278e-008
-8.840689e-008
-9.650512e-008
-1.047717e-007
-1.121097e-007
-1.177816e-007
-1.221509e-007
-1.259970e-007
-1.293531e-007
-1.314046e-007
-1.315328e-007
-1.300660e-007
-1.277499e-007
-1.246989e-007
-1.202599e-007
-1.139540e-007
-1.062172e-007
-9.796336e-008
-8.957600e-008
-8.065492e-008
-7.081244e-008
-6.045431e-008
-5.055872e-008
-4.177013e-008
-3.392316e-008
-2.648723e-008
-1.931247e-008
-1.283810e-008
-7.667590e-009
-4.060415e-009
-1.779472e-009
-2.789519e-010
9.576037e-010
2.064720e-009
2.641596e-009
2.091416e-009
3.802808e-010
-1.498134e-009
-2.085958e-009
-7.782875e-010
1.431707e-009
2.779540e-009
2.459893e-009
1.403139e-009
1.111615e-009
1.762585e-009
1.809317e-009
-2.247657e-010
-3.626830e-009
-5.581956e-009
-3.777585e-009
1.005244e-009
5.148322e-009
5.356990e-009
1.730305e-009
-2.336255e-009
-3.395840e-009
-1.166461e-009
1.440525e-009
1.623852e-008
4.029928e-009
-1.044635e-008
-1.537645e-008
-6.788754e-009
8.050109e-009
1.664533e-008
1.189347e-008
-1.827672e-009
-1.265639e-008
-1.187349e-008
-1.421531e-009
8.598915e-009
9.755232e-009
2.730437e-009
-4.566179e-009
-5.550563e-009
-1.056100e-009
2.850659e-009
2.079288e-009
-1.385364e-009
-2.457718e-009
1.014289e-009
5.992781e-009
7.749322e-009
4.683603e-009
-7.871307e-010
-5.575122e-009
-9.295847e-009
-1.418400e-008
-2.235395e-008
-3.378370e-008
-4.687039e-008
-6.032721e-008
-7.420329e-008
-8.935803e-008
-1.064125e-007
-1.252560e-007
-1.452201e-007
-1.654896e-007
-1.854705e-007
-2.049914e-007
-2.241624e-007
-2.429005e-007
-2.605824e-007
-2.763163e-007
-2.896177e-007
-3.006735e-007
-3.098068e-007
-3.167768e-007
-3.208210e-007
-3.214168e-007
-3.187980e-007
-3.135723e-007
-3.059428e-007
-2.955241e-007
-2.819571e-007
-2.655253e-007
-2.470409e-007
-2.272098e-007
-2.062626e-007
-1.842186e-007
-1.613939e-007
-1.385802e-007
-1.167616e-007
-9.666133e-008
-7.847187e-008
-6.195584e-008
-4.688274e-008
-3.349119e-008
-2.248782e-008
-1.439844e-008
-8.823182e-009
-4.507582e-009
-4.240147e-010
3.172907e-009
5.003995e-009
4.291392e-009
1.951966e-009
8.641281e-012
-2.905337e-010
4.135470e-010
5.502608e-010
-4.058549e-010
-1.249468e-009
-5.227087e-010
1.515701e-009
2.804612e-009
1.594501e-009
-1.469919e-009
-3.669178e-009
-2.793919e-009
5.958395e-010
3.579418e-009
3.602042e-009
8.432704e-010
-2.058944e-009
-2.586165e-009
-6.746154e-010
1.405022e-009
-1.102419e-008
-3.982537e-009
4.210910e-009
7.336439e-009
4.164290e-009
-1.572011e-009
-5.563407e-009
-6.395082e-009
-4.948363e-009
-1.897800e-009
2.766262e-009
7.842657e-009
1.012648e-008
6.983671e-009
-2.327900e-010
-6.434283e-009
-7.323324e-009
-3.506242e-009
5.024612e-010
1.356160e-009
2.524444e-010
8.206240e-010
4.178709e-009
7.049678e-009
5.067645e-009
-2.725587e-009
-1.340228e-008
-2.399841e-008
-3.504772e-008
-4.989163e-008
-7.097099e-008
-9.753253e-008
-1.270480e-007
-1.582197e-007
-1.920369e-007
-2.300787e-007
-2.724035e-007
-3.173377e-007
-3.629524e-007
-4.082982e-007
-4.532457e-007
-4.975588e-007
-5.404033e-007
-5.806336e-007
-6.173007e-007
-6.498518e-007
-6.780041e-007
-7.015325e-007
-7.201098e-007
-7.332519e-007
-7.404245e-007
-7.412778e-007
-7.358074e-007
-7.242620e-007
-7.068750e-007
-6.836930e-007
-6.546813e-007
-6.200158e-007
-5.803127e-007
-5.365896e-007
-4.899497e-007
-4.412416e-007
-3.910576e-007
-3.401761e-007
-2.900159e-007
-2.424597e-007
-1.989897e-007
-1.599643e-007
-1.249323e-007
-9.376970e-008
-6.732784e-008
-4.667277e-008
-3.165680e-008
-2.054396e-008
-1.134534e-008
-3.499477e-009
2.003931e-009
4.227714e-009
3.775776e-009
2.460971e-009
1.606101e-009
1.022940e-009
-1.664422e-010
-1.950550e-009
-3.061281e-009
-2.288101e-009
7.898921e-011
2.366429e-009
3.064410e-009
2.110275e-009
6.477588e-010
-2.544424e-010
-4.652807e-010
-5.055185e-010
-7.254301e-010
-9.455333e-010
-7.970037e-010
-1.988167e-010
5.557353e-010
1.060090e-009
-3.955909e-008
-1.448333e-008
1.513805e-008
2.645751e-008
1.359983e-008
-9.337382e-009
-2.266874e-008
-1.803464e-008
-2.697490e-009
1.006513e-008
1.300598e-008
8.352817e-009
2.312603e-009
-1.389301e-009
-2.742495e-009
-2.706149e-009
-1.394093e-009
1.015861e-009
3.193677e-009
3.674481e-009
2.589939e-009
1.289232e-009
-7.332454e-011
-3.808741e-009
-1.284112e-008
-2.786167e-008
-4.717026e-008
-6.962728e-008
-9.713534e-008
-1.334892e-007
-1.808397e-007
-2.379125e-007
-3.019374e-007
-3.717863e-007
-4.485708e-007
-5.332283e-007
-6.241954e-007
-7.178790e-007
-8.111358e-007
-9.027962e-007
-9.927772e-007
-1.080266e-006
-1.163210e-006
-1.239449e-006
-1.307865e-006
-1.368283e-006
-1.420490e-006
-1.463691e-006
-1.496893e-006
-1.519513e-006
-1.531420e-006
-1.532486e-006
-1.522332e-006
-1.500629e-006
-1.467489e-006
-1.423390e-006
-1.368710e-006
-1.303550e-006
-1.228228e-006
-1.143940e-006
-1.052690e-006
-9.564665e-007
-8.566201e-007
-7.543373e-007
-6.517200e-007
-5.520543e-007
-4.586509e-007
-3.733874e-007
-2.965938e-007
-2.283945e-007
-1.698302e-007
-1.223013e-007
-8.593014e-008
-5.883355e-008
-3.826777e-008
-2.241142e-008
-1.087172e-008
-3.607534e-009
2.081498e-010
2.026671e-009
2.872589e-009
2.857596e-009
1.820459e-009
1.578873e-010
-1.221304e-009
-1.639707e-009
-1.068829e-009
1.750017e-010
1.782672e-009
3.253799e-009
3.632095e-009
2.059578e-009
-1.069584e-009
-3.796526e-009
-4.026730e-009
-1.570209e-009
1.436475e-009
2.483397e-009
1.139924e-009
-6.168770e-010
-6.004064e-008
-2.655288e-008
1.373851e-008
3.094049e-008
1.708750e-008
-9.642334e-009
-2.374880e-008
-1.519253e-008
4.634203e-009
1.670989e-008
1.244769e-008
-9.782941e-010
-1.036492e-008
-9.239085e-009
-1.387441e-009
5.597749e-009
7.940018e-009
7.056636e-009
5.605108e-009
4.046791e-009
9.082322e-010
-5.243305e-009
-1.521446e-008
-3.010292e-008
-5.169246e-008
-8.167316e-008
-1.212115e-007
-1.718764e-007
-2.365437e-007
-3.183988e-007
-4.186175e-007
-5.354191e-007
-6.658069e-007
-8.079840e-007
-9.614902e-007
-1.124945e-006
-1.294329e-006
-1.464124e-006
-1.630093e-006
-1.790558e-006
-1.944917e-006
-2.091469e-006
-2.227186e-006
-2.349447e-006
-2.457437e-006
-2.551569e-006
-2.631834e-006
-2.697135e-006
-2.746213e-006
-2.778766e-006
-2.795303e-006
-2.796019e-006
-2.780170e-006
-2.746736e-006
-2.695465e-006
-2.626948e-006
-2.541674e-006
-2.439358e-006
-2.319585e-006
-2.183087e-006
-2.032120e-006
-1.869451e-006
-1.697269e-006
-1.517496e-006
-1.333200e-006
-1.149303e-006
-9.714692e-007
-8.042476e-007
-6.503836e-007
-5.117854e-007
-3.906124e-007
-2.889565e-007
-2.074635e-007
-1.445838e-007
-9.733041e-008
-6.265054e-008
-3.805241e-008
-2.133129e-008
-1.032533e-008
-3.231764e-009
1.050121e-009
3.166619e-009
3.810770e-009
3.689258e-009
3.017120e-009
1.514676e-009
-6.855196e-010
-2.315424e-009
-1.785398e-009
9.130876e-010
3.466017e-009
3.114538e-009
-3.811636e-010
-3.981871e-009
-4.135381e-009
-4.839061e-010
3.497161e-009
3.910865e-009
4.716136e-010
-3.150893e-009
-5.556686e-008
-2.888233e-008
3.831390e-009
1.945072e-008
1.186660e-008
-4.911419e-009
-1.182720e-008
-2.812155e-009
1.123068e-008
1.496467e-008
4.165487e-009
-1.097576e-008
-1.675200e-008
-8.993164e-009
4.480365e-009
1.278636e-008
1.190480e-008
6.000657e-009
7.488433e-010
-3.055595e-009
-9.573850e-009
-2.352277e-008
-4.716227e-008
-8.135911e-008
-1.282484e-007
-1.920290e-007
-2.775407e-007
-3.887055e-007
-5.280503e-007
-6.965742e-007
-8.932039e-007
-1.114524e-006
-1.355676e-006
-1.611724e-006
-1.877898e-006
-2.148505e-006
-2.416359e-006
-2.674166e-006
-2.916815e-006
-3.142078e-006
-3.348981e-006
-3.535858e-006
-3.700422e-006
-3.841559e-006
-3.960427e-006
-4.059370e-006
-4.139922e-006
-4.202182e-006
-4.246067e-006
-4.272623e-006
-4.283656e-006
-4.280139e-006
-4.261342e-006
-4.225694e-006
-4.172207e-006
-4.100689e-006
-4.010525e-006
-3.899667e-006
-3.765268e-006
-3.605392e-006
-3.419938e-006
-3.209961e-006
-2.976605e-006
-2.721338e-006
-2.447469e-006
-2.161173e-006
-1.870764e-006
-1.584862e-006
-1.311181e-006
-1.056523e-006
-8.270197e-007
-6.276041e-007
-4.609871e-007
-3.271929e-007
-2.240061e-007
-1.477075e-007
-9.357514e-008
-5.642242e-008
-3.152313e-008
-1.543071e-008
-5.853055e-009
-7.418311e-010
2.123932e-009
4.299727e-009
5.634137e-009
4.783955e-009
1.326300e-009
-2.775565e-009
-4.402281e-009
-2.308878e-009
1.336423e-009
2.941281e-009
1.174999e-009
-1.617714e-009
-1.977607e-009
7.978215e-010
3.727794e-009
3.306826e-009
-6.031987e-010
-4.402469e-009
-1.801157e-008
-1.190704e-008
-4.248966e-009
1.618335e-012
-3.631156e-011
-6.641685e-010
2.130307e-009
7.726265e-009
1.065024e-008
6.096033e-009
-4.127363e-009
-1.190331e-008
-1.003470e-008
5.389461e-010
1.113892e-008
1.328319e-008
6.094011e-009
-4.328961e-009
-1.250616e-008
-2.002020e-008
-3.470933e-008
-6.474878e-008
-1.146501e-007
-1.868567e-007
-2.858262e-007
-4.192509e-007
-5.950676e-007
-8.175850e-007
-1.086142e-006
-1.396217e-006
-1.740676e-006
-2.109979e-006
-2.492244e-006
-2.874181e-006
-3.242493e-006
-3.584909e-006
-3.890880e-006
-4.152607e-006
-4.366117e-006
-4.531269e-006
-4.650349e-006
-4.726565e-006
-4.763960e-006
-4.768416e-006
-4.747911e-006
-4.711021e-006
-4.664935e-006
-4.614932e-006
-4.565563e-006
-4.521788e-006
-4.488468e-006
-4.468707e-006
-4.462914e-006
-4.469537e-006
-4.486382e-006
-4.510773e-006
-4.538285e-006
-4.561592e-006
-4.570928e-006
-4.555895e-006
-4.506956e-006
-4.415709e-006
-4.274740e-006
-4.078445e-006
-3.824914e-006
-3.517523e-006
-3.165076e-006
-2.780675e-006
-2.380218e-006
-1.980929e-006
-1.599620e-006
-1.250746e-006
-9.448851e-007
-6.881950e-007
-4.824937e-007
-3.254314e-007
-2.109471e-007
-1.307167e-007
-7.644419e-008
-4.155076e-008
-2.104243e-008
-1.023184e-008
-4.332046e-009
1.886162e-010
4.050944e-009
5.671529e-009
3.800971e-009
-2.714363e-010
-3.346721e-009
-3.179051e-009
-5.045754e-010
1.924031e-009
2.191542e-009
8.997241e-010
5.324297e-011
6.235202e-010
1.548771e-009
1.146571e-009
-7.965072e-010
-2.645351e-009
3.653356e-008
1.771570e-008
-5.473455e-009
-1.686484e-008
-1.171161e-008
1.524888e-009
1.057930e-008
9.702856e-009
2.082164e-009
-5.192575e-009
-7.051016e-009
-2.716538e-009
5.070880e-009
1.165439e-008
1.247964e-008
5.735753e-009
-6.192146e-009
-1.902447e-008
-3.191744e-008
-5.112126e-008
-8.815886e-008
-1.543745e-007
-2.576151e-007
-4.040626e-007
-6.019487e-007
-8.615610e-007
-1.190220e-006
-1.586508e-006
-2.038509e-006
-2.526311e-006
-3.025285e-006
-3.507648e-006
-3.943320e-006
-4.302289e-006
-4.558627e-006
-4.694078e-006
-4.699524e-006
-4.574573e-006
-4.326484e-006
-3.968921e-006
-3.520375e-006
-3.002434e-006
-2.438534e-006
-1.853236e-006
-1.271296e-006
-7.160688e-007
-2.079591e-007
2.359345e-007
6.009839e-007
8.742441e-007
1.044801e-006
1.104951e-006
1.050983e-006
8.829408e-007
6.040806e-007
2.211674e-007
-2.541709e-007
-8.041002e-007
-1.404452e-006
-2.025929e-006
-2.635806e-006
-3.199506e-006
-3.682405e-006
-4.052538e-006
-4.284165e-006
-4.361335e-006
-4.280553e-006
-4.052039e-006
-3.699182e-006
-3.255755e-006
-2.761061e-006
-2.254343e-006
-1.770103e-006
-1.335122e-006
-9.667167e-007
-6.718938e-007
-4.480014e-007
-2.856105e-007
-1.727896e-007
-9.845515e-008
-5.316047e-008
-2.815008e-008
-1.501079e-008
-7.025051e-009
-8.617505e-010
3.505357e-009
4.940002e-009
3.457313e-009
7.577679e-010
-1.058461e-009
-1.017081e-009
3.306266e-010
1.652709e-009
1.877024e-009
8.288444e-010
-7.410049e-010
-1.684027e-009
-1.293630e-009
9.258900e-011
1.302207e-009
7.439042e-008
3.893338e-008
-4.236610e-009
-2.488372e-008
-1.590571e-008
4.559342e-009
1.377134e-008
5.403441e-009
-8.538620e-009
-1.293577e-008
-4.145629e-009
9.275621e-009
1.670437e-008
1.420271e-008
4.736732e-009
-7.168872e-009
-1.993883e-008
-3.635639e-008
-6.363944e-008
-1.133014e-007
-1.998108e-007
-3.378557e-007
-5.403430e-007
-8.186645e-007
-1.183061e-006
-1.639168e-006
-2.180337e-006
-2.780505e-006
-3.393070e-006
-3.956388e-006
-4.401845e-006
-4.660768e-006
-4.670276e-006
-4.379989e-006
-3.759298e-006
-2.801985e-006
-1.525681e-006
3.295060e-008
1.824047e-006
3.789200e-006
5.865084e-006
7.987003e-006
1.009239e-005
1.212351e-005
1.402897e-005
1.576441e-005
1.729247e-005
1.858231e-005
1.960858e-005
2.035043e-005
2.079093e-005
2.091696e-005
2.071936e-005
2.019340e-005
1.933943e-005
1.816434e-005
1.668349e-005
1.492311e-005
1.292245e-005
1.073508e-005
8.429056e-006
6.085433e-006
3.794972e-006
1.652759e-006
-2.490736e-007
-1.830182e-006
-3.031619e-006
-3.824609e-006
-4.215924e-006
-4.247391e-006
-3.988957e-006
-3.527223e-006
-2.952592e-006
-2.347487e-006
-1.777035e-006
-1.283457e-006
-8.855049e-007
-5.831316e-007
-3.651600e-007
-2.162717e-007
-1.208860e-007
-6.431898e-008
-3.324825e-008
-1.671720e-008
-7.219948e-009
-8.888297e-010
3.385199e-009
5.328082e-009
4.642538e-009
2.032882e-009
-6.299411e-010
-1.420351e-009
-5.802454e-011
1.583680e-009
1.199828e-009
-1.389655e-009
-3.665411e-009
-2.862764e-009
9.212935e-010
4.443601e-009
7.105894e-008
3.513420e-008
-6.837846e-009
-2.361741e-008
-1.058067e-008
1.010664e-008
1.468991e-008
8.387237e-010
-1.388753e-008
-1.305831e-008
2.064490e-009
1.621120e-008
1.682881e-008
4.795827e-009
-1.031790e-008
-2.276433e-008
-3.770752e-008
-6.869348e-008
-1.317551e-007
-2.430576e-007
-4.202123e-007
-6.828855e-007
-1.050013e-006
-1.534188e-006
-2.133985e-006
-2.824013e-006
-3.544311e-006
-4.194600e-006
-4.639297e-006
-4.724006e-006
-4.297935e-006
-3.235190e-006
-1.451400e-006
1.084825e-006
4.346495e-006
8.251249e-006
1.267351e-005
1.746219e-005
2.245783e-005
2.750531e-005
3.246231e-005
3.720552e-005
4.163516e-005
4.567670e-005
4.927904e-005
5.241025e-005
5.505248e-005
5.719758e-005
5.884331e-005
5.998999e-005
6.063720e-005
6.078088e-005
6.041165e-005
5.951474e-005
5.807148e-005
5.606152e-005
5.346625e-005
5.027406e-005
4.648801e-005
4.213527e-005
3.727637e-005
3.201215e-005
2.648655e-005
2.088408e-005
1.542034e-005
1.032485e-005
5.816305e-006
2.073623e-006
-7.907137e-007
-2.747776e-006
-3.854727e-006
-4.242015e-006
-4.088292e-006
-3.588671e-006
-2.923354e-006
-2.233826e-006
-1.611972e-006
-1.102746e-006
-7.159618e-007
-4.404786e-007
-2.557938e-007
-1.395064e-007
-7.131909e-008
-3.458619e-008
-1.635195e-008
-7.086378e-009
-9.978697e-010
3.634375e-009
5.645045e-009
3.951639e-009
6.743881e-011
-2.501207e-009
-1.601906e-009
1.189229e-009
2.218338e-009
-6.245685e-011
-3.127671e-009
-3.138202e-009
5.494847e-010
4.368692e-009
3.244678e-008
1.054471e-008
-1.220358e-008
-1.554926e-008
-2.394956e-010
1.463100e-008
1.307587e-008
-1.399277e-009
-1.147511e-008
-5.951727e-009
8.528240e-009
1.570476e-008
7.104793e-009
-1.102983e-008
-2.792237e-008
-4.363928e-008