# vtk DataFile Version 3.0
vtk output
ASCII
DATASET STRUCTURED_POINTS
DIMENSIONS 100 100 1
SPACING 1 1 1
ORIGIN 0 0 0
POINT_DATA 10000
SCALARS SFBox_profile double
LOOKUP_TABLE default 
0.000000e+000
0.000000e+000
0.000000e+000
0.000000e+000
0.000000e+000
0.000000e+000
0.000000e+000
0.000000e+000
0.000000e+000
0.000000e+000
0.000000e+000
0.000000e+000
0.000000e+000
0.000000e+000
0.000000e+000
0.000000e+000
0.000000e+000
0.000000e+000
0.000000e+000
0.000000e+000
0.000000e+000
0.000000e+000
0.000000e+000
0.000000e+000
0.000000e+000
0.000000e+000
0.000000e+000
0.000000e+000
0.000000e+000
0.000000e+000
0.000000e+000
0.000000e+000
0.000000e+000
0.000000e+000
0.000000e+000
0.000000e+000
0.000000e+000
0.000000e+000
0.000000e+000
0.000000e+000
0.000000e+000
0.000000e+000
0.000000e+000
0.000000e+000
0.000000e+000
0.000000e+000
0.000000e+000
0.000000e+000
0.000000e+000
0.000000e+000
0.000000e+000
0.000000e+000
0.000000e+000
0.000000e+000
0.000000e+000
0.000000e+000
0.000000e+000
0.000000e+000
0.000000e+000
0.000000e+000
0.000000e+000
0.000000e+000
0.000000e+000
0.000000e+000
0.000000e+000
0.000000e+000
0.000000e+000
0.000000e+000
0.000000e+000
0.000000e+000
0.000000e+000
0.000000e+000
0.000000e+000
0.000000e+000
0.000000e+000
0.000000e+000
0.000000e+000
0.000000e+000
0.000000e+000
0.000000e+000
0.000000e+000
0.000000e+000
0.000000e+000
0.000000e+000
0.000000e+000
0.000000e+000
0.000000e+000
0.000000e+000
0.000000e+000
0.000000e+000
0.000000e+000
0.000000e+000
0.000000e+000
0.000000e+000
0.000000e+000
0.000000e+000
0.000000e+000
0.000000e+000
0.000000e+000
0.000000e+000
2.721364e-016
3.003257e-016
2.539218e-016
1.908213e-016
-1.908026e-017
-4.180667e-016
-1.342891e-015
-3.006491e-015
-5.667557e-015
-1.009219e-014
-1.704127e-014
-2.732601e-014
-4.240748e-014
-6.373634e-014
-9.279231e-014
-1.312052e-013
-1.800346e-013
-2.397861e-013
-3.097351e-013
-3.872692e-013
-4.671521e-013
-5.414206e-013
-5.973186e-013
-6.188353e-013
-5.849769e-013
-4.707617e-013
-2.476266e-013
1.148179e-013
6.482692e-013
1.382675e-012
2.344834e-012
3.555884e-012
5.030352e-012
6.773035e-012
8.780279e-012
1.103745e-011
1.352119e-011
1.619896e-011
1.903057e-011
2.197006e-011
2.496689e-011
2.796752e-011
3.091735e-011
3.376102e-011
3.644443e-011
3.891493e-011
4.112254e-011
4.302011e-011
4.456461e-011
4.571776e-011
4.644665e-011
4.672573e-011
4.653769e-011
4.587434e-011
4.473887e-011
4.314618e-011
4.112409e-011
3.871346e-011
3.596753e-011
3.295107e-011
2.973808e-011
2.640902e-011
2.304752e-011
1.973643e-011
1.655333e-011
1.356758e-011
1.083585e-011
8.400603e-012
6.287802e-012
4.507490e-012
3.054097e-012
1.908697e-012
1.042050e-012
4.174692e-013
-5.067776e-015
-2.666931e-013
-4.058123e-013
-4.572208e-013
-4.501642e-013
-4.079918e-013
-3.483271e-013
-2.836626e-013
-2.217683e-013
-1.671846e-013
-1.218585e-013
-8.593365e-014
-5.864970e-014
-3.881400e-014
-2.468728e-014
-1.531349e-014
-9.056990e-015
-5.146923e-015
-2.570425e-015
-1.400788e-015
-4.139467e-016
-2.014431e-016
3.252776e-017
5.486232e-017
1.745582e-016
1.129756e-016
2.471998e-016
2.454651e-016
2.209621e-016
-6.201467e-017
-3.649408e-016
-1.213437e-015
-2.601650e-015
-5.135647e-015
-9.283371e-015
-1.553271e-014
-2.533173e-014
-3.967963e-014
-5.976144e-014
-8.754542e-014
-1.240397e-013
-1.701287e-013
-2.258742e-013
-2.893243e-013
-3.560637e-013
-4.185207e-013
-4.641589e-013
-4.747760e-013
-4.261699e-013
-2.872197e-013
-1.997295e-014
4.192386e-013
1.078611e-012
2.008063e-012
3.257241e-012
4.871336e-012
6.888583e-012
9.335956e-012
1.222792e-011
1.556352e-011
1.932569e-011
2.348191e-011
2.798420e-011
3.277186e-011
3.777330e-011
4.290875e-011
4.809286e-011
5.323737e-011
5.825328e-011
6.305230e-011
6.754907e-011
7.166136e-011
7.531180e-011
7.842818e-011
8.094503e-011
8.280383e-011
8.395521e-011
8.436050e-011
8.399292e-011
8.284041e-011
8.090711e-011
7.821556e-011
7.480758e-011
7.074506e-011
6.610970e-011
6.100126e-011
5.553516e-011
4.983849e-011
4.404507e-011
3.828923e-011
3.270046e-011
2.739634e-011
2.247747e-011
1.802246e-011
1.408537e-011
1.069415e-011
7.851406e-012
5.536906e-012
3.711208e-012
2.321531e-012
1.305235e-012
5.977725e-013
1.345452e-013
-1.431804e-013
-2.874682e-013
-3.409285e-013
-3.373933e-013
-3.019143e-013
-2.525200e-013
-2.003016e-013
-1.520600e-013
-1.109204e-013
-7.810028e-014
-5.302226e-014
-3.491630e-014
-2.211490e-014
-1.362126e-014
-7.907952e-015
-4.432000e-015
-2.257958e-015
-1.209968e-015
-4.054899e-016
-1.637128e-016
2.038469e-017
4.163506e-017
1.526574e-016
2.599934e-016
1.530910e-016
-1.598097e-016
-5.204153e-016
-1.457383e-015
-2.967243e-015
-5.819345e-015
-1.032984e-014
-1.750314e-014
-2.834386e-014
-4.441087e-014
-6.710539e-014
-9.776077e-014
-1.380684e-013
-1.877934e-013
-2.459664e-013
-3.080734e-013
-3.657539e-013
-4.046743e-013
-4.022835e-013
-3.263405e-013
-1.335811e-013
2.322673e-013
8.403204e-013
1.770899e-012
3.114269e-012
4.966140e-012
7.422839e-012
1.057514e-011
1.450166e-011
1.926276e-011
2.489484e-011
3.140541e-011
3.877215e-011
4.694075e-011
5.582765e-011
6.532256e-011
7.529315e-011
8.558943e-011
9.605035e-011
1.065082e-010
1.167928e-010
1.267365e-010
1.361762e-010
1.449555e-010
1.529272e-010
1.599536e-010
1.659078e-010
1.706751e-010
1.741547e-010
1.762608e-010
1.769264e-010
1.761055e-010
1.737763e-010
1.699460e-010
1.646521e-010
1.579666e-010
1.499966e-010
1.408849e-010
1.308081e-010
1.199729e-010
1.086107e-010
9.696887e-011
8.530188e-011
7.385987e-011
6.287727e-011
5.256191e-011
4.308513e-011
3.457466e-011
2.711005e-011
2.072183e-011
1.539431e-011
1.107150e-011
7.665407e-012
5.065814e-012
3.150881e-012
1.795779e-012
8.814518e-013
3.006603e-013
-3.890486e-014
-2.126058e-013
-2.791088e-013
-2.817343e-013
-2.506864e-013
-2.059464e-013
-1.595909e-013
-1.178489e-013
-8.339705e-014
-5.681523e-014
-3.728528e-014
-2.369025e-014
-1.440623e-014
-8.486266e-015
-4.672910e-015
-2.397603e-015
-1.184598e-015
-4.373655e-016
-1.975399e-016
1.192792e-017
7.242640e-017
2.096864e-016
-1.246816e-016
-6.223304e-016
-1.705015e-015
-3.467277e-015
-6.825268e-015
-1.190931e-014
-2.036348e-014
-3.301330e-014
-5.189512e-014
-7.846414e-014
-1.142762e-013
-1.611619e-013
-2.177852e-013
-2.814450e-013
-3.441926e-013
-3.910492e-013
-3.969871e-013
-3.230795e-013
-1.137161e-013
3.081168e-013
1.041975e-012
2.213493e-012
3.970430e-012
6.482375e-012
9.932403e-012
1.450915e-011
2.039518e-011
2.775378e-011
3.671677e-011
4.737190e-011
5.975353e-011
7.383704e-011
8.953560e-011
1.067038e-010
1.251414e-010
1.446032e-010
1.648088e-010
1.854534e-010
2.062188e-010
2.267829e-010
2.468277e-010
2.660458e-010
2.841442e-010
3.008484e-010
3.159028e-010
3.290724e-010
3.401440e-010
3.489262e-010
3.552523e-010
3.589816e-010
3.600044e-010
3.582450e-010
3.536680e-010
3.462829e-010
3.361508e-010
3.233883e-010
3.081715e-010
2.907381e-010
2.713861e-010
2.504707e-010
2.283960e-010
2.056049e-010
1.825634e-010
1.597426e-010
1.375993e-010
1.165531e-010
9.696856e-011
7.913594e-011
6.325940e-011
4.945087e-011
3.773011e-011
2.803212e-011
2.022062e-011
1.410563e-011
9.462836e-012
6.052941e-012
3.639352e-012
2.001581e-012
9.448022e-013
3.057422e-013
-4.714002e-014
-2.139944e-013
-2.681451e-013
-2.601775e-013
-2.227728e-013
-1.763832e-013
-1.315517e-013
-9.342331e-014
-6.376735e-014
-4.158783e-014
-2.624636e-014
-1.588876e-014
-9.339533e-015
-5.056067e-015
-2.662148e-015
-1.314702e-015
-4.776978e-016
-1.721696e-016
7.199272e-017
-2.756025e-016
-7.654450e-016
-1.803460e-015
-3.945193e-015
-7.519808e-015
-1.358744e-014
-2.329148e-014
-3.790783e-014
-5.991561e-014
-9.092401e-014
-1.330078e-013
-1.872417e-013
-2.519525e-013
-3.216752e-013
-3.836720e-013
-4.132853e-013
-3.702798e-013
-1.915755e-013
2.155372e-013
9.794403e-013
2.270415e-012
4.305237e-012
7.346157e-012
1.169722e-011
1.769522e-011
2.569335e-011
3.604073e-011
4.905937e-011
6.501664e-011
8.410198e-011
1.064069e-010
1.319102e-010
1.604728e-010
1.918408e-010
2.256547e-010
2.614687e-010
2.987689e-010
3.369975e-010
3.755748e-010
4.139177e-010
4.514565e-010
4.876473e-010
5.219800e-010
5.539830e-010
5.832257e-010
6.093186e-010
6.319122e-010
6.506958e-010
6.653973e-010
6.757832e-010
6.816601e-010
6.828777e-010
6.793348e-010
6.709834e-010
6.578369e-010
6.399782e-010
6.175672e-010
5.908484e-010
5.601578e-010
5.259267e-010
4.886832e-010
4.490474e-010
4.077229e-010
3.654789e-010
3.231266e-010
2.814870e-010
2.413551e-010
2.034597e-010
1.684258e-010
1.367405e-010
1.087311e-010
8.455263e-011
6.419218e-011
4.748490e-011
3.414213e-011
2.378575e-011
1.598756e-011
1.030280e-011
6.303336e-012
3.598877e-012
1.852598e-012
7.866427e-013
1.831337e-013
-1.220875e-013
-2.459454e-013
-2.684558e-013
-2.410984e-013
-1.949747e-013
-1.465856e-013
-1.042992e-013
-7.080599e-014
-4.617899e-014
-2.880812e-014
-1.726874e-014
-9.983332e-015
-5.357258e-015
-2.884627e-015
-1.339422e-015
-4.488580e-016
-2.435101e-016
-1.070540e-015
-2.077330e-015
-4.295607e-015
-8.238851e-015
-1.500839e-014
-2.576173e-014
-4.256990e-014
-6.746491e-014
-1.031078e-013
-1.515389e-013
-2.134805e-013
-2.864748e-013
-3.614481e-013
-4.190513e-013
-4.226814e-013
-3.103216e-013
1.553380e-014
6.998744e-013
1.947913e-012
4.036214e-012
7.323029e-012
1.224977e-011
1.933820e-011
2.917628e-011
4.239123e-011
5.961456e-011
8.143721e-011
1.083587e-010
1.407402e-010
1.787619e-010
2.223932e-010
2.713813e-010
3.252552e-010
3.833482e-010
4.448355e-010
5.087777e-010
5.741697e-010
6.399871e-010
7.052250e-010
7.689309e-010
8.302243e-010
8.883113e-010
9.424886e-010
9.921438e-010
1.036750e-009
1.075862e-009
1.109103e-009
1.136162e-009
1.156786e-009
1.170773e-009
1.177966e-009
1.178254e-009
1.171568e-009
1.157883e-009
1.137218e-009
1.109647e-009
1.075304e-009
1.034399e-009
9.872353e-010
9.342272e-010
8.759249e-010
8.130310e-010
7.464150e-010
6.771112e-010
6.063053e-010
5.352994e-010
4.654573e-010
3.981353e-010
3.346012e-010
2.759549e-010
2.230567e-010
1.764779e-010
1.364767e-010
1.030045e-010
7.574006e-011
5.414528e-011
3.753317e-011
2.513976e-011
1.618926e-011
9.947409e-012
5.758743e-012
3.068181e-012
1.427815e-012
4.918882e-013
6.346704e-015
-2.078034e-013
-2.702734e-013
-2.565526e-013
-2.117586e-013
-1.603576e-013
-1.139045e-013
-7.695558e-014
-4.973257e-014
-3.085487e-014
-1.820007e-014
-1.041896e-014
-5.558703e-015
-2.776206e-015
-1.448492e-015
-7.415926e-016
-2.924525e-015
-4.803664e-015
-8.901949e-015
-1.602255e-014
-2.778116e-014
-4.631430e-014
-7.423185e-014
-1.142634e-013
-1.685822e-013
-2.382983e-013
-3.189679e-013
-3.979492e-013
-4.476224e-013
-4.158017e-013
-2.124522e-013
3.056006e-013
1.355331e-012
3.248754e-012
6.415392e-012
1.141960e-011
1.897157e-011
2.992441e-011
4.525410e-011
6.601792e-011
9.329178e-011
1.280881e-010
1.712603e-010
2.234087e-010
2.847944e-010
3.552774e-010
4.342923e-010
5.208585e-010
6.136338e-010
7.109985e-010
8.111594e-010
9.122616e-010
1.012493e-009
1.110170e-009
1.203799e-009
1.292118e-009
1.374100e-009
1.448958e-009
1.516121e-009
1.575210e-009
1.626013e-009
1.668457e-009
1.702579e-009
1.728507e-009
1.746434e-009
1.756593e-009
1.759230e-009
1.754585e-009
1.742858e-009
1.724184e-009
1.698614e-009
1.666096e-009
1.626476e-009
1.579514e-009
1.524927e-009
1.462445e-009
1.391902e-009
1.313328e-009
1.227054e-009
1.133794e-009
1.034697e-009
9.313594e-010
8.257734e-010
7.202180e-010
6.171052e-010
5.187928e-010
4.273962e-010
3.446204e-010
2.716421e-010
2.090525e-010
1.568686e-010
1.146004e-010
8.136392e-011
5.601489e-011
3.728315e-011
2.389146e-011
1.464799e-011
8.506238e-012
4.595373e-012
2.225680e-012
8.758382e-013
1.689402e-013
-1.542020e-013
-2.644358e-013
-2.674794e-013
-2.255134e-013
-1.716342e-013
-1.216503e-013
-8.171653e-014
-5.228088e-014
-3.208067e-014
-1.874997e-014
-1.052348e-014
-5.757329e-015
-2.964424e-015
-1.970210e-015
-6.335208e-015
-9.813546e-015
-1.704973e-014
-2.938903e-014
-4.931407e-014
-7.950259e-014
-1.234449e-013
-1.834500e-013
-2.603362e-013
-3.480315e-013
-4.300577e-013
-4.690460e-013
-3.942116e-013
-8.157841e-014
6.698223e-013
2.169837e-012
4.872596e-012
9.414438e-012
1.664731e-011
2.766207e-011
4.379042e-011
6.657760e-011
9.771548e-011
1.389340e-010
1.918510e-010
2.577916e-010
3.375986e-010
4.314566e-010
5.387619e-010
6.580630e-010
7.870888e-010
9.228698e-010
1.061938e-009
1.200581e-009
1.335116e-009
1.462150e-009
1.578783e-009
1.682758e-009
1.772524e-009
1.847239e-009
1.906717e-009
1.951342e-009
1.981969e-009
1.999823e-009
2.006410e-009
2.003439e-009
1.992754e-009
1.976279e-009
1.955950e-009
1.933650e-009
1.911130e-009
1.889915e-009
1.871193e-009
1.855706e-009
1.843630e-009
1.834488e-009
1.827090e-009
1.819531e-009
1.809269e-009
1.793283e-009
1.768324e-009
1.731231e-009
1.679294e-009
1.610619e-009
1.524436e-009
1.421303e-009
1.303165e-009
1.173239e-009
1.035739e-009
8.954711e-010
7.573572e-010
6.259639e-010
5.050990e-010
3.975344e-010
3.048801e-010
2.276116e-010
1.652192e-010
1.164411e-010
7.953017e-011
5.251118e-011
3.339786e-011
2.035240e-011
1.178242e-011
6.384883e-012
3.145669e-012
1.313069e-012
3.542045e-013
-9.034505e-014
-2.527384e-013
-2.740974e-013
-2.355791e-013
-1.798190e-013
-1.270175e-013
-8.448103e-014
-5.354527e-014
-3.244236e-014
-1.874412e-014
-1.047534e-014
-6.001057e-015
-3.863227e-015
-1.285668e-014
-1.857151e-014
-3.065300e-014
-5.127495e-014
-8.337124e-014
-1.304380e-013
-1.954251e-013
-2.785439e-013
-3.730117e-013
-4.577358e-013
-4.849847e-013
-3.637286e-013
6.904807e-014
1.083191e-012
3.101365e-012
6.756409e-012
1.295110e-011
2.291664e-011
3.825718e-011
6.096102e-011
9.336468e-011
1.380450e-010
1.976323e-010
2.745358e-010
3.705999e-010
4.867236e-010
6.224885e-010
7.758703e-010
9.430843e-010
1.118630e-009
1.295543e-009
1.465861e-009
1.621230e-009
1.753593e-009
1.855859e-009
1.922453e-009
1.949711e-009
1.936051e-009
1.881959e-009
1.789802e-009
1.663540e-009
1.508381e-009
1.330446e-009
1.136471e-009
9.335706e-010
7.290457e-010
5.302473e-010
3.444464e-010
1.787044e-010
3.971022e-011
-6.642786e-011
-1.344480e-010
-1.602557e-010
-1.412836e-010
-7.686375e-011
3.143609e-011
1.795619e-010
3.608755e-010
5.662633e-010
7.844955e-010
1.002854e-009
1.208006e-009
1.387059e-009
1.528694e-009
1.624228e-009
1.668463e-009
1.660185e-009
1.602216e-009
1.500995e-009
1.365755e-009
1.207401e-009
1.037287e-009
8.660520e-010
7.026990e-010
5.540002e-010
4.242737e-010
3.154925e-010
2.276438e-010
1.592329e-010
1.078247e-010
7.053850e-011
4.444675e-011
2.684944e-011
1.543330e-011
8.333308e-012
4.123616e-012
1.767160e-012
5.430205e-013
-2.523112e-014
-2.389282e-013
-2.774369e-013
-2.418601e-013
-1.847233e-013
-1.294743e-013
-8.520094e-014
-5.331239e-014
-3.195209e-014
-1.861532e-014
-1.094068e-014
-7.533686e-015
-2.388627e-014
-3.331731e-014
-5.306194e-014
-8.585992e-014
-1.349762e-013
-2.038578e-013
-2.924878e-013
-3.931419e-013
-4.809315e-013
-4.984359e-013
-3.332332e-013
2.198875e-013
1.505765e-012
4.078431e-012
8.781564e-012
1.684301e-011
2.996884e-011
5.042006e-011
8.104225e-011
1.252165e-010
1.866885e-010
2.692488e-010
3.762376e-010
5.098935e-010
6.705858e-010
8.560316e-010
1.060620e-009
1.274993e-009
1.486031e-009
1.677309e-009
1.830074e-009
1.924639e-009
1.942044e-009
1.865768e-009
1.683243e-009
1.386985e-009
9.752044e-010
4.518539e-010
-1.738033e-010
-8.879994e-010
-1.673461e-009
-2.510446e-009
-3.377679e-009
-4.253117e-009
-5.114509e-009
-5.939775e-009
-6.707272e-009
-7.396001e-009
-7.985844e-009
-8.457907e-009
-8.794993e-009
-8.982261e-009
-9.008062e-009
-8.864907e-009
-8.550502e-009
-8.068746e-009
-7.430533e-009
-6.654203e-009
-5.765481e-009
-4.796772e-009
-3.785726e-009
-2.773113e-009
-1.800105e-009
-9.052269e-010
-1.213146e-010
5.271403e-010
1.025863e-009
1.371596e-009
1.571695e-009
1.642558e-009
1.607162e-009
1.492082e-009
1.324467e-009
1.129400e-009
9.279488e-010
7.360832e-010
5.644188e-010
4.186540e-010
3.004612e-010
2.085892e-010
1.399643e-010
9.063638e-011
5.649931e-011
3.376402e-011
1.921284e-011
1.028933e-011
5.072455e-012
2.190999e-012
7.120650e-013
3.065907e-014
-2.266835e-013
-2.784979e-013
-2.446704e-013
-1.858611e-013
-1.290248e-013
-8.411934e-014
-5.202934e-014
-3.138396e-014
-1.920057e-014
-1.375939e-014
-4.220625e-014
-5.714396e-014
-8.809620e-014
-1.373712e-013
-2.085873e-013
-3.017807e-013
-4.081314e-013
-5.002704e-013
-5.122905e-013
-3.115982e-013
3.477867e-013
1.889608e-012
5.008086e-012
1.078247e-011
2.081499e-011
3.737462e-011
6.352110e-011
1.031639e-010
1.609970e-010
2.422338e-010
3.520704e-010
4.948138e-010
6.726685e-010
8.842291e-010
1.122831e-009
1.375000e-009
1.619309e-009
1.825985e-009
1.957541e-009
1.970578e-009
1.818712e-009
1.456351e-009
8.428540e-010
-5.347774e-011
-1.252155e-009
-2.758423e-009
-4.562576e-009
-6.640647e-009
-8.956232e-009
-1.146305e-008
-1.410781e-008
-1.683295e-008
-1.957896e-008
-2.228616e-008
-2.489585e-008
-2.735097e-008
-2.959647e-008
-3.157957e-008
-3.325002e-008
-3.456077e-008
-3.546892e-008
-3.593724e-008
-3.593606e-008
-3.544571e-008
-3.445910e-008
-3.298430e-008
-3.104680e-008
-2.869103e-008
-2.598068e-008
-2.299752e-008
-1.983848e-008
-1.661091e-008
-1.342619e-008
-1.039232e-008
-7.606077e-009
-5.145816e-009
-3.065824e-009
-1.393066e-009
-1.268476e-010
7.585848e-010
1.308921e-009
1.583007e-009
1.645491e-009
1.559961e-009
1.383472e-009
1.162950e-009
9.336061e-010
7.190874e-010
5.329197e-010
3.806644e-010
2.622813e-010
1.743106e-010
1.116380e-010
6.876112e-011
4.058168e-011
2.280617e-011
1.207101e-011
5.893393e-012
2.535246e-012
8.385044e-013
6.818352e-014
-2.196244e-013
-2.784045e-013
-2.439719e-013
-1.836534e-013
-1.260526e-013
-8.154610e-014
-5.073090e-014
-3.240593e-014
-2.382686e-014
-7.122883e-014
-9.418226e-014
-1.397910e-013
-2.105959e-013
-3.060993e-013
-4.178001e-013
-5.158623e-013
-5.286433e-013
-3.069600e-013
4.310927e-013
2.184939e-012
5.788220e-012
1.256590e-011
2.452545e-011
4.456608e-011
7.666800e-011
1.259966e-010
1.988212e-010
3.021147e-010
4.426864e-010
6.257010e-010
8.524976e-010
1.117729e-009
1.406016e-009
1.688511e-009
1.919975e-009
2.037098e-009
1.958783e-009
1.588946e-009
8.220028e-010
-4.492593e-010
-2.324259e-009
-4.884843e-009
-8.186544e-009
-1.225212e-008
-1.706823e-008
-2.258562e-008
-2.872242e-008
-3.536991e-008
-4.239959e-008
-4.967054e-008
-5.703602e-008
-6.434875e-008
-7.146462e-008
-7.824478e-008
-8.455652e-008
-9.027346e-008
-9.527536e-008
-9.944836e-008
-1.026858e-007
-1.048900e-007
-1.059754e-007
-1.058727e-007
-1.045343e-007
-1.019401e-007
-9.810380e-008
-9.307886e-008
-8.696233e-008
-7.989704e-008
-7.207010e-008
-6.370762e-008
-5.506511e-008
-4.641380e-008
-3.802391e-008
-3.014617e-008
-2.299397e-008
-1.672819e-008
-1.144708e-008
-7.182538e-009
-3.903508e-009
-1.525723e-009
7.377943e-011
1.039830e-009
1.522536e-009
1.663185e-009
1.584123e-009
1.383159e-009
1.132199e-009
8.791761e-010
6.520718e-010
4.638159e-010
3.171224e-010
2.086244e-010
1.320291e-010
8.025609e-011
4.670615e-011
2.586922e-011
1.349218e-011
6.492671e-012
2.756381e-012
9.043259e-013
8.063038e-014
-2.193402e-013
-2.772387e-013
-2.399873e-013
-1.783233e-013
-1.214226e-013
-7.909840e-014
-5.229085e-014
-3.961219e-014
-1.155890e-013
-1.484934e-013
-2.131799e-013
-3.074498e-013
-4.222471e-013
-5.275890e-013
-5.484476e-013
-3.246966e-013
4.536458e-013
2.349791e-012
6.324425e-012
1.393944e-011
2.761118e-011
5.090134e-011
8.879298e-011
1.478608e-010
2.361791e-010
3.627482e-010
5.361583e-010
7.621862e-010
1.040063e-009
1.357301e-009
1.683242e-009
1.961892e-009
2.105045e-009
1.987138e-009
1.443456e-009
2.732212e-010
-1.751471e-009
-4.870820e-009
-9.317729e-009
-1.529567e-008
-2.295706e-008
-3.238527e-008
-4.358298e-008
-5.646842e-008
-7.087971e-008
-8.658603e-008
-1.033035e-007
-1.207130e-007
-1.384775e-007
-1.562569e-007
-1.737188e-007
-1.905456e-007
-2.064374e-007
-2.211123e-007
-2.343054e-007
-2.457669e-007
-2.552608e-007
-2.625659e-007
-2.674784e-007
-2.698175e-007
-2.694340e-007
-2.662207e-007
-2.601257e-007
-2.511657e-007
-2.394393e-007
-2.251380e-007
-2.085526e-007
-1.900739e-007
-1.701843e-007
-1.494414e-007
-1.284509e-007
-1.078325e-007
-8.817934e-008
-7.001698e-008
-5.376601e-008
-3.971385e-008
-2.800002e-008
-1.861707e-008
-1.142702e-008
-6.190183e-009
-2.601434e-009
-3.280847e-010
9.561616e-010
1.545122e-009
1.683865e-009
1.562149e-009
1.315883e-009
1.034077e-009
7.686022e-010
5.445036e-010
3.692784e-010
2.402940e-010
1.501178e-010
8.994786e-011
5.154061e-011
2.808071e-011
1.439253e-011
6.797527e-012
2.824971e-012
8.996428e-013
6.587309e-014
-2.258417e-013
-2.752564e-013
-2.333940e-013
-1.713779e-013
-1.175596e-013
-8.115839e-014
-6.310924e-014
-1.803067e-013
-2.258022e-013
-3.106025e-013
-4.239976e-013
-5.357893e-013
-5.711471e-013
-3.656036e-013
4.081685e-013
2.357931e-012
6.546946e-012
1.474301e-011
2.974222e-011
5.575382e-011
9.878777e-011
1.669158e-010
2.701901e-010
4.198690e-010
6.264743e-010
8.961022e-010
1.224384e-009
1.587657e-009
1.931267e-009
2.155607e-009
2.101364e-009
1.536441e-009
1.478020e-010
-2.458208e-009
-6.744046e-009
-1.321610e-008
-2.238751e-008
-3.473203e-008
-5.063484e-008
-7.034736e-008
-9.395319e-008
-1.213505e-007
-1.522530e-007
-1.862090e-007
-2.226340e-007
-2.608504e-007
-3.001302e-007
-3.397322e-007
-3.789324e-007
-4.170440e-007
-4.534282e-007
-4.874968e-007
-5.187087e-007
-5.465635e-007
-5.705941e-007
-5.903618e-007
-6.054541e-007
-6.154880e-007
-6.201185e-007
-6.190530e-007
-6.120712e-007
-5.990493e-007
-5.799873e-007
-5.550370e-007
-5.245270e-007
-4.889826e-007
-4.491338e-007
-4.059105e-007
-3.604183e-007
-3.138948e-007
-2.676460e-007
-2.229670e-007
-1.810537e-007
-1.429167e-007
-1.093084e-007
-8.067585e-008
-5.714517e-008
-3.854254e-008
-2.444548e-008
-1.425608e-008
-7.282920e-009
-2.818714e-009
-2.036139e-010
1.131829e-009
1.645068e-009
1.678615e-009
1.470667e-009
1.173541e-009
8.747559e-010
6.169934e-010
4.147189e-010
2.666548e-010
1.642562e-010
9.688759e-011
5.457947e-011
2.919493e-011
1.466617e-011
6.769828e-012
2.732168e-012
8.254244e-013
2.661912e-014
-2.380058e-013
-2.721877e-013
-2.259698e-013
-1.666425e-013
-1.207242e-013
-9.705908e-014
-2.713491e-013
-3.290677e-013
-4.300293e-013
-5.433562e-013
-5.961195e-013
-4.259954e-013
2.976053e-013
2.204299e-012
6.423630e-012
1.487750e-011
3.067666e-011
5.861012e-011
1.056625e-010
1.814036e-010
2.979521e-010
4.690076e-010
7.072046e-010
1.018782e-009
1.394403e-009
1.794995e-009
2.131913e-009
2.241653e-009
1.856870e-009
5.773893e-010
-2.153063e-009
-7.057216e-009
-1.501427e-008
-2.702383e-008
-4.414174e-008
-6.739131e-008
-9.765956e-008
-1.355929e-007
-1.815095e-007
-2.353424e-007
-2.966247e-007
-3.645161e-007
-4.378670e-007
-5.153057e-007
-5.953344e-007
-6.764206e-007
-7.570720e-007
-8.358903e-007
-9.116019e-007
-9.830678e-007
-1.049278e-006
-1.109334e-006
-1.162428e-006
-1.207821e-006
-1.244824e-006
-1.272788e-006
-1.291102e-006
-1.299202e-006
-1.296592e-006
-1.282872e-006
-1.257773e-006
-1.221212e-006
-1.173337e-006
-1.114582e-006
-1.045717e-006
-9.678845e-007
-8.826197e-007
-7.918373e-007
-6.977824e-007
-6.029379e-007
-5.098891e-007
-4.211534e-007
-3.389951e-007
-2.652482e-007
-2.011761e-007
-1.473936e-007
-1.038647e-007
-6.997722e-008
-4.467675e-008
-2.663391e-008
-1.441497e-008
-6.629026e-009
-2.035539e-009
3.937522e-010
1.454823e-009
1.723540e-009
1.587970e-009
1.289431e-009
9.635619e-010
6.759266e-010
4.497149e-010
2.853426e-010
1.730773e-010
1.003599e-010
5.549200e-011
2.908460e-011
1.428060e-011
6.413661e-012
2.490728e-012
6.923925e-013
-3.094096e-014
-2.534630e-013
-2.700659e-013
-2.224104e-013
-1.723504e-013
-1.436913e-013
-3.927772e-013
-4.587448e-013
-5.594711e-013
-6.251367e-013
-5.009506e-013
1.340943e-013
1.905827e-012
5.966070e-012
1.432255e-011
3.030358e-011
5.915422e-011
1.087004e-010
1.899039e-010
3.169285e-010
5.060368e-010
7.722275e-010
1.122028e-009
1.540408e-009
1.969534e-009
2.277347e-009
2.215046e-009
1.364772e-009
-9.178590e-010
-5.557533e-009
-1.379645e-008
-2.719937e-008
-4.761139e-008
-7.705778e-008
-1.175851e-007
-1.710555e-007
-2.389213e-007
-3.220160e-007
-4.204018e-007
-5.333038e-007
-6.591447e-007
-7.956710e-007
-9.401458e-007
-1.089570e-006
-1.240895e-006
-1.391206e-006
-1.537842e-006
-1.678474e-006
-1.811124e-006
-1.934155e-006
-2.046222e-006
-2.146226e-006
-2.233244e-006
-2.306479e-006
-2.365208e-006
-2.408749e-006
-2.436435e-006
-2.447616e-006
-2.441660e-006
-2.417984e-006
-2.376092e-006
-2.315633e-006
-2.236475e-006
-2.138802e-006
-2.023224e-006
-1.890889e-006
-1.743602e-006
-1.583899e-006
-1.415074e-006
-1.241119e-006
-1.066565e-006
-8.962116e-007
-7.347665e-007
-5.864417e-007
-4.545681e-007
-3.413022e-007
-2.474850e-007
-1.726805e-007
-1.153779e-007
-7.330797e-008
-4.380222e-008
-2.412751e-008
-1.174797e-008
-4.492319e-009
-6.285936e-010
1.135934e-009
1.704614e-009
1.666477e-009
1.376721e-009
1.029563e-009
7.169129e-010
4.713001e-010
2.946174e-010
1.756995e-010
9.999847e-011
5.417832e-011
2.776393e-011
1.328308e-011
5.773618e-012
2.131886e-012
5.186082e-013
-9.970171e-014
-2.726352e-013
-2.746382e-013
-2.339240e-013
-2.041906e-013
-5.457629e-013
-6.070918e-013
-6.685600e-013
-5.881910e-013
-6.596221e-014
1.496526e-012
5.227047e-012
1.314062e-011
2.866255e-011
5.732227e-011
1.075746e-010
1.915512e-010
3.253053e-010
5.276919e-010
8.164040e-010
1.198879e-009
1.654855e-009
2.106568e-009
2.372329e-009
2.100094e-009
6.803942e-010
-2.857033e-009
-9.951186e-009
-2.260185e-008
-4.341707e-008
-7.558248e-008
-1.227215e-007
-1.886280e-007
-2.768776e-007
-3.903590e-007
-5.308010e-007
-6.983915e-007
-8.915804e-007
-1.107119e-006
-1.340334e-006
-1.585584e-006
-1.836796e-006
-2.087982e-006
-2.333671e-006
-2.569181e-006
-2.790766e-006
-2.995616e-006
-3.181793e-006
-3.348096e-006
-3.493919e-006
-3.619093e-006
-3.723749e-006
-3.808188e-006
-3.872770e-006
-3.917827e-006
-3.943585e-006
-3.950107e-006
-3.937233e-006
-3.904547e-006
-3.851342e-006
-3.776629e-006
-3.679184e-006
-3.557660e-006
-3.410793e-006
-3.237686e-006
-3.038176e-006
-2.813240e-006
-2.565373e-006
-2.298847e-006
-2.019770e-006
-1.735854e-006
-1.455869e-006
-1.188814e-006
-9.429483e-007
-7.248547e-007
-5.387468e-007
-3.861708e-007
-2.661437e-007
-1.756568e-007
-1.103907e-007
-6.546129e-008
-3.605474e-008
-1.787171e-008
-7.366809e-009
-1.814319e-009
7.483390e-010
1.645404e-009
1.711451e-009
1.433393e-009
1.069101e-009
7.369327e-010
4.776224e-010
2.936039e-010
1.718608e-010
9.584574e-011
5.078672e-011
2.538501e-011
1.179085e-011
4.926725e-012
1.699150e-012
3.238935e-013
-1.746220e-013
-3.007926e-013
-2.987107e-013
-2.779359e-013
-7.237355e-013
-7.522082e-013
-6.964050e-013
-2.892888e-013
1.018690e-012
4.288451e-012
1.146444e-011
2.593541e-011
5.331383e-011
1.024030e-010
1.861709e-010
3.222552e-010
5.319912e-010
8.361202e-010
1.244106e-009
1.732428e-009
2.205539e-009
2.431876e-009
1.947343e-009
-7.875660e-011
-5.013993e-009
-1.495664e-008
-3.292459e-008
-6.299213e-008
-1.103100e-007
-1.809347e-007
-2.814023e-007
-4.180176e-007
-5.959049e-007
-8.179586e-007
-1.083922e-006
-1.389849e-006
-1.728134e-006
-2.088164e-006
-2.457468e-006
-2.823110e-006
-3.173035e-006
-3.497127e-006
-3.787837e-006
-4.040380e-006
-4.252567e-006
-4.424435e-006
-4.557770e-006
-4.655645e-006
-4.722009e-006
-4.761357e-006
-4.778455e-006
-4.778127e-006
-4.765062e-006
-4.743647e-006
-4.717792e-006
-4.690729e-006
-4.664777e-006
-4.641078e-006
-4.619299e-006
-4.597366e-006
-4.571271e-006
-4.535038e-006
-4.480942e-006
-4.400032e-006
-4.283017e-006
-4.121468e-006
-3.909238e-006
-3.643897e-006
-3.327894e-006
-2.969127e-006
-2.580650e-006
-2.179407e-006
-1.784115e-006
-1.412709e-006
-1.079910e-006
-7.954871e-007
-5.635903e-007
-3.831676e-007
-2.492027e-007
-1.543136e-007
-9.028348e-008
-4.924001e-008
-2.438316e-008
-1.030018e-008
-2.976282e-009
3.777793e-010
1.578592e-009
1.731562e-009
1.459387e-009
1.080234e-009
7.345500e-010
4.681513e-010
2.824110e-010
1.619589e-010
8.834497e-011
4.568714e-011
2.221075e-011
9.969527e-012
3.965624e-012
1.237387e-012
1.231801e-013
-2.589344e-013
-3.517163e-013
-3.589622e-013
-9.082160e-013
-8.502901e-013
-5.364825e-013
5.088722e-013
3.243600e-012
9.470662e-012
2.241410e-011
4.755595e-011
9.372746e-011
1.743095e-010
3.080623e-010
5.185005e-010
8.296638e-010
1.254479e-009
1.769580e-009
2.267556e-009
2.474673e-009
1.820292e-009
-7.546373e-010
-7.055986e-009
-1.995286e-008
-4.371808e-008
-8.432369e-008
-1.495800e-007
-2.489669e-007
-3.929872e-007
-5.919053e-007
-8.538633e-007