# vtk DataFile Version 3.0
vtk output
ASCII
DATASET STRUCTURED_POINTS
DIMENSIONS 100 100 1
SPACING 1 1 1
ORIGIN 0 0 0
POINT_DATA 10000
SCALARS SFBox_profile double
LOOKUP_TABLE default 
9.439918e-003
9.439918e-003
9.439918e-003
9.439919e-003
9.439919e-003
9.439919e-003
9.439920e-003
9.439921e-003
9.439922e-003
9.439924e-003
9.439927e-003
9.439930e-003
9.439934e-003
9.439939e-003
9.439944e-003
9.439950e-003
9.439957e-003
9.439963e-003
9.439969e-003
9.439973e-003
9.439975e-003
9.439974e-003
9.439970e-003
9.439961e-003
9.439946e-003
9.439925e-003
9.439899e-003
9.439865e-003
9.439826e-003
9.439780e-003
9.439729e-003
9.439672e-003
9.439611e-003
9.439545e-003
9.439476e-003
9.439403e-003
9.439328e-003
9.439251e-003
9.439172e-003
9.439092e-003
9.439011e-003
9.438931e-003
9.438851e-003
9.438772e-003
9.438696e-003
9.438623e-003
9.438555e-003
9.438492e-003
9.438437e-003
9.438390e-003
9.438352e-003
9.438326e-003
9.438312e-003
9.438312e-003
9.438327e-003
9.438356e-003
9.438402e-003
9.438462e-003
9.438538e-003
9.438627e-003
9.438729e-003
9.438840e-003
9.438959e-003
9.439083e-003
9.439207e-003
9.439328e-003
9.439444e-003
9.439552e-003
9.439648e-003
9.439732e-003
9.439801e-003
9.439857e-003
9.439899e-003
9.439929e-003
9.439948e-003
9.439958e-003
9.439962e-003
9.439962e-003
9.439958e-003
9.439952e-003
9.439947e-003
9.439941e-003
9.439936e-003
9.439931e-003
9.439928e-003
9.439925e-003
9.439924e-003
9.439922e-003
9.439921e-003
9.439921e-003
9.439920e-003
9.439920e-003
9.439920e-003
9.439920e-003
9.439920e-003
9.439920e-003
9.439920e-003
9.439920e-003
9.439920e-003
9.439920e-003
9.439918e-003
9.439918e-003
9.439918e-003
9.439919e-003
9.439919e-003
9.439919e-003
9.439920e-003
9.439921e-003
9.439922e-003
9.439924e-003
9.439927e-003
9.439930e-003
9.439934e-003
9.439939e-003
9.439944e-003
9.439950e-003
9.439957e-003
9.439963e-003
9.439969e-003
9.439973e-003
9.439975e-003
9.439974e-003
9.439970e-003
9.439961e-003
9.439946e-003
9.439925e-003
9.439899e-003
9.439865e-003
9.439826e-003
9.439780e-003
9.439729e-003
9.439672e-003
9.439611e-003
9.439545e-003
9.439476e-003
9.439403e-003
9.439328e-003
9.439251e-003
9.439172e-003
9.439092e-003
9.439011e-003
9.438931e-003
9.438851e-003
9.438772e-003
9.438696e-003
9.438623e-003
9.438555e-003
9.438492e-003
9.438437e-003
9.438390e-003
9.438352e-003
9.438326e-003
9.438312e-003
9.438312e-003
9.438327e-003
9.438356e-003
9.438402e-003
9.438462e-003
9.438538e-003
9.438627e-003
9.438729e-003
9.438840e-003
9.438959e-003
9.439083e-003
9.439207e-003
9.439328e-003
9.439444e-003
9.439552e-003
9.439648e-003
9.439732e-003
9.439801e-003
9.439857e-003
9.439899e-003
9.439929e-003
9.439948e-003
9.439958e-003
9.439962e-003
9.439962e-003
9.439958e-003
9.439952e-003
9.439947e-003
9.439941e-003
9.439936e-003
9.439931e-003
9.439928e-003
9.439925e-003
9.439924e-003
9.439922e-003
9.439921e-003
9.439921e-003
9.439920e-003
9.439920e-003
9.439920e-003
9.439920e-003
9.439920e-003
9.439920e-003
9.439920e-003
9.439920e-003
9.439920e-003
9.439920e-003
9.439918e-003
9.439918e-003
9.439919e-003
9.439919e-003
9.439919e-003
9.439920e-003
9.439921e-003
9.439922e-003
9.439924e-003
9.439926e-003
9.439929e-003
9.439933e-003
9.439938e-003
9.439943e-003
9.439949e-003
9.439954e-003
9.439959e-003
9.439962e-003
9.439962e-003
9.439957e-003
9.439947e-003
9.439930e-003
9.439905e-003
9.439869e-003
9.439822e-003
9.439764e-003
9.439694e-003
9.439611e-003
9.439518e-003
9.439413e-003
9.439299e-003
9.439176e-003
9.439046e-003
9.438909e-003
9.438766e-003
9.438619e-003
9.438469e-003
9.438317e-003
9.438163e-003
9.438008e-003
9.437854e-003
9.437700e-003
9.437550e-003
9.437403e-003
9.437261e-003
9.437127e-003
9.437001e-003
9.436887e-003
9.436787e-003
9.436702e-003
9.436635e-003
9.436589e-003
9.436567e-003
9.436569e-003
9.436597e-003
9.436654e-003
9.436740e-003
9.436854e-003
9.436997e-003
9.437166e-003
9.437358e-003
9.437570e-003
9.437798e-003
9.438036e-003
9.438279e-003
9.438519e-003
9.438752e-003
9.438971e-003
9.439171e-003
9.439349e-003
9.439503e-003
9.439631e-003
9.439733e-003
9.439811e-003
9.439869e-003
9.439908e-003
9.439932e-003
9.439945e-003
9.439951e-003
9.439951e-003
9.439948e-003
9.439944e-003
9.439939e-003
9.439934e-003
9.439930e-003
9.439927e-003
9.439925e-003
9.439923e-003
9.439922e-003
9.439921e-003
9.439921e-003
9.439920e-003
9.439920e-003
9.439920e-003
9.439920e-003
9.439920e-003
9.439920e-003
9.439920e-003
9.439920e-003
9.439920e-003
9.439918e-003
9.439919e-003
9.439919e-003
9.439919e-003
9.439920e-003
9.439921e-003
9.439923e-003
9.439925e-003
9.439928e-003
9.439931e-003
9.439935e-003
9.439940e-003
9.439946e-003
9.439951e-003
9.439955e-003
9.439956e-003
9.439954e-003
9.439944e-003
9.439926e-003
9.439895e-003
9.439848e-003
9.439782e-003
9.439695e-003
9.439584e-003
9.439446e-003
9.439282e-003
9.439092e-003
9.438875e-003
9.438634e-003
9.438370e-003
9.438087e-003
9.437787e-003
9.437473e-003
9.437148e-003
9.436814e-003
9.436473e-003
9.436128e-003
9.435781e-003
9.435434e-003
9.435087e-003
9.434744e-003
9.434405e-003
9.434075e-003
9.433754e-003
9.433448e-003
9.433158e-003
9.432889e-003
9.432646e-003
9.432432e-003
9.432253e-003
9.432114e-003
9.432019e-003
9.431974e-003
9.431982e-003
9.432047e-003
9.432173e-003
9.432361e-003
9.432611e-003
9.432923e-003
9.433293e-003
9.433717e-003
9.434187e-003
9.434694e-003
9.435227e-003
9.435775e-003
9.436325e-003
9.436862e-003
9.437374e-003
9.437851e-003
9.438282e-003
9.438661e-003
9.438984e-003
9.439251e-003
9.439464e-003
9.439628e-003
9.439748e-003
9.439831e-003
9.439887e-003
9.439920e-003
9.439937e-003
9.439945e-003
9.439946e-003
9.439943e-003
9.439939e-003
9.439935e-003
9.439931e-003
9.439927e-003
9.439925e-003
9.439923e-003
9.439922e-003
9.439921e-003
9.439921e-003
9.439920e-003
9.439920e-003
9.439920e-003
9.439920e-003
9.439920e-003
9.439920e-003
9.439920e-003
9.439920e-003
9.439919e-003
9.439919e-003
9.439919e-003
9.439920e-003
9.439922e-003
9.439923e-003
9.439926e-003
9.439929e-003
9.439934e-003
9.439939e-003
9.439944e-003
9.439950e-003
9.439954e-003
9.439956e-003
9.439953e-003
9.439941e-003
9.439915e-003
9.439871e-003
9.439801e-003
9.439699e-003
9.439559e-003
9.439372e-003
9.439133e-003
9.438839e-003
9.438485e-003
9.438072e-003
9.437601e-003
9.437074e-003
9.436496e-003
9.435873e-003
9.435212e-003
9.434519e-003
9.433801e-003
9.433064e-003
9.432313e-003
9.431555e-003
9.430793e-003
9.430032e-003
9.429274e-003
9.428525e-003
9.427786e-003
9.427063e-003
9.426361e-003
9.425683e-003
9.425038e-003
9.424431e-003
9.423871e-003
9.423365e-003
9.422924e-003
9.422556e-003
9.422271e-003
9.422080e-003
9.421991e-003
9.422013e-003
9.422155e-003
9.422423e-003
9.422820e-003
9.423349e-003
9.424009e-003
9.424794e-003
9.425695e-003
9.426700e-003
9.427791e-003
9.428947e-003
9.430144e-003
9.431353e-003
9.432547e-003
9.433699e-003
9.434782e-003
9.435774e-003
9.436659e-003
9.437427e-003
9.438072e-003
9.438598e-003
9.439012e-003
9.439326e-003
9.439554e-003
9.439714e-003
9.439819e-003
9.439883e-003
9.439920e-003
9.439938e-003
9.439944e-003
9.439944e-003
9.439940e-003
9.439936e-003
9.439932e-003
9.439928e-003
9.439925e-003
9.439923e-003
9.439922e-003
9.439921e-003
9.439921e-003
9.439920e-003
9.439920e-003
9.439920e-003
9.439920e-003
9.439920e-003
9.439920e-003
9.439920e-003
9.439919e-003
9.439920e-003
9.439921e-003
9.439922e-003
9.439924e-003
9.439927e-003
9.439931e-003
9.439936e-003
9.439942e-003
9.439949e-003
9.439954e-003
9.439958e-003
9.439956e-003
9.439945e-003
9.439917e-003
9.439866e-003
9.439779e-003
9.439645e-003
9.439449e-003
9.439178e-003
9.438814e-003
9.438347e-003
9.437763e-003
9.437057e-003
9.436223e-003
9.435264e-003
9.434185e-003
9.432995e-003
9.431705e-003
9.430331e-003
9.428887e-003
9.427390e-003
9.425853e-003
9.424291e-003
9.422715e-003
9.421135e-003
9.419561e-003
9.418000e-003
9.416459e-003
9.414944e-003
9.413463e-003
9.412023e-003
9.410631e-003
9.409299e-003
9.408036e-003
9.406856e-003
9.405772e-003
9.404800e-003
9.403955e-003
9.403256e-003
9.402719e-003
9.402362e-003
9.402204e-003
9.402260e-003
9.402545e-003
9.403073e-003
9.403852e-003
9.404888e-003
9.406181e-003
9.407725e-003
9.409507e-003
9.411506e-003
9.413691e-003
9.416025e-003
9.418463e-003
9.420952e-003
9.423438e-003
9.425861e-003
9.428168e-003
9.430310e-003
9.432245e-003
9.433947e-003
9.435399e-003
9.436602e-003
9.437565e-003
9.438312e-003
9.438869e-003
9.439269e-003
9.439543e-003
9.439723e-003
9.439833e-003
9.439896e-003
9.439928e-003
9.439941e-003
9.439944e-003
9.439941e-003
9.439937e-003
9.439933e-003
9.439929e-003
9.439926e-003
9.439924e-003
9.439922e-003
9.439921e-003
9.439921e-003
9.439920e-003
9.439920e-003
9.439920e-003
9.439920e-003
9.439920e-003
9.439920e-003
9.439921e-003
9.439922e-003
9.439923e-003
9.439925e-003
9.439929e-003
9.439933e-003
9.439939e-003
9.439946e-003
9.439953e-003
9.439959e-003
9.439961e-003
9.439954e-003
9.439931e-003
9.439881e-003
9.439790e-003
9.439639e-003
9.439404e-003
9.439059e-003
9.438574e-003
9.437919e-003
9.437063e-003
9.435983e-003
9.434658e-003
9.433079e-003
9.431244e-003
9.429162e-003
9.426852e-003
9.424337e-003
9.421648e-003
9.418819e-003
9.415885e-003
9.412877e-003
9.409828e-003
9.406764e-003
9.403707e-003
9.400678e-003
9.397692e-003
9.394763e-003
9.391901e-003
9.389118e-003
9.386425e-003
9.383832e-003
9.381353e-003
9.379002e-003
9.376797e-003
9.374756e-003
9.372899e-003
9.371250e-003
9.369832e-003
9.368671e-003
9.367794e-003
9.367228e-003
9.366998e-003
9.367132e-003
9.367655e-003
9.368589e-003
9.369952e-003
9.371760e-003
9.374019e-003
9.376730e-003
9.379879e-003
9.383444e-003
9.387387e-003
9.391652e-003
9.396169e-003
9.400851e-003
9.405600e-003
9.410308e-003
9.414864e-003
9.419164e-003
9.423115e-003
9.426647e-003
9.429711e-003
9.432289e-003
9.434390e-003
9.436045e-003
9.437304e-003
9.438226e-003
9.438876e-003
9.439315e-003
9.439597e-003
9.439769e-003
9.439866e-003
9.439916e-003
9.439938e-003
9.439944e-003
9.439943e-003
9.439938e-003
9.439934e-003
9.439929e-003
9.439926e-003
9.439924e-003
9.439922e-003
9.439921e-003
9.439921e-003
9.439920e-003
9.439920e-003
9.439920e-003
9.439920e-003
9.439920e-003
9.439924e-003
9.439925e-003
9.439927e-003
9.439931e-003
9.439936e-003
9.439942e-003
9.439950e-003
9.439958e-003
9.439963e-003
9.439962e-003
9.439948e-003
9.439910e-003
9.439830e-003
9.439685e-003
9.439442e-003
9.439063e-003
9.438496e-003
9.437688e-003
9.436577e-003
9.435106e-003
9.433221e-003
9.430880e-003
9.428058e-003
9.424748e-003
9.420965e-003
9.416744e-003
9.412138e-003
9.407212e-003
9.402038e-003
9.396692e-003
9.391247e-003
9.385768e-003
9.380315e-003
9.374937e-003
9.369672e-003
9.364552e-003
9.359601e-003
9.354836e-003
9.350274e-003
9.345926e-003
9.341806e-003
9.337926e-003
9.334299e-003
9.330938e-003
9.327858e-003
9.325077e-003
9.322611e-003
9.320478e-003
9.318700e-003
9.317295e-003
9.316287e-003
9.315698e-003
9.315554e-003
9.315881e-003
9.316707e-003
9.318064e-003
9.319983e-003
9.322498e-003
9.325644e-003
9.329449e-003
9.333938e-003
9.339121e-003
9.344990e-003
9.351511e-003
9.358618e-003
9.366208e-003
9.374143e-003
9.382248e-003
9.390325e-003
9.398165e-003
9.405564e-003
9.412342e-003
9.418360e-003
9.423533e-003
9.427832e-003
9.431283e-003
9.433957e-003
9.435953e-003
9.437387e-003
9.438378e-003
9.439033e-003
9.439447e-003
9.439694e-003
9.439832e-003
9.439902e-003
9.439933e-003
9.439943e-003
9.439943e-003
9.439939e-003
9.439934e-003
9.439930e-003
9.439926e-003
9.439924e-003
9.439922e-003
9.439921e-003
9.439921e-003
9.439920e-003
9.439920e-003
9.439920e-003
9.439920e-003
9.439928e-003
9.439930e-003
9.439933e-003
9.439939e-003
9.439946e-003
9.439954e-003
9.439962e-003
9.439967e-003
9.439964e-003
9.439941e-003
9.439884e-003
9.439767e-003
9.439553e-003
9.439192e-003
9.438616e-003
9.437744e-003
9.436476e-003
9.434704e-003
9.432317e-003
9.429213e-003
9.425306e-003
9.420545e-003
9.414917e-003
9.408456e-003
9.401241e-003
9.393390e-003
9.385050e-003
9.376384e-003
9.367561e-003
9.358739e-003
9.350063e-003
9.341651e-003
9.333600e-003
9.325982e-003
9.318846e-003
9.312227e-003
9.306143e-003
9.300606e-003
9.295622e-003
9.291192e-003
9.287315e-003
9.283982e-003
9.281182e-003
9.278898e-003
9.277104e-003
9.275772e-003
9.274863e-003
9.274337e-003
9.274147e-003
9.274245e-003
9.274584e-003
9.275117e-003
9.275806e-003
9.276623e-003
9.277555e-003
9.278613e-003
9.279834e-003
9.281290e-003
9.283086e-003
9.285364e-003
9.288294e-003
9.292062e-003
9.296852e-003
9.302822e-003
9.310080e-003
9.318653e-003
9.328473e-003
9.339359e-003
9.351024e-003
9.363092e-003
9.375132e-003
9.386706e-003
9.397419e-003
9.406961e-003
9.415137e-003
9.421876e-003
9.427218e-003
9.431290e-003
9.434274e-003
9.436376e-003
9.437797e-003
9.438716e-003
9.439283e-003
9.439615e-003
9.439797e-003
9.439889e-003
9.439929e-003
9.439943e-003
9.439943e-003
9.439939e-003
9.439934e-003
9.439930e-003
9.439926e-003
9.439924e-003
9.439922e-003
9.439921e-003
9.439921e-003
9.439920e-003
9.439920e-003
9.439920e-003
9.439936e-003
9.439938e-003
9.439943e-003
9.439950e-003
9.439958e-003
9.439967e-003
9.439971e-003
9.439965e-003
9.439934e-003
9.439856e-003
9.439697e-003
9.439403e-003
9.438899e-003
9.438080e-003
9.436814e-003
9.434939e-003
9.432269e-003
9.428608e-003
9.423773e-003
9.417612e-003
9.410036e-003
9.401044e-003
9.390736e-003
9.379315e-003
9.367077e-003
9.354384e-003
9.341632e-003
9.329217e-003
9.317502e-003
9.306796e-003
9.297342e-003
9.289309e-003
9.282801e-003
9.277862e-003
9.274496e-003
9.272673e-003
9.272349e-003
9.273473e-003
9.275985e-003
9.279822e-003
9.284907e-003
9.291145e-003
9.298412e-003
9.306553e-003
9.315377e-003
9.324658e-003
9.334136e-003
9.343521e-003
9.352501e-003
9.360746e-003
9.367921e-003
9.373693e-003
9.377747e-003
9.379808e-003
9.379657e-003
9.377159e-003
9.372292e-003
9.365175e-003
9.356086e-003
9.345478e-003
9.333977e-003
9.322359e-003
9.311505e-003
9.302337e-003
9.295732e-003
9.292426e-003
9.292927e-003
9.297426e-003
9.305758e-003
9.317402e-003
9.331533e-003
9.347129e-003
9.363113e-003
9.378492e-003
9.392478e-003
9.404553e-003
9.414482e-003
9.422279e-003
9.428136e-003
9.432350e-003
9.435257e-003
9.437178e-003
9.438393e-003
9.439125e-003
9.439544e-003
9.439768e-003
9.439879e-003
9.439927e-003
9.439942e-003
9.439944e-003
9.439939e-003
9.439934e-003
9.439929e-003
9.439926e-003
9.439923e-003
9.439922e-003
9.439921e-003
9.439920e-003
9.439920e-003
9.439920e-003
9.439947e-003
9.439950e-003
9.439956e-003
9.439964e-003
9.439972e-003
9.439976e-003
9.439967e-003
9.439929e-003
9.439832e-003
9.439630e-003
9.439252e-003
9.438589e-003
9.437492e-003
9.435759e-003
9.433137e-003
9.429329e-003
9.424016e-003
9.416888e-003
9.407705e-003
9.396351e-003
9.382905e-003
9.367678e-003
9.351235e-003
9.334369e-003
9.318035e-003
9.303262e-003
9.291053e-003
9.282293e-003
9.277685e-003
9.277717e-003
9.282651e-003
9.292552e-003
9.307314e-003
9.326715e-003
9.350458e-003
9.378217e-003
9.409670e-003
9.444515e-003
9.482466e-003
9.523234e-003
9.566499e-003
9.611880e-003
9.658905e-003
9.706990e-003
9.755432e-003
9.803406e-003
9.849975e-003
9.894102e-003
9.934673e-003
9.970512e-003
1.000041e-002
1.002317e-002
1.003762e-002
1.004270e-002
1.003750e-002
1.002134e-002
9.993895e-003
9.955246e-003
9.905986e-003
9.847285e-003
9.780922e-003
9.709260e-003
9.635166e-003
9.561856e-003
9.492679e-003
9.430837e-003
9.379080e-003
9.339403e-003
9.312800e-003
9.299129e-003
9.297141e-003
9.304676e-003
9.319009e-003
9.337266e-003
9.356826e-003
9.375611e-003
9.392235e-003
9.405993e-003
9.416738e-003
9.424705e-003
9.430334e-003
9.434136e-003
9.436590e-003
9.438104e-003
9.438995e-003
9.439491e-003
9.439750e-003
9.439874e-003
9.439926e-003
9.439942e-003
9.439943e-003
9.439939e-003
9.439933e-003
9.439929e-003
9.439925e-003
9.439923e-003
9.439922e-003
9.439921e-003
9.439920e-003
9.439920e-003
9.439962e-003
9.439966e-003
9.439973e-003
9.439980e-003
9.439983e-003
9.439972e-003
9.439927e-003
9.439815e-003
9.439576e-003
9.439117e-003
9.438297e-003
9.436908e-003
9.434665e-003
9.431197e-003
9.426055e-003
9.418746e-003
9.408795e-003
9.395854e-003
9.379842e-003
9.361105e-003
9.340544e-003
9.319691e-003
9.300665e-003
9.286026e-003
9.278527e-003
9.280824e-003
9.295204e-003
9.323375e-003
9.366357e-003
9.424480e-003
9.497449e-003
9.584473e-003
9.684415e-003
9.795948e-003
9.917689e-003
1.004832e-002
1.018665e-002
1.033164e-002
1.048237e-002
1.063794e-002
1.079741e-002
1.095968e-002
1.112338e-002
1.128685e-002
1.144812e-002
1.160487e-002
1.175449e-002
1.189411e-002
1.202065e-002
1.213086e-002
1.222141e-002
1.228892e-002
1.233011e-002
1.234186e-002
1.232143e-002
1.226660e-002
1.217595e-002
1.204907e-002
1.188687e-002
1.169175e-002
1.146782e-002
1.122090e-002
1.095849e-002
1.068945e-002
1.042358e-002
1.017094e-002
9.941045e-003
9.741936e-003
9.579322e-003
9.455892e-003
9.371038e-003
9.321053e-003
9.299845e-003
9.299992e-003
9.313914e-003
9.334900e-003
9.357766e-003
9.379086e-003
9.397043e-003
9.411051e-003
9.421315e-003
9.428438e-003
9.433142e-003
9.436107e-003
9.437890e-003
9.438910e-003
9.439464e-003
9.439744e-003
9.439874e-003
9.439927e-003
9.439943e-003
9.439943e-003
9.439938e-003
9.439932e-003
9.439928e-003
9.439925e-003
9.439923e-003
9.439921e-003
9.439921e-003
9.439920e-003
9.439982e-003
9.439986e-003
9.439991e-003
9.439993e-003
9.439981e-003
9.439933e-003
9.439809e-003
9.439542e-003
9.439019e-003
9.438060e-003
9.436398e-003
9.433651e-003
9.429306e-003
9.422725e-003
9.413189e-003
9.400013e-003
9.382749e-003
9.361492e-003
9.337253e-003
9.312332e-003
9.290567e-003
9.277333e-003
9.279226e-003
9.303448e-003
9.356999e-003
9.445863e-003
9.574355e-003
9.744757e-003
9.957261e-003
1.021019e-002
1.050042e-002
1.082381e-002
1.117575e-002
1.155151e-002
1.194663e-002
1.235716e-002
1.277971e-002
1.321153e-002
1.365028e-002
1.409380e-002
1.453987e-002
1.498591e-002
1.542879e-002
1.586466e-002
1.628896e-002
1.669638e-002
1.708097e-002
1.743623e-002
1.775516e-002
1.803044e-002
1.825449e-002
1.841962e-002
1.851816e-002
1.854272e-002
1.848647e-002
1.834355e-002
1.810953e-002
1.778198e-002
1.736113e-002
1.685048e-002
1.625732e-002
1.559315e-002
1.487384e-002
1.411938e-002
1.335323e-002
1.260117e-002
1.188946e-002
1.124266e-002
1.068106e-002
1.021834e-002
9.859952e-003
9.602648e-003
9.435429e-003
9.341768e-003
9.302585e-003
9.299249e-003
9.315917e-003
9.340799e-003
9.366320e-003
9.388475e-003
9.405800e-003
9.418349e-003
9.426894e-003
9.432410e-003
9.435799e-003
9.437783e-003
9.438887e-003
9.439468e-003
9.439753e-003
9.439881e-003
9.439930e-003
9.439943e-003
9.439942e-003
9.439937e-003
9.439931e-003
9.439927e-003
9.439924e-003
9.439922e-003
9.439921e-003
9.439921e-003
9.440006e-003
9.440008e-003
9.440008e-003
9.439994e-003
9.439945e-003
9.439818e-003
9.439537e-003
9.438972e-003
9.437913e-003
9.436031e-003
9.432845e-003
9.427685e-003
9.419692e-003
9.407877e-003
9.391303e-003
9.369446e-003
9.342805e-003
9.313732e-003
9.287367e-003
9.272408e-003
9.281380e-003
9.330099e-003
9.436276e-003
9.617466e-003
9.888794e-003
1.026102e-002
1.073931e-002
1.132299e-002
1.200608e-002
1.277850e-002
1.362751e-002
1.453915e-002
1.549945e-002
1.649537e-002
1.751546e-002
1.855018e-002
1.959197e-002
2.063502e-002
2.167477e-002
2.270728e-002
2.372857e-002
2.473399e-002
2.571786e-002
2.667314e-002
2.759142e-002
2.846297e-002
2.927691e-002
3.002138e-002
3.068372e-002
3.125063e-002
3.170827e-002
3.204240e-002
3.223860e-002
3.228247e-002
3.216010e-002
3.185857e-002
3.136680e-002
3.067651e-002
2.978343e-002
2.868863e-002
2.739993e-002
2.593331e-002
2.431396e-002
2.257702e-002
2.076751e-002
1.893915e-002
1.715166e-002
1.546643e-002
1.394067e-002
1.262088e-002
1.153691e-002
1.069816e-002
1.009312e-002
9.692600e-003
9.455908e-003
9.338448e-003
9.298638e-003
9.302674e-003
9.326480e-003
9.355202e-003
9.381196e-003
9.401594e-003
9.416182e-003
9.425915e-003
9.432045e-003
9.435712e-003
9.437800e-003
9.438927e-003
9.439502e-003
9.439775e-003
9.439892e-003
9.439934e-003
9.439943e-003
9.439941e-003
9.439935e-003
9.439930e-003
9.439926e-003
9.439923e-003
9.439922e-003
9.439921e-003
9.440032e-003
9.440029e-003
9.440014e-003
9.439966e-003
9.439842e-003
9.439562e-003
9.438985e-003
9.437877e-003
9.435859e-003
9.432356e-003
9.426543e-003
9.417326e-003
9.403411e-003
9.383562e-003
9.357199e-003
9.325487e-003
9.293009e-003
9.269863e-003
9.273722e-003
9.331013e-003
9.476381e-003
9.749912e-003
1.019236e-002
1.083935e-002
1.171599e-002
1.283328e-002
1.418688e-002
1.575859e-002
1.751951e-002
1.943423e-002
2.146493e-002
2.357476e-002
2.573028e-002
2.790294e-002
3.006971e-002
3.221312e-002
3.432075e-002
3.638425e-002
3.839804e-002
4.035794e-002
4.225980e-002
4.409845e-002
4.586701e-002
4.755651e-002
4.915596e-002
5.065248e-002
5.203162e-002
5.327764e-002
5.437374e-002
5.530212e-002
5.604406e-002
5.657983e-002
5.688871e-002
5.694901e-002
5.673833e-002
5.623392e-002
5.541350e-002
5.425635e-002
5.274492e-002
5.086695e-002
4.861802e-002
4.600478e-002
4.304841e-002
3.978829e-002
3.628520e-002
3.262309e-002
2.890817e-002
2.526399e-002
2.182162e-002
1.870555e-002
1.601731e-002
1.382078e-002
1.213318e-002
1.092496e-002
1.012887e-002
9.655685e-003
9.411740e-003
9.313520e-003
9.296241e-003
9.315946e-003
9.346781e-003
9.376009e-003
9.398956e-003
9.415109e-003
9.425641e-003
9.432103e-003
9.435861e-003
9.437938e-003
9.439025e-003
9.439561e-003
9.439806e-003
9.439905e-003
9.439938e-003
9.439943e-003
9.439939e-003
9.439933e-003
9.439928e-003
9.439925e-003
9.439923e-003
9.439922e-003
9.440054e-003
9.440040e-003
9.439995e-003
9.439879e-003
9.439613e-003
9.439055e-003
9.437956e-003
9.435904e-003
9.432251e-003
9.426037e-003
9.415940e-003
9.400342e-003
9.377664e-003
9.347232e-003
9.311043e-003
9.276749e-003
9.261849e-003
9.298399e-003
9.436614e-003
9.745235e-003
1.030685e-002
1.120784e-002
1.252482e-002
1.431087e-002
1.658558e-002
1.933142e-002
2.249707e-002
2.600615e-002
2.976852e-002
3.369136e-002
3.768812e-002
4.168420e-002
4.561969e-002
4.944978e-002
5.314366e-002
5.668254e-002
6.005718e-002
6.326518e-002
6.630828e-002
6.918993e-002
7.191327e-002
7.447979e-002
7.688854e-002
7.913601e-002
8.121628e-002
8.312143e-002
8.484196e-002
8.636710e-002
8.768491e-002
8.878220e-002
8.964426e-002
9.025443e-002
9.059356e-002
9.063953e-002
9.036665e-002
8.974536e-002
8.874194e-002
8.731879e-002
8.543516e-002
8.304868e-002
8.011818e-002
7.660800e-002
7.249434e-002
6.777385e-002
6.247416e-002
5.666514e-002
5.046848e-002
4.406175e-002
3.767265e-002
3.156014e-002
2.598247e-002
2.115760e-002
1.722637e-002
1.423018e-002
1.211127e-002
1.073536e-002
9.928151e-003
9.513041e-003
9.339234e-003
9.295297e-003
9.309459e-003
9.341737e-003
9.373486e-003
9.398226e-003
9.415281e-003
9.426114e-003
9.432575e-003
9.436222e-003
9.438175e-003
9.439165e-003
9.439635e-003
9.439840e-003
9.439918e-003
9.439941e-003
9.439942e-003
9.439937e-003
9.439931e-003
9.439927e-003
9.439924e-003
9.439923e-003
9.440063e-003
9.440027e-003
9.439924e-003
9.439685e-003
9.439171e-003
9.438136e-003
9.436155e-003
9.432540e-003
9.426232e-003
9.415717e-003
9.399068e-003
9.374311e-003
9.340554e-003
9.300523e-003
9.265283e-003
9.261620e-003
9.341395e-003
9.590285e-003
1.013142e-002
1.111903e-002
1.271949e-002
1.508196e-002
1.830608e-002
2.241672e-002
2.735441e-002
3.298407e-002
3.911835e-002
4.554766e-002
5.206842e-002
5.850384e-002
6.471510e-002
7.060406e-002
7.611012e-002
8.120385e-002
8.587959e-002
9.014828e-002
9.403122e-002
9.755512e-002
1.007483e-001
1.036378e-001
1.062484e-001
1.086013e-001
1.107142e-001
1.126018e-001
1.142763e-001
1.157475e-001
1.170238e-001
1.181118e-001
1.190165e-001
1.197409e-001
1.202860e-001
1.206496e-001
1.208258e-001
1.208040e-001
1.205680e-001
1.200939e-001
1.193490e-001
1.182898e-001
1.168599e-001
1.149881e-001
1.125879e-001
1.095573e-001
1.057834e-001
1.011509e-001
9.555766e-002
8.893854e-002
8.129554e-002
7.273086e-002
6.347329e-002
5.388460e-002
4.443250e-002
3.562529e-002
2.791956e-002
2.162899e-002
1.686760e-002
1.354884e-002
1.143717e-002
1.022710e-002
9.618410e-003
9.365724e-003
9.296777e-003
9.306676e-003
9.340394e-003
9.373898e-003
9.399497e-003
9.416671e-003
9.427262e-003
9.433388e-003
9.436739e-003
9.438476e-003
9.439326e-003
9.439713e-003
9.439873e-003
9.439929e-003
9.439943e-003
9.439940e-003
9.439935e-003
9.439930e-003
9.439926e-003
9.439924e-003
9.440044e-003
9.439968e-003
9.439765e-003
9.439316e-003
9.438388e-003
9.436570e-003
9.433171e-003
9.427087e-003
9.416677e-003
9.399749e-003
9.373910e-003
9.337846e-003
9.294540e-003
9.257889e-003
9.264118e-003
9.388016e-003
9.760685e-003
1.058102e-002
1.210999e-002
1.463882e-002
1.843106e-002
2.365205e-002
3.031025e-002
3.823453e-002
4.709823e-002
5.648104e-002
6.594561e-002
7.510437e-002
8.366135e-002
9.142593e-002
9.830504e-002
1.042837e-001
1.094018e-001
1.137330e-001
1.173667e-001
1.203951e-001
1.229059e-001
1.249778e-001
1.266792e-001
1.280690e-001
1.291974e-001
1.301074e-001
1.308355e-001
1.314132e-001
1.318670e-001
1.322193e-001
1.324885e-001
1.326894e-001
1.328340e-001
1.329309e-001
1.329866e-001
1.330048e-001
1.329866e-001
1.329304e-001
1.328315e-001
1.326810e-001
1.324646e-001
1.321610e-001
1.317380e-001
1.311488e-001
1.303249e-001
1.291679e-001
1.275401e-001
1.252553e-001
1.220764e-001
1.177250e-001
1.119118e-001
1.043955e-001
9.507096e-002
8.406739e-002
7.181914e-002
5.905812e-002
4.670004e-002
3.564261e-002
2.654811e-002
1.970307e-002
1.501040e-002
1.209874e-002
1.048177e-002
9.696404e-003
9.381627e-003
9.297681e-003
9.307219e-003
9.342815e-003
9.377193e-003
9.402600e-003
9.419083e-003
9.428920e-003
9.434427e-003
9.437341e-003
9.438800e-003
9.439486e-003
9.439785e-003
9.439901e-003
9.439937e-003
9.439943e-003
9.439938e-003
9.439933e-003
9.439928e-003
9.439926e-003
9.439972e-003
9.439830e-003
9.439463e-003
9.438673e-003
9.437087e-003
9.434047e-003
9.428466e-003
9.418663e-003
9.402272e-003
9.376502e-003
9.339405e-003
9.293467e-003
9.253778e-003
9.263579e-003
9.418911e-003
9.899554e-003
1.099515e-002
1.310632e-002
1.669846e-002
2.219823e-002
2.985235e-002
3.960063e-002
5.102666e-002
6.342138e-002
7.594006e-002
8.778757e-002
9.836253e-002
1.073228e-001
1.145743e-001
1.202111e-001
1.244403e-001
1.275161e-001
1.296931e-001
1.311985e-001
1.322180e-001
1.328944e-001
1.333327e-001
1.336088e-001
1.337767e-001
1.338757e-001
1.339339e-001
1.339712e-001
1.340003e-001
1.340291e-001
1.340607e-001
1.340960e-001
1.341340e-001
1.341735e-001
1.342136e-001
1.342540e-001
1.342953e-001
1.343383e-001
1.343836e-001
1.344308e-001
1.344779e-001
1.345202e-001
1.345499e-001
1.345556e-001
1.345222e-001
1.344317e-001
1.342636e-001
1.339942e-001
1.335919e-001
1.330049e-001
1.321367e-001
1.308082e-001
1.287093e-001
1.253623e-001
1.201425e-001
1.124168e-001
1.018053e-001
8.847517e-002
7.329117e-002
5.768307e-002
4.324060e-002
3.122329e-002
2.223456e-002
1.619535e-002
1.256187e-002
1.062116e-002
9.721019e-003
9.379866e-003
9.296954e-003
9.311115e-003
9.348845e-003
9.383007e-003
9.407134e-003
9.422193e-003
9.430866e-003
9.435556e-003
9.437953e-003
9.439109e-003
9.439630e-003
9.439845e-003
9.439922e-003
9.439941e-003
9.439941e-003
9.439936e-003
9.439931e-003
9.439928e-003
9.439815e-003
9.439568e-003
9.438943e-003
9.437629e-003
9.435041e-003
9.430171e-003
9.421387e-003
9.406274e-003
9.381745e-003
9.345103e-003
9.297554e-003
9.253080e-003
9.257082e-003
9.419205e-003
9.960135e-003
1.125997e-002
1.387743e-002
1.849508e-002
2.575582e-002
3.600615e-002
4.904174e-002
6.400352e-002
7.952969e-002
9.412866e-002
1.065999e-001
1.163095e-001
1.232273e-001
1.277651e-001
1.305337e-001
1.321329e-001
1.330359e-001
1.335610e-001
1.338922e-001
1.341161e-001
1.342599e-001
1.343227e-001
1.342968e-001
1.341786e-001
1.339708e-001
1.336814e-001
1.333209e-001
1.329004e-001
1.324314e-001
1.319256e-001
1.313955e-001
1.308551e-001
1.303203e-001
1.298084e-001
1.293387e-001
1.289314e-001
1.286074e-001
1.283876e-001
1.282922e-001
1.283402e-001
1.285477e-001
1.289268e-001
1.294831e-001
1.302131e-001
1.311002e-001
1.321096e-001
1.331836e-001
1.342355e-001
1.351468e-001
1.357720e-001
1.359592e-001
1.355941e-001
1.346452e-001
1.331465e-001
1.310336e-001
1.278602e-001
1.226335e-001
1.140854e-001
1.014282e-001
8.512310e-002
6.699389e-002
4.952284e-002
3.482203e-002
2.394317e-002
1.682557e-002
1.270335e-002
1.060342e-002
9.683812e-003
9.361395e-003
9.296148e-003
9.318733e-003
9.358059e-003