# vtk DataFile Version 3.0
vtk output
ASCII
DATASET STRUCTURED_POINTS
DIMENSIONS 100 100 1
SPACING 1 1 1
ORIGIN 0 0 0
POINT_DATA 10000
SCALARS SFBox_profile double
LOOKUP_TABLE default 
0.000000e+000
0.000000e+000
0.000000e+000
0.000000e+000
0.000000e+000
0.000000e+000
0.000000e+000
0.000000e+000
0.000000e+000
0.000000e+000
0.000000e+000
0.000000e+000
0.000000e+000
0.000000e+000
0.000000e+000
0.000000e+000
0.000000e+000
0.000000e+000
0.000000e+000
0.000000e+000
0.000000e+000
0.000000e+000
0.000000e+000
0.000000e+000
0.000000e+000
0.000000e+000
0.000000e+000
0.000000e+000
0.000000e+000
0.000000e+000
0.000000e+000
0.000000e+000
0.000000e+000
0.000000e+000
0.000000e+000
0.000000e+000
0.000000e+000
0.000000e+000
0.000000e+000
0.000000e+000
0.000000e+000
0.000000e+000
0.000000e+000
0.000000e+000
0.000000e+000
0.000000e+000
0.000000e+000
0.000000e+000
0.000000e+000
0.000000e+000
0.000000e+000
0.000000e+000
0.000000e+000
0.000000e+000
0.000000e+000
0.000000e+000
0.000000e+000
0.000000e+000
0.000000e+000
0.000000e+000
0.000000e+000
0.000000e+000
0.000000e+000
0.000000e+000
0.000000e+000
0.000000e+000
0.000000e+000
0.000000e+000
0.000000e+000
0.000000e+000
0.000000e+000
0.000000e+000
0.000000e+000
0.000000e+000
0.000000e+000
0.000000e+000
0.000000e+000
0.000000e+000
0.000000e+000
0.000000e+000
0.000000e+000
0.000000e+000
0.000000e+000
0.000000e+000
0.000000e+000
0.000000e+000
0.000000e+000
0.000000e+000
0.000000e+000
0.000000e+000
0.000000e+000
0.000000e+000
0.000000e+000
0.000000e+000
0.000000e+000
0.000000e+000
0.000000e+000
0.000000e+000
0.000000e+000
0.000000e+000
3.562666e-009
2.933400e-009
2.413068e-009
2.386489e-009
2.091819e-009
2.831274e-010
-3.139671e-009
-6.276367e-009
-6.339267e-009
-2.048239e-009
4.752020e-009
9.859180e-009
9.556347e-009
3.451061e-009
-4.948100e-009
-1.055106e-008
-1.026849e-008
-5.084452e-009
1.066865e-009
4.653585e-009
5.169961e-009
4.725920e-009
5.217696e-009
6.100482e-009
5.116409e-009
1.128543e-009
-4.140316e-009
-7.506609e-009
-7.409473e-009
-5.295828e-009
-3.807640e-009
-3.868501e-009
-3.949531e-009
-2.205615e-009
1.143617e-009
3.982187e-009
4.709813e-009
3.966067e-009
3.674856e-009
4.682330e-009
5.867464e-009
5.691293e-009
4.166074e-009
2.824034e-009
2.825085e-009
3.614408e-009
3.751666e-009
2.779565e-009
1.761225e-009
1.873541e-009
2.902693e-009
3.550604e-009
3.117959e-009
2.390979e-009
2.607112e-009
3.835368e-009
4.844680e-009
4.630696e-009
3.657998e-009
3.230355e-009
3.774017e-009
4.211467e-009
3.253198e-009
1.025562e-009
-1.000270e-009
-1.726875e-009
-1.695391e-009
-2.322485e-009
-4.010434e-009
-5.435107e-009
-4.934206e-009
-2.410184e-009
4.690325e-010
2.006828e-009
2.152817e-009
2.233812e-009
3.132516e-009
4.067113e-009
3.393234e-009
5.429731e-010
-3.042188e-009
-5.018405e-009
-4.169297e-009
-1.368675e-009
1.333018e-009
2.466379e-009
2.081480e-009
1.210518e-009
6.438842e-010
2.867661e-010
-4.016291e-010
-1.499165e-009
-2.261235e-009
-1.736867e-009
1.968696e-010
2.407623e-009
3.227502e-009
1.818293e-009
-9.910703e-010
-3.210293e-009
1.315798e-009
7.105282e-011
-1.230274e-009
-1.346303e-009
-1.424378e-010
1.313621e-009
1.748094e-009
7.944916e-010
-7.522866e-010
-1.667364e-009
-1.315449e-009
-1.198484e-010
8.537731e-010
8.414202e-010
7.252031e-011
-4.294940e-010
1.390199e-010
1.426978e-009
2.076997e-009
1.010187e-009
-1.345519e-009
-3.241932e-009
-3.212215e-009
-1.505230e-009
2.116413e-010
6.314148e-010
1.398513e-010
2.117081e-010
1.565764e-009
3.221388e-009
3.570228e-009
2.217170e-009
4.317487e-010
-3.087466e-010
4.872206e-011
2.325078e-010
-7.121592e-010
-2.251873e-009
-3.041945e-009
-2.560448e-009
-1.689913e-009
-1.589765e-009
-2.302496e-009
-2.798246e-009
-2.330182e-009
-1.370064e-009
-9.851370e-010
-1.495156e-009
-2.112662e-009
-1.982211e-009
-1.268024e-009
-9.177988e-010
-1.434090e-009
-2.231260e-009
-2.385469e-009
-1.806648e-009
-1.336234e-009
-1.650126e-009
-2.365344e-009
-2.490854e-009
-1.662652e-009
-6.085048e-010
-2.489750e-010
-5.513906e-010
-5.724768e-010
3.453299e-010
1.693390e-009
2.326848e-009
1.780479e-009
7.899484e-010
4.004041e-010
7.398794e-010
9.181964e-010
1.535627e-010
-1.219702e-009
-2.044025e-009
-1.584989e-009
-3.112046e-010
6.308592e-010
6.056146e-010
3.146611e-011
-2.222675e-010
1.780704e-010
7.361423e-010
7.459760e-010
7.728603e-011
-6.963023e-010
-8.860181e-010
-3.479316e-010
4.124665e-010
7.270696e-010
3.556073e-010
-3.333707e-010
-7.088462e-010
-4.311494e-010
2.565187e-010
7.425589e-010
5.863881e-010
-8.541331e-011
-6.846117e-010
-2.897804e-010
-1.874168e-009
-3.859034e-009
-4.559062e-009
-2.821785e-009
1.108481e-009
5.415336e-009
7.508076e-009
5.569121e-009
-6.493162e-012
-6.397224e-009
-9.863834e-009
-8.166762e-009
-2.138363e-009
4.874280e-009
9.292199e-009
9.488564e-009
6.261504e-009
1.604536e-009
-2.817788e-009
-6.213166e-009
-8.235708e-009
-8.533913e-009
-6.895856e-009
-3.668638e-009
2.231950e-010
3.774065e-009
6.377154e-009
7.843681e-009
8.131462e-009
7.243883e-009
5.395772e-009
3.090810e-009
8.598991e-010
-1.086515e-009
-2.856937e-009
-4.516359e-009
-5.829973e-009
-6.461819e-009
-6.388414e-009
-5.988807e-009
-5.666606e-009
-5.454174e-009
-5.081796e-009
-4.414770e-009
-3.701403e-009
-3.317709e-009
-3.331757e-009
-3.437317e-009
-3.341108e-009
-3.121352e-009
-3.117381e-009
-3.498209e-009
-4.049901e-009
-4.435102e-009
-4.586096e-009
-4.738161e-009
-5.072047e-009
-5.421841e-009
-5.412495e-009
-4.852205e-009
-3.899869e-009
-2.823884e-009
-1.675911e-009
-2.884442e-010
1.414932e-009
3.189809e-009
4.594532e-009
5.301565e-009
5.237858e-009
4.460084e-009
3.013385e-009
9.959532e-010
-1.276424e-009
-3.278861e-009
-4.512558e-009
-4.723245e-009
-3.897298e-009
-2.148595e-009
2.476792e-010
2.682081e-009
4.234430e-009
4.126190e-009
2.329433e-009
-2.568797e-010
-2.335249e-009
-3.043290e-009
-2.392917e-009
-1.018977e-009
3.982803e-010
1.462369e-009
1.972247e-009
1.746433e-009
7.128133e-010
-8.099611e-010
-2.050929e-009
-2.193835e-009
-1.004719e-009
8.684051e-010
2.253614e-009
-6.953079e-011
-5.717685e-010
-1.694425e-009
-3.038945e-009
-3.369077e-009
-1.405966e-009
2.679174e-009
6.572135e-009
7.076337e-009
2.733903e-009
-4.384396e-009
-9.633783e-009
-9.153719e-009
-2.983484e-009
4.797595e-009
9.175224e-009
7.962447e-009
3.060574e-009
-1.645214e-009
-3.625278e-009
-3.269710e-009
-2.608580e-009
-2.855202e-009
-3.305699e-009
-2.467421e-009
3.658783e-011
2.869627e-009
4.236187e-009
3.579312e-009
1.961623e-009
8.564519e-010
7.188797e-010
7.958123e-010
2.043371e-010
-1.016324e-009
-2.001647e-009
-2.073435e-009
-1.458078e-009
-9.444203e-010
-9.670295e-010
-1.199485e-009
-1.061617e-009
-4.600722e-010
1.254114e-010
2.505441e-010
2.229431e-011
-9.104620e-011
1.328572e-010
4.235476e-010
4.107863e-010
1.189486e-010
-7.720738e-011
3.953629e-011
2.309310e-010
1.085384e-010
-3.528444e-010
-7.656470e-010
-8.208769e-010
-6.902552e-010
-8.036710e-010
-1.261711e-009
-1.634642e-009
-1.442474e-009
-7.497775e-010
-1.224534e-010
4.736836e-011
4.174646e-011
4.921272e-010
1.554262e-009
2.555113e-009
2.597764e-009
1.507921e-009
5.996804e-011
-8.123225e-010
-9.688025e-010
-1.105389e-009
-1.807072e-009
-2.667718e-009
-2.531666e-009
-7.201416e-010
2.015239e-009
3.889545e-009
3.565352e-009
1.323927e-009
-1.198062e-009
-2.432902e-009
-2.091823e-009
-1.077913e-009
-3.574281e-010
-3.473983e-011
4.588327e-010
1.393579e-009
2.144988e-009
1.703871e-009
-1.790679e-010
-2.415683e-009
-3.280935e-009
-1.870005e-009
9.904603e-010
3.258783e-009
-9.190385e-010
1.321351e-009
3.407440e-009
2.863699e-009
-4.067448e-010
-3.848251e-009
-4.485268e-009
-1.638605e-009
2.394707e-009
4.366626e-009
2.961112e-009
-1.391274e-010
-1.989850e-009
-1.256046e-009
5.606063e-010
7.534627e-010
-1.676419e-009
-4.731094e-009
-5.141503e-009
-1.535246e-009
4.037046e-009
7.779025e-009
7.460176e-009
4.169031e-009
8.859477e-010
-5.428278e-010
-9.054294e-010
-2.195968e-009
-4.997990e-009
-7.612221e-009
-7.841874e-009
-5.380841e-009
-2.132382e-009
-1.653309e-010
3.430572e-010
9.169599e-010
2.726640e-009
5.141710e-009
6.518684e-009
6.160171e-009
5.072313e-009
4.696852e-009
5.241230e-009
5.614776e-009
4.932848e-009
3.656311e-009
2.988114e-009
3.367028e-009
3.979719e-009
3.860395e-009
3.132940e-009
2.817362e-009
3.485274e-009
4.507686e-009
4.852861e-009
4.395258e-009
4.044804e-009
4.521170e-009
5.342100e-009
5.342749e-009
4.103747e-009
2.489654e-009
1.587657e-009
1.346415e-009
6.328408e-010
-1.301249e-009
-3.712884e-009
-5.014865e-009
-4.477682e-009
-2.998760e-009
-2.024021e-009
-1.878521e-009
-1.467198e-009
2.846489e-010
2.912401e-009
4.601777e-009
3.962353e-009
1.484751e-009
-8.872376e-010
-1.611145e-009
-8.873515e-010
-1.677902e-010
-4.744775e-010
-1.350103e-009
-1.485801e-009
-2.655423e-010
1.448820e-009
2.114797e-009
1.058773e-009
-8.013817e-010
-1.787729e-009
-1.036532e-009
6.983868e-010
1.762217e-009
1.141904e-009
-6.058886e-010
-1.879169e-009
-1.500608e-009
2.150430e-010
1.750193e-009
-5.575363e-009
-5.236022e-010
5.612672e-009
7.949884e-009
4.411791e-009
-2.728026e-009
-8.580146e-009
-9.214662e-009
-4.341152e-009
2.788819e-009
7.922723e-009
8.671696e-009
5.577962e-009
9.315464e-010
-3.250953e-009
-6.216152e-009
-7.857433e-009
-7.656115e-009
-4.737972e-009
8.097717e-010
6.931779e-009
1.048588e-008
9.627028e-009
5.425508e-009
9.080736e-010
-1.689906e-009
-2.685288e-009
-3.917276e-009
-6.166402e-009
-7.998106e-009
-7.371365e-009
-4.132795e-009
-4.423222e-010
1.433564e-009
1.433787e-009
1.461397e-009
2.941812e-009
5.106532e-009
5.992629e-009
4.859941e-009
3.073403e-009
2.441752e-009
3.111150e-009
3.574850e-009
2.683928e-009
1.099259e-009
4.149687e-010
1.136936e-009
2.087097e-009
1.939590e-009
8.965398e-010
3.860005e-010
1.211364e-009
2.532631e-009
2.960953e-009
2.340344e-009
1.928649e-009
2.745860e-009
4.197940e-009
4.739910e-009
3.760624e-009
2.319851e-009
1.798587e-009
2.137853e-009
1.871727e-009
-4.892929e-011
-2.855722e-009
-4.696173e-009
-4.634514e-009
-3.547157e-009
-2.897156e-009
-2.907495e-009
-2.327329e-009
-5.831799e-011
3.280545e-009
5.676098e-009
5.587075e-009
3.322225e-009
5.486053e-010
-1.360805e-009
-2.307795e-009
-2.909599e-009
-3.310806e-009
-2.852139e-009
-9.570991e-010
1.834870e-009
3.926937e-009
3.879338e-009
1.647626e-009
-1.306749e-009
-3.117118e-009
-2.855731e-009
-1.049002e-009
9.145825e-010
1.869535e-009
1.575263e-009
6.129102e-010
-2.601637e-010
-6.846732e-010
-7.773044e-010
-1.058055e-008
-5.504537e-009
1.680439e-009
6.776289e-009
6.842898e-009
2.002735e-009
-4.553469e-009
-8.491723e-009
-7.122687e-009
-1.255039e-009
5.288031e-009
8.329917e-009
6.284475e-009
1.092914e-009
-3.563252e-009
-5.163044e-009
-3.848832e-009
-1.492145e-009
3.400869e-010
1.370691e-009
1.914101e-009
1.846715e-009
7.318731e-010
-1.162133e-009
-2.544343e-009
-2.230572e-009
-4.869051e-010
1.156892e-009
1.584537e-009
1.298073e-009
1.636524e-009
2.920402e-009
3.848023e-009
2.995406e-009
6.331975e-010
-1.424603e-009
-1.854088e-009
-1.297083e-009
-1.469468e-009
-2.992733e-009
-4.619463e-009
-4.792902e-009
-3.581764e-009
-2.584222e-009
-2.950285e-009
-4.012975e-009
-4.216470e-009
-3.126630e-009
-1.978228e-009
-2.102499e-009
-3.258799e-009
-3.975346e-009
-3.428753e-009
-2.457096e-009
-2.439682e-009
-3.497790e-009
-4.309582e-009
-3.759921e-009
-2.324444e-009
-1.446829e-009
-1.712671e-009
-2.122360e-009
-1.362385e-009
5.233325e-010
2.127270e-009
2.314029e-009
1.476736e-009
9.285292e-010
1.258718e-009
1.686383e-009
1.134499e-009
-3.593089e-010
-1.605362e-009
-1.577609e-009
-4.798571e-010
6.131072e-010
9.602148e-010
7.378609e-010
4.704511e-010
2.207267e-010
-3.821375e-010
-1.386411e-009
-2.107112e-009
-1.694981e-009
-8.691852e-011
1.757735e-009
2.633832e-009
2.076729e-009
6.038683e-010
-8.777554e-010
-1.769281e-009
-1.943471e-009
-1.466253e-009
-4.144087e-010
9.643478e-010
2.068887e-009
2.170094e-009
9.961748e-010
-8.705583e-010
-2.266575e-009
-7.522748e-009
-6.931115e-009
-4.866623e-009
-9.461949e-010
3.493137e-009
5.878678e-009
4.493679e-009
2.798620e-010
-3.606332e-009
-4.407692e-009
-2.191966e-009
3.613690e-010
7.492566e-010
-7.633062e-010
-1.479987e-009
7.191492e-010
4.831151e-009
7.384582e-009
5.687349e-009
3.514426e-010
-5.367814e-009
-8.491601e-009
-8.422519e-009
-6.451145e-009
-3.841906e-009
-8.597350e-010
2.538148e-009
5.749301e-009
7.738966e-009
8.054756e-009
7.191166e-009
5.825414e-009
4.022534e-009
1.506713e-009
-1.442052e-009
-3.834008e-009
-4.931695e-009
-5.109066e-009
-5.394084e-009
-6.172984e-009
-6.700817e-009
-6.096920e-009
-4.586332e-009
-3.373564e-009
-3.252209e-009
-3.687838e-009
-3.543652e-009
-2.542523e-009
-1.622315e-009
-1.747241e-009
-2.694155e-009
-3.348178e-009
-3.113680e-009
-2.642723e-009
-2.973574e-009
-4.190382e-009
-5.291709e-009
-5.399643e-009
-4.766358e-009
-4.343259e-009
-4.511686e-009
-4.584179e-009
-3.653912e-009
-1.683920e-009
4.865944e-010
2.117370e-009
3.242912e-009
4.277434e-009
5.196235e-009
5.408437e-009
4.443830e-009
2.518397e-009
2.886938e-010
-1.773300e-009
-3.510789e-009
-4.642855e-009
-4.567884e-009
-2.927013e-009
-3.171875e-010
1.876436e-009
2.590446e-009
1.988110e-009
1.124398e-009
7.367656e-010
5.525410e-010
-1.122068e-010
-1.237799e-009
-1.879464e-009
-1.193272e-009
4.501328e-010
1.616215e-009
1.192892e-009
-4.227821e-010
-1.632713e-009
-1.191446e-009
5.437962e-010
1.924238e-009
1.587231e-009
-2.289036e-010
-1.890633e-009
7.026649e-009
5.330303e-010
-7.064422e-009
-9.397925e-009
-4.324555e-009
4.373097e-009
1.017102e-008
9.109240e-009
2.661380e-009
-4.123146e-009
-7.164167e-009
-6.240791e-009
-3.851571e-009
-1.861471e-009
2.052563e-010
3.561789e-009
7.489278e-009
9.067071e-009
5.945714e-009
-8.203944e-010
-7.134871e-009
-9.257348e-009
-6.827918e-009
-2.603093e-009
4.744508e-010
1.675186e-009
2.186175e-009
3.063812e-009
3.970926e-009
3.851169e-009
2.355432e-009
2.691625e-010
-1.332923e-009
-2.026126e-009
-2.085755e-009
-1.899906e-009
-1.596659e-009
-1.172448e-009
-6.909245e-010
-2.072400e-010
3.646175e-010
1.115045e-009
1.884056e-009
2.319637e-009
2.276213e-009
2.046355e-009
2.059951e-009
2.378963e-009
2.630383e-009
2.486566e-009
2.092381e-009
1.891481e-009
2.068323e-009
2.310514e-009
2.181061e-009
1.621900e-009
9.755295e-010
5.468929e-010
2.817580e-010
-7.675859e-011
-6.256179e-010
-1.205554e-009
-1.612395e-009
-1.755405e-009
-1.575886e-009
-9.669666e-010
6.502523e-011
1.202652e-009
1.974868e-009
2.204336e-009
2.167157e-009
2.138078e-009
1.834046e-009
5.879017e-010
-1.725696e-009
-4.057609e-009
-4.801851e-009
-3.252905e-009
-3.842801e-010
1.988038e-009
2.836798e-009
2.608047e-009
2.279942e-009
1.991144e-009
9.277301e-010
-1.356402e-009
-3.794146e-009
-4.385367e-009
-2.136500e-009
1.647401e-009
4.216792e-009
3.709178e-009
7.555794e-010
-2.150469e-009
-2.872800e-009
-1.351859e-009
6.550502e-010
1.372601e-009
5.706266e-010
-4.861671e-010
2.340163e-008
1.254336e-008
-2.119021e-009
-1.143014e-008
-1.048466e-008
-1.753647e-009
7.289915e-009
1.009318e-008
5.721201e-009
-1.332091e-009
-5.604579e-009
-5.142569e-009
-2.140070e-009
1.451516e-010
6.002329e-010
4.515172e-010
9.215462e-010
1.493665e-009
8.147874e-010
-1.093982e-009
-2.250153e-009
-7.042239e-010
3.075822e-009
6.228251e-009
6.087157e-009
2.650740e-009
-1.604684e-009
-4.211679e-009
-4.803849e-009
-4.797015e-009
-5.362419e-009
-6.067629e-009
-5.533563e-009
-3.137500e-009
2.035838e-010
2.922292e-009
4.260983e-009
4.741927e-009
5.317723e-009
6.276319e-009
7.063914e-009
7.055374e-009
6.301749e-009
5.449550e-009
5.026786e-009
4.953275e-009
4.782937e-009
4.315205e-009
3.835569e-009
3.742482e-009
4.057056e-009
4.420060e-009
4.558107e-009
4.617776e-009
4.935755e-009
5.530256e-009
5.975454e-009
5.862747e-009
5.296312e-009
4.767745e-009
4.497170e-009
4.042902e-009
2.744455e-009
5.678518e-010
-1.654304e-009
-2.974490e-009
-3.281538e-009
-3.328485e-009
-3.731452e-009
-4.086716e-009
-3.327599e-009
-1.043091e-009
1.727853e-009
3.255954e-009
2.746808e-009
1.096422e-009
-6.988887e-011
-3.581721e-011
4.762357e-010
3.965057e-010
-3.177519e-010
-6.572395e-010
9.250937e-011
1.259451e-009
1.336036e-009
-3.240689e-010
-2.543589e-009
-3.264084e-009
-1.526276e-009
1.512180e-009
3.549133e-009
3.135663e-009
8.075763e-010
-1.570716e-009
-2.451016e-009
-1.692199e-009
-3.107030e-010
6.072912e-010
7.513690e-010
5.622800e-010
2.437666e-008
1.672737e-008
5.142172e-009
-4.851329e-009
-8.945067e-009
-6.572932e-009
-1.077743e-009
2.928322e-009
3.116744e-009
9.253196e-010
-3.474607e-010
1.002257e-009
3.433930e-009
3.857132e-009
8.390838e-010
-3.933420e-009
-7.244242e-009
-7.152729e-009
-4.198032e-009
-2.088087e-010
3.517160e-009
6.627825e-009
8.728397e-009
8.740925e-009
5.766685e-009
5.116572e-010
-4.626225e-009
-7.298441e-009
-7.104515e-009
-5.632920e-009
-4.596077e-009
-4.093935e-009
-2.863547e-009
-1.162855e-010
3.214705e-009
5.277191e-009
5.233534e-009
4.103004e-009
3.558171e-009
4.079163e-009
4.576886e-009
3.846823e-009
2.082395e-009
6.678856e-010
5.580829e-010
1.218726e-009
1.368642e-009
5.624413e-010
-3.280267e-010
-2.704886e-010
6.200171e-010
1.254822e-009
9.780546e-010
4.141950e-010
6.805542e-010
1.952895e-009
3.195174e-009
3.412889e-009
2.874433e-009
2.759650e-009
3.635904e-009
4.633124e-009
4.366336e-009
2.532633e-009
2.763599e-010
-1.113317e-009
-1.613030e-009
-2.304007e-009
-3.844794e-009
-5.415855e-009
-5.425431e-009
-3.210641e-009
1.746015e-010
2.929100e-009
4.100773e-009
4.081473e-009
3.652170e-009
2.892774e-009
1.288057e-009
-1.188987e-009
-3.457032e-009
-4.070977e-009
-2.606123e-009
-1.629518e-010
1.585286e-009
1.812912e-009
1.014464e-009
2.202197e-010
-4.859001e-011
-1.187869e-011
-4.889612e-011
-1.727053e-010
-1.566558e-010
1.282225e-011
5.317226e-011
-2.057936e-010
-5.024346e-010
-3.982905e-010
1.647055e-010
7.090447e-010
2.373772e-009
5.104570e-009
7.258186e-009
5.613662e-009
3.375045e-010
-5.116087e-009
-7.230918e-009
-5.393258e-009
-1.780048e-009
1.230012e-009
3.080985e-009
4.509535e-009
5.579473e-009
4.964207e-009
1.502211e-009
-3.795278e-009
-7.818075e-009
-7.801562e-009
-3.771079e-009
1.479711e-009
4.796325e-009
5.019451e-009
3.183011e-009
8.920933e-010
-1.058332e-009
-2.539911e-009
-3.203055e-009
-2.392595e-009
-7.846778e-011
2.567416e-009
4.016788e-009
3.865584e-009
3.156236e-009
3.027789e-009
3.269127e-009
2.592318e-009
3.721057e-010
-2.296465e-009
-3.647715e-009
-3.240573e-009
-2.467790e-009
-2.879461e-009
-4.312532e-009
-5.117885e-009
-4.225534e-009
-2.507294e-009
-1.748202e-009
-2.502448e-009
-3.494374e-009
-3.287042e-009
-2.105452e-009
-1.528752e-009
-2.461785e-009
-3.955464e-009
-4.357854e-009
-3.339049e-009
-2.250714e-009
-2.388558e-009
-3.343254e-009
-3.483591e-009
-1.947825e-009
3.153039e-010
1.683092e-009
1.717792e-009
1.489864e-009
2.074713e-009
3.146470e-009
3.366263e-009
2.014207e-009
-1.291839e-010
-1.620480e-009
-1.799433e-009
-1.161104e-009
-4.395349e-010
2.659060e-010
1.243054e-009
2.289978e-009
2.523434e-009
1.265978e-009
-1.029080e-009
-2.980740e-009
-3.456206e-009
-2.442347e-009
-7.564584e-010
8.758468e-010
2.218622e-009
3.083346e-009
2.909143e-009
1.209745e-009
-1.497464e-009
-3.548180e-009
-3.350188e-009
-9.358261e-010
1.825262e-009
2.799399e-009
1.507112e-009
-5.310370e-010
-1.382849e-009
-5.969267e-010
5.331277e-010
-2.874785e-008
-1.519565e-008
2.340862e-009
1.241303e-008
1.040701e-008
1.027768e-009
-6.883231e-009
-7.943413e-009
-3.537804e-009
1.180207e-009
2.710303e-009
1.668289e-009
7.107795e-010
1.061591e-009
1.582886e-009
8.943031e-010
-4.766402e-010
-6.514566e-010
1.059061e-009
2.825596e-009
1.988734e-009
-1.990360e-009
-6.623960e-009
-8.592647e-009
-6.683334e-009
-2.448684e-009
1.738062e-009
4.779402e-009
6.936442e-009
8.421152e-009
8.663077e-009
7.148806e-009
4.460014e-009
1.900092e-009
1.133272e-010
-1.435964e-009
-3.376237e-009
-5.207360e-009
-5.701177e-009
-4.524499e-009
-2.922865e-009
-2.388292e-009
-2.882440e-009
-2.916044e-009
-1.492957e-009
5.115292e-010
1.341882e-009
5.270132e-010
-5.242470e-010
-2.881450e-010
9.595755e-010
1.499662e-009
3.426080e-010
-1.527019e-009
-2.381998e-009
-1.873020e-009
-1.375297e-009
-2.185819e-009
-3.877361e-009
-4.822608e-009
-4.128867e-009
-2.545360e-009
-1.341032e-009
-7.178040e-010
2.436221e-010
2.184950e-009
4.495509e-009
5.937241e-009
5.945146e-009
4.952219e-009
3.527767e-009
1.675070e-009
-7.383755e-010
-3.129359e-009
-4.298516e-009
-3.587342e-009
-1.698952e-009
-7.650441e-011
5.040779e-010
4.812192e-010
6.178742e-010
8.897958e-010
6.115216e-010
-3.732672e-010
-1.070807e-009
-3.159742e-010
1.643753e-009
2.935584e-009
1.808903e-009
-1.356597e-009
-4.031348e-009
-3.789002e-009
-6.773421e-010
2.712406e-009
3.627528e-009
1.665576e-009
-1.028029e-009
-1.985658e-009
-7.826974e-010
7.887943e-010
-4.243561e-008
-2.606501e-008
-3.806613e-009
1.128399e-008
1.295913e-008
5.176239e-009
-2.712945e-009
-4.277617e-009
-5.370163e-010
2.670160e-009
1.181970e-009
-3.588554e-009
-6.689454e-009
-4.887857e-009
4.021103e-010
5.094340e-009
6.595115e-009
5.568701e-009
3.950221e-009
2.192527e-009
-7.963927e-010
-5.221367e-009
-8.869609e-009
-8.767927e-009
-4.326080e-009
1.702776e-009
5.668507e-009
6.208239e-009
4.800028e-009
3.496210e-009
2.752376e-009
1.687001e-009
-9.924177e-011
-1.722684e-009
-2.122483e-009
-1.374895e-009
-4.301427e-010
2.277045e-010
1.068818e-009
2.533766e-009
4.080111e-009
4.717205e-009
4.349155e-009
4.014134e-009
4.556436e-009
5.461702e-009
5.485257e-009
4.337527e-009
3.206640e-009
3.350698e-009
4.525594e-009
5.279115e-009
4.750790e-009
3.684803e-009
3.401416e-009
4.096147e-009
4.630779e-009
3.991240e-009
2.482723e-009
1.207815e-009
6.602811e-010
3.054882e-010
-4.387448e-010
-1.274344e-009
-1.397571e-009
-5.712105e-010
6.159183e-010
1.591708e-009
2.464653e-009
3.516365e-009
4.270306e-009
3.623484e-009
1.147071e-009
-2.039190e-009
-4.088029e-009
-4.137332e-009
-2.930486e-009
-1.659346e-009
-5.392689e-010
1.070778e-009
3.207828e-009
4.521130e-009
3.450326e-009
1.813628e-010
-2.993688e-009
-3.638973e-009
-1.528414e-009
1.126305e-009
1.874872e-009
3.855778e-010
-1.428710e-009
-1.520096e-009
2.133800e-010
1.954832e-009
1.918060e-009
1.413897e-010
-1.631516e-009
-1.736619e-009
-2.028545e-010
1.350625e-009
-2.355124e-008
-1.557817e-008
-4.378420e-009
3.850083e-009
5.751808e-009
2.916810e-009
3.560806e-011
5.187972e-010
3.421117e-009
4.622831e-009
1.269213e-009
-4.904819e-009
-8.862814e-009
-7.037817e-009
-7.824210e-010
4.993903e-009
6.467569e-009
3.988192e-009
7.599546e-010
-8.430111e-010
-1.072102e-009
-1.205665e-009
-1.202135e-009
2.003942e-010
3.203847e-009
5.715394e-009
5.114187e-009
1.128698e-009
-3.615550e-009
-6.116071e-009
-5.721854e-009
-4.107916e-009
-2.901153e-009
-1.968217e-009
-1.847547e-010
2.682988e-009
5.479041e-009
6.976249e-009
7.134643e-009
6.771207e-009
6.340901e-009
5.541641e-009
4.090976e-009
2.377698e-009
1.024343e-009
6.347438e-011
-1.012206e-009
-2.366070e-009
-3.383625e-009
-3.366944e-009
-2.439230e-009
-1.411938e-009
-7.762079e-010
-1.687772e-010
1.005840e-009
2.687959e-009
4.203841e-009
5.096957e-009
5.546424e-009
5.837935e-009
5.746031e-009
4.794656e-009
3.039722e-009
1.189955e-009
-2.032416e-010
-1.360879e-009
-2.736673e-009
-3.991463e-009
-4.000247e-009
-2.153731e-009
6.017515e-010
2.442036e-009
2.439860e-009
1.369911e-009
5.979166e-010
4.618446e-010
1.601336e-010
-7.887665e-010
-1.504580e-009
-6.329198e-010
1.792038e-009
3.846614e-009
3.434470e-009
4.627138e-010
-2.910879e-009
-4.251663e-009
-2.964484e-009
-4.814097e-010
1.364266e-009
1.887143e-009
1.597949e-009
1.164907e-009
6.913354e-010
-3.196608e-011
-9.144272e-010
-1.467022e-009
-1.278048e-009
-4.286505e-010
5.871955e-010
1.241292e-009
1.539418e-008
8.900335e-009
4.524427e-010
-4.854585e-009
-5.289470e-009
-2.735152e-009
1.353508e-010
2.181896e-009
3.462755e-009
3.693852e-009
2.142027e-009
-8.672785e-010
-3.262425e-009
-2.962462e-009
-3.408494e-010
1.712873e-009
6.910949e-010
-2.728990e-009
-5.194027e-009
-4.028224e-009
2.342046e-010
4.732346e-009
7.208970e-009
7.556235e-009
6.664573e-009
4.662205e-009
1.042471e-009
-3.670742e-009
-7.297073e-009
-7.683175e-009
-4.874056e-009
-1.126585e-009
1.342162e-009
2.285902e-009
2.947613e-009
4.027324e-009
4.662633e-009
3.495981e-009
3.109294e-010
-3.759023e-009
-7.502091e-009
-1.071357e-008
-1.394047e-008
-1.749109e-008
-2.100592e-008
-2.391115e-008
-2.597579e-008
-2.731661e-008
-2.805961e-008
-2.818567e-008
-2.763350e-008
-2.637288e-008
-2.437801e-008
-2.169165e-008
-1.856086e-008
-1.534503e-008
-1.216605e-008
-8.781356e-009
-5.024632e-009
-1.348798e-009
1.344204e-009
2.579059e-009
2.837025e-009
2.943150e-009
2.967437e-009
2.087552e-009
-2.342068e-010
-3.147283e-009
-4.871409e-009
-4.357317e-009
-2.251415e-009
-4.729586e-011
1.498097e-009
2.756847e-009
4.088371e-009
4.814843e-009
3.804823e-009
1.033895e-009
-1.880098e-009
-3.017298e-009
-1.960532e-009
-7.549315e-011
9.506947e-010
6.160083e-010
-3.511470e-010
-1.068557e-009
-1.237855e-009
-9.033012e-010
-1.522740e-011
1.344189e-009
2.454766e-009
2.235307e-009
3.907414e-010
-1.880944e-009
-2.756923e-009
-1.566393e-009
4.634537e-010
1.453585e-009
8.219172e-010
-2.302732e-010
4.377437e-008
2.642642e-008
3.696998e-009
-1.057980e-008
-1.140822e-008
-4.491415e-009
1.110743e-009
1.376014e-009
-9.835613e-010
-1.465914e-009
1.046580e-009
4.020757e-009
4.827900e-009
3.329542e-009
1.008313e-009
-1.281810e-009
-3.741251e-009
-6.077351e-009
-6.653576e-009
-3.965279e-009
1.228412e-009
5.926003e-009
7.364195e-009
5.317076e-009
1.839303e-009
-9.153571e-010
-2.207880e-009
-2.260961e-009
-1.119010e-009
1.372383e-009
4.584726e-009
6.818161e-009
6.502785e-009
3.592008e-009
-5.863693e-010
-4.915669e-009
-9.651802e-009
-1.584568e-008
-2.382428e-008
-3.257926e-008
-4.071951e-008
-4.778912e-008
-5.444495e-008
-6.140914e-008
-6.846042e-008
-7.453510e-008
-7.871098e-008
-8.097209e-008
-8.201281e-008
-8.237160e-008
-8.180815e-008
-7.954184e-008
-7.510953e-008
-6.897470e-008
-6.222366e-008
-5.559934e-008
-4.888148e-008
-4.134607e-008
-3.286371e-008
-2.438425e-008
-1.716029e-008
-1.153838e-008
-6.756165e-009
-2.057170e-009
2.178350e-009
4.691880e-009
4.758390e-009
3.098851e-009
1.228879e-009
6.929183e-011
-5.250027e-010
-9.161306e-010
-8.119983e-010
3.817237e-010
2.447844e-009
4.048767e-009
3.826136e-009
1.718177e-009
-1.006649e-009
-2.951261e-009
-3.583296e-009
-3.073267e-009
-1.627559e-009
5.305725e-010
2.594507e-009
3.229552e-009
1.767174e-009
-7.073308e-010
-2.006334e-009
-9.851468e-010
1.093540e-009
1.752573e-009
1.266164e-011
-2.360363e-009
-2.655409e-009
-2.411400e-010
2.554173e-009
2.836235e-009
2.872620e-010
-2.410707e-009
4.038077e-008
2.244853e-008
4.108029e-011
-1.175732e-008
-8.699016e-009
8.550949e-010
5.445468e-009
1.301688e-009
-5.720527e-009
-7.560240e-009
-2.230749e-009
5.125424e-009
8.206264e-009
5.514504e-009
5.721606e-010
-2.537661e-009
-2.812690e-009
-1.827258e-009
-9.362170e-010
-1.647259e-011
1.243495e-009
1.941671e-009
6.950368e-010
-2.365168e-009
-5.023027e-009
-4.804537e-009
-1.254730e-009
3.761736e-009
7.806177e-009
9.563882e-009
8.901302e-009
5.863237e-009
2.072550e-010
-8.072402e-009
-1.827976e-008
-2.951169e-008
-4.157610e-008
-5.510093e-008
-7.058798e-008
-8.753455e-008
-1.047142e-007
-1.212973e-007
-1.374454e-007
-1.536250e-007
-1.694237e-007
-1.832931e-007
-1.936129e-007
-1.999430e-007
-2.030688e-007
-2.037775e-007
-2.017440e-007
-1.958143e-007
-1.854061e-007
-1.714570e-007
-1.558242e-007
-1.397792e-007
-1.232754e-007
-1.057700e-007
-8.757615e-008
-7.011652e-008
-5.477271e-008
-4.170390e-008
-3.003131e-008
-1.913043e-008
-9.470364e-009
-2.065184e-009
2.671376e-009
5.230527e-009
6.230997e-009
5.743835e-009
3.686967e-009
7.181639e-010
-1.720310e-009
-2.484773e-009
-1.700607e-009
-4.449679e-010
4.275568e-010
8.526459e-010
9.726674e-010
4.843930e-010
-9.196734e-010
-2.526521e-009
-2.662883e-009
-3.591867e-010
3.100417e-009
4.857532e-009
3.163591e-009
-6.719600e-010
-3.370461e-009
-2.891828e-009
-3.980847e-010
1.164538e-009
3.239779e-010
-1.402945e-009
-1.395157e-009
9.236197e-010
3.234989e-009
2.797464e-009
-4.432486e-010
-3.555701e-009
1.186886e-008
2.648786e-009
-7.170927e-009
-8.620929e-009
-8.805167e-010
8.190338e-009
9.817971e-009
2.647459e-009
-6.410506e-009
-9.262417e-009
-4.316217e-009
2.725755e-009
5.156455e-009
1.804889e-009
-2.631101e-009
-3.051096e-009
9.656358e-010
5.457350e-009
6.581966e-009
4.067130e-009
4.043727e-010
-2.320233e-009
-3.963459e-009
-5.000364e-009
-4.808195e-009
-2.148594e-009