# vtk DataFile Version 3.0
vtk output
ASCII
DATASET STRUCTURED_POINTS
DIMENSIONS 100 100 1
SPACING 1 1 1
ORIGIN 0 0 0
POINT_DATA 10000
SCALARS SFBox_profile double
LOOKUP_TABLE default 
0.000000e+000
0.000000e+000
0.000000e+000
0.000000e+000
0.000000e+000
0.000000e+000
0.000000e+000
0.000000e+000
0.000000e+000
0.000000e+000
0.000000e+000
0.000000e+000
0.000000e+000
0.000000e+000
0.000000e+000
0.000000e+000
0.000000e+000
0.000000e+000
0.000000e+000
0.000000e+000
0.000000e+000
0.000000e+000
0.000000e+000
0.000000e+000
0.000000e+000
0.000000e+000
0.000000e+000
0.000000e+000
0.000000e+000
0.000000e+000
0.000000e+000
0.000000e+000
0.000000e+000
0.000000e+000
0.000000e+000
0.000000e+000
0.000000e+000
0.000000e+000
0.000000e+000
0.000000e+000
0.000000e+000
0.000000e+000
0.000000e+000
0.000000e+000
0.000000e+000
0.000000e+000
0.000000e+000
0.000000e+000
0.000000e+000
0.000000e+000
0.000000e+000
0.000000e+000
0.000000e+000
0.000000e+000
0.000000e+000
0.000000e+000
0.000000e+000
0.000000e+000
0.000000e+000
0.000000e+000
0.000000e+000
0.000000e+000
0.000000e+000
0.000000e+000
0.000000e+000
0.000000e+000
0.000000e+000
0.000000e+000
0.000000e+000
0.000000e+000
0.000000e+000
0.000000e+000
0.000000e+000
0.000000e+000
0.000000e+000
0.000000e+000
0.000000e+000
0.000000e+000
0.000000e+000
0.000000e+000
0.000000e+000
0.000000e+000
0.000000e+000
0.000000e+000
0.000000e+000
0.000000e+000
0.000000e+000
0.000000e+000
0.000000e+000
0.000000e+000
0.000000e+000
0.000000e+000
0.000000e+000
0.000000e+000
0.000000e+000
0.000000e+000
0.000000e+000
0.000000e+000
0.000000e+000
0.000000e+000
-2.225300e-007
-1.499402e-007
-4.153981e-008
5.055139e-008
8.833945e-008
6.726057e-008
1.413794e-008
-3.320729e-008
-4.996676e-008
-3.609488e-008
-9.869333e-009
9.271578e-009
1.445200e-008
1.213626e-008
1.195645e-008
1.614607e-008
1.800003e-008
9.747010e-009
-8.338509e-009
-2.642563e-008
-3.272394e-008
-2.327585e-008
-5.117280e-009
9.897503e-009
1.486434e-008
1.240508e-008
1.034553e-008
1.317946e-008
1.774938e-008
1.711213e-008
8.288726e-009
-4.222354e-009
-1.277045e-008
-1.408719e-008
-1.206835e-008
-1.298532e-008
-1.846127e-008
-2.387226e-008
-2.375870e-008
-1.805964e-008
-1.217734e-008
-1.093254e-008
-1.337227e-008
-1.428874e-008
-1.051951e-008
-4.647530e-009
-1.886763e-009
-3.954093e-009
-7.181708e-009
-7.017613e-009
-3.489995e-009
-1.133057e-009
-3.508732e-009
-8.887800e-009
-1.224624e-008
-1.119758e-008
-8.792308e-009
-9.828059e-009
-1.501063e-008
-1.987378e-008
-1.978442e-008
-1.520954e-008
-1.108940e-008
-1.101557e-008
-1.295739e-008
-1.152089e-008
-4.225630e-009
5.330380e-009
1.104619e-008
1.067591e-008
7.903148e-009
7.852912e-009
1.104007e-008
1.248626e-008
7.111823e-009
-4.289900e-009
-1.487834e-008
-1.773810e-008
-1.202945e-008
-3.265784e-009
2.301090e-009
3.370663e-009
3.739094e-009
7.079029e-009
1.197340e-008
1.253936e-008
4.373095e-009
-9.862329e-009
-2.090935e-008
-1.976638e-008
-5.379312e-009
1.344193e-008
2.388836e-008
1.848033e-008
7.285045e-010
-1.718275e-008
-2.297421e-008
-1.286389e-008
5.903083e-009
2.021568e-008
-4.608173e-008
-2.932367e-008
-5.071000e-009
1.377322e-008
1.845476e-008
9.429521e-009
-4.578362e-009
-1.289257e-008
-1.021444e-008
2.004070e-010
9.687218e-009
1.106976e-008
3.937993e-009
-5.639151e-009
-1.038010e-008
-7.532016e-009
-4.681844e-010
4.812426e-009
4.962112e-009
1.727324e-009
-3.560240e-010
1.347987e-009
4.952256e-009
5.957262e-009
1.850583e-009
-5.103293e-009
-9.736522e-009
-8.808133e-009
-4.023630e-009
-1.522749e-010
-1.166624e-010
-2.138016e-009
-1.940175e-009
2.369599e-009
8.068960e-009
1.071440e-008
8.968967e-009
5.974069e-009
5.729725e-009
8.596368e-009
1.103193e-008
9.811954e-009
5.815757e-009
2.997090e-009
3.794919e-009
6.387175e-009
6.977035e-009
4.348415e-009
1.281117e-009
1.193624e-009
4.062668e-009
6.487737e-009
5.785295e-009
3.191321e-009
2.349116e-009
4.908612e-009
8.498037e-009
9.479377e-009
7.204178e-009
4.724170e-009
5.128160e-009
7.836073e-009
9.207470e-009
6.750567e-009
2.033539e-009
-1.056730e-009
-6.760999e-010
9.979977e-010
3.909138e-010
-3.261937e-009
-6.878100e-009
-6.805036e-009
-2.773770e-009
1.767210e-009
3.216038e-009
1.395211e-009
-5.984480e-010
6.276789e-011
2.857711e-009
4.501866e-009
2.486199e-009
-2.136670e-009
-5.546015e-009
-4.715036e-009
-2.655409e-010
4.058472e-009
4.712694e-009
1.380083e-009
-2.923848e-009
-4.558758e-009
-2.286824e-009
1.898163e-009
4.592090e-009
3.733585e-009
6.348116e-011
-3.644834e-009
-4.739737e-009
-2.533924e-009
1.371388e-009
4.297708e-009
1.640451e-007
1.127155e-007
3.524704e-008
-3.257161e-008
-6.413145e-008
-5.468592e-008
-2.007183e-008
1.586758e-008
3.569629e-008
3.553408e-008
2.229613e-008
5.567848e-009
-8.751907e-009
-1.914855e-008
-2.523909e-008
-2.526121e-008
-1.717438e-008
-1.900327e-009
1.522317e-008
2.694979e-008
2.873190e-008
2.138973e-008
9.652521e-009
-1.725164e-009
-1.061435e-008
-1.705414e-008
-2.115276e-008
-2.209586e-008
-1.915120e-008
-1.301902e-008
-5.631017e-009
1.404181e-009
7.808072e-009
1.395718e-008
1.955416e-008
2.345507e-008
2.489813e-008
2.450421e-008
2.366064e-008
2.297274e-008
2.171981e-008
1.903632e-008
1.534565e-008
1.219225e-008
1.059362e-008
9.924291e-009
8.751605e-009
6.651203e-009
4.795719e-009
4.588488e-009
6.001006e-009
7.630017e-009
8.383664e-009
8.733424e-009
1.003470e-008
1.278713e-008
1.595592e-008
1.812367e-008
1.901098e-008
1.952885e-008
2.038436e-008
2.100772e-008
2.009495e-008
1.704926e-008
1.256892e-008
7.767202e-009
3.014700e-009
-2.065709e-009
-7.540783e-009
-1.245042e-008
-1.534785e-008
-1.542750e-008
-1.291467e-008
-8.426607e-009
-2.349003e-009
4.824572e-009
1.164677e-008
1.571722e-008
1.504500e-008
9.634448e-009
1.678119e-009
-5.896970e-009
-1.108922e-008
-1.316635e-008
-1.180669e-008
-6.600054e-009
2.021154e-009
1.133855e-008
1.653698e-008
1.349626e-008
2.449030e-009
-1.079447e-008
-1.792007e-008
-1.382996e-008
-7.633202e-010
1.267208e-008
1.729826e-008
9.920426e-009
-4.239693e-009
-1.516372e-008
2.409237e-007
1.614388e-007
4.354887e-008
-5.516139e-008
-9.385576e-008
-6.931684e-008
-1.229268e-008
3.613358e-008
5.080730e-008
3.394776e-008
6.446510e-009
-1.143487e-008
-1.407970e-008
-9.782215e-009
-8.892768e-009
-1.303260e-008
-1.484877e-008
-7.097269e-009
8.692468e-009
2.253178e-008
2.469216e-008
1.424131e-008
-5.763976e-010
-9.953005e-009
-1.055101e-008
-6.715667e-009
-4.743690e-009
-6.555982e-009
-8.791735e-009
-7.287550e-009
-1.696764e-009
4.365932e-009
7.180981e-009
6.398225e-009
4.744801e-009
4.810794e-009
6.531058e-009
7.741070e-009
6.762840e-009
4.116521e-009
1.770676e-009
1.042112e-009
1.442768e-009
1.494085e-009
4.143890e-010
-1.150641e-009
-1.986579e-009
-1.685416e-009
-1.025454e-009
-1.012212e-009
-1.701741e-009
-2.135609e-009
-1.465999e-009
3.842810e-012
1.091971e-009
1.089228e-009
6.640041e-010
1.188227e-009
3.125462e-009
5.314396e-009
6.110662e-009
5.227777e-009
4.145943e-009
4.435260e-009
5.774706e-009
6.025915e-009
3.536226e-009
-7.984306e-010
-4.179748e-009
-4.801071e-009
-3.829091e-009
-4.053149e-009
-6.441241e-009
-8.439288e-009
-6.270821e-009
8.431733e-010
9.036801e-009
1.283347e-008
1.007835e-008
3.784837e-009
-1.061401e-009
-2.459929e-009
-2.904552e-009
-5.793123e-009
-1.055610e-008
-1.198516e-008
-5.164805e-009
8.479021e-009
2.027292e-008
2.042223e-008
6.459647e-009
-1.337312e-008
-2.533422e-008
-2.035575e-008
-1.251585e-009
1.883485e-008
2.577362e-008
1.466424e-008
-6.601011e-009
-2.297760e-008
1.294523e-007
8.168038e-008
1.313370e-008
-3.911886e-008
-5.085050e-008
-2.468331e-008
1.387910e-008
3.531522e-008
2.642294e-008
-2.257009e-009
-2.668005e-008
-2.862600e-008
-8.887022e-009
1.544217e-008
2.613738e-008
1.815614e-008
1.467859e-009
-9.726679e-009
-9.663400e-009
-4.227106e-009
-2.978058e-009
-8.719920e-009
-1.487617e-008
-1.265137e-008
-3.156316e-010
1.467645e-008
2.251006e-008
1.973880e-008
1.145724e-008
5.390771e-009
4.330975e-009
4.404597e-009
2.493168e-010
-8.807359e-009
-1.797504e-008
-2.201768e-008
-2.046280e-008
-1.759214e-008
-1.758485e-008
-2.022349e-008
-2.163616e-008
-1.893241e-008
-1.348949e-008
-9.383228e-009
-8.920035e-009
-1.032825e-008
-1.007982e-008
-7.060405e-009
-3.811672e-009
-3.511697e-009
-6.259379e-009
-8.984237e-009
-9.070297e-009
-7.449067e-009
-7.506295e-009
-1.101762e-008
-1.585080e-008
-1.820391e-008
-1.688102e-008
-1.463327e-008
-1.488401e-008
-1.752517e-008
-1.870693e-008
-1.507067e-008
-7.708982e-009
-1.248669e-009
1.103464e-009
1.024152e-009
2.998353e-009
8.833896e-009
1.490333e-008
1.547067e-008
8.782633e-009
-6.407838e-010
-6.188480e-009
-5.549442e-009
-2.575919e-009
-2.634615e-009
-6.421649e-009
-8.945778e-009
-4.973261e-009
4.674337e-009
1.273111e-008
1.189882e-008
2.008150e-009
-9.130142e-009
-1.230558e-008
-4.991023e-009
6.411287e-009
1.211728e-008
7.296614e-009
-4.018803e-009
-1.251092e-008
-1.127093e-008
-1.173125e-009
1.010079e-008
1.413176e-008
7.999209e-009
-3.828120e-009
-1.292406e-008
-7.447829e-008
-5.661786e-008
-2.748795e-008
3.117960e-009
2.630367e-008
3.633537e-008
3.105357e-008
1.221044e-008
-1.359957e-008
-3.531815e-008
-4.146147e-008
-2.697655e-008
1.931846e-009
3.002041e-008
4.221255e-008
3.345018e-008
1.143926e-008
-9.965801e-009
-2.112312e-008
-2.205714e-008
-1.910225e-008
-1.696738e-008
-1.426581e-008
-6.505494e-009
7.220610e-009
2.128553e-008
2.773280e-008
2.350197e-008
1.327036e-008
4.914919e-009
2.156410e-009
1.805350e-009
-1.813331e-009
-1.016071e-008
-1.865961e-008
-2.154993e-008
-1.803005e-008
-1.299260e-008
-1.164549e-008
-1.400995e-008
-1.533043e-008
-1.178625e-008
-4.988644e-009
-2.088591e-010
-4.453038e-010
-3.154956e-009
-3.360496e-009
5.162272e-010
4.860343e-009
5.143488e-009
1.232459e-009
-2.490976e-009
-2.315278e-009
4.254581e-010
9.478016e-010
-3.277344e-009
-9.425789e-009
-1.249922e-008
-1.108132e-008
-8.911315e-009
-1.037757e-008
-1.515220e-008
-1.825225e-008
-1.555975e-008
-8.498306e-009
-2.475813e-009
-8.248775e-010
-1.143170e-009
1.749002e-009
9.499370e-009
1.764954e-008
1.977624e-008
1.392831e-008
4.460862e-009
-2.555690e-009
-5.240492e-009
-6.786612e-009
-1.063459e-008
-1.547961e-008
-1.578362e-008
-7.510932e-009
6.793724e-009
1.890731e-008
2.120723e-008
1.259492e-008
-1.049712e-009
-1.171880e-008
-1.478245e-008
-1.082509e-008
-3.509085e-009
3.530820e-009
8.063807e-009
8.929143e-009
5.765856e-009
-3.196307e-010
-6.277392e-009
-8.377648e-009
-4.919163e-009
1.946326e-009
7.359698e-009
-2.099637e-007
-1.416020e-007
-4.085087e-008
4.304484e-008
7.689417e-008
5.969214e-008
1.665924e-008
-2.137938e-008
-3.693105e-008
-3.108450e-008
-1.542221e-008
-4.496030e-010
9.895132e-009
1.594423e-008
1.770828e-008
1.381460e-008
4.364908e-009
-6.704273e-009
-1.343322e-008
-1.251929e-008
-6.060904e-009
5.968546e-010
3.734463e-009
3.867146e-009
3.714446e-009
4.269295e-009
3.639327e-009
-7.377245e-011
-5.456852e-009
-8.314004e-009
-5.879828e-009
-2.098821e-011
4.487407e-009
5.009724e-009
3.813894e-009
5.287285e-009
1.064797e-008
1.624240e-008
1.754623e-008
1.435678e-008
1.110986e-008
1.181407e-008
1.543327e-008
1.715932e-008
1.416224e-008
9.072314e-009
7.029721e-009
9.717862e-009
1.342121e-008
1.343366e-008
9.619784e-009
6.548599e-009
8.057980e-009
1.271054e-008
1.550824e-008
1.377536e-008
1.020483e-008
9.501972e-009
1.268071e-008
1.578796e-008
1.451509e-008
9.208755e-009
4.417924e-009
3.607228e-009
5.275756e-009
4.939955e-009
5.508464e-010
-4.964752e-009
-6.872161e-009
-3.771442e-009
1.074037e-009
3.455036e-009
2.543886e-009
1.049577e-009
1.436687e-009
2.840524e-009
2.199058e-009
-1.875919e-009
-6.998875e-009
-9.020386e-009
-5.890671e-009
6.616091e-010
6.966857e-009
1.033400e-008
1.004758e-008
6.288417e-009
-6.379534e-010
-9.246833e-009
-1.556799e-008
-1.446960e-008
-3.935797e-009
1.132744e-008
2.136447e-008
1.788693e-008
1.545134e-009
-1.701510e-008
-2.431003e-008
-1.435675e-008
6.126059e-009
2.229037e-008
-1.831936e-007
-1.134347e-007
-1.537843e-008
5.600916e-008
6.814258e-008
2.940648e-008
-2.145603e-008
-4.549768e-008
-3.015800e-008
6.352728e-009
3.341681e-008
3.259193e-008
9.071996e-009
-1.670634e-008
-2.746299e-008
-2.108280e-008
-7.786049e-009
1.970812e-009
6.246301e-009
9.816086e-009
1.592661e-008
2.137613e-008
1.985498e-008
9.161523e-009
-5.843685e-009
-1.748008e-008
-2.176988e-008
-2.044643e-008
-1.722265e-008
-1.333978e-008
-7.378540e-009
1.328824e-009
1.055868e-008
1.713691e-008
2.036707e-008
2.245710e-008
2.534287e-008
2.797479e-008
2.761840e-008
2.360364e-008
1.870244e-008
1.616054e-008
1.592207e-008
1.480862e-008
1.061726e-008
5.146333e-009
2.307224e-009
3.493631e-009
5.861984e-009
5.718338e-009
2.965455e-009
1.219005e-009
3.452355e-009
8.449110e-009
1.230509e-008
1.305660e-008
1.279612e-008
1.482525e-008
1.944305e-008
2.347289e-008
2.393697e-008
2.130598e-008
1.849738e-008
1.709691e-008
1.551538e-008
1.118020e-008
3.883652e-009
-3.784755e-009
-9.197730e-009
-1.205947e-008
-1.360122e-008
-1.401536e-008
-1.173122e-008
-5.630187e-009
2.629565e-009
9.339176e-009
1.194415e-008
1.101118e-008
8.671875e-009
5.614532e-009
6.016886e-010
-6.608587e-009
-1.262616e-008
-1.216462e-008
-3.441912e-009
8.303094e-009
1.385822e-008
7.953111e-009
-5.171391e-009
-1.441836e-008
-1.116380e-008
2.817626e-009
1.615624e-008
1.718270e-008
3.925918e-009
-1.375543e-008
-2.186528e-008
-1.353143e-008
5.327794e-009
2.049291e-008
-3.286499e-008
-7.320353e-009
2.367670e-008
3.499564e-008
1.577426e-008
-2.129579e-008
-4.828686e-008
-4.268891e-008
-5.200058e-009
3.944327e-008
6.019152e-008
4.275359e-008
-8.060974e-011
-3.899948e-008
-5.066437e-008
-3.360405e-008
-5.396219e-009
1.436249e-008
1.915966e-008
1.627553e-008
1.525039e-008
1.725833e-008
1.567568e-008
5.502050e-009
-9.564340e-009
-1.999583e-008
-1.962341e-008
-1.109259e-008
-2.293064e-009
1.623878e-009
2.008373e-009
3.199214e-009
6.783565e-009
1.020714e-008
1.042606e-008
7.532301e-009
4.157554e-009
2.060879e-009
4.347686e-010
-2.301183e-009
-6.025576e-009
-9.074856e-009
-1.056391e-008
-1.155097e-008
-1.347343e-008
-1.605455e-008
-1.757700e-008
-1.718654e-008
-1.612306e-008
-1.618118e-008
-1.738708e-008
-1.793878e-008
-1.649599e-008
-1.384525e-008
-1.182008e-008
-1.095084e-008
-9.911531e-009
-7.389682e-009
-3.831543e-009
-7.917038e-010
1.117296e-009
2.838433e-009
5.238426e-009
7.545404e-009
8.124431e-009
6.636895e-009
4.577830e-009
3.234038e-009
1.713461e-009
-2.013665e-009
-7.917301e-009
-1.259647e-008
-1.210755e-008
-6.155977e-009
1.266368e-009
5.922389e-009
7.590858e-009
9.453593e-009
1.305794e-008
1.484113e-008
9.054459e-009
-5.191070e-009
-2.036987e-008
-2.535471e-008
-1.502092e-008
4.359900e-009
1.947572e-008
2.052803e-008
8.682977e-009
-5.822352e-009
-1.259339e-008
-8.903479e-009
-2.543164e-010
5.551429e-009
4.884737e-009
9.883493e-011
-3.713586e-009
-3.361889e-009
2.622411e-010
3.578506e-009
1.180937e-007
8.669551e-008
3.815508e-008
-7.927638e-009
-3.710958e-008
-4.471112e-008
-3.362446e-008
-1.038577e-008
1.618127e-008
3.507251e-008
3.630932e-008
1.773502e-008
-1.054907e-008
-3.073478e-008
-2.977981e-008
-9.882846e-009
1.301118e-008
2.231534e-008
1.406816e-008
-1.517553e-009
-1.090354e-008
-9.398493e-009
-3.132226e-009
-3.121786e-010
-1.987843e-009
-1.991927e-009
4.849727e-009
1.593540e-008
2.298363e-008
2.033833e-008
1.027901e-008
-4.543448e-012
-5.836145e-009
-8.740023e-009
-1.318058e-008
-2.089620e-008
-2.922241e-008
-3.451125e-008
-3.608648e-008
-3.638541e-008
-3.785019e-008
-4.052681e-008
-4.273760e-008
-4.336106e-008
-4.290347e-008
-4.259537e-008
-4.305117e-008
-4.395936e-008
-4.466317e-008
-4.470983e-008
-4.403390e-008
-4.299558e-008
-4.223357e-008
-4.210635e-008
-4.212126e-008
-4.123614e-008
-3.905108e-008
-3.649685e-008
-3.482252e-008
-3.380207e-008
-3.150655e-008
-2.640457e-008
-1.947934e-008
-1.349447e-008
-9.812137e-009
-6.534253e-009
-6.806689e-010
7.698905e-009
1.444382e-008
1.513790e-008
9.941655e-009
3.773821e-009
1.230801e-009
1.821938e-009
1.090027e-009
-3.443176e-009
-8.370914e-009
-7.489489e-009
9.999935e-010
1.109655e-008
1.371981e-008
5.288980e-009
-8.389538e-009
-1.688465e-008
-1.396045e-008
-2.240406e-009
9.894090e-009
1.529806e-008
1.239208e-008
4.215981e-009
-4.990660e-009
-1.177745e-008
-1.346294e-008
-8.434523e-009
2.027363e-009
1.254169e-008
1.598290e-008
8.880158e-009
-4.750182e-009
-1.545903e-008
1.701977e-007
1.042848e-007
1.368054e-008
-4.935226e-008
-5.765477e-008
-2.356426e-008
1.681863e-008
3.339345e-008
2.113065e-008
-3.595234e-009
-2.105844e-008
-2.279150e-008
-1.258611e-008
1.757702e-009
1.499484e-008
2.415135e-008
2.565186e-008
1.621737e-008
-2.534278e-009
-2.205252e-008
-3.171887e-008
-2.701174e-008
-1.286101e-008
1.389648e-009
1.024271e-008
1.515524e-008
2.002390e-008
2.489586e-008
2.522293e-008
1.724009e-008
2.991471e-009
-1.091024e-008
-1.947577e-008
-2.368008e-008
-2.845168e-008
-3.691757e-008
-4.729035e-008
-5.536759e-008
-5.934775e-008
-6.158699e-008
-6.578390e-008
-7.305601e-008
-8.108491e-008
-8.681702e-008
-8.955321e-008
-9.130589e-008
-9.439423e-008
-9.892163e-008
-1.026125e-007
-1.030471e-007
-1.000509e-007
-9.587674e-008
-9.293118e-008
-9.128049e-008
-8.858495e-008
-8.273877e-008
-7.448314e-008
-6.695034e-008
-6.231489e-008
-5.920080e-008
-5.404394e-008
-4.520577e-008
-3.514825e-008
-2.782651e-008
-2.399290e-008
-1.992731e-008
-1.148785e-008
8.559029e-010
1.184853e-008
1.662237e-008
1.550145e-008
1.298536e-008
1.212200e-008
1.087545e-008
4.874165e-009
-6.462035e-009
-1.748427e-008
-2.068822e-008
-1.354289e-008
-7.983249e-010
9.763753e-009
1.345222e-008
1.082527e-008
5.082226e-009
-1.170800e-009
-6.272292e-009
-8.122491e-009
-4.652696e-009
3.201438e-009
9.867307e-009
8.588775e-009
-1.849311e-009
-1.391318e-008
-1.643111e-008
-4.754770e-009
1.343185e-008
2.324684e-008
1.526817e-008
-5.459372e-009
-2.276879e-008
1.160612e-007
5.325598e-008
-2.613002e-008
-6.595167e-008
-4.319601e-008
1.658930e-008
6.239492e-008
5.881582e-008
1.143991e-008
-4.189583e-008
-6.341233e-008
-4.308686e-008
-9.847121e-010
3.311962e-008
4.252399e-008
3.070056e-008
1.154801e-008
-4.197262e-009
-1.397895e-008
-1.907009e-008
-1.921652e-008
-1.289157e-008
-1.348373e-009
9.961030e-009
1.519428e-008
1.298712e-008
6.834260e-009
7.507082e-010
-4.654242e-009
-1.145466e-008
-2.055912e-008
-2.983302e-008
-3.657253e-008
-4.122513e-008
-4.766084e-008
-5.940194e-008
-7.603020e-008
-9.383712e-008
-1.099402e-007
-1.252153e-007
-1.428401e-007
-1.641972e-007
-1.867416e-007
-2.061591e-007
-2.204167e-007
-2.313128e-007
-2.419010e-007
-2.526223e-007
-2.603633e-007
-2.615151e-007
-2.557661e-007
-2.464720e-007
-2.370875e-007
-2.275105e-007
-2.144521e-007
-1.955691e-007
-1.727773e-007
-1.508665e-007
-1.327891e-007
-1.169305e-007
-9.959290e-008
-7.993143e-008
-6.157849e-008
-4.889389e-008
-4.205935e-008
-3.672187e-008
-2.867534e-008
-1.821111e-008
-9.202092e-009
-4.214009e-009
-1.552041e-009
2.306924e-009
7.953072e-009
1.175961e-008
9.693281e-009
1.852127e-009
-7.312443e-009
-1.296618e-008
-1.334279e-008
-9.322030e-009
-1.965203e-009
7.890841e-009
1.737543e-008
2.068274e-008
1.290760e-008
-3.941899e-009
-1.960636e-008
-2.244920e-008
-9.609690e-009
9.207734e-009
1.906159e-008
1.249707e-008
-3.832282e-009
-1.505848e-008
-1.141989e-008
3.097539e-009
1.468134e-008
1.249434e-008
-1.442874e-009
-1.428436e-008
1.981233e-008
-9.908892e-009
-4.228766e-008
-4.599524e-008
-1.234701e-008
3.600622e-008
6.232200e-008
4.531864e-008
-3.176601e-009
-4.727380e-008
-5.545476e-008
-2.487652e-008
1.823352e-008
4.130409e-008
3.114788e-008
1.387759e-009
-2.242778e-008
-2.468963e-008
-9.332246e-009
8.482978e-009
1.757536e-008
1.788228e-008
1.526792e-008
1.249913e-008
6.751114e-009
-5.127985e-009
-2.119406e-008
-3.551696e-008
-4.419966e-008
-4.916543e-008
-5.575195e-008
-6.747522e-008
-8.401340e-008
-1.039434e-007
-1.280409e-007
-1.588351e-007
-1.971963e-007
-2.404870e-007
-2.847602e-007
-3.283985e-007
-3.727768e-007
-4.191284e-007
-4.654108e-007
-5.070438e-007
-5.408245e-007
-5.674959e-007
-5.899023e-007
-6.087889e-007
-6.211365e-007
-6.230837e-007
-6.141415e-007
-5.977766e-007
-5.775673e-007
-5.533400e-007
-5.218486e-007
-4.813155e-007
-4.345618e-007
-3.870045e-007
-3.417905e-007
-2.977275e-007
-2.523719e-007
-2.065052e-007
-1.646126e-007
-1.308033e-007
-1.050481e-007
-8.408711e-008
-6.560898e-008
-5.044563e-008
-4.024987e-008
-3.391466e-008
-2.755206e-008
-1.827157e-008
-7.126840e-009
2.373560e-009
8.195841e-009
1.116259e-008
1.231046e-008
1.028976e-008
3.120869e-009
-7.208344e-009
-1.354469e-008
-9.118996e-009
4.810061e-009
1.773730e-008
1.806141e-008
3.765732e-009
-1.473154e-008
-2.293674e-008
-1.452479e-008
3.571302e-009
1.746514e-008
1.786886e-008
6.686433e-009
-6.183738e-009
-1.177267e-008
-8.512107e-009
-1.539409e-009
3.100714e-009
3.510315e-009
2.179011e-009
-5.532411e-008
-4.066757e-008
-1.826711e-008
2.775300e-009
1.607053e-008
1.926828e-008
1.283154e-008
-2.415490e-010
-1.327206e-008
-1.709456e-008
-6.192469e-009
1.428502e-008
2.893353e-008
2.310808e-008
-3.393293e-009
-3.318810e-008
-4.384865e-008
-2.629252e-008
7.550816e-009
3.499627e-008
4.113444e-008
2.857956e-008
1.081819e-008
-2.235055e-009
-1.162938e-008
-2.413599e-008
-4.250883e-008
-6.273880e-008
-8.039508e-008
-9.763204e-008
-1.225102e-007
-1.617485e-007
-2.153169e-007
-2.783944e-007
-3.474520e-007
-4.231121e-007
-5.071410e-007
-5.980769e-007
-6.910420e-007
-7.816515e-007
-8.689401e-007
-9.538026e-007
-1.035205e-006
-1.109094e-006
-1.171389e-006
-1.221275e-006
-1.260657e-006
-1.290462e-006
-1.308431e-006
-1.311194e-006
-1.298068e-006
-1.271823e-006
-1.235416e-006
-1.188728e-006
-1.129418e-006
-1.056884e-006
-9.744704e-007
-8.871747e-007
-7.977026e-007
-7.057128e-007
-6.110357e-007
-5.166636e-007
-4.276754e-007
-3.474866e-007
-2.761966e-007
-2.129888e-007
-1.591601e-007
-1.174542e-007
-8.827445e-008
-6.775080e-008
-5.061901e-008
-3.471646e-008
-2.154263e-008
-1.217698e-008
-4.030322e-009
6.675848e-009
1.907978e-008
2.603857e-008
2.030324e-008
2.965770e-009
-1.513050e-008
-2.167077e-008
-1.330593e-008
1.834742e-009
1.172923e-008
1.051744e-008
1.861978e-009
-6.071848e-009
-7.853628e-009
-3.664629e-009
2.898947e-009
8.093712e-009
9.341470e-009
5.378189e-009
-2.844433e-009
-1.115695e-008
-1.367583e-008
-7.242892e-009
4.884088e-009
1.443676e-008
-9.352909e-008
-4.092973e-008
2.409924e-008
5.457016e-008
3.400172e-008
-1.385719e-008
-4.845896e-008
-4.577957e-008
-1.299021e-008
2.369534e-008
4.213220e-008
3.717449e-008
1.696880e-008
-7.417369e-009
-2.728110e-008
-3.554836e-008
-2.720427e-008
-4.098076e-009
2.192638e-008
3.478675e-008
2.630127e-008
3.175985e-009
-1.919466e-008
-3.080669e-008
-3.528137e-008
-4.477696e-008
-6.816525e-008
-1.053261e-007
-1.524040e-007
-2.103507e-007
-2.862819e-007
-3.864344e-007
-5.093386e-007
-6.469989e-007
-7.922158e-007
-9.434743e-007
-1.102448e-006
-1.268025e-006
-1.434217e-006
-1.593957e-006
-1.743750e-006
-1.883730e-006
-2.013725e-006
-2.130577e-006
-2.229872e-006
-2.309469e-006
-2.370242e-006
-2.413322e-006
-2.437623e-006
-2.440781e-006
-2.422024e-006
-2.382995e-006
-2.325517e-006
-2.249428e-006
-2.153519e-006
-2.038374e-006
-1.907276e-006
-1.763970e-006
-1.610330e-006
-1.447214e-006
-1.277429e-006
-1.106702e-006
-9.409601e-007
-7.832573e-007
-6.344218e-007
-4.967293e-007
-3.755731e-007
-2.762274e-007
-1.991401e-007
-1.396593e-007
-9.299145e-008
-5.850957e-008
-3.787344e-008
-2.902106e-008
-2.381958e-008
-1.352341e-008
3.107129e-009
1.813518e-008
2.184741e-008
1.205074e-008
-3.900062e-009
-1.564497e-008
-1.767492e-008
-1.130966e-008
-1.064559e-009
8.914435e-009
1.509776e-008
1.407462e-008
4.814426e-009
-7.995626e-009
-1.509039e-008
-9.971808e-009
3.839705e-009
1.419786e-008
1.103322e-008
-3.402677e-009
-1.563992e-008
-1.354603e-008
1.608624e-009
1.586426e-008
-1.100271e-007
-3.875790e-008
4.631945e-008
7.920101e-008
3.995691e-008
-3.205452e-008
-7.531514e-008
-5.831923e-008
-1.310166e-009
4.723717e-008
5.362999e-008
2.255333e-008
-1.483111e-008
-3.104110e-008
-2.149782e-008
-1.393695e-010
1.730161e-008
2.387630e-008
1.973093e-008
6.391281e-009
-1.409813e-008
-3.651338e-008
-5.368968e-008
-6.345387e-008
-7.397860e-008
-1.002896e-007
-1.543639e-007
-2.388100e-007
-3.501335e-007
-4.867434e-007
-6.520132e-007
-8.492654e-007
-1.075269e-006
-1.320213e-006
-1.574093e-006
-1.832049e-006
-2.092925e-006
-2.353595e-006
-2.606198e-006
-2.841421e-006
-3.053749e-006
-3.242703e-006
-3.409366e-006
-3.552829e-006
-3.670576e-006
-3.761511e-006
-3.827340e-006
-3.870708e-006
-3.892722e-006
-3.892858e-006
-3.870654e-006
-3.826395e-006
-3.759914e-006
-3.669701e-006
-3.554007e-006
-3.412567e-006
-3.246409e-006
-3.056055e-006
-2.841125e-006
-2.602768e-006
-2.346226e-006
-2.079893e-006
-1.811365e-006
-1.545115e-006
-1.284763e-006
-1.037051e-006
-8.119251e-007
-6.175387e-007
-4.555691e-007
-3.224591e-007
-2.153355e-007
-1.354582e-007
-8.472521e-008
-5.918135e-008
-4.755810e-008
-3.744362e-008
-2.303681e-008
-6.778954e-009
5.819078e-009
1.178707e-008
1.146063e-008
6.052790e-009
-2.881777e-009
-1.127313e-008
-1.246651e-008
-2.554216e-009
1.336770e-008
2.246730e-008
1.482029e-008
-5.849834e-009
-2.321728e-008
-2.231920e-008
-3.788265e-009
1.604655e-008
2.019042e-008
6.802255e-009
-9.772612e-009
-1.367068e-008
-3.038559e-009
9.104513e-009
-1.069629e-007
-4.460201e-008
3.044531e-008
6.143401e-008
3.197844e-008
-2.314524e-008
-5.179171e-008
-3.096393e-008
1.572647e-008
4.325515e-008
2.747381e-008
-1.478302e-008
-4.397338e-008
-3.453887e-008
4.579798e-009
4.158994e-008
5.069810e-008
3.035244e-008
-2.280573e-009
-2.995704e-008
-4.779274e-008
-6.165962e-008
-8.026657e-008
-1.115619e-007
-1.647604e-007
-2.514168e-007
-3.815851e-007
-5.589294e-007
-7.807313e-007
-1.042666e-006
-1.342283e-006
-1.676959e-006
-2.039146e-006
-2.415105e-006
-2.789031e-006
-3.148145e-006
-3.483601e-006
-3.787434e-006
-4.050425e-006
-4.264198e-006
-4.425453e-006
-4.537552e-006
-4.607856e-006
-4.643939e-006
-4.652449e-006
-4.640588e-006
-4.617086e-006
-4.590772e-006
-4.568250e-006
-4.552994e-006
-4.545832e-006
-4.545189e-006
-4.546656e-006
-4.543291e-006
-4.527134e-006
-4.490331e-006
-4.424512e-006
-4.319990e-006
-4.167491e-006
-3.962176e-006
-3.706132e-006
-3.406520e-006
-3.071545e-006
-2.709117e-006
-2.329630e-006
-1.948629e-006
-1.584537e-006
-1.252325e-006
-9.592573e-007
-7.068857e-007
-4.964322e-007
-3.309329e-007
-2.117709e-007
-1.341809e-007
-8.747883e-008
-5.990197e-008
-4.267295e-008
-2.981098e-008
-1.639418e-008
1.915495e-010
1.679460e-008
2.487103e-008
1.782068e-008
-5.404255e-010
-1.620787e-008
-1.620215e-008
-9.163853e-010
1.524058e-008
1.686925e-008
2.158923e-009
-1.535136e-008
-1.970745e-008
-7.474371e-009
9.754958e-009
1.707362e-008
1.011814e-008
-2.301030e-009
-8.291464e-009
-4.666612e-009
1.360882e-009
-6.185606e-008
-3.714088e-008
-5.699998e-009
1.178870e-008
9.227226e-009
-1.040104e-009
-1.522168e-009
1.210967e-008
2.552846e-008
1.965234e-008
-8.521752e-009
-3.902004e-008
-4.470597e-008
-1.633748e-008
2.697326e-008
5.276143e-008
4.224082e-008
4.460569e-009
-3.457543e-008
-5.628192e-008
-6.486644e-008
-8.242054e-008
-1.323559e-007
-2.280377e-007
-3.741981e-007
-5.745412e-007
-8.349753e-007
-1.159680e-006
-1.545747e-006
-1.982155e-006
-2.452513e-006
-2.937023e-006
-3.411718e-006
-3.847740e-006
-4.214072e-006
-4.483209e-006
-4.635892e-006
-4.662209e-006
-4.560318e-006
-4.335863e-006
-4.003015e-006
-3.584927e-006
-3.111481e-006
-2.615141e-006
-2.127715e-006
-1.679241e-006
-1.297576e-006
-1.006982e-006
-8.260498e-007
-7.662628e-007
-8.314121e-007
-1.017144e-006
-1.310843e-006
-1.692793e-006
-2.138200e-006
-2.618239e-006
-3.099685e-006
-3.545642e-006
-3.919692e-006
-4.191932e-006
-4.342598e-006
-4.361481e-006
-4.246239e-006
-4.003422e-006
-3.651477e-006
-3.220820e-006
-2.748090e-006
-2.267745e-006
-1.806942e-006
-1.385786e-006
-1.019327e-006
-7.171273e-007
-4.811236e-007
-3.059700e-007
-1.831805e-007
-1.049173e-007
-6.300451e-008
-4.503228e-008
-3.448445e-008
-1.818253e-008
4.970567e-009
2.386463e-008
2.608980e-008
1.059991e-008
-1.003764e-008
-2.014530e-008
-1.404336e-008
4.971300e-010
1.069107e-008
1.003649e-008
2.135602e-009
-4.743960e-009
-5.558944e-009
-1.514904e-009
2.878670e-009
4.369704e-009
2.868618e-009
2.049628e-010
-1.956192e-009
-3.015620e-009
3.618807e-008
5.834293e-009
-2.942260e-008
-4.102345e-008
-2.099478e-008
1.383793e-008
3.814865e-008
3.785749e-008
1.698922e-008
-9.576768e-009
-2.713240e-008
-2.757279e-008
-1.127905e-008
1.267459e-008