# vtk DataFile Version 3.0
vtk output
ASCII
DATASET STRUCTURED_POINTS
DIMENSIONS 100 100 1
SPACING 1 1 1
ORIGIN 0 0 0
POINT_DATA 10000
SCALARS SFBox_profile double
LOOKUP_TABLE default 
0.000000e+000
0.000000e+000
0.000000e+000
0.000000e+000
0.000000e+000
0.000000e+000
0.000000e+000
0.000000e+000
0.000000e+000
0.000000e+000
0.000000e+000
0.000000e+000
0.000000e+000
0.000000e+000
0.000000e+000
0.000000e+000
0.000000e+000
0.000000e+000
0.000000e+000
0.000000e+000
0.000000e+000
0.000000e+000
0.000000e+000
0.000000e+000
0.000000e+000
0.000000e+000
0.000000e+000
0.000000e+000
0.000000e+000
0.000000e+000
0.000000e+000
0.000000e+000
0.000000e+000
0.000000e+000
0.000000e+000
0.000000e+000
0.000000e+000
0.000000e+000
0.000000e+000
0.000000e+000
0.000000e+000
0.000000e+000
0.000000e+000
0.000000e+000
0.000000e+000
0.000000e+000
0.000000e+000
0.000000e+000
0.000000e+000
0.000000e+000
0.000000e+000
0.000000e+000
0.000000e+000
0.000000e+000
0.000000e+000
0.000000e+000
0.000000e+000
0.000000e+000
0.000000e+000
0.000000e+000
0.000000e+000
0.000000e+000
0.000000e+000
0.000000e+000
0.000000e+000
0.000000e+000
0.000000e+000
0.000000e+000
0.000000e+000
0.000000e+000
0.000000e+000
0.000000e+000
0.000000e+000
0.000000e+000
0.000000e+000
0.000000e+000
0.000000e+000
0.000000e+000
0.000000e+000
0.000000e+000
0.000000e+000
0.000000e+000
0.000000e+000
0.000000e+000
0.000000e+000
0.000000e+000
0.000000e+000
0.000000e+000
0.000000e+000
0.000000e+000
0.000000e+000
0.000000e+000
0.000000e+000
0.000000e+000
0.000000e+000
0.000000e+000
0.000000e+000
0.000000e+000
0.000000e+000
0.000000e+000
2.630720e-008
1.697032e-008
3.605219e-009
-6.648599e-009
-9.369222e-009
-5.334401e-009
7.020272e-010
3.872763e-009
2.695809e-009
-4.294322e-010
-1.894086e-009
-2.652063e-010
2.593929e-009
3.540162e-009
1.282549e-009
-2.381371e-009
-4.347260e-009
-3.169303e-009
-2.749561e-010
1.657090e-009
1.363820e-009
-2.042892e-011
-4.943983e-010
5.813923e-010
1.942349e-009
1.970280e-009
4.902772e-010
-1.127860e-009
-1.510373e-009
-6.561181e-010
2.891190e-010
4.151162e-010
-4.635754e-011
-1.929124e-010
4.209534e-010
1.338694e-009
1.831653e-009
1.744681e-009
1.579977e-009
1.835875e-009
2.449965e-009
2.951018e-009
3.036481e-009
2.863622e-009
2.785526e-009
2.931653e-009
3.128167e-009
3.170439e-009
3.060947e-009
2.952659e-009
2.935726e-009
2.951942e-009
2.901329e-009
2.765325e-009
2.602821e-009
2.467458e-009
2.364980e-009
2.269100e-009
2.137127e-009
1.917800e-009
1.596064e-009
1.250571e-009
1.019145e-009
9.533386e-010
9.246593e-010
7.445561e-010
4.010119e-010
1.116379e-010
7.145566e-011
1.753525e-010
9.754300e-011
-2.991040e-010
-7.093974e-010
-6.629430e-010
-7.576243e-011
5.796743e-010
7.541149e-010
4.384711e-010
1.777513e-010
4.107198e-010
8.839372e-010
8.659872e-010
-1.304399e-011
-1.229322e-009
-1.785978e-009
-1.189911e-009
4.376199e-011
8.966397e-010
8.289286e-010
2.262644e-010
-1.030411e-010
1.958194e-010
6.853698e-010
6.374991e-010
-1.763861e-010
-1.197634e-009
-1.551818e-009
-8.222860e-010
5.622673e-010
1.637347e-009
6.052562e-009
3.475709e-009
-8.346798e-011
-2.484159e-009
-2.459559e-009
-4.527822e-010
1.749122e-009
2.373590e-009
1.019260e-009
-1.076198e-009
-2.125628e-009
-1.345560e-009
3.982559e-010
1.458387e-009
9.802214e-010
-3.334269e-010
-1.011774e-009
-3.450789e-010
9.187637e-010
1.409683e-009
5.898946e-010
-7.192176e-010
-1.255721e-009
-6.400941e-010
3.215357e-010
6.038303e-010
6.533687e-011
-5.085982e-010
-3.712724e-010
3.599440e-010
9.089068e-010
7.488404e-010
1.426150e-010
-2.383351e-010
-9.114405e-011
2.485419e-010
2.759037e-010
-9.305299e-011
-4.836207e-010
-5.424180e-010
-3.251757e-010
-1.710632e-010
-2.804988e-010
-5.153122e-010
-6.101215e-010
-4.898178e-010
-3.185170e-010
-2.732552e-010
-3.482072e-010
-4.028477e-010
-3.487908e-010
-2.355027e-010
-1.636263e-010
-1.660191e-010
-1.945380e-010
-1.913989e-010
-1.395863e-010
-5.551294e-011
3.065135e-011
8.183562e-011
7.633915e-011
4.649891e-011
6.990965e-011
1.829410e-010
3.091784e-010
3.230193e-010
2.091199e-010
1.179194e-010
2.050223e-010
4.195902e-010
5.200846e-010
3.461354e-010
3.568189e-011
-1.055800e-010
3.450969e-011
2.151186e-010
1.131396e-010
-2.685435e-010
-5.523905e-010
-3.951168e-010
1.008955e-010
4.646548e-010
3.603921e-010
-4.551640e-011
-2.737976e-010
-6.688526e-011
3.297898e-010
4.456819e-010
1.034943e-010
-3.890804e-010
-5.626186e-010
-2.598517e-010
2.291211e-010
4.710965e-010
2.932197e-010
-9.978128e-011
-3.528616e-010
-2.754538e-010
3.098876e-011
2.926380e-010
-1.802422e-008
-1.213074e-008
-3.585327e-009
3.305415e-009
5.894076e-009
4.499595e-009
1.529214e-009
-6.348957e-010
-1.212316e-009
-9.794381e-010
-1.007152e-009
-1.519937e-009
-1.848029e-009
-1.281524e-009
1.487538e-010
1.685287e-009
2.503975e-009
2.317526e-009
1.433300e-009
3.772489e-010
-4.784079e-010
-1.014055e-009
-1.256072e-009
-1.259911e-009
-1.067673e-009
-7.066262e-010
-2.004744e-010
3.938259e-010
9.425201e-010
1.257194e-009
1.211802e-009
8.608588e-010
4.208341e-010
1.002648e-010
-6.665493e-011
-2.149630e-010
-4.801697e-010
-8.481394e-010
-1.180595e-009
-1.375089e-009
-1.471890e-009
-1.589847e-009
-1.774351e-009
-1.939182e-009
-1.969060e-009
-1.859575e-009
-1.729584e-009
-1.693257e-009
-1.741565e-009
-1.765455e-009
-1.684118e-009
-1.526875e-009
-1.385736e-009
-1.310598e-009
-1.270499e-009
-1.206658e-009
-1.095125e-009
-9.488524e-010
-7.817454e-010
-5.963862e-010
-4.031129e-010
-2.258770e-010
-7.819374e-011
5.087876e-011
1.713902e-010
2.649618e-010
3.081706e-010
3.264602e-010
3.960944e-010
5.641528e-010
7.703444e-010
8.752312e-010
7.817845e-010
5.208092e-010
2.065304e-010
-8.102873e-011
-3.487721e-010
-6.243531e-010
-8.593087e-010
-9.208342e-010
-6.883799e-010
-1.645226e-010
4.920137e-010
1.028912e-009
1.217771e-009
9.720153e-010
4.069795e-010
-2.112450e-010
-6.241486e-010
-7.410966e-010
-6.595435e-010
-5.166710e-010
-3.238166e-010
2.267009e-011
5.426384e-010
1.006817e-009
1.038266e-009
4.487614e-010
-5.027184e-010
-1.222791e-009
-2.726564e-008
-1.728683e-008
-3.218441e-009
7.191138e-009
9.450220e-009
4.837422e-009
-1.343508e-009
-4.158510e-009
-2.538906e-009
7.258310e-010
2.078697e-009
4.371797e-010
-2.199872e-009
-3.002055e-009
-1.068138e-009
1.884543e-009
3.328237e-009
2.294723e-009
4.374291e-011
-1.390486e-009
-1.144375e-009
-6.694517e-011
4.445619e-010
-7.110478e-011
-8.375703e-010
-8.393508e-010
7.866138e-011
1.140489e-009
1.521010e-009
1.146025e-009
6.178360e-010
4.945723e-010
7.721102e-010
1.049848e-009
1.056921e-009
9.059108e-010
8.691155e-010
1.033300e-009
1.240958e-009
1.315660e-009
1.254278e-009
1.184623e-009
1.201134e-009
1.292591e-009
1.401968e-009
1.494309e-009
1.553292e-009
1.559464e-009
1.512802e-009
1.461093e-009
1.465060e-009
1.527518e-009
1.584544e-009
1.580900e-009
1.532130e-009
1.490783e-009
1.469646e-009
1.435401e-009
1.379232e-009
1.350270e-009
1.386545e-009
1.436121e-009
1.396800e-009
1.244416e-009
1.078623e-009
1.004150e-009
9.893372e-010
8.997363e-010
6.888250e-010
5.033022e-010
5.353097e-010
7.687838e-010
9.353554e-010
7.774909e-010
3.438483e-010
-3.556477e-011
-1.017899e-010
3.634982e-011
1.769286e-011
-3.364791e-010
-7.455848e-010
-6.995395e-010
-5.680594e-012
9.151744e-010
1.339859e-009
9.027633e-010
-4.033254e-011
-7.265327e-010
-6.914743e-010
-1.787501e-010
1.503447e-010
-8.470262e-011
-5.794151e-010
-6.494979e-010
4.405488e-011
1.066948e-009
1.528545e-009
8.831526e-010
-5.181695e-010
-1.651721e-009
-1.616572e-008
-9.032105e-009
6.110413e-010
6.760942e-009
6.218448e-009
6.791059e-010
-4.819353e-009
-5.901474e-009
-2.157332e-009
2.892369e-009
5.040763e-009
2.979504e-009
-8.930822e-010
-2.990892e-009
-1.889452e-009
6.407598e-010
1.709626e-009
2.605875e-010
-2.039994e-009
-2.694293e-009
-9.487235e-010
1.579548e-009
2.694974e-009
1.814353e-009
3.055486e-010
-1.668782e-010
6.381127e-010
1.537455e-009
1.421677e-009
4.698672e-010
-1.826201e-010
2.315076e-010
1.353216e-009
2.244386e-009
2.457241e-009
2.387817e-009
2.653399e-009
3.352607e-009
4.048391e-009
4.354117e-009
4.345576e-009
4.369640e-009
4.595248e-009
4.874850e-009
4.999167e-009
4.950733e-009
4.861717e-009
4.812860e-009
4.767090e-009
4.678314e-009
4.573428e-009
4.495771e-009
4.428298e-009
4.327068e-009
4.201029e-009
4.095646e-009
3.999582e-009
3.834826e-009
3.573474e-009
3.311677e-009
3.159918e-009
3.075089e-009
2.884091e-009
2.510604e-009
2.112066e-009
1.905539e-009
1.869030e-009
1.718589e-009
1.248629e-009
6.386250e-010
3.094995e-010
4.456622e-010
7.485884e-010
7.609902e-010
4.172278e-010
1.563666e-010
4.108307e-010
1.033939e-009
1.359486e-009
8.944309e-010
-1.002204e-010
-8.139220e-010
-7.023094e-010
-4.928537e-011
3.414248e-010
9.523675e-012
-6.628277e-010
-8.529118e-010
-1.824537e-010
8.402619e-010
1.284594e-009
7.023009e-010
-4.265669e-010
-1.132818e-009
-8.437023e-010
1.217420e-010
8.774482e-010
7.784094e-010
-2.829712e-011
-7.739905e-010
4.621444e-009
4.460330e-009
3.782982e-009
2.127096e-009
-5.629629e-010
-3.453044e-009
-4.972709e-009
-3.866026e-009
-4.438990e-010
3.224057e-009
4.715440e-009
3.226815e-009
2.725075e-010
-1.696792e-009
-1.528202e-009
-2.781703e-010
1.033149e-010
-1.064837e-009
-2.462413e-009
-2.229460e-009
-3.587881e-011
2.477938e-009
3.354647e-009
2.270408e-009
7.101830e-010
2.786714e-010
1.064834e-009
1.798421e-009
1.461993e-009
4.504051e-010
2.647180e-011
8.288875e-010
2.190331e-009
2.959810e-009
2.767047e-009
2.278823e-009
2.292775e-009
2.839069e-009
3.290892e-009
3.193927e-009
2.749382e-009
2.457003e-009
2.482225e-009
2.536540e-009
2.315153e-009
1.867527e-009
1.475897e-009
1.290495e-009
1.209222e-009
1.081987e-009
9.033656e-010
7.615902e-010
6.910472e-010
6.638850e-010
6.885054e-010
8.126337e-010
1.010407e-009
1.156412e-009
1.178600e-009
1.184871e-009
1.342664e-009
1.634208e-009
1.833826e-009
1.790281e-009
1.659160e-009
1.735536e-009
2.047688e-009
2.238227e-009
1.949751e-009
1.284202e-009
7.500219e-010
7.059201e-010
9.506494e-010
9.760471e-010
6.085468e-010
2.644715e-010
4.734941e-010
1.200414e-009
1.772412e-009
1.543676e-009
5.768007e-010
-4.157149e-010
-8.012658e-010
-6.210836e-010
-4.208764e-010
-5.581105e-010
-7.871830e-010
-5.725351e-010
2.466803e-010
1.186227e-009
1.530372e-009
9.884560e-010
-6.021305e-011
-9.221651e-010
-1.149138e-009
-7.924291e-010
-2.210259e-010
2.276970e-010
4.445969e-010
5.043104e-010
1.905584e-008
1.223233e-008
2.773921e-009
-4.105351e-009
-5.795210e-009
-3.477027e-009
-3.117766e-010
1.355969e-009
1.319701e-009
7.039089e-010
3.963967e-010
3.834934e-010
2.793977e-010
3.262011e-011
-8.969524e-011
-1.594999e-011
-3.073884e-011
-3.130942e-010
-5.206553e-010
-1.027986e-010
9.408418e-010
1.837414e-009
1.784782e-009
8.869072e-010
1.457678e-010
4.124345e-010
1.455058e-009
2.233552e-009
2.084818e-009
1.444161e-009
1.267944e-009
1.857057e-009
2.476431e-009
2.196984e-009
9.376821e-010
-5.050855e-010
-1.407522e-009
-1.881261e-009
-2.598783e-009
-3.918355e-009
-5.496266e-009
-6.773138e-009
-7.641763e-009
-8.480227e-009
-9.603020e-009
-1.087154e-008
-1.190264e-008
-1.252664e-008
-1.290866e-008
-1.326336e-008
-1.359665e-008
-1.377205e-008
-1.371861e-008
-1.346523e-008
-1.301312e-008
-1.230317e-008
-1.134640e-008
-1.028896e-008
-9.259083e-009
-8.192974e-009
-6.921828e-009
-5.447737e-009
-4.028808e-009
-2.907093e-009
-2.006233e-009
-1.021942e-009
1.586070e-010
1.231956e-009
1.773802e-009
1.731290e-009
1.508096e-009
1.512514e-009
1.700111e-009
1.665461e-009
1.178374e-009
5.204738e-010
2.141121e-010
4.561298e-010
9.072547e-010
1.059886e-009
7.478469e-010
2.442368e-010
-9.390579e-011
-1.790223e-010
-1.711040e-010
-1.965479e-010
-1.967728e-010
-6.260822e-011
1.739052e-010
3.583366e-010
3.972691e-010
3.380104e-010
2.396853e-010
4.307502e-011
-3.330698e-010
-7.636249e-010
-8.913263e-010
-4.420300e-010
4.165835e-010
1.105678e-009
1.914634e-008
1.013149e-008
-1.571073e-009
-8.257276e-009
-6.640177e-009
1.849986e-010
5.895390e-009
6.214792e-009
1.835765e-009
-3.053977e-009
-4.769193e-009
-2.927925e-009
5.095320e-011
1.649810e-009
1.351258e-009
4.513676e-010
3.294245e-010
1.140817e-009
2.009953e-009
2.114785e-009
1.400352e-009
4.101167e-010
-2.756286e-010
-3.578719e-010
1.846772e-010
1.140672e-009
2.083715e-009
2.553729e-009
2.395456e-009
1.882555e-009
1.369876e-009
7.992950e-010
-3.295077e-010
-2.410835e-009
-5.228829e-009
-8.132760e-009
-1.072613e-008
-1.326004e-008
-1.626211e-008
-1.985702e-008
-2.359522e-008
-2.696197e-008
-2.991378e-008
-3.280470e-008
-3.585258e-008
-3.883292e-008
-4.133791e-008
-4.321607e-008
-4.464428e-008
-4.581176e-008
-4.666909e-008
-4.702912e-008
-4.680874e-008
-4.606600e-008
-4.483562e-008
-4.305367e-008
-4.069103e-008
-3.787521e-008
-3.478825e-008
-3.147197e-008
-2.783806e-008
-2.390477e-008
-1.993973e-008
-1.627738e-008
-1.301078e-008
-9.953623e-009
-6.944994e-009
-4.128734e-009
-1.855395e-009
-3.165055e-010
6.509233e-010
1.362434e-009
1.936386e-009
2.205131e-009
1.970537e-009
1.296153e-009
5.217678e-010
1.672904e-011
-6.097332e-011
1.927306e-010
5.466317e-010
7.791502e-010
7.831110e-010
6.193486e-010
4.747724e-010
4.918510e-010
5.818965e-010
4.481615e-010
-1.065942e-010
-8.560716e-010
-1.213004e-009
-7.456736e-010
3.122490e-010
1.136851e-009
1.020872e-009
6.979854e-011
-8.410172e-010
-8.780054e-010
-5.692310e-011
7.725197e-010
8.971457e-009
2.727472e-009
-4.794935e-009
-7.682195e-009
-3.831920e-009
3.434672e-009
8.202563e-009
6.829051e-009
7.478825e-010
-5.062968e-009
-6.432795e-009
-3.267883e-009
9.854269e-010
2.824794e-009
1.687861e-009
-1.713539e-010
-3.603587e-010
1.312299e-009
3.011562e-009
3.005429e-009
1.374413e-009
-2.929242e-010
-5.869253e-010
5.067950e-010
1.891882e-009
2.524523e-009
2.167874e-009
1.193008e-009
-7.136993e-011
-1.701523e-009
-4.049760e-009
-7.424203e-009
-1.188778e-008
-1.724646e-008
-2.317689e-008
-2.943843e-008
-3.604751e-008
-4.323197e-008
-5.114049e-008
-5.957469e-008
-6.805722e-008
-7.619728e-008
-8.395243e-008
-9.148693e-008
-9.880602e-008
-1.056107e-007
-1.115326e-007
-1.164363e-007
-1.204178e-007
-1.235340e-007
-1.256308e-007
-1.264731e-007
-1.259770e-007
-1.242356e-007
-1.213346e-007
-1.172313e-007
-1.118622e-007
-1.053155e-007
-9.782624e-008
-8.960664e-008
-8.075454e-008
-7.137335e-008
-6.174198e-008
-5.229256e-008
-4.339191e-008
-3.516953e-008
-2.758332e-008
-2.063893e-008
-1.451317e-008
-9.452422e-009
-5.561586e-009
-2.702440e-009
-6.011064e-010
9.352327e-010
1.892034e-009
2.139415e-009
1.682775e-009
8.471915e-010
1.812613e-010
9.649474e-011
5.396922e-010
1.036141e-009
1.124603e-009
7.942901e-010
4.718633e-010
5.326730e-010
8.305542e-010
7.833327e-010
-5.518176e-013
-1.178664e-009
-1.837613e-009
-1.303219e-009
1.587102e-010
1.476369e-009
1.680145e-009
7.480935e-010
-4.191725e-010
-8.671608e-010
-4.525164e-010
1.265760e-010
-2.278727e-009
-2.966772e-009
-3.401431e-009
-2.459878e-009
7.998002e-011
2.969797e-009
4.162052e-009
2.496757e-009
-9.922507e-010
-3.600342e-009
-3.189893e-009
-1.842161e-010
2.717995e-009
3.028593e-009
7.953945e-010
-1.558027e-009
-1.709050e-009
3.209157e-010
2.414339e-009
2.693470e-009
1.396333e-009
3.883987e-010
1.014600e-009
2.665671e-009
3.457766e-009
2.080215e-009
-1.218444e-009
-5.361830e-009
-9.854082e-009
-1.530886e-008
-2.272845e-008
-3.251163e-008
-4.424129e-008
-5.728260e-008
-7.140456e-008
-8.681424e-008
-1.037298e-007
-1.220200e-007
-1.412116e-007
-1.607383e-007
-1.801568e-007
-1.991938e-007
-2.176614e-007
-2.353382e-007
-2.519048e-007
-2.669849e-007
-2.802629e-007
-2.915625e-007
-3.007880e-007
-3.077837e-007
-3.122771e-007
-3.139939e-007
-3.128234e-007
-3.088433e-007
-3.021696e-007
-2.928132e-007
-2.807212e-007
-2.659629e-007
-2.488451e-007
-2.298253e-007
-2.093287e-007
-1.876888e-007
-1.652854e-007
-1.427107e-007
-1.207370e-007
-1.000631e-007
-8.107336e-008
-6.385946e-008
-4.848998e-008
-3.522540e-008
-2.440609e-008
-1.609680e-008
-9.885857e-009
-5.125476e-009
-1.424247e-009
1.125576e-009
2.269271e-009
2.144486e-009
1.450824e-009
9.934589e-010
1.047764e-009
1.224445e-009
9.979970e-010
3.412643e-010
-2.162415e-010
-1.664588e-010
3.952208e-010
8.235630e-010
5.709884e-010
-2.424782e-010
-9.232424e-010
-8.628226e-010
-1.041165e-010
7.196081e-010
9.753276e-010
5.656256e-010
-6.829363e-011
-4.145511e-010
-3.460613e-010
-1.485559e-010
-9.283390e-009
-4.454146e-009
1.507407e-009
4.435562e-009
3.057902e-009
-5.148907e-010
-3.167458e-009
-3.380567e-009
-1.749730e-009
3.589062e-010
2.084738e-009
3.102297e-009
3.076701e-009
1.752953e-009
-3.555710e-010
-1.866537e-009
-1.606623e-009
1.658060e-010
1.906056e-009
2.337983e-009
1.733974e-009
1.416152e-009
1.980196e-009
2.247270e-009
1.501816e-010
-5.437204e-009
-1.396169e-008
-2.429146e-008
-3.633195e-008
-5.135598e-008
-7.079954e-008
-9.496336e-008
-1.229968e-007
-1.539781e-007
-1.877508e-007
-2.246494e-007
-2.646024e-007
-3.067067e-007
-3.496709e-007
-3.925216e-007
-4.348007e-007
-4.761922e-007
-5.161310e-007
-5.538202e-007
-5.885296e-007
-6.197787e-007
-6.472507e-007
-6.706201e-007
-6.894967e-007
-7.034790e-007
-7.122040e-007
-7.153649e-007
-7.127551e-007
-7.043220e-007
-6.901382e-007
-6.702805e-007
-6.447683e-007
-6.136981e-007
-5.774743e-007
-5.368669e-007
-4.927924e-007
-4.460536e-007
-3.973682e-007
-3.476820e-007
-2.983727e-007
-2.510080e-007
-2.068224e-007
-1.664461e-007
-1.301721e-007
-9.842106e-008
-7.179832e-008
-5.060797e-008
-3.437290e-008
-2.198537e-008
-1.242640e-008
-5.323479e-009
-7.635703e-010
1.395500e-009
1.915444e-009
1.826495e-009
1.741050e-009
1.597539e-009
1.083060e-009
2.219632e-010
-5.177808e-010
-6.611254e-010
-1.782263e-010
5.197131e-010
9.673573e-010
9.761316e-010
6.418942e-010
1.607770e-010
-2.883373e-010
-5.469874e-010
-5.054021e-010
-2.046759e-010
1.318080e-010
2.580981e-010
1.332261e-010
-4.091288e-011
-1.257105e-008
-4.333715e-009
5.347044e-009
8.891316e-009
4.349205e-009
-3.520254e-009
-7.998651e-009
-6.167521e-009
-5.418733e-010
4.110482e-009
5.055052e-009
3.068806e-009
6.322085e-010
-5.804728e-010
-5.059249e-010
1.908488e-010
1.062004e-009
1.911635e-009
2.441178e-009
2.328078e-009
1.578115e-009
3.641080e-010
-1.737610e-009
-6.174254e-009
-1.475747e-008
-2.849889e-008
-4.729637e-008
-7.092710e-008
-1.002242e-007
-1.370029e-007
-1.827181e-007
-2.373106e-007
-2.994745e-007
-3.679292e-007
-4.421877e-007
-5.220214e-007
-6.064046e-007
-6.932696e-007
-7.803574e-007
-8.661652e-007
-9.499759e-007
-1.031109e-006
-1.108370e-006
-1.180292e-006
-1.245744e-006
-1.304144e-006
-1.355114e-006
-1.398092e-006
-1.432358e-006
-1.457308e-006
-1.472562e-006
-1.477799e-006
-1.472636e-006
-1.456754e-006
-1.430066e-006
-1.392668e-006
-1.344654e-006
-1.286130e-006
-1.217531e-006
-1.139884e-006
-1.054652e-006
-9.633228e-007
-8.672752e-007
-7.681382e-007
-6.682019e-007
-5.702779e-007
-4.770058e-007
-3.902744e-007
-3.113139e-007
-2.412198e-007
-1.811451e-007
-1.318150e-007
-9.288958e-008
-6.295927e-008
-4.028283e-008
-2.355357e-008
-1.198940e-008
-4.832693e-009
-9.647297e-010
9.045111e-010
1.739765e-009
1.961473e-009
1.686788e-009
1.076143e-009
4.106652e-010
-5.944266e-011
-2.097873e-010
5.285032e-012
5.553583e-010
1.203005e-009
1.471390e-009
9.556069e-010
-2.130816e-010
-1.290952e-009
-1.485189e-009
-6.925922e-010
3.619299e-010
8.058495e-010
4.551372e-010
-6.938051e-011
-1.363537e-008
-5.188649e-009
4.723914e-009
8.366422e-009
3.902140e-009
-3.550252e-009
-7.054100e-009
-4.069298e-009
1.939248e-009
5.414895e-009
3.907119e-009
-3.083389e-010
-3.063416e-009
-2.240934e-009
9.204656e-010
3.723269e-009
4.603929e-009
3.900099e-009
2.651023e-009
1.147213e-009
-1.424725e-009
-6.457817e-009
-1.547320e-008
-3.009064e-008
-5.203053e-008
-8.290198e-008
-1.241048e-007
-1.771248e-007
-2.438151e-007
-3.259931e-007
-4.244305e-007
-5.382015e-007
-6.651481e-007
-8.030042e-007
-9.499561e-007
-1.104105e-006
-1.262649e-006
-1.421964e-006
-1.578650e-006
-1.730445e-006
-1.876035e-006
-2.014120e-006
-2.142898e-006
-2.260510e-006
-2.365786e-006
-2.458336e-006
-2.537929e-006
-2.603977e-006
-2.655689e-006
-2.692542e-006
-2.714372e-006
-2.720984e-006
-2.711855e-006
-2.686334e-006
-2.644042e-006
-2.584914e-006
-2.508878e-006
-2.415720e-006
-2.305443e-006
-2.178771e-006
-2.037198e-006
-1.882581e-006
-1.716897e-006
-1.542560e-006
-1.362980e-006
-1.182581e-006
-1.006105e-006
-8.377985e-007
-6.811547e-007
-5.391928e-007
-4.145761e-007
-3.091564e-007
-2.233147e-007
-1.558155e-007
-1.043807e-007
-6.647334e-008
-3.969979e-008
-2.178507e-008
-1.051348e-008
-3.878810e-009
-2.854944e-010
1.430378e-009
2.104379e-009
2.261703e-009
2.066311e-009
1.452683e-009
4.989743e-010
-3.267047e-010
-4.401464e-010
2.418998e-010
1.044180e-009
1.078407e-009
1.449074e-010
-9.743433e-010
-1.243519e-009
-4.271747e-010
6.484921e-010
9.437357e-010
2.801526e-010
-5.082701e-010
-1.088495e-008
-5.642026e-009
7.043709e-010
3.575357e-009
1.908900e-009
-1.267491e-009
-2.052118e-009
5.082561e-010
3.665321e-009
3.900778e-009
5.499534e-010
-3.470058e-009
-4.454467e-009
-1.372788e-009
3.355061e-009
6.272658e-009
5.855284e-009
3.141197e-009
-2.497803e-010
-4.449762e-009
-1.184575e-008
-2.577180e-008
-4.912942e-008
-8.425978e-008
-1.337420e-007
-2.009145e-007
-2.895136e-007
-4.028259e-007
-5.429696e-007
-7.104569e-007
-9.039265e-007
-1.120157e-006
-1.354577e-006
-1.602070e-006
-1.857483e-006
-2.115544e-006
-2.370669e-006
-2.617355e-006
-2.851116e-006
-3.069089e-006
-3.269680e-006
-3.451669e-006
-3.613814e-006
-3.755325e-006
-3.876463e-006
-3.978354e-006
-4.062139e-006
-4.128405e-006
-4.177450e-006
-4.209846e-006
-4.226459e-006
-4.227837e-006
-4.213752e-006
-4.183436e-006
-4.136122e-006
-4.071125e-006
-3.987403e-006
-3.883247e-006
-3.756638e-006
-3.605983e-006
-3.430529e-006
-3.230241e-006
-3.005711e-006
-2.758572e-006
-2.492230e-006
-2.212197e-006
-1.925641e-006
-1.640500e-006
-1.364765e-006
-1.106076e-006
-8.712836e-007
-6.657298e-007
-4.924836e-007
-3.520169e-007
-2.424882e-007
-1.603949e-007
-1.012839e-007
-6.042104e-008
-3.339459e-008
-1.649929e-008
-6.742829e-009
-1.620897e-009
9.446324e-010
2.338740e-009
3.014970e-009
2.782438e-009
1.570436e-009
-2.246084e-011
-1.000808e-009
-8.263150e-010
6.751847e-011
7.089185e-010
5.554260e-010
-2.134157e-011
-2.371780e-010
1.889132e-010
7.201883e-010
6.252185e-010
-1.677485e-010
-9.426167e-010
-1.912899e-009
-2.370838e-009
-2.698217e-009
-2.268057e-009
-9.317917e-010
9.309855e-010
2.664692e-009
3.539099e-009
2.945830e-009
8.518174e-010
-1.719819e-009
-2.947286e-009
-1.510182e-009
2.034073e-009
5.300280e-009
5.835105e-009
2.968837e-009
-2.239248e-009
-9.128072e-009
-1.963516e-008
-3.849295e-008
-7.147279e-008
-1.236789e-007
-1.995344e-007
-3.039839e-007
-4.430357e-007
-6.225506e-007
-8.460606e-007
-1.113239e-006
-1.419784e-006
-1.758205e-006
-2.118677e-006
-2.489766e-006
-2.859290e-006
-3.215356e-006
-3.547323e-006
-3.846464e-006
-4.106441e-006
-4.323677e-006
-4.497357e-006
-4.628873e-006
-4.720981e-006
-4.777360e-006
-4.802723e-006
-4.802936e-006
-4.784479e-006
-4.753447e-006
-4.714981e-006
-4.673538e-006
-4.633421e-006
-4.598678e-006
-4.572359e-006
-4.555927e-006
-4.549400e-006
-4.551794e-006
-4.561081e-006
-4.573559e-006
-4.583316e-006
-4.582465e-006
-4.561984e-006
-4.512568e-006
-4.425190e-006
-4.291710e-006
-4.105941e-006
-3.865065e-006
-3.570828e-006
-3.229991e-006
-2.853929e-006
-2.457587e-006
-2.057965e-006
-1.672266e-006
-1.315933e-006
-1.000940e-006
-7.346809e-007
-5.195792e-007
-3.534531e-007
-2.305950e-007
-1.434122e-007
-8.412316e-008
-4.584871e-008
-2.281346e-008
-1.006360e-008
-3.407518e-009
1.843901e-010
2.216561e-009
2.966977e-009
2.407272e-009
9.952869e-010
-3.277593e-010
-8.017394e-010
-4.027601e-010
2.825083e-010
6.760535e-010
6.652987e-010
5.085727e-010
4.189272e-010
3.318834e-010
6.748867e-011
-3.680936e-010
-7.175718e-010
1.108510e-008
4.654925e-009
-2.950063e-009
-6.015124e-009
-3.251341e-009
1.755383e-009
4.414783e-009
3.163510e-009
3.917705e-011
-1.908312e-009
-1.274799e-009
1.217981e-009
3.943879e-009
5.514154e-009
5.033962e-009
1.971114e-009
-3.961717e-009
-1.335095e-008
-2.838682e-008
-5.412282e-008
-9.839925e-008
-1.703209e-007
-2.787276e-007
-4.319639e-007
-6.384021e-007
-9.058164e-007
-1.238640e-006
-1.634428e-006
-2.081931e-006
-2.561923e-006
-3.049813e-006
-3.518378e-006
-3.939980e-006
-4.288779e-006
-4.543281e-006
-4.688647e-006
-4.717811e-006
-4.631154e-006
-4.435345e-006
-4.142023e-006
-3.766533e-006
-3.326693e-006
-2.841754e-006
-2.331673e-006
-1.816534e-006
-1.315738e-006
-8.470916e-007
-4.263301e-007
-6.736147e-008
2.172937e-007
4.166061e-007
5.217355e-007
5.266655e-007
4.283436e-007
2.266947e-007
-7.484595e-008
-4.682309e-007
-9.397669e-007
-1.469770e-006
-2.032995e-006
-2.599589e-006
-3.136452e-006
-3.609172e-006
-3.984713e-006
-4.234799e-006
-4.339561e-006
-4.290769e-006
-4.093811e-006
-3.767700e-006
-3.342844e-006
-2.856925e-006
-2.349788e-006
-1.858308e-006
-1.412071e-006
-1.030498e-006
-7.219337e-007
-4.849526e-007
-3.114207e-007
-1.901113e-007
-1.094905e-007
-5.905069e-008
-2.962514e-008
-1.354816e-008
-5.044438e-009
-5.089991e-010
1.790074e-009
2.536173e-009
2.177930e-009
1.278855e-009
4.215634e-010
-1.305764e-011
4.327681e-011
3.749759e-010
6.214928e-010
5.094478e-010
7.142710e-011
-3.544675e-010
-4.192010e-010
-1.084767e-010
2.275476e-010
2.041962e-008
1.051030e-008
-1.358829e-009
-6.666701e-009
-3.721902e-009
1.952628e-009
3.906815e-009
9.091799e-010
-2.894958e-009
-2.993872e-009
1.038172e-009
5.794482e-009
7.719586e-009
5.874730e-009
1.353771e-009
-5.273862e-009
-1.580537e-008
-3.465879e-008
-6.863837e-008
-1.271315e-007
-2.222547e-007
-3.680804e-007
-5.790200e-007
-8.679924e-007
-1.244189e-006
-1.709417e-006
-2.252943e-006
-2.846961e-006
-3.445771e-006
-3.989957e-006
-4.413981e-006
-4.654301e-006
-4.656217e-006
-4.379364e-006
-3.801917e-006
-2.922704e-006
-1.760139e-006
-3.482531e-007
1.268443e-006
3.039414e-006
4.911351e-006
6.830703e-006
8.745873e-006
1.060886e-005
1.237611e-005
1.400885e-005
1.547319e-005
1.673983e-005
1.778349e-005
1.858201e-005
1.911600e-005
1.936893e-005
1.932747e-005
1.898191e-005
1.832677e-005
1.736236e-005
1.609678e-005
1.454833e-005
1.274765e-005
1.073944e-005
8.583345e-006
6.353344e-006
4.135445e-006
2.023215e-006
1.110906e-007
-1.514555e-006
-2.785694e-006
-3.662330e-006
-4.139010e-006
-4.246125e-006
-4.045293e-006
-3.619639e-006
-3.060872e-006
-2.455679e-006
-1.874289e-006
-1.363738e-006
-9.470811e-007
-6.277321e-007
-3.963820e-007
-2.376161e-007
-1.345687e-007
-7.154112e-008
-3.531584e-008
-1.573630e-008
-5.712678e-009
-7.621543e-010
1.637796e-009
2.650990e-009
2.657915e-009
1.867091e-009
7.523264e-010
-1.804149e-011
-9.468689e-011
2.008544e-010
2.094444e-010
-3.058676e-010
-8.301143e-010
-6.522071e-010
2.701992e-010
1.147530e-009
1.908854e-008
9.863422e-009
-9.030911e-010
-5.246251e-009
-2.128060e-009
2.668681e-009
3.240144e-009
-5.083108e-010
-3.611686e-009
-1.937184e-009
3.439624e-009
7.659099e-009
7.004800e-009
1.661212e-009
-6.407742e-009
-1.789531e-008
-3.864715e-008
-7.894042e-008
-1.517841e-007
-2.725871e-007
-4.598279e-007
-7.343708e-007
-1.115698e-006
-1.615133e-006
-2.227106e-006
-2.919756e-006
-3.627166e-006
-4.247022e-006
-4.647305e-006
-4.682418e-006
-4.214695e-006
-3.135058e-006
-1.378031e-006
1.070662e-006
4.173708e-006
7.848428e-006
1.197864e-005
1.642958e-005
2.106219e-005
2.574368e-005
3.035401e-005
3.478970e-005
3.896600e-005
4.281738e-005
4.629586e-005
4.936807e-005
5.201187e-005
5.421319e-005
5.596309e-005
5.725484e-005
5.808143e-005
5.843372e-005
5.829913e-005
5.766097e-005
5.649876e-005
5.478995e-005
5.251284e-005
4.965124e-005
4.620090e-005
4.217790e-005
3.762787e-005
3.263400e-005
2.732226e-005
2.186181e-005
1.645870e-005
1.134087e-005
6.734626e-006
2.835688e-006
-2.192535e-007
-2.373648e-006
-3.659295e-006
-4.188771e-006
-4.132855e-006
-3.687987e-006
-3.042040e-006
-2.347335e-006
-1.706988e-006
-1.175336e-006
-7.682096e-007
-4.768532e-007
-2.805301e-007
-1.555472e-007
-8.047430e-008
-3.826237e-008
-1.631505e-008
-5.739785e-009
-7.262811e-010
1.813067e-009
2.874370e-009
2.563480e-009
1.293850e-009
6.248110e-011
-3.060596e-010
5.822706e-011
2.987181e-010
-1.115259e-010
-7.189761e-010
-6.479966e-010
2.791018e-010
1.220781e-009
7.835227e-009
2.842935e-009
-2.321585e-009
-3.055900e-009
3.948977e-010
3.623166e-009
3.098628e-009
-6.995189e-011
-1.670365e-009
7.035422e-010
4.870652e-009
6.261835e-009
2.251683e-009
-6.549405e-009
-1.979094e-008
-4.235578e-008
-8.641959e-008
-1.698312e-007
-3.137972e-007