# vtk DataFile Version 3.0
vtk output
ASCII
DATASET STRUCTURED_POINTS
DIMENSIONS 100 100 1
SPACING 1 1 1
ORIGIN 0 0 0
POINT_DATA 10000
SCALARS SFBox_profile double
LOOKUP_TABLE default 
0.000000e+000
0.000000e+000
0.000000e+000
0.000000e+000
0.000000e+000
0.000000e+000
0.000000e+000
0.000000e+000
0.000000e+000
0.000000e+000
0.000000e+000
0.000000e+000
0.000000e+000
0.000000e+000
0.000000e+000
0.000000e+000
0.000000e+000
0.000000e+000
0.000000e+000
0.000000e+000
0.000000e+000
0.000000e+000
0.000000e+000
0.000000e+000
0.000000e+000
0.000000e+000
0.000000e+000
0.000000e+000
0.000000e+000
0.000000e+000
0.000000e+000
0.000000e+000
0.000000e+000
0.000000e+000
0.000000e+000
0.000000e+000
0.000000e+000
0.000000e+000
0.000000e+000
0.000000e+000
0.000000e+000
0.000000e+000
0.000000e+000
0.000000e+000
0.000000e+000
0.000000e+000
0.000000e+000
0.000000e+000
0.000000e+000
0.000000e+000
0.000000e+000
0.000000e+000
0.000000e+000
0.000000e+000
0.000000e+000
0.000000e+000
0.000000e+000
0.000000e+000
0.000000e+000
0.000000e+000
0.000000e+000
0.000000e+000
0.000000e+000
0.000000e+000
0.000000e+000
0.000000e+000
0.000000e+000
0.000000e+000
0.000000e+000
0.000000e+000
0.000000e+000
0.000000e+000
0.000000e+000
0.000000e+000
0.000000e+000
0.000000e+000
0.000000e+000
0.000000e+000
0.000000e+000
0.000000e+000
0.000000e+000
0.000000e+000
0.000000e+000
0.000000e+000
0.000000e+000
0.000000e+000
0.000000e+000
0.000000e+000
0.000000e+000
0.000000e+000
0.000000e+000
0.000000e+000
0.000000e+000
0.000000e+000
0.000000e+000
0.000000e+000
0.000000e+000
0.000000e+000
0.000000e+000
0.000000e+000
6.619959e-009
2.700975e-009
-2.333803e-009
-5.419885e-009
-5.010311e-009
-1.770962e-009
2.108016e-009
4.404997e-009
4.147111e-009
1.924208e-009
-7.882253e-010
-2.671351e-009
-3.220255e-009
-2.691298e-009
-1.597216e-009
-2.770979e-010
1.138609e-009
2.481246e-009
3.376929e-009
3.387294e-009
2.341494e-009
5.369576e-010
-1.394533e-009
-2.851288e-009
-3.558959e-009
-3.591478e-009
-3.165818e-009
-2.434402e-009
-1.444510e-009
-2.409072e-010
1.040237e-009
2.194424e-009
3.057278e-009
3.584462e-009
3.833609e-009
3.882746e-009
3.770537e-009
3.502880e-009
3.096676e-009
2.603641e-009
2.091574e-009
1.609198e-009
1.171983e-009
7.776408e-010
4.290105e-010
1.403871e-010
-7.399165e-011
-2.119020e-010
-2.815879e-010
-2.902562e-010
-2.367550e-010
-1.160698e-010
7.101888e-011
3.152777e-010
6.064645e-010
9.409799e-010
1.318305e-009
1.727696e-009
2.139845e-009
2.515206e-009
2.821940e-009
3.042588e-009
3.158816e-009
3.130728e-009
2.900683e-009
2.429824e-009
1.737010e-009
8.988548e-010
6.733079e-012
-8.731276e-010
-1.687174e-009
-2.339503e-009
-2.666563e-009
-2.502340e-009
-1.804482e-009
-7.314419e-010
4.145078e-010
1.342497e-009
1.893450e-009
2.029037e-009
1.735728e-009
9.888934e-010
-1.439853e-010
-1.360089e-009
-2.138582e-009
-2.009337e-009
-9.175422e-010
6.216219e-010
1.768223e-009
1.880515e-009
9.469245e-010
-4.009714e-010
-1.315732e-009
-1.295561e-009
-4.840423e-010
4.826873e-010
9.442209e-010
6.583255e-010
-7.558931e-011
-6.673597e-010
1.239310e-009
4.483491e-010
-5.289508e-010
-1.041781e-009
-8.022973e-010
-4.302926e-011
6.700909e-010
8.403592e-010
3.824077e-010
-3.352767e-010
-7.743592e-010
-6.235388e-010
-1.105501e-011
6.177923e-010
8.448961e-010
5.666851e-010
1.354736e-011
-4.751550e-010
-7.043342e-010
-6.994979e-010
-5.858152e-010
-4.249877e-010
-1.733409e-010
2.205463e-010
7.022907e-010
1.108459e-009
1.276994e-009
1.161170e-009
8.430687e-010
4.481360e-010
5.227099e-011
-3.373979e-010
-7.317887e-010
-1.107848e-009
-1.409548e-009
-1.591531e-009
-1.653565e-009
-1.632419e-009
-1.566083e-009
-1.469220e-009
-1.339322e-009
-1.178582e-009
-1.004678e-009
-8.414479e-010
-7.032946e-010
-5.907780e-010
-4.995662e-010
-4.305517e-010
-3.902500e-010
-3.832972e-010
-4.073446e-010
-4.563081e-010
-5.271993e-010
-6.214901e-010
-7.388358e-010
-8.707685e-010
-1.002778e-009
-1.123291e-009
-1.228617e-009
-1.316194e-009
-1.372641e-009
-1.372117e-009
-1.291409e-009
-1.128416e-009
-9.031642e-010
-6.378142e-010
-3.379862e-010
-9.489208e-013
3.527395e-010
6.597883e-010
8.382135e-010
8.421474e-010
6.960209e-010
4.707970e-010
2.243387e-010
-3.008370e-011
-2.907467e-010
-5.083243e-010
-5.795383e-010
-4.248592e-010
-8.637911e-011
2.594236e-010
4.117400e-010
2.968608e-010
2.772985e-011
-1.870683e-010
-2.087588e-010
-6.582394e-011
9.374739e-011
1.404417e-010
6.349172e-011
-4.568888e-011
-9.224041e-011
-5.755591e-011
5.593516e-012
3.863743e-011
2.920718e-011
5.174996e-012
-6.964518e-012
-6.895355e-012
-5.158580e-009
-2.157772e-009
1.722686e-009
4.172058e-009
4.011321e-009
1.676665e-009
-1.299519e-009
-3.326457e-009
-3.594583e-009
-2.278881e-009
-1.743149e-010
1.836928e-009
3.125866e-009
3.384462e-009
2.571260e-009
8.896243e-010
-1.202233e-009
-3.061950e-009
-4.073322e-009
-3.904933e-009
-2.646606e-009
-7.310705e-010
1.292279e-009
2.972622e-009
4.049285e-009
4.427121e-009
4.118763e-009
3.215970e-009
1.884567e-009
3.436132e-010
-1.185478e-009
-2.532584e-009
-3.600630e-009
-4.351064e-009
-4.778419e-009
-4.898226e-009
-4.748627e-009
-4.389694e-009
-3.891044e-009
-3.315005e-009
-2.708315e-009
-2.105558e-009
-1.535955e-009
-1.024800e-009
-5.897648e-010
-2.386781e-010
2.737220e-011
2.086728e-010
3.045103e-010
3.147344e-010
2.415669e-010
8.866861e-011
-1.410306e-010
-4.450846e-010
-8.182390e-010
-1.249540e-009
-1.722882e-009
-2.219281e-009
-2.716311e-009
-3.183572e-009
-3.579230e-009
-3.853512e-009
-3.958259e-009
-3.855009e-009
-3.516541e-009
-2.926741e-009
-2.088610e-009
-1.041607e-009
1.245661e-010
1.275059e-009
2.254371e-009
2.914751e-009
3.135693e-009
2.840856e-009
2.028486e-009
8.125195e-010
-5.598174e-010
-1.752703e-009
-2.448084e-009
-2.461796e-009
-1.806203e-009
-6.781770e-010
5.982508e-010
1.640557e-009
2.092282e-009
1.747531e-009
6.916284e-010
-6.441840e-010
-1.623986e-009
-1.735545e-009
-9.236496e-010
3.225818e-010
1.244336e-009
1.300629e-009
5.326855e-010
-4.703676e-010
-9.959035e-010
-7.184993e-010
7.963058e-011
7.411206e-010
-7.434263e-009
-2.945810e-009
2.733467e-009
6.063563e-009
5.387997e-009
1.659485e-009
-2.522309e-009
-4.733251e-009
-4.127324e-009
-1.600369e-009
1.147819e-009
2.802175e-009
3.031162e-009
2.268921e-009
1.103582e-009
-1.323979e-010
-1.322407e-009
-2.300736e-009
-2.744838e-009
-2.366118e-009
-1.194692e-009
3.475544e-010
1.677939e-009
2.392752e-009
2.440335e-009
2.028383e-009
1.401282e-009
6.950369e-010
-4.653791e-011
-7.760307e-010
-1.395126e-009
-1.797646e-009
-1.940879e-009
-1.866184e-009
-1.655429e-009
-1.373817e-009
-1.049869e-009
-6.953195e-010
-3.303681e-010
1.363194e-011
3.103992e-010
5.518277e-010
7.450447e-010
8.999178e-010
1.020804e-009
1.107983e-009
1.163281e-009
1.192352e-009
1.201904e-009
1.195645e-009
1.172887e-009
1.130420e-009
1.065435e-009
9.767709e-010
8.634080e-010
7.218373e-010
5.457761e-010
3.302048e-010
7.709861e-011
-2.029778e-010
-4.958341e-010
-7.894035e-010
-1.071238e-009
-1.317293e-009
-1.484797e-009
-1.523100e-009
-1.398943e-009
-1.113624e-009
-6.941743e-010
-1.702376e-010
4.294296e-010
1.045143e-009
1.551568e-009
1.776374e-009
1.588082e-009
9.937019e-010
1.580781e-010
-6.805771e-010
-1.324940e-009
-1.660974e-009
-1.613096e-009
-1.109156e-009
-1.544341e-010
1.022933e-009
1.932401e-009
2.032462e-009
1.116020e-009
-4.263728e-010
-1.742869e-009
-2.041380e-009
-1.144023e-009
3.545239e-010
1.477608e-009
1.538388e-009
6.022472e-010
-5.947666e-010
-1.198207e-009
-8.442242e-010
1.121507e-010
8.946615e-010
-3.827202e-009
-1.308453e-009
1.732960e-009
3.211155e-009
2.318215e-009
-6.271569e-011
-2.112864e-009
-2.417689e-009
-9.259543e-010
1.127491e-009
2.212564e-009
1.622435e-009
-1.094399e-010
-1.729925e-009
-2.228591e-009
-1.469083e-009
-8.145176e-011
1.150984e-009
1.825281e-009
1.982944e-009
1.802199e-009
1.317692e-009
4.415026e-010
-8.015314e-010
-2.123509e-009
-3.087532e-009
-3.379492e-009
-2.983605e-009
-2.123881e-009
-1.062752e-009
4.670710e-011
1.153850e-009
2.213745e-009
3.129896e-009
3.790232e-009
4.140883e-009
4.214235e-009
4.089735e-009
3.835485e-009
3.485226e-009
3.057603e-009
2.583001e-009
2.106748e-009
1.670595e-009
1.296282e-009
9.872282e-010
7.425835e-010
5.673949e-010
4.706053e-010
4.565955e-010
5.210154e-010
6.550704e-010
8.527820e-010
1.112668e-009
1.431231e-009
1.794631e-009
2.177763e-009
2.552598e-009
2.896571e-009
3.189632e-009
3.400930e-009
3.481437e-009
3.377810e-009
3.061077e-009
2.543224e-009
1.862971e-009
1.056936e-009
1.555650e-010
-7.802834e-010
-1.619997e-009
-2.181591e-009
-2.320189e-009
-2.019968e-009
-1.402123e-009
-6.375098e-010
1.463532e-010
8.652328e-010
1.396727e-009
1.544302e-009
1.149835e-009
2.905537e-010
-6.448007e-010
-1.145143e-009
-9.342346e-010
-2.031441e-010
5.092574e-010
7.189836e-010
3.560236e-010
-2.175933e-010
-5.314608e-010
-3.831138e-010
4.351165e-011
3.803748e-010
3.886933e-010
1.164991e-010
-1.920052e-010
-3.125024e-010
-1.928016e-010
4.837770e-011
2.304302e-010
2.748175e-009
1.332149e-009
-6.047402e-010
-2.069606e-009
-2.454190e-009
-1.695938e-009
-1.551817e-010
1.576163e-009
2.812568e-009
2.933184e-009
1.657507e-009
-6.657098e-010
-3.042426e-009
-4.268468e-009
-3.624046e-009
-1.344998e-009
1.505025e-009
3.682485e-009
4.448634e-009
3.817999e-009
2.296491e-009
4.386025e-010
-1.393339e-009
-2.972269e-009
-4.058578e-009
-4.396467e-009
-3.869270e-009
-2.628701e-009
-1.039827e-009
5.206571e-010
1.834795e-009
2.855628e-009
3.599176e-009
4.051361e-009
4.172869e-009
3.965075e-009
3.505640e-009
2.913403e-009
2.283729e-009
1.658135e-009
1.045637e-009
4.599612e-010
-6.843225e-011
-5.099972e-010
-8.563612e-010
-1.119981e-009
-1.316553e-009
-1.450559e-009
-1.516848e-009
-1.512242e-009
-1.442058e-009
-1.314621e-009
-1.131137e-009
-8.834659e-010
-5.634392e-010
-1.740972e-010
2.698016e-010
7.528654e-010
1.267680e-009
1.806714e-009
2.341851e-009
2.814178e-009
3.150951e-009
3.297449e-009
3.230573e-009
2.938295e-009
2.392300e-009
1.560169e-009
4.656355e-010
-7.565982e-010
-1.878579e-009
-2.672458e-009
-3.002414e-009
-2.836171e-009
-2.188206e-009
-1.092297e-009
3.295537e-010
1.766867e-009
2.741909e-009
2.825081e-009
1.921952e-009
3.962301e-010
-1.101195e-009
-1.985372e-009
-2.014876e-009
-1.324797e-009
-2.677903e-010
7.592256e-010
1.403598e-009
1.416271e-009
7.643220e-010
-2.575644e-010
-1.088067e-009
-1.211923e-009
-5.464560e-010
4.325881e-010
1.004032e-009
7.544555e-010
-7.982360e-011
-7.944366e-010
7.195044e-009
2.791218e-009
-2.678088e-009
-5.742139e-009
-4.964258e-009
-1.472686e-009
2.236748e-009
4.106860e-009
3.608042e-009
1.581507e-009
-6.827436e-010
-2.259978e-009
-2.811994e-009
-2.376478e-009
-1.161050e-009
4.587473e-010
1.907172e-009
2.578059e-009
2.174341e-009
9.268761e-010
-5.370116e-010
-1.588029e-009
-1.931549e-009
-1.648058e-009
-9.884070e-010
-1.656586e-010
6.879176e-010
1.443526e-009
1.933984e-009
2.019861e-009
1.687256e-009
1.061528e-009
3.182723e-010
-4.194263e-010
-1.107618e-009
-1.732870e-009
-2.261457e-009
-2.642067e-009
-2.847019e-009
-2.897651e-009
-2.846312e-009
-2.738218e-009
-2.592841e-009
-2.416416e-009
-2.223235e-009
-2.040091e-009
-1.892255e-009
-1.789815e-009
-1.729329e-009
-1.706559e-009
-1.724436e-009
-1.787827e-009
-1.892571e-009
-2.022533e-009
-2.158485e-009
-2.288057e-009
-2.403689e-009
-2.489552e-009
-2.513537e-009
-2.437806e-009
-2.240701e-009
-1.926952e-009
-1.513798e-009
-1.010145e-009
-4.194961e-010
2.272877e-010
8.436750e-010
1.304783e-009
1.507747e-009
1.422572e-009
1.086530e-009
5.586470e-010
-1.000063e-010
-7.868240e-010
-1.312661e-009
-1.442356e-009
-1.036454e-009
-1.889671e-010
7.734022e-010
1.453335e-009
1.584615e-009
1.128934e-009
2.427118e-010
-7.930288e-010
-1.610335e-009
-1.814964e-009
-1.166203e-009
1.723015e-010
1.547845e-009
2.113916e-009
1.411815e-009
-1.921179e-010
-1.645954e-009
-1.933437e-009
-8.589656e-010
7.553591e-010
1.677938e-009
1.230290e-009
-1.729190e-010
-1.361547e-009
6.287091e-009
1.972464e-009
-3.062148e-009
-5.224019e-009
-3.414277e-009
5.187209e-010
3.475987e-009
3.489227e-009
9.726482e-010
-1.922713e-009
-3.108413e-009
-2.010809e-009
3.237850e-010
2.276422e-009
2.832467e-009
2.008704e-009
4.604235e-010
-1.144200e-009
-2.414231e-009
-3.129629e-009
-3.078941e-009
-2.118085e-009
-3.761484e-010
1.670937e-009
3.396628e-009
4.339610e-009
4.379181e-009
3.668355e-009
2.448601e-009
9.297801e-010
-7.074715e-010
-2.270391e-009
-3.566619e-009
-4.467517e-009
-4.949403e-009
-5.068456e-009
-4.900128e-009
-4.503010e-009
-3.927258e-009
-3.236434e-009
-2.506595e-009
-1.802604e-009
-1.159734e-009
-5.891984e-010
-9.742033e-011
3.034260e-010
6.013670e-010
7.946989e-010
8.916229e-010
8.999376e-010
8.195412e-010
6.461501e-010
3.805369e-010
3.136855e-011
-3.913542e-010
-8.823294e-010
-1.435929e-009
-2.033110e-009
-2.634936e-009
-3.191431e-009
-3.656055e-009
-3.987711e-009
-4.137550e-009
-4.041033e-009
-3.636549e-009
-2.903575e-009
-1.887069e-009
-6.858836e-010
5.765838e-010
1.761355e-009
2.696934e-009
3.181782e-009
3.050978e-009
2.283237e-009
1.059549e-009
-2.913823e-010
-1.424595e-009
-2.083668e-009
-2.125621e-009
-1.521937e-009
-4.139823e-010
8.145980e-010
1.603079e-009
1.504781e-009
5.485126e-010
-6.607215e-010
-1.295929e-009
-9.175185e-010
1.535091e-010
1.056532e-009
1.071526e-009
2.047367e-010
-8.199647e-010
-1.163804e-009
-5.629392e-010
4.694050e-010
1.083048e-009
7.929493e-010
-1.366693e-010
-9.263332e-010
9.495846e-010
-3.015698e-010
-1.413114e-009
-1.126570e-009
5.580785e-010
2.301353e-009
2.475555e-009
5.427432e-010
-2.355701e-009
-4.138544e-009
-3.334198e-009
-2.322470e-010
3.281090e-009
5.064539e-009
4.170927e-009
1.319743e-009
-1.823453e-009
-3.832723e-009
-4.228996e-009
-3.353194e-009
-1.794833e-009
9.926985e-012
1.770362e-009
3.161812e-009
3.812353e-009
3.506741e-009
2.371505e-009
8.244852e-010
-6.728094e-010
-1.836400e-009
-2.594048e-009
-2.973805e-009
-3.000708e-009
-2.690650e-009
-2.099877e-009
-1.341813e-009
-5.444445e-010
2.037977e-010
8.674927e-010
1.437847e-009
1.905891e-009
2.261455e-009
2.507289e-009
2.663795e-009
2.757657e-009
2.808571e-009
2.827435e-009
2.823117e-009
2.806017e-009
2.784033e-009
2.757708e-009
2.721509e-009
2.668740e-009
2.592567e-009
2.481778e-009
2.318578e-009
2.084181e-009
1.767359e-009
1.365977e-009
8.806783e-010
3.127147e-010
-3.243702e-010
-9.878872e-010
-1.604625e-009
-2.091606e-009
-2.378897e-009
-2.410636e-009
-2.131829e-009
-1.498665e-009
-5.319827e-010
6.250723e-010
1.714766e-009
2.458240e-009
2.667980e-009
2.290578e-009
1.373656e-009
4.505036e-011
-1.431875e-009
-2.602915e-009
-2.930729e-009
-2.110267e-009
-3.864455e-010
1.444091e-009
2.459356e-009
2.198724e-009
9.544618e-010
-4.682433e-010
-1.317412e-009
-1.331342e-009
-7.556696e-010
-3.739836e-011
4.823170e-010
6.671013e-010
5.272731e-010
1.648164e-010
-2.323422e-010
-4.363420e-010
-3.179414e-010
2.683610e-011
3.197260e-010
-4.830455e-009
-2.120285e-009
1.350546e-009
3.562639e-009
3.603190e-009
1.880716e-009
-4.879476e-010
-2.415133e-009
-3.198625e-009
-2.563725e-009
-7.086270e-010
1.604973e-009
3.214431e-009
3.152834e-009
1.353563e-009
-1.162880e-009
-2.907462e-009
-2.924943e-009
-1.385412e-009
6.739537e-010
2.157608e-009
2.563841e-009
2.038363e-009
9.852593e-010
-2.863320e-010
-1.596884e-009
-2.737024e-009
-3.406147e-009
-3.354461e-009
-2.566948e-009
-1.283724e-009
1.616051e-010
1.523781e-009
2.698944e-009
3.654462e-009
4.351020e-009
4.739150e-009
4.807232e-009
4.607875e-009
4.231091e-009
3.757177e-009
3.235424e-009
2.696677e-009
2.172710e-009
1.698918e-009
1.303387e-009
9.994489e-010
7.894731e-010
6.730066e-010
6.504996e-010
7.221119e-010
8.859641e-010
1.137254e-009
1.466536e-009
1.857773e-009
2.289376e-009
2.737758e-009
3.177098e-009
3.571800e-009
3.869647e-009
4.008639e-009
3.937505e-009
3.631424e-009
3.086786e-009
2.306327e-009
1.306140e-009
1.549400e-010
-9.921811e-010
-1.919110e-009
-2.436000e-009
-2.460905e-009
-2.025707e-009
-1.220241e-009
-1.647651e-010
9.382198e-010
1.752043e-009
1.895411e-009
1.194052e-009
-9.403324e-011
-1.327231e-009
-1.844317e-009
-1.388420e-009
-2.547452e-010
9.374115e-010
1.628931e-009
1.563709e-009
8.028028e-010
-3.526782e-010
-1.414864e-009
-1.817578e-009
-1.206551e-009
2.016472e-010
1.562518e-009
1.897844e-009
8.774872e-010
-7.865585e-010
-1.804412e-009
-1.351256e-009
1.969965e-010
1.536782e-009
-7.207324e-009
-2.144276e-009
3.599163e-009
5.829842e-009
3.571683e-009
-7.468885e-010
-3.675047e-009
-3.444832e-009
-8.796641e-010
1.796492e-009
2.844502e-009
1.997908e-009
1.218368e-010
-1.704110e-009
-2.762369e-009
-2.719838e-009
-1.508089e-009
5.990730e-010
2.862655e-009
4.273573e-009
4.098335e-009
2.358209e-009
-1.915178e-010
-2.566336e-009
-4.100326e-009
-4.626846e-009
-4.283322e-009
-3.251818e-009
-1.691436e-009
1.708690e-010
1.995812e-009
3.438368e-009
4.307123e-009
4.617072e-009
4.500147e-009
4.080207e-009
3.426506e-009
2.592478e-009
1.661377e-009
7.386314e-010
-9.337119e-011
-8.037045e-010
-1.399351e-009
-1.892730e-009
-2.284995e-009
-2.573226e-009
-2.763475e-009
-2.872298e-009
-2.917109e-009
-2.906628e-009
-2.839006e-009
-2.706544e-009
-2.501970e-009
-2.221866e-009
-1.864849e-009
-1.426095e-009
-8.952325e-010
-2.648404e-010
4.535453e-010
1.220875e-009
1.980717e-009
2.677944e-009
3.261215e-009
3.661413e-009
3.774691e-009
3.489049e-009
2.752334e-009
1.625982e-009
2.711212e-010
-1.116749e-009
-2.349257e-009
-3.222250e-009
-3.490544e-009
-2.944401e-009
-1.590819e-009
2.117918e-010
1.838453e-009
2.698870e-009
2.543227e-009
1.548010e-009
1.634895e-010
-1.099675e-009
-1.798249e-009
-1.641776e-009
-6.471416e-010
7.063850e-010
1.586823e-009
1.320313e-009
-8.284854e-013
-1.405300e-009
-1.716388e-009
-5.646995e-010
1.169411e-009
2.008213e-009
1.157493e-009
-7.217921e-010
-2.020692e-009
-1.587132e-009
2.232739e-010
1.831924e-009
-5.066211e-009
-6.139895e-010
3.909823e-009
4.552252e-009
1.019800e-009
-3.398221e-009
-4.856978e-009
-2.181095e-009
2.377727e-009
5.220829e-009
4.323522e-009
5.641116e-010
-3.337277e-009
-5.026606e-009
-3.967165e-009
-1.262334e-009
1.523414e-009
3.344808e-009
3.862552e-009
3.143557e-009
1.451632e-009
-7.130926e-010
-2.612052e-009
-3.538448e-009
-3.204064e-009
-1.884017e-009
-1.823347e-010
1.353730e-009
2.444358e-009
3.019778e-009
3.068560e-009
2.587971e-009
1.647848e-009
4.355715e-010
-8.055703e-010
-1.891243e-009
-2.752519e-009
-3.397072e-009
-3.838737e-009
-4.071926e-009
-4.098725e-009
-3.958273e-009
-3.718975e-009
-3.444637e-009
-3.171649e-009
-2.914842e-009
-2.687056e-009
-2.508789e-009
-2.401242e-009
-2.374161e-009
-2.421790e-009
-2.529601e-009
-2.684213e-009
-2.876719e-009
-3.095599e-009
-3.315311e-009
-3.492958e-009
-3.579878e-009
-3.539193e-009
-3.350822e-009
-2.997776e-009
-2.453353e-009
-1.696270e-009
-7.520931e-010
2.784202e-010
1.241126e-009
1.986625e-009
2.408119e-009
2.428103e-009
1.977163e-009
1.036251e-009
-2.603899e-010
-1.568919e-009
-2.433302e-009
-2.507585e-009
-1.740471e-009
-3.870308e-010
1.121006e-009
2.306827e-009
2.725298e-009
2.080361e-009
4.555838e-010
-1.501459e-009
-2.752557e-009
-2.488838e-009
-8.032770e-010
1.213481e-009
2.199403e-009
1.566748e-009
-2.575418e-011
-1.235089e-009
-1.171481e-009
-1.095512e-010
8.492115e-010
8.231414e-010
-7.000783e-011
-8.957708e-010
-8.302822e-010
6.188966e-011
9.175046e-010
-2.234346e-010
1.068975e-009
1.876853e-009
7.954864e-010
-1.713296e-009
-3.570172e-009
-2.882741e-009
2.631371e-010
3.647691e-009
4.635365e-009
2.347034e-009
-1.578931e-009
-4.292113e-009
-3.967236e-009
-1.091469e-009
2.148552e-009
3.659520e-009
2.835197e-009
5.817735e-010
-1.685852e-009
-3.015891e-009
-3.170136e-009
-2.312920e-009
-7.073642e-010
1.298680e-009
3.188167e-009
4.377690e-009
4.497710e-009
3.583617e-009
1.994003e-009
1.550775e-010
-1.628748e-009
-3.183287e-009
-4.381694e-009
-5.112484e-009
-5.326802e-009
-5.081723e-009
-4.511137e-009
-3.750058e-009
-2.886653e-009
-1.973595e-009
-1.063168e-009
-2.175949e-010
5.119333e-010
1.106160e-009
1.573296e-009
1.926250e-009
2.166313e-009
2.286161e-009
2.283003e-009
2.164846e-009
1.943381e-009
1.622143e-009
1.193656e-009
6.504299e-010
3.224897e-013
-7.289933e-010
-1.500889e-009
-2.281924e-009
-3.036493e-009
-3.704920e-009
-4.191252e-009
-4.384937e-009
-4.205634e-009
-3.631265e-009
-2.687530e-009
-1.428024e-009
4.780780e-011
1.543550e-009
2.754153e-009
3.356484e-009
3.164988e-009
2.233397e-009
8.266581e-010
-6.841079e-010
-1.896800e-009
-2.415474e-009
-1.959397e-009
-5.929059e-010
1.100540e-009
2.187640e-009
1.949867e-009
4.674826e-010
-1.315765e-009
-2.215745e-009
-1.670251e-009
-1.330639e-010
1.317964e-009
1.798240e-009
1.179751e-009
2.498478e-011
-9.175743e-010
-1.189396e-009
-7.818211e-010
-2.213597e-011
6.388577e-010
8.395928e-010
4.884198e-010
-1.655947e-010
-6.689375e-010
4.349986e-009
1.647473e-009
-1.584499e-009
-3.239139e-009
-2.657406e-009
-6.814979e-010
1.291730e-009
2.239038e-009
1.829448e-009
3.322728e-010
-1.493858e-009
-2.565847e-009
-1.982341e-009
2.395932e-010
2.861151e-009
4.086944e-009
2.860831e-009
-2.680616e-010
-3.495129e-009
-5.042892e-009
-4.293602e-009
-1.927759e-009
8.190920e-010
2.985881e-009
4.175568e-009
4.348217e-009
3.570122e-009
2.000376e-009
-5.716924e-012
-1.932002e-009
-3.317583e-009
-3.957841e-009
-3.913702e-009
-3.362862e-009
-2.462884e-009
-1.329559e-009
-8.413209e-011
1.130539e-009
2.192503e-009
3.046568e-009
3.700738e-009
4.184232e-009
4.516136e-009
4.709297e-009
4.789397e-009
4.798138e-009
4.775856e-009
4.744424e-009
4.708039e-009
4.667134e-009
4.627280e-009
4.593203e-009
4.556163e-009
4.490449e-009
4.364210e-009
4.153106e-009
3.841336e-009
3.409754e-009
2.829173e-009
2.075173e-009
1.156289e-009
1.277817e-010
-9.236112e-010
-1.903216e-009
-2.707604e-009
-3.202723e-009
-3.228994e-009
-2.669733e-009
-1.547507e-009
-6.268990e-011
1.466598e-009
2.704954e-009
3.354672e-009
3.171828e-009
2.043358e-009
1.617698e-010
-1.855739e-009
-3.135620e-009
-3.028145e-009
-1.582097e-009
4.056218e-010
1.871067e-009
2.142347e-009
1.281410e-009
-7.759579e-011
-1.163198e-009
-1.439343e-009
-7.946556e-010
3.989607e-010
1.384500e-009
1.402507e-009
2.801619e-010
-1.239475e-009
-1.914737e-009
-1.034632e-009
8.136387e-010
2.089274e-009
1.621642e-009
-2.625303e-010
-1.942530e-009
6.497543e-009
9.683449e-010
-4.638786e-009
-5.555769e-009
-1.595205e-009
3.330127e-009
5.050868e-009
2.577845e-009
-1.667889e-009
-4.379879e-009
-3.980605e-009
-1.252445e-009
1.871813e-009
3.793173e-009
3.860455e-009
2.220806e-009
-4.286127e-010
-2.968265e-009
-4.172497e-009
-3.353856e-009
-8.973760e-010
1.888403e-009
3.600372e-009
3.590270e-009
2.174020e-009
1.703062e-010
-1.698813e-009
-3.053909e-009
-3.737027e-009
-3.647181e-009
-2.755826e-009
-1.218838e-009
6.193775e-010
2.379192e-009
3.814098e-009
4.849849e-009
5.502964e-009
5.796234e-009
5.748967e-009
5.412859e-009
4.883108e-009
4.264434e-009
3.631575e-009
3.023448e-009
2.465404e-009
1.986359e-009
1.613686e-009
1.359682e-009
1.220548e-009
1.189414e-009
1.266895e-009
1.457086e-009
1.755545e-009
2.144957e-009
2.603102e-009
3.110568e-009
3.644482e-009
4.162536e-009
4.597214e-009
4.871328e-009
4.920087e-009
4.695453e-009
4.153516e-009
3.257286e-009
2.018664e-009
5.523435e-010
-9.190395e-010
-2.131506e-009
-2.865452e-009
-2.980640e-009
-2.407683e-009
-1.179330e-009
4.632008e-010
2.001028e-009
2.777254e-009
2.356552e-009
8.615021e-010
-1.016800e-009
-2.387212e-009
-2.637195e-009
-1.695264e-009
5.876689e-012
1.718731e-009
2.617209e-009
2.135568e-009
3.948317e-010
-1.613415e-009
-2.503455e-009
-1.539577e-009
5.804349e-010
2.101805e-009
1.681426e-009
-3.097711e-010
-1.999366e-009
-1.729672e-009
3.008905e-010
2.143390e-009
1.963648e-009
-1.296127e-010
-2.144449e-009
5.665594e-009
-1.489003e-010
-5.499400e-009
-5.191453e-009
2.425333e-010
5.539909e-009
5.885691e-009
1.185498e-009
-4.291382e-009
-6.036954e-009
-3.096408e-009
1.684245e-009
4.555885e-009
3.890464e-009
8.585142e-010
-2.148393e-009
-3.440724e-009
-2.749041e-009
-7.554356e-010
1.600296e-009
3.426603e-009
3.973075e-009
2.871915e-009
4.434393e-010
-2.339424e-009
-4.361410e-009
-4.975124e-009
-4.222690e-009
-2.577074e-009
-5.420974e-010
1.532724e-009
3.391527e-009
4.785283e-009
5.515069e-009
5.541421e-009
5.007492e-009
4.137595e-009
3.114112e-009
2.038616e-009
9.739947e-010
-1.225717e-011
-8.543326e-010
-1.520623e-009
-2.023684e-009
-2.396444e-009
-2.664436e-009
-2.840599e-009
-2.937027e-009
-2.971033e-009
-2.957102e-009
-2.897264e-009
-2.782843e-009
-2.603587e-009
-2.350504e-009
-2.009309e-009
-1.557109e-009
-9.732088e-010
-2.560074e-010
5.725703e-010
1.478113e-009
2.419013e-009
3.327580e-009
4.083690e-009
4.522798e-009
4.493702e-009
3.924838e-009
2.843119e-009
1.347366e-009
-3.990742e-010
-2.120793e-009
-3.399825e-009
-3.782583e-009
-3.031402e-009
-1.345896e-009
6.560168e-010
2.218766e-009
2.789338e-009
2.205359e-009
7.137397e-010
-1.073185e-009
-2.292574e-009
-2.172629e-009
-5.947084e-010
1.544832e-009
2.722105e-009
1.911628e-009
-4.130514e-010
-2.451610e-009
-2.523775e-009
-5.894660e-010
1.637998e-009
2.227347e-009
8.148314e-010
-1.100534e-009
-1.665053e-009
-4.847552e-010
1.071362e-009
1.352564e-009
1.355183e-010
-1.205458e-009
2.524183e-009
-8.018018e-010
-3.464326e-009
-2.403536e-009
1.468444e-009
4.298747e-009
3.185672e-009
-9.541379e-010
-4.278228e-009
-3.694757e-009
2.640664e-010
4.027228e-009
4.297182e-009
8.954190e-010
-3.338179e-009
-5.160658e-009
-3.481168e-009
2.287555e-010
3.520753e-009
4.792927e-009
3.917481e-009
1.696452e-009
-9.048990e-010
-3.085044e-009
-4.212357e-009
-3.911454e-009
-2.279605e-009
6.772284e-011
2.298193e-009
3.797248e-009
4.379663e-009
4.172858e-009
3.381913e-009
2.179250e-009
7.445138e-010
-6.919033e-010
-1.901695e-009
-2.755112e-009
-3.252446e-009
-3.465923e-009
-3.464369e-009
-3.290724e-009
-2.987140e-009
-2.614960e-009
-2.241445e-009
-1.913652e-009
-1.650970e-009
-1.459162e-009
-1.344534e-009
-1.314160e-009
-1.369419e-009
-1.505296e-009
-1.714392e-009
-1.985519e-009
-2.295630e-009
-2.606449e-009
-2.872579e-009
-3.050387e-009
-3.093045e-009
-2.938131e-009
-2.514400e-009
-1.780245e-009
-7.664901e-010
4.186099e-010
1.625001e-009
2.690012e-009
3.426132e-009
3.607153e-009
3.033765e-009
1.687271e-009
-1.460222e-010
-1.920895e-009
-3.053187e-009
-3.160044e-009
-2.176977e-009
-3.660627e-010
1.691370e-009
3.153808e-009
3.208704e-009
1.617261e-009
-8.635257e-010
-2.727503e-009
-2.718327e-009
-8.734461e-010
1.370648e-009
2.280330e-009
1.259262e-009
-6.757944e-010
-1.835110e-009
-1.344140e-009
1.879558e-010
1.362899e-009
1.294206e-009
2.744460e-010
-6.962842e-010
-9.056951e-010
-4.513321e-010
8.526489e-011
3.104085e-010
3.001441e-010
-1.696759e-009
-7.239688e-010
6.157280e-010
1.560207e-009
1.507466e-009
3.384751e-010
-1.346832e-009
-2.359173e-009
-1.643748e-009
7.248654e-010
3.189172e-009
3.669604e-009
1.322421e-009
-2.450525e-009
-4.880148e-009
-4.034835e-009
-4.393966e-010
3.350025e-009
4.799564e-009
3.238089e-009
2.186390e-011
-2.793936e-009
-3.900464e-009
-3.195835e-009
-1.312854e-009
1.004681e-009
3.140314e-009
4.567968e-009
4.891910e-009
4.031158e-009
2.311064e-009
2.946045e-010
-1.517671e-009
-2.862492e-009
-3.672892e-009
-3.953029e-009
-3.727118e-009
-3.074883e-009
-2.155061e-009
-1.157115e-009
-2.244791e-010
5.765852e-010
1.229193e-009
1.727315e-009
2.067845e-009
2.265533e-009
2.358688e-009
2.393852e-009
2.405664e-009
2.409035e-009
2.402096e-009
2.369517e-009
2.284268e-009
2.113487e-009
1.827877e-009
1.406249e-009
8.337120e-010
1.061419e-010
-7.496023e-010
-1.653917e-009
-2.478988e-009
-3.084756e-009
-3.354597e-009
-3.199767e-009
-2.550438e-009
-1.386107e-009
1.829229e-010
1.856321e-009
3.199348e-009
3.810196e-009
3.484111e-009
2.272067e-009
4.583442e-010
-1.455206e-009
-2.780719e-009
-2.847842e-009
-1.432931e-009
8.633292e-010
2.745433e-009
2.994858e-009
1.387924e-009
-1.031721e-009
-2.659327e-009
-2.493569e-009
-8.178186e-010
1.110606e-009
2.026915e-009
1.491900e-009
5.651379e-011
-1.208793e-009
-1.433952e-009
-5.074697e-010
8.302419e-010
1.481798e-009
8.436866e-010
-6.157367e-010
-1.647086e-009
-1.283073e-009
2.344838e-010
1.596119e-009
-5.552703e-009
-2.626130e-010
4.770603e-009
4.960496e-009
6.279072e-010
-3.978770e-009
-4.959069e-009
-1.979877e-009
2.133897e-009
4.255206e-009
3.293607e-009
3.836884e-010
-2.426933e-009
-3.517904e-009
-2.362533e-009
3.477312e-010
2.989683e-009
3.819308e-009
2.101661e-009
-1.236187e-009
-4.128453e-009
-4.796025e-009
-2.928771e-009
3.051733e-010
3.264134e-009
4.876654e-009