# vtk DataFile Version 3.0
vtk output
ASCII
DATASET STRUCTURED_POINTS
DIMENSIONS 100 100 1
SPACING 1 1 1
ORIGIN 0 0 0
POINT_DATA 10000
SCALARS SFBox_profile double
LOOKUP_TABLE default 
0.000000e+000
0.000000e+000
0.000000e+000
0.000000e+000
0.000000e+000
0.000000e+000
0.000000e+000
0.000000e+000
0.000000e+000
0.000000e+000
0.000000e+000
0.000000e+000
0.000000e+000
0.000000e+000
0.000000e+000
0.000000e+000
0.000000e+000
0.000000e+000
0.000000e+000
0.000000e+000
0.000000e+000
0.000000e+000
0.000000e+000
0.000000e+000
0.000000e+000
0.000000e+000
0.000000e+000
0.000000e+000
0.000000e+000
0.000000e+000
0.000000e+000
0.000000e+000
0.000000e+000
0.000000e+000
0.000000e+000
0.000000e+000
0.000000e+000
0.000000e+000
0.000000e+000
0.000000e+000
0.000000e+000
0.000000e+000
0.000000e+000
0.000000e+000
0.000000e+000
0.000000e+000
0.000000e+000
0.000000e+000
0.000000e+000
0.000000e+000
0.000000e+000
0.000000e+000
0.000000e+000
0.000000e+000
0.000000e+000
0.000000e+000
0.000000e+000
0.000000e+000
0.000000e+000
0.000000e+000
0.000000e+000
0.000000e+000
0.000000e+000
0.000000e+000
0.000000e+000
0.000000e+000
0.000000e+000
0.000000e+000
0.000000e+000
0.000000e+000
0.000000e+000
0.000000e+000
0.000000e+000
0.000000e+000
0.000000e+000
0.000000e+000
0.000000e+000
0.000000e+000
0.000000e+000
0.000000e+000
0.000000e+000
0.000000e+000
0.000000e+000
0.000000e+000
0.000000e+000
0.000000e+000
0.000000e+000
0.000000e+000
0.000000e+000
0.000000e+000
0.000000e+000
0.000000e+000
0.000000e+000
0.000000e+000
0.000000e+000
0.000000e+000
0.000000e+000
0.000000e+000
0.000000e+000
0.000000e+000
9.892363e-011
6.473698e-011
1.748535e-011
-1.786994e-011
-2.938900e-011
-2.146493e-011
-6.903179e-012
3.288080e-012
5.800103e-012
4.150584e-012
3.285610e-012
4.968130e-012
7.397854e-012
7.922048e-012
5.432714e-012
7.178279e-013
-4.528538e-012
-8.776030e-012
-1.125899e-011
-1.206815e-011
-1.174230e-011
-1.061472e-011
-8.451402e-012
-4.836403e-012
-6.844029e-014
4.364652e-012
6.551542e-012
5.868917e-012
4.033053e-012
4.005860e-012
7.245548e-012
1.193768e-011
1.440375e-011
1.257902e-011
7.929489e-012
3.828796e-012
2.516660e-012
3.868884e-012
6.250571e-012
7.550442e-012
5.961342e-012
1.227390e-012
-4.672568e-012
-8.984712e-012
-1.043393e-011
-9.525486e-012
-7.166593e-012
-3.913842e-012
-2.468314e-013
3.253484e-012
5.973703e-012
7.267972e-012
6.634703e-012
4.081330e-012
2.098784e-013
-4.075405e-012
-7.908766e-012
-1.070144e-011
-1.222843e-011
-1.238739e-011
-1.087881e-011
-7.490680e-012
-2.815844e-012
1.785283e-012
5.179685e-012
7.209711e-012
8.478922e-012
9.755656e-012
1.152504e-011
1.362740e-011
1.518348e-011
1.521593e-011
1.360036e-011
1.128402e-011
9.416943e-012
8.302004e-012
7.201522e-012
5.058782e-012
1.352939e-012
-3.541143e-012
-8.527639e-012
-1.232721e-011
-1.421022e-011
-1.451107e-011
-1.422663e-011
-1.370442e-011
-1.177898e-011
-6.691487e-012
1.770296e-012
1.102477e-011
1.668053e-011
1.522670e-011
6.894363e-012
-3.467745e-012
-9.360406e-012
-7.928272e-012
-2.347111e-012
1.762977e-012
1.998166e-012
5.629242e-013
3.342392e-011
2.250287e-011
7.344406e-012
-4.055594e-012
-8.071509e-012
-6.676763e-012
-4.084906e-012
-2.657213e-012
-1.757374e-012
2.919370e-013
3.768459e-012
6.914435e-012
7.396742e-012
4.340862e-012
-9.530431e-013
-6.016037e-012
-8.776248e-012
-8.498270e-012
-5.786246e-012
-1.991902e-012
1.577796e-012
4.275484e-012
6.213070e-012
7.775325e-012
8.958921e-012
9.192412e-012
7.922771e-012
5.480580e-012
3.242458e-012
2.662582e-012
3.919067e-012
5.600218e-012
5.937482e-012
4.454046e-012
2.340065e-012
1.279541e-012
2.076678e-012
4.284099e-012
6.733049e-012
8.277832e-012
8.397348e-012
7.340029e-012
5.616729e-012
3.479705e-012
1.169507e-012
-6.511261e-013
-1.253089e-012
-4.859727e-013
1.266843e-012
3.427191e-012
5.246183e-012
5.914309e-012
5.025954e-012
2.874293e-012
3.114109e-013
-1.680881e-012
-2.414172e-012
-1.639276e-012
4.559330e-013
3.222678e-012
5.772377e-012
7.513152e-012
8.390493e-012
8.578510e-012
8.167047e-012
7.225076e-012
5.997172e-012
4.899965e-012
4.337401e-012
4.435293e-012
4.890197e-012
5.177099e-012
5.034216e-012
4.760861e-012
4.955207e-012
5.933271e-012
7.407258e-012
8.687648e-012
9.154755e-012
8.607829e-012
7.277100e-012
5.514781e-012
3.365314e-012
4.511191e-013
-3.481849e-012
-7.668167e-012
-1.012902e-011
-8.836637e-012
-3.519660e-012
3.518807e-012
8.512539e-012
8.701119e-012
4.376463e-012
-1.297877e-012
-4.795612e-012
-4.805749e-012
-2.522809e-012
3.399566e-014
1.649626e-012
2.266764e-012
-4.587352e-011
-2.835219e-011
-5.224486e-012
1.051277e-011
1.391874e-011
8.375836e-012
7.816972e-013
-3.330540e-012
-2.711792e-012
-4.264318e-015
1.328315e-012
-2.882805e-013
-3.996862e-012
-7.530811e-012
-8.666974e-012
-6.352762e-012
-1.105223e-012
5.366496e-012
1.106402e-011
1.457270e-011
1.549100e-011
1.426286e-011
1.161779e-011
8.036644e-012
3.700972e-012
-1.041184e-012
-5.272578e-012
-7.847230e-012
-8.401262e-012
-7.979644e-012
-8.290027e-012
-1.006185e-011
-1.224277e-011
-1.305602e-011
-1.176486e-011
-9.161477e-012
-6.546186e-012
-4.732675e-012
-3.860968e-012
-3.323933e-012
-1.803350e-012
1.583613e-012
5.862557e-012
8.838083e-012
9.383122e-012
8.138917e-012
6.058117e-012
3.496872e-012
6.966712e-013
-1.975242e-012
-4.246188e-012
-5.716672e-012
-5.770867e-012
-4.121002e-012
-1.072290e-012
2.774441e-012
6.737453e-012
1.020178e-011
1.278294e-011
1.409088e-011
1.343133e-011
1.036085e-011
5.548602e-012
4.952336e-013
-3.699009e-012
-6.928547e-012
-9.617531e-012
-1.209594e-011
-1.435653e-011
-1.605763e-011
-1.674168e-011
-1.626510e-011
-1.502493e-011
-1.360684e-011
-1.218500e-011
-1.035278e-011
-7.532007e-012
-3.504897e-012
1.464348e-012
6.859816e-012
1.210440e-011
1.646984e-011
1.898212e-011
1.872509e-011
1.548231e-011
1.008461e-011
4.007134e-012
-1.434628e-012
-5.576441e-012
-8.259123e-012
-9.262279e-012
-7.921597e-012
-3.835745e-012
1.591139e-012
5.065337e-012
4.286924e-012
8.247729e-013
-1.420525e-012
-7.108004e-013
9.828827e-013
-8.454381e-011
-5.288298e-011
-1.194080e-011
1.450284e-011
1.941030e-011
1.211399e-011
5.597559e-012
5.188598e-012
6.799596e-012
3.808751e-012
-5.396118e-012
-1.608497e-011
-2.157598e-011
-1.827881e-011
-7.494465e-012
6.220510e-012
1.785833e-011
2.405114e-011
2.392576e-011
1.883743e-011
1.130993e-011
3.657447e-012
-3.024144e-012
-8.899922e-012
-1.440931e-011
-1.906744e-011
-2.133299e-011
-2.005020e-011
-1.624410e-011
-1.312126e-011
-1.355125e-011
-1.722778e-011
-2.069788e-011
-2.063094e-011
-1.695244e-011
-1.254315e-011
-1.034820e-011
-1.127595e-011
-1.420274e-011
-1.678222e-011
-1.649641e-011
-1.229576e-011
-5.499753e-012
1.514431e-012
7.109485e-012
1.034430e-011
1.033755e-011
6.828976e-012
6.691337e-013
-6.647410e-012
-1.314189e-011
-1.634084e-011
-1.447180e-011
-7.954432e-012
7.564201e-013
8.731208e-012
1.382977e-011
1.508615e-011
1.273214e-011
7.916489e-012
1.866581e-012
-4.666680e-012
-1.097077e-011
-1.600794e-011
-1.902394e-011
-2.021857e-011
-2.055227e-011
-2.106305e-011
-2.229118e-011
-2.392237e-011
-2.496468e-011
-2.465338e-011
-2.332465e-011
-2.219852e-011
-2.217407e-011
-2.293201e-011
-2.319815e-011
-2.173193e-011
-1.799039e-011
-1.210628e-011
-4.617037e-012
3.624418e-012
1.153383e-011
1.815657e-011
2.291676e-011
2.516080e-011
2.344290e-011
1.596149e-011
2.560390e-012
-1.332255e-011
-2.498362e-011
-2.586600e-011
-1.458494e-011
2.411126e-012
1.449822e-011
1.522959e-011
7.400189e-012
-8.579723e-013
-4.443254e-012
-4.584531e-012
-6.779104e-011
-4.280918e-011
-1.116213e-011
8.216631e-012
1.135177e-011
7.949771e-012
7.993614e-012
1.158901e-011
1.139430e-011
2.532250e-012
-1.153955e-011
-2.184271e-011
-2.127576e-011
-9.870756e-012
5.964662e-012
1.840779e-011
2.265832e-011
1.836462e-011
8.577889e-012
-2.305429e-012
-1.057917e-011
-1.465488e-011
-1.533308e-011
-1.469226e-011
-1.419650e-011
-1.341751e-011
-1.063606e-011
-5.060013e-012
1.426341e-012
5.153507e-012
3.920939e-012
-5.417181e-013
-3.825003e-012
-2.869445e-012
1.348328e-012
5.078903e-012
5.184944e-012
1.206101e-012
-4.912875e-012
-1.029000e-011
-1.281052e-011
-1.216974e-011
-9.255826e-012
-4.849849e-012
2.355149e-013
4.352668e-012
5.863766e-012
4.529992e-012
1.164228e-012
-3.062432e-012
-6.366192e-012
-6.949977e-012
-4.417408e-012
9.419190e-014
4.704769e-012
7.523805e-012
7.449391e-012
4.448278e-012
-7.257005e-013
-6.549285e-012
-1.113199e-011
-1.339444e-011
-1.351073e-011
-1.208962e-011
-9.491650e-012
-6.069746e-012
-2.554946e-012
7.605473e-014
1.127466e-012
7.534667e-013
1.973454e-014
5.870004e-014
9.133539e-013
1.332694e-012
-9.961497e-014
-3.664726e-012
-8.322544e-012
-1.260985e-011
-1.557725e-011
-1.699946e-011
-1.703944e-011
-1.580360e-011
-1.294873e-011
-7.515174e-012
1.366291e-012
1.269880e-011
2.228918e-011
2.414899e-011
1.476077e-011
-2.907670e-012
-1.959792e-011
-2.530442e-011
-1.674511e-011
-3.418616e-013
1.294318e-011
1.623114e-011
1.051429e-011
1.542629e-012
-5.536285e-012
-8.912614e-012
-2.053768e-011
-1.553679e-011
-7.620347e-012
-1.290269e-013
4.661530e-012
6.760951e-012
6.538947e-012
3.360500e-012
-2.440489e-012
-7.940927e-012
-9.162863e-012
-3.895183e-012
6.105238e-012
1.527508e-011
1.778376e-011
1.152587e-011
-9.253492e-013
-1.438233e-011
-2.388158e-011
-2.655420e-011
-2.225448e-011
-1.329694e-011
-3.312454e-012
4.593768e-012
9.498912e-012
1.283227e-011
1.664046e-011
2.125191e-011
2.462871e-011
2.435318e-011
2.045293e-011
1.597658e-011
1.440191e-011
1.649708e-011
1.988603e-011
2.142663e-011
1.963543e-011
1.523930e-011
1.024712e-011
6.444138e-012
4.071022e-012
2.011245e-012
-4.709329e-013
-2.967940e-012
-5.146827e-012
-7.204200e-012
-8.618696e-012
-8.089439e-012
-4.984164e-012
3.508114e-013
6.795865e-012
1.166670e-011
1.178626e-011
6.694799e-012
-9.980296e-013
-8.358826e-012
-1.357489e-011
-1.588872e-011
-1.560300e-011
-1.343644e-011
-9.578488e-012
-4.000576e-012
2.583269e-012
8.925562e-012
1.430297e-011
1.876283e-011
2.249528e-011
2.537046e-011
2.702698e-011
2.733939e-011
2.686828e-011
2.669684e-011
2.749444e-011
2.872348e-011
2.897372e-011
2.715790e-011
2.329201e-011
1.814858e-011
1.230519e-011
5.586100e-012
-2.636973e-012
-1.248591e-011
-2.249532e-011
-2.931048e-011
-2.909104e-011
-2.032864e-011
-5.952592e-012
7.665022e-012
1.460771e-011
1.325768e-011
6.885593e-012
5.154935e-013
-2.928363e-012
-3.498321e-012
-1.975106e-012
1.211737e-012
4.106945e-012
3.463052e-012
-1.107131e-012
-5.555594e-012
2.051974e-011
6.455516e-012
-5.418508e-012
-3.212132e-012
7.323418e-012
1.116070e-011
7.597852e-013
-1.642055e-011
-2.520411e-011
-1.677664e-011
4.456803e-012
2.579548e-011
3.537226e-011
2.857953e-011
9.482330e-012
-1.276481e-011
-2.933180e-011
-3.540607e-011
-3.092890e-011
-1.911584e-011
-4.500769e-012
8.544740e-012
1.699191e-011
2.014174e-011
1.978995e-011
1.881690e-011
1.883000e-011
1.885723e-011
1.666301e-011
1.166635e-011
6.349132e-012
4.234046e-012
6.363853e-012
1.021827e-011
1.228279e-011
1.121698e-011
8.397873e-012
6.181772e-012
6.161049e-012
8.236617e-012
1.057255e-011
1.090089e-011
8.197646e-012
2.729719e-012
-4.721783e-012
-1.231989e-011
-1.698065e-011
-1.633277e-011
-1.019686e-011
-2.933876e-013
9.713110e-012
1.468188e-011
1.128301e-011
1.022877e-012
-1.107267e-011
-2.009093e-011
-2.332188e-011
-2.050081e-011
-1.338169e-011
-4.814445e-012
2.848833e-012
8.819355e-012
1.317249e-011
1.585497e-011
1.689223e-011
1.683499e-011
1.652759e-011
1.654754e-011
1.683366e-011
1.679806e-011
1.604754e-011
1.513980e-011
1.529668e-011
1.717953e-011
2.011898e-011
2.274771e-011
2.423535e-011
2.471147e-011
2.448743e-011
2.301375e-011
1.872951e-011
1.016369e-011
-2.441639e-012
-1.638144e-011
-2.755320e-011
-3.258243e-011
-3.012416e-011
-2.049160e-011
-5.047250e-012
1.304952e-011
2.766707e-011
3.111534e-011
1.968790e-011
-9.147297e-013
-1.755992e-011
-1.990513e-011
-9.716369e-012
1.715379e-012
6.142694e-012
5.477636e-012
3.439029e-011
1.381532e-011
-3.273451e-012
-2.950986e-013
1.224800e-011
1.202825e-011
-7.563984e-012
-2.961952e-011
-3.195321e-011
-9.689863e-012
2.109758e-011
3.854510e-011
3.218624e-011
8.746105e-012
-1.578632e-011
-2.867348e-011
-2.659607e-011
-1.402273e-011
1.672577e-012
1.434094e-011
2.066672e-011
2.001999e-011
1.389458e-011
5.413871e-012
-1.730057e-012
-5.262108e-012
-5.979359e-012
-7.089512e-012
-1.101840e-011
-1.650386e-011
-1.934470e-011
-1.666568e-011
-1.028639e-011
-5.265948e-012
-5.092372e-012
-8.780947e-012
-1.242958e-011
-1.265507e-011
-8.572060e-012
-1.806761e-012
4.732794e-012
8.671296e-012
9.087334e-012
6.107639e-012
9.318311e-013
-3.664186e-012
-4.937759e-012
-2.617642e-012
1.505735e-012
4.973120e-012
5.300505e-012
2.170686e-012
-1.693207e-012
-3.995990e-012
-4.772246e-012
-4.263661e-012
-2.161649e-012
1.413827e-012
5.856031e-012
9.843038e-012
1.156624e-011
1.030338e-011
6.867373e-012
2.435312e-012
-2.225099e-012
-6.560492e-012
-9.943030e-012
-1.186003e-011
-1.239258e-011
-1.249876e-011
-1.342706e-011
-1.542610e-011
-1.722925e-011
-1.718722e-011
-1.487204e-011
-1.126842e-011
-7.469082e-012
-3.496931e-012
1.422511e-012
7.573514e-012
1.389166e-011
1.844403e-011
1.961369e-011
1.662281e-011
9.035348e-012
-3.210899e-012
-1.793356e-011
-2.876432e-011
-2.710005e-011
-9.084589e-012
1.776031e-011
3.629966e-011
3.243609e-011
8.602372e-012
-1.742854e-011
-2.836506e-011
-2.084256e-011
-4.402318e-012
9.638393e-012
1.649732e-011
2.580415e-011
1.299427e-011
2.415646e-012
3.071178e-012
6.738197e-012
9.105690e-013
-1.318056e-011
-2.055699e-011
-1.012534e-011
1.144756e-011
2.517211e-011
1.782264e-011
-5.359217e-012
-2.575073e-011
-2.870521e-011
-1.413859e-011
7.543294e-012
2.501556e-011
3.219744e-011
2.889147e-011
1.823626e-011
4.312921e-012
-8.947342e-012
-1.811713e-011
-2.116072e-011
-1.883043e-011
-1.489127e-011
-1.372291e-011
-1.654771e-011
-1.999439e-011
-1.921216e-011
-1.299215e-011
-5.430596e-012
-2.089559e-012
-4.781026e-012
-1.043939e-011
-1.438648e-011
-1.386518e-011
-9.161420e-012
-2.755443e-012
2.438255e-012
4.795714e-012
4.381697e-012
2.567048e-012
1.949364e-012
5.105793e-012
1.165878e-011
1.755331e-011
1.837091e-011
1.214505e-011
6.382895e-013
-9.216255e-012
-9.505115e-012
2.312032e-014
1.226180e-011
2.088070e-011
2.355902e-011
2.094782e-011
1.593964e-011
1.126922e-011
7.299372e-012
3.021720e-012
-1.980303e-012
-7.130518e-012
-1.170180e-011
-1.528477e-011
-1.763983e-011
-1.859750e-011
-1.823532e-011
-1.732745e-011
-1.729181e-011
-1.908844e-011
-2.207776e-011
-2.443258e-011
-2.490007e-011
-2.387514e-011
-2.260887e-011
-2.158529e-011
-1.990830e-011
-1.611000e-011
-9.247869e-012
7.835720e-013
1.328252e-011
2.604207e-011
3.437878e-011
3.231093e-011
1.710885e-011
-6.095991e-012
-2.499435e-011
-2.788402e-011
-1.302592e-011
8.577479e-012
2.089747e-011
1.618126e-011
2.973925e-013
-1.463532e-011
-1.922444e-011
-1.073608e-011
5.436023e-012
1.811072e-011
1.412973e-011
1.499971e-011
1.161828e-011
9.637403e-013
-1.223294e-011
-1.825077e-011
-1.049806e-011
8.154789e-012
2.526079e-011
2.650164e-011
7.179590e-012
-2.154408e-011
-3.919900e-011
-3.305840e-011
-8.841855e-012
1.684193e-011
3.089847e-011
3.034516e-011
2.007142e-011
6.853831e-012
-4.737890e-012
-1.268290e-011
-1.611027e-011
-1.446215e-011
-8.336189e-012
-5.938175e-013
4.392756e-012
3.869831e-012
-4.739462e-013
-3.469522e-012
-1.254217e-012
4.736345e-012
9.108558e-012
7.951367e-012
2.368137e-012
-3.261771e-012
-5.409389e-012
-3.455867e-012
7.886370e-013
4.455731e-012
5.144426e-012
2.270520e-012
-2.654762e-012
-6.450999e-012
-5.477383e-012
1.319509e-012
1.032683e-011
1.552917e-011
1.302080e-011
3.601649e-012
-7.471823e-012
-1.306533e-011
-9.299406e-012
1.129709e-012
1.209249e-011
1.852181e-011
1.788622e-011
1.129360e-011
3.096161e-012
-2.462681e-012
-4.025883e-012
-3.237286e-012
-2.535294e-012
-2.933236e-012
-4.064287e-012
-5.159823e-012
-5.688563e-012
-5.439081e-012
-4.270689e-012
-2.342695e-012
-5.791924e-013
-3.104229e-013
-1.911834e-012
-4.142594e-012
-5.329669e-012
-5.132380e-012
-4.839700e-012
-5.976682e-012
-8.854370e-012
-1.235055e-011
-1.453134e-011
-1.322919e-011
-6.662699e-012
5.137201e-012
1.887764e-011
2.857678e-011
2.896031e-011
1.880120e-011
1.537816e-012
-1.648883e-011
-2.775723e-011
-2.557395e-011
-9.676482e-012
9.960050e-012
1.924351e-011
1.190605e-011
-3.577208e-012
-1.095363e-011
-3.698727e-012
7.244654e-012
1.313268e-011
2.270567e-011
1.904012e-011
-7.195134e-012
-3.368008e-011
-3.147587e-011
1.600142e-012
3.775172e-011
4.533214e-011
1.722017e-011
-2.357916e-011
-4.472792e-011
-3.260155e-011
-1.842061e-012
2.214091e-011
2.621838e-011
1.440639e-011
-1.460852e-012
-1.175600e-011
-1.395942e-011
-1.090609e-011
-6.197771e-012
-1.239611e-012
4.383043e-012
1.035899e-011
1.430090e-011
1.336556e-011
7.650282e-012
1.374518e-012
-3.614970e-013
3.332178e-012
7.898912e-012
7.862601e-012
2.372637e-012
-4.425985e-012
-7.887446e-012
-6.659082e-012
-2.518472e-012
1.538099e-012
2.800211e-012
1.073352e-014
-5.737282e-012
-1.126847e-011
-1.294739e-011
-9.277648e-012
-3.313685e-012
-5.877062e-013
-3.741979e-012
-1.075081e-011
-1.641002e-011
-1.570671e-011
-9.601543e-012
-4.793865e-012
-4.694766e-012
-6.332567e-012
-7.298176e-012
-8.283369e-012
-9.684004e-012
-1.120114e-011
-1.210947e-011
-1.097600e-011
-7.761518e-012
-4.281759e-012
-2.125411e-012
-1.564441e-012
-1.788121e-012
-1.919268e-012
-1.559605e-012
-4.607381e-013
1.648600e-012
4.473758e-012
6.676184e-012
6.972074e-012
5.679915e-012
4.638059e-012
5.256991e-012
7.025061e-012
8.021681e-012
6.674982e-012
2.866928e-012
-2.184848e-012
-6.730257e-012
-9.290829e-012
-9.382503e-012
-7.301187e-012
-2.941270e-012
4.743675e-012
1.501019e-011
2.156740e-011
1.475495e-011
-8.108606e-012
-3.256680e-011
-3.538756e-011
-1.057301e-011
2.038499e-011
3.098195e-011
1.732908e-011
-2.058228e-012
-1.072775e-011
-1.025967e-011
2.075617e-011
2.864158e-011
1.797438e-011
-1.661051e-011
-4.205779e-011
-2.695451e-011
1.790666e-011
4.848704e-011
3.356085e-011
-1.189762e-011
-4.249234e-011
-3.089153e-011
5.984589e-012
3.099205e-011
2.693418e-011
5.090379e-012
-1.497523e-011
-2.200632e-011
-1.659739e-011
-6.643255e-012
4.625673e-013
2.458445e-012
1.888953e-012
2.135273e-012
3.631153e-012
3.779111e-012
3.890898e-013
-4.803673e-012
-6.916530e-012
-2.854897e-012
4.613418e-012
8.915884e-012
6.173662e-012
-9.596518e-013
-6.436771e-012
-6.639778e-012
-2.586798e-012
2.181603e-012
4.120587e-012
1.199341e-012
-5.737169e-012
-1.262200e-011
-1.413340e-011
-7.807787e-012
2.696224e-012
8.660334e-012
3.758221e-012
-8.646950e-012
-1.873649e-011
-1.849158e-011
-6.939436e-012
6.578831e-012
9.230617e-012
-2.344939e-013
-1.157368e-011
-1.665580e-011
-1.403912e-011
-7.098654e-012
-2.520257e-012
-3.772177e-012
-7.609988e-012
-9.446115e-012
-7.800656e-012
-4.201344e-012
-9.103927e-013
1.167821e-012
2.315677e-012
3.089954e-012
3.916967e-012
5.327332e-012
7.583589e-012
9.731481e-012
1.003498e-011
7.806861e-012
4.490562e-012
2.237533e-012
1.738966e-012
1.726748e-012
6.598995e-013
-1.582538e-012
-3.559925e-012
-3.933424e-012
-3.322637e-012
-4.655094e-012
-1.027811e-011
-1.759760e-011
-1.841078e-011
-5.738710e-012
1.613982e-011
3.077234e-011
2.167857e-011
-9.022859e-012
-3.477901e-011
-2.968289e-011
1.201424e-012
2.834988e-011
3.082766e-011
1.243887e-011
-1.029223e-011
-2.432627e-011
2.554889e-011
2.355346e-011
6.105316e-012
-2.108040e-011
-2.962521e-011
-5.242150e-012
2.852219e-011
3.290208e-011
-5.684182e-013
-3.545471e-011
-3.183299e-011
4.980565e-012
3.382617e-011
2.960031e-011
5.210859e-012
-1.435785e-011
-1.792042e-011
-9.395892e-012
5.568855e-013
3.629100e-012
-9.357616e-013
-7.985704e-012
-1.128406e-011
-8.542022e-012
-2.725290e-012
1.126813e-012
9.624686e-013
-3.959650e-014
3.108525e-012
1.131802e-011
1.945443e-011
2.130670e-011
1.615802e-011
9.531926e-012
7.454447e-012
1.128896e-011
1.787869e-011
2.261179e-011
2.168067e-011
1.376654e-011
1.993829e-012
-6.695835e-012
-5.822655e-012
4.828033e-012
1.754770e-011
2.216810e-011
1.469186e-011
2.091485e-012
-3.932180e-012
1.775129e-012
1.456987e-011
2.427421e-011
2.331303e-011
1.367120e-011
3.346523e-012
-1.082102e-012
2.773173e-012
1.038301e-011
1.317263e-011
8.432954e-012
9.885248e-013
-2.914779e-012
-9.979778e-014
7.551367e-012
1.549742e-011
2.054626e-011
2.219051e-011
2.172154e-011
2.050032e-011
1.966409e-011
2.003739e-011
2.135344e-011
2.198038e-011
2.036470e-011
1.682195e-011
1.307461e-011
1.009258e-011
6.818373e-012
1.598483e-012
-5.417614e-012
-1.135880e-011
-1.270345e-011
-8.830053e-012
-3.842177e-012
-3.647980e-012
-9.552215e-012
-1.537198e-011
-1.214962e-011
2.191345e-012
1.987961e-011
2.819098e-011
1.654615e-011
-1.045158e-011
-2.948584e-011
-2.125817e-011
6.924637e-012
2.856241e-011
2.390378e-011
-2.827887e-012
-2.745443e-011
1.906034e-011
5.684930e-012
-1.167067e-011
-1.668172e-011
-1.359553e-012
2.082812e-011
2.459437e-011
-3.438184e-013
-3.123333e-011
-3.215912e-011
2.646859e-013
2.926789e-011
2.617277e-011
3.206843e-012
-1.203776e-011
-1.037298e-011
1.482280e-014
7.614206e-012
5.500493e-012
-4.126060e-012
-1.305972e-011
-1.426707e-011
-6.225613e-012
6.317030e-012
1.597789e-011
1.787142e-011
1.340323e-011
8.880210e-012
9.514651e-012
1.412055e-011
1.649201e-011
1.239677e-011
4.485471e-012
-4.926293e-013
1.653434e-012
9.608734e-012
1.891284e-011
2.482600e-011
2.397292e-011
1.617379e-011
6.194774e-012
1.067390e-012
4.081956e-012
1.094171e-011
1.328769e-011
8.007307e-012
5.264376e-014
-2.972757e-012
2.817421e-012
1.305148e-011
1.871995e-011
1.682253e-011
1.265042e-011
1.030561e-011
8.059553e-012
5.163941e-012
3.963343e-012
4.248549e-012
4.607072e-012
5.309149e-012
5.882713e-012
6.920317e-012
1.082500e-011
1.732233e-011
2.315430e-011
2.505125e-011
2.233055e-011
1.702051e-011
1.147641e-011
7.387624e-012
5.774419e-012
6.926897e-012
9.749072e-012
1.249600e-011
1.454017e-011
1.686576e-011
2.021464e-011
2.313125e-011
2.245066e-011
1.610439e-011
5.496620e-012
-4.850755e-012
-1.060962e-011
-1.074306e-011
-7.906132e-012
-5.086271e-012
-3.444935e-012
-2.210582e-012
-7.259857e-013
2.072134e-012
1.019313e-011
1.994178e-011
1.492191e-011
-8.973058e-012
-2.749367e-011
-1.688669e-011
1.173615e-011
2.416645e-011
6.249907e-012
-1.839529e-011
1.397933e-012
-1.805799e-011
-2.615979e-011
-3.495839e-012
2.960683e-011
3.609039e-011
5.339709e-012
-3.338460e-011
-3.903525e-011
-4.991874e-012
2.878820e-011
2.577462e-011
-1.188723e-012
-1.641777e-011
-9.914098e-012
3.742973e-012
1.071863e-011
5.816751e-012
-6.424566e-012
-1.419539e-011
-9.799684e-012
4.834261e-012
2.124472e-011
3.021442e-011
2.703255e-011
1.359466e-011
-2.381641e-012
-1.251098e-011
-1.404655e-011
-1.184701e-011
-1.312569e-011
-1.980265e-011
-2.683836e-011
-2.804104e-011
-2.196229e-011
-1.204810e-011
-2.868716e-012
2.022786e-012
1.441767e-012
-1.810660e-012
-1.351202e-012
6.841525e-012
1.822331e-011
2.171907e-011
9.970246e-012
-9.546678e-012
-1.973764e-011
-1.271919e-011
3.834225e-012
1.537747e-011
1.248181e-011
8.561219e-013
-4.745653e-012
-4.039601e-013
4.157699e-012
1.973089e-012
-4.776075e-012
-9.157062e-012
-3.921388e-012
9.183345e-012
1.906941e-011
1.983711e-011
1.477793e-011
8.823448e-012
4.086946e-012
-8.993931e-013
-7.720156e-012
-1.570764e-011
-2.315195e-011
-2.869183e-011
-3.173320e-011
-3.188458e-011
-2.963288e-011
-2.618654e-011
-2.217436e-011
-1.634745e-011
-6.697723e-012
6.906704e-012
2.133259e-011
3.150670e-011
3.313079e-011
2.511365e-011
1.006437e-011
-5.728585e-012
-1.472985e-011
-1.230297e-011
-2.091887e-012
5.544055e-012
3.522190e-012
-6.142935e-012
-9.701189e-012
5.318821e-012
2.374797e-011
1.606115e-011
-1.364630e-011
-2.775436e-011
-1.039633e-011
1.142540e-011
1.113240e-011
-1.445369e-012
-2.170417e-011
-3.806898e-011
-2.997925e-011
1.459192e-011
5.053075e-011
3.333867e-011
-2.077940e-011
-5.113394e-011
-2.371245e-011
2.567994e-011
3.684514e-011
5.492478e-012
-2.075889e-011
-1.640162e-011
9.919783e-013
1.005522e-011
4.850375e-012
-8.828019e-012
-1.580312e-011
-5.682675e-012
1.504599e-011
3.177173e-011
3.398467e-011
2.045305e-011
-2.489204e-012
-2.521472e-011
-3.837887e-011
-3.815928e-011
-2.829598e-011
-1.831814e-011
-1.466064e-011
-1.615792e-011
-1.589234e-011
-9.360080e-012
1.932498e-012
1.284755e-011
1.897833e-011
1.849018e-011
1.379162e-011
1.232231e-011
2.229927e-011
4.380654e-011
6.470644e-011
7.005222e-011
5.536681e-011
3.339394e-011
2.478884e-011
3.555287e-011
5.186836e-011
5.785168e-011
4.959205e-011
3.662149e-011
3.194503e-011
3.736705e-011
4.400915e-011
4.478212e-011
4.018601e-011
3.856994e-011
4.788924e-011
6.185785e-011
6.651578e-011
5.731559e-011
3.944630e-011
2.172560e-011
1.072008e-011
5.833485e-012
2.891467e-012
-1.112214e-012
-6.546319e-012
-1.257949e-011
-1.856409e-011
-2.382152e-011
-2.834855e-011
-3.296099e-011
-3.872845e-011
-4.430371e-011
-4.623014e-011
-3.984739e-011
-2.347671e-011
7.173778e-013
2.562065e-011
4.141828e-011
3.930504e-011
1.919664e-011
-6.101361e-012
-1.803276e-011
-9.967730e-012
3.260485e-012
4.770232e-012
-6.395220e-012
-1.728755e-011
-9.479324e-012
1.673539e-011
2.993787e-011
8.818216e-012
-2.194857e-011
-2.729906e-011
-8.712489e-012
9.547185e-012
1.666474e-011
-4.380813e-011
-4.805704e-011
-2.166490e-011
3.155680e-011
5.485035e-011
1.585891e-011
-4.170908e-011
-4.849681e-011
1.609203e-012
4.190306e-011
2.563764e-011
-1.264833e-011
-2.175076e-011
-5.094481e-012
7.461736e-012
3.901675e-012
-1.007010e-011
-1.713255e-011
-2.742322e-012
2.290138e-011
3.616619e-011
2.641244e-011
4.371671e-013
-2.725342e-011
-4.523646e-011
-4.761905e-011
-3.428357e-011
-9.225636e-012
1.746384e-011
3.900395e-011
5.305148e-011
6.733914e-011
8.946009e-011
1.210028e-010
1.560927e-010
1.863670e-010
2.056336e-010
2.123433e-010
2.116888e-010
2.145506e-010
2.293319e-010
2.529188e-010
2.713525e-010
2.749290e-010
2.679278e-010
2.620279e-010
2.661142e-010
2.772005e-010
2.829344e-010
2.776309e-010
2.673831e-010
2.600487e-010
2.584018e-010
2.615110e-010
2.678893e-010
2.744491e-010
2.771787e-010
2.772201e-010
2.771803e-010
2.738609e-010
2.647824e-010
2.508952e-010
2.332081e-010
2.168172e-010
2.072060e-010
2.027734e-010
1.972415e-010
1.848837e-010
1.645961e-010
1.388881e-010
1.114244e-010
8.556390e-011
6.310779e-011
4.320886e-011
2.325513e-011
-8.164004e-014
-2.474622e-011
-4.707699e-011
-5.869128e-011
-5.357247e-011
-2.957342e-011
5.920359e-012
3.599089e-011
4.260058e-011
2.298112e-011
-4.079962e-012
-1.378806e-011
-5.858664e-012
-3.983852e-013
-5.398344e-012
-1.393549e-011
-1.409472e-011
4.346639e-012
2.813996e-011
2.581217e-011
-6.012967e-012
-3.287191e-011
-2.724055e-011
3.162648e-012
2.973878e-011
-6.021472e-011
-4.687417e-011
-5.344715e-012
4.172024e-011
4.317873e-011
-6.926665e-012
-4.873961e-011
-2.993144e-011
2.256899e-011
3.861591e-011
6.929091e-012
-1.799977e-011
-9.974350e-012
4.226702e-012
3.003788e-012
-9.741261e-012
-1.669837e-011
-1.220142e-013
2.924701e-011
3.716322e-011
1.192553e-011
-2.562349e-011
-4.965714e-011
-4.945132e-011
-2.912591e-011
1.594176e-012
3.878578e-011
7.415311e-011
1.133914e-010
1.511608e-010
2.066429e-010
2.880687e-010
4.043513e-010
5.480720e-010
7.024153e-010
8.481420e-010
9.702580e-010
1.062797e-009
1.130474e-009
1.184005e-009
1.228878e-009
1.260469e-009
1.271276e-009
1.266839e-009
1.267233e-009
1.283713e-009
1.306677e-009
1.319212e-009
1.313858e-009
1.299133e-009
1.289609e-009
1.289299e-009
1.291565e-009
1.293338e-009
1.298944e-009
1.308496e-009
1.313633e-009
1.306973e-009
1.288084e-009
1.265200e-009
1.250064e-009
1.241485e-009
1.226819e-009
1.199181e-009
1.156874e-009
1.096872e-009
1.014448e-009
9.057907e-010
7.739982e-010
6.296437e-010
4.875988e-010
3.618678e-010
2.618981e-010
1.905661e-010
1.398767e-010
1.048849e-010
6.772422e-011
3.136945e-011
-1.028175e-011
-4.580093e-011
-6.513232e-011
-5.670811e-011
-2.181649e-011
2.022222e-011
4.194270e-011
3.018552e-011
3.635500e-012
-1.024598e-011
-1.071397e-011
-8.577835e-012
-7.465576e-012
-8.996586e-012
-4.210104e-012
1.597348e-011
3.011099e-011
1.040504e-011
-2.700224e-011
-3.686789e-011
-4.462589e-012
3.402456e-011
-6.829293e-011
-3.704119e-011
1.250512e-011
4.200952e-011
2.115509e-011
-2.549649e-011
-3.999845e-011
-4.683609e-012
3.131866e-011
2.186118e-011
-7.780465e-012
-1.138218e-011
2.296189e-012
2.921770e-012
-9.327889e-012
-1.616813e-011
5.377216e-014
3.226096e-011
3.885584e-011
7.638018e-013
-4.625157e-011
-6.052974e-011
-3.545314e-011
9.042397e-012
4.874991e-011
8.402027e-011
1.110561e-010
1.739571e-010
2.527020e-010
4.315813e-010
6.955305e-010
1.101929e-009