# vtk DataFile Version 3.0
vtk output
ASCII
DATASET STRUCTURED_POINTS
DIMENSIONS 100 100 1
SPACING 1 1 1
ORIGIN 0 0 0
POINT_DATA 10000
SCALARS SFBox_profile double
LOOKUP_TABLE default 
0.000000e+000
0.000000e+000
0.000000e+000
0.000000e+000
0.000000e+000
0.000000e+000
0.000000e+000
0.000000e+000
0.000000e+000
0.000000e+000
0.000000e+000
0.000000e+000
0.000000e+000
0.000000e+000
0.000000e+000
0.000000e+000
0.000000e+000
0.000000e+000
0.000000e+000
0.000000e+000
0.000000e+000
0.000000e+000
0.000000e+000
0.000000e+000
0.000000e+000
0.000000e+000
0.000000e+000
0.000000e+000
0.000000e+000
0.000000e+000
0.000000e+000
0.000000e+000
0.000000e+000
0.000000e+000
0.000000e+000
0.000000e+000
0.000000e+000
0.000000e+000
0.000000e+000
0.000000e+000
0.000000e+000
0.000000e+000
0.000000e+000
0.000000e+000
0.000000e+000
0.000000e+000
0.000000e+000
0.000000e+000
0.000000e+000
0.000000e+000
0.000000e+000
0.000000e+000
0.000000e+000
0.000000e+000
0.000000e+000
0.000000e+000
0.000000e+000
0.000000e+000
0.000000e+000
0.000000e+000
0.000000e+000
0.000000e+000
0.000000e+000
0.000000e+000
0.000000e+000
0.000000e+000
0.000000e+000
0.000000e+000
0.000000e+000
0.000000e+000
0.000000e+000
0.000000e+000
0.000000e+000
0.000000e+000
0.000000e+000
0.000000e+000
0.000000e+000
0.000000e+000
0.000000e+000
0.000000e+000
0.000000e+000
0.000000e+000
0.000000e+000
0.000000e+000
0.000000e+000
0.000000e+000
0.000000e+000
0.000000e+000
0.000000e+000
0.000000e+000
0.000000e+000
0.000000e+000
0.000000e+000
0.000000e+000
0.000000e+000
0.000000e+000
0.000000e+000
0.000000e+000
0.000000e+000
0.000000e+000
-2.306999e-009
-1.058002e-009
6.734026e-010
1.937551e-009
2.096841e-009
1.133090e-009
-3.831768e-010
-1.633472e-009
-2.005532e-009
-1.402332e-009
-2.369739e-010
8.609994e-010
1.424771e-009
1.370931e-009
9.430990e-010
4.608797e-010
8.412602e-011
-2.363847e-010
-6.176534e-010
-1.063333e-009
-1.411010e-009
-1.449941e-009
-1.097603e-009
-4.765941e-010
1.718335e-010
6.567344e-010
9.442283e-010
1.124496e-009
1.289290e-009
1.439694e-009
1.499343e-009
1.402843e-009
1.165622e-009
8.722927e-010
6.049413e-010
3.850363e-010
1.788368e-010
-5.043232e-011
-3.005788e-010
-5.355482e-010
-7.231333e-010
-8.624638e-010
-9.766771e-010
-1.085015e-009
-1.186055e-009
-1.266104e-009
-1.318182e-009
-1.348948e-009
-1.368678e-009
-1.379454e-009
-1.376379e-009
-1.358463e-009
-1.333218e-009
-1.307370e-009
-1.275082e-009
-1.220627e-009
-1.135859e-009
-1.032616e-009
-9.320671e-010
-8.385938e-010
-7.274507e-010
-5.652812e-010
-3.468004e-010
-1.078194e-010
1.055227e-010
2.840768e-010
4.675980e-010
6.999639e-010
9.670520e-010
1.183615e-009
1.253267e-009
1.150419e-009
9.422461e-010
7.218224e-010
5.139496e-010
2.514607e-010
-1.425860e-010
-6.381818e-010
-1.064538e-009
-1.209446e-009
-9.786883e-010
-4.787989e-010
5.297161e-011
4.146978e-010
5.611618e-010
5.825111e-010
5.723979e-010
5.167397e-010
3.122408e-010
-9.881404e-011
-6.039757e-010
-9.350277e-010
-8.371727e-010
-2.743678e-010
4.923257e-010
1.032652e-009
1.010888e-009
4.110868e-010
-4.325199e-010
-1.029044e-009
-4.806108e-010
-2.398248e-010
1.048842e-010
3.738086e-010
4.292430e-010
2.471117e-010
-6.411698e-011
-3.192331e-010
-3.656513e-010
-1.821907e-010
1.024147e-010
2.931904e-010
2.629781e-010
4.154168e-011
-2.083677e-010
-3.120843e-010
-2.090051e-010
1.333514e-011
1.995086e-010
2.503381e-010
1.879068e-010
1.136432e-010
1.053948e-010
1.484749e-010
1.584758e-010
6.743302e-011
-1.099353e-010
-2.887234e-010
-3.876404e-010
-3.925826e-010
-3.546324e-010
-3.326030e-010
-3.393991e-010
-3.401507e-010
-2.956111e-010
-2.031125e-010
-9.677584e-011
-1.304865e-011
4.033175e-011
8.326178e-011
1.369992e-010
2.026319e-010
2.640460e-010
3.072616e-010
3.333283e-010
3.531773e-010
3.739006e-010
3.930182e-010
4.050757e-010
4.099294e-010
4.118867e-010
4.120103e-010
4.051307e-010
3.867952e-010
3.614611e-010
3.397633e-010
3.255068e-010
3.075254e-010
2.688703e-010
2.061991e-010
1.374649e-010
8.557184e-011
5.247487e-011
1.286530e-011
-6.077527e-011
-1.645069e-010
-2.576697e-010
-2.972007e-010
-2.800158e-010
-2.481815e-010
-2.461749e-010
-2.705450e-010
-2.658675e-010
-1.779414e-010
-1.561519e-011
1.421356e-010
2.077036e-010
1.608326e-010
6.661909e-011
1.560006e-011
4.054206e-011
8.866348e-011
7.678288e-011
-2.184835e-011
-1.417559e-010
-1.773163e-010
-7.860188e-011
9.468140e-011
2.118482e-010
1.735341e-010
-5.728963e-012
-2.021287e-010
-2.716763e-010
-1.557410e-010
7.518775e-011
2.693836e-010
2.970515e-010
1.366956e-010
-1.116837e-010
-2.920653e-010
1.749304e-009
7.681158e-010
-5.677326e-010
-1.503627e-009
-1.571178e-009
-8.069789e-010
3.250840e-010
1.231744e-009
1.514464e-009
1.134895e-009
3.569864e-010
-4.546985e-010
-1.029646e-009
-1.268154e-009
-1.195874e-009
-8.768716e-010
-3.694887e-010
2.558518e-010
8.841892e-010
1.365167e-009
1.571461e-009
1.460866e-009
1.089999e-009
5.707422e-010
8.609376e-012
-5.297556e-010
-1.007280e-009
-1.391720e-009
-1.648127e-009
-1.754448e-009
-1.718616e-009
-1.575329e-009
-1.364168e-009
-1.110183e-009
-8.233551e-010
-5.123942e-010
-1.948972e-010
1.069639e-010
3.787196e-010
6.195047e-010
8.358782e-010
1.031325e-009
1.202448e-009
1.343964e-009
1.455116e-009
1.540346e-009
1.604912e-009
1.651477e-009
1.680891e-009
1.694479e-009
1.693966e-009
1.679516e-009
1.649628e-009
1.603970e-009
1.545259e-009
1.476418e-009
1.395324e-009
1.293950e-009
1.164703e-009
1.007820e-009
8.307309e-010
6.386339e-010
4.265923e-010
1.837323e-010
-9.263837e-011
-3.874082e-010
-6.736672e-010
-9.285639e-010
-1.141329e-009
-1.303761e-009
-1.394154e-009
-1.375776e-009
-1.217323e-009
-9.185465e-010
-5.165767e-010
-6.754781e-011
3.758121e-010
7.667199e-010
1.048433e-009
1.148118e-009
1.004814e-009
6.203726e-010
9.015544e-011
-4.226180e-010
-7.603807e-010
-8.425744e-010
-6.865000e-010
-3.731127e-010
2.675727e-012
3.549437e-010
5.994150e-010
6.508762e-010
4.571852e-010
5.707435e-011
-3.931660e-010
-6.723493e-010
-6.157833e-010
-2.301626e-010
2.859248e-010
6.460642e-010
2.642003e-009
1.189670e-009
-7.976112e-010
-2.203545e-009
-2.319097e-009
-1.186387e-009
4.893012e-010
1.783838e-009
2.080098e-009
1.366422e-009
1.536527e-010
-8.969848e-010
-1.368980e-009
-1.257445e-009
-8.421254e-010
-4.130888e-010
-7.612947e-011
2.354714e-010
6.009822e-010
9.741601e-010
1.192269e-009
1.110839e-009
7.318028e-010
2.101551e-010
-2.586145e-010
-5.657384e-010
-7.274684e-010
-8.214382e-010
-8.958796e-010
-9.343324e-010
-8.925519e-010
-7.564972e-010
-5.621513e-010
-3.654797e-010
-1.994518e-010
-5.949447e-011
7.609220e-011
2.175824e-010
3.549625e-010
4.715076e-010
5.609722e-010
6.309761e-010
6.926666e-010
7.498121e-010
7.978136e-010
8.311600e-010
8.501646e-010
8.605618e-010
8.677245e-010
8.721016e-010
8.702821e-010
8.600097e-010
8.435543e-010
8.256103e-010
8.076811e-010
7.851657e-010
7.512481e-010
7.043405e-010
6.506166e-010
5.970424e-010
5.410342e-010
4.689803e-010
3.682670e-010
2.417578e-010
1.074436e-010
-2.020899e-011
-1.485499e-010
-3.009546e-010
-4.861892e-010
-6.724289e-010
-7.981793e-010
-8.176482e-010
-7.382046e-010
-6.079275e-010
-4.597886e-010
-2.698571e-010
1.725410e-011
4.075159e-010
7.983724e-010
1.013386e-009
9.207400e-010
5.406469e-010
4.417910e-011
-3.628736e-010
-5.739791e-010
-6.194755e-010
-5.832500e-010
-4.882836e-010
-2.710037e-010
1.218984e-010
6.057076e-010
9.368275e-010
8.541919e-010
2.927387e-010
-5.041560e-010
-1.088795e-009
-1.084959e-009
-4.509311e-010
4.624122e-010
1.114825e-009
1.488262e-009
6.978199e-010
-3.946129e-010
-1.179968e-009
-1.251410e-009
-6.185691e-010
3.064835e-010
9.579959e-010
9.639888e-010
3.762836e-010
-3.749456e-010
-7.799032e-010
-5.965085e-010
4.980620e-013
5.715257e-010
7.412793e-010
4.507336e-010
-4.978086e-011
-4.335022e-010
-5.476071e-010
-4.804939e-010
-4.194867e-010
-4.519783e-010
-4.922034e-010
-3.826396e-010
-5.713216e-011
3.899225e-010
7.816495e-010
9.987646e-010
1.051926e-009
1.035116e-009
1.022169e-009
1.008167e-009
9.382555e-010
7.788070e-010
5.557070e-010
3.297185e-010
1.435659e-010
-4.822331e-012
-1.437249e-010
-2.908326e-010
-4.366470e-010
-5.589648e-010
-6.471945e-010
-7.103404e-010
-7.640867e-010
-8.142139e-010
-8.540115e-010
-8.757253e-010
-8.811819e-010
-8.795699e-010
-8.759954e-010
-8.650094e-010
-8.373471e-010
-7.923400e-010
-7.406311e-010
-6.918546e-010
-6.400539e-010
-5.651885e-010
-4.530244e-010
-3.132754e-010
-1.731682e-010
-4.841962e-011
7.801555e-011
2.408500e-010
4.493579e-010
6.603706e-010
8.032430e-010
8.404148e-010
8.028652e-010
7.563810e-010
7.249031e-010
6.510217e-010
4.470651e-010
9.898684e-011
-2.803879e-010
-5.166299e-010
-5.121765e-010
-3.314999e-010
-1.455592e-010
-7.947029e-011
-1.054107e-010
-8.631099e-011
6.758040e-011
2.815966e-010
3.623831e-010
1.781307e-010
-1.893187e-010
-4.715344e-010
-4.175239e-010
-1.207776e-011
4.790507e-010
6.893539e-010
4.265420e-010
-1.685018e-010
-7.043336e-010
-8.079206e-010
-3.877893e-010
2.954616e-010
8.005899e-010
-8.450192e-010
-3.306725e-010
3.387522e-010
7.639652e-010
7.518005e-010
3.825261e-010
-1.127259e-010
-5.301993e-010
-7.779854e-010
-8.317086e-010
-6.556726e-010
-2.052766e-010
4.761760e-010
1.174885e-009
1.560313e-009
1.378174e-009
6.418025e-010
-3.449544e-010
-1.170762e-009
-1.569027e-009
-1.543238e-009
-1.281651e-009
-9.589482e-010
-6.072214e-010
-1.549569e-010
4.316274e-010
1.057649e-009
1.547248e-009
1.776402e-009
1.760079e-009
1.617354e-009
1.459138e-009
1.308513e-009
1.117891e-009
8.479717e-010
5.221906e-010
2.087566e-010
-4.010495e-011
-2.260382e-010
-3.872431e-010
-5.524083e-010
-7.151154e-010
-8.487503e-010
-9.385761e-010
-9.953339e-010
-1.040292e-009
-1.082788e-009
-1.115336e-009
-1.128369e-009
-1.124755e-009
-1.116895e-009
-1.111200e-009
-1.099847e-009
-1.070847e-009
-1.024744e-009
-9.765652e-010
-9.376648e-010
-8.971534e-010
-8.270685e-010
-7.103857e-010
-5.620522e-010
-4.152823e-010
-2.820591e-010
-1.305357e-010
8.864405e-011
3.863519e-010
7.075680e-010
9.692301e-010
1.131918e-009
1.230104e-009
1.320676e-009
1.396091e-009
1.356831e-009
1.087849e-009
5.770410e-010
-4.040687e-011
-5.653373e-010
-8.747026e-010
-9.869639e-010
-9.922683e-010
-9.233627e-010
-7.072434e-010
-2.589901e-010
3.687413e-010
9.373741e-010
1.149593e-009
8.644093e-010
2.224321e-010
-4.295017e-010
-7.614020e-010
-6.619411e-010
-2.767161e-010
1.239708e-010
3.311981e-010
3.034998e-010
1.422986e-010
-1.342374e-011
-8.319164e-011
-7.403592e-011
-4.452401e-011
-2.591760e-009
-1.105759e-009
8.618477e-010
2.146920e-009
2.117228e-009
9.656535e-010
-5.271273e-010
-1.540709e-009
-1.683479e-009
-1.103042e-009
-2.469688e-010
4.819850e-010
9.148537e-010
1.070621e-009
1.002156e-009
7.150544e-010
2.212688e-010
-3.676564e-010
-8.415389e-010
-1.012888e-009
-8.504475e-010
-4.956357e-010
-1.440366e-010
9.765835e-011
2.526206e-010
3.929046e-010
5.338163e-010
6.122724e-010
5.609009e-010
3.907590e-010
1.941633e-010
6.769911e-011
3.614196e-011
5.001680e-011
4.979365e-011
2.589401e-011
1.770799e-011
6.304666e-011
1.565685e-010
2.575598e-010
3.316547e-010
3.794408e-010
4.257754e-010
4.877345e-010
5.577109e-010
6.160306e-010
6.539091e-010
6.797725e-010
7.047108e-010
7.272249e-010
7.359804e-010
7.258316e-010
7.058129e-010
6.878432e-010
6.695473e-010
6.338713e-010
5.692001e-010
4.873082e-010
4.150203e-010
3.645604e-010
3.158009e-010
2.356637e-010
1.191148e-010
6.601516e-012
-4.769854e-011
-2.879086e-011
2.257998e-011
5.382883e-011
6.226226e-011
1.050074e-010
2.370442e-010
4.365744e-010
5.994756e-010
6.185080e-010
4.731227e-010
2.394307e-010
1.050829e-011
-1.874796e-010
-3.915591e-010
-6.135434e-010
-7.673657e-010
-7.061367e-010
-3.525322e-010
1.970215e-010
7.015135e-010
9.252110e-010
7.855550e-010
3.828275e-010
-9.315717e-011
-4.809067e-010
-6.937648e-010
-6.921969e-010
-4.571226e-010
-2.089460e-011
4.773478e-010
8.025957e-010
7.449716e-010
2.810470e-010
-3.617362e-010
-8.186983e-010
-2.444507e-009
-1.039640e-009
8.054987e-010
1.968314e-009
1.848129e-009
6.776522e-010
-7.018545e-010
-1.426856e-009
-1.158865e-009
-2.367856e-010
6.343609e-010
9.010961e-010
5.035935e-010
-1.752557e-010
-6.573675e-010
-7.092522e-010
-4.247495e-010
-4.743282e-011
2.609172e-010
4.994547e-010
7.280496e-010
9.314964e-010
9.981664e-010
8.235252e-010
4.193294e-010
-8.421842e-011
-5.374928e-010
-8.677266e-010
-1.086603e-009
-1.223547e-009
-1.269062e-009
-1.185444e-009
-9.605457e-010
-6.369558e-010
-2.840911e-010
5.368518e-011
3.777033e-010
7.084971e-010
1.047304e-009
1.367677e-009
1.640913e-009
1.862455e-009
2.050481e-009
2.222243e-009
2.376892e-009
2.501804e-009
2.590738e-009
2.650908e-009
2.692551e-009
2.716479e-009
2.715795e-009
2.688437e-009
2.642774e-009
2.587505e-009
2.518308e-009
2.419921e-009
2.283970e-009
2.121305e-009
1.950859e-009
1.774672e-009
1.568842e-009
1.305788e-009
9.867416e-010
6.470900e-010
3.245672e-010
2.412658e-011
-2.778410e-010
-5.893331e-010
-8.668777e-010
-1.033665e-009
-1.039789e-009
-9.024146e-010
-6.813866e-010
-4.176030e-010
-1.072460e-010
2.530156e-010
6.003164e-010
8.058479e-010
7.642152e-010
4.935757e-010
1.412959e-010
-1.231270e-010
-2.304993e-010
-2.326251e-010
-2.081842e-010
-1.623633e-010
-3.615555e-011
1.806375e-010
3.643396e-010
3.221434e-010
-2.135400e-011
-4.892086e-010
-7.285289e-010
-4.777959e-010
1.844750e-010
8.371288e-010
9.997587e-010
5.000841e-010
-3.656172e-010
-1.021567e-009
-5.286407e-010
-2.029623e-010
2.099838e-010
4.182212e-010
2.628390e-010
-1.523031e-010
-4.944647e-010
-4.225726e-010
1.331937e-010
8.521616e-010
1.200690e-009
8.142106e-010
-1.998289e-010
-1.291810e-009
-1.832308e-009
-1.534687e-009
-6.147977e-010
4.150196e-010
1.122499e-009
1.393086e-009
1.375577e-009
1.248817e-009
1.051302e-009
7.097071e-010
1.913896e-010
-3.987812e-010
-8.728815e-010
-1.097837e-009
-1.076456e-009
-9.062940e-010
-6.768423e-010
-4.107530e-010
-8.946710e-011
2.870946e-010
6.781764e-010
1.033094e-009
1.331684e-009
1.589304e-009
1.827887e-009
2.049949e-009
2.241388e-009
2.392508e-009
2.509623e-009
2.606412e-009
2.689313e-009
2.754758e-009
2.798357e-009
2.822126e-009
2.831514e-009
2.828824e-009
2.813167e-009
2.786077e-009
2.752901e-009
2.716100e-009
2.669513e-009
2.603655e-009
2.517671e-009
2.422094e-009
2.325538e-009
2.219475e-009
2.081487e-009
1.897025e-009
1.674883e-009
1.434973e-009
1.179782e-009
8.854387e-010
5.302708e-010
1.333014e-010
-2.440426e-010
-5.424495e-010
-7.483135e-010
-8.821946e-010
-9.392040e-010
-8.535807e-010
-5.471235e-010
-3.021400e-011
5.496243e-010
9.813338e-010
1.133582e-009
1.033023e-009
7.993793e-010
5.073107e-010
1.289450e-010
-3.701494e-010
-8.822610e-010
-1.139595e-009
-8.988478e-010
-1.887285e-010
6.193300e-010
1.028796e-009
7.803667e-010
6.589954e-011
-5.970629e-010
-7.468442e-010
-3.191635e-010
3.182662e-010
6.605905e-010
4.553821e-010
-1.142116e-010
-5.861481e-010
1.745780e-009
7.445137e-010
-5.497115e-010
-1.365753e-009
-1.359387e-009
-7.232743e-010
8.495549e-011
7.028711e-010
1.013834e-009
1.042307e-009
7.936565e-010
2.460512e-010
-5.094432e-010
-1.178676e-009
-1.389462e-009
-9.683107e-010
-1.193391e-010
6.852221e-010
1.035214e-009
8.585956e-010
4.168233e-010
4.920851e-011
-8.887098e-011
-7.406861e-011
-5.170289e-011
-5.410384e-011
2.270097e-011
2.886768e-010
7.297768e-010
1.209174e-009
1.583228e-009
1.807020e-009
1.934750e-009
2.036956e-009
2.130047e-009
2.180287e-009
2.158140e-009
2.075814e-009
1.974026e-009
1.883079e-009
1.802914e-009
1.716697e-009
1.615505e-009
1.507114e-009
1.405596e-009
1.318220e-009
1.243094e-009
1.175773e-009
1.115457e-009
1.066120e-009
1.034252e-009
1.025384e-009
1.040145e-009
1.072392e-009
1.113340e-009
1.160265e-009
1.220347e-009
1.302114e-009
1.401389e-009
1.499314e-009
1.579500e-009
1.646835e-009
1.722062e-009
1.811030e-009
1.881764e-009
1.882475e-009
1.789542e-009
1.632763e-009
1.460927e-009
1.278278e-009
1.027712e-009
6.568335e-010
2.082276e-010
-1.698998e-010
-3.270656e-010
-2.386131e-010
-2.693259e-011
1.555759e-010
2.650437e-010
3.757393e-010
5.427897e-010
6.683616e-010
5.404075e-010
4.321357e-011
-6.556833e-010
-1.150391e-009
-1.079610e-009
-4.232145e-010
4.466307e-010
1.016777e-009
9.886208e-010
4.602306e-010
-1.865243e-010
-5.758360e-010
-5.709898e-010
-2.995059e-010
2.296359e-013
1.625607e-010
1.766216e-010
1.384754e-010
2.789180e-009
1.090844e-009
-1.033616e-009
-2.203001e-009
-1.855398e-009
-4.982431e-010
8.121796e-010
1.283433e-009
8.624430e-010
8.956939e-011
-4.353587e-010
-4.857128e-010
-2.310323e-010
5.372008e-011
2.513544e-010
4.050593e-010
5.347465e-010
5.231675e-010
2.177484e-010
-3.646793e-010
-9.664278e-010
-1.250192e-009
-1.049547e-009
-4.739242e-010
2.183945e-010
8.405360e-010
1.380367e-009
1.916202e-009
2.464591e-009
2.926657e-009
3.174655e-009
3.172025e-009
3.000509e-009
2.777966e-009
2.560521e-009
2.322487e-009
2.015650e-009
1.633384e-009
1.216963e-009
8.119091e-010
4.292862e-010
4.922335e-011
-3.462327e-010
-7.494002e-010
-1.132770e-009
-1.471646e-009
-1.758473e-009
-1.997900e-009
-2.191828e-009
-2.330389e-009
-2.396447e-009
-2.378586e-009
-2.280567e-009
-2.118104e-009
-1.904881e-009
-1.641282e-009
-1.319403e-009
-9.421467e-010
-5.358402e-010
-1.374539e-010
2.358136e-010
6.014905e-010
9.878928e-010
1.390677e-009
1.759310e-009
2.037773e-009
2.221227e-009
2.360592e-009
2.495738e-009
2.582663e-009
2.503595e-009
2.169806e-009
1.620391e-009
1.008306e-009
4.768054e-010
5.226975e-011
-3.279465e-010
-6.790363e-010
-8.811840e-010
-7.626798e-010
-2.939010e-010
3.064165e-010
6.882191e-010
6.307109e-010
2.156846e-010
-2.446525e-010
-4.564740e-010
-3.458774e-010
-5.480107e-011
2.212084e-010
3.747195e-010
3.928672e-010
2.806248e-010
3.185336e-011
-3.079957e-010
-5.831849e-010
-5.899940e-010
-2.457830e-010
2.908116e-010
6.913043e-010
1.989644e-009
6.318995e-010
-9.812082e-010
-1.673772e-009
-1.045972e-009
2.971398e-010
1.265767e-009
1.129536e-009
3.935507e-011
-1.145607e-009
-1.547396e-009
-9.099297e-010
2.911025e-010
1.287601e-009
1.591112e-009
1.237654e-009
5.905980e-010
-2.609293e-011
-5.115228e-010
-8.878929e-010
-1.111740e-009
-1.037571e-009
-5.648521e-010
2.150985e-010
1.048197e-009
1.699753e-009
2.106008e-009
2.355251e-009
2.542461e-009
2.659869e-009
2.624441e-009
2.387732e-009
1.996865e-009
1.545990e-009
1.081224e-009
5.627885e-010
-8.430320e-011
-8.934200e-010
-1.831489e-009
-2.839030e-009
-3.881839e-009
-4.960845e-009
-6.079569e-009
-7.211275e-009
-8.299936e-009
-9.289019e-009
-1.014584e-008
-1.085940e-008
-1.141923e-008
-1.179990e-008
-1.196739e-008
-1.190016e-008
-1.160337e-008
-1.110146e-008
-1.041674e-008
-9.557509e-009
-8.531483e-009
-7.372531e-009
-6.149402e-009
-4.939193e-009
-3.787037e-009
-2.695205e-009
-1.658210e-009
-7.073273e-010
9.137557e-011
6.947329e-010
1.136363e-009
1.507431e-009
1.868728e-009
2.181590e-009
2.338369e-009
2.269727e-009
2.015272e-009
1.675957e-009
1.298727e-009
8.308357e-010
2.134883e-010
-4.764012e-010
-1.002750e-009
-1.122894e-009
-7.863712e-010
-1.875195e-010
3.807244e-010
7.268699e-010
8.277243e-010
7.329644e-010
4.576139e-010
8.689670e-012
-4.919717e-010
-7.764118e-010
-6.046576e-010
-1.896470e-011
5.916280e-010
7.502834e-010
2.950564e-010
-4.368275e-010
-8.489609e-010
-5.785802e-010
1.799141e-010
8.183470e-010
3.866677e-011
-2.055510e-010
-4.046527e-010
-2.573929e-010
2.763668e-010
8.733488e-010
1.033034e-009
4.659909e-010
-6.037905e-010
-1.508386e-009
-1.591041e-009
-7.167798e-010
5.873987e-010
1.506260e-009
1.532208e-009
7.985869e-010
-9.923580e-011
-5.984579e-010
-5.395346e-010
-1.411113e-010
3.068046e-010
6.952220e-010
1.083871e-009
1.514153e-009
1.890982e-009
2.055751e-009
1.944699e-009
1.645832e-009
1.297650e-009
9.474315e-010
5.148819e-010
-1.212814e-010
-1.023582e-009
-2.185347e-009
-3.598710e-009
-5.307561e-009
-7.383169e-009
-9.854079e-009
-1.266838e-008
-1.572313e-008
-1.892214e-008
-2.220150e-008
-2.550625e-008
-2.875500e-008
-3.183519e-008
-3.463261e-008
-3.706195e-008
-3.906872e-008
-4.060598e-008
-4.161543e-008
-4.203500e-008
-4.182530e-008
-4.098715e-008
-3.955202e-008
-3.755742e-008
-3.503730e-008
-3.204242e-008
-2.867030e-008
-2.506758e-008
-2.139283e-008
-1.777194e-008
-1.429155e-008
-1.103578e-008
-8.117961e-009
-5.656582e-009
-3.706302e-009
-2.215793e-009
-1.067668e-009
-1.690747e-010
5.004491e-010
9.346775e-010
1.181670e-009
1.351937e-009
1.525183e-009
1.654998e-009
1.595398e-009
1.248541e-009
6.897504e-010
1.331484e-010
-2.336058e-010
-3.730511e-010
-3.549222e-010
-2.162424e-010
8.612045e-011
5.494337e-010
9.729209e-010
1.008179e-009
4.487782e-010
-4.911387e-010
-1.224343e-009
-1.208579e-009
-4.102437e-010
6.100252e-010
1.111466e-009
7.631021e-010
-9.196144e-011
-7.320892e-010
-6.642406e-010
-2.396518e-011
5.696457e-010
-1.728975e-009
-7.588996e-010
4.499001e-010
1.154439e-009
1.111869e-009
6.011805e-010
4.706599e-011
-3.297711e-010
-5.362004e-010
-5.995135e-010
-4.492833e-010
-4.305883e-011
4.439296e-010
6.535851e-010
3.460447e-010
-3.173625e-010
-8.262669e-010
-7.082835e-010
8.983505e-011
1.173359e-009
2.033335e-009
2.420529e-009
2.435382e-009
2.312817e-009
2.161076e-009
1.901826e-009
1.410464e-009
6.563566e-010
-3.146698e-010
-1.513847e-009
-3.095192e-009
-5.300790e-009
-8.331387e-009
-1.227273e-008
-1.712667e-008
-2.287998e-008
-2.952170e-008
-3.699797e-008
-4.516854e-008
-5.382024e-008
-6.272361e-008
-7.167427e-008
-8.048628e-008
-8.896067e-008
-9.687473e-008
-1.040067e-007
-1.101684e-007
-1.152131e-007
-1.190149e-007
-1.214502e-007
-1.224067e-007
-1.218119e-007
-1.196527e-007
-1.159666e-007
-1.108202e-007
-1.043046e-007
-9.656108e-008
-8.780879e-008
-7.833839e-008
-6.846740e-008
-5.849640e-008
-4.870562e-008
-3.938233e-008
-3.082605e-008
-2.329677e-008
-1.693992e-008
-1.176157e-008
-7.682126e-009
-4.610280e-009
-2.453446e-009
-1.059076e-009
-1.776209e-010
4.687082e-010
1.047467e-009
1.544083e-009
1.843019e-009
1.885978e-009
1.738921e-009
1.499043e-009
1.165045e-009
6.530604e-010
-2.551047e-011
-6.267210e-010
-7.879621e-010
-3.514647e-010
4.054005e-010
9.071196e-010
7.261068e-010
-4.065569e-011
-8.190953e-010
-1.014966e-009
-4.937730e-010
3.259152e-010
8.321701e-010
7.106300e-010
1.558232e-010
-3.435253e-010
-4.294128e-010
-1.442059e-010
1.589233e-010
-2.346673e-009
-6.805315e-010
1.203643e-009
1.876570e-009
1.040744e-009
-3.967605e-010
-1.221811e-009
-9.143461e-010
8.015062e-011
9.012274e-010
1.028580e-009
5.701398e-010
-3.763986e-011
-4.860423e-010
-7.411086e-010
-8.412944e-010
-6.862331e-010
-1.037336e-010
8.897874e-010
1.965826e-009
2.679353e-009
2.807946e-009
2.495541e-009
2.062422e-009
1.676810e-009
1.195186e-009
2.758001e-010
-1.405094e-009
-4.064502e-009
-7.899472e-009
-1.320018e-008
-2.033514e-008
-2.961471e-008
-4.116819e-008
-5.493758e-008
-7.075851e-008
-8.842408e-008
-1.076761e-007
-1.281638e-007
-1.494415e-007
-1.710193e-007
-1.924216e-007
-2.132033e-007
-2.329303e-007
-2.511646e-007
-2.674809e-007
-2.814985e-007
-2.928947e-007
-3.013921e-007
-3.067449e-007
-3.087476e-007
-3.072645e-007
-3.022506e-007
-2.937490e-007
-2.818780e-007
-2.668376e-007
-2.489388e-007
-2.286253e-007
-2.064567e-007
-1.830588e-007
-1.590820e-007
-1.351948e-007
-1.120868e-007
-9.043142e-008
-7.079837e-008
-5.357254e-008
-3.894556e-008
-2.697435e-008
-1.762610e-008
-1.074807e-008
-6.005316e-009
-2.897236e-009
-8.977782e-010
3.788203e-010
1.136208e-009
1.505950e-009
1.665816e-009
1.806463e-009
1.969294e-009
1.962842e-009
1.521097e-009
6.076122e-010
-4.320968e-010
-1.065902e-009
-9.818717e-010
-3.434210e-010
3.451862e-010
6.395780e-010
4.628120e-010
7.605144e-011
-2.024018e-010
-2.415848e-010
-1.163540e-010
3.814845e-011
1.465019e-010
1.923544e-010
1.643515e-010
5.141576e-011
-1.120151e-010
-2.350822e-010
-1.757707e-009
-1.689047e-010
1.481058e-009
1.726299e-009
3.961335e-010
-1.325932e-009
-1.978589e-009
-1.050559e-009
6.748968e-010
1.865165e-009
1.744646e-009
6.091540e-010
-5.870726e-010
-1.076227e-009
-7.759387e-010
-1.117589e-010
5.055174e-010
9.868134e-010
1.439988e-009
1.877519e-009
2.130498e-009
2.032127e-009
1.600624e-009
9.643267e-010
7.963504e-011
-1.472626e-009
-4.416006e-009
-9.523327e-009
-1.742885e-008
-2.864015e-008
-4.364852e-008
-6.295060e-008
-8.692380e-008
-1.156707e-007
-1.489741e-007
-1.863782e-007
-2.272945e-007
-2.710394e-007
-3.168127e-007
-3.636920e-007
-4.106851e-007
-4.568094e-007
-5.011400e-007
-5.428097e-007
-5.809940e-007
-6.149173e-007
-6.438787e-007
-6.672682e-007
-6.845624e-007
-6.953150e-007
-6.991661e-007
-6.958690e-007
-6.853144e-007
-6.675385e-007
-6.427294e-007
-6.112509e-007
-5.736796e-007
-5.308243e-007
-4.837023e-007
-4.334915e-007
-3.814902e-007
-3.290969e-007
-2.777672e-007
-2.289115e-007
-1.837511e-007
-1.432128e-007
-1.079163e-007
-7.821626e-008
-5.421071e-008
-3.568386e-008
-2.206836e-008
-1.253535e-008
-6.202989e-009
-2.313800e-009
-2.444371e-010
6.101958e-010
8.862402e-010
1.109232e-009
1.472859e-009
1.790282e-009
1.732190e-009
1.173382e-009
3.392938e-010
-3.687018e-010
-6.782498e-010
-5.881185e-010
-2.610842e-010
1.508796e-010
5.432101e-010
7.760500e-010
6.699089e-010
1.738168e-010
-4.673249e-010
-8.056988e-010
-5.534020e-010
1.102514e-010
6.347726e-010
5.721385e-010
-2.114906e-012
-5.436303e-010
-5.780887e-010
2.836569e-010
1.075289e-009
9.228558e-010
-1.924396e-010
-1.393231e-009
-1.650248e-009
-6.762023e-010
8.040406e-010
1.651521e-009
1.266535e-009
6.935085e-011
-8.945763e-010
-8.448236e-010
1.447473e-010
1.329202e-009
1.992624e-009
1.986180e-009
1.672070e-009
1.446668e-009
1.355029e-009
1.096869e-009
2.643931e-010
-1.546739e-009
-4.889437e-009
-1.067827e-008
-2.019241e-008
-3.483587e-008
-5.586878e-008
-8.430940e-008
-1.209857e-007
-1.665580e-007
-2.214025e-007
-2.854327e-007
-3.580180e-007
-4.380642e-007
-5.241700e-007
-6.147426e-007
-7.080394e-007
-8.021971e-007
-8.953087e-007
-9.855340e-007
-1.071183e-006
-1.150735e-006
-1.222826e-006
-1.286227e-006
-1.339853e-006
-1.382766e-006
-1.414168e-006
-1.433389e-006
-1.439887e-006
-1.433269e-006
-1.413315e-006
-1.380000e-006
-1.333532e-006
-1.274399e-006
-1.203436e-006
-1.121857e-006
-1.031253e-006
-9.335733e-007
-8.311056e-007
-7.264412e-007
-6.223741e-007
-5.217032e-007
-4.269926e-007
-3.403841e-007
-2.635097e-007
-1.974529e-007
-1.426845e-007
-9.898779e-008
-6.548316e-008
-4.083384e-008
-2.355119e-008
-1.220927e-008
-5.460146e-009
-1.954333e-009
-3.736865e-010
3.556751e-010
8.414983e-010
1.224620e-009
1.422202e-009
1.391415e-009
1.191111e-009
8.701659e-010
4.104987e-010
-1.499406e-010
-5.751164e-010
-5.308023e-010
7.257508e-011
8.421947e-010
1.116982e-009
5.436566e-010
-5.167936e-010
-1.216019e-009
-9.533827e-010
4.886492e-011
9.102623e-010
8.875277e-010
6.294873e-011
-7.389488e-010
5.394743e-010
3.517701e-010
8.643120e-011
-1.657808e-010
-3.681441e-010
-4.641881e-010
-3.465169e-010
1.627653e-011
4.246781e-010
5.207502e-010
1.242713e-010
-4.834262e-010
-6.903132e-010
-7.051872e-011
1.181389e-009
2.351624e-009
2.789410e-009
2.428135e-009
1.750627e-009
1.239428e-009
8.192888e-010
-2.649203e-010
-3.169864e-009
-9.173108e-009
-1.968658e-008
-3.646965e-008
-6.171925e-008
-9.786238e-008
-1.471840e-007
-2.115393e-007
-2.922411e-007
-3.900040e-007
-5.048145e-007
-6.357563e-007
-7.809460e-007
-9.376762e-007
-1.102703e-006
-1.272533e-006
-1.443613e-006
-1.612469e-006
-1.775830e-006
-1.930770e-006
-2.074798e-006
-2.205877e-006
-2.322360e-006
-2.422916e-006
-2.506471e-006
-2.572153e-006
-2.619255e-006
-2.647185e-006
-2.655438e-006
-2.643582e-006
-2.611269e-006
-2.558257e-006
-2.484475e-006
-2.390113e-006
-2.275735e-006
-2.142391e-006
-1.991711e-006
-1.826012e-006
-1.648390e-006
-1.462757e-006
-1.273730e-006
-1.086350e-006
-9.056948e-007
-7.364976e-007
-5.828171e-007
-4.477312e-007
-3.330523e-007
-2.391541e-007
-1.650514e-007
-1.087610e-007
-6.777956e-008
-3.944137e-008
-2.106782e-008
-1.003885e-008
-3.957814e-009
-8.985539e-010
4.579499e-010
9.301893e-010
1.067042e-009
1.248645e-009
1.580450e-009
1.807757e-009
1.523897e-009
6.153470e-010
-4.727590e-010
-1.003522e-009
-5.920901e-010
3.751944e-010
1.014143e-009
7.235498e-010
-2.471620e-010
-1.010504e-009
-8.647657e-010
4.461576e-011
8.632100e-010
8.394612e-010
3.422881e-011
-7.505613e-010
1.317746e-009
1.154770e-010
-1.075402e-009
-1.184162e-009
-2.262481e-010
8.601815e-010
1.177976e-009
6.231861e-010
-2.150841e-010
-7.201614e-010
-7.198046e-010
-3.869940e-010
1.265049e-010
8.199785e-010
1.646351e-009
2.343907e-009
2.588905e-009
2.302217e-009
1.678670e-009
7.696553e-010
-1.067195e-009
-5.391460e-009
-1.446370e-008
-3.091139e-008