# vtk DataFile Version 3.0
vtk output
ASCII
DATASET STRUCTURED_POINTS
DIMENSIONS 100 100 1
SPACING 1 1 1
ORIGIN 0 0 0
POINT_DATA 10000
SCALARS SFBox_profile double
LOOKUP_TABLE default 
0.000000e+000
0.000000e+000
0.000000e+000
0.000000e+000
0.000000e+000
0.000000e+000
0.000000e+000
0.000000e+000
0.000000e+000
0.000000e+000
0.000000e+000
0.000000e+000
0.000000e+000
0.000000e+000
0.000000e+000
0.000000e+000
0.000000e+000
0.000000e+000
0.000000e+000
0.000000e+000
0.000000e+000
0.000000e+000
0.000000e+000
0.000000e+000
0.000000e+000
0.000000e+000
0.000000e+000
0.000000e+000
0.000000e+000
0.000000e+000
0.000000e+000
0.000000e+000
0.000000e+000
0.000000e+000
0.000000e+000
0.000000e+000
0.000000e+000
0.000000e+000
0.000000e+000
0.000000e+000
0.000000e+000
0.000000e+000
0.000000e+000
0.000000e+000
0.000000e+000
0.000000e+000
0.000000e+000
0.000000e+000
0.000000e+000
0.000000e+000
0.000000e+000
0.000000e+000
0.000000e+000
0.000000e+000
0.000000e+000
0.000000e+000
0.000000e+000
0.000000e+000
0.000000e+000
0.000000e+000
0.000000e+000
0.000000e+000
0.000000e+000
0.000000e+000
0.000000e+000
0.000000e+000
0.000000e+000
0.000000e+000
0.000000e+000
0.000000e+000
0.000000e+000
0.000000e+000
0.000000e+000
0.000000e+000
0.000000e+000
0.000000e+000
0.000000e+000
0.000000e+000
0.000000e+000
0.000000e+000
0.000000e+000
0.000000e+000
0.000000e+000
0.000000e+000
0.000000e+000
0.000000e+000
0.000000e+000
0.000000e+000
0.000000e+000
0.000000e+000
0.000000e+000
0.000000e+000
0.000000e+000
0.000000e+000
0.000000e+000
0.000000e+000
0.000000e+000
0.000000e+000
0.000000e+000
0.000000e+000
-1.271494e-009
-8.108706e-010
-1.278989e-010
5.116449e-010
9.735837e-010
1.241069e-009
1.270259e-009
9.096029e-010
2.428655e-011
-1.252680e-009
-2.399019e-009
-2.710682e-009
-1.762836e-009
2.102372e-010
2.346358e-009
3.630652e-009
3.494081e-009
2.108075e-009
1.861749e-010
-1.514616e-009
-2.597700e-009
-3.074055e-009
-3.116545e-009
-2.805786e-009
-2.092381e-009
-9.543674e-010
4.537234e-010
1.825121e-009
2.872556e-009
3.481484e-009
3.715098e-009
3.694208e-009
3.481924e-009
3.070757e-009
2.453430e-009
1.684215e-009
8.678185e-010
9.746055e-011
-5.903419e-010
-1.206174e-009
-1.765273e-009
-2.259732e-009
-2.666865e-009
-2.974994e-009
-3.195935e-009
-3.354118e-009
-3.467289e-009
-3.537981e-009
-3.560220e-009
-3.531239e-009
-3.456342e-009
-3.343792e-009
-3.195612e-009
-3.002929e-009
-2.750593e-009
-2.428054e-009
-2.037011e-009
-1.587678e-009
-1.086298e-009
-5.280817e-010
9.219951e-011
7.579720e-010
1.419920e-009
2.012766e-009
2.486949e-009
2.821144e-009
2.997995e-009
2.969164e-009
2.658737e-009
2.021327e-009
1.108686e-009
7.510200e-011
-8.954095e-010
-1.675057e-009
-2.206077e-009
-2.433804e-009
-2.250450e-009
-1.549325e-009
-3.763951e-010
9.624319e-010
1.981190e-009
2.270899e-009
1.751451e-009
7.163231e-010
-3.655611e-010
-1.124265e-009
-1.425780e-009
-1.307118e-009
-8.392469e-010
-9.202178e-011
7.703260e-010
1.414039e-009
1.448452e-009
7.110774e-010
-5.022549e-010
-1.511891e-009
-1.660825e-009
-7.882725e-010
5.980009e-010
1.621325e-009
-6.721469e-010
-1.863028e-010
4.024615e-010
6.596786e-010
4.229184e-010
-9.881324e-011
-5.093907e-010
-5.326214e-010
-1.983536e-010
2.221174e-010
4.519096e-010
4.076660e-010
2.080227e-010
1.694442e-011
-1.119913e-010
-2.453263e-010
-4.422563e-010
-6.345200e-010
-6.469370e-010
-3.487694e-010
2.066882e-010
7.899627e-010
1.148920e-009
1.173394e-009
9.341471e-010
5.820616e-010
2.167972e-010
-1.569924e-010
-5.684070e-010
-9.976662e-010
-1.361128e-009
-1.571444e-009
-1.604182e-009
-1.505239e-009
-1.340372e-009
-1.143158e-009
-9.085508e-010
-6.261906e-010
-3.107737e-010
7.957114e-013
2.762480e-010
5.075979e-010
7.059980e-010
8.821024e-010
1.033779e-009
1.150701e-009
1.226861e-009
1.266753e-009
1.280388e-009
1.273862e-009
1.244862e-009
1.186383e-009
1.094315e-009
9.716635e-010
8.254700e-010
6.592577e-010
4.688404e-010
2.473596e-010
-3.600896e-012
-2.680135e-010
-5.227062e-010
-7.521667e-010
-9.542651e-010
-1.127540e-009
-1.252024e-009
-1.287827e-009
-1.200609e-009
-9.925048e-010
-7.052630e-010
-3.883309e-010
-6.465751e-011
2.651808e-010
5.803920e-010
8.080286e-010
8.508438e-010
6.648461e-010
3.159704e-010
-4.735069e-011
-2.915467e-010
-3.795490e-010
-3.631823e-010
-3.019135e-010
-1.988593e-010
-2.461418e-011
1.995192e-010
3.611844e-010
3.268344e-010
7.307898e-011
-2.495216e-010
-4.045260e-010
-2.560540e-010
1.029043e-010
4.025958e-010
4.019699e-010
8.515374e-011
-3.146875e-010
-4.905574e-010
-3.004636e-010
1.188247e-010
4.538770e-010
3.030871e-010
5.394300e-010
7.036349e-010
4.382221e-010
-3.595079e-010
-1.374670e-009
-1.989939e-009
-1.651450e-009
-2.741610e-010
1.595476e-009
3.015095e-009
3.170617e-009
1.862350e-009
-3.671908e-010
-2.542924e-009
-3.786196e-009
-3.718275e-009
-2.522609e-009
-7.121558e-010
1.173514e-009
2.742039e-009
3.757870e-009
4.088430e-009
3.689395e-009
2.636799e-009
1.139971e-009
-5.129915e-010
-2.052268e-009
-3.298287e-009
-4.168956e-009
-4.642576e-009
-4.724853e-009
-4.444576e-009
-3.862773e-009
-3.068512e-009
-2.155946e-009
-1.200911e-009
-2.548992e-010
6.453174e-010
1.468166e-009
2.188243e-009
2.793300e-009
3.286332e-009
3.678905e-009
3.982085e-009
4.202926e-009
4.347416e-009
4.424064e-009
4.442975e-009
4.411180e-009
4.329255e-009
4.192625e-009
3.995880e-009
3.735456e-009
3.408169e-009
3.008038e-009
2.526274e-009
1.956387e-009
1.300663e-009
5.722996e-010
-2.078757e-010
-1.014478e-009
-1.814402e-009
-2.559196e-009
-3.182502e-009
-3.609640e-009
-3.774717e-009
-3.633014e-009
-3.163376e-009
-2.369968e-009
-1.296010e-009
-4.584038e-011
1.207589e-009
2.250224e-009
2.882746e-009
2.974024e-009
2.488263e-009
1.492364e-009
1.650242e-010
-1.195863e-009
-2.209315e-009
-2.528525e-009
-2.010688e-009
-8.355560e-010
5.330500e-010
1.552323e-009
1.858503e-009
1.420966e-009
5.121615e-010
-4.580766e-010
-1.124497e-009
-1.277998e-009
-9.011181e-010
-1.621364e-010
6.241143e-010
1.095991e-009
1.008529e-009
3.874791e-010
-4.439227e-010
-1.024511e-009
1.259063e-009
7.993714e-010
1.264298e-010
-4.955441e-010
-9.486617e-010
-1.225809e-009
-1.265183e-009
-8.847883e-010
4.639663e-011
1.332673e-009
2.374864e-009
2.469333e-009
1.318995e-009
-6.501481e-010
-2.469236e-009
-3.216065e-009
-2.584860e-009
-1.018073e-009
6.625550e-010
1.801271e-009
2.215019e-009
2.100539e-009
1.723335e-009
1.198201e-009
5.118927e-010
-3.150158e-010
-1.133074e-009
-1.730530e-009
-1.977520e-009
-1.899941e-009
-1.625131e-009
-1.269944e-009
-8.786747e-010
-4.474325e-010
1.641206e-011
4.688857e-010
8.549316e-010
1.146846e-009
1.354318e-009
1.502832e-009
1.608518e-009
1.673017e-009
1.695768e-009
1.685091e-009
1.656678e-009
1.624465e-009
1.595050e-009
1.569703e-009
1.549081e-009
1.534979e-009
1.528857e-009
1.530334e-009
1.537084e-009
1.544776e-009
1.546417e-009
1.532790e-009
1.495177e-009
1.427758e-009
1.325815e-009
1.180789e-009
9.792785e-010
7.111186e-010
3.809722e-010
1.064748e-011
-3.726692e-010
-7.493870e-010
-1.102942e-009
-1.397519e-009
-1.564355e-009
-1.523985e-009
-1.237146e-009
-7.399910e-010
-1.261762e-010
5.076890e-010
1.092108e-009
1.552713e-009
1.758200e-009
1.538725e-009
8.108296e-010
-2.775155e-010
-1.332424e-009
-1.897094e-009
-1.724133e-009
-9.288675e-010
9.889789e-011
9.443027e-010
1.370377e-009
1.338511e-009
9.034806e-010
1.509719e-010
-7.425529e-010
-1.436123e-009
-1.516038e-009
-7.808103e-010
4.933516e-010
1.592966e-009
1.788056e-009
8.675900e-010
-6.353454e-010
-1.755850e-009
1.721977e-009
4.667772e-010
-1.038142e-009
-1.671921e-009
-1.048204e-009
2.632619e-010
1.260489e-009
1.298250e-009
4.999240e-010
-4.758399e-010
-1.025947e-009
-1.011686e-009
-6.858059e-010
-3.101976e-010
1.076682e-010
7.085145e-010
1.459936e-009
1.998330e-009
1.841696e-009
7.994243e-010
-8.030185e-010
-2.301303e-009
-3.121035e-009
-3.096453e-009
-2.447544e-009
-1.503861e-009
-4.581892e-010
6.566157e-010
1.820014e-009
2.903909e-009
3.706695e-009
4.087475e-009
4.053833e-009
3.724973e-009
3.224290e-009
2.609969e-009
1.891743e-009
1.089519e-009
2.620011e-010
-5.176776e-010
-1.203338e-009
-1.789643e-009
-2.291648e-009
-2.717864e-009
-3.062869e-009
-3.318983e-009
-3.488492e-009
-3.583522e-009
-3.616848e-009
-3.594271e-009
-3.513923e-009
-3.370234e-009
-3.158410e-009
-2.877262e-009
-2.529096e-009
-2.115995e-009
-1.635347e-009
-1.081154e-009
-4.543908e-010
2.250732e-010
9.184631e-010
1.583384e-009
2.188759e-009
2.709231e-009
3.100833e-009
3.287931e-009
3.189526e-009
2.773154e-009
2.086700e-009
1.231832e-009
3.042483e-010
-6.304762e-010
-1.491209e-009
-2.120212e-009
-2.304979e-009
-1.911764e-009
-1.031149e-009
1.303377e-011
8.348634e-010
1.209787e-009
1.162168e-009
8.561713e-010
4.228418e-010
-8.933807e-011
-6.052828e-010
-9.197886e-010
-7.832115e-010
-1.530596e-010
6.376971e-010
1.031824e-009
6.714956e-010
-2.498757e-010
-1.056150e-009
-1.088900e-009
-2.562550e-010
8.409934e-010
1.350511e-009
8.442335e-010
-3.203343e-010
-1.261795e-009
1.301975e-009
-1.082550e-010
-1.674603e-009
-1.988074e-009
-5.946937e-010
1.631088e-009
3.111292e-009
2.706832e-009
5.294084e-010
-2.151110e-009
-3.787112e-009
-3.540623e-009
-1.686487e-009
7.492168e-010
2.716158e-009
3.653472e-009
3.518867e-009
2.515956e-009
8.842721e-010
-1.082659e-009
-2.938631e-009
-4.142033e-009
-4.305529e-009
-3.429762e-009
-1.894915e-009
-2.065149e-010
1.284910e-009
2.471379e-009
3.367284e-009
3.952695e-009
4.142724e-009
3.882672e-009
3.238394e-009
2.377658e-009
1.466585e-009
5.877150e-010
-2.526105e-010
-1.058406e-009
-1.798760e-009
-2.422128e-009
-2.900074e-009
-3.247757e-009
-3.504111e-009
-3.698793e-009
-3.839265e-009
-3.923174e-009
-3.955776e-009
-3.953654e-009
-3.934810e-009
-3.907695e-009
-3.868601e-009
-3.807030e-009
-3.713284e-009
-3.582836e-009
-3.414373e-009
-3.202289e-009
-2.930050e-009
-2.573440e-009
-2.115172e-009
-1.558745e-009
-9.257009e-010
-2.367323e-010
5.009081e-010
1.277810e-009
2.047480e-009
2.710904e-009
3.148599e-009
3.278593e-009
3.084030e-009
2.582363e-009
1.778298e-009
6.739960e-010
-6.480742e-010
-1.950893e-009
-2.882555e-009
-3.139714e-009
-2.637062e-009
-1.544544e-009
-1.751234e-010
1.155294e-009
2.172616e-009
2.612343e-009
2.248086e-009
1.057976e-009
-5.923011e-010
-1.985854e-009
-2.409748e-009
-1.629375e-009
-1.072487e-010
1.257444e-009
1.714698e-009
1.144178e-009
7.425082e-011
-7.504077e-010
-8.980226e-010
-4.790373e-010
5.055625e-011
2.995766e-010
2.196713e-010
5.538913e-011
-4.680352e-011
-4.822886e-010
-8.811245e-010
-6.955265e-010
2.406694e-010
1.480599e-009
2.172883e-009
1.640146e-009
-5.487537e-011
-2.012365e-009
-3.024262e-009
-2.395331e-009
-4.478110e-010
1.687448e-009
2.837033e-009
2.521437e-009
1.136458e-009
-4.649317e-010
-1.574298e-009
-1.945283e-009
-1.698455e-009
-1.050176e-009
-1.642125e-010
8.032197e-010
1.624368e-009
2.045695e-009
1.934152e-009
1.366315e-009
5.618799e-010
-2.717632e-010
-1.036671e-009
-1.715714e-009
-2.285481e-009
-2.679764e-009
-2.834230e-009
-2.747821e-009
-2.487864e-009
-2.137171e-009
-1.742434e-009
-1.311455e-009
-8.481994e-010
-3.795587e-010
5.257542e-011
4.182170e-010
7.133831e-010
9.496896e-010
1.134717e-009
1.263431e-009
1.325146e-009
1.315140e-009
1.239045e-009
1.107541e-009
9.273177e-010
6.963829e-010
4.083275e-010
6.316078e-011
-3.244198e-010
-7.284359e-010
-1.125149e-009
-1.502203e-009
-1.849899e-009
-2.140545e-009
-2.320410e-009
-2.331211e-009
-2.146049e-009
-1.783462e-009
-1.283557e-009
-6.756714e-010
1.646004e-011
7.276659e-010
1.317466e-009
1.608481e-009
1.486579e-009
9.797649e-010
2.444753e-010
-5.199369e-010
-1.138173e-009
-1.456616e-009
-1.327516e-009
-6.735592e-010
3.735491e-010
1.405361e-009
1.886149e-009
1.483159e-009
3.379233e-010
-9.653561e-010
-1.746881e-009
-1.643649e-009
-7.896944e-010
3.285692e-010
1.182233e-009
1.443135e-009
1.059491e-009
2.203421e-010
-7.116802e-010
-1.303794e-009
-1.232622e-009
-4.901049e-010
5.428276e-010
1.277174e-009
-1.784832e-009
-4.925419e-010
1.038762e-009
1.673419e-009
1.071984e-009
-1.663596e-010
-1.113580e-009
-1.252260e-009
-7.153414e-010
4.717855e-011
7.183187e-010
1.222639e-009
1.491695e-009
1.277567e-009
3.214916e-010
-1.258550e-009
-2.801573e-009
-3.425088e-009
-2.623078e-009
-6.396592e-010
1.692528e-009
3.489502e-009
4.278991e-009
4.077925e-009
3.152169e-009
1.760360e-009
9.042146e-011
-1.658140e-009
-3.224872e-009
-4.359545e-009
-4.936465e-009
-4.988124e-009
-4.632789e-009
-3.980061e-009
-3.100167e-009
-2.056757e-009
-9.386301e-010
1.539304e-010
1.149092e-009
2.022570e-009
2.779040e-009
3.421887e-009
3.943461e-009
4.338700e-009
4.619519e-009
4.811772e-009
4.939261e-009
5.012167e-009
5.029569e-009
4.990097e-009
4.898284e-009
4.760710e-009
4.576781e-009
4.333963e-009
4.013071e-009
3.599601e-009
3.090484e-009
2.489382e-009
1.796255e-009
1.005796e-009
1.220637e-010
-8.223139e-010
-1.763271e-009
-2.624219e-009
-3.336443e-009
-3.836972e-009
-4.049108e-009
-3.880989e-009
-3.266950e-009
-2.227906e-009
-8.955885e-010
5.243750e-010
1.812209e-009
2.759889e-009
3.164984e-009
2.860725e-009
1.826851e-009
3.123466e-010
-1.175709e-009
-2.085838e-009
-2.120551e-009
-1.393925e-009
-3.257703e-010
6.241877e-010
1.159936e-009
1.177255e-009
7.055958e-010
-9.121353e-011
-8.650521e-010
-1.154263e-009
-6.710127e-010
3.770493e-010
1.282558e-009
1.302245e-009
2.880969e-010
-1.074836e-009
-1.727559e-009
-1.087948e-009
4.192666e-010
1.650125e-009
-2.854047e-009
-2.771823e-010
2.626836e-009
3.411386e-009
1.391865e-009
-1.895525e-009
-3.991400e-009
-3.414484e-009
-6.466527e-010
2.434588e-009
4.024790e-009
3.521139e-009
1.568852e-009
-7.138936e-010
-2.501658e-009
-3.456122e-009
-3.475368e-009
-2.498803e-009
-6.311887e-010
1.634053e-009
3.476124e-009
4.167038e-009
3.515727e-009
1.944635e-009
1.494662e-010
-1.339182e-009
-2.342111e-009
-2.905169e-009
-3.081818e-009
-2.856036e-009
-2.226767e-009
-1.302151e-009
-2.793071e-010
6.633927e-010
1.445208e-009
2.068068e-009
2.549313e-009
2.882295e-009
3.052581e-009
3.071570e-009
2.981894e-009
2.832148e-009
2.652878e-009
2.456943e-009
2.255845e-009
2.069170e-009
1.918017e-009
1.813488e-009
1.754682e-009
1.737256e-009
1.761494e-009
1.830748e-009
1.942975e-009
2.085821e-009
2.241169e-009
2.393609e-009
2.531961e-009
2.640824e-009
2.692137e-009
2.649250e-009
2.482374e-009
2.179250e-009
1.738848e-009
1.158357e-009
4.379048e-010
-3.901349e-010
-1.234986e-009
-1.960247e-009
-2.433717e-009
-2.568284e-009
-2.316841e-009
-1.647486e-009
-5.665389e-010
7.928294e-010
2.102580e-009
2.911602e-009
2.867459e-009
1.938248e-009
4.507330e-010
-1.086332e-009
-2.215175e-009
-2.641821e-009
-2.226698e-009
-1.003492e-009
6.990634e-010
2.191921e-009
2.663410e-009
1.715284e-009
-1.963410e-010
-1.896048e-009
-2.261762e-009
-1.090160e-009
6.897565e-010
1.716890e-009
1.282227e-009
-1.133530e-010
-1.218295e-009
-1.117625e-009
-2.839149e-012
1.043479e-009
-2.254040e-009
-2.437521e-011
2.419667e-009
2.894974e-009
8.494626e-010
-2.190105e-009
-3.844287e-009
-2.769064e-009
3.073897e-010
3.189532e-009
3.913512e-009
2.153965e-009
-7.154658e-010
-2.800224e-009
-3.036906e-009
-1.684949e-009
2.071360e-010
1.684711e-009
2.350973e-009
2.231127e-009
1.439878e-009
8.747439e-011
-1.560991e-009
-2.994086e-009
-3.650977e-009
-3.264871e-009
-2.023469e-009
-3.985806e-010
1.179000e-009
2.508300e-009
3.561510e-009
4.321416e-009
4.709855e-009
4.654585e-009
4.182772e-009
3.424932e-009
2.531964e-009
1.598018e-009
6.561304e-010
-2.743287e-010
-1.153624e-009
-1.932428e-009
-2.582313e-009
-3.106537e-009
-3.523107e-009
-3.843597e-009
-4.069182e-009
-4.200866e-009
-4.246453e-009
-4.215772e-009
-4.112209e-009
-3.931816e-009
-3.669882e-009
-3.325122e-009
-2.896112e-009
-2.376628e-009
-1.759778e-009
-1.049627e-009
-2.672760e-010
5.567575e-010
1.393560e-009
2.211483e-009
2.955199e-009
3.533571e-009
3.841760e-009
3.807160e-009
3.416100e-009
2.695399e-009
1.680424e-009
4.292825e-010
-9.094699e-010
-2.054937e-009
-2.669510e-009
-2.538827e-009
-1.718987e-009
-5.180278e-010
6.709514e-010
1.529342e-009
1.847701e-009
1.495344e-009
4.779750e-010
-9.012158e-010
-1.990086e-009
-2.072116e-009
-9.032139e-010
9.366586e-010
2.294168e-009
2.232353e-009
7.655345e-010
-1.099005e-009
-2.100937e-009
-1.664451e-009
-2.727824e-010
9.951206e-010
1.334763e-009
7.618176e-010
-6.094136e-011
-4.762973e-010
-3.592958e-010
-9.362570e-011
1.170649e-010
2.041413e-010
2.292578e-010
2.824757e-011
-3.855567e-010
-7.143265e-010
-5.375758e-010
2.779731e-010
1.265065e-009
1.547400e-009
5.418553e-010
-1.380490e-009
-2.945486e-009
-2.852333e-009
-8.157363e-010
2.114878e-009
4.258270e-009
4.448701e-009
2.708768e-009
1.305320e-011
-2.495038e-009
-4.119525e-009
-4.683585e-009
-4.255993e-009
-2.954978e-009
-9.952337e-010
1.210006e-009
3.128013e-009
4.352107e-009
4.784215e-009
4.588248e-009
3.987422e-009
3.113196e-009
2.017395e-009
7.723009e-010
-4.838547e-010
-1.602748e-009
-2.507266e-009
-3.208177e-009
-3.751091e-009
-4.160580e-009
-4.434204e-009
-4.574278e-009
-4.610059e-009
-4.586831e-009
-4.540499e-009
-4.486836e-009
-4.430865e-009
-4.379028e-009
-4.339868e-009
-4.317041e-009
-4.306322e-009
-4.298955e-009
-4.283563e-009
-4.242522e-009
-4.149709e-009
-3.977164e-009
-3.705323e-009
-3.322985e-009
-2.814751e-009
-2.154123e-009
-1.321001e-009
-3.345822e-010
7.326440e-010
1.779706e-009
2.714511e-009
3.455847e-009
3.893732e-009
3.868027e-009
3.230254e-009
1.969563e-009
2.946835e-010
-1.418071e-009
-2.776070e-009
-3.491983e-009
-3.401895e-009
-2.451888e-009
-7.705676e-010
1.199592e-009
2.716286e-009
3.057486e-009
2.011196e-009
1.352836e-010
-1.515676e-009
-2.063511e-009
-1.371610e-009
-6.303643e-011
9.843834e-010
1.227226e-009
6.994635e-010
-1.590297e-010
-8.372153e-010
-9.959249e-010
-5.665925e-010
2.299995e-010
9.459034e-010
1.115201e-009
5.664967e-010
-3.898781e-010
-1.121292e-009
3.040345e-009
4.000572e-010
-2.564404e-009
-3.408757e-009
-1.539853e-009
1.499997e-009
3.467510e-009
3.158053e-009
1.030520e-009
-1.494065e-009
-3.148439e-009
-3.391987e-009
-2.294366e-009
-2.462510e-010
2.102452e-009
3.832068e-009
4.043620e-009
2.436272e-009
-3.269773e-010
-2.912809e-009
-4.129769e-009
-3.618683e-009
-1.899925e-009
1.481353e-010
1.854403e-009
2.940490e-009
3.356848e-009
3.094543e-009
2.185140e-009
8.042252e-010
-7.237271e-010
-2.071118e-009
-3.062786e-009
-3.694570e-009
-4.026758e-009
-4.085257e-009
-3.862034e-009
-3.378922e-009
-2.719777e-009
-1.993399e-009
-1.275246e-009
-5.902486e-010
5.729566e-011
6.504906e-010
1.158114e-009
1.555929e-009
1.840471e-009
2.021847e-009
2.108633e-009
2.101860e-009
1.999177e-009
1.799399e-009
1.503099e-009
1.113658e-009
6.408714e-010
1.012979e-010
-4.883039e-010
-1.115869e-009
-1.765059e-009
-2.396477e-009
-2.941394e-009
-3.322581e-009
-3.484910e-009
-3.401206e-009
-3.046713e-009
-2.382362e-009
-1.390840e-009
-1.502286e-010
1.130184e-009
2.167616e-009
2.720408e-009
2.663286e-009
1.981384e-009
7.501887e-010
-8.149542e-010
-2.281029e-009
-3.054048e-009
-2.663937e-009
-1.127463e-009
9.259148e-010
2.543992e-009
2.987819e-009
2.125818e-009
4.345744e-010
-1.307975e-009
-2.370286e-009
-2.305474e-009
-1.115756e-009
6.464458e-010
2.007802e-009
2.084200e-009
7.574853e-010
-1.059801e-009
-1.990580e-009
-1.289609e-009
4.557527e-010
1.747526e-009
1.462426e-009
-1.291002e-010
-1.582318e-009
4.542368e-009
4.630476e-010
-3.981937e-009
-4.945165e-009
-1.704423e-009
2.929364e-009
5.182908e-009
3.456281e-009
-6.313453e-010
-3.889180e-009
-4.184405e-009
-1.802510e-009
1.269978e-009
3.102428e-009
3.007930e-009
1.479271e-009
-5.722926e-010
-2.375687e-009
-3.362812e-009
-3.104379e-009
-1.479933e-009
1.055409e-009
3.522293e-009
4.910299e-009
4.747935e-009
3.278242e-009
1.150223e-009
-1.033565e-009
-2.933555e-009
-4.393899e-009
-5.293153e-009
-5.526802e-009
-5.098213e-009
-4.161669e-009
-2.943594e-009
-1.622871e-009
-2.866005e-010
1.022490e-009
2.247654e-009
3.317203e-009
4.186541e-009
4.862789e-009
5.384317e-009
5.783454e-009
6.072164e-009
6.255961e-009
6.350566e-009
6.381255e-009
6.369816e-009
6.325250e-009
6.244570e-009
6.118127e-009
5.933915e-009
5.680690e-009
5.349400e-009
4.929584e-009
4.402219e-009
3.739545e-009
2.919885e-009
1.947650e-009
8.572433e-010
-3.044845e-010
-1.492754e-009
-2.648587e-009
-3.662127e-009
-4.364107e-009
-4.577589e-009
-4.198153e-009
-3.234955e-009
-1.791136e-009
-3.949053e-011
1.749671e-009
3.170517e-009
3.754757e-009
3.203744e-009
1.641154e-009
-3.455156e-010
-1.964464e-009
-2.611245e-009
-2.120482e-009
-7.658105e-010
8.810608e-010
2.103374e-009
2.244309e-009
1.057082e-009
-9.446443e-010
-2.545450e-009
-2.542476e-009
-7.348308e-010
1.684570e-009
2.897891e-009
1.930392e-009
-4.418588e-010
-2.268476e-009
-2.092034e-009
-2.282730e-010
1.549185e-009
1.661530e-009
1.729425e-010
-1.335825e-009
3.256367e-009
2.465326e-010
-2.891346e-009
-3.271459e-009
-6.032267e-010
2.616330e-009
3.412395e-009
1.019106e-009
-2.455528e-009
-3.919552e-009
-1.997238e-009
1.840348e-009
4.591179e-009
4.190218e-009
9.844390e-010
-2.831557e-009
-5.024978e-009
-4.735159e-009
-2.555196e-009
3.223965e-010
2.897935e-009
4.563037e-009
4.952973e-009
3.923910e-009
1.729080e-009
-9.244038e-010
-3.162018e-009
-4.389962e-009
-4.525294e-009
-3.852999e-009
-2.713427e-009
-1.321420e-009
1.950009e-010
1.687003e-009
2.973072e-009
3.923342e-009
4.522295e-009
4.837601e-009
4.940836e-009
4.866966e-009
4.636401e-009
4.290944e-009
3.894901e-009
3.505863e-009
3.153221e-009
2.844891e-009
2.587528e-009
2.396062e-009
2.286940e-009
2.267360e-009
2.332108e-009
2.468628e-009
2.664435e-009
2.911265e-009
3.202391e-009
3.523207e-009
3.842209e-009
4.113030e-009
4.288746e-009
4.333450e-009
4.215184e-009
3.887640e-009
3.290505e-009
2.385487e-009
1.202725e-009
-1.479936e-010
-1.510175e-009
-2.712209e-009
-3.556805e-009
-3.802652e-009
-3.225119e-009
-1.779123e-009
2.497756e-010
2.269362e-009
3.614552e-009
3.837206e-009
2.861386e-009
9.704179e-010
-1.260704e-009
-3.035874e-009
-3.536871e-009
-2.358940e-009
2.872382e-011
2.291736e-009
2.986091e-009
1.646982e-009
-7.122519e-010
-2.285726e-009
-1.909912e-009
-3.137706e-011
1.694096e-009
1.852835e-009
4.720673e-010
-1.110077e-009
-1.533150e-009
-6.233763e-010
5.836205e-010
9.408863e-010
2.887389e-010
-4.992531e-010
-4.144680e-010
-2.186582e-010
1.912566e-010
7.181689e-010
1.024573e-009
6.506359e-010
-5.592523e-010
-2.034224e-009
-2.598672e-009
-1.328933e-009
1.442768e-009
3.982218e-009
4.289954e-009
1.739150e-009
-2.216152e-009
-5.003316e-009
-4.829136e-009
-1.933625e-009
1.769957e-009
4.198329e-009
4.405494e-009
2.781265e-009
3.465186e-010
-1.997452e-009
-3.704219e-009
-4.440540e-009
-4.003764e-009
-2.448958e-009
-1.953959e-010
2.120840e-009
3.969794e-009
5.141233e-009
5.692418e-009
5.748896e-009
5.379824e-009
4.627044e-009
3.585337e-009
2.410038e-009
1.246915e-009
1.717580e-010
-8.011060e-010
-1.668932e-009
-2.411869e-009
-3.006741e-009
-3.452463e-009
-3.772520e-009
-3.994634e-009
-4.132497e-009
-4.185966e-009
-4.153358e-009
-4.039608e-009
-3.852468e-009
-3.592221e-009
-3.246175e-009
-2.794689e-009
-2.224695e-009
-1.538170e-009
-7.466562e-010
1.407415e-010
1.116192e-009
2.150289e-009
3.167258e-009
4.048903e-009
4.669765e-009
4.927294e-009
4.736265e-009
4.012663e-009
2.709642e-009
9.195475e-010
-1.043114e-009
-2.690910e-009
-3.553373e-009
-3.379200e-009
-2.216063e-009
-3.722403e-010
1.631713e-009
3.097337e-009
3.309450e-009
1.931445e-009
-5.656765e-010
-2.899502e-009
-3.656235e-009
-2.293557e-009
3.467909e-010
2.555803e-009
2.979839e-009
1.571091e-009
-4.963612e-010
-1.806644e-009
-1.713632e-009
-6.141281e-010
5.624686e-010
1.084633e-009
8.064689e-010
8.220121e-011
-5.643438e-010
-7.526005e-010
-4.184342e-010
1.816465e-010
6.346264e-010
-4.347275e-009
-6.182956e-010
3.479744e-009
4.525483e-009
1.905241e-009
-2.007187e-009
-4.153376e-009
-3.242086e-009
-3.339505e-010
2.434257e-009
3.475058e-009
2.464301e-009
1.110521e-010
-2.355599e-009
-3.628978e-009
-2.834254e-009
-1.180340e-010
3.153388e-009
5.049500e-009
4.316360e-009
1.252344e-009
-2.525593e-009
-5.207961e-009
-5.853986e-009
-4.629171e-009
-2.295500e-009
3.949514e-010
2.919749e-009
4.887781e-009
5.970357e-009
6.011057e-009
5.148485e-009
3.751853e-009
2.200267e-009
7.118119e-010
-6.479471e-010
-1.849371e-009
-2.828366e-009
-3.519341e-009
-3.918801e-009
-4.091908e-009
-4.119988e-009
-4.053169e-009
-3.911609e-009
-3.716415e-009
-3.505981e-009
-3.322367e-009
-3.189701e-009
-3.110193e-009
-3.078471e-009
-3.095046e-009
-3.164268e-009
-3.281246e-009
-3.424019e-009
-3.560419e-009
-3.661651e-009
-3.705360e-009
-3.662175e-009
-3.481646e-009
-3.100230e-009
-2.471618e-009
-1.590802e-009
-4.871127e-010
7.971044e-010
2.196377e-009
3.567852e-009
4.651181e-009
5.120282e-009
4.726577e-009
3.433568e-009
1.445024e-009
-8.574361e-010
-2.971260e-009
-4.303240e-009
-4.292479e-009
-2.722052e-009
-6.394249e-011
2.514573e-009
3.701968e-009
2.877479e-009
5.921277e-010
-1.745838e-009
-2.783134e-009
-2.050122e-009
-1.464852e-010
1.725928e-009
2.475527e-009
1.680130e-009
-1.909961e-010
-1.971818e-009
-2.441447e-009
-1.184451e-009
9.400138e-010
2.296646e-009
1.771652e-009
-1.870355e-010
-1.853176e-009
-1.744917e-009
-2.021208e-011
1.643250e-009
-6.064126e-009
-5.771200e-010
5.084118e-009
5.791202e-009
1.272254e-009
-4.019213e-009
-5.319622e-009
-1.821477e-009
3.038948e-009
5.031471e-009
2.770237e-009
-1.601348e-009
-4.681182e-009
-4.536870e-009
-1.653383e-009
2.036526e-009
4.635393e-009
5.097128e-009
3.318875e-009
1.471941e-011
-3.457264e-009
-5.548953e-009
-5.283450e-009
-2.838549e-009
5.797063e-010
3.519787e-009
5.087454e-009
5.186802e-009
4.201256e-009
2.571717e-009
6.402334e-010
-1.277283e-009
-2.846225e-009
-3.812886e-009
-4.125419e-009
-3.919677e-009
-3.381789e-009
-2.632065e-009
-1.724641e-009
-7.164026e-010
2.984197e-010
1.222628e-009
2.005806e-009
2.649995e-009
3.173775e-009
3.581335e-009
3.865318e-009
4.027556e-009
4.086100e-009
4.060388e-009
3.954173e-009
3.756020e-009
3.454319e-009
3.047165e-009
2.535907e-009
1.913726e-009
1.169626e-009
3.106219e-010
-6.200097e-010
-1.550347e-009
-2.404168e-009
-3.107683e-009
-3.564128e-009
-3.632481e-009
-3.163952e-009
-2.096369e-009
-5.341654e-010
1.257009e-009
2.925289e-009
4.096302e-009
4.399118e-009
3.540883e-009
1.511293e-009
-1.185364e-009
-3.541997e-009
-4.472607e-009
-3.455432e-009
-9.295462e-010
1.887464e-009
3.649755e-009
3.566456e-009
1.752264e-009
-8.355162e-010
-2.799766e-009
-2.976946e-009
-1.193117e-009
1.388478e-009
2.860320e-009
1.990097e-009
-5.971330e-010
-2.712000e-009
-2.434384e-009
5.340704e-011
2.482881e-009
2.576448e-009
2.731350e-010
-2.155670e-009
-2.335866e-009
-1.719678e-010
2.064129e-009
-4.415659e-009
-3.945846e-011
4.098473e-009
3.826328e-009
-4.312898e-010
-4.225229e-009
-3.620725e-009
9.108914e-010
5.015339e-009
4.695685e-009
4.920921e-011
-4.959631e-009
-6.178541e-009
-2.780471e-009
2.422481e-009
5.647913e-009
5.065171e-009
1.615182e-009
-2.315254e-009
-4.699795e-009
-4.738008e-009
-2.697601e-009
5.428676e-010
3.799873e-009
5.870125e-009
5.977330e-009
4.166659e-009
1.263127e-009
-1.642560e-009
-3.770754e-009
-4.865280e-009
-5.012522e-009
-4.377065e-009
-3.113680e-009
-1.428635e-009
3.933887e-010
2.076231e-009
3.459463e-009
4.510685e-009
5.249349e-009
5.680878e-009
5.802829e-009
5.648950e-009
5.303239e-009
4.867168e-009
4.420724e-009
4.015614e-009
3.693775e-009
3.498001e-009
3.459779e-009
3.581578e-009
3.836112e-009
4.181477e-009
4.571536e-009
4.949862e-009
5.240561e-009
5.356831e-009
5.226248e-009
4.807299e-009
4.079767e-009
3.028198e-009
1.656267e-009
3.710407e-011
-1.647796e-009
-3.131832e-009
-4.137696e-009
-4.438807e-009
-3.877552e-009
-2.396632e-009
-1.498042e-010
2.364870e-009
4.332608e-009
4.931763e-009
3.796319e-009
1.307093e-009
-1.521320e-009
-3.490796e-009
-3.738589e-009
-2.112983e-009
6.702119e-010
3.181875e-009
3.893015e-009
2.154618e-009
-1.077110e-009
-3.593149e-009
-3.485155e-009
-8.000765e-010
2.280974e-009
3.206391e-009
1.332596e-009
-1.456771e-009
-2.528655e-009
-1.031011e-009
1.337321e-009
2.118944e-009
6.211522e-010
-1.443781e-009
-1.845330e-009
-2.188898e-010
1.596518e-009
-3.078078e-010
5.956973e-010
9.799008e-010
-1.272246e-010
-1.856505e-009
-2.187279e-009
-1.436935e-010
2.805584e-009
3.824803e-009
1.454434e-009
-2.661666e-009
-4.965715e-009
-3.175044e-009
1.507099e-009
5.300967e-009
5.070823e-009
9.135013e-010
-4.096905e-009
-6.510549e-009
-5.004025e-009
-8.485590e-010
3.508666e-009
6.154426e-009
6.431970e-009
4.671137e-009
1.672171e-009
-1.579627e-009