# vtk DataFile Version 3.0
vtk output
ASCII
DATASET STRUCTURED_POINTS
DIMENSIONS 100 100 1
SPACING 1 1 1
ORIGIN 0 0 0
POINT_DATA 10000
SCALARS SFBox_profile double
LOOKUP_TABLE default 
9.439844e-003
9.439868e-003
9.439905e-003
9.439937e-003
9.439951e-003
9.439944e-003
9.439926e-003
9.439909e-003
9.439902e-003
9.439906e-003
9.439915e-003
9.439924e-003
9.439927e-003
9.439926e-003
9.439925e-003
9.439925e-003
9.439925e-003
9.439922e-003
9.439917e-003
9.439911e-003
9.439908e-003
9.439911e-003
9.439917e-003
9.439923e-003
9.439926e-003
9.439926e-003
9.439925e-003
9.439926e-003
9.439927e-003
9.439926e-003
9.439923e-003
9.439919e-003
9.439916e-003
9.439915e-003
9.439915e-003
9.439915e-003
9.439914e-003
9.439913e-003
9.439913e-003
9.439915e-003
9.439917e-003
9.439918e-003
9.439918e-003
9.439918e-003
9.439920e-003
9.439921e-003
9.439922e-003
9.439922e-003
9.439922e-003
9.439922e-003
9.439922e-003
9.439922e-003
9.439922e-003
9.439920e-003
9.439919e-003
9.439919e-003
9.439919e-003
9.439918e-003
9.439916e-003
9.439914e-003
9.439914e-003
9.439915e-003
9.439916e-003
9.439916e-003
9.439915e-003
9.439916e-003
9.439919e-003
9.439922e-003
9.439924e-003
9.439924e-003
9.439924e-003
9.439924e-003
9.439925e-003
9.439925e-003
9.439922e-003
9.439918e-003
9.439915e-003
9.439914e-003
9.439916e-003
9.439918e-003
9.439920e-003
9.439921e-003
9.439922e-003
9.439923e-003
9.439925e-003
9.439925e-003
9.439921e-003
9.439916e-003
9.439912e-003
9.439913e-003
9.439918e-003
9.439925e-003
9.439928e-003
9.439926e-003
9.439920e-003
9.439914e-003
9.439912e-003
9.439916e-003
9.439922e-003
9.439927e-003
9.439844e-003
9.439868e-003
9.439905e-003
9.439937e-003
9.439951e-003
9.439944e-003
9.439926e-003
9.439909e-003
9.439902e-003
9.439906e-003
9.439915e-003
9.439924e-003
9.439927e-003
9.439926e-003
9.439925e-003
9.439925e-003
9.439925e-003
9.439922e-003
9.439917e-003
9.439911e-003
9.439908e-003
9.439911e-003
9.439917e-003
9.439923e-003
9.439926e-003
9.439926e-003
9.439925e-003
9.439926e-003
9.439927e-003
9.439926e-003
9.439923e-003
9.439919e-003
9.439916e-003
9.439915e-003
9.439915e-003
9.439915e-003
9.439914e-003
9.439913e-003
9.439913e-003
9.439915e-003
9.439917e-003
9.439918e-003
9.439918e-003
9.439918e-003
9.439920e-003
9.439921e-003
9.439922e-003
9.439922e-003
9.439922e-003
9.439922e-003
9.439922e-003
9.439922e-003
9.439922e-003
9.439920e-003
9.439919e-003
9.439919e-003
9.439919e-003
9.439918e-003
9.439916e-003
9.439914e-003
9.439914e-003
9.439915e-003
9.439916e-003
9.439916e-003
9.439915e-003
9.439916e-003
9.439919e-003
9.439922e-003
9.439924e-003
9.439924e-003
9.439924e-003
9.439924e-003
9.439925e-003
9.439925e-003
9.439922e-003
9.439918e-003
9.439915e-003
9.439914e-003
9.439916e-003
9.439918e-003
9.439920e-003
9.439921e-003
9.439922e-003
9.439923e-003
9.439925e-003
9.439925e-003
9.439921e-003
9.439916e-003
9.439912e-003
9.439913e-003
9.439918e-003
9.439925e-003
9.439928e-003
9.439926e-003
9.439920e-003
9.439914e-003
9.439912e-003
9.439916e-003
9.439922e-003
9.439927e-003
9.439905e-003
9.439910e-003
9.439918e-003
9.439924e-003
9.439926e-003
9.439924e-003
9.439919e-003
9.439916e-003
9.439916e-003
9.439919e-003
9.439923e-003
9.439924e-003
9.439922e-003
9.439919e-003
9.439916e-003
9.439917e-003
9.439919e-003
9.439921e-003
9.439922e-003
9.439921e-003
9.439920e-003
9.439921e-003
9.439921e-003
9.439922e-003
9.439921e-003
9.439919e-003
9.439917e-003
9.439917e-003
9.439918e-003
9.439920e-003
9.439920e-003
9.439920e-003
9.439921e-003
9.439922e-003
9.439924e-003
9.439925e-003
9.439926e-003
9.439925e-003
9.439925e-003
9.439926e-003
9.439927e-003
9.439927e-003
9.439926e-003
9.439926e-003
9.439926e-003
9.439926e-003
9.439926e-003
9.439926e-003
9.439925e-003
9.439925e-003
9.439926e-003
9.439926e-003
9.439926e-003
9.439925e-003
9.439925e-003
9.439926e-003
9.439926e-003
9.439926e-003
9.439926e-003
9.439925e-003
9.439925e-003
9.439925e-003
9.439925e-003
9.439924e-003
9.439922e-003
9.439921e-003
9.439921e-003
9.439921e-003
9.439920e-003
9.439919e-003
9.439918e-003
9.439918e-003
9.439919e-003
9.439921e-003
9.439921e-003
9.439920e-003
9.439920e-003
9.439920e-003
9.439921e-003
9.439922e-003
9.439921e-003
9.439919e-003
9.439918e-003
9.439919e-003
9.439920e-003
9.439921e-003
9.439921e-003
9.439920e-003
9.439919e-003
9.439919e-003
9.439919e-003
9.439921e-003
9.439922e-003
9.439921e-003
9.439920e-003
9.439919e-003
9.439919e-003
9.439919e-003
9.439920e-003
9.439921e-003
9.439978e-003
9.439960e-003
9.439932e-003
9.439909e-003
9.439897e-003
9.439901e-003
9.439913e-003
9.439926e-003
9.439933e-003
9.439933e-003
9.439928e-003
9.439922e-003
9.439916e-003
9.439912e-003
9.439910e-003
9.439911e-003
9.439914e-003
9.439920e-003
9.439926e-003
9.439930e-003
9.439931e-003
9.439928e-003
9.439924e-003
9.439919e-003
9.439916e-003
9.439913e-003
9.439912e-003
9.439912e-003
9.439913e-003
9.439916e-003
9.439919e-003
9.439922e-003
9.439926e-003
9.439928e-003
9.439931e-003
9.439933e-003
9.439934e-003
9.439934e-003
9.439934e-003
9.439934e-003
9.439934e-003
9.439933e-003
9.439932e-003
9.439932e-003
9.439931e-003
9.439931e-003
9.439930e-003
9.439930e-003
9.439929e-003
9.439929e-003
9.439930e-003
9.439930e-003
9.439930e-003
9.439930e-003
9.439931e-003
9.439931e-003
9.439932e-003
9.439932e-003
9.439933e-003
9.439933e-003
9.439933e-003
9.439932e-003
9.439931e-003
9.439930e-003
9.439928e-003
9.439926e-003
9.439923e-003
9.439921e-003
9.439918e-003
9.439916e-003
9.439914e-003
9.439914e-003
9.439915e-003
9.439917e-003
9.439919e-003
9.439922e-003
9.439925e-003
9.439926e-003
9.439926e-003
9.439924e-003
9.439921e-003
9.439918e-003
9.439916e-003
9.439915e-003
9.439915e-003
9.439917e-003
9.439921e-003
9.439924e-003
9.439926e-003
9.439925e-003
9.439921e-003
9.439916e-003
9.439914e-003
9.439915e-003
9.439920e-003
9.439924e-003
9.439926e-003
9.439923e-003
9.439919e-003
9.439915e-003
9.440004e-003
9.439976e-003
9.439936e-003
9.439901e-003
9.439887e-003
9.439895e-003
9.439915e-003
9.439933e-003
9.439939e-003
9.439934e-003
9.439923e-003
9.439916e-003
9.439913e-003
9.439915e-003
9.439916e-003
9.439916e-003
9.439916e-003
9.439919e-003
9.439923e-003
9.439928e-003
9.439929e-003
9.439926e-003
9.439921e-003
9.439917e-003
9.439916e-003
9.439917e-003
9.439919e-003
9.439919e-003
9.439919e-003
9.439920e-003
9.439922e-003
9.439925e-003
9.439927e-003
9.439928e-003
9.439928e-003
9.439929e-003
9.439930e-003
9.439931e-003
9.439932e-003
9.439932e-003
9.439932e-003
9.439932e-003
9.439932e-003
9.439933e-003
9.439933e-003
9.439933e-003
9.439933e-003
9.439933e-003
9.439933e-003
9.439933e-003
9.439933e-003
9.439933e-003
9.439932e-003
9.439932e-003
9.439932e-003
9.439932e-003
9.439931e-003
9.439931e-003
9.439931e-003
9.439931e-003
9.439930e-003
9.439929e-003
9.439928e-003
9.439928e-003
9.439927e-003
9.439926e-003
9.439925e-003
9.439923e-003
9.439921e-003
9.439920e-003
9.439920e-003
9.439919e-003
9.439918e-003
9.439917e-003
9.439918e-003
9.439921e-003
9.439923e-003
9.439925e-003
9.439924e-003
9.439922e-003
9.439920e-003
9.439920e-003
9.439919e-003
9.439917e-003
9.439915e-003
9.439915e-003
9.439918e-003
9.439923e-003
9.439928e-003
9.439927e-003
9.439922e-003
9.439915e-003
9.439911e-003
9.439913e-003
9.439920e-003
9.439926e-003
9.439929e-003
9.439925e-003
9.439918e-003
9.439912e-003
9.439964e-003
9.439948e-003
9.439925e-003
9.439907e-003
9.439902e-003
9.439911e-003
9.439924e-003
9.439932e-003
9.439930e-003
9.439921e-003
9.439912e-003
9.439910e-003
9.439916e-003
9.439924e-003
9.439929e-003
9.439927e-003
9.439922e-003
9.439917e-003
9.439916e-003
9.439917e-003
9.439918e-003
9.439917e-003
9.439916e-003
9.439917e-003
9.439921e-003
9.439927e-003
9.439930e-003
9.439931e-003
9.439929e-003
9.439928e-003
9.439928e-003
9.439928e-003
9.439928e-003
9.439926e-003
9.439924e-003
9.439924e-003
9.439925e-003
9.439927e-003
9.439929e-003
9.439929e-003
9.439930e-003
9.439932e-003
9.439934e-003
9.439936e-003
9.439937e-003
9.439938e-003
9.439938e-003
9.439939e-003
9.439940e-003
9.439940e-003
9.439939e-003
9.439938e-003
9.439938e-003
9.439937e-003
9.439936e-003
9.439934e-003
9.439932e-003
9.439930e-003
9.439930e-003
9.439929e-003
9.439927e-003
9.439925e-003
9.439924e-003
9.439924e-003
9.439925e-003
9.439926e-003
9.439926e-003
9.439926e-003
9.439926e-003
9.439927e-003
9.439928e-003
9.439928e-003
9.439925e-003
9.439921e-003
9.439919e-003
9.439919e-003
9.439919e-003
9.439919e-003
9.439917e-003
9.439917e-003
9.439919e-003
9.439922e-003
9.439925e-003
9.439924e-003
9.439920e-003
9.439917e-003
9.439916e-003
9.439919e-003
9.439922e-003
9.439924e-003
9.439922e-003
9.439918e-003
9.439916e-003
9.439916e-003
9.439920e-003
9.439923e-003
9.439925e-003
9.439923e-003
9.439919e-003
9.439916e-003
9.439892e-003
9.439899e-003
9.439911e-003
9.439922e-003
9.439930e-003
9.439933e-003
9.439930e-003
9.439923e-003
9.439915e-003
9.439908e-003
9.439906e-003
9.439911e-003
9.439921e-003
9.439931e-003
9.439935e-003
9.439933e-003
9.439925e-003
9.439916e-003
9.439912e-003
9.439911e-003
9.439913e-003
9.439915e-003
9.439917e-003
9.439921e-003
9.439926e-003
9.439932e-003
9.439935e-003
9.439936e-003
9.439934e-003
9.439932e-003
9.439931e-003
9.439932e-003
9.439933e-003
9.439932e-003
9.439931e-003
9.439931e-003
9.439933e-003
9.439936e-003
9.439938e-003
9.439939e-003
9.439939e-003
9.439941e-003
9.439943e-003
9.439945e-003
9.439945e-003
9.439945e-003
9.439945e-003
9.439945e-003
9.439946e-003
9.439946e-003
9.439945e-003
9.439944e-003
9.439944e-003
9.439944e-003
9.439944e-003
9.439942e-003
9.439940e-003
9.439939e-003
9.439938e-003
9.439937e-003
9.439935e-003
9.439933e-003
9.439931e-003
9.439930e-003
9.439931e-003
9.439931e-003
9.439930e-003
9.439929e-003
9.439929e-003
9.439931e-003
9.439932e-003
9.439931e-003
9.439928e-003
9.439925e-003
9.439922e-003
9.439920e-003
9.439918e-003
9.439916e-003
9.439914e-003
9.439914e-003
9.439917e-003
9.439923e-003
9.439927e-003
9.439928e-003
9.439925e-003
9.439920e-003
9.439916e-003
9.439915e-003
9.439916e-003
9.439918e-003
9.439921e-003
9.439923e-003
9.439923e-003
9.439923e-003
9.439920e-003
9.439918e-003
9.439917e-003
9.439918e-003
9.439921e-003
9.439923e-003
9.439844e-003
9.439869e-003
9.439905e-003
9.439936e-003
9.439948e-003
9.439942e-003
9.439926e-003
9.439912e-003
9.439906e-003
9.439908e-003
9.439914e-003
9.439920e-003
9.439925e-003
9.439927e-003
9.439927e-003
9.439925e-003
9.439921e-003
9.439917e-003
9.439915e-003
9.439916e-003
9.439919e-003
9.439923e-003
9.439925e-003
9.439926e-003
9.439927e-003
9.439929e-003
9.439930e-003
9.439931e-003
9.439931e-003
9.439932e-003
9.439935e-003
9.439939e-003
9.439943e-003
9.439945e-003
9.439946e-003
9.439948e-003
9.439950e-003
9.439951e-003
9.439951e-003
9.439949e-003
9.439946e-003
9.439943e-003
9.439941e-003
9.439939e-003
9.439936e-003
9.439932e-003
9.439929e-003
9.439928e-003
9.439928e-003
9.439928e-003
9.439927e-003
9.439928e-003
9.439930e-003
9.439933e-003
9.439936e-003
9.439938e-003
9.439940e-003
9.439942e-003
9.439945e-003
9.439947e-003
9.439947e-003
9.439946e-003
9.439945e-003
9.439944e-003
9.439943e-003
9.439940e-003
9.439937e-003
9.439933e-003
9.439931e-003
9.439930e-003
9.439929e-003
9.439928e-003
9.439927e-003
9.439925e-003
9.439924e-003
9.439924e-003
9.439922e-003
9.439920e-003
9.439918e-003
9.439917e-003
9.439918e-003
9.439920e-003
9.439923e-003
9.439924e-003
9.439924e-003
9.439923e-003
9.439920e-003
9.439917e-003
9.439914e-003
9.439914e-003
9.439918e-003
9.439924e-003
9.439928e-003
9.439927e-003
9.439921e-003
9.439914e-003
9.439911e-003
9.439915e-003
9.439922e-003
9.439928e-003
9.439854e-003
9.439879e-003
9.439914e-003
9.439940e-003
9.439945e-003
9.439932e-003
9.439913e-003
9.439904e-003
9.439908e-003
9.439921e-003
9.439931e-003
9.439932e-003
9.439924e-003
9.439915e-003
9.439911e-003
9.439912e-003
9.439917e-003
9.439921e-003
9.439924e-003
9.439927e-003
9.439930e-003
9.439932e-003
9.439933e-003
9.439931e-003
9.439928e-003
9.439926e-003
9.439927e-003
9.439930e-003
9.439934e-003
9.439938e-003
9.439942e-003
9.439947e-003
9.439951e-003
9.439952e-003
9.439952e-003
9.439949e-003
9.439944e-003
9.439937e-003
9.439928e-003
9.439917e-003
9.439904e-003
9.439891e-003
9.439879e-003
9.439867e-003
9.439855e-003
9.439844e-003
9.439835e-003
9.439830e-003
9.439827e-003
9.439826e-003
9.439828e-003
9.439832e-003
9.439840e-003
9.439849e-003
9.439861e-003
9.439872e-003
9.439884e-003
9.439897e-003
9.439910e-003
9.439921e-003
9.439930e-003
9.439937e-003
9.439943e-003
9.439946e-003
9.439948e-003
9.439947e-003
9.439944e-003
9.439940e-003
9.439936e-003
9.439933e-003
9.439929e-003
9.439927e-003
9.439925e-003
9.439926e-003
9.439927e-003
9.439928e-003
9.439928e-003
9.439927e-003
9.439925e-003
9.439923e-003
9.439921e-003
9.439918e-003
9.439915e-003
9.439916e-003
9.439919e-003
9.439923e-003
9.439925e-003
9.439923e-003
9.439918e-003
9.439915e-003
9.439916e-003
9.439921e-003
9.439926e-003
9.439926e-003
9.439921e-003
9.439915e-003
9.439912e-003
9.439915e-003
9.439922e-003
9.439927e-003
9.439909e-003
9.439917e-003
9.439927e-003
9.439931e-003
9.439925e-003
9.439913e-003
9.439904e-003
9.439906e-003
9.439918e-003
9.439933e-003
9.439940e-003
9.439935e-003
9.439921e-003
9.439907e-003
9.439902e-003
9.439908e-003
9.439918e-003
9.439927e-003
9.439931e-003
9.439932e-003
9.439932e-003
9.439934e-003
9.439935e-003
9.439934e-003
9.439933e-003
9.439933e-003
9.439935e-003
9.439941e-003
9.439946e-003
9.439948e-003
9.439947e-003
9.439943e-003
9.439937e-003
9.439926e-003
9.439911e-003
9.439890e-003
9.439865e-003
9.439835e-003
9.439802e-003
9.439766e-003
9.439729e-003
9.439690e-003
9.439653e-003
9.439617e-003
9.439585e-003
9.439556e-003
9.439534e-003
9.439518e-003
9.439510e-003
9.439509e-003
9.439515e-003
9.439528e-003
9.439549e-003
9.439576e-003
9.439607e-003
9.439642e-003
9.439679e-003
9.439718e-003
9.439756e-003
9.439792e-003
9.439826e-003
9.439856e-003
9.439882e-003
9.439903e-003
9.439920e-003
9.439931e-003
9.439938e-003
9.439942e-003
9.439943e-003
9.439941e-003
9.439938e-003
9.439934e-003
9.439931e-003
9.439930e-003
9.439930e-003
9.439930e-003
9.439929e-003
9.439928e-003
9.439929e-003
9.439928e-003
9.439925e-003
9.439918e-003
9.439913e-003
9.439911e-003
9.439915e-003
9.439922e-003
9.439927e-003
9.439927e-003
9.439923e-003
9.439918e-003
9.439916e-003
9.439917e-003
9.439920e-003
9.439921e-003
9.439921e-003
9.439920e-003
9.439919e-003
9.439919e-003
9.439920e-003
9.439921e-003
9.439966e-003
9.439953e-003
9.439933e-003
9.439915e-003
9.439905e-003
9.439904e-003
9.439909e-003
9.439918e-003
9.439927e-003
9.439933e-003
9.439932e-003
9.439926e-003
9.439916e-003
9.439910e-003
9.439910e-003
9.439917e-003
9.439926e-003
9.439932e-003
9.439932e-003
9.439928e-003
9.439927e-003
9.439929e-003
9.439935e-003
9.439940e-003
9.439944e-003
9.439948e-003
9.439951e-003
9.439953e-003
9.439951e-003
9.439941e-003
9.439922e-003
9.439894e-003
9.439859e-003
9.439814e-003
9.439759e-003
9.439692e-003
9.439615e-003
9.439528e-003
9.439435e-003
9.439337e-003
9.439235e-003
9.439133e-003
9.439033e-003
9.438940e-003
9.438856e-003
9.438784e-003
9.438727e-003
9.438687e-003
9.438665e-003
9.438662e-003
9.438680e-003
9.438716e-003
9.438769e-003
9.438839e-003
9.438921e-003
9.439013e-003
9.439113e-003
9.439217e-003
9.439320e-003
9.439421e-003
9.439516e-003
9.439604e-003
9.439683e-003
9.439751e-003
9.439807e-003
9.439852e-003
9.439888e-003
9.439915e-003
9.439933e-003
9.439942e-003
9.439945e-003
9.439945e-003
9.439943e-003
9.439940e-003
9.439936e-003
9.439931e-003
9.439927e-003
9.439925e-003
9.439926e-003
9.439928e-003
9.439927e-003
9.439923e-003
9.439918e-003
9.439915e-003
9.439915e-003
9.439919e-003
9.439923e-003
9.439925e-003
9.439925e-003
9.439922e-003
9.439919e-003
9.439916e-003
9.439915e-003
9.439916e-003
9.439920e-003
9.439924e-003
9.439926e-003
9.439924e-003
9.439918e-003
9.439914e-003
9.439986e-003
9.439961e-003
9.439926e-003
9.439901e-003
9.439897e-003
9.439910e-003
9.439926e-003
9.439933e-003
9.439929e-003
9.439920e-003
9.439912e-003
9.439912e-003
9.439916e-003
9.439922e-003
9.439928e-003
9.439932e-003
9.439934e-003
9.439932e-003
9.439929e-003
9.439925e-003
9.439925e-003
9.439930e-003
9.439940e-003
9.439949e-003
9.439955e-003
9.439955e-003
9.439949e-003
9.439934e-003
9.439907e-003
9.439864e-003
9.439802e-003
9.439719e-003
9.439615e-003
9.439488e-003
9.439336e-003
9.439159e-003
9.438957e-003
9.438734e-003
9.438496e-003
9.438247e-003
9.437992e-003
9.437738e-003
9.437492e-003
9.437262e-003
9.437058e-003
9.436884e-003
9.436746e-003
9.436649e-003
9.436596e-003
9.436591e-003
9.436634e-003
9.436722e-003
9.436853e-003
9.437021e-003
9.437223e-003
9.437452e-003
9.437699e-003
9.437957e-003
9.438217e-003
9.438472e-003
9.438717e-003
9.438945e-003
9.439151e-003
9.439332e-003
9.439486e-003
9.439614e-003
9.439718e-003
9.439799e-003
9.439859e-003
9.439900e-003
9.439926e-003
9.439940e-003
9.439947e-003
9.439948e-003
9.439944e-003
9.439936e-003
9.439929e-003
9.439924e-003
9.439924e-003
9.439926e-003
9.439928e-003
9.439928e-003
9.439926e-003
9.439923e-003
9.439921e-003
9.439918e-003
9.439917e-003
9.439918e-003
9.439921e-003
9.439924e-003
9.439924e-003
9.439920e-003
9.439915e-003
9.439914e-003
9.439918e-003
9.439925e-003
9.439929e-003
9.439926e-003
9.439918e-003
9.439912e-003
9.439965e-003
9.439942e-003
9.439912e-003
9.439896e-003
9.439903e-003
9.439924e-003
9.439941e-003
9.439941e-003
9.439925e-003
9.439906e-003
9.439898e-003
9.439905e-003
9.439921e-003
9.439935e-003
9.439940e-003
9.439938e-003
9.439933e-003
9.439929e-003
9.439929e-003
9.439932e-003
9.439938e-003
9.439944e-003
9.439951e-003
9.439954e-003
9.439947e-003
9.439926e-003
9.439887e-003
9.439826e-003
9.439738e-003
9.439614e-003
9.439448e-003
9.439234e-003
9.438967e-003
9.438646e-003
9.438267e-003
9.437831e-003
9.437342e-003
9.436809e-003
9.436242e-003
9.435654e-003
9.435058e-003
9.434469e-003
9.433904e-003
9.433380e-003
9.432914e-003
9.432520e-003
9.432210e-003
9.431992e-003
9.431876e-003
9.431865e-003
9.431962e-003
9.432162e-003
9.432458e-003
9.432843e-003
9.433303e-003
9.433827e-003
9.434397e-003
9.434995e-003
9.435603e-003
9.436205e-003
9.436786e-003
9.437333e-003
9.437834e-003
9.438278e-003
9.438663e-003
9.438987e-003
9.439254e-003
9.439466e-003
9.439627e-003
9.439746e-003
9.439829e-003
9.439884e-003
9.439920e-003
9.439939e-003
9.439946e-003
9.439944e-003
9.439939e-003
9.439933e-003
9.439929e-003
9.439927e-003
9.439926e-003
9.439928e-003
9.439930e-003
9.439930e-003
9.439926e-003
9.439920e-003
9.439913e-003
9.439912e-003
9.439917e-003
9.439923e-003
9.439927e-003
9.439924e-003
9.439919e-003
9.439915e-003
9.439916e-003
9.439921e-003
9.439925e-003
9.439924e-003
9.439919e-003
9.439915e-003
9.439925e-003
9.439916e-003
9.439906e-003
9.439905e-003
9.439917e-003
9.439933e-003
9.439941e-003
9.439935e-003
9.439919e-003
9.439904e-003
9.439901e-003
9.439912e-003
9.439929e-003
9.439939e-003
9.439939e-003
9.439931e-003
9.439926e-003
9.439929e-003
9.439939e-003
9.439951e-003
9.439959e-003
9.439959e-003
9.439950e-003
9.439927e-003
9.439882e-003
9.439807e-003
9.439689e-003
9.439519e-003
9.439283e-003
9.438967e-003
9.438554e-003
9.438033e-003
9.437392e-003
9.436630e-003
9.435744e-003
9.434741e-003
9.433633e-003
9.432436e-003
9.431177e-003
9.429883e-003
9.428584e-003
9.427313e-003
9.426103e-003
9.424990e-003
9.424004e-003
9.423175e-003
9.422525e-003
9.422072e-003
9.421832e-003
9.421813e-003
9.422017e-003
9.422437e-003
9.423061e-003
9.423873e-003
9.424851e-003
9.425966e-003
9.427188e-003
9.428479e-003
9.429805e-003
9.431130e-003
9.432421e-003
9.433647e-003
9.434782e-003
9.435806e-003
9.436704e-003
9.437473e-003
9.438112e-003
9.438628e-003
9.439030e-003
9.439334e-003
9.439556e-003
9.439712e-003
9.439817e-003
9.439884e-003
9.439922e-003
9.439941e-003
9.439948e-003
9.439947e-003
9.439941e-003
9.439933e-003
9.439927e-003
9.439925e-003
9.439928e-003
9.439931e-003
9.439929e-003
9.439923e-003
9.439916e-003
9.439912e-003
9.439915e-003
9.439921e-003
9.439926e-003
9.439926e-003
9.439923e-003
9.439918e-003
9.439916e-003
9.439917e-003
9.439919e-003
9.439921e-003
9.439921e-003
9.439921e-003
9.439892e-003
9.439900e-003
9.439913e-003
9.439924e-003
9.439929e-003
9.439928e-003
9.439924e-003
9.439919e-003
9.439915e-003
9.439915e-003
9.439920e-003
9.439928e-003
9.439935e-003
9.439935e-003
9.439930e-003
9.439924e-003
9.439926e-003
9.439937e-003
9.439954e-003
9.439967e-003
9.439965e-003
9.439943e-003
9.439895e-003
9.439814e-003
9.439684e-003
9.439483e-003
9.439185e-003
9.438763e-003
9.438191e-003
9.437437e-003
9.436474e-003
9.435278e-003
9.433834e-003
9.432139e-003
9.430201e-003
9.428039e-003
9.425682e-003
9.423173e-003
9.420564e-003
9.417914e-003
9.415285e-003
9.412742e-003
9.410348e-003
9.408163e-003
9.406245e-003
9.404642e-003
9.403394e-003
9.402532e-003
9.402080e-003
9.402050e-003
9.402444e-003
9.403255e-003
9.404463e-003
9.406040e-003
9.407948e-003
9.410141e-003
9.412560e-003
9.415144e-003
9.417826e-003
9.420536e-003
9.423209e-003
9.425778e-003
9.428189e-003
9.430393e-003
9.432357e-003
9.434063e-003
9.435504e-003
9.436684e-003
9.437623e-003
9.438346e-003
9.438885e-003
9.439274e-003
9.439542e-003
9.439719e-003
9.439831e-003
9.439897e-003
9.439935e-003
9.439951e-003
9.439951e-003
9.439943e-003
9.439933e-003
9.439926e-003
9.439925e-003
9.439927e-003
9.439928e-003
9.439926e-003
9.439923e-003
9.439919e-003
9.439918e-003
9.439918e-003
9.439920e-003
9.439923e-003
9.439924e-003
9.439923e-003
9.439920e-003
9.439916e-003
9.439914e-003
9.439917e-003
9.439922e-003
9.439926e-003
9.439876e-003
9.439899e-003
9.439927e-003
9.439942e-003
9.439936e-003
9.439917e-003
9.439903e-003
9.439903e-003
9.439915e-003
9.439931e-003
9.439940e-003
9.439939e-003
9.439934e-003
9.439928e-003
9.439926e-003
9.439930e-003
9.439940e-003
9.439954e-003
9.439963e-003
9.439956e-003
9.439922e-003
9.439847e-003
9.439717e-003
9.439507e-003
9.439183e-003
9.438697e-003
9.437996e-003
9.437024e-003
9.435725e-003
9.434045e-003
9.431936e-003
9.429363e-003
9.426312e-003
9.422790e-003
9.418831e-003
9.414489e-003
9.409840e-003
9.404978e-003
9.400011e-003
9.395054e-003
9.390225e-003
9.385635e-003
9.381387e-003
9.377573e-003
9.374274e-003
9.371554e-003
9.369463e-003
9.368038e-003
9.367304e-003
9.367275e-003
9.367954e-003
9.369330e-003
9.371384e-003
9.374083e-003
9.377379e-003
9.381212e-003
9.385503e-003
9.390160e-003
9.395074e-003
9.400131e-003
9.405205e-003
9.410173e-003
9.414917e-003
9.419334e-003
9.423342e-003
9.426882e-003
9.429923e-003
9.432459e-003
9.434512e-003
9.436123e-003
9.437346e-003
9.438244e-003
9.438877e-003
9.439305e-003
9.439584e-003
9.439759e-003
9.439863e-003
9.439920e-003
9.439944e-003
9.439948e-003
9.439942e-003
9.439934e-003
9.439928e-003
9.439925e-003
9.439925e-003
9.439927e-003
9.439928e-003
9.439927e-003
9.439923e-003
9.439917e-003
9.439914e-003
9.439916e-003
9.439922e-003
9.439926e-003
9.439924e-003
9.439918e-003
9.439914e-003
9.439915e-003
9.439921e-003
9.439927e-003
9.439876e-003
9.439903e-003
9.439936e-003
9.439949e-003
9.439936e-003
9.439909e-003
9.439893e-003
9.439899e-003
9.439921e-003
9.439941e-003
9.439947e-003
9.439938e-003
9.439927e-003
9.439926e-003
9.439936e-003
9.439952e-003
9.439964e-003
9.439963e-003
9.439942e-003
9.439888e-003
9.439781e-003
9.439590e-003
9.439274e-003
9.438777e-003
9.438023e-003
9.436921e-003
9.435367e-003
9.433255e-003
9.430485e-003
9.426969e-003
9.422639e-003
9.417465e-003
9.411458e-003
9.404681e-003
9.397243e-003
9.389298e-003
9.381031e-003
9.372649e-003
9.364364e-003
9.356382e-003
9.348889e-003
9.342037e-003
9.335943e-003
9.330687e-003
9.326315e-003
9.322845e-003
9.320275e-003
9.318592e-003
9.317782e-003
9.317833e-003
9.318742e-003
9.320514e-003
9.323159e-003
9.326689e-003
9.331110e-003
9.336409e-003
9.342551e-003
9.349463e-003
9.357035e-003
9.365116e-003
9.373518e-003
9.382027e-003
9.390415e-003
9.398461e-003
9.405965e-003
9.412763e-003
9.418740e-003
9.423835e-003
9.428045e-003
9.431414e-003
9.434022e-003
9.435972e-003
9.437377e-003
9.438350e-003
9.438999e-003
9.439415e-003
9.439670e-003
9.439818e-003
9.439898e-003
9.439935e-003
9.439948e-003
9.439947e-003
9.439939e-003
9.439931e-003
9.439925e-003
9.439926e-003
9.439929e-003
9.439931e-003
9.439928e-003
9.439919e-003
9.439912e-003
9.439912e-003
9.439919e-003
9.439926e-003
9.439927e-003
9.439922e-003
9.439916e-003
9.439915e-003
9.439919e-003
9.439924e-003
9.439886e-003
9.439907e-003
9.439932e-003
9.439941e-003
9.439930e-003
9.439911e-003
9.439902e-003
9.439911e-003
9.439929e-003
9.439942e-003
9.439940e-003
9.439929e-003
9.439924e-003
9.439934e-003
9.439955e-003
9.439973e-003
9.439971e-003
9.439937e-003
9.439856e-003
9.439706e-003
9.439442e-003
9.438998e-003
9.438280e-003
9.437168e-003
9.435517e-003
9.433157e-003
9.429906e-003
9.425584e-003
9.420034e-003
9.413147e-003
9.404881e-003
9.395286e-003
9.384514e-003
9.372824e-003
9.360566e-003
9.348155e-003
9.336034e-003
9.324637e-003
9.314347e-003
9.305462e-003
9.298171e-003
9.292538e-003
9.288505e-003
9.285904e-003
9.284489e-003
9.283967e-003
9.284033e-003
9.284411e-003
9.284886e-003
9.285326e-003
9.285700e-003
9.286080e-003
9.286633e-003
9.287605e-003
9.289290e-003
9.291997e-003
9.296003e-003
9.301520e-003
9.308656e-003
9.317390e-003
9.327565e-003
9.338898e-003
9.350999e-003
9.363415e-003
9.375673e-003
9.387327e-003
9.398002e-003
9.407428e-003
9.415455e-003
9.422049e-003
9.427275e-003
9.431267e-003
9.434207e-003
9.436290e-003
9.437710e-003
9.438641e-003
9.439224e-003
9.439572e-003
9.439771e-003
9.439878e-003
9.439931e-003
9.439951e-003
9.439951e-003
9.439941e-003
9.439930e-003
9.439925e-003
9.439927e-003
9.439930e-003
9.439929e-003
9.439922e-003
9.439915e-003
9.439913e-003
9.439917e-003
9.439923e-003
9.439926e-003
9.439924e-003
9.439919e-003
9.439917e-003
9.439918e-003
9.439920e-003
9.439910e-003
9.439914e-003
9.439920e-003
9.439922e-003
9.439920e-003
9.439919e-003
9.439922e-003
9.439929e-003
9.439935e-003
9.439936e-003
9.439930e-003
9.439927e-003
9.439933e-003
9.439950e-003
9.439969e-003
9.439970e-003
9.439931e-003
9.439830e-003
9.439634e-003
9.439287e-003
9.438694e-003
9.437717e-003
9.436169e-003
9.433825e-003
9.430420e-003
9.425662e-003
9.419260e-003
9.410962e-003
9.400611e-003
9.388204e-003
9.373937e-003
9.358248e-003
9.341812e-003
9.325521e-003
9.310408e-003
9.297556e-003
9.287976e-003
9.282494e-003
9.281656e-003
9.285649e-003
9.294269e-003
9.306919e-003
9.322650e-003
9.340237e-003
9.358286e-003
9.375353e-003
9.390068e-003
9.401252e-003
9.408015e-003
9.409823e-003
9.406551e-003
9.398489e-003
9.386328e-003
9.371106e-003
9.354127e-003
9.336850e-003
9.320762e-003
9.307242e-003
9.297429e-003
9.292117e-003
9.291683e-003
9.296062e-003
9.304773e-003
9.316989e-003
9.331651e-003
9.347597e-003
9.363707e-003
9.379025e-003
9.392835e-003
9.404699e-003
9.414443e-003
9.422111e-003
9.427903e-003
9.432106e-003
9.435037e-003
9.436999e-003
9.438256e-003
9.439026e-003
9.439477e-003
9.439729e-003
9.439864e-003
9.439928e-003
9.439950e-003
9.439949e-003
9.439938e-003
9.439929e-003
9.439926e-003
9.439927e-003
9.439928e-003
9.439926e-003
9.439922e-003
9.439919e-003
9.439918e-003
9.439919e-003
9.439921e-003
9.439922e-003
9.439922e-003
9.439921e-003
9.439919e-003
9.439918e-003
9.439945e-003
9.439929e-003
9.439910e-003
9.439902e-003
9.439910e-003
9.439927e-003
9.439939e-003
9.439941e-003
9.439935e-003
9.439928e-003
9.439929e-003
9.439938e-003
9.439954e-003
9.439967e-003
9.439962e-003
9.439917e-003
9.439803e-003
9.439569e-003
9.439140e-003
9.438387e-003
9.437123e-003
9.435084e-003
9.431933e-003
9.427269e-003
9.420650e-003
9.411636e-003
9.399869e-003
9.385185e-003
9.367755e-003
9.348216e-003
9.327776e-003
9.308235e-003
9.291923e-003
9.281538e-003
9.279879e-003
9.289544e-003
9.312599e-003
9.350295e-003
9.402859e-003
9.469380e-003
9.547803e-003
9.635026e-003
9.727087e-003
9.819429e-003
9.907224e-003
9.985715e-003
1.005054e-002
1.009805e-002
1.012552e-002
1.013133e-002
1.011510e-002
1.007769e-002
1.002118e-002
9.948770e-003
9.864544e-003
9.773242e-003
9.679911e-003
9.589530e-003
9.506636e-003
9.434970e-003
9.377197e-003
9.334732e-003
9.307684e-003
9.294945e-003
9.294407e-003
9.303294e-003
9.318558e-003
9.337256e-003
9.356866e-003
9.375484e-003
9.391881e-003
9.405459e-003
9.416119e-003
9.424094e-003
9.429800e-003
9.433709e-003
9.436272e-003
9.437880e-003
9.438843e-003
9.439395e-003
9.439696e-003
9.439851e-003
9.439921e-003
9.439945e-003
9.439946e-003
9.439938e-003