# vtk DataFile Version 3.0
vtk output
ASCII
DATASET STRUCTURED_POINTS
DIMENSIONS 100 100 1
SPACING 1 1 1
ORIGIN 0 0 0
POINT_DATA 10000
SCALARS SFBox_profile double
LOOKUP_TABLE default 
9.439919e-003
9.439920e-003
9.439920e-003
9.439920e-003
9.439920e-003
9.439920e-003
9.439920e-003
9.439920e-003
9.439920e-003
9.439920e-003
9.439920e-003
9.439920e-003
9.439920e-003
9.439920e-003
9.439920e-003
9.439920e-003
9.439920e-003
9.439920e-003
9.439920e-003
9.439920e-003
9.439920e-003
9.439920e-003
9.439920e-003
9.439920e-003
9.439920e-003
9.439920e-003
9.439920e-003
9.439920e-003
9.439921e-003
9.439921e-003
9.439921e-003
9.439921e-003
9.439921e-003
9.439921e-003
9.439921e-003
9.439921e-003
9.439921e-003
9.439921e-003
9.439921e-003
9.439921e-003
9.439921e-003
9.439921e-003
9.439922e-003
9.439922e-003
9.439922e-003
9.439922e-003
9.439922e-003
9.439922e-003
9.439922e-003
9.439922e-003
9.439922e-003
9.439922e-003
9.439922e-003
9.439922e-003
9.439922e-003
9.439922e-003
9.439922e-003
9.439922e-003
9.439922e-003
9.439921e-003
9.439921e-003
9.439921e-003
9.439921e-003
9.439921e-003
9.439921e-003
9.439921e-003
9.439921e-003
9.439921e-003
9.439921e-003
9.439921e-003
9.439921e-003
9.439921e-003
9.439920e-003
9.439920e-003
9.439920e-003
9.439920e-003
9.439920e-003
9.439920e-003
9.439920e-003
9.439920e-003
9.439920e-003
9.439920e-003
9.439920e-003
9.439920e-003
9.439920e-003
9.439920e-003
9.439920e-003
9.439920e-003
9.439920e-003
9.439920e-003
9.439920e-003
9.439920e-003
9.439920e-003
9.439920e-003
9.439920e-003
9.439920e-003
9.439920e-003
9.439920e-003
9.439920e-003
9.439920e-003
9.439919e-003
9.439920e-003
9.439920e-003
9.439920e-003
9.439920e-003
9.439920e-003
9.439920e-003
9.439920e-003
9.439920e-003
9.439920e-003
9.439920e-003
9.439920e-003
9.439920e-003
9.439920e-003
9.439920e-003
9.439920e-003
9.439920e-003
9.439920e-003
9.439920e-003
9.439920e-003
9.439920e-003
9.439920e-003
9.439920e-003
9.439920e-003
9.439920e-003
9.439920e-003
9.439920e-003
9.439920e-003
9.439921e-003
9.439921e-003
9.439921e-003
9.439921e-003
9.439921e-003
9.439921e-003
9.439921e-003
9.439921e-003
9.439921e-003
9.439921e-003
9.439921e-003
9.439921e-003
9.439921e-003
9.439921e-003
9.439922e-003
9.439922e-003
9.439922e-003
9.439922e-003
9.439922e-003
9.439922e-003
9.439922e-003
9.439922e-003
9.439922e-003
9.439922e-003
9.439922e-003
9.439922e-003
9.439922e-003
9.439922e-003
9.439922e-003
9.439922e-003
9.439922e-003
9.439921e-003
9.439921e-003
9.439921e-003
9.439921e-003
9.439921e-003
9.439921e-003
9.439921e-003
9.439921e-003
9.439921e-003
9.439921e-003
9.439921e-003
9.439921e-003
9.439921e-003
9.439920e-003
9.439920e-003
9.439920e-003
9.439920e-003
9.439920e-003
9.439920e-003
9.439920e-003
9.439920e-003
9.439920e-003
9.439920e-003
9.439920e-003
9.439920e-003
9.439920e-003
9.439920e-003
9.439920e-003
9.439920e-003
9.439920e-003
9.439920e-003
9.439920e-003
9.439920e-003
9.439920e-003
9.439920e-003
9.439920e-003
9.439920e-003
9.439920e-003
9.439920e-003
9.439920e-003
9.439920e-003
9.439920e-003
9.439920e-003
9.439920e-003
9.439920e-003
9.439920e-003
9.439920e-003
9.439920e-003
9.439920e-003
9.439920e-003
9.439920e-003
9.439920e-003
9.439920e-003
9.439920e-003
9.439920e-003
9.439920e-003
9.439920e-003
9.439920e-003
9.439920e-003
9.439920e-003
9.439920e-003
9.439920e-003
9.439920e-003
9.439920e-003
9.439920e-003
9.439920e-003
9.439920e-003
9.439920e-003
9.439920e-003
9.439920e-003
9.439920e-003
9.439920e-003
9.439920e-003
9.439921e-003
9.439921e-003
9.439921e-003
9.439921e-003
9.439921e-003
9.439922e-003
9.439922e-003
9.439922e-003
9.439922e-003
9.439923e-003
9.439923e-003
9.439923e-003
9.439923e-003
9.439923e-003
9.439924e-003
9.439924e-003
9.439924e-003
9.439924e-003
9.439924e-003
9.439924e-003
9.439924e-003
9.439924e-003
9.439924e-003
9.439924e-003
9.439923e-003
9.439923e-003
9.439923e-003
9.439923e-003
9.439923e-003
9.439922e-003
9.439922e-003
9.439922e-003
9.439922e-003
9.439921e-003
9.439921e-003
9.439921e-003
9.439921e-003
9.439920e-003
9.439920e-003
9.439920e-003
9.439920e-003
9.439920e-003
9.439920e-003
9.439920e-003
9.439920e-003
9.439920e-003
9.439920e-003
9.439920e-003
9.439920e-003
9.439920e-003
9.439920e-003
9.439920e-003
9.439920e-003
9.439920e-003
9.439920e-003
9.439920e-003
9.439920e-003
9.439920e-003
9.439920e-003
9.439920e-003
9.439920e-003
9.439920e-003
9.439920e-003
9.439920e-003
9.439920e-003
9.439920e-003
9.439920e-003
9.439920e-003
9.439920e-003
9.439920e-003
9.439920e-003
9.439920e-003
9.439920e-003
9.439920e-003
9.439920e-003
9.439920e-003
9.439920e-003
9.439920e-003
9.439920e-003
9.439920e-003
9.439920e-003
9.439920e-003
9.439920e-003
9.439920e-003
9.439920e-003
9.439920e-003
9.439920e-003
9.439920e-003
9.439920e-003
9.439921e-003
9.439921e-003
9.439921e-003
9.439920e-003
9.439920e-003
9.439920e-003
9.439920e-003
9.439920e-003
9.439920e-003
9.439921e-003
9.439921e-003
9.439921e-003
9.439921e-003
9.439922e-003
9.439922e-003
9.439923e-003
9.439923e-003
9.439924e-003
9.439924e-003
9.439925e-003
9.439925e-003
9.439926e-003
9.439926e-003
9.439926e-003
9.439927e-003
9.439927e-003
9.439927e-003
9.439927e-003
9.439927e-003
9.439927e-003
9.439927e-003
9.439927e-003
9.439927e-003
9.439927e-003
9.439927e-003
9.439927e-003
9.439926e-003
9.439926e-003
9.439926e-003
9.439925e-003
9.439925e-003
9.439924e-003
9.439924e-003
9.439923e-003
9.439923e-003
9.439922e-003
9.439922e-003
9.439921e-003
9.439921e-003
9.439921e-003
9.439920e-003
9.439920e-003
9.439920e-003
9.439920e-003
9.439920e-003
9.439920e-003
9.439920e-003
9.439920e-003
9.439920e-003
9.439920e-003
9.439920e-003
9.439920e-003
9.439920e-003
9.439920e-003
9.439920e-003
9.439920e-003
9.439920e-003
9.439920e-003
9.439920e-003
9.439920e-003
9.439920e-003
9.439920e-003
9.439920e-003
9.439920e-003
9.439920e-003
9.439920e-003
9.439920e-003
9.439920e-003
9.439920e-003
9.439921e-003
9.439920e-003
9.439920e-003
9.439920e-003
9.439920e-003
9.439920e-003
9.439920e-003
9.439920e-003
9.439920e-003
9.439920e-003
9.439920e-003
9.439920e-003
9.439920e-003
9.439920e-003
9.439920e-003
9.439920e-003
9.439920e-003
9.439920e-003
9.439920e-003
9.439920e-003
9.439920e-003
9.439920e-003
9.439920e-003
9.439920e-003
9.439921e-003
9.439921e-003
9.439921e-003
9.439921e-003
9.439921e-003
9.439922e-003
9.439922e-003
9.439923e-003
9.439923e-003
9.439924e-003
9.439925e-003
9.439925e-003
9.439926e-003
9.439927e-003
9.439927e-003
9.439928e-003
9.439929e-003
9.439929e-003
9.439930e-003
9.439931e-003
9.439931e-003
9.439932e-003
9.439932e-003
9.439932e-003
9.439932e-003
9.439933e-003
9.439933e-003
9.439933e-003
9.439932e-003
9.439932e-003
9.439932e-003
9.439932e-003
9.439931e-003
9.439931e-003
9.439930e-003
9.439930e-003
9.439929e-003
9.439928e-003
9.439928e-003
9.439927e-003
9.439926e-003
9.439925e-003
9.439925e-003
9.439924e-003
9.439923e-003
9.439923e-003
9.439922e-003
9.439922e-003
9.439921e-003
9.439921e-003
9.439921e-003
9.439920e-003
9.439920e-003
9.439920e-003
9.439920e-003
9.439920e-003
9.439920e-003
9.439920e-003
9.439920e-003
9.439920e-003
9.439920e-003
9.439920e-003
9.439920e-003
9.439920e-003
9.439920e-003
9.439920e-003
9.439920e-003
9.439920e-003
9.439920e-003
9.439920e-003
9.439920e-003
9.439920e-003
9.439920e-003
9.439920e-003
9.439920e-003
9.439920e-003
9.439920e-003
9.439920e-003
9.439920e-003
9.439920e-003
9.439920e-003
9.439920e-003
9.439920e-003
9.439920e-003
9.439920e-003
9.439920e-003
9.439920e-003
9.439920e-003
9.439920e-003
9.439920e-003
9.439920e-003
9.439920e-003
9.439920e-003
9.439920e-003
9.439920e-003
9.439920e-003
9.439920e-003
9.439920e-003
9.439920e-003
9.439920e-003
9.439921e-003
9.439921e-003
9.439922e-003
9.439923e-003
9.439923e-003
9.439924e-003
9.439925e-003
9.439926e-003
9.439927e-003
9.439928e-003
9.439929e-003
9.439930e-003
9.439931e-003
9.439932e-003
9.439933e-003
9.439934e-003
9.439935e-003
9.439936e-003
9.439937e-003
9.439937e-003
9.439938e-003
9.439938e-003
9.439939e-003
9.439939e-003
9.439939e-003
9.439939e-003
9.439939e-003
9.439939e-003
9.439939e-003
9.439939e-003
9.439939e-003
9.439938e-003
9.439938e-003
9.439937e-003
9.439937e-003
9.439936e-003
9.439935e-003
9.439934e-003
9.439933e-003
9.439932e-003
9.439931e-003
9.439930e-003
9.439929e-003
9.439928e-003
9.439927e-003
9.439926e-003
9.439925e-003
9.439924e-003
9.439923e-003
9.439922e-003
9.439922e-003
9.439921e-003
9.439921e-003
9.439920e-003
9.439920e-003
9.439920e-003
9.439920e-003
9.439920e-003
9.439920e-003
9.439920e-003
9.439920e-003
9.439920e-003
9.439920e-003
9.439920e-003
9.439920e-003
9.439920e-003
9.439920e-003
9.439920e-003
9.439920e-003
9.439920e-003
9.439920e-003
9.439920e-003
9.439920e-003
9.439920e-003
9.439920e-003
9.439920e-003
9.439920e-003
9.439920e-003
9.439920e-003
9.439920e-003
9.439920e-003
9.439920e-003
9.439920e-003
9.439920e-003
9.439920e-003
9.439920e-003
9.439920e-003
9.439920e-003
9.439920e-003
9.439920e-003
9.439920e-003
9.439921e-003
9.439920e-003
9.439920e-003
9.439920e-003
9.439920e-003
9.439920e-003
9.439920e-003
9.439921e-003
9.439921e-003
9.439922e-003
9.439923e-003
9.439924e-003
9.439925e-003
9.439927e-003
9.439928e-003
9.439930e-003
9.439931e-003
9.439932e-003
9.439934e-003
9.439935e-003
9.439937e-003
9.439938e-003
9.439940e-003
9.439941e-003
9.439942e-003
9.439943e-003
9.439943e-003
9.439944e-003
9.439945e-003
9.439945e-003
9.439945e-003
9.439946e-003
9.439946e-003
9.439946e-003
9.439946e-003
9.439946e-003
9.439945e-003
9.439945e-003
9.439945e-003
9.439945e-003
9.439944e-003
9.439944e-003
9.439944e-003
9.439943e-003
9.439942e-003
9.439942e-003
9.439941e-003
9.439940e-003
9.439939e-003
9.439937e-003
9.439936e-003
9.439934e-003
9.439933e-003
9.439931e-003
9.439930e-003
9.439928e-003
9.439927e-003
9.439926e-003
9.439924e-003
9.439923e-003
9.439922e-003
9.439922e-003
9.439921e-003
9.439920e-003
9.439920e-003
9.439920e-003
9.439920e-003
9.439920e-003
9.439920e-003
9.439920e-003
9.439920e-003
9.439920e-003
9.439920e-003
9.439920e-003
9.439920e-003
9.439920e-003
9.439920e-003
9.439920e-003
9.439920e-003
9.439920e-003
9.439920e-003
9.439920e-003
9.439920e-003
9.439920e-003
9.439920e-003
9.439920e-003
9.439920e-003
9.439920e-003
9.439920e-003
9.439920e-003
9.439920e-003
9.439920e-003
9.439920e-003
9.439920e-003
9.439920e-003
9.439920e-003
9.439920e-003
9.439920e-003
9.439920e-003
9.439920e-003
9.439920e-003
9.439920e-003
9.439920e-003
9.439920e-003
9.439921e-003
9.439921e-003
9.439922e-003
9.439923e-003
9.439924e-003
9.439925e-003
9.439926e-003
9.439928e-003
9.439929e-003
9.439931e-003
9.439933e-003
9.439935e-003
9.439937e-003
9.439939e-003
9.439941e-003
9.439943e-003
9.439944e-003
9.439945e-003
9.439946e-003
9.439946e-003
9.439947e-003
9.439946e-003
9.439946e-003
9.439945e-003
9.439945e-003
9.439944e-003
9.439943e-003
9.439942e-003
9.439941e-003
9.439940e-003
9.439939e-003
9.439938e-003
9.439938e-003
9.439938e-003
9.439938e-003
9.439938e-003
9.439938e-003
9.439939e-003
9.439940e-003
9.439941e-003
9.439942e-003
9.439942e-003
9.439943e-003
9.439943e-003
9.439943e-003
9.439942e-003
9.439942e-003
9.439940e-003
9.439939e-003
9.439937e-003
9.439935e-003
9.439933e-003
9.439931e-003
9.439929e-003
9.439928e-003
9.439926e-003
9.439925e-003
9.439924e-003
9.439923e-003
9.439922e-003
9.439921e-003
9.439921e-003
9.439920e-003
9.439920e-003
9.439920e-003
9.439920e-003
9.439920e-003
9.439920e-003
9.439920e-003
9.439920e-003
9.439920e-003
9.439920e-003
9.439920e-003
9.439920e-003
9.439920e-003
9.439920e-003
9.439920e-003
9.439920e-003
9.439920e-003
9.439920e-003
9.439920e-003
9.439919e-003
9.439920e-003
9.439920e-003
9.439920e-003
9.439920e-003
9.439920e-003
9.439920e-003
9.439920e-003
9.439920e-003
9.439920e-003
9.439920e-003
9.439920e-003
9.439920e-003
9.439920e-003
9.439920e-003
9.439920e-003
9.439920e-003
9.439920e-003
9.439921e-003
9.439922e-003
9.439923e-003
9.439924e-003
9.439925e-003
9.439927e-003
9.439929e-003
9.439931e-003
9.439933e-003
9.439935e-003
9.439938e-003
9.439940e-003
9.439942e-003
9.439944e-003
9.439945e-003
9.439946e-003
9.439946e-003
9.439945e-003
9.439943e-003
9.439940e-003
9.439937e-003
9.439932e-003
9.439927e-003
9.439922e-003
9.439916e-003
9.439910e-003
9.439904e-003
9.439898e-003
9.439892e-003
9.439887e-003
9.439883e-003
9.439880e-003
9.439878e-003
9.439876e-003
9.439876e-003
9.439878e-003
9.439880e-003
9.439884e-003
9.439889e-003
9.439894e-003
9.439901e-003
9.439907e-003
9.439914e-003
9.439920e-003
9.439926e-003
9.439932e-003
9.439936e-003
9.439939e-003
9.439941e-003
9.439942e-003
9.439942e-003
9.439941e-003
9.439939e-003
9.439937e-003
9.439935e-003
9.439932e-003
9.439930e-003
9.439928e-003
9.439926e-003
9.439925e-003
9.439924e-003
9.439923e-003
9.439922e-003
9.439921e-003
9.439921e-003
9.439920e-003
9.439920e-003
9.439920e-003
9.439920e-003
9.439920e-003
9.439920e-003
9.439920e-003
9.439920e-003
9.439920e-003
9.439920e-003
9.439920e-003
9.439920e-003
9.439920e-003
9.439920e-003
9.439920e-003
9.439920e-003
9.439920e-003
9.439920e-003
9.439920e-003
9.439920e-003
9.439920e-003
9.439920e-003
9.439920e-003
9.439919e-003
9.439920e-003
9.439920e-003
9.439920e-003
9.439921e-003
9.439920e-003
9.439920e-003
9.439920e-003
9.439920e-003
9.439920e-003
9.439921e-003
9.439921e-003
9.439922e-003
9.439924e-003
9.439925e-003
9.439927e-003
9.439929e-003
9.439932e-003
9.439934e-003
9.439937e-003
9.439940e-003
9.439943e-003
9.439945e-003
9.439946e-003
9.439946e-003
9.439945e-003
9.439941e-003
9.439936e-003
9.439927e-003
9.439917e-003
9.439903e-003
9.439888e-003
9.439871e-003
9.439851e-003
9.439831e-003
9.439810e-003
9.439788e-003
9.439766e-003
9.439745e-003
9.439726e-003
9.439707e-003
9.439692e-003
9.439678e-003
9.439668e-003
9.439661e-003
9.439658e-003
9.439659e-003
9.439664e-003
9.439674e-003
9.439687e-003
9.439703e-003
9.439723e-003
9.439745e-003
9.439769e-003
9.439794e-003
9.439819e-003
9.439843e-003
9.439865e-003
9.439885e-003
9.439902e-003
9.439916e-003
9.439927e-003
9.439935e-003
9.439939e-003
9.439942e-003
9.439942e-003
9.439941e-003
9.439939e-003
9.439936e-003
9.439933e-003
9.439931e-003
9.439928e-003
9.439926e-003
9.439925e-003
9.439923e-003
9.439922e-003
9.439921e-003
9.439921e-003
9.439920e-003
9.439920e-003
9.439920e-003
9.439920e-003
9.439920e-003
9.439920e-003
9.439920e-003
9.439920e-003
9.439920e-003
9.439920e-003
9.439920e-003
9.439920e-003
9.439920e-003
9.439920e-003
9.439920e-003
9.439920e-003
9.439920e-003
9.439920e-003
9.439920e-003
9.439920e-003
9.439920e-003
9.439920e-003
9.439920e-003
9.439920e-003
9.439920e-003
9.439921e-003
9.439921e-003
9.439920e-003
9.439920e-003
9.439920e-003
9.439920e-003
9.439921e-003
9.439922e-003
9.439923e-003
9.439925e-003
9.439927e-003
9.439929e-003
9.439932e-003
9.439935e-003
9.439938e-003
9.439942e-003
9.439945e-003
9.439947e-003
9.439948e-003
9.439946e-003
9.439940e-003
9.439930e-003
9.439916e-003
9.439895e-003
9.439868e-003
9.439835e-003
9.439795e-003
9.439750e-003
9.439699e-003
9.439643e-003
9.439583e-003
9.439522e-003
9.439459e-003
9.439396e-003
9.439334e-003
9.439275e-003
9.439220e-003
9.439170e-003
9.439127e-003
9.439092e-003
9.439065e-003
9.439047e-003
9.439040e-003
9.439044e-003
9.439059e-003
9.439085e-003
9.439122e-003
9.439168e-003
9.439224e-003
9.439287e-003
9.439356e-003
9.439428e-003
9.439501e-003
9.439573e-003
9.439642e-003
9.439706e-003
9.439763e-003
9.439812e-003
9.439853e-003
9.439884e-003
9.439908e-003
9.439925e-003
9.439935e-003
9.439941e-003
9.439942e-003
9.439942e-003
9.439939e-003
9.439936e-003
9.439933e-003
9.439930e-003
9.439928e-003
9.439926e-003
9.439924e-003
9.439923e-003
9.439922e-003
9.439921e-003
9.439920e-003
9.439920e-003
9.439920e-003
9.439920e-003
9.439920e-003
9.439920e-003
9.439920e-003
9.439920e-003
9.439920e-003
9.439920e-003
9.439920e-003
9.439920e-003
9.439920e-003
9.439920e-003
9.439920e-003
9.439920e-003
9.439920e-003
9.439920e-003
9.439920e-003
9.439920e-003
9.439920e-003
9.439920e-003
9.439920e-003
9.439920e-003
9.439920e-003
9.439920e-003
9.439920e-003
9.439920e-003
9.439921e-003
9.439922e-003
9.439923e-003
9.439924e-003
9.439926e-003
9.439928e-003
9.439931e-003
9.439934e-003
9.439938e-003
9.439942e-003
9.439946e-003
9.439948e-003
9.439948e-003
9.439943e-003
9.439933e-003
9.439915e-003
9.439887e-003
9.439847e-003
9.439793e-003
9.439725e-003
9.439641e-003
9.439542e-003
9.439427e-003
9.439298e-003
9.439157e-003
9.439007e-003
9.438849e-003
9.438687e-003
9.438523e-003
9.438362e-003
9.438205e-003
9.438056e-003
9.437919e-003
9.437796e-003
9.437689e-003
9.437602e-003
9.437536e-003
9.437494e-003
9.437478e-003
9.437489e-003
9.437527e-003
9.437593e-003
9.437686e-003
9.437804e-003
9.437945e-003
9.438105e-003
9.438280e-003
9.438466e-003
9.438656e-003
9.438846e-003
9.439029e-003
9.439201e-003
9.439358e-003
9.439496e-003
9.439615e-003
9.439712e-003
9.439789e-003
9.439846e-003
9.439888e-003
9.439915e-003
9.439932e-003
9.439940e-003
9.439943e-003
9.439942e-003
9.439939e-003
9.439936e-003
9.439932e-003
9.439929e-003
9.439927e-003
9.439925e-003
9.439923e-003
9.439922e-003
9.439921e-003
9.439921e-003
9.439920e-003
9.439920e-003
9.439920e-003
9.439920e-003
9.439920e-003
9.439920e-003
9.439920e-003
9.439920e-003
9.439920e-003
9.439920e-003
9.439920e-003
9.439920e-003
9.439920e-003
9.439921e-003
9.439920e-003
9.439920e-003
9.439920e-003
9.439920e-003
9.439920e-003
9.439920e-003
9.439920e-003
9.439920e-003
9.439920e-003
9.439920e-003
9.439920e-003
9.439921e-003
9.439922e-003
9.439923e-003
9.439925e-003
9.439927e-003
9.439930e-003
9.439933e-003
9.439938e-003
9.439942e-003
9.439946e-003
9.439949e-003
9.439949e-003
9.439943e-003
9.439928e-003
9.439902e-003
9.439858e-003
9.439794e-003
9.439704e-003
9.439584e-003
9.439431e-003
9.439243e-003
9.439019e-003
9.438758e-003
9.438464e-003
9.438140e-003
9.437790e-003
9.437420e-003
9.437036e-003
9.436646e-003
9.436256e-003
9.435874e-003
9.435506e-003
9.435160e-003
9.434841e-003
9.434557e-003
9.434312e-003
9.434112e-003
9.433964e-003
9.433870e-003
9.433835e-003
9.433862e-003
9.433953e-003
9.434107e-003
9.434323e-003
9.434598e-003
9.434927e-003
9.435302e-003
9.435715e-003
9.436154e-003
9.436608e-003
9.437064e-003
9.437510e-003
9.437933e-003
9.438324e-003
9.438675e-003
9.438979e-003
9.439235e-003
9.439443e-003
9.439606e-003
9.439728e-003
9.439815e-003
9.439874e-003
9.439910e-003
9.439931e-003
9.439940e-003
9.439943e-003
9.439941e-003
9.439938e-003
9.439934e-003
9.439931e-003
9.439928e-003
9.439925e-003
9.439924e-003
9.439922e-003
9.439921e-003
9.439921e-003
9.439920e-003
9.439920e-003
9.439920e-003
9.439920e-003
9.439920e-003
9.439920e-003
9.439920e-003
9.439920e-003
9.439920e-003
9.439920e-003
9.439920e-003
9.439920e-003
9.439921e-003
9.439920e-003
9.439919e-003
9.439919e-003
9.439920e-003
9.439920e-003
9.439921e-003
9.439920e-003
9.439920e-003
9.439920e-003
9.439920e-003
9.439921e-003
9.439922e-003
9.439924e-003
9.439926e-003
9.439928e-003
9.439932e-003
9.439936e-003
9.439941e-003
9.439946e-003
9.439950e-003
9.439951e-003
9.439945e-003
9.439929e-003
9.439897e-003
9.439841e-003
9.439753e-003
9.439623e-003
9.439442e-003
9.439200e-003
9.438889e-003
9.438502e-003
9.438036e-003
9.437489e-003
9.436865e-003
9.436169e-003
9.435412e-003
9.434603e-003
9.433758e-003
9.432890e-003
9.432015e-003
9.431148e-003
9.430304e-003
9.429497e-003
9.428742e-003
9.428051e-003
9.427437e-003
9.426912e-003
9.426486e-003
9.426170e-003
9.425973e-003
9.425902e-003
9.425964e-003
9.426162e-003
9.426496e-003
9.426965e-003
9.427563e-003
9.428279e-003
9.429100e-003
9.430007e-003
9.430979e-003
9.431991e-003
9.433015e-003
9.434025e-003
9.434995e-003
9.435899e-003
9.436720e-003
9.437443e-003
9.438061e-003
9.438572e-003
9.438981e-003
9.439295e-003
9.439528e-003
9.439693e-003
9.439803e-003
9.439873e-003
9.439914e-003
9.439934e-003
9.439942e-003
9.439943e-003
9.439940e-003
9.439936e-003
9.439932e-003
9.439929e-003
9.439926e-003
9.439924e-003
9.439923e-003
9.439922e-003
9.439921e-003
9.439920e-003
9.439920e-003
9.439920e-003
9.439920e-003
9.439920e-003
9.439920e-003
9.439920e-003
9.439920e-003
9.439920e-003
9.439920e-003
9.439920e-003
9.439920e-003
9.439920e-003
9.439920e-003
9.439920e-003
9.439920e-003
9.439920e-003
9.439921e-003
9.439920e-003
9.439920e-003
9.439920e-003
9.439921e-003
9.439923e-003
9.439924e-003
9.439926e-003
9.439929e-003
9.439933e-003
9.439938e-003
9.439943e-003
9.439949e-003
9.439952e-003
9.439949e-003
9.439936e-003
9.439904e-003
9.439844e-003
9.439742e-003
9.439581e-003
9.439344e-003
9.439010e-003
9.438558e-003
9.437970e-003
9.437228e-003
9.436323e-003
9.435248e-003
9.434007e-003
9.432610e-003
9.431072e-003
9.429416e-003
9.427670e-003
9.425863e-003
9.424027e-003
9.422193e-003
9.420392e-003
9.418654e-003
9.417006e-003
9.415474e-003
9.414082e-003
9.412853e-003
9.411808e-003
9.410966e-003
9.410345e-003
9.409962e-003
9.409830e-003
9.409961e-003
9.410362e-003
9.411035e-003
9.411978e-003
9.413182e-003
9.414630e-003
9.416298e-003
9.418154e-003
9.420157e-003
9.422259e-003
9.424408e-003
9.426548e-003
9.428624e-003
9.430584e-003
9.432385e-003
9.433992e-003
9.435385e-003
9.436554e-003
9.437504e-003
9.438249e-003
9.438813e-003
9.439223e-003
9.439509e-003
9.439699e-003
9.439818e-003
9.439887e-003
9.439924e-003
9.439940e-003
9.439944e-003
9.439942e-003
9.439938e-003
9.439933e-003
9.439929e-003
9.439926e-003
9.439924e-003
9.439923e-003
9.439922e-003
9.439921e-003
9.439920e-003
9.439920e-003
9.439920e-003
9.439920e-003
9.439920e-003
9.439920e-003
9.439920e-003
9.439920e-003
9.439920e-003
9.439920e-003
9.439920e-003
9.439920e-003
9.439920e-003
9.439920e-003
9.439920e-003
9.439920e-003
9.439920e-003
9.439920e-003
9.439920e-003
9.439921e-003
9.439923e-003
9.439925e-003
9.439927e-003
9.439930e-003
9.439934e-003
9.439940e-003
9.439946e-003
9.439951e-003
9.439953e-003
9.439945e-003
9.439921e-003
9.439867e-003
9.439766e-003
9.439597e-003
9.439328e-003
9.438927e-003
9.438353e-003
9.437564e-003
9.436521e-003
9.435187e-003
9.433535e-003
9.431549e-003
9.429228e-003
9.426587e-003
9.423655e-003
9.420475e-003
9.417100e-003
9.413589e-003
9.410005e-003
9.406411e-003
9.402868e-003
9.399433e-003
9.396157e-003
9.393087e-003
9.390264e-003
9.387728e-003
9.385510e-003
9.383642e-003
9.382153e-003
9.381068e-003
9.380411e-003
9.380202e-003
9.380460e-003
9.381197e-003
9.382422e-003
9.384133e-003
9.386323e-003
9.388972e-003
9.392046e-003
9.395497e-003
9.399264e-003
9.403266e-003
9.407414e-003
9.411604e-003
9.415730e-003
9.419687e-003
9.423378e-003
9.426724e-003
9.429668e-003
9.432178e-003
9.434250e-003
9.435904e-003
9.437177e-003
9.438122e-003
9.438797e-003
9.439258e-003
9.439559e-003
9.439745e-003
9.439852e-003
9.439909e-003
9.439935e-003
9.439943e-003
9.439943e-003
9.439939e-003
9.439934e-003
9.439930e-003
9.439927e-003
9.439924e-003
9.439923e-003
9.439922e-003
9.439921e-003
9.439920e-003
9.439920e-003
9.439920e-003
9.439920e-003
9.439920e-003
9.439920e-003
9.439920e-003
9.439920e-003
9.439920e-003
9.439919e-003
9.439920e-003
9.439920e-003
9.439920e-003
9.439920e-003
9.439920e-003
9.439920e-003
9.439920e-003
9.439921e-003
9.439923e-003
9.439925e-003
9.439927e-003
9.439931e-003
9.439935e-003
9.439941e-003
9.439948e-003
9.439953e-003
9.439953e-003
9.439939e-003
9.439901e-003
9.439819e-003
9.439666e-003
9.439405e-003
9.438987e-003
9.438352e-003
9.437427e-003
9.436134e-003
9.434394e-003
9.432133e-003
9.429291e-003
9.425832e-003
9.421746e-003
9.417057e-003
9.411821e-003
9.406121e-003
9.400063e-003
9.393767e-003
9.387358e-003
9.380960e-003
9.374687e-003
9.368640e-003
9.362907e-003
9.357563e-003
9.352665e-003
9.348262e-003
9.344392e-003
9.341083e-003
9.338360e-003
9.336241e-003
9.334743e-003
9.333884e-003
9.333679e-003
9.334146e-003
9.335302e-003
9.337165e-003
9.339751e-003
9.343071e-003
9.347124e-003
9.351899e-003
9.357361e-003
9.363451e-003
9.370078e-003
9.377120e-003
9.384420e-003
9.391798e-003
9.399056e-003
9.405997e-003
9.412438e-003
9.418232e-003
9.423276e-003
9.427521e-003
9.430971e-003
9.433676e-003
9.435720e-003
9.437207e-003
9.438247e-003
9.438943e-003
9.439388e-003
9.439658e-003
9.439812e-003
9.439892e-003
9.439929e-003
9.439942e-003
9.439943e-003
9.439940e-003
9.439935e-003
9.439930e-003
9.439927e-003
9.439924e-003
9.439923e-003
9.439922e-003
9.439921e-003
9.439920e-003
9.439920e-003
9.439920e-003
9.439920e-003
9.439920e-003
9.439920e-003
9.439920e-003
9.439920e-003
9.439919e-003
9.439920e-003
9.439921e-003
9.439921e-003
9.439920e-003
9.439920e-003
9.439920e-003
9.439921e-003
9.439923e-003
9.439925e-003
9.439927e-003
9.439931e-003
9.439936e-003
9.439942e-003
9.439950e-003
9.439955e-003
9.439952e-003
9.439932e-003
9.439878e-003
9.439764e-003
9.439548e-003
9.439175e-003
9.438566e-003
9.437621e-003
9.436218e-003
9.434219e-003
9.431481e-003
9.427863e-003
9.423251e-003
9.417572e-003
9.410811e-003
9.403019e-003
9.394318e-003
9.384892e-003
9.374972e-003
9.364814e-003
9.354679e-003
9.344812e-003
9.335426e-003
9.326691e-003
9.318735e-003
9.311639e-003
9.305446e-003
9.300167e-003
9.295782e-003
9.292253e-003
9.289524e-003
9.287528e-003
9.286195e-003
9.285455e-003
9.285247e-003
9.285525e-003
9.286267e-003
9.287476e-003
9.289187e-003
9.291467e-003
9.294413e-003
9.298142e-003
9.302782e-003
9.308452e-003
9.315241e-003
9.323188e-003
9.332255e-003
9.342312e-003
9.353135e-003
9.364411e-003
9.375762e-003
9.386789e-003
9.397112e-003
9.406417e-003
9.414489e-003
9.421223e-003
9.426626e-003
9.430795e-003
9.433887e-003
9.436090e-003
9.437596e-003
9.438583e-003
9.439200e-003
9.439566e-003
9.439771e-003
9.439876e-003
9.439924e-003
9.439942e-003
9.439944e-003
9.439940e-003
9.439935e-003
9.439930e-003
9.439927e-003
9.439924e-003
9.439923e-003
9.439921e-003
9.439921e-003
9.439920e-003
9.439920e-003
9.439920e-003
9.439920e-003
9.439920e-003
9.439920e-003
9.439920e-003
9.439919e-003
9.439920e-003
9.439921e-003
9.439921e-003
9.439920e-003
9.439920e-003
9.439921e-003
9.439922e-003
9.439925e-003
9.439927e-003
9.439931e-003
9.439936e-003
9.439943e-003
9.439951e-003
9.439956e-003
9.439952e-003
9.439926e-003
9.439857e-003
9.439709e-003
9.439426e-003
9.438925e-003
9.438090e-003
9.436766e-003
9.434759e-003
9.431842e-003
9.427767e-003
9.422296e-003
9.415229e-003
9.406449e-003
9.395961e-003
9.383919e-003
9.370635e-003
9.356566e-003
9.342273e-003
9.328366e-003
9.315445e-003
9.304038e-003
9.294558e-003
9.287281e-003
9.282335e-003
9.279709e-003
9.279277e-003
9.280817e-003
9.284034e-003
9.288581e-003
9.294068e-003
9.300083e-003
9.306195e-003
9.311976e-003
9.317017e-003
9.320949e-003
9.323471e-003
9.324374e-003
9.323564e-003
9.321092e-003
9.317162e-003
9.312140e-003
9.306547e-003
9.301032e-003
9.296332e-003
9.293203e-003
9.292347e-003
9.294317e-003
9.299437e-003
9.307731e-003
9.318895e-003
9.332327e-003
9.347195e-003
9.362560e-003
9.377507e-003
9.391267e-003
9.403299e-003
9.413319e-003
9.421286e-003
9.427345e-003
9.431757e-003
9.434836e-003
9.436894e-003
9.438211e-003
9.439015e-003
9.439481e-003
9.439735e-003
9.439863e-003
9.439920e-003
9.439941e-003
9.439944e-003
9.439940e-003
9.439934e-003
9.439930e-003
9.439926e-003
9.439924e-003
9.439922e-003
9.439921e-003
9.439920e-003
9.439920e-003
9.439920e-003
9.439920e-003
9.439920e-003
9.439920e-003
9.439920e-003
9.439919e-003
9.439920e-003
9.439921e-003
9.439921e-003
9.439920e-003
9.439921e-003
9.439922e-003
9.439924e-003
9.439927e-003
9.439931e-003
9.439936e-003
9.439943e-003
9.439951e-003
9.439956e-003
9.439952e-003
9.439922e-003
9.439841e-003
9.439662e-003
9.439314e-003
9.438682e-003
9.437604e-003
9.435855e-003
9.433142e-003
9.429114e-003
9.423378e-003
9.415551e-003
9.405322e-003
9.392551e-003
9.377359e-003
9.360215e-003
9.341969e-003
9.323829e-003
9.307268e-003
9.293871e-003
9.285158e-003
9.282414e-003
9.286552e-003
9.298036e-003
9.316866e-003
9.342608e-003
9.374468e-003
9.411382e-003
9.452096e-003
9.495239e-003
9.539362e-003
9.582975e-003
9.624558e-003
9.662593e-003
9.695585e-003
9.722116e-003
9.740894e-003
9.750830e-003
9.751112e-003
9.741290e-003
9.721354e-003
9.691802e-003
9.653684e-003
9.608616e-003
9.558750e-003
9.506687e-003
9.455318e-003
9.407615e-003
9.366346e-003
9.333776e-003
9.311386e-003
9.299669e-003
9.298071e-003
9.305093e-003
9.318562e-003
9.335992e-003
9.354978e-003
9.373510e-003
9.390165e-003
9.404152e-003
9.415226e-003
9.423544e-003
9.429494e-003
9.433559e-003
9.436214e-003
9.437871e-003
9.438858e-003
9.439414e-003
9.439710e-003
9.439856e-003
9.439919e-003
9.439941e-003