# vtk DataFile Version 3.0
vtk output
ASCII
DATASET STRUCTURED_POINTS
DIMENSIONS 100 100 1
SPACING 1 1 1
ORIGIN 0 0 0
POINT_DATA 10000
SCALARS SFBox_profile double
LOOKUP_TABLE default 
0.000000e+000
0.000000e+000
0.000000e+000
0.000000e+000
0.000000e+000
0.000000e+000
0.000000e+000
0.000000e+000
0.000000e+000
0.000000e+000
0.000000e+000
0.000000e+000
0.000000e+000
0.000000e+000
0.000000e+000
0.000000e+000
0.000000e+000
0.000000e+000
0.000000e+000
0.000000e+000
0.000000e+000
0.000000e+000
0.000000e+000
0.000000e+000
0.000000e+000
0.000000e+000
0.000000e+000
0.000000e+000
0.000000e+000
0.000000e+000
0.000000e+000
0.000000e+000
0.000000e+000
0.000000e+000
0.000000e+000
0.000000e+000
0.000000e+000
0.000000e+000
0.000000e+000
0.000000e+000
0.000000e+000
0.000000e+000
0.000000e+000
0.000000e+000
0.000000e+000
0.000000e+000
0.000000e+000
0.000000e+000
0.000000e+000
0.000000e+000
0.000000e+000
0.000000e+000
0.000000e+000
0.000000e+000
0.000000e+000
0.000000e+000
0.000000e+000
0.000000e+000
0.000000e+000
0.000000e+000
0.000000e+000
0.000000e+000
0.000000e+000
0.000000e+000
0.000000e+000
0.000000e+000
0.000000e+000
0.000000e+000
0.000000e+000
0.000000e+000
0.000000e+000
0.000000e+000
0.000000e+000
0.000000e+000
0.000000e+000
0.000000e+000
0.000000e+000
0.000000e+000
0.000000e+000
0.000000e+000
0.000000e+000
0.000000e+000
0.000000e+000
0.000000e+000
0.000000e+000
0.000000e+000
0.000000e+000
0.000000e+000
0.000000e+000
0.000000e+000
0.000000e+000
0.000000e+000
0.000000e+000
0.000000e+000
0.000000e+000
0.000000e+000
0.000000e+000
0.000000e+000
0.000000e+000
0.000000e+000
-1.971743e-009
-1.481378e-009
-6.286095e-010
3.465594e-010
1.136961e-009
1.452839e-009
1.134698e-009
2.520988e-010
-8.713984e-010
-1.750423e-009
-1.937146e-009
-1.249981e-009
8.792745e-011
1.499610e-009
2.305997e-009
2.073302e-009
8.734060e-010
-7.055732e-010
-1.837183e-009
-1.893950e-009
-8.037579e-010
8.906374e-010
2.323497e-009
2.793925e-009
2.165637e-009
9.364689e-010
-6.843801e-011
-1.938918e-010
6.630713e-010
2.018291e-009
3.124572e-009
3.440550e-009
2.946006e-009
2.114914e-009
1.583812e-009
1.744213e-009
2.520615e-009
3.458084e-009
4.036457e-009
3.992405e-009
3.448221e-009
2.791092e-009
2.410671e-009
2.476748e-009
2.885852e-009
3.378065e-009
3.718151e-009
3.815930e-009
3.727182e-009
3.567883e-009
3.423600e-009
3.316610e-009
3.233515e-009
3.168561e-009
3.136761e-009
3.149074e-009
3.181246e-009
3.174195e-009
3.073545e-009
2.877420e-009
2.649401e-009
2.479458e-009
2.419052e-009
2.441100e-009
2.459326e-009
2.395257e-009
2.240919e-009
2.064488e-009
1.948513e-009
1.905177e-009
1.837440e-009
1.586401e-009
1.041324e-009
2.361696e-010
-6.426420e-010
-1.353420e-009
-1.739830e-009
-1.814834e-009
-1.721745e-009
-1.594347e-009
-1.419351e-009
-1.016464e-009
-1.765910e-010
1.118075e-009
2.546878e-009
3.509614e-009
3.404970e-009
1.994035e-009
-3.657972e-010
-2.784100e-009
-4.208531e-009
-3.935216e-009
-1.994006e-009
8.078347e-010
3.229599e-009
4.172909e-009
3.208447e-009
7.912027e-010
-1.946293e-009
-3.725957e-009
-1.056396e-009
-8.373664e-010
-4.331584e-010
7.594975e-011
5.560109e-010
8.405161e-010
7.891586e-010
3.665152e-010
-3.019326e-010
-9.428628e-010
-1.236313e-009
-9.736084e-010
-1.939829e-010
7.879190e-010
1.506598e-009
1.580692e-009
9.387858e-010
-1.014297e-010
-9.709574e-010
-1.150259e-009
-4.697933e-010
7.724279e-010
1.963368e-009
2.522814e-009
2.243433e-009
1.412919e-009
6.364639e-010
4.651945e-010
1.061783e-009
2.112810e-009
3.039325e-009
3.365421e-009
3.006281e-009
2.296528e-009
1.754144e-009
1.745686e-009
2.272074e-009
3.001334e-009
3.505785e-009
3.533597e-009
3.139634e-009
2.610329e-009
2.257466e-009
2.229856e-009
2.458386e-009
2.745312e-009
2.913131e-009
2.905149e-009
2.783509e-009
2.651152e-009
2.570817e-009
2.539360e-009
2.521070e-009
2.497050e-009
2.483642e-009
2.508023e-009
2.569604e-009
2.627097e-009
2.626028e-009
2.543612e-009
2.410741e-009
2.289090e-009
2.219799e-009
2.186142e-009
2.123493e-009
1.971795e-009
1.729080e-009
1.460204e-009
1.248589e-009
1.125633e-009
1.034980e-009
8.667186e-010
5.433444e-010
9.489271e-011
-3.388150e-010
-5.910941e-010
-5.836304e-010
-3.895908e-010
-1.899780e-010
-1.435009e-010
-2.584223e-010
-3.646088e-010
-2.221145e-010
2.931632e-010
1.050416e-009
1.679341e-009
1.755884e-009
1.061863e-009
-2.373854e-010
-1.617959e-009
-2.432785e-009
-2.241418e-009
-1.057218e-009
6.268366e-010
2.056470e-009
2.572934e-009
1.930903e-009
4.203995e-010
-1.266090e-009
-2.356235e-009
3.706384e-010
1.745820e-010
-1.147754e-010
-3.410123e-010
-3.718834e-010
-1.711670e-010
1.722041e-010
4.792088e-010
5.711162e-010
3.731424e-010
-2.715420e-011
-4.096808e-010
-5.362561e-010
-2.918592e-010
2.325150e-010
7.764950e-010
1.058355e-009
9.514755e-010
5.767587e-010
2.417194e-010
2.528106e-010
7.155781e-010
1.454990e-009
2.116364e-009
2.388344e-009
2.203324e-009
1.780062e-009
1.476493e-009
1.549513e-009
1.983296e-009
2.501698e-009
2.754434e-009
2.548651e-009
1.969713e-009
1.315085e-009
8.945542e-010
8.369600e-010
1.029875e-009
1.219708e-009
1.189827e-009
8.904720e-010
4.411480e-010
2.242006e-011
-2.527574e-010
-3.967308e-010
-5.055716e-010
-6.647303e-010
-8.795830e-010
-1.078835e-009
-1.177595e-009
-1.143575e-009
-1.014783e-009
-8.608234e-010
-7.248335e-010
-5.941667e-010
-4.201685e-010
-1.663106e-010
1.567088e-010
4.959099e-010
7.931320e-010
1.020945e-009
1.188042e-009
1.313110e-009
1.393650e-009
1.399733e-009
1.299801e-009
1.096352e-009
8.390054e-010
6.003491e-010
4.317996e-010
3.355907e-010
2.779636e-010
2.348633e-010
2.317285e-010
3.387326e-010
6.153024e-010
1.039876e-009
1.479826e-009
1.734935e-009
1.638253e-009
1.155236e-009
4.174161e-010
-3.342187e-010
-8.643496e-010
-1.049388e-009
-9.157206e-010
-5.970686e-010
-2.478241e-010
3.012715e-011
2.087720e-010
3.062777e-010
3.445842e-010
3.279100e-010
2.526279e-010
1.304384e-010
-2.260192e-012
-1.005134e-010
-1.395449e-010
-1.309336e-010
-1.112223e-010
1.694683e-009
1.141533e-009
2.371985e-010
-6.776265e-010
-1.239730e-009
-1.204560e-009
-5.628823e-010
4.257366e-010
1.320278e-009
1.690580e-009
1.334883e-009
4.084373e-010
-6.237762e-010
-1.209308e-009
-9.998778e-010
-5.033156e-011
1.199706e-009
2.165322e-009
2.445018e-009
2.043569e-009
1.351568e-009
8.930441e-010
9.993210e-010
1.614345e-009
2.350094e-009
2.746655e-009
2.560140e-009
1.891130e-009
1.081055e-009
4.620096e-010
1.372263e-010
-6.443202e-011
-4.452651e-010
-1.220536e-009
-2.378654e-009
-3.704330e-009
-4.930011e-009
-5.899138e-009
-6.633006e-009
-7.274297e-009
-7.967980e-009
-8.771422e-009
-9.646628e-009
-1.051776e-008
-1.133281e-008
-1.207892e-008
-1.274949e-008
-1.330399e-008
-1.366444e-008
-1.375644e-008
-1.356155e-008
-1.313585e-008
-1.257586e-008
-1.195543e-008
-1.128046e-008
-1.049440e-008
-9.529523e-009
-8.365440e-009
-7.054261e-009
-5.698885e-009
-4.404865e-009
-3.241235e-009
-2.232925e-009
-1.380515e-009
-6.843566e-010
-1.524950e-010
2.102953e-010
4.185017e-010
5.111256e-010
5.422157e-010
5.658245e-010
6.270816e-010
7.620236e-010
9.979993e-010
1.344969e-009
1.777819e-009
2.222031e-009
2.558093e-009
2.650221e-009
2.389789e-009
1.735635e-009
7.375515e-010
-4.600082e-010
-1.631128e-009
-2.500030e-009
-2.799458e-009
-2.359287e-009
-1.205497e-009
3.795801e-010
1.893606e-009
2.772663e-009
2.629745e-009
1.465659e-009
-2.714505e-010
-1.843131e-009
-2.547034e-009
-2.060790e-009
-6.211095e-010
1.071571e-009
2.189776e-009
2.360921e-009
1.698529e-009
5.670201e-010
-6.786015e-010
-1.602327e-009
-1.826054e-009
-1.196382e-009
9.650824e-011
1.535568e-009
2.468502e-009
2.417014e-009
1.354728e-009
-2.153990e-010
-1.468077e-009
-1.672188e-009
-6.002889e-010
1.312065e-009
3.175330e-009
4.125816e-009
3.803524e-009
2.539791e-009
1.134561e-009
3.562380e-010
4.730361e-010
1.105029e-009
1.479779e-009
9.163687e-010
-7.763982e-010
-3.232271e-009
-5.809274e-009
-8.014372e-009
-9.788763e-009
-1.148602e-008
-1.358964e-008
-1.637950e-008
-1.976537e-008
-2.337019e-008
-2.677439e-008
-2.974326e-008
-3.230027e-008
-3.463297e-008
-3.692759e-008
-3.925241e-008
-4.154797e-008
-4.369521e-008
-4.558715e-008
-4.715084e-008
-4.832313e-008
-4.902505e-008
-4.917273e-008
-4.872097e-008
-4.769932e-008
-4.620231e-008
-4.433275e-008
-4.213800e-008
-3.958837e-008
-3.661670e-008
-3.319317e-008
-2.938382e-008
-2.535357e-008
-2.131409e-008
-1.745225e-008
-1.388321e-008
-1.065047e-008
-7.761972e-009
-5.230912e-009
-3.092388e-009
-1.387695e-009
-1.304536e-010
7.205274e-010
1.262173e-009
1.618364e-009
1.895231e-009
2.143949e-009
2.351566e-009
2.465623e-009
2.438059e-009
2.259891e-009
1.961391e-009
1.575358e-009
1.091761e-009
4.483439e-010
-4.144303e-010
-1.452256e-009
-2.437050e-009
-2.978584e-009
-2.682362e-009
-1.389958e-009
6.303010e-010
2.683578e-009
3.896723e-009
3.629243e-009
1.843354e-009
-7.850060e-010
-3.116846e-009
-4.072464e-009
-3.172330e-009
-8.092385e-010
1.910152e-009
3.692623e-009
2.080401e-009
1.649820e-009
8.409138e-010
-1.946391e-010
-1.169460e-009
-1.706627e-009
-1.492161e-009
-4.736145e-010
1.019932e-009
2.351508e-009
2.860403e-009
2.233919e-009
7.514856e-010
-7.813088e-010
-1.427215e-009
-6.492966e-010
1.329941e-009
3.584711e-009
4.962600e-009
4.718896e-009
2.924479e-009
3.844620e-010
-1.893792e-009
-3.354210e-009
-4.253914e-009
-5.505892e-009
-8.111105e-009
-1.255174e-008
-1.853145e-008
-2.520891e-008
-3.174532e-008
-3.779570e-008
-4.363772e-008
-4.989180e-008
-5.705359e-008
-6.515696e-008
-7.376377e-008
-8.224165e-008
-9.011182e-008
-9.723892e-008
-1.037751e-007
-1.099457e-007
-1.158486e-007
-1.213920e-007
-1.263730e-007
-1.306009e-007
-1.339615e-007
-1.363916e-007
-1.378132e-007
-1.381034e-007
-1.371334e-007
-1.348396e-007
-1.312642e-007
-1.265232e-007
-1.207287e-007
-1.139285e-007
-1.061151e-007
-9.730347e-008
-8.762023e-008
-7.734104e-008
-6.684636e-008
-5.652418e-008
-4.668004e-008
-3.750503e-008
-2.910899e-008
-2.158303e-008
-1.503969e-008
-9.599767e-009
-5.335264e-009
-2.210370e-009
-6.678416e-011
1.328096e-009
2.193215e-009
2.658880e-009
2.754060e-009
2.467623e-009
1.844421e-009
1.046653e-009
3.253755e-010
-9.585710e-011
-1.568042e-010
-1.788848e-011
2.270134e-011
-2.745779e-010
-8.948542e-010
-1.511694e-009
-1.638320e-009
-9.280077e-010
5.470433e-010
2.225347e-009
3.278098e-009
3.035999e-009
1.395107e-009
-1.039681e-009
-3.186983e-009
-4.004644e-009
-3.028761e-009
-6.459368e-010
2.060559e-009
3.826663e-009
8.976931e-010
9.871489e-010
9.862803e-010
6.807119e-010
1.830432e-011
-7.776122e-010
-1.275303e-009
-1.072470e-009
-7.671191e-011
1.355606e-009
2.548539e-009
2.873255e-009
2.152673e-009
8.394017e-010
-1.920097e-010
-1.631721e-010
1.075604e-009
2.843868e-009
3.925762e-009
3.212238e-009
2.990557e-010
-4.347669e-009
-9.779043e-009
-1.526082e-008
-2.082382e-008
-2.730063e-008
-3.582236e-008
-4.710908e-008
-6.102063e-008
-7.665061e-008
-9.287833e-008
-1.089972e-007
-1.250130e-007
-1.414520e-007
-1.588549e-007
-1.773172e-007
-1.963694e-007
-2.152273e-007
-2.331986e-007
-2.499588e-007
-2.655413e-007
-2.801045e-007
-2.936769e-007
-3.060597e-007
-3.169186e-007
-3.259550e-007
-3.330051e-007
-3.380016e-007
-3.408540e-007
-3.413638e-007
-3.392543e-007
-3.342895e-007
-3.263874e-007
-3.156391e-007
-3.022301e-007
-2.863367e-007
-2.680904e-007
-2.476404e-007
-2.252690e-007
-2.014684e-007
-1.769183e-007
-1.523717e-007
-1.285190e-007
-1.059077e-007
-8.494728e-008
-6.597063e-008
-4.928227e-008
-3.514426e-008
-2.370100e-008
-1.489717e-008
-8.456595e-009
-3.954658e-009
-9.539672e-010
8.740744e-010
1.717140e-009
1.699233e-009
1.011983e-009
-1.652804e-013
-8.800738e-010
-1.222350e-009
-8.702529e-010
-1.404149e-011
8.940154e-010
1.382406e-009
1.228939e-009
5.927167e-010
-8.008093e-011
-3.299471e-010
2.431021e-011
7.563818e-010
1.352524e-009
1.317425e-009
4.875123e-010
-8.356976e-010
-2.017460e-009
-2.420173e-009
-1.752416e-009
-2.454158e-010
1.440845e-009
2.535508e-009
-8.538367e-010
-1.473222e-010
8.617956e-010
1.578512e-009
1.542691e-009
7.055393e-010
-4.992693e-010
-1.355685e-009
-1.256694e-009
-7.872196e-011
1.693522e-009
3.202463e-009
3.706011e-009
3.027881e-009
1.664434e-009
4.362073e-010
-1.307592e-010
-3.045337e-010
-1.183086e-009
-4.209770e-009
-1.046194e-008
-2.017439e-008
-3.281449e-008
-4.765416e-008
-6.443963e-008
-8.368864e-008
-1.064026e-007
-1.333890e-007
-1.646602e-007
-1.993144e-007
-2.359670e-007
-2.734270e-007
-3.111651e-007
-3.492939e-007
-3.881307e-007
-4.276851e-007
-4.674242e-007
-5.064391e-007
-5.438422e-007
-5.790910e-007
-6.120273e-007
-6.426499e-007
-6.708280e-007
-6.961754e-007
-7.181526e-007
-7.362830e-007
-7.502918e-007
-7.600606e-007
-7.654488e-007
-7.661405e-007
-7.616492e-007
-7.514812e-007
-7.353360e-007
-7.132037e-007
-6.853087e-007
-6.519750e-007
-6.135382e-007
-5.703832e-007
-5.230776e-007
-4.724947e-007
-4.198259e-007
-3.664631e-007
-3.138151e-007
-2.631592e-007
-2.155852e-007
-1.720140e-007
-1.332230e-007
-9.981100e-008
-7.209967e-008
-5.003226e-008
-3.315425e-008
-2.071905e-008
-1.188434e-008
-5.901412e-009
-2.199489e-009
-3.320372e-010
1.559981e-010
-1.737479e-010
-6.821808e-010
-8.135038e-010
-2.945107e-010
7.607554e-010
1.925763e-009
2.691996e-009
2.733380e-009
2.060096e-009
9.849312e-010
-6.209266e-011
-7.514128e-010
-9.809284e-010
-8.604044e-010
-5.932396e-010
-3.467042e-010
-1.863210e-010
-9.098483e-011
-1.111012e-011
8.215734e-011
1.838076e-010
2.702161e-010
3.190963e-010
-2.639137e-009
-1.482884e-009
3.300156e-010
1.998209e-009
2.758636e-009
2.250064e-009
7.351952e-010
-9.630025e-010
-1.837066e-009
-1.230778e-009
7.507972e-010
3.220022e-009
4.931899e-009
4.929827e-009
3.010478e-009
-3.174842e-010
-4.395429e-009
-9.158081e-009
-1.556820e-008
-2.543089e-008
-4.068069e-008
-6.259207e-008
-9.141797e-008
-1.266644e-007
-1.677668e-007
-2.146602e-007
-2.678312e-007
-3.278228e-007
-3.945648e-007
-4.670198e-007
-5.433999e-007
-6.218001e-007
-7.008162e-007
-7.797566e-007
-8.583711e-007
-9.363550e-007
-1.013010e-006
-1.087280e-006
-1.158081e-006
-1.224638e-006
-1.286577e-006
-1.343712e-006
-1.395741e-006
-1.442072e-006
-1.481923e-006
-1.514571e-006
-1.539552e-006
-1.556636e-006
-1.565596e-006
-1.565979e-006
-1.557054e-006
-1.537995e-006
-1.508166e-006
-1.467316e-006
-1.415576e-006
-1.353319e-006
-1.281028e-006
-1.199310e-006
-1.109057e-006
-1.011624e-006
-9.089105e-007
-8.032640e-007
-6.972648e-007
-5.934972e-007
-4.943910e-007
-4.021393e-007
-3.186341e-007
-2.453526e-007
-1.831943e-007
-1.323361e-007
-9.220775e-008
-6.163763e-008
-3.913119e-008
-2.316694e-008
-1.238789e-008
-5.636632e-009
-1.880334e-009
-1.338371e-010
5.283938e-010
8.610885e-010
1.312727e-009
1.969170e-009
2.631931e-009
2.998849e-009
2.851414e-009
2.157522e-009
1.062486e-009
-1.878958e-010
-1.324030e-009
-2.094794e-009
-2.295277e-009
-1.819904e-009
-7.447062e-010
6.176898e-010
1.769935e-009
2.217370e-009
1.719596e-009
4.600737e-010
-9.937689e-010
-1.951537e-009
-3.817332e-009
-2.614737e-009
-5.862301e-010
1.585848e-009
3.098682e-009
3.338619e-009
2.215945e-009
3.264333e-010
-1.237032e-009
-1.421288e-009
1.458859e-010
2.787357e-009
4.950012e-009
4.866244e-009
1.310393e-009
-6.053098e-009
-1.700046e-008
-3.157931e-008
-5.089439e-008
-7.729139e-008
-1.137569e-007
-1.628704e-007
-2.259434e-007
-3.028456e-007
-3.925445e-007
-4.939083e-007
-6.061850e-007
-7.288567e-007
-8.610522e-007
-1.001021e-006
-1.146108e-006
-1.293272e-006
-1.439820e-006
-1.583858e-006
-1.724253e-006
-1.860197e-006
-1.990777e-006
-2.114844e-006
-2.231228e-006
-2.339068e-006
-2.437946e-006
-2.527713e-006
-2.608143e-006
-2.678685e-006
-2.738503e-006
-2.786761e-006
-2.822893e-006
-2.846639e-006
-2.857802e-006
-2.855922e-006
-2.840124e-006
-2.809271e-006
-2.762290e-006
-2.698460e-006
-2.617480e-006
-2.519343e-006
-2.404190e-006
-2.272321e-006
-2.124416e-006
-1.961832e-006
-1.786836e-006
-1.602627e-006
-1.413172e-006
-1.222940e-006
-1.036622e-006
-8.588790e-007
-6.940582e-007
-5.458593e-007
-4.169569e-007
-3.086931e-007
-2.209663e-007
-1.523895e-007
-1.006741e-007
-6.309899e-008
-3.690778e-008
-1.954360e-008
-8.737059e-009
-2.527731e-009
7.059780e-010
2.195762e-009
2.756502e-009
2.833888e-009
2.627030e-009
2.227658e-009
1.704007e-009
1.105299e-009
4.328188e-010
-3.471357e-010
-1.217370e-009
-2.006668e-009
-2.378439e-009
-1.980206e-009
-7.019287e-010
1.124510e-009
2.762073e-009
3.389759e-009
2.560320e-009
5.202431e-010
-1.835168e-009
-3.389298e-009
-3.774026e-009
-3.035363e-009
-1.580716e-009
3.913549e-010
2.376509e-009
3.660499e-009
3.680411e-009
2.449066e-009
7.088429e-010
-4.086118e-010
-1.254175e-010
1.242474e-009
2.025910e-009
-3.652249e-010
-8.565442e-009
-2.451446e-008
-4.938308e-008
-8.424487e-008
-1.310246e-007
-1.929962e-007
-2.743503e-007
-3.789551e-007
-5.089875e-007
-6.642090e-007
-8.422446e-007
-1.039576e-006
-1.252555e-006
-1.477832e-006
-1.712106e-006
-1.951615e-006
-2.191922e-006
-2.428296e-006
-2.656466e-006
-2.873278e-006
-3.076852e-006
-3.266214e-006
-3.440755e-006
-3.599887e-006
-3.743100e-006
-3.870247e-006
-3.981732e-006
-4.078375e-006
-4.161011e-006
-4.230105e-006
-4.285683e-006
-4.327596e-006
-4.355895e-006
-4.370977e-006
-4.373364e-006
-4.363271e-006
-4.340284e-006
-4.303361e-006
-4.251106e-006
-4.182068e-006
-4.094820e-006
-3.987831e-006
-3.859289e-006
-3.707151e-006
-3.529501e-006
-3.325129e-006
-3.094149e-006
-2.838432e-006
-2.561807e-006
-2.270011e-006
-1.970449e-006
-1.671758e-006
-1.383148e-006
-1.113524e-006
-8.704890e-007
-6.594606e-007
-4.831261e-007
-3.414062e-007
-2.318967e-007
-1.506058e-007
-9.274633e-008
-5.339581e-008
-2.795950e-008
-1.245845e-008
-3.688002e-009
7.385253e-010
2.468836e-009
2.597827e-009
1.890434e-009
9.385507e-010
1.860672e-010
-1.487945e-010
-1.382663e-010
-7.835257e-011
-2.707857e-010
-7.699674e-010
-1.278214e-009
-1.301771e-009
-5.028869e-010
9.789007e-010
2.482150e-009
3.140890e-009
2.403529e-009
4.302702e-010
-1.908469e-009
-3.470175e-009
-2.124022e-009
-2.275944e-009
-2.104261e-009
-1.068585e-009
9.141909e-010
3.234461e-009
4.859730e-009
4.970611e-009
3.521097e-009
1.257584e-009
-9.565898e-010
-3.194828e-009
-7.276867e-009
-1.681407e-008
-3.645255e-008
-7.082129e-008
-1.238984e-007
-1.991895e-007
-3.004669e-007
-4.323075e-007
-5.997091e-007
-8.066586e-007
-1.054291e-006
-1.339650e-006
-1.655769e-006
-1.993024e-006
-2.340982e-006
-2.689838e-006
-3.030931e-006
-3.356554e-006
-3.659672e-006
-3.934051e-006
-4.174852e-006
-4.379254e-006
-4.546636e-006
-4.678154e-006
-4.775984e-006
-4.842696e-006
-4.881058e-006
-4.894240e-006
-4.886047e-006
-4.860843e-006
-4.823100e-006
-4.776837e-006
-4.725371e-006
-4.671532e-006
-4.618155e-006
-4.568405e-006
-4.525625e-006
-4.492771e-006
-4.471799e-006
-4.463324e-006
-4.466605e-006
-4.479608e-006
-4.498871e-006
-4.519151e-006
-4.533075e-006
-4.531141e-006
-4.502289e-006
-4.435015e-006
-4.318844e-006
-4.145881e-006
-3.912221e-006
-3.619021e-006
-3.273066e-006
-2.886644e-006
-2.476563e-006
-2.062297e-006
-1.663509e-006
-1.297447e-006
-9.768268e-007
-7.087012e-007
-4.944828e-007
-3.309183e-007
-2.115880e-007
-1.284800e-007
-7.332512e-008
-3.856171e-008
-1.790781e-008
-6.569448e-009
-1.136694e-009
7.321130e-010
6.833165e-010
-6.439913e-011
-6.439745e-010
-6.090983e-010
4.129831e-012
7.741960e-010
1.180830e-009
9.517307e-010
2.578610e-010
-3.846392e-010
-4.611335e-010
1.687813e-010
1.131980e-009
1.751780e-009
1.487278e-009
3.154363e-010
-1.207288e-009
-2.260996e-009
1.055149e-009
-1.454988e-010
-1.598525e-009
-2.009236e-009
-5.887090e-010
2.357048e-009
5.479975e-009
7.077506e-009
5.974361e-009
1.956258e-009
-4.680552e-009
-1.436172e-008
-2.960555e-008
-5.572626e-008
-1.004350e-007
-1.725795e-007
-2.807638e-007
-4.325279e-007
-6.341721e-007
-8.906468e-007
-1.204743e-006
-1.575336e-006
-1.995311e-006
-2.450364e-006
-2.919676e-006
-3.378545e-006
-3.802036e-006
-4.168248e-006
-4.460179e-006
-4.666061e-006
-4.778799e-006
-4.795359e-006
-4.716518e-006
-4.546803e-006
-4.294191e-006
-3.969289e-006
-3.584163e-006
-3.151274e-006
-2.682952e-006
-2.191458e-006
-1.689305e-006
-1.189338e-006
-7.043363e-007
-2.463448e-007
1.737494e-007
5.460284e-007
8.608601e-007
1.108277e-006
1.277963e-006
1.359954e-006
1.345687e-006
1.228942e-006
1.006520e-006
6.788895e-007
2.510808e-007
-2.661326e-007
-8.550954e-007
-1.490687e-006
-2.140727e-006
-2.767575e-006
-3.330889e-006
-3.791329e-006
-4.114860e-006
-4.277152e-006
-4.267391e-006
-4.090700e-006
-3.768341e-006
-3.335249e-006
-2.835035e-006
-2.313397e-006
-1.811447e-006
-1.360555e-006
-9.797617e-007
-6.759745e-007
-4.462859e-007
-2.813376e-007
-1.686917e-007
-9.553430e-008
-5.044516e-008
-2.425931e-008
-1.019701e-008
-3.518178e-009
-9.864348e-010
-3.948587e-010
-2.933465e-010
9.936863e-011
9.370050e-010
1.890760e-009
2.446156e-009
2.255462e-009
1.368762e-009
2.133049e-010
-6.618196e-010
-9.107166e-010
-5.767918e-010
-2.548371e-011
3.209746e-010
2.616696e-010
-7.841120e-011
-3.777216e-010
5.090479e-009
3.059518e-009
1.929742e-010
-1.742546e-009
-1.378653e-009
1.406302e-009
5.213945e-009
7.605216e-009
6.048899e-009
-1.330941e-009
-1.589048e-008
-3.969569e-008
-7.733822e-008
-1.373317e-007
-2.321779e-007
-3.768464e-007
-5.861742e-007
-8.720179e-007
-1.240713e-006
-1.690845e-006
-2.211099e-006
-2.778308e-006
-3.356524e-006
-3.898271e-006
-4.348735e-006
-4.652444e-006
-4.760759e-006
-4.637993e-006
-4.264534e-006
-3.636655e-006
-2.764001e-006
-1.666256e-006
-3.701925e-007
1.092552e-006
2.687256e-006
4.377845e-006
6.128660e-006
7.905951e-006
9.678654e-006
1.141829e-005
1.309830e-005
1.469338e-005
1.617941e-005
1.753387e-005
1.873617e-005
1.976733e-005
2.060881e-005
2.124131e-005
2.164431e-005
2.179664e-005
2.167785e-005
2.126971e-005
2.055776e-005
1.953291e-005
1.819381e-005
1.654987e-005
1.462466e-005
1.245900e-005
1.011286e-005
7.665456e-006
5.212755e-006
2.861993e-006
7.230100e-007
-1.103029e-006
-2.536169e-006
-3.529261e-006
-4.075900e-006
-4.212191e-006
-4.010978e-006
-3.569207e-006
-2.991237e-006
-2.372311e-006
-1.786261e-006
-1.279882e-006
-8.739881e-007
-5.691411e-007
-3.532144e-007
-2.083824e-007
-1.162158e-007
-6.062220e-008
-2.900735e-008
-1.226436e-008
-4.176061e-009
-6.802271e-010
7.428008e-010
1.490677e-009
2.132869e-009
2.680377e-009
2.882010e-009
2.512487e-009
1.567332e-009
2.998338e-010
-8.917582e-010
-1.646184e-009
-1.786018e-009
-1.361329e-009
-5.894134e-010
2.560310e-010
9.410694e-010
1.316353e-009
8.825823e-009
6.541618e-009
3.029597e-009
-9.381640e-012
-9.997557e-010
5.900652e-010
3.572308e-009
4.991332e-009
7.422212e-010
-1.363573e-008
-4.280214e-008
-9.265646e-008
-1.723410e-007
-2.960903e-007
-4.834404e-007
-7.567232e-007
-1.135720e-006
-1.630316e-006
-2.232611e-006
-2.910184e-006
-3.602257e-006
-4.220304e-006
-4.654093e-006
-4.783067e-006
-4.491508e-006
-3.684550e-006
-2.301460e-006
-3.230838e-007
2.228029e-006
5.294085e-006
8.792528e-006
1.262730e-005
1.669836e-005
2.090827e-005
2.516639e-005
2.939137e-005
3.351277e-005
3.747208e-005
4.122270e-005
4.472884e-005
4.796323e-005
5.090471e-005
5.353633e-005
5.584458e-005
5.781890e-005
5.945071e-005
6.073137e-005
6.164964e-005
6.218985e-005
6.233125e-005
6.204823e-005
6.131067e-005
6.008420e-005
5.833112e-005
5.601289e-005
5.309501e-005
4.955458e-005
4.539027e-005
4.063383e-005
3.536137e-005
2.970185e-005
2.383928e-005
1.800548e-005
1.246162e-005
7.469192e-006
3.254546e-006
-2.606717e-008
-2.312185e-006
-3.647940e-006
-4.170229e-006
-4.078391e-006
-3.593678e-006
-2.919923e-006
-2.215587e-006
-1.582379e-006
-1.069188e-006
-6.855018e-007
-4.173679e-007
-2.408628e-007
-1.310028e-007
-6.632838e-008
-3.043433e-008
-1.179017e-008
-2.838987e-009
1.047098e-009
2.491630e-009
2.842111e-009
2.704620e-009
2.307117e-009
1.719082e-009
9.669094e-010
9.314212e-011
-8.049661e-010
-1.555360e-009
-1.934826e-009
-1.753734e-009
-9.748523e-010
2.059952e-010
1.389814e-009
2.127826e-009
1.101223e-008
9.259545e-009
6.226503e-009
2.887787e-009
4.753443e-010
-2.888238e-010
-3.071665e-010
-3.000938e-009
-1.449036e-008
-4.315873e-008
-9.935500e-008
-1.960706e-007
-3.506351e-007
-5.861502e-007
-9.303070e-007
-1.409162e-006
-2.034715e-006
-2.787576e-006
-3.598948e-006
-4.338444e-006
-4.814318e-006
-4.789887e-006
-4.014863e-006
-2.265163e-006
6.181256e-007
4.699761e-006
9.937630e-006
1.618809e-005
2.322700e-005
3.078086e-005
3.856059e-005
4.629097e-005
5.373111e-005
6.068531e-005
6.700602e-005
7.259244e-005
7.738711e-005
8.137195e-005
8.456368e-005
8.700802e-005
8.877254e-005
8.993904e-005
9.059721e-005
9.084062e-005
9.076480e-005
9.046548e-005
9.003562e-005
8.956110e-005
8.911594e-005
8.875739e-005
8.852023e-005
8.840877e-005
8.838692e-005
8.836762e-005
8.820486e-005
8.769162e-005
8.656746e-005
8.453907e-005
8.131586e-005
7.665921e-005
7.043937e-005
6.268847e-005
5.363529e-005
4.370764e-005
3.349350e-005
2.366158e-005
1.485401e-005
7.576001e-006
2.112004e-006
-1.508255e-006
-3.486156e-006
-4.182053e-006
-4.018796e-006
-3.391163e-006
-2.605030e-006
-1.855698e-006
-1.239056e-006
-7.802387e-007
-4.645083e-007
-2.611220e-007
-1.377467e-007
-6.716037e-008
-2.915814e-008
-1.006824e-008
-1.354717e-009
1.938909e-009
2.549028e-009
1.989186e-009
1.136238e-009
4.708260e-010
1.352158e-010
-6.164536e-012
-2.019975e-010
-5.876217e-010
-1.040219e-009
-1.234685e-009
-8.809820e-010
2.212023e-011
1.113703e-009
1.854313e-009
1.083127e-008
1.035826e-008
8.926675e-009
6.177918e-009
2.374131e-009
-2.048296e-009
-8.037256e-009
-1.991616e-008
-4.681277e-008
-1.030516e-007
-2.079486e-007
-3.858361e-007
-6.663107e-007
-1.082732e-006
-1.664951e-006
-2.421813e-006
-3.311807e-006
-4.206852e-006
-4.862476e-006
-4.912465e-006
-3.902488e-006
-1.364345e-006
3.084103e-006
9.639725e-006
1.824377e-005
2.855922e-005
4.000071e-005
5.180934e-005
6.315365e-005
7.323338e-005
8.136510e-005
8.703711e-005
8.992995e-005
8.990852e-005
8.699736e-005
8.135053e-005
7.322389e-005
6.295222e-005
5.093002e-005
3.759357e-005
2.340268e-005
8.823343e-006
-5.685642e-006
-1.967938e-005
-3.272710e-005
-4.440949e-005
-5.431707e-005
-6.205212e-005
-6.723460e-005
-6.951316e-005
-6.858376e-005
-6.421898e-005
-5.630892e-005
-4.491122e-005
-3.030458e-005
-1.303725e-005
6.041794e-006
2.578462e-005
4.479601e-005
6.154726e-005
7.455259e-005
8.259056e-005
8.493237e-005
8.152161e-005
7.304482e-005
6.084953e-005
4.670892e-005
3.248352e-005
1.976851e-005
9.627995e-006
2.488610e-006
-1.801754e-006
-3.794516e-006
-4.211532e-006
-3.742404e-006
-2.917921e-006
-2.071123e-006
-1.363714e-006
-8.415417e-007
-4.889752e-007
-2.674724e-007
-1.369083e-007
-6.450636e-008
-2.684622e-008
-8.752757e-009
-1.147739e-009
1.117658e-009
9.624721e-010
1.192671e-010
-4.206885e-010
-3.038173e-010
2.663110e-010
7.821211e-010
8.195828e-010
3.426395e-010
-2.819025e-010
-5.704695e-010
-2.961410e-010
3.354296e-010
8.438337e-010
8.287549e-009
9.541089e-009
1.041551e-008
8.819263e-009
3.433117e-009
-6.380109e-009
-2.256857e-008
-5.161392e-008
-1.075477e-007
-2.135895e-007
-4.021359e-007
-7.132148e-007
-1.190237e-006
-1.868845e-006
-2.751749e-006
-3.763517e-006
-4.688558e-006
-5.112761e-006
-4.406014e-006
-1.784689e-006
3.529047e-006
1.207425e-005
2.390488e-005
3.840796e-005
5.424953e-005
6.948222e-005
8.180141e-005
8.888184e-005
8.870834e-005
7.982926e-005
6.148807e-005
3.362501e-005
-3.224277e-006
-4.808484e-005
-9.970361e-005
-1.566816e-004
-2.175661e-004
-2.809076e-004
-3.452965e-004
-4.093883e-004
-4.719256e-004
-5.317547e-004
-5.878314e-004
-6.392131e-004
-6.850353e-004
-7.244815e-004
-7.567545e-004
-7.810533e-004
-7.965604e-004
-8.024401e-004
-7.978536e-004
-7.819994e-004
-7.541851e-004
-7.139342e-004
-6.611298e-004
-5.961910e-004
-5.202670e-004
-4.354173e-004
-3.447240e-004
-2.522718e-004
-1.629317e-004
-8.190971e-005
-1.407144e-005
3.687121e-005
6.912973e-005
8.330549e-005
8.230961e-005
7.068280e-005
5.353542e-005
3.546173e-005
1.974757e-005
8.079265e-006
7.261942e-007
-2.996960e-006
-4.196194e-006
-3.964030e-006
-3.132263e-006
-2.208133e-006
-1.429592e-006
-8.627792e-007
-4.888399e-007
-2.603160e-007
-1.295726e-007
-5.930203e-008
-2.399414e-008
-7.801413e-009
-1.526201e-009
2.540381e-011
-1.668840e-010
-4.274069e-010
-5.428186e-011
8.552215e-010
1.724512e-009
1.978103e-009
1.453872e-009
4.943123e-010
-3.287923e-010
-6.354065e-010
-4.789932e-010
-2.330956e-010
4.242983e-009
7.162952e-009
1.027328e-008
9.629615e-009
1.766049e-009
-1.619065e-008
-4.894868e-008
-1.074984e-007
-2.138480e-007
-4.040271e-007
-7.276346e-007
-1.241710e-006
-1.993998e-006
-2.986269e-006
-4.106923e-006