# vtk DataFile Version 3.0
vtk output
ASCII
DATASET STRUCTURED_POINTS
DIMENSIONS 100 100 1
SPACING 1 1 1
ORIGIN 0 0 0
POINT_DATA 10000
SCALARS SFBox_profile double
LOOKUP_TABLE default 
0.000000e+000
0.000000e+000
0.000000e+000
0.000000e+000
0.000000e+000
0.000000e+000
0.000000e+000
0.000000e+000
0.000000e+000
0.000000e+000
0.000000e+000
0.000000e+000
0.000000e+000
0.000000e+000
0.000000e+000
0.000000e+000
0.000000e+000
0.000000e+000
0.000000e+000
0.000000e+000
0.000000e+000
0.000000e+000
0.000000e+000
0.000000e+000
0.000000e+000
0.000000e+000
0.000000e+000
0.000000e+000
0.000000e+000
0.000000e+000
0.000000e+000
0.000000e+000
0.000000e+000
0.000000e+000
0.000000e+000
0.000000e+000
0.000000e+000
0.000000e+000
0.000000e+000
0.000000e+000
0.000000e+000
0.000000e+000
0.000000e+000
0.000000e+000
0.000000e+000
0.000000e+000
0.000000e+000
0.000000e+000
0.000000e+000
0.000000e+000
0.000000e+000
0.000000e+000
0.000000e+000
0.000000e+000
0.000000e+000
0.000000e+000
0.000000e+000
0.000000e+000
0.000000e+000
0.000000e+000
0.000000e+000
0.000000e+000
0.000000e+000
0.000000e+000
0.000000e+000
0.000000e+000
0.000000e+000
0.000000e+000
0.000000e+000
0.000000e+000
0.000000e+000
0.000000e+000
0.000000e+000
0.000000e+000
0.000000e+000
0.000000e+000
0.000000e+000
0.000000e+000
0.000000e+000
0.000000e+000
0.000000e+000
0.000000e+000
0.000000e+000
0.000000e+000
0.000000e+000
0.000000e+000
0.000000e+000
0.000000e+000
0.000000e+000
0.000000e+000
0.000000e+000
0.000000e+000
0.000000e+000
0.000000e+000
0.000000e+000
0.000000e+000
0.000000e+000
0.000000e+000
0.000000e+000
0.000000e+000
9.690865e-010
1.135224e-009
1.483322e-009
2.039127e-009
2.823692e-009
3.824272e-009
4.941873e-009
5.903938e-009
6.129274e-009
4.534066e-009
-7.254442e-010
-1.256427e-008
-3.530301e-008
-7.496616e-008
-1.394547e-007
-2.384791e-007
-3.831327e-007
-5.850131e-007
-8.548824e-007
-1.200986e-006
-1.627314e-006
-2.132189e-006
-2.707586e-006
-3.339419e-006
-4.008797e-006
-4.694003e-006
-5.372763e-006
-6.024370e-006
-6.631326e-006
-7.180324e-006
-7.662563e-006
-8.073512e-006
-8.412267e-006
-8.680678e-006
-8.882410e-006
-9.022056e-006
-9.104413e-006
-9.133988e-006
-9.114736e-006
-9.050029e-006
-8.942776e-006
-8.795631e-006
-8.611233e-006
-8.392404e-006
-8.142284e-006
-7.864391e-006
-7.562615e-006
-7.241146e-006
-6.904389e-006
-6.556870e-006
-6.203171e-006
-5.847908e-006
-5.495772e-006
-5.151611e-006
-4.820574e-006
-4.508257e-006
-4.220864e-006
-3.965323e-006
-3.749342e-006
-3.581368e-006
-3.470412e-006
-3.425700e-006
-3.456115e-006
-3.569401e-006
-3.771123e-006
-4.063409e-006
-4.443571e-006
-4.902738e-006
-5.424723e-006
-5.985367e-006
-6.552667e-006
-7.087910e-006
-7.548012e-006
-7.889065e-006
-8.070931e-006
-8.062412e-006
-7.846276e-006
-7.423147e-006
-6.813273e-006
-6.055316e-006
-5.201951e-006
-4.312779e-006
-3.445938e-006
-2.650271e-006
-1.959837e-006
-1.391807e-006
-9.477571e-007
-6.173998e-007
-3.833118e-007
-2.253713e-007
-1.240935e-007
-6.263398e-008
-2.762635e-008
-9.198016e-009
-5.150397e-010
2.866505e-009
3.658551e-009
3.407653e-009
2.930620e-009
2.617442e-009
1.204535e-009
1.393912e-009
1.783749e-009
2.385946e-009
3.188600e-009
4.108743e-009
4.909986e-009
5.069267e-009
3.576049e-009
-1.348540e-009
-1.261286e-008
-3.467311e-008
-7.394955e-008
-1.391338e-007
-2.412266e-007
-3.931026e-007
-6.083926e-007
-8.995605e-007
-1.275263e-006
-1.737403e-006
-2.278612e-006
-2.880983e-006
-3.516686e-006
-4.150560e-006
-4.744174e-006
-5.260442e-006
-5.667768e-006
-5.942953e-006
-6.072524e-006
-6.052553e-006
-5.887328e-006
-5.587339e-006
-5.167014e-006
-4.642553e-006
-4.030081e-006
-3.344284e-006
-2.597567e-006
-1.799743e-006
-9.581734e-007
-7.825789e-008
8.358961e-007
1.780753e-006
2.752715e-006
3.747648e-006
4.760609e-006
5.785768e-006
6.816483e-006
7.845477e-006
8.865049e-006
9.867272e-006
1.084411e-005
1.178746e-005
1.268901e-005
1.354011e-005
1.433145e-005
1.505272e-005
1.569235e-005
1.623719e-005
1.667232e-005
1.698102e-005
1.714489e-005
1.714419e-005
1.695851e-005
1.656780e-005
1.595379e-005
1.510185e-005
1.400328e-005
1.265795e-005
1.107700e-005
9.285483e-006
7.324463e-006
5.252014e-006
3.142584e-006
1.084066e-006
-8.278871e-007
-2.498313e-006
-3.843530e-006
-4.802434e-006
-5.346357e-006
-5.485026e-006
-5.266512e-006
-4.770272e-006
-4.094221e-006
-3.338732e-006
-2.591517e-006
-1.917055e-006
-1.352571e-006
-9.102946e-007
-5.838336e-007
-3.558930e-007
-2.050529e-007
-1.104829e-007
-5.449800e-008
-2.344476e-008
-7.552795e-009
-2.816828e-010
2.478404e-009
3.149966e-009
3.064278e-009
2.887459e-009
1.691281e-009
1.922335e-009
2.381842e-009
3.043798e-009
3.810214e-009
4.420750e-009
4.300042e-009
2.317821e-009
-3.562147e-009
-1.675703e-008
-4.264918e-008
-8.921452e-008
-1.675517e-007
-2.920603e-007
-4.798895e-007
-7.491867e-007
-1.115720e-006
-1.587801e-006
-2.160154e-006
-2.808282e-006
-3.485452e-006
-4.124139e-006
-4.642533e-006
-4.954992e-006
-4.983960e-006
-4.670437e-006
-3.980740e-006
-2.908551e-006
-1.472626e-006
2.885840e-007
2.323793e-006
4.575844e-006
6.987768e-006
9.507407e-006
1.209036e-005
1.470139e-005
1.731443e-005
1.991164e-005
2.248177e-005
2.501818e-005
2.751695e-005
2.997514e-005
3.238951e-005
3.475573e-005
3.706802e-005
3.931921e-005
4.150101e-005
4.360447e-005
4.562037e-005
4.753960e-005
4.935332e-005
5.105296e-005
5.262999e-005
5.407564e-005
5.538038e-005
5.653345e-005
5.752236e-005
5.833242e-005
5.894626e-005
5.934351e-005
5.950038e-005
5.938932e-005
5.897888e-005
5.823363e-005
5.711457e-005
5.558007e-005
5.358780e-005
5.109796e-005
4.807821e-005
4.451051e-005
4.039990e-005
3.578421e-005
3.074339e-005
2.540576e-005
1.994823e-005
1.458792e-005
9.563832e-006
5.109525e-006
1.420796e-006
-1.375184e-006
-3.241440e-006
-4.236834e-006
-4.502759e-006
-4.233446e-006
-3.637867e-006
-2.903856e-006
-2.173624e-006
-1.534982e-006
-1.026574e-006
-6.513672e-007
-3.919013e-007
-2.227578e-007
-1.185820e-007
-5.805233e-008
-2.506991e-008
-8.423370e-009
-8.220486e-010
2.180565e-009
3.119429e-009
3.313507e-009
2.453871e-009
2.732618e-009
3.255276e-009
3.910735e-009
4.416448e-009
4.145297e-009
1.839894e-009
-4.825336e-009
-1.986714e-008
-4.980547e-008
-1.046034e-007
-1.985548e-007
-3.507455e-007
-5.844373e-007
-9.244130e-007
-1.391179e-006
-1.991360e-006
-2.705018e-006
-3.472906e-006
-4.188692e-006
-4.701355e-006
-4.830343e-006
-4.391509e-006
-3.227500e-006
-1.234511e-006
1.621371e-006
5.301381e-006
9.703777e-006
1.468201e-005
2.006625e-005
2.568378e-005
3.137532e-005
3.700582e-005
4.246983e-005
4.769196e-005
5.262384e-005
5.723897e-005
6.152669e-005
6.548662e-005
6.912392e-005
7.244589e-005
7.545995e-005
7.817269e-005
8.058988e-005
8.271703e-005
8.456021e-005
8.612686e-005
8.742642e-005
8.847073e-005
8.927416e-005
8.985346e-005
9.022759e-005
9.041746e-005
9.044571e-005
9.033666e-005
9.011640e-005
8.981288e-005
8.945591e-005
8.907679e-005
8.870728e-005
8.837748e-005
8.811236e-005
8.792675e-005
8.781865e-005
8.776103e-005
8.769308e-005
8.751191e-005
8.706705e-005
8.616056e-005
8.455590e-005
8.199857e-005
7.824952e-005
7.312930e-005
6.656694e-005
5.864321e-005
4.961609e-005
3.991668e-005
3.010865e-005
2.081255e-005
1.260733e-005
5.931922e-006
1.013309e-006
-2.158570e-006
-3.803178e-006
-4.278385e-006
-3.989410e-006
-3.305780e-006
-2.507699e-006
-1.769358e-006
-1.172138e-006
-7.329094e-007
-4.332775e-007
-2.416320e-007
-1.261438e-007
-6.056478e-008
-2.563168e-008
-8.346158e-009
-5.338049e-010
2.600368e-009
3.619641e-009
3.510280e-009
3.816887e-009
4.327114e-009
4.756033e-009
4.457745e-009
2.105227e-009
-4.827362e-009
-2.083939e-008
-5.347149e-008
-1.146290e-007
-2.219632e-007
-3.998120e-007
-6.786945e-007
-1.091647e-006
-1.665043e-006
-2.401770e-006
-3.256879e-006
-4.110710e-006
-4.750162e-006
-4.871366e-006
-4.112600e-006
-2.115341e-006
1.401051e-006
6.572405e-006
1.335040e-005
2.150103e-005
3.063911e-005
4.028766e-005
4.994576e-005
5.914917e-005
6.751354e-005
7.475717e-005
8.070483e-005
8.527716e-005
8.847048e-005
9.033246e-005
9.093833e-005
9.037156e-005
8.871085e-005
8.602411e-005
8.236804e-005
7.779179e-005
7.234258e-005
6.607153e-005
5.903857e-005
5.131547e-005
4.298706e-005
3.415072e-005
2.491478e-005
1.539638e-005
5.719726e-006
-3.985045e-006
-1.358168e-005
-2.292637e-005
-3.186501e-005
-4.022952e-005
-4.783380e-005
-5.447021e-005
-5.990740e-005
-6.389103e-005
-6.614838e-005
-6.639845e-005
-6.436881e-005
-5.982032e-005
-5.258031e-005
-4.258375e-005
-2.992015e-005
-1.488124e-005
1.998715e-006
1.992163e-005
3.783714e-005
5.450011e-005
6.858184e-005
7.883241e-005
8.427634e-005
8.440760e-005
7.933513e-005
6.982740e-005
5.722031e-005
4.319130e-005
2.944765e-005
1.741024e-005
7.984793e-006
1.481257e-006
-2.317265e-006
-3.978579e-006
-4.205757e-006
-3.651563e-006
-2.807226e-006
-1.973399e-006
-1.290216e-006
-7.918527e-007
-4.579654e-007
-2.492715e-007
-1.266883e-007
-5.892515e-008
-2.379120e-008
-6.852203e-009
5.850551e-010
3.270841e-009
4.847029e-009
5.113451e-009
5.410617e-009
5.123362e-009
2.934409e-009
-3.743610e-009
-1.966823e-008
-5.307807e-008
-1.174248e-007
-2.333483e-007
-4.303096e-007
-7.465061e-007
-1.224399e-006
-1.897583e-006
-2.764051e-006
-3.743718e-006
-4.626803e-006
-5.033043e-006
-4.411734e-006
-2.108431e-006
2.498412e-006
9.819488e-006
1.988769e-005
3.225846e-005
4.601313e-005
5.987164e-005
7.238762e-005
8.216878e-005
8.806556e-005
8.929021e-005
8.545518e-005
7.654229e-005
6.282644e-005
4.477845e-005
2.296626e-005
-2.031446e-006
-2.968972e-005
-5.957473e-005
-9.135441e-005
-1.247871e-004
-1.596957e-004
-1.959368e-004
-2.333701e-004
-2.718353e-004
-3.111375e-004
-3.510417e-004
-3.912755e-004
-4.315362e-004
-4.715010e-004
-5.108363e-004
-5.492038e-004
-5.862640e-004
-6.216730e-004
-6.550763e-004
-6.860985e-004
-7.143293e-004
-7.393097e-004
-7.605178e-004
-7.773581e-004
-7.891543e-004
-7.951500e-004
-7.945177e-004
-7.863810e-004
-7.698520e-004
-7.440900e-004
-7.083847e-004
-6.622685e-004
-6.056574e-004
-5.390139e-004
-4.635149e-004
-3.811908e-004
-2.949934e-004
-2.087358e-004
-1.268589e-004
-5.399377e-005
5.662117e-006
4.907335e-005
7.502889e-005
8.450172e-005
8.050192e-005
6.740401e-005
4.996427e-005
3.234373e-005
1.742285e-005
6.584314e-006
-8.128939e-008
-3.326840e-006
-4.248164e-006
-3.888237e-006
-3.021276e-006
-2.107523e-006
-1.354609e-006
-8.131003e-007
-4.583871e-007
-2.424627e-007
-1.191912e-007
-5.304144e-008
-1.981291e-008
-4.485644e-009
1.326722e-009
6.383568e-009
6.459238e-009
6.133467e-009
4.200962e-009
-1.829335e-009
-1.670038e-008
-4.890364e-008
-1.127833e-007
-2.311374e-007
-4.377211e-007
-7.779998e-007
-1.304496e-006
-2.060055e-006
-3.039739e-006
-4.124101e-006
-4.989697e-006
-5.028889e-006
-3.338960e-006
1.154024e-006
9.407923e-006
2.185621e-005
3.799290e-005
5.610128e-005
7.325672e-005
8.567641e-005
8.934653e-005
8.073617e-005
5.739867e-005
1.830028e-005
-3.618377e-005
-1.045382e-004
-1.845059e-004
-2.734912e-004
-3.688968e-004
-4.683673e-004
-5.699381e-004
-6.720956e-004
-7.737629e-004
-8.742309e-004
-9.730563e-004
-1.069954e-003
-1.164700e-003
-1.257063e-003
-1.346763e-003
-1.433461e-003
-1.516772e-003
-1.596289e-003
-1.671615e-003
-1.742387e-003
-1.808298e-003
-1.869104e-003
-1.924622e-003
-1.974721e-003
-2.019305e-003
-2.058296e-003
-2.091616e-003
-2.119163e-003
-2.140798e-003
-2.156317e-003
-2.165428e-003
-2.167715e-003
-2.162582e-003
-2.149196e-003
-2.126397e-003
-2.092619e-003
-2.045812e-003
-1.983428e-003
-1.902498e-003
-1.799888e-003
-1.672796e-003
-1.519505e-003
-1.340343e-003
-1.138650e-003
-9.214312e-004
-6.993137e-004
-4.855631e-004
-2.941533e-004
-1.372288e-004
-2.254226e-005
4.838102e-005
8.052109e-005
8.366769e-005
6.944426e-005
4.839570e-005
2.805812e-005
1.241364e-005
2.492864e-006
-2.518310e-006
-4.180087e-006
-4.015624e-006
-3.130169e-006
-2.153611e-006
-1.354607e-006
-7.922994e-007
-4.338569e-007
-2.220341e-007
-1.048199e-007
-4.405570e-008
-1.507318e-008
-3.748611e-009
7.926408e-009
7.529799e-009
5.844944e-009
6.676446e-010
-1.244388e-008
-4.174345e-008
-1.016671e-007
-2.159948e-007
-4.213055e-007
-7.689882e-007
-1.321420e-006
-2.133251e-006
-3.203036e-006
-4.379438e-006
-5.221742e-006
-4.857411e-006
-1.940945e-006
5.142666e-006
1.772453e-005
3.597357e-005
5.790276e-005
7.862898e-005
9.033759e-005
8.330819e-005
4.783423e-005
-2.351650e-005
-1.340566e-004
-2.822919e-004
-4.624979e-004
-6.660715e-004
-8.830971e-004
-1.103745e-003
-1.319318e-003
-1.522873e-003
-1.709454e-003
-1.875980e-003
-2.020912e-003
-2.143805e-003
-2.244877e-003
-2.324663e-003
-2.383809e-003
-2.422978e-003
-2.442861e-003
-2.444246e-003
-2.428094e-003
-2.395608e-003
-2.348257e-003
-2.287763e-003
-2.216050e-003
-2.135175e-003
-2.047254e-003
-1.954407e-003
-1.858726e-003
-1.762271e-003
-1.667095e-003
-1.575292e-003
-1.489054e-003
-1.410731e-003
-1.342887e-003
-1.288325e-003
-1.250079e-003
-1.231340e-003
-1.235306e-003
-1.264918e-003
-1.322433e-003
-1.408812e-003
-1.522858e-003
-1.660108e-003
-1.811576e-003
-1.962626e-003
-2.092549e-003
-2.175700e-003
-2.185064e-003
-2.098544e-003
-1.906801e-003
-1.619756e-003
-1.267911e-003
-8.961245e-004
-5.515965e-004
-2.715866e-004
-7.560730e-005
3.665606e-005
8.146459e-005
8.253719e-005
6.257422e-005
3.804100e-005
1.782444e-005
4.766262e-006
-1.849549e-006
-4.104466e-006
-4.052207e-006
-3.128587e-006
-2.106474e-006
-1.289899e-006
-7.322739e-007
-3.880088e-007
-1.911965e-007
-8.623504e-008
-3.482927e-008
-1.430460e-008
9.116455e-009
7.772226e-009
3.516276e-009
-7.464643e-009
-3.270249e-008
-8.590079e-008
-1.904809e-007
-3.839105e-007
-7.212448e-007
-1.273271e-006
-2.108506e-006
-3.238956e-006
-4.502673e-006
-5.369012e-006
-4.710525e-006
-6.955445e-007
8.931139e-006
2.590122e-005
4.971118e-005
7.543556e-005
9.186556e-005
8.133444e-005
2.251755e-005
-1.039906e-004
-3.087784e-004
-5.884844e-004
-9.248448e-004
-1.287418e-003
-1.639028e-003
-1.942992e-003
-2.170021e-003
-2.302517e-003
-2.335398e-003
-2.274066e-003
-2.130780e-003
-1.920780e-003
-1.659176e-003
-1.359099e-003
-1.031066e-003
-6.831994e-004
-3.218632e-004
4.762987e-005
4.204634e-004
7.920003e-004
1.157702e-003
1.513228e-003
1.854624e-003
2.178526e-003
2.482305e-003
2.764131e-003
3.022937e-003
3.258320e-003
3.470388e-003
3.659586e-003
3.826537e-003
3.971888e-003
4.096179e-003
4.199721e-003
4.282484e-003
4.343961e-003
4.383009e-003
4.397632e-003
4.384684e-003
4.339472e-003
4.255246e-003
4.122616e-003
3.929015e-003
3.658490e-003
3.292343e-003
2.811494e-003
2.201714e-003
1.462636e-003
6.201058e-004
-2.618479e-004
-1.077621e-003
-1.696354e-003
-2.004349e-003
-1.960959e-003
-1.629913e-003
-1.151744e-003
-6.742537e-004
-2.972176e-004
-5.788005e-005
5.699108e-005
8.666085e-005
7.271482e-005
4.563401e-005
2.164978e-005
6.110494e-006
-1.581115e-006
-4.096345e-006
-4.008348e-006
-3.016814e-006
-1.970781e-006
-1.168635e-006
-6.413379e-007
-3.276103e-007
-1.552894e-007
-6.884905e-008
-3.371863e-008
9.377093e-009
6.341700e-009
-2.347238e-009
-2.297656e-008
-6.775048e-008
-1.584265e-007
-3.312510e-007
-6.420118e-007
-1.166994e-006
-1.988696e-006
-3.142614e-006
-4.486907e-006
-5.459915e-006
-4.752721e-006
-8.465240e-008
1.149863e-005
3.222870e-005
6.067989e-005
8.749768e-005
9.125567e-005
3.788936e-005
-1.123504e-004
-3.896109e-004
-7.943594e-004
-1.282531e-003
-1.762750e-003
-2.112348e-003
-2.217351e-003
-2.017328e-003
-1.524372e-003
-8.078608e-004
3.764001e-005
9.211087e-004
1.771771e-003
2.544363e-003
3.216689e-003
3.783450e-003
4.249490e-003
4.624328e-003
4.918577e-003
5.142094e-003
5.303334e-003
5.409427e-003
5.466562e-003
5.480419e-003
5.456502e-003
5.400309e-003
5.317354e-003
5.213078e-003
5.092711e-003
4.961138e-003
4.822816e-003
4.681744e-003
4.541504e-003
4.405349e-003
4.276328e-003
4.157421e-003
4.051679e-003
3.962350e-003
3.892980e-003
3.847487e-003
3.830189e-003
3.845759e-003
3.899050e-003
3.994728e-003
4.136546e-003
4.326077e-003
4.560595e-003
4.829748e-003
5.110695e-003
5.361737e-003
5.515446e-003
5.474385e-003
5.116493e-003
4.323069e-003
3.045018e-003
1.402024e-003
-2.579766e-004
-1.466431e-003
-1.919786e-003
-1.694159e-003
-1.136428e-003
-5.774100e-004
-1.847747e-004
1.835358e-005
8.406453e-005
7.832283e-005
4.969952e-005
2.305492e-005
6.139946e-006
-1.817821e-006
-4.157499e-006
-3.875058e-006
-2.799243e-006
-1.760199e-006
-1.005846e-006
-5.318994e-007
-2.623660e-007
-1.238019e-007
-6.655725e-008
7.874875e-009
2.057857e-009
-1.375560e-008
-4.948721e-008
-1.240837e-007
-2.706008e-007
-5.423896e-007
-1.017074e-006
-1.788238e-006
-2.920522e-006
-4.322264e-006
-5.477577e-006
-5.028240e-006
-3.849465e-007
1.208689e-005
3.534814e-005
6.735781e-005
9.381291e-005
8.005440e-005
-3.068164e-005
-3.021788e-004
-7.670110e-004
-1.371031e-003
-1.928195e-003
-2.134277e-003
-1.712190e-003
-6.197756e-004
9.003947e-004
2.478948e-003
3.815084e-003
4.763459e-003
5.311441e-003
5.518378e-003
5.466843e-003
5.236065e-003
4.890934e-003
4.479510e-003
4.034711e-003
3.577689e-003
3.121428e-003
2.673806e-003
2.239830e-003
1.823054e-003
1.426338e-003
1.052137e-003
7.025075e-004
3.790023e-004
8.255119e-005
-1.865975e-004
-4.288556e-004
-6.452011e-004
-8.370356e-004
-1.006021e-003
-1.153920e-003
-1.282456e-003
-1.393196e-003
-1.487459e-003
-1.566243e-003
-1.630153e-003
-1.679314e-003
-1.713257e-003
-1.730736e-003
-1.729464e-003
-1.705716e-003
-1.653754e-003
-1.565043e-003
-1.427217e-003
-1.222862e-003
-9.283600e-004
-5.134201e-004
5.734850e-005
8.184135e-004
1.789018e-003
2.945559e-003
4.176681e-003
5.228114e-003
5.681329e-003
5.071514e-003
3.243968e-003
7.747535e-004
-1.179495e-003
-1.856090e-003
-1.509627e-003
-8.416866e-004
-3.051995e-004
-1.695745e-005
8.033946e-005
8.004335e-005
4.975132e-005
2.174031e-005
4.850253e-006
-2.460781e-006
-4.215074e-006
-3.632078e-006
-2.488184e-006
-1.496823e-006
-8.217368e-007
-4.201459e-007
-2.078269e-007
-1.186188e-007
3.507828e-009
-6.599219e-009
-3.321370e-008
-9.136607e-008
-2.092776e-007
-4.349613e-007
-8.426705e-007
-1.531271e-006
-2.592827e-006
-4.004126e-006
-5.365591e-006
-5.429971e-006
-1.537578e-006
1.046866e-005
3.455358e-005
6.910073e-005
9.631237e-005
6.835326e-005
-9.783445e-005
-4.936899e-004
-1.136435e-003
-1.832022e-003
-2.071644e-003
-1.239727e-003
7.321652e-004
3.084945e-003
4.866472e-003
5.617962e-003
5.427072e-003
4.627740e-003
3.551818e-003
2.432093e-003
1.399874e-003
5.133894e-004
-2.138352e-004
-7.922754e-004
-1.242908e-003
-1.589128e-003
-1.852490e-003
-2.050968e-003
-2.198696e-003
-2.306423e-003
-2.382244e-003
-2.432313e-003
-2.461449e-003
-2.473569e-003
-2.471982e-003
-2.459563e-003
-2.438842e-003
-2.412044e-003
-2.381119e-003
-2.347757e-003
-2.313415e-003
-2.279349e-003
-2.246662e-003
-2.216345e-003
-2.189330e-003
-2.166537e-003
-2.148916e-003
-2.137496e-003
-2.133406e-003
-2.137909e-003
-2.152395e-003
-2.178361e-003
-2.217318e-003
-2.270606e-003
-2.338999e-003
-2.421975e-003
-2.516356e-003
-2.613868e-003
-2.696895e-003
-2.731365e-003
-2.655827e-003
-2.367636e-003
-1.714517e-003
-5.178911e-004
1.319740e-003
3.577305e-003
5.443255e-003
5.650082e-003
3.552120e-003
4.027647e-004
-1.563155e-003
-1.707722e-003
-1.022304e-003
-3.784413e-004
-3.158250e-005
8.015924e-005
7.834774e-005
4.579549e-005
1.799819e-005
2.618885e-006
-3.252512e-006
-4.162932e-006
-3.267962e-006
-2.108368e-006
-1.210003e-006
-6.413227e-007
-3.300721e-007
-1.967855e-007
-5.063357e-009
-2.143402e-008
-6.360253e-008
-1.534648e-007
-3.313685e-007
-6.638296e-007
-1.247614e-006
-2.193311e-006
-3.546312e-006
-5.064194e-006
-5.750947e-006
-3.163768e-006
7.041524e-006
2.991293e-005
6.566339e-005
9.654383e-005
6.626412e-005
-1.330204e-004
-6.247198e-004
-1.401868e-003
-2.044908e-003
-1.560553e-003
7.563136e-004
3.838449e-003
5.664682e-003
5.432709e-003
3.800982e-003
1.786444e-003
4.626725e-005
-1.193665e-003
-1.961182e-003
-2.373536e-003
-2.549694e-003
-2.580807e-003
-2.528498e-003
-2.431678e-003
-2.313817e-003
-2.188496e-003
-2.063196e-003
-1.941765e-003
-1.825987e-003
-1.716539e-003
-1.613559e-003
-1.516963e-003
-1.426598e-003
-1.342313e-003
-1.263969e-003
-1.191435e-003
-1.124572e-003
-1.063228e-003
-1.007235e-003
-9.564129e-004
-9.105843e-004
-8.695891e-004
-8.333033e-004
-8.016583e-004
-7.746606e-004
-7.524114e-004
-7.351296e-004
-7.231774e-004
-7.170930e-004
-7.176337e-004
-7.258337e-004
-7.430830e-004
-7.712348e-004
-8.127483e-004
-8.708765e-004
-9.498975e-004
-1.055374e-003
-1.194374e-003
-1.375454e-003
-1.607872e-003
-1.898773e-003
-2.245422e-003
-2.616669e-003
-2.914097e-003
-2.906445e-003
-2.170513e-003
-2.092591e-004
2.915746e-003
5.612660e-003
5.345214e-003
1.973884e-003
-1.111593e-003
-1.766810e-003
-1.086042e-003
-3.799295e-004
-1.821941e-005
8.363740e-005
7.283226e-005
3.832029e-005
1.265281e-005
6.980144e-008
-3.891148e-006
-3.919982e-006
-2.797885e-006
-1.698196e-006
-9.361190e-007
-4.997911e-007
-3.086237e-007
-1.933012e-008
-4.440873e-008
-1.079456e-007
-2.406494e-007
-4.978716e-007
-9.671646e-007
-1.764696e-006
-2.988086e-006
-4.552377e-006
-5.789175e-006
-4.724113e-006
2.712017e-006
2.231331e-005
5.707813e-005
9.364692e-005
7.628902e-005
-1.187215e-004
-6.521811e-004
-1.520245e-003
-2.079667e-003
-8.052871e-004
2.733732e-003
5.661630e-003
5.352607e-003
2.687106e-003
-1.048032e-004
-1.873049e-003
-2.618078e-003
-2.725766e-003
-2.531304e-003
-2.232003e-003
-1.922803e-003
-1.641817e-003
-1.399993e-003
-1.196764e-003
-1.027427e-003
-8.863515e-004
-7.682538e-004
-6.686175e-004
-5.837689e-004
-5.108093e-004
-4.475002e-004
-3.921369e-004
-3.434298e-004
-3.004009e-004
-2.622979e-004
-2.285281e-004
-1.986089e-004
-1.721332e-004
-1.487480e-004
-1.281411e-004
-1.100348e-004
-9.418444e-005
-8.037785e-005
-6.843755e-005
-5.822261e-005
-4.963116e-005
-4.260366e-005
-3.712747e-005
-3.324390e-005
-3.105921e-005
-3.076169e-005
-3.264793e-005
-3.716300e-005
-4.496132e-005
-5.699917e-005
-7.467514e-005
-1.000446e-004
-1.361488e-004
-1.875215e-004
-2.609619e-004
-3.666762e-004
-5.198310e-004
-7.422471e-004
-1.062919e-003
-1.513051e-003
-2.103633e-003
-2.757160e-003
-3.147439e-003
-2.480814e-003
2.390245e-004
4.338213e-003
5.969188e-003
2.873191e-003
-8.928013e-004
-1.764667e-003
-1.026133e-003
-3.093737e-004
1.629484e-005
8.626717e-005
6.286755e-005
2.844498e-005
6.861970e-006
-2.150545e-006
-4.155767e-006
-3.472240e-006
-2.268982e-006
-1.309036e-006
-7.249985e-007
-4.617081e-007
-4.079461e-008
-7.744437e-008
-1.690678e-007
-3.571595e-007
-7.145235e-007
-1.350045e-006
-2.388424e-006
-3.868261e-006
-5.444141e-006
-5.745084e-006
-1.416707e-006
1.335368e-005
4.417904e-005
8.507015e-005
9.106625e-005
-6.057043e-005
-5.651921e-004
-1.483302e-003
-2.096666e-003
-4.002165e-004
3.867384e-003
6.036328e-003
3.602045e-003
-1.915678e-004
-2.379284e-003
-2.862720e-003
-2.527081e-003
-1.982076e-003
-1.477001e-003
-1.076541e-003
-7.774803e-004
-5.589783e-004
-3.999587e-004
-2.836300e-004
-1.976945e-004
-1.334371e-004
-8.474367e-005
-4.732407e-005
-1.815642e-005
4.895989e-006
2.334859e-005
3.827959e-005
5.046049e-005
6.044936e-005
6.865732e-005
7.539536e-005
8.090653e-005
8.538751e-005
8.900242e-005
9.189155e-005
9.417652e-005
9.596340e-005
9.734476e-005
9.840111e-005
9.920226e-005
9.980857e-005
1.002723e-004
1.006388e-004
1.009474e-004
1.012316e-004
1.015187e-004
1.018273e-004
1.021634e-004
1.025112e-004
1.028195e-004
1.029767e-004
1.027686e-004
1.018063e-004
9.940020e-005
9.433631e-005
8.447345e-005
6.601432e-005
3.219756e-005
-2.898140e-005
-1.385008e-004
-3.316341e-004
-6.630266e-004
-1.202798e-003
-1.995119e-003
-2.902040e-003
-3.205760e-003
-1.284860e-003
3.347781e-003
6.061589e-003
2.904580e-003
-1.078980e-003
-1.705264e-003
-8.499081e-004
-1.906615e-004
5.490704e-005
8.247069e-005
4.889790e-005
1.788069e-005
1.777595e-006
-3.594227e-006
-3.982187e-006
-2.880130e-006
-1.755458e-006
-1.010838e-006
-6.627085e-007
-7.078264e-008
-1.221671e-007
-2.491814e-007
-5.058795e-007
-9.839702e-007
-1.810390e-006
-3.097012e-006
-4.752353e-006
-5.996254e-006
-4.443625e-006
4.922080e-006
2.906079e-005
6.943836e-005
9.859604e-005
1.486431e-005
-3.890746e-004
-1.283490e-003
-2.125954e-003
-6.553052e-004
4.009626e-003
5.951981e-003
2.274167e-003
-1.714219e-003
-2.935006e-003
-2.501530e-003
-1.715149e-003
-1.060234e-003
-6.114997e-004
-3.272075e-004
-1.531439e-004
-4.802150e-005
1.517187e-005
5.305679e-005
7.561581e-005
8.881357e-005
9.623344e-005
1.000523e-004
1.016097e-004
1.017395e-004
1.009649e-004
9.961574e-005
9.790147e-005
9.595668e-005
9.387032e-005
9.170397e-005
8.950291e-005
8.730265e-005
8.513244e-005
8.301708e-005
8.097787e-005
7.903307e-005
7.719839e-005
7.548753e-005
7.391284e-005
7.248620e-005
7.122004e-005
7.012840e-005
6.922821e-005
6.854055e-005
6.809207e-005
6.791648e-005
6.805628e-005
6.856461e-005
6.950743e-005
7.096579e-005
7.303790e-005
7.584007e-005
7.950448e-005
8.416845e-005
8.994265e-005
9.682910e-005
1.045221e-004
1.119450e-004
1.162113e-004
1.103893e-004
7.897854e-005
-1.038266e-005
-2.194187e-004
-6.495828e-004
-1.420938e-003
-2.524133e-003
-3.317610e-003
-1.751285e-003
3.310529e-003
5.985186e-003
2.067903e-003
-1.517113e-003
-1.514694e-003
-5.893840e-004
-6.386985e-005
8.010515e-005
6.985068e-005
3.300935e-005
8.473960e-006
-1.815860e-006
-4.131009e-006
-3.462567e-006
-2.259102e-006
-1.357978e-006
-9.163588e-007
-1.102349e-007
-1.796352e-007
-3.494666e-007
-6.876579e-007
-1.304717e-006
-2.337697e-006
-3.852459e-006
-5.532762e-006
-5.961342e-006
-1.456265e-006
1.464220e-005
4.870383e-005
9.097581e-005
7.464590e-005
-1.820532e-004
-9.371526e-004
-2.013855e-003
-1.423363e-003
3.138928e-003
6.023836e-003
2.110873e-003
-2.154852e-003
-2.884794e-003
-2.014004e-003
-1.097149e-003
-4.960488e-004
-1.655505e-004
-1.941446e-006
7.182835e-005
1.008193e-004
1.086793e-004
1.071147e-004
1.017158e-004
9.507445e-005
8.834720e-005
8.201306e-005
7.623633e-005
7.103893e-005
6.638210e-005
6.220525e-005
5.844436e-005
5.504059e-005
5.194387e-005
4.911368e-005
4.651844e-005
4.413412e-005
4.194250e-005
3.992964e-005
3.808446e-005
3.639776e-005
3.486160e-005
3.346896e-005
3.221370e-005
3.109069e-005
3.009616e-005
2.922805e-005
2.848652e-005
2.787451e-005
2.739843e-005
2.706896e-005
2.690212e-005
2.692064e-005
2.715594e-005
2.765085e-005
2.846347e-005
2.967292e-005
3.138751e-005
3.375704e-005
3.699076e-005
4.138287e-005
4.734550e-005
5.544020e-005
6.637091e-005
8.082216e-005
9.882478e-005
1.178737e-004
1.281342e-004
1.018187e-004
-2.627132e-005
-3.823369e-004
-1.145239e-003
-2.373751e-003
-3.325002e-003
-1.356024e-003
4.243527e-003
5.424437e-003
5.411862e-004
-1.825950e-003
-1.152391e-003
-3.101509e-004
3.220282e-005
8.341188e-005
5.078117e-005
1.815666e-005
1.552165e-006
-3.699264e-006
-3.924655e-006
-2.791372e-006
-1.761462e-006
-1.224498e-006
-1.595112e-007
-2.500937e-007
-4.697256e-007
-9.008351e-007
-1.670664e-006
-2.913429e-006
-4.605011e-006
-6.093800e-006
-5.123584e-006
3.460273e-006
2.746822e-005
6.950283e-005
9.837611e-005
-1.190728e-005
-5.278415e-004
-1.615414e-003
-2.131446e-003
1.245808e-003
5.867910e-003
3.194842e-003
-1.855401e-003
-2.827887e-003
-1.781698e-003
-7.869979e-004
-2.271123e-004
1.909152e-005
1.032314e-004
1.181911e-004
1.087298e-004
9.330979e-005
7.846728e-005
6.597248e-005
5.592114e-005
4.793414e-005
4.157377e-005
3.646429e-005
3.231127e-005
2.889134e-005
2.603672e-005
2.362158e-005
2.155159e-005
1.975621e-005
1.818285e-005
1.679252e-005
1.555631e-005
1.445265e-005
1.346515e-005
1.258103e-005
1.178992e-005
1.108306e-005
1.045284e-005
9.892526e-006
9.396140e-006
8.958456e-006
8.575060e-006
8.242444e-006
7.958135e-006
7.720857e-006
7.530730e-006
7.389550e-006
7.301176e-006
7.272102e-006
7.312317e-006
7.436609e-006
7.666575e-006
8.033771e-006
8.584746e-006
9.389337e-006
1.055466e-005
1.224913e-005
1.474384e-005
1.848235e-005
2.419120e-005
3.302881e-005
4.669819e-005
6.721200e-005
9.536636e-005
1.255703e-004
1.323087e-004
4.220874e-005
-3.033307e-004
-1.139890e-003
-2.516013e-003
-3.243701e-003
7.287362e-005
5.536710e-003
3.741131e-003
-1.054060e-003
-1.697415e-003
-6.962944e-004
-8.597315e-005
7.846402e-005
6.814042e-005
3.049297e-005
6.741333e-006
-2.481496e-006
-4.162969e-006
-3.313281e-006
-2.210401e-006
-1.585403e-006
-2.182459e-007
-3.328083e-007
-6.081923e-007
-1.141111e-006
-2.071442e-006
-3.513245e-006
-5.301405e-006
-6.335438e-006
-3.352983e-006
1.027384e-005
4.244454e-005
8.739379e-005
8.040050e-005
-1.790455e-004
-1.006572e-003
-2.180165e-003
-1.018612e-003