# vtk DataFile Version 3.0
vtk output
ASCII
DATASET STRUCTURED_POINTS
DIMENSIONS 100 100 1
SPACING 1 1 1
ORIGIN 0 0 0
POINT_DATA 10000
SCALARS SFBox_profile double
LOOKUP_TABLE default 
0.000000e+000
0.000000e+000
0.000000e+000
0.000000e+000
0.000000e+000
0.000000e+000
0.000000e+000
0.000000e+000
0.000000e+000
0.000000e+000
0.000000e+000
0.000000e+000
0.000000e+000
0.000000e+000
0.000000e+000
0.000000e+000
0.000000e+000
0.000000e+000
0.000000e+000
0.000000e+000
0.000000e+000
0.000000e+000
0.000000e+000
0.000000e+000
0.000000e+000
0.000000e+000
0.000000e+000
0.000000e+000
0.000000e+000
0.000000e+000
0.000000e+000
0.000000e+000
0.000000e+000
0.000000e+000
0.000000e+000
0.000000e+000
0.000000e+000
0.000000e+000
0.000000e+000
0.000000e+000
0.000000e+000
0.000000e+000
0.000000e+000
0.000000e+000
0.000000e+000
0.000000e+000
0.000000e+000
0.000000e+000
0.000000e+000
0.000000e+000
0.000000e+000
0.000000e+000
0.000000e+000
0.000000e+000
0.000000e+000
0.000000e+000
0.000000e+000
0.000000e+000
0.000000e+000
0.000000e+000
0.000000e+000
0.000000e+000
0.000000e+000
0.000000e+000
0.000000e+000
0.000000e+000
0.000000e+000
0.000000e+000
0.000000e+000
0.000000e+000
0.000000e+000
0.000000e+000
0.000000e+000
0.000000e+000
0.000000e+000
0.000000e+000
0.000000e+000
0.000000e+000
0.000000e+000
0.000000e+000
0.000000e+000
0.000000e+000
0.000000e+000
0.000000e+000
0.000000e+000
0.000000e+000
0.000000e+000
0.000000e+000
0.000000e+000
0.000000e+000
0.000000e+000
0.000000e+000
0.000000e+000
0.000000e+000
0.000000e+000
0.000000e+000
0.000000e+000
0.000000e+000
0.000000e+000
0.000000e+000
-2.766013e-008
-2.448155e-008
-1.855607e-008
-1.074598e-008
-2.297100e-009
5.312064e-009
1.065059e-008
1.270187e-008
1.120361e-008
6.815982e-009
1.006611e-009
-4.360485e-009
-7.618876e-009
-7.866001e-009
-5.274520e-009
-1.005608e-009
3.260812e-009
5.998035e-009
6.429526e-009
4.797590e-009
2.191154e-009
1.648156e-011
-6.444999e-010
5.039789e-010
2.891894e-009
5.404186e-009
6.931720e-009
6.881425e-009
5.408350e-009
3.279483e-009
1.462133e-009
6.557203e-010
9.956815e-010
2.054457e-009
3.107915e-009
3.509077e-009
2.975954e-009
1.665589e-009
2.843875e-011
-1.452759e-009
-2.492628e-009
-3.092461e-009
-3.469102e-009
-3.889260e-009
-4.513144e-009
-5.328229e-009
-6.191211e-009
-6.934049e-009
-7.462336e-009
-7.791188e-009
-8.008766e-009
-8.200899e-009
-8.387628e-009
-8.507985e-009
-8.456180e-009
-8.142306e-009
-7.540379e-009
-6.698710e-009
-5.712019e-009
-4.675690e-009
-3.649092e-009
-2.645793e-009
-1.651160e-009
-6.531584e-010
3.327069e-010
1.257369e-009
2.052417e-009
2.655308e-009
3.032076e-009
3.187150e-009
3.157542e-009
2.996365e-009
2.754667e-009
2.469703e-009
2.163038e-009
1.846463e-009
1.530156e-009
1.227562e-009
9.544563e-010
7.237074e-010
5.398929e-010
3.978133e-010
2.862350e-010
1.947135e-010
1.192521e-010
6.315553e-011
3.240214e-011
2.838808e-011
4.279201e-011
5.834263e-011
5.590508e-011
2.443384e-011
-3.174566e-011
-9.288329e-011
-1.319097e-010
-1.272581e-010
-7.420185e-011
1.110557e-011
9.730801e-011
1.509382e-010
-1.693560e-008
-1.521843e-008
-1.193735e-008
-7.446472e-009
-2.348592e-009
2.524602e-009
6.247359e-009
8.041554e-009
7.551189e-009
5.033438e-009
1.358632e-009
-2.223297e-009
-4.493107e-009
-4.702486e-009
-2.862749e-009
2.536794e-010
3.419962e-009
5.454331e-009
5.702839e-009
4.293177e-009
2.044413e-009
7.306097e-011
-7.229148e-010
-6.336548e-011
1.613390e-009
3.385961e-009
4.297788e-009
3.796402e-009
1.956279e-009
-6.076134e-010
-3.072958e-009
-4.811210e-009
-5.657862e-009
-5.933408e-009
-6.229959e-009
-7.092877e-009
-8.765387e-009
-1.111376e-008
-1.374596e-008
-1.623729e-008
-1.833389e-008
-2.003444e-008
-2.152803e-008
-2.304478e-008
-2.471268e-008
-2.649610e-008
-2.823476e-008
-2.974408e-008
-3.091011e-008
-3.172652e-008
-3.226217e-008
-3.258962e-008
-3.272271e-008
-3.259890e-008
-3.211147e-008
-3.116743e-008
-2.973580e-008
-2.786159e-008
-2.564324e-008
-2.319147e-008
-2.059437e-008
-1.790581e-008
-1.515845e-008
-1.238898e-008
-9.658493e-009
-7.056052e-009
-4.684182e-009
-2.634544e-009
-9.658291e-010
3.067007e-010
1.207402e-009
1.786226e-009
2.102139e-009
2.210935e-009
2.160626e-009
1.993099e-009
1.747890e-009
1.463847e-009
1.176828e-009
9.146856e-010
6.928564e-010
5.137075e-010
3.705701e-010
2.545650e-010
1.605789e-010
8.920991e-011
4.390200e-011
2.540573e-011
2.738654e-011
3.639210e-011
3.680914e-011
1.837051e-011
-1.799335e-011
-5.955981e-011
-8.739333e-011
-8.567285e-011
-5.019635e-011
8.322329e-012
6.806186e-011
1.054055e-010
3.454468e-010
-2.173402e-010
-1.080098e-009
-1.828934e-009
-2.077389e-009
-1.638196e-009
-6.142333e-010
6.353490e-010
1.646379e-009
2.057603e-009
1.783235e-009
1.066144e-009
3.767770e-010
1.943415e-010
7.678210e-010
1.972962e-009
3.343064e-009
4.270060e-009
4.286013e-009
3.288457e-009
1.593604e-009
-2.166867e-010
-1.584611e-009
-2.261036e-009
-2.442177e-009
-2.688185e-009
-3.663627e-009
-5.829992e-009
-9.242943e-009
-1.355063e-008
-1.818459e-008
-2.263791e-008
-2.668709e-008
-3.045207e-008
-3.427919e-008
-3.852380e-008
-4.335385e-008
-4.867311e-008
-5.418965e-008
-5.957635e-008
-6.462705e-008
-6.932557e-008
-7.380163e-008
-7.821185e-008
-8.262041e-008
-8.694458e-008
-9.098619e-008
-9.452004e-008
-9.738235e-008
-9.951064e-008
-1.009207e-007
-1.016442e-007
-1.016692e-007
-1.009194e-007
-9.927841e-008
-9.664295e-008
-9.297138e-008
-8.830482e-008
-8.275519e-008
-7.647331e-008
-6.961798e-008
-6.234127e-008
-5.479276e-008
-4.713354e-008
-3.954656e-008
-3.223375e-008
-2.539880e-008
-1.922207e-008
-1.383746e-008
-9.318853e-009
-5.678933e-009
-2.878117e-009
-8.386050e-010
5.413421e-010
1.375782e-009
1.782560e-009
1.876672e-009
1.764157e-009
1.536023e-009
1.263084e-009
9.932629e-010
7.526566e-010
5.503665e-010
3.855364e-010
2.540985e-010
1.529653e-010
8.077339e-011
3.603244e-011
1.472859e-011
9.416423e-012
1.068559e-011
1.030464e-011
4.258265e-012
-6.101414e-012
-1.552391e-011
-1.822891e-011
-1.141323e-011
2.927094e-012
1.877501e-011
2.902678e-011
1.746230e-008
1.480835e-008
1.010014e-008
4.395667e-009
-1.044579e-009
-5.072852e-009
-6.949634e-009
-6.532020e-009
-4.287951e-009
-1.120600e-009
1.944405e-009
4.098551e-009
4.989025e-009
4.765561e-009
3.924979e-009
3.030899e-009
2.439738e-009
2.155415e-009
1.867495e-009
1.134882e-009
-3.925373e-010
-2.832878e-009
-6.078429e-009
-9.930756e-009
-1.427625e-008
-1.919619e-008
-2.494841e-008
-3.183420e-008
-4.002965e-008
-4.947815e-008
-5.990234e-008
-7.092425e-008
-8.222273e-008
-9.364142e-008
-1.051943e-007
-1.169777e-007
-1.290492e-007
-1.413460e-007
-1.536877e-007
-1.658507e-007
-1.776650e-007
-1.890691e-007
-2.000929e-007
-2.107794e-007
-2.210955e-007
-2.308825e-007
-2.398737e-007
-2.477633e-007
-2.542860e-007
-2.592632e-007
-2.625962e-007
-2.642199e-007
-2.640511e-007
-2.619643e-007
-2.578076e-007
-2.514486e-007
-2.428240e-007
-2.319716e-007
-2.190343e-007
-2.042429e-007
-1.878925e-007
-1.703250e-007
-1.519218e-007
-1.331011e-007
-1.143112e-007
-9.601500e-008
-7.866203e-008
-6.265621e-008
-4.832406e-008
-3.589079e-008
-2.546769e-008
-1.705172e-008
-1.053640e-008
-5.731853e-009
-2.390979e-009
-2.381655e-010
1.003505e-009
1.589925e-009
1.740675e-009
1.631228e-009
1.391701e-009
1.110408e-009
8.404577e-010
6.079146e-010
4.203985e-010
2.751447e-010
1.656041e-010
8.581483e-011
3.216520e-011
2.807618e-012
-4.367870e-012
6.141374e-012
2.651450e-011
4.658183e-011
5.652870e-011
5.025167e-011
2.783502e-011
-4.149667e-012
-3.493095e-011
-5.365078e-011
2.776298e-008
2.414234e-008
1.756619e-008
9.269068e-009
8.499800e-010
-6.043382e-009
-1.009918e-008
-1.069736e-008
-8.108964e-009
-3.435977e-009
1.725809e-009
5.803801e-009
7.758597e-009
7.384817e-009
5.277508e-009
2.479253e-009
-3.686153e-011
-1.821694e-009
-3.148646e-009
-4.886351e-009
-8.127559e-009
-1.376241e-008
-2.219389e-008
-3.330652e-008
-4.666608e-008
-6.181851e-008
-7.852426e-008
-9.681983e-008
-1.169019e-007
-1.389233e-007
-1.628251e-007
-1.882903e-007
-2.148313e-007
-2.419447e-007
-2.692458e-007
-2.965173e-007
-3.236663e-007
-3.506353e-007
-3.773281e-007
-4.035914e-007
-4.292460e-007
-4.541326e-007
-4.781277e-007
-5.011140e-007
-5.229211e-007
-5.432768e-007
-5.618000e-007
-5.780441e-007
-5.915648e-007
-6.019768e-007
-6.089717e-007
-6.122967e-007
-6.117164e-007
-6.069878e-007
-5.978677e-007
-5.841508e-007
-5.657221e-007
-5.426035e-007
-5.149805e-007
-4.832071e-007
-4.477973e-007
-4.094089e-007
-3.688254e-007
-3.269347e-007
-2.846997e-007
-2.431183e-007
-2.031734e-007
-1.657755e-007
-1.317042e-007
-1.015553e-007
-7.570016e-008
-5.426470e-008
-3.713340e-008
-2.397965e-008
-1.431883e-008
-7.574583e-009
-3.145808e-009
-4.625516e-010
9.762077e-010
1.583949e-009
1.683173e-009
1.511151e-009
1.229887e-009
9.378913e-010
6.835287e-010
4.801353e-010
3.219762e-010
1.984881e-010
1.036529e-010
3.851113e-011
7.364996e-012
1.088905e-011
4.065226e-011
7.867423e-011
1.028947e-010
9.618800e-011
5.443219e-011
-1.067254e-011
-7.591468e-011
-1.163874e-010
2.728640e-008
2.428249e-008
1.865800e-008
1.121303e-008
3.158396e-009
-4.023182e-009
-8.889136e-009
-1.045963e-008
-8.592243e-009
-4.123609e-009
1.335578e-009
5.918432e-009
8.143893e-009
7.412777e-009
4.130851e-009
-6.102177e-010
-5.661180e-009
-1.047222e-008
-1.548052e-008
-2.205504e-008
-3.203267e-008
-4.706757e-008
-6.809150e-008
-9.511249e-008
-1.274044e-007
-1.639517e-007
-2.039095e-007
-2.468597e-007
-2.927754e-007
-3.417609e-007
-3.937408e-007
-4.482716e-007
-5.045617e-007
-5.616664e-007
-6.187355e-007
-6.751854e-007
-7.307240e-007
-7.852477e-007
-8.386880e-007
-8.908982e-007
-9.416235e-007
-9.905420e-007
-1.037321e-006
-1.081637e-006
-1.123150e-006
-1.161438e-006
-1.195965e-006
-1.226085e-006
-1.251097e-006
-1.270315e-006
-1.283120e-006
-1.288968e-006
-1.287372e-006
-1.277875e-006
-1.260054e-006
-1.233544e-006
-1.198097e-006
-1.153645e-006
-1.100361e-006
-1.038700e-006
-9.694160e-007
-8.935664e-007
-8.124987e-007
-7.278189e-007
-6.413434e-007
-5.550302e-007
-4.708888e-007
-3.908705e-007
-3.167453e-007
-2.499764e-007
-1.916084e-007
-1.421907e-007
-1.017529e-007
-6.984219e-008
-4.561886e-008
-2.798868e-008
-1.574640e-008
-7.702313e-009
-2.774007e-009
-3.851915e-011
1.249039e-009
1.658812e-009
1.601022e-009
1.346450e-009
1.051195e-009
7.857737e-010
5.669895e-010
3.880417e-010
2.409119e-010
1.266604e-010
5.353232e-011
2.757220e-011
4.317463e-011
8.014180e-011
1.097063e-010
1.067574e-010
6.188001e-011
-1.337058e-011
-9.116125e-011
-1.401388e-010
1.635086e-008
1.532987e-008
1.312461e-008
9.620190e-009
5.038360e-009
1.056161e-010
-4.046681e-009
-6.259985e-009
-5.855115e-009
-3.024703e-009
1.104029e-009
4.805828e-009
6.365097e-009
4.676678e-009
-4.569417e-010
-8.495855e-009
-1.873844e-008
-3.103300e-008
-4.627456e-008
-6.642817e-008
-9.404337e-008
-1.314686e-007
-1.801157e-007
-2.400914e-007
-3.103304e-007
-3.891192e-007
-4.747344e-007
-5.658908e-007
-6.618319e-007
-7.620894e-007
-8.661044e-007
-9.729463e-007
-1.081281e-006
-1.189584e-006
-1.296471e-006
-1.400953e-006
-1.502509e-006
-1.600954e-006
-1.696208e-006
-1.788093e-006
-1.876244e-006
-1.960159e-006
-2.039299e-006
-2.113162e-006
-2.181284e-006
-2.243161e-006
-2.298170e-006
-2.345533e-006
-2.384349e-006
-2.413679e-006
-2.432620e-006
-2.440353e-006
-2.436129e-006
-2.419242e-006
-2.389005e-006
-2.344763e-006
-2.285940e-006
-2.212131e-006
-2.123190e-006
-2.019337e-006
-1.901233e-006
-1.770048e-006
-1.627501e-006
-1.475876e-006
-1.318000e-006
-1.157181e-006
-9.970806e-007
-8.415328e-007
-6.942939e-007
-5.587548e-007
-4.376500e-007
-3.328163e-007
-2.450529e-007
-1.741180e-007
-1.188612e-007
-7.746158e-008
-4.771454e-008
-2.730729e-008
-1.403889e-008
-5.964378e-009
-1.466989e-009
7.241939e-010
1.551054e-009
1.663191e-009
1.466867e-009
1.182114e-009
9.034065e-010
6.565365e-010
4.429922e-010
2.655009e-010
1.341306e-010
5.887893e-011
3.863783e-011
5.577449e-011
8.072847e-011
8.453064e-011
5.237962e-011
-9.298692e-012
-7.639207e-011
-1.196196e-010
-5.519345e-010
9.730868e-010
3.261979e-009
5.163353e-009
5.701616e-009
4.566514e-009
2.284115e-009
-2.779465e-011
-1.220638e-009
-7.373064e-010
9.961400e-010
2.594651e-009
2.135414e-009
-2.245149e-009
-1.189500e-008
-2.757854e-008
-4.984000e-008
-7.960163e-008
-1.186539e-007
-1.697244e-007
-2.360119e-007
-3.203400e-007
-4.242849e-007
-5.476554e-007
-6.885418e-007
-8.438791e-007
-1.010247e-006
-1.184545e-006
-1.364300e-006
-1.547554e-006
-1.732523e-006
-1.917283e-006
-2.099691e-006
-2.277577e-006
-2.449079e-006
-2.612930e-006
-2.768522e-006
-2.915732e-006
-3.054611e-006
-3.185097e-006
-3.306892e-006
-3.419522e-006
-3.522507e-006
-3.615500e-006
-3.698318e-006
-3.770851e-006
-3.832927e-006
-3.884217e-006
-3.924232e-006
-3.952392e-006
-3.968109e-006
-3.970827e-006
-3.959991e-006
-3.934962e-006
-3.894934e-006
-3.838871e-006
-3.765519e-006
-3.673475e-006
-3.561311e-006
-3.427752e-006
-3.271872e-006
-3.093317e-006
-2.892535e-006
-2.671003e-006
-2.431418e-006
-2.177816e-006
-1.915551e-006
-1.651105e-006
-1.391681e-006
-1.144610e-006
-9.166388e-007
-7.132284e-007
-5.380024e-007
-3.924716e-007
-2.760844e-007
-1.865699e-007
-1.204695e-007
-7.372209e-008
-4.218512e-008
-2.202074e-008
-9.928645e-009
-3.246532e-009
4.574858e-011
1.383467e-009
1.709693e-009
1.585552e-009
1.304006e-009
9.939402e-010
7.026156e-010
4.489639e-010
2.475385e-010
1.106324e-010
4.066484e-011
2.442553e-011
3.564710e-011
4.544257e-011
3.482922e-011
2.279348e-012
-3.785511e-011
-6.505790e-011
-1.655639e-008
-1.297292e-008
-6.956301e-009
-3.737931e-010
4.887928e-009
7.607707e-009
7.623160e-009
5.763099e-009
3.335485e-009
1.374527e-009
-4.420532e-011
-2.143621e-009
-7.325003e-009
-1.869214e-008
-3.948972e-008
-7.274841e-008
-1.212889e-007
-1.880056e-007
-2.761557e-007
-3.893361e-007
-5.309780e-007
-7.034530e-007
-9.071273e-007
-1.139779e-006
-1.396664e-006
-1.671233e-006
-1.956231e-006
-2.244755e-006
-2.530932e-006
-2.810076e-006
-3.078467e-006
-3.333006e-006
-3.571017e-006
-3.790290e-006
-3.989286e-006
-4.167317e-006
-4.324529e-006
-4.461658e-006
-4.579640e-006
-4.679279e-006
-4.761130e-006
-4.825628e-006
-4.873365e-006
-4.905341e-006
-4.923057e-006
-4.928407e-006
-4.923476e-006
-4.910352e-006
-4.891036e-006
-4.867439e-006
-4.841399e-006
-4.814619e-006
-4.788511e-006
-4.763949e-006
-4.740980e-006
-4.718566e-006
-4.694404e-006
-4.664856e-006
-4.625010e-006
-4.568886e-006
-4.489781e-006
-4.380782e-006
-4.235435e-006
-4.048561e-006
-3.817146e-006
-3.541210e-006
-3.224463e-006
-2.874577e-006
-2.502888e-006
-2.123454e-006
-1.751542e-006
-1.401788e-006
-1.086405e-006
-8.138318e-007
-5.881009e-007
-4.090054e-007
-2.729156e-007
-1.739519e-007
-1.051955e-007
-5.969710e-008
-3.117015e-008
-1.436674e-008
-5.198696e-009
-6.847967e-010
1.203698e-009
1.744332e-009
1.672230e-009
1.368595e-009
1.010772e-009
6.755908e-010
3.978751e-010
1.946073e-010
6.960697e-011
1.268156e-011
1.958564e-012
1.136724e-011
2.003657e-011
1.867222e-011
9.726400e-012
1.787564e-012
-2.521314e-008
-2.091838e-008
-1.346042e-008
-4.759672e-009
3.060153e-009
8.316135e-009
1.024082e-008
9.086840e-009
5.772596e-009
1.150623e-009
-4.858242e-009
-1.394995e-008
-2.969267e-008
-5.728599e-008
-1.029656e-007
-1.733165e-007
-2.747205e-007
-4.129932e-007
-5.930694e-007
-8.185146e-007
-1.090738e-006
-1.408027e-006
-1.764741e-006
-2.151098e-006
-2.553811e-006
-2.957547e-006
-3.346822e-006
-3.707805e-006
-4.029550e-006
-4.304434e-006
-4.527900e-006
-4.697829e-006
-4.813880e-006
-4.877031e-006
-4.889329e-006
-4.853748e-006
-4.773964e-006
-4.654025e-006
-4.497959e-006
-4.309513e-006
-4.092180e-006
-3.849529e-006
-3.585724e-006
-3.305983e-006
-3.016779e-006
-2.725735e-006
-2.441316e-006
-2.172475e-006
-1.928395e-006
-1.718300e-006
-1.551268e-006
-1.435926e-006
-1.379992e-006
-1.389651e-006
-1.468845e-006
-1.618535e-006
-1.836022e-006
-2.114397e-006
-2.442194e-006
-2.803313e-006
-3.177285e-006
-3.540004e-006
-3.865001e-006
-4.125342e-006
-4.296121e-006
-4.357344e-006
-4.296845e-006
-4.112686e-006
-3.814405e-006
-3.422603e-006
-2.966626e-006
-2.480598e-006
-1.998584e-006
-1.549933e-006
-1.155886e-006
-8.280983e-007
-5.691432e-007
-3.744813e-007
-2.350994e-007
-1.400530e-007
-7.843319e-008
-4.059819e-008
-1.874878e-008
-7.026258e-009
-1.320877e-009
1.059412e-009
1.755167e-009
1.691149e-009
1.346699e-009
9.494076e-010
5.976637e-010
3.280662e-010
1.472614e-010
4.559150e-011
4.205590e-012
9.539104e-013
1.577202e-011
3.429127e-011
4.869433e-011
5.612916e-011
-2.312182e-008
-1.978014e-008
-1.374816e-008
-6.240453e-009
1.172163e-009
6.893243e-009
9.670937e-009
8.826969e-009
4.141117e-009
-4.711205e-009
-1.907393e-008
-4.228812e-008
-8.035911e-008
-1.420197e-007
-2.380969e-007
-3.802933e-007
-5.795981e-007
-8.445161e-007
-1.179244e-006
-1.581923e-006
-2.043220e-006
-2.545612e-006
-3.063806e-006
-3.566509e-006
-4.019447e-006
-4.389122e-006
-4.646524e-006
-4.770017e-006
-4.746822e-006
-4.572985e-006
-4.252080e-006
-3.793228e-006
-3.209002e-006
-2.513663e-006
-1.721916e-006
-8.481415e-007
9.404630e-008
1.092053e-006
2.134399e-006
3.210578e-006
4.310573e-006
5.424043e-006
6.539360e-006
7.642808e-006
8.718203e-006
9.747028e-006
1.070892e-005
1.158225e-005
1.234466e-005
1.297348e-005
1.344616e-005
1.374086e-005
1.383726e-005
1.371754e-005
1.336771e-005
1.277898e-005
1.194935e-005
1.088519e-005
9.602859e-006
8.130091e-006
6.507051e-006
4.786629e-006
3.033574e-006
1.321955e-006
-2.693759e-007
-1.663365e-006
-2.792895e-006
-3.609426e-006
-4.090477e-006
-4.244061e-006
-4.108423e-006
-3.746439e-006
-3.235460e-006
-2.654865e-006
-2.074334e-006
-1.545632e-006
-1.099405e-006
-7.467641e-007
-4.840788e-007
-2.988460e-007
-1.749317e-007
-9.629110e-008
-4.906488e-008
-2.239032e-008
-8.388965e-009
-1.726341e-009
9.791900e-010
1.732512e-009
1.640020e-009
1.263953e-009
8.608509e-010
5.286509e-010
2.904168e-010
1.384398e-010
5.540877e-011
2.300629e-011
2.418770e-011
4.315936e-011
6.558385e-011
8.000746e-011
-1.128870e-008
-1.022022e-008
-7.915362e-009
-4.324543e-009
1.102749e-010
4.251942e-009
6.359064e-009
4.353821e-009
-4.045539e-009
-2.164652e-008
-5.266511e-008
-1.039428e-007
-1.859867e-007
-3.132206e-007
-5.029491e-007
-7.727924e-007
-1.136667e-006
-1.599753e-006
-2.153319e-006
-2.770662e-006
-3.405586e-006
-3.994429e-006
-4.461811e-006
-4.729185e-006
-4.724440e-006
-4.390568e-006
-3.691733e-006
-2.615822e-006
-1.173445e-006
6.059089e-007
2.679421e-006
4.996971e-006
7.506603e-006
1.015871e-005
1.290866e-005
1.571789e-005
1.855395e-005
2.138972e-005
2.420235e-005
2.697206e-005
2.968073e-005
3.231045e-005
3.484204e-005
3.725403e-005
3.952229e-005
4.162030e-005
4.351992e-005
4.519217e-005
4.660773e-005
4.773711e-005
4.855068e-005
4.901856e-005
4.911074e-005
4.879729e-005
4.804891e-005
4.683805e-005
4.514071e-005
4.293920e-005
4.022614e-005
3.700965e-005
3.331944e-005
2.921332e-005
2.478253e-005
2.015431e-005
1.548976e-005
1.097531e-005
6.807188e-006
3.169785e-006
2.108507e-007
-1.981301e-006
-3.392727e-006
-4.085972e-006
-4.187478e-006
-3.862727e-006
-3.285580e-006
-2.610061e-006
-1.951528e-006
-1.380354e-006
-9.266122e-007
-5.912023e-007
-3.582987e-007
-2.055672e-007
-1.107969e-007
-5.523847e-008
-2.464520e-008
-9.022919e-009
-1.823309e-009
9.775501e-010
1.694723e-009
1.563966e-009
1.183949e-009
8.049332e-010
5.054971e-010
2.930498e-010
1.544151e-010
7.527401e-011
4.276298e-011
4.242201e-011
5.696224e-011
6.951613e-011
5.382534e-009
3.707553e-009
1.420395e-009
-4.586741e-011
9.178347e-011
1.127363e-009
5.524097e-010
-5.765988e-009
-2.331281e-008
-5.907444e-008
-1.223995e-007
-2.263679e-007
-3.889099e-007
-6.325192e-007
-9.813144e-007
-1.454535e-006
-2.056461e-006
-2.764244e-006
-3.516955e-006
-4.210230e-006
-4.700361e-006
-4.819035e-006
-4.396271e-006
-3.286158e-006
-1.389095e-006
1.334442e-006
4.860776e-006
9.109772e-006
1.395857e-005
1.925869e-005
2.485301e-005
3.059039e-005
3.633620e-005
4.197848e-005
4.742985e-005
5.262577e-005
5.752075e-005
6.208361e-005
6.629334e-005
7.013597e-005
7.360268e-005
7.668873e-005
7.939310e-005
8.171849e-005
8.367210e-005
8.526659e-005
8.652100e-005
8.746090e-005
8.811716e-005
8.852350e-005
8.871287e-005
8.871290e-005
8.854048e-005
8.819580e-005
8.765627e-005
8.687107e-005
8.575768e-005
8.420164e-005
8.206134e-005
7.917928e-005
7.540078e-005
7.059977e-005
6.470932e-005
5.775264e-005
4.986812e-005
4.132091e-005
3.249329e-005
2.384921e-005
1.587427e-005
9.001105e-006
3.537279e-006
-3.843777e-007
-2.819035e-006
-3.982735e-006
-4.192979e-006
-3.795555e-006
-3.099285e-006
-2.334976e-006
-1.643906e-006
-1.089955e-006
-6.835033e-007
-4.058482e-007
-2.276186e-007
-1.196883e-007
-5.807443e-008
-2.511561e-008
-8.823740e-009
-1.600126e-009
1.068587e-009
1.682820e-009
1.515504e-009
1.143651e-009
7.855583e-010
4.997913e-010
2.899699e-010
1.488063e-010
6.800264e-011
3.508842e-011
3.133181e-011
3.623131e-011
2.024286e-008
1.635257e-008
1.028326e-008
4.431216e-009
3.036452e-010
-2.916903e-009
-9.162823e-009
-2.558328e-008
-6.238802e-008
-1.330467e-007
-2.551724e-007
-4.516891e-007
-7.509006e-007
-1.183173e-006
-1.771580e-006
-2.514777e-006
-3.363298e-006
-4.195155e-006
-4.801136e-006
-4.890912e-006
-4.125917e-006
-2.175151e-006
1.219581e-006
6.186847e-006
1.269267e-005
2.053877e-005
2.938993e-005
3.882171e-005
4.837582e-005
5.761122e-005
6.614313e-005
7.366671e-005
7.996624e-005
8.491202e-005
8.844818e-005
9.057497e-005
9.132990e-005
9.077157e-005
8.896932e-005
8.599972e-005
8.194883e-005
7.691808e-005
7.103115e-005
6.444030e-005
5.733111e-005
4.992499e-005
4.247893e-005
3.528174e-005
2.864644e-005
2.289922e-005
1.836519e-005
1.535109e-005
1.412462e-005
1.489036e-005
1.776253e-005
2.273630e-005
2.966004e-005
3.821253e-005
4.789032e-005
5.801192e-005
6.774543e-005
7.616518e-005
8.233951e-005
8.544694e-005
8.490912e-005
8.051837e-005
7.252625e-005
6.165679e-005
4.902059e-005
3.593482e-005
2.368648e-005
1.330078e-005
5.381254e-006
6.236262e-008
-2.925889e-006
-4.113166e-006
-4.116402e-006
-3.493768e-006
-2.659148e-006
-1.862581e-006
-1.217815e-006
-7.490788e-007
-4.347705e-007
-2.377187e-007
-1.215355e-007
-5.712310e-008
-2.375744e-008
-7.850805e-009
-1.095011e-009
1.255695e-009
1.714630e-009
1.493764e-009
1.108650e-009
7.432960e-010
4.489663e-010
2.352905e-010
9.969218e-011
3.036096e-011
5.980443e-012
2.045625e-012
2.772945e-008
2.289276e-008
1.504743e-008
6.649969e-009
-1.119309e-009
-1.024644e-008
-2.720511e-008
-6.361103e-008
-1.365726e-007
-2.692188e-007
-4.913854e-007
-8.392191e-007
-1.350678e-006
-2.052220e-006
-2.931941e-006
-3.898349e-006
-4.733181e-006
-5.058472e-006
-4.344525e-006
-1.978442e-006
2.608747e-006
9.784537e-006
1.957232e-005
3.156888e-005
4.494855e-005
5.855722e-005
7.107307e-005
8.118976e-005
8.777752e-005
8.999238e-005
8.732318e-005
7.958357e-005
6.686542e-005
4.947079e-005
2.783676e-005
2.464088e-006
-2.614062e-005
-5.750159e-005
-9.118617e-005
-1.267944e-004
-1.639335e-004
-2.021852e-004
-2.410773e-004
-2.800616e-004
-3.185025e-004
-3.556757e-004
-3.907748e-004
-4.229253e-004
-4.512049e-004
-4.746662e-004
-4.923628e-004
-5.033782e-004
-5.068600e-004
-5.020620e-004
-4.883976e-004
-4.655048e-004
-4.333253e-004
-3.921925e-004
-3.429233e-004
-2.869003e-004
-2.261241e-004
-1.632104e-004
-1.013007e-004
-4.385621e-005
5.685692e-006
4.437983e-005
7.029745e-005
8.296859e-005
8.356895e-005
7.472809e-005
5.997712e-005
4.300073e-005
2.691648e-005
1.379019e-005
4.505779e-006
-1.052790e-006
-3.638092e-006
-4.239497e-006
-3.769666e-006
-2.896537e-006
-2.013316e-006
-1.294501e-006
-7.789649e-007
-4.408138e-007
-2.343437e-007
-1.161152e-007
-5.261624e-008
-2.084604e-008
-6.282750e-009
-3.914699e-010
1.498120e-009
1.745502e-009
1.434161e-009
1.007384e-009
6.241440e-010
3.334167e-010
1.432995e-010
4.103210e-011
-7.835415e-014
-1.048198e-011
2.560079e-008
2.127487e-008
1.385978e-008
4.657468e-009
-6.924123e-009
-2.555148e-008
-6.190912e-008
-1.342590e-007
-2.697102e-007
-5.050644e-007
-8.859579e-007
-1.460651e-006
-2.261568e-006
-3.265673e-006
-4.328536e-006
-5.101651e-006
-4.967284e-006
-3.046555e-006
1.666336e-006
1.002987e-005
2.238875e-005
3.821871e-005
5.590672e-005
7.276824e-005
8.535156e-005
8.996495e-005
8.327533e-005
6.282238e-005
2.732275e-005
-2.328704e-005
-8.802608e-005
-1.651639e-004
-2.525377e-004
-3.478319e-004
-4.487964e-004
-5.533951e-004
-6.598863e-004
-7.668374e-004
-8.730840e-004
-9.776532e-004
-1.079674e-003
-1.178300e-003
-1.272657e-003
-1.361825e-003
-1.444850e-003
-1.520770e-003
-1.588645e-003
-1.647588e-003
-1.696780e-003
-1.735461e-003
-1.762903e-003
-1.778365e-003
-1.781025e-003
-1.769921e-003
-1.743893e-003
-1.701571e-003
-1.641415e-003
-1.561856e-003
-1.461561e-003
-1.339833e-003
-1.197133e-003
-1.035653e-003
-8.598072e-004
-6.764565e-004
-4.946700e-004
-3.248696e-004
-1.773705e-004
-6.053265e-005
2.104205e-005
6.765947e-005
8.442885e-005
7.974886e-005
6.301390e-005
4.246474e-005
2.381082e-005
9.910205e-006
1.294386e-006
-2.935176e-006
-4.222890e-006
-3.929874e-006
-3.031635e-006
-2.080713e-006
-1.310478e-006
-7.690730e-007
-4.231983e-007
-2.181496e-007
-1.043942e-007
-4.533614e-008
-1.686797e-008
-4.376678e-009
3.743389e-010
1.701148e-009
1.692756e-009
1.274220e-009
8.165489e-010
4.508628e-010
2.091863e-010
7.897131e-011
2.600378e-011
1.199513e-011
1.557849e-008
1.277387e-008
7.058180e-009
-2.745432e-009
-2.066991e-008
-5.598502e-008
-1.259333e-007
-2.585477e-007
-4.949434e-007
-8.892978e-007
-1.501939e-006
-2.376183e-006
-3.484663e-006
-4.632599e-006
-5.324982e-006
-4.648208e-006
-1.268879e-006
6.327147e-006
1.928500e-005
3.757298e-005
5.912320e-005
7.924044e-005
9.065088e-005
8.444159e-005
5.171146e-005
-1.451668e-005
-1.177288e-004
-2.572723e-004
-4.287211e-004
-6.248965e-004
-8.371042e-004
-1.056285e-003
-1.273928e-003
-1.482699e-003
-1.676779e-003
-1.851942e-003
-2.005406e-003
-2.135564e-003
-2.241668e-003
-2.323577e-003
-2.381610e-003
-2.416507e-003
-2.429482e-003
-2.422311e-003
-2.397406e-003
-2.357842e-003
-2.307306e-003
-2.249987e-003
-2.190417e-003
-2.133264e-003
-2.083102e-003
-2.044156e-003
-2.020002e-003
-2.013221e-003
-2.024975e-003
-2.054505e-003
-2.098551e-003
-2.150772e-003
-2.201307e-003
-2.236740e-003
-2.240810e-003
-2.196247e-003
-2.087929e-003
-1.907102e-003
-1.655703e-003
-1.348981e-003
-1.014472e-003
-6.865594e-004
-3.983089e-004
-1.738002e-004
-2.329873e-005
5.769325e-005
8.488001e-005
7.850869e-005
5.710718e-005
3.374366e-005
1.524251e-005
3.539712e-006
-2.274765e-006
-4.162258e-006
-3.991765e-006
-3.058506e-006
-2.058314e-006
-1.263950e-006
-7.209944e-007
-3.847004e-007
-1.917002e-007
-8.820343e-008
-3.638770e-008
-1.241540e-008
-2.436760e-009
1.035047e-009
1.766832e-009
1.514694e-009
1.030342e-009
6.006504e-010
3.089928e-010
1.508427e-010
8.583286e-011
6.803333e-011
2.147583e-009
9.270359e-010
-3.654382e-009
-1.653740e-008
-4.698813e-008
-1.112361e-007
-2.362284e-007
-4.638049e-007
-8.530271e-007
-1.474997e-006
-2.388164e-006
-3.573629e-006
-4.807008e-006
-5.464129e-006
-4.322678e-006
4.753975e-007
1.105375e-005
2.880852e-005
5.277460e-005
7.768945e-005
9.250839e-005
8.055672e-005
2.223325e-005
-1.000609e-004
-2.960573e-004
-5.633639e-004
-8.865800e-004
-1.239308e-003
-1.588301e-003
-1.899152e-003
-2.142169e-003
-2.296689e-003
-2.352899e-003
-2.311210e-003
-2.179887e-003
-1.971869e-003
-1.701770e-003
-1.383750e-003
-1.030478e-003
-6.529774e-004
-2.609690e-004
1.366705e-004
5.315766e-004
9.157885e-004
1.281842e-003
1.622973e-003
1.933314e-003
2.208001e-003
2.443126e-003
2.635545e-003
2.782553e-003
2.881477e-003
2.929213e-003
2.921762e-003
2.853831e-003
2.718589e-003
2.507778e-003
2.212416e-003
1.824501e-003
1.340124e-003
7.643184e-004
1.174301e-004
-5.583926e-004
-1.195879e-003
-1.707963e-003
-2.007375e-003
-2.039738e-003
-1.815009e-003
-1.412196e-003
-9.470146e-004
-5.244926e-004
-2.086246e-004
-1.690855e-005
6.933194e-005
8.596558e-005
6.839222e-005
4.181713e-005
1.935586e-005
5.064326e-006
-1.921105e-006
-4.138770e-006
-3.968431e-006
-2.976765e-006
-1.948689e-006
-1.161014e-006
-6.415232e-007
-3.308880e-007
-1.587844e-007
-6.979461e-008
-2.697757e-008
-8.092949e-009
-7.559950e-010
1.461991e-009
1.670677e-009
1.260962e-009
7.932465e-010
4.509540e-010
2.561828e-010
1.699758e-010
1.427649e-010
-9.874592e-009
-1.063069e-008
-1.690403e-008
-3.860243e-008
-9.215360e-008
-2.036097e-007
-4.135365e-007
-7.817983e-007
-1.386230e-006
-2.301257e-006
-3.530094e-006
-4.853791e-006
-5.575410e-006