# vtk DataFile Version 3.0
vtk output
ASCII
DATASET STRUCTURED_POINTS
DIMENSIONS 100 100 1
SPACING 1 1 1
ORIGIN 0 0 0
POINT_DATA 10000
SCALARS SFBox_profile double
LOOKUP_TABLE default 
9.439899e-003
9.439905e-003
9.439916e-003
9.439925e-003
9.439929e-003
9.439927e-003
9.439922e-003
9.439917e-003
9.439915e-003
9.439915e-003
9.439918e-003
9.439920e-003
9.439922e-003
9.439922e-003
9.439923e-003
9.439923e-003
9.439922e-003
9.439921e-003
9.439919e-003
9.439917e-003
9.439916e-003
9.439916e-003
9.439918e-003
9.439920e-003
9.439921e-003
9.439922e-003
9.439923e-003
9.439923e-003
9.439924e-003
9.439924e-003
9.439923e-003
9.439922e-003
9.439921e-003
9.439921e-003
9.439920e-003
9.439920e-003
9.439920e-003
9.439919e-003
9.439919e-003
9.439920e-003
9.439920e-003
9.439920e-003
9.439920e-003
9.439920e-003
9.439921e-003
9.439921e-003
9.439921e-003
9.439921e-003
9.439921e-003
9.439920e-003
9.439920e-003
9.439920e-003
9.439920e-003
9.439920e-003
9.439920e-003
9.439920e-003
9.439920e-003
9.439920e-003
9.439921e-003
9.439921e-003
9.439922e-003
9.439922e-003
9.439923e-003
9.439923e-003
9.439923e-003
9.439923e-003
9.439922e-003
9.439921e-003
9.439920e-003
9.439919e-003
9.439918e-003
9.439917e-003
9.439918e-003
9.439919e-003
9.439920e-003
9.439921e-003
9.439921e-003
9.439922e-003
9.439922e-003
9.439921e-003
9.439920e-003
9.439919e-003
9.439918e-003
9.439918e-003
9.439919e-003
9.439921e-003
9.439922e-003
9.439921e-003
9.439921e-003
9.439920e-003
9.439919e-003
9.439919e-003
9.439919e-003
9.439920e-003
9.439920e-003
9.439921e-003
9.439921e-003
9.439920e-003
9.439920e-003
9.439919e-003
9.439899e-003
9.439905e-003
9.439916e-003
9.439925e-003
9.439929e-003
9.439927e-003
9.439922e-003
9.439917e-003
9.439915e-003
9.439915e-003
9.439918e-003
9.439920e-003
9.439922e-003
9.439922e-003
9.439923e-003
9.439923e-003
9.439922e-003
9.439921e-003
9.439919e-003
9.439917e-003
9.439916e-003
9.439916e-003
9.439918e-003
9.439920e-003
9.439921e-003
9.439922e-003
9.439923e-003
9.439923e-003
9.439924e-003
9.439924e-003
9.439923e-003
9.439922e-003
9.439921e-003
9.439921e-003
9.439920e-003
9.439920e-003
9.439920e-003
9.439919e-003
9.439919e-003
9.439920e-003
9.439920e-003
9.439920e-003
9.439920e-003
9.439920e-003
9.439921e-003
9.439921e-003
9.439921e-003
9.439921e-003
9.439921e-003
9.439920e-003
9.439920e-003
9.439920e-003
9.439920e-003
9.439920e-003
9.439920e-003
9.439920e-003
9.439920e-003
9.439920e-003
9.439921e-003
9.439921e-003
9.439922e-003
9.439922e-003
9.439923e-003
9.439923e-003
9.439923e-003
9.439923e-003
9.439922e-003
9.439921e-003
9.439920e-003
9.439919e-003
9.439918e-003
9.439917e-003
9.439918e-003
9.439919e-003
9.439920e-003
9.439921e-003
9.439921e-003
9.439922e-003
9.439922e-003
9.439921e-003
9.439920e-003
9.439919e-003
9.439918e-003
9.439918e-003
9.439919e-003
9.439921e-003
9.439922e-003
9.439921e-003
9.439921e-003
9.439920e-003
9.439919e-003
9.439919e-003
9.439919e-003
9.439920e-003
9.439920e-003
9.439921e-003
9.439921e-003
9.439920e-003
9.439920e-003
9.439919e-003
9.439916e-003
9.439918e-003
9.439920e-003
9.439921e-003
9.439921e-003
9.439921e-003
9.439920e-003
9.439919e-003
9.439919e-003
9.439920e-003
9.439921e-003
9.439921e-003
9.439921e-003
9.439920e-003
9.439919e-003
9.439919e-003
9.439919e-003
9.439920e-003
9.439920e-003
9.439920e-003
9.439921e-003
9.439921e-003
9.439921e-003
9.439921e-003
9.439921e-003
9.439920e-003
9.439920e-003
9.439919e-003
9.439920e-003
9.439920e-003
9.439920e-003
9.439921e-003
9.439921e-003
9.439922e-003
9.439923e-003
9.439924e-003
9.439924e-003
9.439925e-003
9.439925e-003
9.439926e-003
9.439926e-003
9.439927e-003
9.439927e-003
9.439927e-003
9.439927e-003
9.439927e-003
9.439927e-003
9.439927e-003
9.439927e-003
9.439927e-003
9.439926e-003
9.439926e-003
9.439926e-003
9.439925e-003
9.439925e-003
9.439924e-003
9.439924e-003
9.439923e-003
9.439922e-003
9.439922e-003
9.439921e-003
9.439920e-003
9.439920e-003
9.439920e-003
9.439920e-003
9.439920e-003
9.439920e-003
9.439920e-003
9.439921e-003
9.439921e-003
9.439921e-003
9.439921e-003
9.439921e-003
9.439920e-003
9.439920e-003
9.439920e-003
9.439919e-003
9.439920e-003
9.439920e-003
9.439920e-003
9.439920e-003
9.439920e-003
9.439920e-003
9.439920e-003
9.439920e-003
9.439920e-003
9.439920e-003
9.439920e-003
9.439920e-003
9.439920e-003
9.439920e-003
9.439920e-003
9.439920e-003
9.439920e-003
9.439920e-003
9.439920e-003
9.439920e-003
9.439920e-003
9.439920e-003
9.439920e-003
9.439937e-003
9.439932e-003
9.439924e-003
9.439916e-003
9.439913e-003
9.439914e-003
9.439918e-003
9.439922e-003
9.439924e-003
9.439924e-003
9.439923e-003
9.439921e-003
9.439919e-003
9.439917e-003
9.439916e-003
9.439916e-003
9.439917e-003
9.439920e-003
9.439922e-003
9.439924e-003
9.439925e-003
9.439924e-003
9.439923e-003
9.439922e-003
9.439920e-003
9.439919e-003
9.439918e-003
9.439917e-003
9.439917e-003
9.439918e-003
9.439920e-003
9.439921e-003
9.439923e-003
9.439925e-003
9.439926e-003
9.439928e-003
9.439929e-003
9.439930e-003
9.439931e-003
9.439932e-003
9.439932e-003
9.439933e-003
9.439933e-003
9.439933e-003
9.439933e-003
9.439933e-003
9.439933e-003
9.439933e-003
9.439933e-003
9.439933e-003
9.439932e-003
9.439932e-003
9.439932e-003
9.439931e-003
9.439930e-003
9.439929e-003
9.439928e-003
9.439927e-003
9.439925e-003
9.439923e-003
9.439922e-003
9.439920e-003
9.439919e-003
9.439918e-003
9.439918e-003
9.439918e-003
9.439919e-003
9.439920e-003
9.439921e-003
9.439922e-003
9.439923e-003
9.439923e-003
9.439923e-003
9.439922e-003
9.439921e-003
9.439919e-003
9.439918e-003
9.439918e-003
9.439918e-003
9.439919e-003
9.439920e-003
9.439921e-003
9.439922e-003
9.439922e-003
9.439921e-003
9.439919e-003
9.439918e-003
9.439919e-003
9.439919e-003
9.439920e-003
9.439921e-003
9.439921e-003
9.439920e-003
9.439920e-003
9.439919e-003
9.439920e-003
9.439920e-003
9.439920e-003
9.439920e-003
9.439920e-003
9.439944e-003
9.439936e-003
9.439924e-003
9.439914e-003
9.439910e-003
9.439913e-003
9.439918e-003
9.439924e-003
9.439926e-003
9.439924e-003
9.439921e-003
9.439919e-003
9.439918e-003
9.439918e-003
9.439918e-003
9.439918e-003
9.439919e-003
9.439920e-003
9.439921e-003
9.439923e-003
9.439923e-003
9.439923e-003
9.439921e-003
9.439920e-003
9.439920e-003
9.439920e-003
9.439921e-003
9.439921e-003
9.439922e-003
9.439923e-003
9.439924e-003
9.439926e-003
9.439927e-003
9.439929e-003
9.439930e-003
9.439931e-003
9.439932e-003
9.439933e-003
9.439934e-003
9.439934e-003
9.439935e-003
9.439935e-003
9.439936e-003
9.439936e-003
9.439936e-003
9.439936e-003
9.439936e-003
9.439936e-003
9.439936e-003
9.439935e-003
9.439935e-003
9.439934e-003
9.439934e-003
9.439933e-003
9.439933e-003
9.439932e-003
9.439931e-003
9.439930e-003
9.439928e-003
9.439927e-003
9.439926e-003
9.439925e-003
9.439923e-003
9.439922e-003
9.439921e-003
9.439921e-003
9.439920e-003
9.439920e-003
9.439920e-003
9.439921e-003
9.439922e-003
9.439922e-003
9.439922e-003
9.439921e-003
9.439921e-003
9.439920e-003
9.439919e-003
9.439918e-003
9.439918e-003
9.439919e-003
9.439920e-003
9.439921e-003
9.439922e-003
9.439922e-003
9.439921e-003
9.439919e-003
9.439918e-003
9.439918e-003
9.439919e-003
9.439920e-003
9.439921e-003
9.439921e-003
9.439920e-003
9.439920e-003
9.439919e-003
9.439919e-003
9.439920e-003
9.439920e-003
9.439920e-003
9.439921e-003
9.439931e-003
9.439927e-003
9.439921e-003
9.439917e-003
9.439916e-003
9.439918e-003
9.439921e-003
9.439923e-003
9.439922e-003
9.439920e-003
9.439917e-003
9.439917e-003
9.439919e-003
9.439921e-003
9.439923e-003
9.439923e-003
9.439921e-003
9.439920e-003
9.439919e-003
9.439919e-003
9.439919e-003
9.439919e-003
9.439919e-003
9.439920e-003
9.439922e-003
9.439924e-003
9.439927e-003
9.439928e-003
9.439930e-003
9.439931e-003
9.439932e-003
9.439933e-003
9.439934e-003
9.439934e-003
9.439934e-003
9.439935e-003
9.439936e-003
9.439936e-003
9.439937e-003
9.439937e-003
9.439938e-003
9.439938e-003
9.439938e-003
9.439939e-003
9.439939e-003
9.439939e-003
9.439939e-003
9.439939e-003
9.439938e-003
9.439938e-003
9.439938e-003
9.439937e-003
9.439937e-003
9.439936e-003
9.439935e-003
9.439935e-003
9.439934e-003
9.439933e-003
9.439933e-003
9.439932e-003
9.439932e-003
9.439931e-003
9.439930e-003
9.439929e-003
9.439927e-003
9.439926e-003
9.439924e-003
9.439922e-003
9.439921e-003
9.439920e-003
9.439919e-003
9.439919e-003
9.439919e-003
9.439920e-003
9.439920e-003
9.439921e-003
9.439921e-003
9.439921e-003
9.439920e-003
9.439920e-003
9.439919e-003
9.439919e-003
9.439920e-003
9.439920e-003
9.439920e-003
9.439920e-003
9.439920e-003
9.439920e-003
9.439920e-003
9.439920e-003
9.439920e-003
9.439920e-003
9.439920e-003
9.439920e-003
9.439920e-003
9.439920e-003
9.439919e-003
9.439920e-003
9.439920e-003
9.439921e-003
9.439910e-003
9.439913e-003
9.439917e-003
9.439921e-003
9.439924e-003
9.439924e-003
9.439923e-003
9.439920e-003
9.439918e-003
9.439916e-003
9.439916e-003
9.439917e-003
9.439920e-003
9.439924e-003
9.439925e-003
9.439925e-003
9.439923e-003
9.439920e-003
9.439918e-003
9.439917e-003
9.439918e-003
9.439919e-003
9.439920e-003
9.439922e-003
9.439926e-003
9.439929e-003
9.439932e-003
9.439934e-003
9.439935e-003
9.439937e-003
9.439938e-003
9.439939e-003
9.439940e-003
9.439941e-003
9.439941e-003
9.439941e-003
9.439942e-003
9.439942e-003
9.439942e-003
9.439942e-003
9.439941e-003
9.439941e-003
9.439941e-003
9.439940e-003
9.439940e-003
9.439940e-003
9.439939e-003
9.439939e-003
9.439940e-003
9.439940e-003
9.439940e-003
9.439940e-003
9.439940e-003
9.439940e-003
9.439940e-003
9.439940e-003
9.439940e-003
9.439939e-003
9.439939e-003
9.439938e-003
9.439937e-003
9.439936e-003
9.439935e-003
9.439934e-003
9.439932e-003
9.439930e-003
9.439928e-003
9.439926e-003
9.439923e-003
9.439921e-003
9.439920e-003
9.439918e-003
9.439918e-003
9.439918e-003
9.439920e-003
9.439921e-003
9.439923e-003
9.439923e-003
9.439922e-003
9.439921e-003
9.439919e-003
9.439918e-003
9.439918e-003
9.439919e-003
9.439919e-003
9.439921e-003
9.439921e-003
9.439922e-003
9.439921e-003
9.439919e-003
9.439919e-003
9.439919e-003
9.439920e-003
9.439921e-003
9.439921e-003
9.439920e-003
9.439920e-003
9.439919e-003
9.439920e-003
9.439920e-003
9.439897e-003
9.439905e-003
9.439916e-003
9.439925e-003
9.439929e-003
9.439926e-003
9.439921e-003
9.439917e-003
9.439915e-003
9.439916e-003
9.439919e-003
9.439920e-003
9.439922e-003
9.439922e-003
9.439922e-003
9.439922e-003
9.439921e-003
9.439920e-003
9.439919e-003
9.439920e-003
9.439922e-003
9.439924e-003
9.439926e-003
9.439928e-003
9.439930e-003
9.439932e-003
9.439935e-003
9.439937e-003
9.439938e-003
9.439940e-003
9.439942e-003
9.439944e-003
9.439945e-003
9.439945e-003
9.439945e-003
9.439943e-003
9.439941e-003
9.439938e-003
9.439935e-003
9.439931e-003
9.439926e-003
9.439921e-003
9.439917e-003
9.439914e-003
9.439911e-003
9.439910e-003
9.439909e-003
9.439910e-003
9.439912e-003
9.439915e-003
9.439918e-003
9.439922e-003
9.439926e-003
9.439930e-003
9.439934e-003
9.439937e-003
9.439940e-003
9.439941e-003
9.439942e-003
9.439942e-003
9.439941e-003
9.439940e-003
9.439938e-003
9.439936e-003
9.439935e-003
9.439933e-003
9.439931e-003
9.439929e-003
9.439927e-003
9.439926e-003
9.439924e-003
9.439922e-003
9.439921e-003
9.439920e-003
9.439920e-003
9.439920e-003
9.439921e-003
9.439922e-003
9.439922e-003
9.439921e-003
9.439920e-003
9.439919e-003
9.439918e-003
9.439918e-003
9.439919e-003
9.439920e-003
9.439922e-003
9.439922e-003
9.439921e-003
9.439919e-003
9.439918e-003
9.439919e-003
9.439920e-003
9.439921e-003
9.439921e-003
9.439921e-003
9.439920e-003
9.439919e-003
9.439920e-003
9.439920e-003
9.439901e-003
9.439909e-003
9.439919e-003
9.439926e-003
9.439927e-003
9.439923e-003
9.439917e-003
9.439915e-003
9.439917e-003
9.439921e-003
9.439924e-003
9.439924e-003
9.439921e-003
9.439919e-003
9.439917e-003
9.439917e-003
9.439919e-003
9.439921e-003
9.439923e-003
9.439926e-003
9.439929e-003
9.439931e-003
9.439933e-003
9.439935e-003
9.439936e-003
9.439937e-003
9.439939e-003
9.439941e-003
9.439942e-003
9.439943e-003
9.439943e-003
9.439942e-003
9.439939e-003
9.439933e-003
9.439924e-003
9.439913e-003
9.439900e-003
9.439884e-003
9.439866e-003
9.439848e-003
9.439830e-003
9.439813e-003
9.439798e-003
9.439786e-003
9.439777e-003
9.439772e-003
9.439771e-003
9.439774e-003
9.439781e-003
9.439792e-003
9.439805e-003
9.439821e-003
9.439838e-003
9.439856e-003
9.439873e-003
9.439890e-003
9.439904e-003
9.439916e-003
9.439926e-003
9.439932e-003
9.439937e-003
9.439939e-003
9.439940e-003
9.439939e-003
9.439938e-003
9.439936e-003
9.439935e-003
9.439933e-003
9.439932e-003
9.439931e-003
9.439929e-003
9.439928e-003
9.439925e-003
9.439923e-003
9.439921e-003
9.439920e-003
9.439919e-003
9.439919e-003
9.439919e-003
9.439921e-003
9.439921e-003
9.439921e-003
9.439920e-003
9.439919e-003
9.439919e-003
9.439920e-003
9.439920e-003
9.439921e-003
9.439921e-003
9.439920e-003
9.439919e-003
9.439919e-003
9.439920e-003
9.439920e-003
9.439920e-003
9.439920e-003
9.439920e-003
9.439920e-003
9.439920e-003
9.439920e-003
9.439919e-003
9.439921e-003
9.439922e-003
9.439923e-003
9.439920e-003
9.439917e-003
9.439915e-003
9.439916e-003
9.439920e-003
9.439925e-003
9.439926e-003
9.439924e-003
9.439920e-003
9.439916e-003
9.439915e-003
9.439917e-003
9.439921e-003
9.439925e-003
9.439928e-003
9.439930e-003
9.439933e-003
9.439936e-003
9.439938e-003
9.439940e-003
9.439942e-003
9.439944e-003
9.439945e-003
9.439946e-003
9.439944e-003
9.439938e-003
9.439927e-003
9.439911e-003
9.439889e-003
9.439860e-003
9.439824e-003
9.439781e-003
9.439733e-003
9.439681e-003
9.439626e-003
9.439571e-003
9.439518e-003
9.439469e-003
9.439426e-003
9.439391e-003
9.439366e-003
9.439352e-003
9.439350e-003
9.439359e-003
9.439380e-003
9.439411e-003
9.439450e-003
9.439497e-003
9.439549e-003
9.439603e-003
9.439658e-003
9.439710e-003
9.439760e-003
9.439804e-003
9.439842e-003
9.439873e-003
9.439898e-003
9.439916e-003
9.439929e-003
9.439936e-003
9.439940e-003
9.439941e-003
9.439940e-003
9.439938e-003
9.439937e-003
9.439935e-003
9.439933e-003
9.439931e-003
9.439929e-003
9.439927e-003
9.439924e-003
9.439921e-003
9.439919e-003
9.439918e-003
9.439918e-003
9.439920e-003
9.439921e-003
9.439922e-003
9.439922e-003
9.439921e-003
9.439920e-003
9.439919e-003
9.439919e-003
9.439919e-003
9.439920e-003
9.439921e-003
9.439921e-003
9.439921e-003
9.439920e-003
9.439919e-003
9.439919e-003
9.439920e-003
9.439920e-003
9.439921e-003
9.439920e-003
9.439920e-003
9.439936e-003
9.439931e-003
9.439924e-003
9.439917e-003
9.439914e-003
9.439915e-003
9.439918e-003
9.439921e-003
9.439923e-003
9.439924e-003
9.439923e-003
9.439921e-003
9.439919e-003
9.439918e-003
9.439919e-003
9.439922e-003
9.439926e-003
9.439929e-003
9.439931e-003
9.439933e-003
9.439935e-003
9.439939e-003
9.439943e-003
9.439946e-003
9.439949e-003
9.439948e-003
9.439944e-003
9.439934e-003
9.439915e-003
9.439884e-003
9.439840e-003
9.439781e-003
9.439706e-003
9.439615e-003
9.439508e-003
9.439387e-003
9.439254e-003
9.439112e-003
9.438967e-003
9.438823e-003
9.438685e-003
9.438559e-003
9.438449e-003
9.438361e-003
9.438299e-003
9.438264e-003
9.438259e-003
9.438283e-003
9.438336e-003
9.438415e-003
9.438517e-003
9.438638e-003
9.438772e-003
9.438915e-003
9.439060e-003
9.439203e-003
9.439339e-003
9.439464e-003
9.439576e-003
9.439672e-003
9.439751e-003
9.439815e-003
9.439863e-003
9.439897e-003
9.439920e-003
9.439934e-003
9.439940e-003
9.439942e-003
9.439941e-003
9.439939e-003
9.439936e-003
9.439933e-003
9.439931e-003
9.439929e-003
9.439927e-003
9.439925e-003
9.439922e-003
9.439920e-003
9.439919e-003
9.439919e-003
9.439920e-003
9.439921e-003
9.439922e-003
9.439922e-003
9.439921e-003
9.439920e-003
9.439918e-003
9.439918e-003
9.439919e-003
9.439921e-003
9.439922e-003
9.439922e-003
9.439920e-003
9.439919e-003
9.439918e-003
9.439920e-003
9.439921e-003
9.439921e-003
9.439920e-003
9.439919e-003
9.439942e-003
9.439933e-003
9.439921e-003
9.439913e-003
9.439913e-003
9.439918e-003
9.439923e-003
9.439925e-003
9.439923e-003
9.439919e-003
9.439917e-003
9.439917e-003
9.439920e-003
9.439923e-003
9.439926e-003
9.439929e-003
9.439932e-003
9.439933e-003
9.439935e-003
9.439937e-003
9.439940e-003
9.439944e-003
9.439948e-003
9.439949e-003
9.439944e-003
9.439929e-003
9.439901e-003
9.439854e-003
9.439785e-003
9.439688e-003
9.439558e-003
9.439393e-003
9.439191e-003
9.438952e-003
9.438677e-003
9.438370e-003
9.438039e-003
9.437692e-003
9.437338e-003
9.436990e-003
9.436660e-003
9.436360e-003
9.436101e-003
9.435894e-003
9.435747e-003
9.435666e-003
9.435655e-003
9.435713e-003
9.435839e-003
9.436027e-003
9.436270e-003
9.436559e-003
9.436881e-003
9.437225e-003
9.437579e-003
9.437930e-003
9.438268e-003
9.438582e-003
9.438867e-003
9.439117e-003
9.439330e-003
9.439505e-003
9.439644e-003
9.439750e-003
9.439826e-003
9.439879e-003
9.439912e-003
9.439931e-003
9.439940e-003
9.439942e-003
9.439940e-003
9.439937e-003
9.439934e-003
9.439932e-003
9.439930e-003
9.439929e-003
9.439927e-003
9.439925e-003
9.439923e-003
9.439921e-003
9.439919e-003
9.439919e-003
9.439920e-003
9.439921e-003
9.439921e-003
9.439921e-003
9.439920e-003
9.439919e-003
9.439919e-003
9.439920e-003
9.439922e-003
9.439922e-003
9.439920e-003
9.439919e-003
9.439918e-003
9.439920e-003
9.439921e-003
9.439921e-003
9.439920e-003
9.439919e-003
9.439934e-003
9.439926e-003
9.439917e-003
9.439912e-003
9.439915e-003
9.439922e-003
9.439927e-003
9.439927e-003
9.439921e-003
9.439915e-003
9.439914e-003
9.439917e-003
9.439923e-003
9.439929e-003
9.439932e-003
9.439933e-003
9.439935e-003
9.439937e-003
9.439941e-003
9.439946e-003
9.439949e-003
9.439950e-003
9.439945e-003
9.439929e-003
9.439894e-003
9.439834e-003
9.439739e-003
9.439599e-003
9.439405e-003
9.439147e-003
9.438815e-003
9.438404e-003
9.437909e-003
9.437333e-003
9.436681e-003
9.435964e-003
9.435196e-003
9.434398e-003
9.433593e-003
9.432808e-003
9.432067e-003
9.431397e-003
9.430823e-003
9.430366e-003
9.430043e-003
9.429866e-003
9.429842e-003
9.429972e-003
9.430251e-003
9.430669e-003
9.431210e-003
9.431855e-003
9.432579e-003
9.433356e-003
9.434161e-003
9.434966e-003
9.435747e-003
9.436483e-003
9.437156e-003
9.437755e-003
9.438273e-003
9.438706e-003
9.439058e-003
9.439335e-003
9.439544e-003
9.439695e-003
9.439800e-003
9.439869e-003
9.439910e-003
9.439932e-003
9.439941e-003
9.439942e-003
9.439940e-003
9.439937e-003
9.439934e-003
9.439931e-003
9.439930e-003
9.439928e-003
9.439926e-003
9.439923e-003
9.439920e-003
9.439918e-003
9.439918e-003
9.439919e-003
9.439921e-003
9.439922e-003
9.439921e-003
9.439920e-003
9.439919e-003
9.439919e-003
9.439920e-003
9.439921e-003
9.439920e-003
9.439920e-003
9.439919e-003
9.439920e-003
9.439921e-003
9.439921e-003
9.439920e-003
9.439919e-003
9.439920e-003
9.439918e-003
9.439916e-003
9.439917e-003
9.439920e-003
9.439924e-003
9.439926e-003
9.439924e-003
9.439919e-003
9.439916e-003
9.439917e-003
9.439922e-003
9.439928e-003
9.439932e-003
9.439934e-003
9.439935e-003
9.439938e-003
9.439943e-003
9.439950e-003
9.439955e-003
9.439953e-003
9.439937e-003
9.439902e-003
9.439835e-003
9.439724e-003
9.439550e-003
9.439295e-003
9.438939e-003
9.438460e-003
9.437837e-003
9.437053e-003
9.436098e-003
9.434968e-003
9.433669e-003
9.432217e-003
9.430637e-003
9.428966e-003
9.427248e-003
9.425531e-003
9.423870e-003
9.422317e-003
9.420924e-003
9.419737e-003
9.418797e-003
9.418136e-003
9.417777e-003
9.417730e-003
9.418000e-003
9.418576e-003
9.419439e-003
9.420561e-003
9.421903e-003
9.423419e-003
9.425061e-003
9.426773e-003
9.428502e-003
9.430197e-003
9.431812e-003
9.433307e-003
9.434652e-003
9.435830e-003
9.436831e-003
9.437657e-003
9.438318e-003
9.438829e-003
9.439211e-003
9.439486e-003
9.439675e-003
9.439799e-003
9.439875e-003
9.439917e-003
9.439937e-003
9.439944e-003
9.439943e-003
9.439939e-003
9.439935e-003
9.439931e-003
9.439929e-003
9.439928e-003
9.439925e-003
9.439923e-003
9.439920e-003
9.439919e-003
9.439919e-003
9.439920e-003
9.439922e-003
9.439922e-003
9.439921e-003
9.439920e-003
9.439919e-003
9.439919e-003
9.439919e-003
9.439920e-003
9.439921e-003
9.439921e-003
9.439920e-003
9.439920e-003
9.439920e-003
9.439920e-003
9.439920e-003
9.439907e-003
9.439912e-003
9.439919e-003
9.439923e-003
9.439924e-003
9.439922e-003
9.439920e-003
9.439918e-003
9.439919e-003
9.439921e-003
9.439925e-003
9.439928e-003
9.439932e-003
9.439934e-003
9.439936e-003
9.439939e-003
9.439945e-003
9.439952e-003
9.439956e-003
9.439949e-003
9.439921e-003
9.439859e-003
9.439746e-003
9.439560e-003
9.439269e-003
9.438839e-003
9.438229e-003
9.437395e-003
9.436296e-003
9.434893e-003
9.433157e-003
9.431073e-003
9.428644e-003
9.425891e-003
9.422858e-003
9.419607e-003
9.416216e-003
9.412777e-003
9.409389e-003
9.406151e-003
9.403161e-003
9.400508e-003
9.398271e-003
9.396514e-003
9.395288e-003
9.394628e-003
9.394551e-003
9.395061e-003
9.396142e-003
9.397766e-003
9.399886e-003
9.402441e-003
9.405356e-003
9.408545e-003
9.411911e-003
9.415356e-003
9.418778e-003
9.422083e-003
9.425188e-003
9.428023e-003
9.430541e-003
9.432714e-003
9.434534e-003
9.436013e-003
9.437177e-003
9.438064e-003
9.438717e-003
9.439179e-003
9.439494e-003
9.439698e-003
9.439823e-003
9.439894e-003
9.439929e-003
9.439942e-003
9.439944e-003
9.439940e-003
9.439935e-003
9.439931e-003
9.439929e-003
9.439928e-003
9.439926e-003
9.439924e-003
9.439921e-003
9.439920e-003
9.439919e-003
9.439920e-003
9.439921e-003
9.439921e-003
9.439921e-003
9.439919e-003
9.439918e-003
9.439919e-003
9.439920e-003
9.439922e-003
9.439922e-003
9.439920e-003
9.439919e-003
9.439919e-003
9.439920e-003
9.439921e-003
9.439902e-003
9.439911e-003
9.439923e-003
9.439929e-003
9.439926e-003
9.439919e-003
9.439913e-003
9.439915e-003
9.439921e-003
9.439928e-003
9.439932e-003
9.439933e-003
9.439934e-003
9.439937e-003
9.439942e-003
9.439949e-003
9.439955e-003
9.439955e-003
9.439940e-003
9.439894e-003
9.439798e-003
9.439625e-003
9.439336e-003
9.438882e-003
9.438200e-003
9.437217e-003
9.435852e-003
9.434021e-003
9.431649e-003
9.428673e-003
9.425055e-003
9.420788e-003
9.415905e-003
9.410480e-003
9.404623e-003
9.398479e-003
9.392213e-003
9.386002e-003
9.380024e-003
9.374443e-003
9.369405e-003
9.365030e-003
9.361414e-003
9.358627e-003
9.356716e-003
9.355711e-003
9.355625e-003
9.356456e-003
9.358192e-003
9.360804e-003
9.364248e-003
9.368459e-003
9.373350e-003
9.378809e-003
9.384698e-003
9.390860e-003
9.397122e-003
9.403308e-003
9.409246e-003
9.414786e-003
9.419806e-003
9.424221e-003
9.427988e-003
9.431103e-003
9.433599e-003
9.435534e-003
9.436984e-003
9.438032e-003
9.438762e-003
9.439251e-003
9.439564e-003
9.439754e-003
9.439861e-003
9.439916e-003
9.439938e-003
9.439944e-003
9.439941e-003
9.439937e-003
9.439932e-003
9.439930e-003
9.439928e-003
9.439927e-003
9.439924e-003
9.439922e-003
9.439919e-003
9.439918e-003
9.439919e-003
9.439921e-003
9.439922e-003
9.439921e-003
9.439919e-003
9.439918e-003
9.439920e-003
9.439921e-003
9.439922e-003
9.439920e-003
9.439918e-003
9.439918e-003
9.439920e-003
9.439922e-003
9.439903e-003
9.439913e-003
9.439925e-003
9.439930e-003
9.439925e-003
9.439916e-003
9.439912e-003
9.439916e-003
9.439925e-003
9.439933e-003
9.439936e-003
9.439935e-003
9.439937e-003
9.439943e-003
9.439953e-003
9.439960e-003
9.439957e-003
9.439930e-003
9.439862e-003
9.439725e-003
9.439477e-003
9.439058e-003
9.438390e-003
9.437368e-003
9.435869e-003
9.433753e-003
9.430869e-003
9.427076e-003
9.422256e-003
9.416335e-003
9.409299e-003
9.401213e-003
9.392223e-003
9.382552e-003
9.372488e-003
9.362355e-003
9.352485e-003
9.343188e-003
9.334722e-003
9.327278e-003
9.320971e-003
9.315843e-003
9.311879e-003
9.309022e-003
9.307200e-003
9.306342e-003
9.306401e-003
9.307358e-003
9.309232e-003
9.312068e-003
9.315927e-003
9.320865e-003
9.326912e-003
9.334052e-003
9.342202e-003
9.351208e-003
9.360843e-003
9.370823e-003
9.380827e-003
9.390529e-003
9.399631e-003
9.407889e-003
9.415131e-003
9.421270e-003
9.426298e-003
9.430277e-003
9.433317e-003
9.435557e-003
9.437149e-003
9.438238e-003
9.438954e-003
9.439404e-003
9.439673e-003
9.439823e-003
9.439901e-003
9.439935e-003
9.439945e-003
9.439943e-003
9.439938e-003
9.439933e-003
9.439930e-003
9.439928e-003
9.439927e-003
9.439924e-003
9.439920e-003
9.439918e-003
9.439918e-003
9.439920e-003
9.439922e-003
9.439922e-003
9.439920e-003
9.439919e-003
9.439919e-003
9.439921e-003
9.439921e-003
9.439920e-003
9.439919e-003
9.439919e-003
9.439920e-003
9.439921e-003
9.439910e-003
9.439917e-003
9.439924e-003
9.439926e-003
9.439923e-003
9.439917e-003
9.439917e-003
9.439922e-003
9.439930e-003
9.439935e-003
9.439937e-003
9.439938e-003
9.439943e-003
9.439953e-003
9.439962e-003
9.439957e-003
9.439921e-003
9.439830e-003
9.439647e-003
9.439314e-003
9.438743e-003
9.437813e-003
9.436365e-003
9.434199e-003
9.431086e-003
9.426779e-003
9.421034e-003
9.413653e-003
9.404520e-003
9.393648e-003
9.381210e-003
9.367561e-003
9.353226e-003
9.338864e-003
9.325201e-003
9.312947e-003
9.302706e-003
9.294897e-003
9.289705e-003
9.287052e-003
9.286621e-003
9.287900e-003
9.290253e-003
9.293010e-003
9.295550e-003
9.297383e-003
9.298204e-003
9.297935e-003
9.296734e-003
9.294969e-003
9.293179e-003
9.292001e-003
9.292088e-003
9.294019e-003
9.298219e-003
9.304891e-003
9.313988e-003
9.325207e-003
9.338033e-003
9.351806e-003
9.365809e-003
9.379358e-003
9.391877e-003
9.402951e-003
9.412346e-003
9.420002e-003
9.426001e-003
9.430524e-003
9.433805e-003
9.436095e-003
9.437632e-003
9.438622e-003
9.439231e-003
9.439589e-003
9.439786e-003
9.439887e-003
9.439931e-003
9.439945e-003
9.439944e-003
9.439938e-003
9.439933e-003
9.439930e-003
9.439928e-003
9.439926e-003
9.439923e-003
9.439920e-003
9.439919e-003
9.439920e-003
9.439921e-003
9.439922e-003
9.439921e-003
9.439919e-003
9.439919e-003
9.439920e-003
9.439920e-003
9.439920e-003
9.439920e-003
9.439920e-003
9.439920e-003
9.439920e-003
9.439922e-003
9.439921e-003
9.439920e-003
9.439919e-003
9.439919e-003
9.439921e-003
9.439925e-003
9.439929e-003
9.439933e-003
9.439936e-003
9.439939e-003
9.439945e-003
9.439954e-003
9.439962e-003
9.439955e-003
9.439912e-003
9.439802e-003
9.439575e-003
9.439153e-003
9.438416e-003
9.437192e-003
9.435245e-003
9.432277e-003
9.427933e-003
9.421823e-003
9.413569e-003
9.402872e-003
9.389604e-003
9.373909e-003
9.356300e-003
9.337708e-003
9.319478e-003
9.303278e-003
9.290934e-003
9.284202e-003
9.284514e-003
9.292743e-003
9.309027e-003
9.332688e-003
9.362255e-003
9.395588e-003
9.430086e-003
9.462949e-003
9.491451e-003
9.513206e-003
9.526390e-003
9.529909e-003
9.523504e-003
9.507771e-003
9.484109e-003
9.454594e-003
9.421781e-003
9.388458e-003
9.357372e-003
9.330948e-003
9.311042e-003
9.298766e-003
9.294403e-003
9.297440e-003
9.306700e-003
9.320561e-003
9.337211e-003
9.354898e-003
9.372136e-003
9.387827e-003
9.401307e-003
9.412307e-003
9.420871e-003
9.427251e-003
9.431809e-003
9.434933e-003
9.436988e-003
9.438283e-003
9.439063e-003
9.439511e-003
9.439754e-003
9.439875e-003
9.439928e-003
9.439944e-003
9.439943e-003
9.439937e-003
9.439932e-003
9.439930e-003
9.439928e-003
9.439926e-003
9.439923e-003
9.439920e-003
9.439919e-003
9.439920e-003
9.439921e-003
9.439921e-003
9.439920e-003
9.439919e-003
9.439919e-003
9.439919e-003
9.439920e-003
9.439921e-003
9.439921e-003
9.439920e-003
9.439919e-003
9.439936e-003
9.439927e-003
9.439917e-003
9.439913e-003
9.439917e-003
9.439926e-003
9.439933e-003
9.439935e-003
9.439935e-003
9.439938e-003
9.439946e-003
9.439957e-003
9.439964e-003
9.439954e-003
9.439905e-003
9.439779e-003
9.439515e-003
9.439011e-003
9.438111e-003
9.436582e-003
9.434099e-003
9.430236e-003
9.424474e-003
9.416238e-003
9.404974e-003
9.390287e-003
9.372130e-003
9.351053e-003
9.328431e-003
9.306648e-003
9.289117e-003
9.280113e-003
9.284382e-003
9.306557e-003
9.350480e-003
9.418536e-003
9.511119e-003
9.626325e-003
9.759931e-003
9.905654e-003
1.005566e-002
1.020123e-002
1.033351e-002
1.044422e-002
1.052634e-002
1.057460e-002
1.058591e-002
1.055955e-002
1.049724e-002
1.040304e-002
1.028302e-002
1.014485e-002
9.997206e-003
9.849026e-003
9.708785e-003
9.583729e-003
9.479263e-003
9.398532e-003
9.342294e-003
9.309088e-003
9.295681e-003
9.297706e-003
9.310368e-003
9.329112e-003
9.350111e-003
9.370545e-003
9.388646e-003
9.403567e-003
9.415156e-003
9.423704e-003
9.429716e-003
9.433762e-003
9.436368e-003
9.437974e-003
9.438920e-003
9.439450e-003
9.439731e-003
9.439868e-003
9.439926e-003
9.439943e-003
9.439943e-003
9.439938e-003
9.439932e-003
9.439929e-003
9.439928e-003
9.439926e-003