# vtk DataFile Version 3.0
vtk output
ASCII
DATASET STRUCTURED_POINTS
DIMENSIONS 100 100 1
SPACING 1 1 1
ORIGIN 0 0 0
POINT_DATA 10000
SCALARS SFBox_profile double
LOOKUP_TABLE default 
9.439919e-003
9.439919e-003
9.439920e-003
9.439921e-003
9.439921e-003
9.439920e-003
9.439920e-003
9.439919e-003
9.439919e-003
9.439920e-003
9.439920e-003
9.439921e-003
9.439921e-003
9.439921e-003
9.439920e-003
9.439919e-003
9.439919e-003
9.439919e-003
9.439919e-003
9.439920e-003
9.439920e-003
9.439921e-003
9.439921e-003
9.439922e-003
9.439922e-003
9.439921e-003
9.439921e-003
9.439920e-003
9.439920e-003
9.439919e-003
9.439919e-003
9.439919e-003
9.439919e-003
9.439919e-003
9.439920e-003
9.439920e-003
9.439921e-003
9.439921e-003
9.439922e-003
9.439923e-003
9.439923e-003
9.439924e-003
9.439924e-003
9.439924e-003
9.439925e-003
9.439925e-003
9.439925e-003
9.439925e-003
9.439924e-003
9.439924e-003
9.439924e-003
9.439923e-003
9.439923e-003
9.439922e-003
9.439922e-003
9.439921e-003
9.439920e-003
9.439920e-003
9.439919e-003
9.439919e-003
9.439919e-003
9.439919e-003
9.439919e-003
9.439920e-003
9.439920e-003
9.439921e-003
9.439921e-003
9.439921e-003
9.439921e-003
9.439921e-003
9.439921e-003
9.439920e-003
9.439920e-003
9.439919e-003
9.439919e-003
9.439919e-003
9.439920e-003
9.439920e-003
9.439920e-003
9.439920e-003
9.439920e-003
9.439920e-003
9.439920e-003
9.439920e-003
9.439920e-003
9.439920e-003
9.439920e-003
9.439920e-003
9.439920e-003
9.439920e-003
9.439920e-003
9.439920e-003
9.439920e-003
9.439920e-003
9.439920e-003
9.439920e-003
9.439920e-003
9.439920e-003
9.439920e-003
9.439920e-003
9.439919e-003
9.439919e-003
9.439920e-003
9.439921e-003
9.439921e-003
9.439920e-003
9.439920e-003
9.439919e-003
9.439919e-003
9.439920e-003
9.439920e-003
9.439921e-003
9.439921e-003
9.439921e-003
9.439920e-003
9.439919e-003
9.439919e-003
9.439919e-003
9.439919e-003
9.439920e-003
9.439920e-003
9.439921e-003
9.439921e-003
9.439922e-003
9.439922e-003
9.439921e-003
9.439921e-003
9.439920e-003
9.439920e-003
9.439919e-003
9.439919e-003
9.439919e-003
9.439919e-003
9.439919e-003
9.439920e-003
9.439920e-003
9.439921e-003
9.439921e-003
9.439922e-003
9.439923e-003
9.439923e-003
9.439924e-003
9.439924e-003
9.439924e-003
9.439925e-003
9.439925e-003
9.439925e-003
9.439925e-003
9.439924e-003
9.439924e-003
9.439924e-003
9.439923e-003
9.439923e-003
9.439922e-003
9.439922e-003
9.439921e-003
9.439920e-003
9.439920e-003
9.439919e-003
9.439919e-003
9.439919e-003
9.439919e-003
9.439919e-003
9.439920e-003
9.439920e-003
9.439921e-003
9.439921e-003
9.439921e-003
9.439921e-003
9.439921e-003
9.439921e-003
9.439920e-003
9.439920e-003
9.439919e-003
9.439919e-003
9.439919e-003
9.439920e-003
9.439920e-003
9.439920e-003
9.439920e-003
9.439920e-003
9.439920e-003
9.439920e-003
9.439920e-003
9.439920e-003
9.439920e-003
9.439920e-003
9.439920e-003
9.439920e-003
9.439920e-003
9.439920e-003
9.439920e-003
9.439920e-003
9.439920e-003
9.439920e-003
9.439920e-003
9.439920e-003
9.439920e-003
9.439920e-003
9.439920e-003
9.439920e-003
9.439920e-003
9.439920e-003
9.439920e-003
9.439920e-003
9.439920e-003
9.439920e-003
9.439920e-003
9.439920e-003
9.439920e-003
9.439920e-003
9.439920e-003
9.439920e-003
9.439920e-003
9.439920e-003
9.439920e-003
9.439920e-003
9.439920e-003
9.439920e-003
9.439920e-003
9.439920e-003
9.439920e-003
9.439920e-003
9.439920e-003
9.439920e-003
9.439920e-003
9.439920e-003
9.439920e-003
9.439920e-003
9.439921e-003
9.439921e-003
9.439922e-003
9.439923e-003
9.439923e-003
9.439924e-003
9.439924e-003
9.439925e-003
9.439925e-003
9.439926e-003
9.439926e-003
9.439926e-003
9.439927e-003
9.439927e-003
9.439927e-003
9.439927e-003
9.439927e-003
9.439927e-003
9.439927e-003
9.439927e-003
9.439927e-003
9.439927e-003
9.439926e-003
9.439926e-003
9.439926e-003
9.439925e-003
9.439925e-003
9.439924e-003
9.439924e-003
9.439923e-003
9.439923e-003
9.439922e-003
9.439922e-003
9.439921e-003
9.439921e-003
9.439920e-003
9.439920e-003
9.439920e-003
9.439920e-003
9.439920e-003
9.439920e-003
9.439920e-003
9.439920e-003
9.439920e-003
9.439920e-003
9.439920e-003
9.439920e-003
9.439920e-003
9.439920e-003
9.439920e-003
9.439920e-003
9.439920e-003
9.439920e-003
9.439920e-003
9.439920e-003
9.439920e-003
9.439920e-003
9.439920e-003
9.439920e-003
9.439920e-003
9.439920e-003
9.439920e-003
9.439920e-003
9.439920e-003
9.439920e-003
9.439920e-003
9.439920e-003
9.439920e-003
9.439920e-003
9.439920e-003
9.439920e-003
9.439921e-003
9.439921e-003
9.439920e-003
9.439919e-003
9.439919e-003
9.439920e-003
9.439920e-003
9.439921e-003
9.439921e-003
9.439920e-003
9.439920e-003
9.439919e-003
9.439919e-003
9.439919e-003
9.439920e-003
9.439920e-003
9.439921e-003
9.439921e-003
9.439921e-003
9.439921e-003
9.439920e-003
9.439919e-003
9.439919e-003
9.439918e-003
9.439918e-003
9.439919e-003
9.439920e-003
9.439921e-003
9.439922e-003
9.439924e-003
9.439925e-003
9.439926e-003
9.439927e-003
9.439928e-003
9.439928e-003
9.439929e-003
9.439929e-003
9.439930e-003
9.439930e-003
9.439930e-003
9.439930e-003
9.439930e-003
9.439931e-003
9.439931e-003
9.439931e-003
9.439931e-003
9.439931e-003
9.439931e-003
9.439930e-003
9.439930e-003
9.439930e-003
9.439930e-003
9.439930e-003
9.439929e-003
9.439929e-003
9.439929e-003
9.439928e-003
9.439928e-003
9.439927e-003
9.439926e-003
9.439925e-003
9.439924e-003
9.439923e-003
9.439922e-003
9.439921e-003
9.439920e-003
9.439919e-003
9.439919e-003
9.439919e-003
9.439919e-003
9.439919e-003
9.439920e-003
9.439920e-003
9.439921e-003
9.439921e-003
9.439921e-003
9.439920e-003
9.439920e-003
9.439920e-003
9.439919e-003
9.439920e-003
9.439920e-003
9.439920e-003
9.439920e-003
9.439920e-003
9.439920e-003
9.439920e-003
9.439920e-003
9.439920e-003
9.439920e-003
9.439920e-003
9.439920e-003
9.439920e-003
9.439920e-003
9.439920e-003
9.439920e-003
9.439920e-003
9.439920e-003
9.439920e-003
9.439920e-003
9.439922e-003
9.439921e-003
9.439920e-003
9.439919e-003
9.439919e-003
9.439920e-003
9.439920e-003
9.439921e-003
9.439921e-003
9.439920e-003
9.439920e-003
9.439919e-003
9.439919e-003
9.439920e-003
9.439920e-003
9.439921e-003
9.439921e-003
9.439921e-003
9.439921e-003
9.439920e-003
9.439919e-003
9.439919e-003
9.439919e-003
9.439920e-003
9.439920e-003
9.439921e-003
9.439922e-003
9.439924e-003
9.439925e-003
9.439926e-003
9.439927e-003
9.439928e-003
9.439929e-003
9.439930e-003
9.439930e-003
9.439931e-003
9.439932e-003
9.439932e-003
9.439933e-003
9.439934e-003
9.439934e-003
9.439935e-003
9.439935e-003
9.439935e-003
9.439935e-003
9.439935e-003
9.439935e-003
9.439935e-003
9.439935e-003
9.439935e-003
9.439934e-003
9.439934e-003
9.439933e-003
9.439933e-003
9.439932e-003
9.439931e-003
9.439931e-003
9.439930e-003
9.439929e-003
9.439928e-003
9.439927e-003
9.439927e-003
9.439926e-003
9.439925e-003
9.439924e-003
9.439922e-003
9.439921e-003
9.439921e-003
9.439920e-003
9.439920e-003
9.439919e-003
9.439920e-003
9.439920e-003
9.439920e-003
9.439921e-003
9.439921e-003
9.439920e-003
9.439920e-003
9.439920e-003
9.439920e-003
9.439920e-003
9.439920e-003
9.439920e-003
9.439920e-003
9.439920e-003
9.439920e-003
9.439920e-003
9.439920e-003
9.439920e-003
9.439920e-003
9.439920e-003
9.439920e-003
9.439920e-003
9.439920e-003
9.439920e-003
9.439920e-003
9.439920e-003
9.439920e-003
9.439920e-003
9.439920e-003
9.439920e-003
9.439920e-003
9.439920e-003
9.439920e-003
9.439920e-003
9.439920e-003
9.439920e-003
9.439920e-003
9.439920e-003
9.439920e-003
9.439920e-003
9.439920e-003
9.439920e-003
9.439921e-003
9.439921e-003
9.439921e-003
9.439920e-003
9.439919e-003
9.439919e-003
9.439919e-003
9.439920e-003
9.439920e-003
9.439922e-003
9.439923e-003
9.439924e-003
9.439925e-003
9.439926e-003
9.439927e-003
9.439928e-003
9.439928e-003
9.439929e-003
9.439930e-003
9.439931e-003
9.439932e-003
9.439933e-003
9.439934e-003
9.439936e-003
9.439937e-003
9.439938e-003
9.439939e-003
9.439940e-003
9.439941e-003
9.439941e-003
9.439941e-003
9.439941e-003
9.439941e-003
9.439941e-003
9.439941e-003
9.439941e-003
9.439941e-003
9.439940e-003
9.439939e-003
9.439939e-003
9.439938e-003
9.439936e-003
9.439935e-003
9.439934e-003
9.439933e-003
9.439931e-003
9.439930e-003
9.439929e-003
9.439928e-003
9.439927e-003
9.439927e-003
9.439926e-003
9.439925e-003
9.439925e-003
9.439924e-003
9.439923e-003
9.439922e-003
9.439921e-003
9.439920e-003
9.439920e-003
9.439919e-003
9.439920e-003
9.439920e-003
9.439920e-003
9.439920e-003
9.439920e-003
9.439920e-003
9.439920e-003
9.439920e-003
9.439920e-003
9.439920e-003
9.439920e-003
9.439920e-003
9.439920e-003
9.439920e-003
9.439920e-003
9.439920e-003
9.439920e-003
9.439920e-003
9.439920e-003
9.439920e-003
9.439920e-003
9.439920e-003
9.439920e-003
9.439920e-003
9.439920e-003
9.439920e-003
9.439919e-003
9.439919e-003
9.439920e-003
9.439921e-003
9.439921e-003
9.439920e-003
9.439920e-003
9.439919e-003
9.439919e-003
9.439920e-003
9.439920e-003
9.439921e-003
9.439921e-003
9.439921e-003
9.439920e-003
9.439920e-003
9.439919e-003
9.439918e-003
9.439919e-003
9.439920e-003
9.439921e-003
9.439923e-003
9.439925e-003
9.439926e-003
9.439927e-003
9.439928e-003
9.439929e-003
9.439929e-003
9.439930e-003
9.439932e-003
9.439933e-003
9.439935e-003
9.439937e-003
9.439939e-003
9.439940e-003
9.439942e-003
9.439943e-003
9.439944e-003
9.439944e-003
9.439943e-003
9.439942e-003
9.439941e-003
9.439940e-003
9.439939e-003
9.439938e-003
9.439938e-003
9.439938e-003
9.439938e-003
9.439938e-003
9.439939e-003
9.439940e-003
9.439941e-003
9.439941e-003
9.439942e-003
9.439942e-003
9.439941e-003
9.439940e-003
9.439939e-003
9.439938e-003
9.439936e-003
9.439934e-003
9.439932e-003
9.439931e-003
9.439930e-003
9.439929e-003
9.439928e-003
9.439927e-003
9.439926e-003
9.439925e-003
9.439924e-003
9.439923e-003
9.439921e-003
9.439920e-003
9.439920e-003
9.439919e-003
9.439919e-003
9.439920e-003
9.439920e-003
9.439921e-003
9.439921e-003
9.439921e-003
9.439920e-003
9.439920e-003
9.439920e-003
9.439920e-003
9.439920e-003
9.439920e-003
9.439920e-003
9.439920e-003
9.439920e-003
9.439920e-003
9.439920e-003
9.439920e-003
9.439920e-003
9.439920e-003
9.439920e-003
9.439920e-003
9.439920e-003
9.439920e-003
9.439920e-003
9.439918e-003
9.439919e-003
9.439920e-003
9.439921e-003
9.439921e-003
9.439920e-003
9.439919e-003
9.439919e-003
9.439919e-003
9.439920e-003
9.439921e-003
9.439921e-003
9.439921e-003
9.439920e-003
9.439919e-003
9.439919e-003
9.439919e-003
9.439920e-003
9.439921e-003
9.439923e-003
9.439924e-003
9.439926e-003
9.439927e-003
9.439928e-003
9.439929e-003
9.439930e-003
9.439931e-003
9.439934e-003
9.439936e-003
9.439939e-003
9.439942e-003
9.439944e-003
9.439946e-003
9.439947e-003
9.439946e-003
9.439944e-003
9.439940e-003
9.439935e-003
9.439929e-003
9.439921e-003
9.439914e-003
9.439906e-003
9.439899e-003
9.439894e-003
9.439889e-003
9.439887e-003
9.439886e-003
9.439888e-003
9.439891e-003
9.439896e-003
9.439902e-003
9.439909e-003
9.439916e-003
9.439923e-003
9.439930e-003
9.439935e-003
9.439939e-003
9.439942e-003
9.439943e-003
9.439943e-003
9.439942e-003
9.439940e-003
9.439938e-003
9.439935e-003
9.439933e-003
9.439931e-003
9.439929e-003
9.439928e-003
9.439927e-003
9.439926e-003
9.439925e-003
9.439924e-003
9.439922e-003
9.439921e-003
9.439920e-003
9.439920e-003
9.439919e-003
9.439920e-003
9.439920e-003
9.439920e-003
9.439921e-003
9.439920e-003
9.439920e-003
9.439920e-003
9.439920e-003
9.439920e-003
9.439920e-003
9.439920e-003
9.439920e-003
9.439920e-003
9.439920e-003
9.439920e-003
9.439920e-003
9.439920e-003
9.439920e-003
9.439920e-003
9.439920e-003
9.439920e-003
9.439920e-003
9.439920e-003
9.439919e-003
9.439920e-003
9.439920e-003
9.439920e-003
9.439920e-003
9.439920e-003
9.439920e-003
9.439920e-003
9.439920e-003
9.439921e-003
9.439921e-003
9.439920e-003
9.439919e-003
9.439919e-003
9.439919e-003
9.439920e-003
9.439921e-003
9.439923e-003
9.439925e-003
9.439926e-003
9.439927e-003
9.439927e-003
9.439928e-003
9.439929e-003
9.439932e-003
9.439935e-003
9.439938e-003
9.439942e-003
9.439946e-003
9.439948e-003
9.439949e-003
9.439948e-003
9.439943e-003
9.439934e-003
9.439922e-003
9.439906e-003
9.439886e-003
9.439863e-003
9.439837e-003
9.439810e-003
9.439784e-003
9.439758e-003
9.439735e-003
9.439717e-003
9.439703e-003
9.439696e-003
9.439694e-003
9.439699e-003
9.439711e-003
9.439727e-003
9.439748e-003
9.439772e-003
9.439798e-003
9.439825e-003
9.439850e-003
9.439874e-003
9.439894e-003
9.439911e-003
9.439925e-003
9.439935e-003
9.439941e-003
9.439944e-003
9.439944e-003
9.439943e-003
9.439940e-003
9.439937e-003
9.439934e-003
9.439931e-003
9.439929e-003
9.439927e-003
9.439926e-003
9.439925e-003
9.439924e-003
9.439923e-003
9.439922e-003
9.439921e-003
9.439920e-003
9.439920e-003
9.439919e-003
9.439920e-003
9.439920e-003
9.439920e-003
9.439920e-003
9.439920e-003
9.439920e-003
9.439920e-003
9.439920e-003
9.439920e-003
9.439920e-003
9.439920e-003
9.439920e-003
9.439920e-003
9.439920e-003
9.439920e-003
9.439920e-003
9.439920e-003
9.439920e-003
9.439920e-003
9.439920e-003
9.439920e-003
9.439922e-003
9.439921e-003
9.439920e-003
9.439919e-003
9.439919e-003
9.439919e-003
9.439920e-003
9.439921e-003
9.439921e-003
9.439921e-003
9.439920e-003
9.439919e-003
9.439918e-003
9.439919e-003
9.439920e-003
9.439922e-003
9.439924e-003
9.439926e-003
9.439927e-003
9.439927e-003
9.439928e-003
9.439930e-003
9.439932e-003
9.439936e-003
9.439940e-003
9.439945e-003
9.439949e-003
9.439951e-003
9.439950e-003
9.439944e-003
9.439933e-003
9.439914e-003
9.439887e-003
9.439850e-003
9.439805e-003
9.439750e-003
9.439687e-003
9.439617e-003
9.439542e-003
9.439466e-003
9.439391e-003
9.439322e-003
9.439260e-003
9.439210e-003
9.439174e-003
9.439154e-003
9.439151e-003
9.439165e-003
9.439196e-003
9.439242e-003
9.439300e-003
9.439367e-003
9.439440e-003
9.439515e-003
9.439590e-003
9.439660e-003
9.439725e-003
9.439782e-003
9.439830e-003
9.439868e-003
9.439898e-003
9.439920e-003
9.439934e-003
9.439941e-003
9.439944e-003
9.439944e-003
9.439942e-003
9.439938e-003
9.439934e-003
9.439931e-003
9.439929e-003
9.439927e-003
9.439926e-003
9.439925e-003
9.439924e-003
9.439923e-003
9.439922e-003
9.439921e-003
9.439920e-003
9.439919e-003
9.439919e-003
9.439920e-003
9.439920e-003
9.439921e-003
9.439920e-003
9.439920e-003
9.439920e-003
9.439920e-003
9.439920e-003
9.439920e-003
9.439920e-003
9.439920e-003
9.439920e-003
9.439920e-003
9.439920e-003
9.439920e-003
9.439920e-003
9.439920e-003
9.439920e-003
9.439920e-003
9.439923e-003
9.439922e-003
9.439920e-003
9.439919e-003
9.439919e-003
9.439920e-003
9.439921e-003
9.439922e-003
9.439921e-003
9.439920e-003
9.439919e-003
9.439918e-003
9.439919e-003
9.439921e-003
9.439923e-003
9.439925e-003
9.439926e-003
9.439927e-003
9.439928e-003
9.439929e-003
9.439932e-003
9.439936e-003
9.439941e-003
9.439947e-003
9.439952e-003
9.439954e-003
9.439951e-003
9.439941e-003
9.439921e-003
9.439888e-003
9.439840e-003
9.439775e-003
9.439689e-003
9.439582e-003
9.439453e-003
9.439303e-003
9.439135e-003
9.438952e-003
9.438760e-003
9.438566e-003
9.438377e-003
9.438202e-003
9.438049e-003
9.437925e-003
9.437836e-003
9.437787e-003
9.437781e-003
9.437818e-003
9.437895e-003
9.438010e-003
9.438155e-003
9.438324e-003
9.438509e-003
9.438701e-003
9.438893e-003
9.439078e-003
9.439250e-003
9.439405e-003
9.439539e-003
9.439651e-003
9.439742e-003
9.439813e-003
9.439865e-003
9.439902e-003
9.439926e-003
9.439939e-003
9.439945e-003
9.439945e-003
9.439943e-003
9.439939e-003
9.439934e-003
9.439931e-003
9.439928e-003
9.439926e-003
9.439925e-003
9.439924e-003
9.439923e-003
9.439922e-003
9.439921e-003
9.439920e-003
9.439919e-003
9.439920e-003
9.439920e-003
9.439920e-003
9.439921e-003
9.439920e-003
9.439920e-003
9.439920e-003
9.439920e-003
9.439920e-003
9.439920e-003
9.439920e-003
9.439920e-003
9.439920e-003
9.439920e-003
9.439920e-003
9.439920e-003
9.439920e-003
9.439920e-003
9.439920e-003
9.439922e-003
9.439921e-003
9.439919e-003
9.439919e-003
9.439919e-003
9.439921e-003
9.439921e-003
9.439921e-003
9.439920e-003
9.439919e-003
9.439919e-003
9.439920e-003
9.439922e-003
9.439924e-003
9.439926e-003
9.439926e-003
9.439927e-003
9.439928e-003
9.439930e-003
9.439935e-003
9.439941e-003
9.439947e-003
9.439953e-003
9.439956e-003
9.439953e-003
9.439940e-003
9.439913e-003
9.439867e-003
9.439797e-003
9.439696e-003
9.439559e-003
9.439379e-003
9.439153e-003
9.438877e-003
9.438552e-003
9.438179e-003
9.437766e-003
9.437323e-003
9.436863e-003
9.436401e-003
9.435956e-003
9.435546e-003
9.435189e-003
9.434901e-003
9.434697e-003
9.434585e-003
9.434572e-003
9.434658e-003
9.434838e-003
9.435105e-003
9.435444e-003
9.435841e-003
9.436278e-003
9.436736e-003
9.437197e-003
9.437644e-003
9.438065e-003
9.438447e-003
9.438785e-003
9.439073e-003
9.439311e-003
9.439502e-003
9.439650e-003
9.439759e-003
9.439837e-003
9.439889e-003
9.439921e-003
9.439939e-003
9.439946e-003
9.439946e-003
9.439943e-003
9.439938e-003
9.439933e-003
9.439929e-003
9.439927e-003
9.439925e-003
9.439924e-003
9.439924e-003
9.439923e-003
9.439921e-003
9.439920e-003
9.439920e-003
9.439920e-003
9.439920e-003
9.439920e-003
9.439920e-003
9.439920e-003
9.439920e-003
9.439920e-003
9.439920e-003
9.439920e-003
9.439920e-003
9.439920e-003
9.439920e-003
9.439920e-003
9.439920e-003
9.439920e-003
9.439920e-003
9.439920e-003
9.439920e-003
9.439919e-003
9.439919e-003
9.439920e-003
9.439920e-003
9.439921e-003
9.439921e-003
9.439921e-003
9.439919e-003
9.439919e-003
9.439919e-003
9.439920e-003
9.439922e-003
9.439925e-003
9.439926e-003
9.439927e-003
9.439927e-003
9.439929e-003
9.439932e-003
9.439938e-003
9.439946e-003
9.439953e-003
9.439958e-003
9.439956e-003
9.439942e-003
9.439912e-003
9.439858e-003
9.439770e-003
9.439636e-003
9.439445e-003
9.439183e-003
9.438836e-003
9.438392e-003
9.437843e-003
9.437185e-003
9.436418e-003
9.435553e-003
9.434605e-003
9.433598e-003
9.432562e-003
9.431532e-003
9.430548e-003
9.429647e-003
9.428867e-003
9.428242e-003
9.427800e-003
9.427561e-003
9.427534e-003
9.427722e-003
9.428115e-003
9.428696e-003
9.429439e-003
9.430312e-003
9.431277e-003
9.432297e-003
9.433332e-003
9.434347e-003
9.435310e-003
9.436197e-003
9.436987e-003
9.437673e-003
9.438248e-003
9.438717e-003
9.439087e-003
9.439369e-003
9.439577e-003
9.439724e-003
9.439823e-003
9.439886e-003
9.439922e-003
9.439940e-003
9.439947e-003
9.439946e-003
9.439942e-003
9.439936e-003
9.439931e-003
9.439928e-003
9.439926e-003
9.439925e-003
9.439924e-003
9.439923e-003
9.439922e-003
9.439921e-003
9.439920e-003
9.439919e-003
9.439920e-003
9.439920e-003
9.439920e-003
9.439920e-003
9.439920e-003
9.439920e-003
9.439920e-003
9.439920e-003
9.439920e-003
9.439920e-003
9.439920e-003
9.439920e-003
9.439920e-003
9.439920e-003
9.439920e-003
9.439920e-003
9.439916e-003
9.439918e-003
9.439920e-003
9.439922e-003
9.439922e-003
9.439921e-003
9.439919e-003
9.439918e-003
9.439919e-003
9.439920e-003
9.439923e-003
9.439925e-003
9.439926e-003
9.439927e-003
9.439928e-003
9.439930e-003
9.439935e-003
9.439943e-003
9.439951e-003
9.439958e-003
9.439959e-003
9.439950e-003
9.439922e-003
9.439866e-003
9.439770e-003
9.439616e-003
9.439383e-003
9.439046e-003
9.438577e-003
9.437948e-003
9.437131e-003
9.436105e-003
9.434856e-003
9.433379e-003
9.431684e-003
9.429797e-003
9.427755e-003
9.425612e-003
9.423433e-003
9.421291e-003
9.419262e-003
9.417422e-003
9.415843e-003
9.414586e-003
9.413702e-003
9.413227e-003
9.413178e-003
9.413558e-003
9.414350e-003
9.415524e-003
9.417031e-003
9.418813e-003
9.420800e-003
9.422917e-003
9.425089e-003
9.427241e-003
9.429308e-003
9.431233e-003
9.432973e-003
9.434502e-003
9.435805e-003
9.436883e-003
9.437747e-003
9.438420e-003
9.438925e-003
9.439292e-003
9.439548e-003
9.439720e-003
9.439829e-003
9.439894e-003
9.439929e-003
9.439944e-003
9.439948e-003
9.439945e-003
9.439939e-003
9.439933e-003
9.439929e-003
9.439926e-003
9.439925e-003
9.439924e-003
9.439923e-003
9.439922e-003
9.439921e-003
9.439920e-003
9.439919e-003
9.439920e-003
9.439920e-003
9.439920e-003
9.439920e-003
9.439920e-003
9.439920e-003
9.439920e-003
9.439920e-003
9.439920e-003
9.439920e-003
9.439920e-003
9.439920e-003
9.439920e-003
9.439920e-003
9.439920e-003
9.439915e-003
9.439918e-003
9.439921e-003
9.439922e-003
9.439922e-003
9.439920e-003
9.439918e-003
9.439918e-003
9.439920e-003
9.439923e-003
9.439926e-003
9.439927e-003
9.439927e-003
9.439928e-003
9.439931e-003
9.439938e-003
9.439947e-003
9.439956e-003
9.439962e-003
9.439958e-003
9.439938e-003
9.439890e-003
9.439799e-003
9.439644e-003
9.439394e-003
9.439012e-003
9.438452e-003
9.437662e-003
9.436586e-003
9.435170e-003
9.433364e-003
9.431134e-003
9.428462e-003
9.425354e-003
9.421847e-003
9.418002e-003
9.413911e-003
9.409688e-003
9.405463e-003
9.401376e-003
9.397564e-003
9.394158e-003
9.391274e-003
9.389007e-003
9.387430e-003
9.386592e-003
9.386518e-003
9.387210e-003
9.388645e-003
9.390775e-003
9.393534e-003
9.396828e-003
9.400549e-003
9.404571e-003
9.408758e-003
9.412975e-003
9.417090e-003
9.420986e-003
9.424567e-003
9.427763e-003
9.430533e-003
9.432862e-003
9.434762e-003
9.436265e-003
9.437416e-003
9.438268e-003
9.438877e-003
9.439296e-003
9.439574e-003
9.439749e-003
9.439853e-003
9.439911e-003
9.439938e-003
9.439948e-003
9.439947e-003
9.439942e-003
9.439935e-003
9.439930e-003
9.439927e-003
9.439925e-003
9.439924e-003
9.439923e-003
9.439922e-003
9.439921e-003
9.439920e-003
9.439920e-003
9.439920e-003
9.439920e-003
9.439920e-003
9.439920e-003
9.439920e-003
9.439920e-003
9.439920e-003
9.439920e-003
9.439920e-003
9.439920e-003
9.439920e-003
9.439920e-003
9.439920e-003
9.439920e-003
9.439918e-003
9.439919e-003
9.439921e-003
9.439922e-003
9.439920e-003
9.439919e-003
9.439918e-003
9.439920e-003
9.439923e-003
9.439926e-003
9.439927e-003
9.439927e-003
9.439928e-003
9.439932e-003
9.439940e-003
9.439950e-003
9.439960e-003
9.439963e-003
9.439954e-003
9.439921e-003
9.439848e-003
9.439712e-003
9.439479e-003
9.439098e-003
9.438508e-003
9.437629e-003
9.436369e-003
9.434629e-003
9.432304e-003
9.429302e-003
9.425548e-003
9.420998e-003
9.415656e-003
9.409575e-003
9.402866e-003
9.395693e-003
9.388260e-003
9.380804e-003
9.373565e-003
9.366778e-003
9.360648e-003
9.355342e-003
9.350983e-003
9.347655e-003
9.345403e-003
9.344250e-003
9.344198e-003
9.345242e-003
9.347367e-003
9.350547e-003
9.354734e-003
9.359852e-003
9.365792e-003
9.372402e-003
9.379493e-003
9.386848e-003
9.394234e-003
9.401419e-003
9.408195e-003
9.414388e-003
9.419875e-003
9.424588e-003
9.428509e-003
9.431671e-003
9.434137e-003
9.436000e-003
9.437358e-003
9.438315e-003
9.438963e-003
9.439384e-003
9.439647e-003
9.439802e-003
9.439887e-003
9.439929e-003
9.439946e-003
9.439948e-003
9.439943e-003
9.439937e-003
9.439931e-003
9.439927e-003
9.439925e-003
9.439924e-003
9.439923e-003
9.439922e-003
9.439921e-003
9.439920e-003
9.439920e-003
9.439920e-003
9.439920e-003
9.439920e-003
9.439920e-003
9.439920e-003
9.439920e-003
9.439920e-003
9.439920e-003
9.439920e-003
9.439920e-003
9.439920e-003
9.439920e-003
9.439920e-003
9.439922e-003
9.439922e-003
9.439921e-003
9.439920e-003
9.439918e-003
9.439918e-003
9.439920e-003
9.439923e-003
9.439926e-003
9.439927e-003
9.439928e-003
9.439929e-003
9.439934e-003
9.439942e-003
9.439953e-003
9.439963e-003
9.439964e-003
9.439948e-003
9.439900e-003
9.439799e-003
9.439609e-003
9.439277e-003
9.438730e-003
9.437866e-003
9.436558e-003
9.434655e-003
9.431985e-003
9.428371e-003
9.423645e-003
9.417673e-003
9.410378e-003
9.401773e-003
9.391972e-003
9.381205e-003
9.369808e-003
9.358201e-003
9.346844e-003
9.336189e-003
9.326628e-003
9.318448e-003
9.311803e-003
9.306710e-003
9.303066e-003
9.300685e-003
9.299346e-003
9.298850e-003
9.299066e-003
9.299957e-003
9.301587e-003
9.304104e-003
9.307702e-003
9.312570e-003
9.318840e-003
9.326544e-003
9.335592e-003
9.345758e-003
9.356707e-003
9.368025e-003
9.379271e-003
9.390022e-003
9.399922e-003
9.408711e-003
9.416240e-003
9.422466e-003
9.427438e-003
9.431272e-003
9.434128e-003
9.436181e-003
9.437602e-003
9.438550e-003
9.439156e-003
9.439527e-003
9.439743e-003
9.439860e-003
9.439919e-003
9.439943e-003
9.439948e-003
9.439945e-003
9.439938e-003
9.439931e-003
9.439927e-003
9.439925e-003
9.439924e-003
9.439923e-003
9.439922e-003
9.439921e-003
9.439920e-003
9.439920e-003
9.439920e-003
9.439920e-003
9.439920e-003
9.439920e-003
9.439920e-003
9.439920e-003
9.439920e-003
9.439920e-003
9.439920e-003
9.439920e-003
9.439920e-003
9.439920e-003
9.439927e-003
9.439924e-003
9.439920e-003
9.439917e-003
9.439917e-003
9.439920e-003
9.439923e-003
9.439926e-003
9.439927e-003
9.439928e-003
9.439929e-003
9.439935e-003
9.439944e-003
9.439956e-003
9.439965e-003
9.439964e-003
9.439942e-003
9.439879e-003
9.439747e-003
9.439496e-003
9.439052e-003
9.438304e-003
9.437104e-003
9.435257e-003
9.432525e-003
9.428635e-003
9.423299e-003
9.416242e-003
9.407254e-003
9.396242e-003
9.383289e-003
9.368707e-003
9.353062e-003
9.337157e-003
9.321975e-003
9.308574e-003
9.297943e-003
9.290854e-003
9.287729e-003
9.288549e-003
9.292825e-003
9.299647e-003
9.307796e-003
9.315915e-003
9.322702e-003
9.327105e-003
9.328479e-003
9.326685e-003
9.322107e-003
9.315589e-003
9.308303e-003
9.301570e-003
9.296664e-003
9.294631e-003
9.296151e-003
9.301461e-003
9.310351e-003
9.322221e-003
9.336200e-003
9.351283e-003
9.366480e-003
9.380933e-003
9.393997e-003
9.405273e-003
9.414596e-003
9.421999e-003
9.427654e-003
9.431812e-003
9.434756e-003
9.436762e-003
9.438077e-003
9.438902e-003
9.439398e-003
9.439681e-003
9.439833e-003
9.439909e-003
9.439940e-003
9.439948e-003
9.439945e-003
9.439939e-003
9.439932e-003
9.439927e-003
9.439925e-003
9.439924e-003
9.439923e-003
9.439922e-003
9.439920e-003
9.439920e-003
9.439920e-003
9.439920e-003
9.439920e-003
9.439920e-003
9.439920e-003
9.439920e-003
9.439920e-003
9.439920e-003
9.439920e-003
9.439920e-003
9.439920e-003
9.439920e-003
9.439928e-003
9.439924e-003
9.439919e-003
9.439916e-003
9.439918e-003
9.439922e-003
9.439927e-003
9.439928e-003
9.439928e-003
9.439929e-003
9.439934e-003
9.439945e-003
9.439958e-003
9.439967e-003
9.439965e-003
9.439937e-003
9.439861e-003
9.439698e-003
9.439385e-003
9.438820e-003
9.437851e-003
9.436267e-003
9.433784e-003
9.430052e-003
9.424657e-003
9.417160e-003
9.407150e-003
9.394343e-003
9.378699e-003
9.360566e-003
9.340805e-003
9.320874e-003
9.302815e-003
9.289123e-003
9.282489e-003
9.285435e-003
9.299892e-003
9.326800e-003
9.365809e-003
9.415132e-003
9.471608e-003
9.530958e-003
9.588216e-003
9.638282e-003
9.676517e-003
9.699299e-003
9.704472e-003
9.691610e-003
9.662064e-003
9.618787e-003
9.565962e-003
9.508489e-003
9.451400e-003
9.399289e-003
9.355830e-003
9.323440e-003
9.303130e-003
9.294561e-003
9.296269e-003
9.306024e-003
9.321241e-003
9.339369e-003
9.358200e-003
9.376052e-003
9.391835e-003
9.405005e-003
9.415455e-003
9.423378e-003
9.429135e-003
9.433153e-003
9.435845e-003
9.437577e-003
9.438645e-003
9.439273e-003
9.439625e-003
9.439810e-003
9.439900e-003
9.439938e-003
9.439948e-003
9.439946e-003
9.439939e-003
9.439932e-003
9.439927e-003
9.439925e-003
9.439924e-003
9.439923e-003
9.439922e-003
9.439920e-003
9.439919e-003
9.439920e-003
9.439920e-003
9.439921e-003
9.439920e-003
9.439920e-003
9.439920e-003
9.439920e-003
9.439920e-003
9.439920e-003
9.439920e-003
9.439920e-003
9.439926e-003
9.439922e-003
9.439918e-003
9.439917e-003
9.439921e-003
9.439926e-003
9.439929e-003
9.439929e-003
9.439930e-003
9.439934e-003
9.439944e-003
9.439958e-003
9.439969e-003
9.439966e-003
9.439934e-003
9.439848e-003
9.439660e-003
9.439290e-003
9.438608e-003
9.437414e-003
9.435422e-003
9.432245e-003
9.427385e-003
9.420251e-003
9.410211e-003
9.396698e-003
9.379396e-003
9.358503e-003
9.335050e-003
9.311229e-003
9.290635e-003
9.278316e-003
9.280537e-003
9.304203e-003
9.355989e-003
9.441259e-003
9.562980e-003
9.720813e-003
9.910577e-003
1.012420e-002
1.035019e-002
1.057457e-002
1.078216e-002
1.095806e-002
1.108915e-002
1.116543e-002
1.118103e-002
1.113486e-002
1.103066e-002
1.087663e-002
1.068458e-002
1.046866e-002
1.024397e-002
1.002506e-002
9.824573e-003
9.652136e-003
9.513703e-003
9.411358e-003
9.343639e-003
9.306275e-003
9.293197e-003
9.297625e-003
9.313040e-003
9.333891e-003
9.355983e-003
9.376553e-003
9.394102e-003
9.408104e-003
9.418671e-003
9.426267e-003
9.431489e-003
9.434929e-003
9.437100e-003
9.438411e-003
9.439167e-003
9.439581e-003
9.439794e-003
9.439895e-003
9.439937e-003
9.439948e-003
9.439945e-003
9.439938e-003
9.439931e-003
9.439927e-003
9.439925e-003
9.439924e-003