# vtk DataFile Version 3.0
vtk output
ASCII
DATASET STRUCTURED_POINTS
DIMENSIONS 100 100 1
SPACING 1 1 1
ORIGIN 0 0 0
POINT_DATA 10000
SCALARS SFBox_profile double
LOOKUP_TABLE default 
0.000000e+000
0.000000e+000
0.000000e+000
0.000000e+000
0.000000e+000
0.000000e+000
0.000000e+000
0.000000e+000
0.000000e+000
0.000000e+000
0.000000e+000
0.000000e+000
0.000000e+000
0.000000e+000
0.000000e+000
0.000000e+000
0.000000e+000
0.000000e+000
0.000000e+000
0.000000e+000
0.000000e+000
0.000000e+000
0.000000e+000
0.000000e+000
0.000000e+000
0.000000e+000
0.000000e+000
0.000000e+000
0.000000e+000
0.000000e+000
0.000000e+000
0.000000e+000
0.000000e+000
0.000000e+000
0.000000e+000
0.000000e+000
0.000000e+000
0.000000e+000
0.000000e+000
0.000000e+000
0.000000e+000
0.000000e+000
0.000000e+000
0.000000e+000
0.000000e+000
0.000000e+000
0.000000e+000
0.000000e+000
0.000000e+000
0.000000e+000
0.000000e+000
0.000000e+000
0.000000e+000
0.000000e+000
0.000000e+000
0.000000e+000
0.000000e+000
0.000000e+000
0.000000e+000
0.000000e+000
0.000000e+000
0.000000e+000
0.000000e+000
0.000000e+000
0.000000e+000
0.000000e+000
0.000000e+000
0.000000e+000
0.000000e+000
0.000000e+000
0.000000e+000
0.000000e+000
0.000000e+000
0.000000e+000
0.000000e+000
0.000000e+000
0.000000e+000
0.000000e+000
0.000000e+000
0.000000e+000
0.000000e+000
0.000000e+000
0.000000e+000
0.000000e+000
0.000000e+000
0.000000e+000
0.000000e+000
0.000000e+000
0.000000e+000
0.000000e+000
0.000000e+000
0.000000e+000
0.000000e+000
0.000000e+000
0.000000e+000
0.000000e+000
0.000000e+000
0.000000e+000
0.000000e+000
0.000000e+000
-6.601649e-009
-3.003241e-009
1.590235e-009
4.590909e-009
4.635942e-009
2.109366e-009
-1.296219e-009
-3.665400e-009
-3.923181e-009
-2.274231e-009
1.493383e-010
2.096010e-009
2.886911e-009
2.590189e-009
1.695532e-009
6.471449e-010
-3.872181e-010
-1.406526e-009
-2.328273e-009
-2.887118e-009
-2.784132e-009
-1.936500e-009
-5.867237e-010
8.310417e-010
1.949371e-009
2.636812e-009
2.965618e-009
3.050222e-009
2.921567e-009
2.535027e-009
1.868978e-009
9.968243e-010
6.308588e-011
-8.026173e-010
-1.547513e-009
-2.185115e-009
-2.738905e-009
-3.201954e-009
-3.544606e-009
-3.749863e-009
-3.834975e-009
-3.840558e-009
-3.803457e-009
-3.740681e-009
-3.654796e-009
-3.549294e-009
-3.437161e-009
-3.337052e-009
-3.263675e-009
-3.221492e-009
-3.205413e-009
-3.206603e-009
-3.219186e-009
-3.243294e-009
-3.281246e-009
-3.328391e-009
-3.366537e-009
-3.368602e-009
-3.313481e-009
-3.197356e-009
-3.027164e-009
-2.799312e-009
-2.486360e-009
-2.052169e-009
-1.487673e-009
-8.323534e-010
-1.542162e-010
4.965799e-010
1.110841e-009
1.687595e-009
2.173318e-009
2.443226e-009
2.364902e-009
1.901418e-009
1.158477e-009
3.226660e-010
-4.558831e-010
-1.120947e-009
-1.649102e-009
-1.941314e-009
-1.808190e-009
-1.112213e-009
3.524115e-011
1.216270e-009
1.893383e-009
1.738663e-009
8.610741e-010
-2.515030e-010
-1.039769e-009
-1.203182e-009
-8.232539e-010
-2.274107e-010
2.628633e-010
5.013011e-010
5.144573e-010
3.925614e-010
2.003079e-010
-2.805118e-011
-2.468612e-010
-3.851628e-010
-1.247766e-009
-5.593198e-010
3.111614e-010
8.540301e-010
8.032535e-010
2.609726e-010
-3.832390e-010
-7.034605e-010
-5.107706e-010
2.914185e-011
5.189392e-010
6.118159e-010
2.521420e-010
-2.993730e-010
-6.677668e-010
-6.321888e-010
-2.564294e-010
2.014804e-010
5.032012e-010
5.836845e-010
5.347519e-010
4.668210e-010
3.933613e-010
2.390926e-010
-5.565914e-011
-4.486205e-010
-8.109491e-010
-1.022713e-009
-1.054257e-009
-9.635314e-010
-8.253746e-010
-6.673842e-010
-4.674387e-010
-2.008819e-010
1.183307e-010
4.414634e-010
7.224592e-010
9.478939e-010
1.133420e-009
1.297348e-009
1.440816e-009
1.550999e-009
1.618353e-009
1.648048e-009
1.656058e-009
1.656843e-009
1.655277e-009
1.648347e-009
1.632442e-009
1.608921e-009
1.584042e-009
1.564219e-009
1.550375e-009
1.535764e-009
1.509785e-009
1.465788e-009
1.406041e-009
1.337637e-009
1.261361e-009
1.164778e-009
1.029531e-009
8.488216e-010
6.374583e-010
4.209028e-010
2.115433e-010
-1.950764e-012
-2.357516e-010
-4.777669e-010
-6.768358e-010
-7.735032e-010
-7.480151e-010
-6.368496e-010
-4.960747e-010
-3.461873e-010
-1.591217e-010
9.098450e-011
3.620362e-010
5.393012e-010
5.148870e-010
2.873442e-010
-1.499153e-011
-2.204335e-010
-2.408823e-010
-1.279694e-010
-1.054752e-011
2.447919e-011
-3.804430e-012
-1.511367e-011
3.236771e-011
9.230158e-011
8.096367e-011
-2.488009e-011
-1.460167e-010
-1.642392e-010
-3.616117e-011
1.515581e-010
2.447665e-010
1.531359e-010
-6.526770e-011
-2.442947e-010
5.175940e-009
2.341860e-009
-1.260512e-009
-3.605130e-009
-3.661282e-009
-1.748425e-009
8.640545e-010
2.785266e-009
3.225981e-009
2.240684e-009
4.765750e-010
-1.288064e-009
-2.492906e-009
-2.891860e-009
-2.475565e-009
-1.380092e-009
1.387394e-010
1.710221e-009
2.915072e-009
3.423665e-009
3.124994e-009
2.152910e-009
7.939102e-010
-6.501208e-010
-1.952551e-009
-2.973010e-009
-3.625916e-009
-3.861132e-009
-3.673739e-009
-3.117518e-009
-2.293297e-009
-1.313750e-009
-2.717701e-010
7.664850e-010
1.749114e-009
2.627976e-009
3.362982e-009
3.934165e-009
4.346187e-009
4.619552e-009
4.776971e-009
4.836648e-009
4.815239e-009
4.733458e-009
4.616505e-009
4.488530e-009
4.366652e-009
4.259745e-009
4.172092e-009
4.107764e-009
4.071613e-009
4.066313e-009
4.088455e-009
4.127603e-009
4.169669e-009
4.201820e-009
4.214121e-009
4.195823e-009
4.129980e-009
3.992988e-009
3.761556e-009
3.421554e-009
2.970162e-009
2.409615e-009
1.741387e-009
9.712850e-010
1.245103e-010
-7.433941e-010
-1.552820e-009
-2.220218e-009
-2.674378e-009
-2.857054e-009
-2.717812e-009
-2.225182e-009
-1.400599e-009
-3.512559e-010
7.332177e-010
1.630228e-009
2.151437e-009
2.188398e-009
1.726027e-009
8.472926e-010
-2.521971e-010
-1.264231e-009
-1.835524e-009
-1.718618e-009
-9.353288e-010
1.732437e-010
1.088143e-009
1.389298e-009
9.955326e-010
2.018668e-010
-5.163559e-010
-7.992206e-010
-5.987375e-010
-1.562149e-010
2.009145e-010
2.862454e-010
1.502511e-010
-3.749013e-012
7.542658e-009
3.352592e-009
-1.915619e-009
-5.222156e-009
-5.081514e-009
-2.110244e-009
1.631088e-009
4.006094e-009
3.999169e-009
2.062037e-009
-4.532070e-010
-2.255498e-009
-2.792788e-009
-2.292283e-009
-1.318238e-009
-2.987848e-010
6.289701e-010
1.454215e-009
2.074091e-009
2.267485e-009
1.869972e-009
9.544473e-010
-1.687465e-010
-1.134812e-009
-1.728255e-009
-1.947023e-009
-1.908975e-009
-1.715214e-009
-1.391646e-009
-9.304614e-010
-3.589592e-010
2.418473e-010
7.787955e-010
1.198001e-009
1.497595e-009
1.700277e-009
1.821005e-009
1.859474e-009
1.815134e-009
1.701790e-009
1.545927e-009
1.373529e-009
1.200333e-009
1.033158e-009
8.771652e-010
7.398590e-010
6.289449e-010
5.485713e-010
4.989179e-010
4.789602e-010
4.884838e-010
5.271371e-010
5.925069e-010
6.803680e-010
7.869782e-010
9.099186e-010
1.045295e-009
1.184080e-009
1.312770e-009
1.419117e-009
1.496611e-009
1.540873e-009
1.540117e-009
1.471370e-009
1.311213e-009
1.053952e-009
7.182480e-010
3.322458e-010
-8.778463e-011
-5.371664e-010
-9.924613e-010
-1.380362e-009
-1.588539e-009
-1.526034e-009
-1.186287e-009
-6.523189e-010
-3.647568e-011
5.818961e-010
1.149094e-009
1.566083e-009
1.649733e-009
1.218084e-009
2.723424e-010
-8.803484e-010
-1.717425e-009
-1.797024e-009
-1.061141e-009
9.363262e-011
1.052704e-009
1.363656e-009
9.871031e-010
2.560411e-010
-3.899935e-010
-6.783089e-010
-6.028077e-010
-3.332031e-010
-5.396159e-011
1.376474e-010
2.346857e-010
2.699388e-010
3.961358e-009
1.673629e-009
-1.131970e-009
-2.739532e-009
-2.381621e-009
-5.691293e-010
1.347481e-009
2.101427e-009
1.319094e-009
-3.080821e-010
-1.576744e-009
-1.632827e-009
-5.215380e-010
9.369227e-010
1.792646e-009
1.610326e-009
6.509511e-010
-4.601413e-010
-1.231316e-009
-1.557830e-009
-1.599588e-009
-1.491254e-009
-1.189186e-009
-5.693735e-010
3.686842e-010
1.417101e-009
2.273743e-009
2.736071e-009
2.796875e-009
2.578957e-009
2.198475e-009
1.689364e-009
1.035451e-009
2.478913e-010
-6.006977e-010
-1.411366e-009
-2.116828e-009
-2.704444e-009
-3.192394e-009
-3.593230e-009
-3.901165e-009
-4.106836e-009
-4.216109e-009
-4.252371e-009
-4.243599e-009
-4.209737e-009
-4.160874e-009
-4.103117e-009
-4.043199e-009
-3.988021e-009
-3.942253e-009
-3.907391e-009
-3.881563e-009
-3.858117e-009
-3.824646e-009
-3.766187e-009
-3.671929e-009
-3.538246e-009
-3.362233e-009
-3.130935e-009
-2.820224e-009
-2.410353e-009
-1.905872e-009
-1.337523e-009
-7.394643e-010
-1.247953e-010
5.083723e-010
1.137566e-009
1.683389e-009
2.029729e-009
2.093811e-009
1.884296e-009
1.485594e-009
9.791632e-010
3.872233e-010
-2.880890e-010
-9.610758e-010
-1.417517e-009
-1.419873e-009
-9.064105e-010
-1.055477e-010
5.706864e-010
7.989879e-010
5.639757e-010
1.367597e-010
-1.641556e-010
-2.137559e-010
-1.181678e-010
-4.636140e-011
-4.583997e-011
-2.705080e-011
8.810209e-011
2.329187e-010
2.374962e-010
1.385423e-011
-3.101269e-010
-4.659076e-010
-2.806014e-010
1.444286e-010
4.928916e-010
-2.788407e-009
-1.321402e-009
5.684853e-010
1.883762e-009
2.119104e-009
1.357085e-009
4.439831e-011
-1.295734e-009
-2.212144e-009
-2.354764e-009
-1.537518e-009
1.055278e-010
2.013638e-009
3.347109e-009
3.406745e-009
2.068422e-009
-1.052795e-010
-2.190655e-009
-3.434449e-009
-3.604307e-009
-2.943573e-009
-1.850744e-009
-5.951722e-010
7.223385e-010
2.019631e-009
3.110489e-009
3.751378e-009
3.799910e-009
3.315311e-009
2.503530e-009
1.568691e-009
6.105206e-010
-3.588549e-010
-1.328322e-009
-2.233271e-009
-2.980353e-009
-3.511030e-009
-3.833851e-009
-3.999994e-009
-4.055869e-009
-4.019952e-009
-3.896311e-009
-3.699595e-009
-3.462780e-009
-3.223898e-009
-3.009403e-009
-2.829862e-009
-2.687365e-009
-2.583919e-009
-2.523884e-009
-2.511953e-009
-2.550485e-009
-2.636927e-009
-2.761145e-009
-2.905540e-009
-3.051124e-009
-3.186034e-009
-3.306474e-009
-3.405040e-009
-3.456507e-009
-3.419327e-009
-3.257840e-009
-2.965356e-009
-2.560947e-009
-2.058417e-009
-1.441633e-009
-6.831321e-010
2.005686e-010
1.111594e-009
1.900304e-009
2.445077e-009
2.705626e-009
2.692740e-009
2.389395e-009
1.726338e-009
6.720033e-010
-6.309338e-010
-1.830382e-009
-2.510763e-009
-2.432077e-009
-1.672372e-009
-5.603112e-010
5.290928e-010
1.333474e-009
1.713236e-009
1.585329e-009
9.291167e-010
-1.015376e-010
-1.104297e-009
-1.565173e-009
-1.189542e-009
-1.768222e-010
8.383885e-010
1.204466e-009
7.318344e-010
-1.596333e-010
-7.686722e-010
-6.655964e-010
-2.099402e-011
5.604911e-010
-7.534111e-009
-3.239940e-009
2.026660e-009
5.136396e-009
4.772976e-009
1.821412e-009
-1.586907e-009
-3.562479e-009
-3.450810e-009
-1.833843e-009
1.825862e-010
1.716031e-009
2.404474e-009
2.267506e-009
1.469893e-009
2.476857e-010
-1.040537e-009
-1.942039e-009
-2.106782e-009
-1.509394e-009
-4.784795e-010
5.181300e-010
1.156804e-009
1.382890e-009
1.314239e-009
1.062741e-009
6.538022e-010
8.772160e-011
-5.645559e-010
-1.153432e-009
-1.538702e-009
-1.677025e-009
-1.622541e-009
-1.451894e-009
-1.196596e-009
-8.431742e-010
-3.835333e-010
1.475604e-010
6.848612e-010
1.174516e-009
1.599963e-009
1.971581e-009
2.299032e-009
2.576584e-009
2.790933e-009
2.936901e-009
3.023335e-009
3.066158e-009
3.078006e-009
3.063179e-009
3.018866e-009
2.939465e-009
2.821642e-009
2.668026e-009
2.485962e-009
2.279841e-009
2.043099e-009
1.760461e-009
1.422934e-009
1.042271e-009
6.470746e-010
2.601951e-010
-1.188210e-010
-5.016389e-010
-8.756932e-010
-1.183756e-009
-1.349434e-009
-1.331652e-009
-1.153004e-009
-8.679579e-010
-5.038947e-010
-4.736353e-011
4.947376e-010
1.018679e-009
1.328530e-009
1.248498e-009
7.561794e-010
1.583008e-011
-7.179731e-010
-1.231909e-009
-1.406272e-009
-1.181584e-009
-5.423066e-010
4.075121e-010
1.350236e-009
1.810650e-009
1.428194e-009
2.782585e-010
-1.052457e-009
-1.784102e-009
-1.472504e-009
-3.464651e-010
8.355293e-010
1.324010e-009
9.049554e-010
1.191940e-011
-6.478953e-010
-6.450314e-010
-1.239226e-010
3.698838e-010
-6.755747e-009
-2.619354e-009
2.243958e-009
4.693285e-009
3.640305e-009
4.057527e-010
-2.495185e-009
-3.183539e-009
-1.567329e-009
8.811341e-010
2.374584e-009
2.062384e-009
4.134932e-010
-1.367697e-009
-2.273236e-009
-2.035507e-009
-1.018008e-009
2.476339e-010
1.403114e-009
2.276430e-009
2.726563e-009
2.586181e-009
1.777436e-009
4.466811e-010
-1.057359e-009
-2.361972e-009
-3.246098e-009
-3.673795e-009
-3.698845e-009
-3.364966e-009
-2.693331e-009
-1.734771e-009
-6.009657e-010
5.692015e-010
1.671230e-009
2.661443e-009
3.531059e-009
4.266408e-009
4.839019e-009
5.228367e-009
5.445044e-009
5.527928e-009
5.520774e-009
5.453074e-009
5.340225e-009
5.196040e-009
5.041300e-009
4.900765e-009
4.793862e-009
4.728051e-009
4.699073e-009
4.696585e-009
4.711173e-009
4.738054e-009
4.773894e-009
4.808115e-009
4.816862e-009
4.768376e-009
4.637882e-009
4.417448e-009
4.107956e-009
3.699633e-009
3.164839e-009
2.478397e-009
1.650129e-009
7.352280e-010
-1.920541e-010
-1.073557e-009
-1.868303e-009
-2.514373e-009
-2.899973e-009
-2.895812e-009
-2.439148e-009
-1.596415e-009
-5.434733e-010
5.141039e-010
1.397621e-009
1.945770e-009
1.996873e-009
1.454451e-009
4.287237e-010
-6.900846e-010
-1.373988e-009
-1.281412e-009
-5.229876e-010
3.793623e-010
8.496660e-010
6.610410e-010
6.185387e-011
-4.625562e-010
-5.731951e-010
-2.887298e-010
1.094325e-010
3.422410e-010
3.243105e-010
1.566090e-010
-1.089843e-011
-9.745651e-011
-1.112496e-010
-1.002252e-010
-1.145018e-009
-5.178167e-011
9.955443e-010
1.012440e-009
-1.010160e-010
-1.464051e-009
-1.861515e-009
-7.010572e-010
1.430982e-009
3.086423e-009
2.970322e-009
9.117652e-010
-1.958068e-009
-3.966676e-009
-4.015683e-009
-2.218137e-009
3.468336e-010
2.455085e-009
3.446867e-009
3.361983e-009
2.587651e-009
1.458302e-009
1.411333e-010
-1.224566e-009
-2.398254e-009
-3.095714e-009
-3.163168e-009
-2.673611e-009
-1.851523e-009
-9.128331e-010
2.963854e-011
9.394913e-010
1.778992e-009
2.476959e-009
2.963741e-009
3.218389e-009
3.273213e-009
3.178056e-009
2.967462e-009
2.660037e-009
2.278608e-009
1.861372e-009
1.451637e-009
1.079859e-009
7.572863e-010
4.848945e-010
2.657553e-010
1.086929e-010
2.227115e-011
7.227799e-012
5.519594e-011
1.547660e-010
2.993396e-010
4.894899e-010
7.269150e-010
1.004992e-009
1.305654e-009
1.607347e-009
1.896655e-009
2.169448e-009
2.416972e-009
2.610754e-009
2.706041e-009
2.664964e-009
2.475735e-009
2.144655e-009
1.669715e-009
1.033298e-009
2.365840e-010
-6.522187e-010
-1.491932e-009
-2.123893e-009
-2.438986e-009
-2.388914e-009
-1.942947e-009
-1.072800e-009
1.672407e-010
1.520572e-009
2.524653e-009
2.717041e-009
1.943957e-009
5.209363e-010
-9.190117e-010
-1.793504e-009
-1.871829e-009
-1.301531e-009
-4.124104e-010
4.775886e-010
1.111963e-009
1.274713e-009
8.559333e-010
6.368239e-012
-8.171106e-010
-1.086074e-009
-6.055356e-010
2.667937e-010
8.515762e-010
6.942365e-010
-3.955399e-011
-6.948268e-010
5.190809e-009
2.400526e-009
-1.071029e-009
-3.276490e-009
-3.394749e-009
-1.855176e-009
2.727649e-010
2.001560e-009
2.765829e-009
2.391980e-009
1.017749e-009
-8.709793e-010
-2.458324e-009
-2.910093e-009
-1.899847e-009
6.948072e-011
1.905656e-009
2.622766e-009
1.964872e-009
4.773804e-010
-9.762648e-010
-1.805219e-009
-1.927914e-009
-1.576781e-009
-9.685489e-010
-1.668079e-010
8.099514e-010
1.835550e-009
2.674089e-009
3.122215e-009
3.134954e-009
2.814265e-009
2.294357e-009
1.648597e-009
8.922382e-010
4.482516e-011
-8.311108e-010
-1.651182e-009
-2.355647e-009
-2.929570e-009
-3.384324e-009
-3.729487e-009
-3.965034e-009
-4.094199e-009
-4.135653e-009
-4.119779e-009
-4.074250e-009
-4.014414e-009
-3.946119e-009
-3.874609e-009
-3.808196e-009
-3.752792e-009
-3.704124e-009
-3.647268e-009
-3.565331e-009
-3.448540e-009
-3.293322e-009
-3.091696e-009
-2.824000e-009
-2.466992e-009
-2.012235e-009
-1.474659e-009
-8.790037e-010
-2.389119e-010
4.417429e-010
1.137477e-009
1.772264e-009
2.234960e-009
2.437294e-009
2.358823e-009
2.028644e-009
1.467288e-009
6.735701e-010
-2.970965e-010
-1.234549e-009
-1.794100e-009
-1.685862e-009
-9.051756e-010
2.051843e-010
1.142362e-009
1.535194e-009
1.304980e-009
6.064596e-010
-3.180507e-010
-1.194252e-009
-1.685296e-009
-1.454066e-009
-4.159860e-010
1.007315e-009
1.976958e-009
1.773746e-009
4.205670e-010
-1.189656e-009
-1.899338e-009
-1.203714e-009
3.014701e-010
1.383851e-009
1.200360e-009
6.422893e-012
-1.083340e-009
7.970034e-009
2.929513e-009
-2.806968e-009
-5.419364e-009
-3.902718e-009
-1.810472e-010
2.779211e-009
3.199023e-009
1.410392e-009
-8.989965e-010
-2.166220e-009
-1.901740e-009
-6.052997e-010
9.050134e-010
2.015565e-009
2.394772e-009
1.876171e-009
4.829234e-010
-1.414304e-009
-3.097046e-009
-3.822526e-009
-3.267123e-009
-1.709842e-009
2.025232e-010
1.887269e-009
3.089260e-009
3.821103e-009
4.140156e-009
4.023107e-009
3.429391e-009
2.427031e-009
1.215369e-009
2.028957e-011
-1.023099e-009
-1.890839e-009
-2.599711e-009
-3.137635e-009
-3.461920e-009
-3.547381e-009
-3.420443e-009
-3.145207e-009
-2.784145e-009
-2.375606e-009
-1.942456e-009
-1.511367e-009
-1.117740e-009
-7.937134e-010
-5.560131e-010
-4.071137e-010
-3.457644e-010
-3.731727e-010
-4.885016e-010
-6.812758e-010
-9.320317e-010
-1.221858e-009
-1.539163e-009
-1.873637e-009
-2.202917e-009
-2.489082e-009
-2.693211e-009
-2.793591e-009
-2.783981e-009
-2.649355e-009
-2.348216e-009
-1.832617e-009
-1.097014e-009
-2.061303e-010
7.350938e-010
1.641203e-009
2.462383e-009
3.125573e-009
3.467381e-009
3.267070e-009
2.401139e-009
9.995791e-010
-5.535872e-010
-1.801983e-009
-2.433859e-009
-2.363805e-009
-1.668065e-009
-5.197374e-010
7.728862e-010
1.725008e-009
1.831450e-009
9.350825e-010
-4.918337e-010
-1.520435e-009
-1.405554e-009
-2.173959e-010
1.126132e-009
1.554021e-009
7.261500e-010
-6.632690e-010
-1.462414e-009
-1.040382e-009
1.846494e-010
1.131553e-009
1.011390e-009
4.986738e-012
-9.287558e-010
5.714969e-009
1.361162e-009
-3.154799e-009
-4.315901e-009
-1.686559e-009
2.161222e-009
3.965841e-009
2.370776e-009
-1.218436e-009
-3.983127e-009
-3.948450e-009
-1.309019e-009
2.030761e-009
4.040660e-009
3.880818e-009
2.075214e-009
-2.381529e-010
-2.129004e-009
-3.167033e-009
-3.255055e-009
-2.436179e-009
-9.127372e-010
8.709305e-010
2.330514e-009
3.031044e-009
2.913074e-009
2.247318e-009
1.379659e-009
5.150987e-010
-2.936576e-010
-1.015987e-009
-1.553099e-009
-1.779536e-009
-1.644914e-009
-1.211751e-009
-5.950496e-010
1.220318e-010
9.123980e-010
1.763989e-009
2.635154e-009
3.456397e-009
4.168213e-009
4.749334e-009
5.209770e-009
5.564536e-009
5.818676e-009
5.973514e-009
6.038594e-009
6.031896e-009
5.969193e-009
5.856715e-009
5.694971e-009
5.486165e-009
5.233504e-009
4.932879e-009
4.569974e-009
4.131076e-009
3.617686e-009
3.046350e-009
2.430880e-009
1.768853e-009
1.055635e-009
3.180486e-010
-3.708342e-010
-9.221913e-010
-1.282321e-009
-1.446495e-009
-1.413936e-009
-1.137316e-009
-5.457919e-010
3.514835e-010
1.377357e-009
2.221450e-009
2.591932e-009
2.357113e-009
1.564052e-009
3.650611e-010
-1.016676e-009
-2.233630e-009
-2.804169e-009
-2.313905e-009
-7.772883e-010
1.159852e-009
2.480555e-009
2.445487e-009
1.146017e-009
-5.287776e-010
-1.532880e-009
-1.403625e-009
-5.065381e-010
3.679304e-010
6.580648e-010
3.810043e-010
-3.881750e-011
-2.140773e-010
-9.142279e-011
1.039761e-010
1.428482e-010
2.661894e-012
-1.505517e-010
3.130492e-010
-9.015913e-010
-1.703366e-009
-8.802303e-010
1.239327e-009
2.980118e-009
2.702610e-009
2.535103e-010
-2.746297e-009
-4.085484e-009
-2.693428e-009
4.981155e-010
3.270858e-009
3.805549e-009
1.957036e-009
-8.340063e-010
-2.757225e-009
-2.882158e-009
-1.515255e-009
3.647234e-010
1.899488e-009
2.717484e-009
2.798458e-009
2.214655e-009
1.070141e-009
-3.984912e-010
-1.798705e-009
-2.740436e-009
-3.035415e-009
-2.742482e-009
-2.036101e-009
-1.051216e-009
1.527136e-010
1.518838e-009
2.929485e-009
4.230028e-009
5.304011e-009
6.113387e-009
6.670987e-009
6.989563e-009
7.065193e-009
6.902103e-009
6.539626e-009
6.048305e-009
5.502271e-009
4.958121e-009
4.455946e-009
4.030821e-009
3.716010e-009
3.535149e-009
3.495660e-009
3.591574e-009
3.809506e-009
4.127669e-009
4.509721e-009
4.905915e-009
5.266615e-009
5.555149e-009
5.743063e-009
5.791311e-009
5.643530e-009
5.249939e-009
4.603963e-009
3.750427e-009
2.750282e-009
1.640912e-009
4.472086e-010
-7.555928e-010
-1.797590e-009
-2.457669e-009
-2.575736e-009
-2.134614e-009
-1.243031e-009
-6.740110e-011
1.181714e-009
2.194459e-009
2.567560e-009
1.996780e-009
5.757755e-010
-1.081400e-009
-2.111567e-009
-1.947098e-009
-7.198403e-010
8.182127e-010
1.799859e-009
1.769794e-009
8.654623e-010
-3.771513e-010
-1.349086e-009
-1.612604e-009
-1.044539e-009
7.876482e-011
1.131248e-009
1.445110e-009
7.864011e-010
-3.778550e-010
-1.158784e-009
-9.488980e-010
3.848482e-011
9.235484e-010
-4.817047e-009
-2.173151e-009
1.017486e-009
2.885103e-009
2.767406e-009
1.235344e-009
-6.030059e-010
-1.808040e-009
-1.905895e-009
-9.057069e-010
7.008434e-010
2.005923e-009
2.067884e-009
5.714412e-010
-1.742884e-009
-3.402776e-009
-3.192645e-009
-1.053597e-009
1.860824e-009
4.013305e-009
4.488906e-009
3.400098e-009
1.522864e-009
-3.565630e-010
-1.810396e-009
-2.704409e-009
-2.976950e-009
-2.567257e-009
-1.515770e-009
-4.237697e-011
1.530110e-009
2.935706e-009
4.048444e-009
4.832647e-009
5.248867e-009
5.225865e-009
4.710438e-009
3.719899e-009
2.336428e-009
6.588748e-010
-1.231142e-009
-3.261921e-009
-5.347563e-009
-7.383224e-009
-9.265050e-009
-1.091109e-008
-1.226395e-008
-1.328024e-008
-1.392386e-008
-1.416926e-008
-1.400682e-008
-1.344298e-008
-1.249861e-008
-1.121190e-008
-9.642326e-009
-7.865802e-009
-5.960375e-009
-3.997125e-009
-2.048819e-009
-2.063625e-010
1.423067e-009
2.745720e-009
3.712139e-009
4.312072e-009
4.534336e-009
4.340375e-009
3.695199e-009
2.634935e-009
1.299031e-009
-1.116410e-010
-1.400844e-009
-2.385623e-009
-2.850096e-009
-2.555234e-009
-1.393011e-009
3.997443e-010
2.194328e-009
3.230691e-009
3.050722e-009
1.778347e-009
3.175027e-011
-1.435411e-009
-2.079066e-009
-1.720721e-009
-5.649638e-010
8.286168e-010
1.687532e-009
1.411000e-009
6.993565e-011
-1.432477e-009
-1.901911e-009
-8.351351e-010
1.004151e-009
2.090511e-009
1.440049e-009
-4.368545e-010
-1.902241e-009
-1.647852e-009
8.197344e-011
1.686861e-009
-7.134163e-009
-1.806566e-009
3.685517e-009
5.150126e-009
2.233894e-009
-2.000908e-009
-4.034165e-009
-2.649584e-009
6.180469e-010
3.196583e-009
3.514145e-009
1.751139e-009
-8.123570e-010
-2.851830e-009
-3.575692e-009
-2.770278e-009
-7.287998e-010
1.761271e-009
3.599890e-009
3.892002e-009
2.520985e-009
2.700274e-010
-1.681268e-009
-2.493064e-009
-2.051622e-009
-7.877448e-010
7.798050e-010
2.334109e-009
3.724632e-009
4.795537e-009
5.327310e-009
5.133339e-009
4.163108e-009
2.486804e-009
1.934573e-010
-2.677056e-009
-6.109332e-009
-1.004697e-008
-1.436788e-008
-1.891839e-008
-2.355825e-008
-2.817082e-008
-3.264266e-008
-3.684756e-008
-4.065445e-008
-4.394656e-008
-4.663069e-008
-4.863255e-008
-4.988995e-008
-5.035316e-008
-4.999064e-008
-4.879490e-008
-4.678808e-008
-4.402787e-008
-4.060867e-008
-3.665200e-008
-3.229097e-008
-2.766304e-008
-2.291729e-008
-1.822061e-008
-1.374152e-008
-9.614421e-009
-5.917730e-009
-2.693443e-009
9.865325e-012
2.121327e-009
3.581505e-009
4.383060e-009
4.559015e-009
4.128706e-009
3.090919e-009
1.526936e-009
-2.600902e-010
-1.740067e-009
-2.371085e-009
-1.908225e-009
-5.636238e-010
1.101586e-009
2.438295e-009
2.926538e-009
2.297739e-009
6.580487e-010
-1.383106e-009
-2.803480e-009
-2.686932e-009
-9.599148e-010
1.302683e-009
2.502493e-009
1.764794e-009
-2.441230e-010
-1.791643e-009
-1.571166e-009
1.086496e-010
1.598913e-009
1.462710e-009
-1.500819e-010
-1.648368e-009
-1.551102e-009
6.146082e-011
1.624926e-009
-6.129666e-009
-4.634420e-010
4.810264e-009
5.035824e-009
5.140912e-010
-4.380412e-009
-5.366831e-009
-1.855410e-009
2.977723e-009
5.242250e-009
3.531140e-009
-3.803067e-010
-3.445036e-009
-3.812283e-009
-1.810398e-009
8.864988e-010
2.711561e-009
3.012825e-009
1.960586e-009
1.236471e-010
-1.776668e-009
-2.964421e-009
-2.826304e-009
-1.246431e-009
1.254037e-009
3.786875e-009
5.592508e-009
6.354723e-009
6.125487e-009
5.027560e-009
3.053912e-009
1.007561e-010
-3.891986e-009
-8.881971e-009
-1.478876e-008
-2.157327e-008
-2.923218e-008
-3.772336e-008
-4.691132e-008
-5.658241e-008
-6.649775e-008
-7.642445e-008
-8.612678e-008
-9.534700e-008
-1.038074e-007
-1.112344e-007
-1.173823e-007
-1.220432e-007
-1.250461e-007
-1.262582e-007
-1.255925e-007
-1.230216e-007
-1.185911e-007
-1.124287e-007
-1.047401e-007
-9.579335e-008
-8.589901e-008
-7.539929e-008
-6.466396e-008
-5.407363e-008
-4.397776e-008
-3.464521e-008
-2.624425e-008
-1.886605e-008
-1.255782e-008
-7.321358e-009
-3.084961e-009
2.861907e-010
2.899464e-009
4.724543e-009
5.589761e-009
5.337507e-009
4.030951e-009
2.034381e-009
-9.517335e-011
-1.791344e-009
-2.598878e-009
-2.245985e-009
-7.867461e-010
1.211334e-009
2.707177e-009
2.696555e-009
9.900579e-010
-1.404809e-009
-2.836604e-009
-2.248519e-009
-9.576404e-011
1.949517e-009
2.359787e-009
1.011780e-009
-7.922829e-010
-1.547732e-009
-8.616670e-010
3.455864e-010
8.543840e-010
3.227511e-010
-5.071561e-010
-6.837164e-010
-4.462795e-011
6.740936e-010
-2.845475e-009
7.004773e-010
3.568616e-009
2.736458e-009
-1.023836e-009
-4.123359e-009
-3.628171e-009
4.439034e-011
3.604242e-009
3.942771e-009
8.753444e-010
-2.847748e-009
-4.067909e-009
-1.870704e-009
1.899944e-009
4.409933e-009
4.086540e-009
1.483906e-009
-1.576270e-009
-3.466936e-009
-3.568437e-009
-2.134471e-009
2.216980e-010
2.832815e-009
5.019797e-009
6.151242e-009
5.838617e-009
4.075208e-009
1.111791e-009
-2.859232e-009
-7.930953e-009
-1.444273e-008
-2.276775e-008
-3.315101e-008
-4.570500e-008
-6.048158e-008
-7.748786e-008
-9.661917e-008
-1.175903e-007
-1.399402e-007
-1.631002e-007
-1.864577e-007
-2.093773e-007
-2.311959e-007
-2.512324e-007
-2.688255e-007
-2.833785e-007
-2.943881e-007
-3.014537e-007
-3.042803e-007
-3.026899e-007
-2.966426e-007
-2.862594e-007
-2.718327e-007
-2.538196e-007
-2.328190e-007
-2.095470e-007
-1.848176e-007
-1.595154e-007
-1.345404e-007
-1.107248e-007
-8.875295e-008
-6.912662e-008
-5.217081e-008
-3.803639e-008
-2.666613e-008
-1.776335e-008
-1.084655e-008
-5.414696e-009
-1.130938e-009
2.109416e-009
4.259765e-009
5.247994e-009
5.040324e-009
3.675996e-009
1.389029e-009
-1.204834e-009
-3.107621e-009
-3.361354e-009
-1.740428e-009
8.587687e-010
2.834376e-009
2.954053e-009
1.271889e-009
-9.111180e-010
-2.056744e-009
-1.538166e-009
4.272450e-012
1.306903e-009
1.493204e-009
6.213631e-010
-5.424783e-010
-1.184491e-009
-9.770974e-010
-1.817988e-010
6.174338e-010
9.094667e-010
5.541513e-010
-1.572233e-010
-7.077415e-010
1.259449e-009
1.041065e-009
3.494603e-010
-7.494207e-010
-1.574169e-009
-1.291990e-009
1.965162e-010
1.840899e-009
2.115136e-009
3.919633e-010
-2.222477e-009
-3.558447e-009
-2.182134e-009
1.227604e-009
4.252004e-009
4.636991e-009
2.097509e-009
-1.515822e-009
-3.728498e-009
-3.243327e-009
-5.877705e-010
2.637961e-009
4.984393e-009
5.808562e-009
5.115815e-009
3.079893e-009
-2.346434e-010
-4.882787e-009
-1.103270e-008
-1.907995e-008
-2.974873e-008
-4.399747e-008
-6.275017e-008
-8.665274e-008
-1.160019e-007
-1.508037e-007
-1.908201e-007
-2.355347e-007
-2.841020e-007
-3.353675e-007
-3.879718e-007
-4.404690e-007
-4.914006e-007
-5.393247e-007
-5.828435e-007
-6.206550e-007
-6.516121e-007
-6.747641e-007
-6.893701e-007
-6.949008e-007
-6.910514e-007
-6.777709e-007
-6.552953e-007
-6.241672e-007
-5.852327e-007
-5.396229e-007
-4.887335e-007
-4.341991e-007
-3.778379e-007
-3.215454e-007
-2.671479e-007
-2.162655e-007
-1.702268e-007
-1.300224e-007
-9.624989e-008
-6.903450e-008
-4.798758e-008
-3.228649e-008
-2.087529e-008
-1.267992e-008
-6.737197e-009
-2.260617e-009
1.252837e-009
3.873192e-009
5.234089e-009
4.869952e-009
2.791182e-009
-1.476522e-010
-2.506043e-009
-3.077699e-009
-1.681559e-009
7.075954e-010
2.602016e-009
2.933536e-009
1.639834e-009
-3.957977e-010
-1.916125e-009
-2.027500e-009
-7.457828e-010
9.616132e-010
1.783735e-009
1.050598e-009
-6.355751e-010
-1.789800e-009
-1.311097e-009
4.458902e-010
1.886757e-009
1.627125e-009
-1.540392e-010
-1.821334e-009
4.978031e-009
7.382013e-010
-3.394836e-009
-4.031444e-009
-1.163319e-009
2.434845e-009
3.870592e-009
2.342711e-009
-7.105957e-010
-3.082862e-009
-3.362281e-009
-1.562379e-009
1.153374e-009
3.175292e-009
3.269400e-009
1.308957e-009
-1.483245e-009
-3.160804e-009
-2.334089e-009
8.006902e-010
4.548172e-009
6.875211e-009
6.678697e-009
4.161233e-009
1.718421e-010