# vtk DataFile Version 3.0
vtk output
ASCII
DATASET STRUCTURED_POINTS
DIMENSIONS 100 100 1
SPACING 1 1 1
ORIGIN 0 0 0
POINT_DATA 10000
SCALARS SFBox_profile double
LOOKUP_TABLE default 
0.000000e+000
0.000000e+000
0.000000e+000
0.000000e+000
0.000000e+000
0.000000e+000
0.000000e+000
0.000000e+000
0.000000e+000
0.000000e+000
0.000000e+000
0.000000e+000
0.000000e+000
0.000000e+000
0.000000e+000
0.000000e+000
0.000000e+000
0.000000e+000
0.000000e+000
0.000000e+000
0.000000e+000
0.000000e+000
0.000000e+000
0.000000e+000
0.000000e+000
0.000000e+000
0.000000e+000
0.000000e+000
0.000000e+000
0.000000e+000
0.000000e+000
0.000000e+000
0.000000e+000
0.000000e+000
0.000000e+000
0.000000e+000
0.000000e+000
0.000000e+000
0.000000e+000
0.000000e+000
0.000000e+000
0.000000e+000
0.000000e+000
0.000000e+000
0.000000e+000
0.000000e+000
0.000000e+000
0.000000e+000
0.000000e+000
0.000000e+000
0.000000e+000
0.000000e+000
0.000000e+000
0.000000e+000
0.000000e+000
0.000000e+000
0.000000e+000
0.000000e+000
0.000000e+000
0.000000e+000
0.000000e+000
0.000000e+000
0.000000e+000
0.000000e+000
0.000000e+000
0.000000e+000
0.000000e+000
0.000000e+000
0.000000e+000
0.000000e+000
0.000000e+000
0.000000e+000
0.000000e+000
0.000000e+000
0.000000e+000
0.000000e+000
0.000000e+000
0.000000e+000
0.000000e+000
0.000000e+000
0.000000e+000
0.000000e+000
0.000000e+000
0.000000e+000
0.000000e+000
0.000000e+000
0.000000e+000
0.000000e+000
0.000000e+000
0.000000e+000
0.000000e+000
0.000000e+000
0.000000e+000
0.000000e+000
0.000000e+000
0.000000e+000
0.000000e+000
0.000000e+000
0.000000e+000
0.000000e+000
1.711762e-008
9.263085e-009
-1.399098e-009
-8.257371e-009
-7.636998e-009
-1.127204e-009
5.883230e-009
8.276505e-009
4.768466e-009
-1.650556e-009
-6.441243e-009
-6.953589e-009
-3.824466e-009
3.647986e-010
3.463482e-009
4.922677e-009
5.144286e-009
4.291707e-009
2.077730e-009
-1.394529e-009
-4.984662e-009
-7.038623e-009
-6.639776e-009
-4.282684e-009
-1.307345e-009
1.244072e-009
3.189209e-009
4.802743e-009
6.115075e-009
6.742189e-009
6.327926e-009
4.986955e-009
3.239375e-009
1.567285e-009
1.044556e-010
-1.268618e-009
-2.627998e-009
-3.866579e-009
-4.812893e-009
-5.411842e-009
-5.756989e-009
-5.975627e-009
-6.120558e-009
-6.171546e-009
-6.107354e-009
-5.953085e-009
-5.767672e-009
-5.607607e-009
-5.505371e-009
-5.463836e-009
-5.457704e-009
-5.451432e-009
-5.437716e-009
-5.460715e-009
-5.577215e-009
-5.774119e-009
-5.938226e-009
-5.945256e-009
-5.792401e-009
-5.606478e-009
-5.473358e-009
-5.266371e-009
-4.712680e-009
-3.684063e-009
-2.387329e-009
-1.174688e-009
-1.345189e-010
1.038530e-009
2.646018e-009
4.458499e-009
5.723091e-009
5.821255e-009
4.885128e-009
3.620384e-009
2.474309e-009
1.131569e-009
-9.708518e-010
-3.628328e-009
-5.589837e-009
-5.522524e-009
-3.294892e-009
-1.937463e-010
2.188071e-009
3.204303e-009
3.260114e-009
2.847535e-009
1.811807e-009
-2.097676e-010
-2.740689e-009
-4.236924e-009
-3.267984e-009
-5.895420e-011
3.263459e-009
4.222812e-009
2.071023e-009
-1.485783e-009
-3.629472e-009
-2.728425e-009
3.474560e-010
2.981149e-009
-1.786226e-009
-1.063213e-009
-8.324835e-011
6.059813e-010
7.564576e-010
4.637377e-010
-5.329074e-011
-6.038054e-010
-9.639727e-010
-8.264758e-010
-1.660490e-011
1.162941e-009
1.921383e-009
1.525627e-009
-8.386699e-012
-1.784572e-009
-2.682993e-009
-2.228728e-009
-8.592803e-010
6.034594e-010
1.665611e-009
2.341695e-009
2.755245e-009
2.752609e-009
2.018755e-009
5.241848e-010
-1.269055e-009
-2.711269e-009
-3.450434e-009
-3.591057e-009
-3.419937e-009
-3.059415e-009
-2.417247e-009
-1.412842e-009
-1.646895e-010
1.071396e-009
2.109459e-009
2.942949e-009
3.665310e-009
4.326868e-009
4.887804e-009
5.285986e-009
5.515625e-009
5.632335e-009
5.700580e-009
5.751012e-009
5.780927e-009
5.778289e-009
5.740866e-009
5.683938e-009
5.638651e-009
5.635114e-009
5.672385e-009
5.704959e-009
5.676649e-009
5.580953e-009
5.475512e-009
5.410434e-009
5.337001e-009
5.117477e-009
4.658736e-009
4.028160e-009
3.390682e-009
2.803860e-009
2.112221e-009
1.112347e-009
-1.601812e-010
-1.368701e-009
-2.165829e-009
-2.532140e-009
-2.745304e-009
-2.973448e-009
-2.971982e-009
-2.302134e-009
-8.827743e-010
7.597488e-010
1.883740e-009
2.168638e-009
1.896162e-009
1.501087e-009
1.056046e-009
3.142030e-010
-7.656141e-010
-1.696903e-009
-1.809151e-009
-9.267743e-010
3.675806e-010
1.197634e-009
1.121051e-009
4.133197e-010
-2.915133e-010
-5.650219e-010
-4.195225e-010
-1.189393e-010
1.176546e-010
2.235429e-010
2.106203e-010
9.926136e-011
-6.469148e-011
-1.888471e-010
-2.005617e-008
-1.097187e-008
1.293766e-009
9.162020e-009
8.623034e-009
1.621044e-009
-5.948312e-009
-8.759658e-009
-5.533562e-009
8.662995e-010
6.160423e-009
7.654010e-009
5.350039e-009
1.022576e-009
-3.326845e-009
-6.310739e-009
-7.170624e-009
-5.647208e-009
-2.117368e-009
2.291225e-009
6.047345e-009
7.938196e-009
7.604973e-009
5.495329e-009
2.401866e-009
-9.444542e-010
-3.983228e-009
-6.274535e-009
-7.513278e-009
-7.620397e-009
-6.761783e-009
-5.229758e-009
-3.294587e-009
-1.155003e-009
1.018049e-009
3.049882e-009
4.799145e-009
6.211921e-009
7.318524e-009
8.173570e-009
8.804628e-009
9.214698e-009
9.418196e-009
9.461447e-009
9.408184e-009
9.311027e-009
9.197242e-009
9.075964e-009
8.954945e-009
8.851799e-009
8.791075e-009
8.788254e-009
8.833911e-009
8.896780e-009
8.949219e-009
8.989955e-009
9.032088e-009
9.060479e-009
9.007316e-009
8.785814e-009
8.353741e-009
7.730178e-009
6.935395e-009
5.924036e-009
4.606935e-009
2.954574e-009
1.063935e-009
-8.948856e-010
-2.780512e-009
-4.486756e-009
-5.839706e-009
-6.546059e-009
-6.321055e-009
-5.093641e-009
-3.060842e-009
-5.438918e-010
2.133424e-009
4.557817e-009
6.089184e-009
6.023638e-009
4.102429e-009
9.142498e-010
-2.300606e-009
-4.363051e-009
-4.754310e-009
-3.623570e-009
-1.417071e-009
1.292057e-009
3.629888e-009
4.429749e-009
2.900108e-009
-4.350476e-010
-3.587451e-009
-4.326492e-009
-1.992568e-009
1.721013e-009
3.941115e-009
2.928584e-009
-4.296200e-010
-3.311188e-009
-1.820344e-008
-9.775459e-009
1.508925e-009
8.500573e-009
7.513371e-009
6.845216e-010
-6.038233e-009
-7.595994e-009
-3.448331e-009
2.626023e-009
6.040508e-009
5.008650e-009
1.296201e-009
-1.999660e-009
-3.162432e-009
-2.622543e-009
-1.647526e-009
-8.116426e-010
1.630770e-010
1.447259e-009
2.470052e-009
2.408426e-009
1.135456e-009
-5.352204e-010
-1.570600e-009
-1.575489e-009
-9.206016e-010
-1.729689e-010
4.449614e-010
1.052980e-009
1.749717e-009
2.396179e-009
2.752199e-009
2.727920e-009
2.444916e-009
2.084435e-009
1.732283e-009
1.373668e-009
9.887007e-010
6.105196e-010
2.944615e-010
6.135991e-011
-1.120388e-010
-2.563447e-010
-3.786942e-010
-4.689261e-010
-5.239879e-010
-5.562899e-010
-5.795364e-010
-5.951790e-010
-5.985463e-010
-5.946282e-010
-5.979131e-010
-6.108326e-010
-6.084331e-010
-5.575123e-010
-4.555148e-010
-3.375834e-010
-2.281212e-010
-8.908900e-011
1.559944e-010
5.267208e-010
9.334483e-010
1.261436e-009
1.514393e-009
1.821767e-009
2.246066e-009
2.602867e-009
2.567340e-009
2.023276e-009
1.252439e-009
6.662448e-010
3.343475e-010
-9.167456e-011
-8.634322e-010
-1.607717e-009
-1.530182e-009
-2.892972e-010
1.422109e-009
2.373781e-009
1.952619e-009
7.114714e-010
-3.242035e-010
-7.766755e-010
-1.119638e-009
-1.737537e-009
-2.076500e-009
-1.110605e-009
1.243284e-009
3.445692e-009
3.464029e-009
7.973702e-010
-2.687571e-009
-4.167257e-009
-2.347383e-009
1.292750e-009
3.710812e-009
2.917802e-009
-3.182574e-010
-3.161274e-009
3.439454e-009
2.205475e-009
4.508842e-010
-9.916218e-010
-1.673468e-009
-1.485507e-009
-4.162555e-010
1.298716e-009
2.778805e-009
2.686166e-009
3.463388e-010
-3.152459e-009
-5.300294e-009
-4.093481e-009
1.051329e-010
4.654358e-009
6.719615e-009
5.406887e-009
2.023250e-009
-1.469032e-009
-4.014611e-009
-5.600845e-009
-6.313868e-009
-5.742183e-009
-3.441057e-009
2.512601e-010
4.142376e-009
6.998762e-009
8.360341e-009
8.563126e-009
8.116355e-009
7.199308e-009
5.730333e-009
3.745410e-009
1.563421e-009
-4.173941e-010
-2.001748e-009
-3.246207e-009
-4.282031e-009
-5.149503e-009
-5.800223e-009
-6.203340e-009
-6.405284e-009
-6.491650e-009
-6.521869e-009
-6.513272e-009
-6.470831e-009
-6.409569e-009
-6.346432e-009
-6.288315e-009
-6.241879e-009
-6.227774e-009
-6.265621e-009
-6.338146e-009
-6.387640e-009
-6.370790e-009
-6.314088e-009
-6.282371e-009
-6.267700e-009
-6.131044e-009
-5.706528e-009
-4.981977e-009
-4.124972e-009
-3.264335e-009
-2.260340e-009
-7.961944e-010
1.220391e-009
3.394794e-009
5.112671e-009
6.112898e-009
6.679013e-009
7.127872e-009
7.163436e-009
5.978778e-009
3.180007e-009
-4.687629e-010
-3.448211e-009
-4.730264e-009
-4.518364e-009
-3.666453e-009
-2.536854e-009
-7.527794e-010
1.822478e-009
4.168673e-009
4.620147e-009
2.494734e-009
-9.285152e-010
-3.296815e-009
-3.159474e-009
-1.091009e-009
1.046284e-009
1.806681e-009
1.155047e-009
5.373835e-011
-6.100717e-010
-6.354100e-010
-3.249874e-010
-8.891745e-012
1.859312e-010
2.696442e-010
2.442759e-008
1.350589e-008
-1.033166e-009
-1.016502e-008
-9.630816e-009
-2.185878e-009
5.568248e-009
8.442489e-009
5.654249e-009
-2.759964e-012
-4.968638e-009
-7.013636e-009
-5.652763e-009
-1.715581e-009
3.042574e-009
6.422948e-009
6.777629e-009
4.075452e-009
-1.765305e-011
-3.354412e-009
-4.774602e-009
-4.500262e-009
-3.319411e-009
-1.664888e-009
4.337953e-010
2.752142e-009
4.593592e-009
5.263258e-009
4.713013e-009
3.573922e-009
2.550530e-009
1.867662e-009
1.309584e-009
6.693403e-010
3.359476e-011
-3.620618e-010
-4.428543e-010
-3.837241e-010
-4.198195e-010
-6.357695e-010
-9.525229e-010
-1.268379e-009
-1.565341e-009
-1.886906e-009
-2.257513e-009
-2.649625e-009
-3.013734e-009
-3.312510e-009
-3.522984e-009
-3.629434e-009
-3.633404e-009
-3.561317e-009
-3.437331e-009
-3.242690e-009
-2.927205e-009
-2.487957e-009
-2.025854e-009
-1.679043e-009
-1.473881e-009
-1.275442e-009
-9.458552e-010
-5.569783e-010
-3.702317e-010
-5.305183e-010
-8.077053e-010
-7.548048e-010
-1.837027e-010
5.953755e-010
1.130778e-009
1.414443e-009
1.944832e-009
3.074806e-009
4.373835e-009
4.848457e-009
3.892861e-009
1.911700e-009
-1.182483e-010
-1.612598e-009
-2.694046e-009
-3.527454e-009
-3.641548e-009
-2.269208e-009
5.719652e-010
3.579419e-009
4.989985e-009
3.962878e-009
1.155023e-009
-1.913923e-009
-3.868720e-009
-3.973707e-009
-2.165029e-009
8.576194e-010
3.545947e-009
4.092084e-009
1.797590e-009
-1.915915e-009
-4.216401e-009
-3.138569e-009
5.347059e-010
3.735872e-009
2.385037e-008
1.261465e-008
-1.948672e-009
-1.025284e-008
-8.291656e-009
-1.539537e-011
6.753602e-009
6.944197e-009
1.686949e-009
-3.807377e-009
-5.266769e-009
-2.535795e-009
1.348005e-009
3.382307e-009
2.779874e-009
6.533819e-010
-1.537977e-009
-2.907502e-009
-3.027167e-009
-1.689783e-009
8.577600e-010
3.676266e-009
5.534861e-009
5.726144e-009
4.453194e-009
2.428717e-009
2.325179e-010
-1.869580e-009
-3.638384e-009
-4.671972e-009
-4.639825e-009
-3.633645e-009
-2.160425e-009
-7.602334e-010
3.256005e-010
1.117797e-009
1.630994e-009
1.731021e-009
1.251263e-009
1.776269e-010
-1.326006e-009
-3.053679e-009
-4.881476e-009
-6.764686e-009
-8.658148e-009
-1.047092e-008
-1.208869e-008
-1.341341e-008
-1.437734e-008
-1.494221e-008
-1.510427e-008
-1.488945e-008
-1.431816e-008
-1.337146e-008
-1.201993e-008
-1.031137e-008
-8.413601e-009
-6.524862e-009
-4.723369e-009
-2.945561e-009
-1.164841e-009
4.210966e-010
1.460529e-009
1.760590e-009
1.490059e-009
9.875998e-010
3.681453e-010
-5.694993e-010
-1.954452e-009
-3.426667e-009
-4.264358e-009
-3.993842e-009
-2.787612e-009
-1.182929e-009
4.896268e-010
2.208827e-009
3.796511e-009
4.618177e-009
4.029068e-009
2.127881e-009
-1.361946e-010
-1.710110e-009
-2.183448e-009
-1.741319e-009
-6.369921e-010
9.042289e-010
2.235313e-009
2.247566e-009
3.660871e-010
-2.338712e-009
-3.542431e-009
-1.748116e-009
1.899956e-009
4.237304e-009
2.944124e-009
-1.057041e-009
-4.212331e-009
-3.590973e-009
2.961379e-010
3.890858e-009
6.638832e-010
-5.372199e-010
-1.608785e-009
-1.105160e-009
1.016648e-009
2.959237e-009
2.483694e-009
-7.930612e-010
-4.440321e-009
-4.995845e-009
-1.205028e-009
4.406237e-009
7.437969e-009
5.384264e-009
-2.940887e-010
-5.633961e-009
-7.500014e-009
-5.579398e-009
-1.670088e-009
2.295048e-009
5.331006e-009
7.082075e-009
7.240159e-009
5.660044e-009
2.836738e-009
-1.322330e-010
-2.228418e-009
-3.113527e-009
-3.074274e-009
-2.546996e-009
-1.833392e-009
-1.201469e-009
-1.037861e-009
-1.748077e-009
-3.521696e-009
-6.269668e-009
-9.797860e-009
-1.398932e-008
-1.880054e-008
-2.413427e-008
-2.977964e-008
-3.548567e-008
-4.106257e-008
-4.639742e-008
-5.139398e-008
-5.592365e-008
-5.983348e-008
-6.298305e-008
-6.527016e-008
-6.663946e-008
-6.708163e-008
-6.661504e-008
-6.524896e-008
-6.296525e-008
-5.976137e-008
-5.572739e-008
-5.106071e-008
-4.596951e-008
-4.055894e-008
-3.485158e-008
-2.894822e-008
-2.313561e-008
-1.777255e-008
-1.305934e-008
-8.981773e-009
-5.526262e-009
-2.887916e-009
-1.349561e-009
-9.287437e-010
-1.244116e-009
-1.809030e-009
-2.377544e-009
-2.860416e-009
-2.940239e-009
-2.040288e-009
9.172999e-011
2.833597e-009
4.978861e-009
5.688839e-009
5.025734e-009
3.474155e-009
1.216867e-009
-1.699647e-009
-4.473353e-009
-5.392577e-009
-3.232295e-009
1.065284e-009
4.555140e-009
4.654542e-009
1.511197e-009
-2.101313e-009
-3.337647e-009
-1.738234e-009
7.356151e-010
1.837453e-009
1.044587e-009
-3.759226e-010
-9.276643e-010
-3.237470e-010
4.877120e-010
-2.511293e-008
-1.419756e-008
2.111061e-010
9.278414e-009
9.248013e-009
2.979634e-009
-3.724164e-009
-6.746321e-009
-5.414493e-009
-1.364786e-009
3.103097e-009
5.806303e-009
5.232136e-009
1.512825e-009
-3.091602e-009
-5.456607e-009
-4.015987e-009
-6.102627e-011
3.485771e-009
4.594025e-009
3.446063e-009
1.570839e-009
1.636887e-010
-5.658239e-010
-7.814993e-010
-3.649453e-010
8.860589e-010
2.633709e-009
3.894314e-009
3.629781e-009
1.347258e-009
-2.886260e-009
-8.852287e-009
-1.645701e-008
-2.564963e-008
-3.623753e-008
-4.788784e-008
-6.028533e-008
-7.322497e-008
-8.654768e-008
-1.000347e-007
-1.133912e-007
-1.263114e-007
-1.385294e-007
-1.498080e-007
-1.599032e-007
-1.685558e-007
-1.755193e-007
-1.805972e-007
-1.836665e-007
-1.846764e-007
-1.836207e-007
-1.805074e-007
-1.753605e-007
-1.682675e-007
-1.594245e-007
-1.491082e-007
-1.375869e-007
-1.250698e-007
-1.117725e-007
-9.801881e-008
-8.421941e-008
-7.071097e-008
-5.765596e-008
-4.517502e-008
-3.357232e-008
-2.332373e-008
-1.476577e-008
-7.870655e-009
-2.468621e-009
1.321577e-009
3.104052e-009
2.832254e-009
1.331065e-009
-8.197042e-011
-6.131532e-010
-4.705454e-010
-1.966099e-010
2.566996e-010
1.387747e-009
3.023239e-009
3.808944e-009
2.375035e-009
-9.184359e-010
-3.799855e-009
-4.003343e-009
-1.372294e-009
2.047466e-009
3.889514e-009
3.273279e-009
9.706634e-010
-1.604721e-009
-3.214342e-009
-3.029230e-009
-9.256759e-010
2.013975e-009
3.719277e-009
2.636101e-009
-6.333636e-010
-3.472979e-009
-3.109659e-008
-1.600694e-008
2.807558e-009
1.244829e-008
8.933758e-009
-1.023199e-009
-7.464219e-009
-5.966888e-009
1.378689e-010
4.626258e-009
4.333857e-009
7.344238e-010
-2.786677e-009
-4.033308e-009
-2.748051e-009
2.775296e-010
3.818883e-009
6.254340e-009
6.075327e-009
3.072364e-009
-1.104332e-009
-4.016155e-009
-4.281685e-009
-2.382135e-009
1.817933e-010
2.193822e-009
3.093697e-009
2.410256e-009
-6.742692e-010
-6.997998e-009
-1.681930e-008
-2.973701e-008
-4.520010e-008
-6.298542e-008
-8.317553e-008
-1.058079e-007
-1.306573e-007
-1.573214e-007
-1.853976e-007
-2.145091e-007
-2.441960e-007
-2.738397e-007
-3.027162e-007
-3.301077e-007
-3.553652e-007
-3.778992e-007
-3.971541e-007
-4.126197e-007
-4.238792e-007
-4.306484e-007
-4.327751e-007
-4.302075e-007
-4.229749e-007
-4.112131e-007
-3.952103e-007
-3.754062e-007
-3.523185e-007
-3.264696e-007
-2.984130e-007
-2.688365e-007
-2.385782e-007
-2.084512e-007
-1.790263e-007
-1.506477e-007
-1.237071e-007
-9.882210e-008
-7.659915e-008
-5.719761e-008
-4.029658e-008
-2.566391e-008
-1.369781e-008
-5.165176e-009
-2.910340e-010
1.725978e-009
2.100884e-009
1.477693e-009
-1.280597e-010
-2.346343e-009
-3.827231e-009
-3.102811e-009
-1.498799e-010
3.244559e-009
4.932517e-009
4.150494e-009
1.783182e-009
-7.539040e-010
-2.453234e-009
-2.707525e-009
-1.215126e-009
1.422732e-009
3.306216e-009
2.449258e-009
-9.822322e-010
-4.040471e-009
-3.497702e-009
6.430070e-010
4.582341e-009
4.299044e-009
-2.060026e-010
-4.629604e-009
-1.257320e-008
-4.606914e-009
4.217846e-009
6.436371e-009
1.180634e-009
-5.360585e-009
-6.255516e-009
-5.611719e-010
6.101956e-009
7.354523e-009
2.154643e-009
-4.715632e-009
-7.583307e-009
-4.819108e-009
7.369443e-010
5.160019e-009
6.555159e-009
5.356488e-009
2.853169e-009
1.997252e-010
-1.563762e-009
-1.582941e-009
1.081028e-010
2.135102e-009
2.451820e-009
-4.103040e-010
-6.815752e-009
-1.662431e-008
-3.001633e-008
-4.759185e-008
-6.985876e-008
-9.692360e-008
-1.287568e-007
-1.655864e-007
-2.078572e-007
-2.557872e-007
-3.090185e-007
-3.666723e-007
-4.276354e-007
-4.907338e-007
-5.546918e-007
-6.180579e-007
-6.792669e-007
-7.368097e-007
-7.893592e-007
-8.357770e-007
-8.750632e-007
-9.063455e-007
-9.289258e-007
-9.423244e-007
-9.462699e-007
-9.406575e-007
-9.255419e-007
-9.011905e-007
-8.681326e-007
-8.271238e-007
-7.790410e-007
-7.248382e-007
-6.656495e-007
-6.029241e-007
-5.383634e-007
-4.736209e-007
-4.100458e-007
-3.487694e-007
-2.910119e-007
-2.381215e-007
-1.911138e-007
-1.501642e-007
-1.147326e-007
-8.431144e-008
-5.894916e-008
-3.889010e-008
-2.379646e-008
-1.264969e-008
-4.578655e-009
4.603904e-010
2.185162e-009
1.168828e-009
-8.270595e-010
-1.923655e-009
-1.383887e-009
3.300150e-010
2.434473e-009
4.258013e-009
4.886229e-009
3.250550e-009
-5.955057e-010
-4.440358e-009
-5.155853e-009
-1.742953e-009
3.062859e-009
4.981622e-009
2.370703e-009
-2.029920e-009
-3.872997e-009
-1.658645e-009
1.884266e-009
2.904156e-009
5.689062e-010
-2.227673e-009
1.487966e-008
9.763796e-009
2.319496e-009
-3.852324e-009
-6.392865e-009
-4.890257e-009
-6.050761e-010
3.949322e-009
5.851272e-009
3.572059e-009
-1.364890e-009
-5.035217e-009
-4.341174e-009
7.599798e-011
4.393934e-009
5.238279e-009
2.641963e-009
-5.278615e-010
-1.589335e-009
-1.557220e-010
2.313312e-009
4.128637e-009
4.096093e-009
1.121411e-009
-6.073250e-009
-1.851251e-008
-3.654739e-008
-6.023564e-008
-9.016378e-008
-1.277361e-007
-1.746430e-007
-2.321722e-007
-3.010225e-007
-3.815056e-007
-4.735914e-007
-5.766127e-007
-6.889947e-007
-8.083741e-007
-9.320203e-007
-1.057183e-006
-1.181171e-006
-1.301314e-006
-1.415021e-006
-1.519956e-006
-1.614173e-006
-1.696100e-006
-1.764454e-006
-1.818188e-006
-1.856515e-006
-1.878921e-006
-1.885119e-006
-1.874986e-006
-1.848557e-006
-1.806107e-006
-1.748227e-006
-1.675784e-006
-1.589832e-006
-1.491623e-006
-1.382787e-006
-1.265498e-006
-1.142387e-006
-1.016204e-006
-8.895911e-007
-7.652041e-007
-6.459419e-007
-5.347646e-007
-4.340335e-007
-3.449754e-007
-2.678514e-007
-2.025854e-007
-1.490078e-007
-1.064111e-007
-7.316430e-008
-4.721596e-008
-2.714461e-008
-1.253731e-008
-3.226627e-009
1.600368e-009
3.273347e-009
2.846881e-009
9.918226e-010
-1.197677e-009
-1.950245e-009
-1.644247e-010
2.982844e-009
4.560117e-009
2.679452e-009
-1.321768e-009
-3.966273e-009
-3.031533e-009
3.722520e-010
3.133625e-009
3.184357e-009
1.033100e-009
-1.307434e-009
-2.305776e-009
-1.792996e-009
-4.840755e-010
8.176504e-010
1.586615e-009
3.074016e-008
1.557758e-008
-2.778302e-009
-1.147923e-008
-7.640487e-009
1.277344e-009
6.201378e-009
4.363055e-009
-5.553070e-010
-3.756275e-009
-3.431554e-009
-6.328464e-010
2.754840e-009
5.060827e-009
5.010007e-009
2.402091e-009
-1.128342e-009
-2.909503e-009
-1.525380e-009
1.685918e-009
3.603091e-009
1.618721e-009
-5.239755e-009
-1.719402e-008
-3.512102e-008
-6.088225e-008
-9.670690e-008
-1.448064e-007
-2.076410e-007
-2.881073e-007
-3.889880e-007
-5.120000e-007
-6.572569e-007
-8.234011e-007
-1.007949e-006
-1.207425e-006
-1.417384e-006
-1.632689e-006
-1.848069e-006
-2.058635e-006
-2.260109e-006
-2.448819e-006
-2.621714e-006
-2.776441e-006
-2.911384e-006
-3.025556e-006
-3.118413e-006
-3.189710e-006
-3.239422e-006
-3.267662e-006
-3.274554e-006
-3.260111e-006
-3.224225e-006
-3.166768e-006
-3.087709e-006
-2.987140e-006
-2.865291e-006
-2.722661e-006
-2.560318e-006
-2.380158e-006
-2.184892e-006
-1.977842e-006
-1.762862e-006
-1.544510e-006
-1.328121e-006
-1.119348e-006
-9.233313e-007
-7.441344e-007
-5.847976e-007
-4.475284e-007
-3.333883e-007
-2.416790e-007
-1.699579e-007
-1.150489e-007
-7.413411e-008
-4.485008e-008
-2.467478e-008
-1.093797e-008
-1.840947e-009
2.911945e-009
3.197171e-009
3.455145e-010
-2.586778e-009
-2.886292e-009
-3.968395e-010
2.662179e-009
3.999470e-009
3.069374e-009
8.423728e-010
-1.387361e-009
-2.539076e-009
-1.818815e-009
6.199634e-010
2.971285e-009
2.796394e-009
-3.534085e-010
-3.699626e-009
-3.666550e-009
1.288381e-010
4.014445e-009
2.643643e-008
1.021090e-008
-7.573906e-009
-1.228066e-008
-3.095799e-009
8.000933e-009
9.592647e-009
1.598296e-009
-6.844621e-009
-7.967732e-009
-2.270879e-009
4.116423e-009
6.493465e-009
4.978804e-009
2.348227e-009
6.224427e-010
1.607097e-010
6.062386e-010
1.256565e-009
5.328950e-010
-3.944291e-009
-1.426949e-008
-3.163879e-008
-5.730991e-008
-9.415646e-008
-1.470388e-007
-2.216776e-007
-3.233251e-007
-4.562767e-007
-6.238513e-007
-8.279274e-007
-1.067978e-006
-1.340430e-006
-1.638938e-006
-1.955267e-006
-2.280150e-006
-2.603905e-006
-2.917064e-006
-3.211168e-006
-3.479506e-006
-3.717476e-006
-3.922570e-006
-4.094163e-006
-4.233270e-006
-4.342237e-006
-4.424317e-006
-4.483205e-006
-4.522611e-006
-4.545915e-006
-4.555855e-006
-4.554231e-006
-4.541700e-006
-4.517716e-006
-4.480636e-006
-4.427893e-006
-4.356186e-006
-4.261726e-006
-4.140662e-006
-3.989664e-006
-3.806467e-006
-3.590216e-006
-3.341722e-006
-3.063821e-006
-2.761767e-006
-2.443202e-006
-2.117434e-006
-1.794386e-006
-1.483833e-006
-1.194981e-006
-9.357931e-007
-7.117989e-007
-5.251570e-007
-3.749306e-007
-2.583715e-007
-1.718479e-007
-1.106775e-007
-6.887318e-008
-4.021107e-008
-2.022565e-008
-7.076218e-009
-2.179718e-010
1.598651e-009
7.524674e-010
-4.863095e-010
-9.311331e-010
-1.742182e-010
1.816783e-009
4.132454e-009
4.639074e-009
1.739525e-009
-3.071355e-009
-5.525291e-009
-2.781944e-009
2.820559e-009
5.534133e-009
2.406393e-009
-3.102323e-009
-4.810186e-009
-9.131038e-010
3.878210e-009
8.587048e-009
2.270697e-010
-7.487618e-009
-6.378112e-009
2.115795e-009
8.762165e-009
6.674369e-009
-1.569074e-009
-7.311455e-009
-5.292919e-009
1.450857e-009
5.917998e-009
4.842781e-009
1.126496e-009
-5.617867e-010
1.022172e-009
3.258435e-009
3.039354e-009
-8.575787e-010
-8.700402e-009
-2.195845e-008
-4.399335e-008
-7.937084e-008
-1.335664e-007
-2.135250e-007
-3.277508e-007
-4.849745e-007
-6.921556e-007
-9.531121e-007
-1.267958e-006
-1.632578e-006
-2.037859e-006
-2.469418e-006
-2.908606e-006
-3.334615e-006
-3.726826e-006
-4.066734e-006
-4.339476e-006
-4.535090e-006
-4.649392e-006
-4.684166e-006
-4.646619e-006
-4.548325e-006
-4.403992e-006
-4.230192e-006
-4.044130e-006
-3.862504e-006
-3.700504e-006
-3.570973e-006
-3.483723e-006
-3.445022e-006
-3.457276e-006
-3.518901e-006
-3.624379e-006
-3.764471e-006
-3.926606e-006
-4.095491e-006
-4.254012e-006
-4.384373e-006
-4.469333e-006
-4.493490e-006
-4.444688e-006
-4.315599e-006
-4.105057e-006
-3.818544e-006
-3.467629e-006
-3.068792e-006
-2.642111e-006
-2.209591e-006
-1.792665e-006
-1.409231e-006
-1.071608e-006
-7.864415e-007
-5.558321e-007
-3.781363e-007
-2.479993e-007
-1.568925e-007
-9.512570e-008
-5.428554e-008
-2.820343e-008
-1.228598e-008
-2.929332e-009
2.043609e-009
3.262205e-009
1.344576e-009
-1.356287e-009
-1.607115e-009
1.444151e-009
4.673301e-009
4.015920e-009
-6.603780e-010
-4.773404e-009
-3.919603e-009
1.000798e-009
4.639011e-009
3.258436e-009
-1.111905e-009
-3.321394e-009
-1.258545e-009
1.899525e-009
-1.070794e-008
-6.753982e-009
-1.212744e-009
2.956147e-009
4.025192e-009
2.128793e-009
-1.043265e-009
-3.022767e-009
-1.993279e-009
1.551781e-009
4.716731e-009
4.692616e-009
1.712376e-009
-1.028807e-009
-8.656569e-010
1.262463e-009
1.651500e-009
-2.720794e-009
-1.261625e-008
-2.881808e-008
-5.553977e-008
-1.012617e-007
-1.767565e-007
-2.930450e-007
-4.610134e-007
-6.914814e-007
-9.936891e-007
-1.372080e-006
-1.823031e-006
-2.332874e-006
-2.877272e-006
-3.421691e-006
-3.923381e-006
-4.335340e-006
-4.611841e-006
-4.714094e-006
-4.614711e-006
-4.300485e-006
-3.773576e-006
-3.051218e-006
-2.163982e-006
-1.152799e-006
-6.533905e-008
1.047626e-006
2.135411e-006
3.149993e-006
4.047982e-006
4.792104e-006
5.352273e-006
5.706299e-006
5.840282e-006
5.748808e-006
5.435085e-006
4.911051e-006
4.197389e-006
3.323312e-006
2.326005e-006
1.249604e-006
1.436800e-007
-9.388406e-007
-1.944448e-006
-2.822693e-006
-3.530530e-006
-4.036574e-006
-4.324315e-006
-4.393786e-006
-4.261746e-006
-3.960287e-006
-3.533273e-006
-3.030408e-006
-2.500202e-006
-1.984170e-006
-1.513712e-006
-1.109208e-006
-7.801071e-007
-5.259450e-007
-3.389891e-007
-2.080580e-007
-1.214690e-007
-6.782925e-008
-3.604054e-008
-1.668926e-008
-4.362771e-009
2.096701e-009
2.691138e-009
-2.921671e-010
-2.521268e-009
-1.278073e-009
2.053618e-009
3.882231e-009
2.490262e-009
-3.968291e-010
-1.930587e-009
-1.180665e-009
4.634674e-010
1.281403e-009
8.939449e-010
6.763992e-011
-4.645190e-010
-6.167274e-010
-2.378970e-008
-8.766677e-009
7.322815e-009
1.114979e-008
2.755628e-009
-6.780046e-009
-8.135521e-009
-1.979500e-009
4.576908e-009
6.541650e-009
4.618132e-009
2.143448e-009
1.033113e-009
9.347346e-010
5.432019e-010
-1.508024e-009
-6.665475e-009
-1.678323e-008
-3.507959e-008
-6.804793e-008
-1.269619e-007
-2.271120e-007
-3.850601e-007
-6.162093e-007
-9.338373e-007
-1.347783e-006
-1.860217e-006
-2.458576e-006
-3.108772e-006
-3.752106e-006
-4.307256e-006
-4.676863e-006
-4.757730e-006
-4.453458e-006
-3.687603e-006
-2.414630e-006
-6.263550e-007
1.646933e-006
4.340064e-006
7.360041e-006
1.059522e-005
1.392522e-005
1.723018e-005
2.039814e-005
2.332996e-005
2.594193e-005
2.816635e-005
2.995098e-005
3.125758e-005
3.206019e-005
3.234340e-005
3.210112e-005
3.133616e-005
3.006091e-005
2.829873e-005
2.608588e-005
2.347364e-005
2.053004e-005
1.734089e-005
1.400934e-005
1.065322e-005
7.399442e-006
4.375472e-006
1.698681e-006
-5.348294e-007
-2.260467e-006
-3.453019e-006
-4.130264e-006
-4.350373e-006
-4.202562e-006
-3.793012e-006
-3.229719e-006
-2.609368e-006
-2.007738e-006
-1.474617e-006
-1.034281e-006
-6.912939e-007
-4.385986e-007
-2.636381e-007
-1.508653e-007
-8.292468e-008
-4.331472e-008
-1.994955e-008
-6.491058e-009
-2.216220e-010
1.048678e-009
5.889955e-011
-8.098982e-010
-3.731378e-010
1.387746e-009
3.441068e-009
3.933820e-009
1.605409e-009
-2.252312e-009
-4.134434e-009
-1.894792e-009
2.257309e-009
3.716734e-009
8.465737e-010
-2.839313e-009
-2.856223e-008
-8.362385e-009
1.193728e-008
1.419653e-008
6.895597e-010
-1.119608e-008
-9.501063e-009
1.141334e-009
8.222602e-009
6.466468e-009
1.351853e-009
-6.928717e-011
2.363369e-009
3.449751e-009
-3.889737e-010
-8.431554e-009
-1.982931e-008
-3.910660e-008
-7.775302e-008
-1.522022e-007
-2.813873e-007
-4.853972e-007
-7.843714e-007
-1.196181e-006
-1.731565e-006
-2.385330e-006
-3.123471e-006
-3.869462e-006
-4.496072e-006
-4.828620e-006
-4.661460e-006
-3.784769e-006
-2.016101e-006
7.693562e-007
4.615587e-006
9.474300e-006
1.520759e-005
2.160383e-005
2.840322e-005
3.532758e-005
4.210938e-005
4.851562e-005
5.436366e-005
5.952814e-005
6.393961e-005
6.757687e-005
7.045537e-005
7.261379e-005
7.410043e-005
7.496067e-005
7.522673e-005
7.491079e-005
7.400237e-005
7.247015e-005
7.026807e-005
6.734529e-005
6.365908e-005
5.918959e-005
5.395501e-005
4.802502e-005
4.153010e-005
3.466347e-005
2.767340e-005
2.084508e-005
1.447320e-005
8.828521e-006
4.123687e-006
4.852016e-007
-2.061694e-006
-3.591303e-006
-4.259515e-006
-4.273885e-006
-3.858040e-006
-3.217479e-006
-2.514137e-006
-1.855363e-006
-1.297852e-006
-8.608608e-007
-5.405851e-007
-3.207966e-007
-1.797676e-007
-9.523804e-008
-4.780633e-008
-2.238451e-008
-8.505394e-009
-5.370967e-010
2.960370e-009
2.093580e-009
-9.131436e-010
-1.786096e-009
1.445659e-009
5.318780e-009
4.437538e-009
-1.464213e-009
-6.084741e-009
-3.837557e-009
2.796318e-009
5.809405e-009
1.619784e-009
-4.272643e-009
-2.412226e-008
-7.107735e-009
9.455463e-009
1.052113e-008
-6.395834e-010
-8.585426e-009
-4.661600e-009
4.621070e-009
7.963604e-009
3.317202e-009
-1.654438e-009
-9.360426e-010