# vtk DataFile Version 3.0
vtk output
ASCII
DATASET STRUCTURED_POINTS
DIMENSIONS 100 100 1
SPACING 1 1 1
ORIGIN 0 0 0
POINT_DATA 10000
SCALARS SFBox_profile double
LOOKUP_TABLE default 
9.439921e-003
9.439920e-003
9.439920e-003
9.439920e-003
9.439920e-003
9.439920e-003
9.439920e-003
9.439920e-003
9.439920e-003
9.439921e-003
9.439921e-003
9.439920e-003
9.439920e-003
9.439920e-003
9.439920e-003
9.439921e-003
9.439922e-003
9.439923e-003
9.439923e-003
9.439925e-003
9.439926e-003
9.439928e-003
9.439929e-003
9.439931e-003
9.439932e-003
9.439934e-003
9.439936e-003
9.439938e-003
9.439940e-003
9.439942e-003
9.439944e-003
9.439946e-003
9.439948e-003
9.439950e-003
9.439952e-003
9.439953e-003
9.439955e-003
9.439956e-003
9.439957e-003
9.439959e-003
9.439960e-003
9.439960e-003
9.439961e-003
9.439961e-003
9.439962e-003
9.439962e-003
9.439962e-003
9.439962e-003
9.439962e-003
9.439962e-003
9.439962e-003
9.439961e-003
9.439960e-003
9.439959e-003
9.439959e-003
9.439957e-003
9.439956e-003
9.439954e-003
9.439953e-003
9.439951e-003
9.439949e-003
9.439947e-003
9.439944e-003
9.439942e-003
9.439940e-003
9.439938e-003
9.439935e-003
9.439933e-003
9.439931e-003
9.439929e-003
9.439928e-003
9.439926e-003
9.439925e-003
9.439923e-003
9.439922e-003
9.439922e-003
9.439921e-003
9.439921e-003
9.439920e-003
9.439920e-003
9.439920e-003
9.439920e-003
9.439920e-003
9.439920e-003
9.439920e-003
9.439920e-003
9.439920e-003
9.439920e-003
9.439920e-003
9.439920e-003
9.439920e-003
9.439920e-003
9.439920e-003
9.439920e-003
9.439920e-003
9.439920e-003
9.439919e-003
9.439920e-003
9.439920e-003
9.439920e-003
9.439921e-003
9.439920e-003
9.439920e-003
9.439920e-003
9.439920e-003
9.439920e-003
9.439920e-003
9.439920e-003
9.439920e-003
9.439921e-003
9.439921e-003
9.439920e-003
9.439920e-003
9.439920e-003
9.439920e-003
9.439921e-003
9.439922e-003
9.439923e-003
9.439923e-003
9.439925e-003
9.439926e-003
9.439928e-003
9.439929e-003
9.439931e-003
9.439932e-003
9.439934e-003
9.439936e-003
9.439938e-003
9.439940e-003
9.439942e-003
9.439944e-003
9.439946e-003
9.439948e-003
9.439950e-003
9.439952e-003
9.439953e-003
9.439955e-003
9.439956e-003
9.439957e-003
9.439959e-003
9.439960e-003
9.439960e-003
9.439961e-003
9.439961e-003
9.439962e-003
9.439962e-003
9.439962e-003
9.439962e-003
9.439962e-003
9.439962e-003
9.439962e-003
9.439961e-003
9.439960e-003
9.439959e-003
9.439959e-003
9.439957e-003
9.439956e-003
9.439954e-003
9.439953e-003
9.439951e-003
9.439949e-003
9.439947e-003
9.439944e-003
9.439942e-003
9.439940e-003
9.439938e-003
9.439935e-003
9.439933e-003
9.439931e-003
9.439929e-003
9.439928e-003
9.439926e-003
9.439925e-003
9.439923e-003
9.439922e-003
9.439922e-003
9.439921e-003
9.439921e-003
9.439920e-003
9.439920e-003
9.439920e-003
9.439920e-003
9.439920e-003
9.439920e-003
9.439920e-003
9.439920e-003
9.439920e-003
9.439920e-003
9.439920e-003
9.439920e-003
9.439920e-003
9.439920e-003
9.439920e-003
9.439920e-003
9.439920e-003
9.439920e-003
9.439919e-003
9.439920e-003
9.439920e-003
9.439920e-003
9.439920e-003
9.439920e-003
9.439920e-003
9.439920e-003
9.439920e-003
9.439920e-003
9.439920e-003
9.439920e-003
9.439920e-003
9.439920e-003
9.439920e-003
9.439921e-003
9.439921e-003
9.439921e-003
9.439922e-003
9.439923e-003
9.439923e-003
9.439924e-003
9.439925e-003
9.439926e-003
9.439928e-003
9.439930e-003
9.439931e-003
9.439933e-003
9.439936e-003
9.439938e-003
9.439940e-003
9.439942e-003
9.439944e-003
9.439946e-003
9.439948e-003
9.439950e-003
9.439952e-003
9.439953e-003
9.439954e-003
9.439955e-003
9.439956e-003
9.439956e-003
9.439957e-003
9.439957e-003
9.439958e-003
9.439958e-003
9.439958e-003
9.439958e-003
9.439958e-003
9.439957e-003
9.439957e-003
9.439956e-003
9.439956e-003
9.439956e-003
9.439955e-003
9.439955e-003
9.439954e-003
9.439954e-003
9.439954e-003
9.439954e-003
9.439953e-003
9.439952e-003
9.439952e-003
9.439951e-003
9.439950e-003
9.439949e-003
9.439947e-003
9.439945e-003
9.439943e-003
9.439941e-003
9.439939e-003
9.439936e-003
9.439934e-003
9.439932e-003
9.439930e-003
9.439928e-003
9.439926e-003
9.439924e-003
9.439923e-003
9.439923e-003
9.439922e-003
9.439921e-003
9.439921e-003
9.439920e-003
9.439920e-003
9.439920e-003
9.439920e-003
9.439920e-003
9.439920e-003
9.439920e-003
9.439920e-003
9.439920e-003
9.439920e-003
9.439920e-003
9.439920e-003
9.439920e-003
9.439920e-003
9.439920e-003
9.439920e-003
9.439920e-003
9.439920e-003
9.439920e-003
9.439920e-003
9.439920e-003
9.439920e-003
9.439920e-003
9.439920e-003
9.439920e-003
9.439920e-003
9.439921e-003
9.439920e-003
9.439920e-003
9.439920e-003
9.439920e-003
9.439920e-003
9.439921e-003
9.439922e-003
9.439923e-003
9.439924e-003
9.439925e-003
9.439926e-003
9.439927e-003
9.439929e-003
9.439930e-003
9.439932e-003
9.439935e-003
9.439937e-003
9.439940e-003
9.439942e-003
9.439945e-003
9.439947e-003
9.439948e-003
9.439949e-003
9.439950e-003
9.439950e-003
9.439950e-003
9.439949e-003
9.439948e-003
9.439947e-003
9.439945e-003
9.439943e-003
9.439940e-003
9.439938e-003
9.439935e-003
9.439932e-003
9.439930e-003
9.439927e-003
9.439925e-003
9.439922e-003
9.439920e-003
9.439919e-003
9.439917e-003
9.439916e-003
9.439916e-003
9.439916e-003
9.439916e-003
9.439917e-003
9.439919e-003
9.439921e-003
9.439924e-003
9.439927e-003
9.439930e-003
9.439933e-003
9.439936e-003
9.439939e-003
9.439942e-003
9.439943e-003
9.439944e-003
9.439945e-003
9.439944e-003
9.439943e-003
9.439941e-003
9.439939e-003
9.439937e-003
9.439934e-003
9.439932e-003
9.439929e-003
9.439927e-003
9.439926e-003
9.439925e-003
9.439923e-003
9.439923e-003
9.439922e-003
9.439921e-003
9.439921e-003
9.439920e-003
9.439920e-003
9.439920e-003
9.439920e-003
9.439920e-003
9.439920e-003
9.439920e-003
9.439920e-003
9.439920e-003
9.439920e-003
9.439920e-003
9.439920e-003
9.439920e-003
9.439920e-003
9.439920e-003
9.439920e-003
9.439920e-003
9.439920e-003
9.439920e-003
9.439920e-003
9.439920e-003
9.439920e-003
9.439920e-003
9.439920e-003
9.439921e-003
9.439921e-003
9.439920e-003
9.439920e-003
9.439920e-003
9.439921e-003
9.439922e-003
9.439923e-003
9.439925e-003
9.439926e-003
9.439928e-003
9.439930e-003
9.439932e-003
9.439935e-003
9.439938e-003
9.439940e-003
9.439943e-003
9.439945e-003
9.439947e-003
9.439948e-003
9.439949e-003
9.439947e-003
9.439945e-003
9.439941e-003
9.439936e-003
9.439930e-003
9.439922e-003
9.439913e-003
9.439904e-003
9.439893e-003
9.439882e-003
9.439871e-003
9.439859e-003
9.439847e-003
9.439836e-003
9.439824e-003
9.439813e-003
9.439803e-003
9.439794e-003
9.439786e-003
9.439778e-003
9.439773e-003
9.439768e-003
9.439766e-003
9.439765e-003
9.439766e-003
9.439770e-003
9.439776e-003
9.439784e-003
9.439794e-003
9.439805e-003
9.439819e-003
9.439834e-003
9.439849e-003
9.439865e-003
9.439880e-003
9.439894e-003
9.439907e-003
9.439918e-003
9.439928e-003
9.439934e-003
9.439939e-003
9.439942e-003
9.439943e-003
9.439942e-003
9.439940e-003
9.439938e-003
9.439935e-003
9.439933e-003
9.439930e-003
9.439928e-003
9.439926e-003
9.439924e-003
9.439923e-003
9.439922e-003
9.439922e-003
9.439921e-003
9.439920e-003
9.439920e-003
9.439920e-003
9.439920e-003
9.439920e-003
9.439920e-003
9.439920e-003
9.439920e-003
9.439920e-003
9.439920e-003
9.439920e-003
9.439920e-003
9.439920e-003
9.439920e-003
9.439921e-003
9.439920e-003
9.439920e-003
9.439920e-003
9.439920e-003
9.439920e-003
9.439920e-003
9.439920e-003
9.439920e-003
9.439920e-003
9.439921e-003
9.439921e-003
9.439922e-003
9.439922e-003
9.439923e-003
9.439924e-003
9.439926e-003
9.439928e-003
9.439930e-003
9.439932e-003
9.439936e-003
9.439939e-003
9.439943e-003
9.439946e-003
9.439949e-003
9.439949e-003
9.439949e-003
9.439946e-003
9.439940e-003
9.439931e-003
9.439919e-003
9.439903e-003
9.439883e-003
9.439860e-003
9.439834e-003
9.439805e-003
9.439773e-003
9.439739e-003
9.439704e-003
9.439667e-003
9.439630e-003
9.439593e-003
9.439557e-003
9.439521e-003
9.439487e-003
9.439455e-003
9.439426e-003
9.439399e-003
9.439375e-003
9.439355e-003
9.439339e-003
9.439328e-003
9.439322e-003
9.439321e-003
9.439327e-003
9.439338e-003
9.439356e-003
9.439380e-003
9.439411e-003
9.439447e-003
9.439489e-003
9.439534e-003
9.439582e-003
9.439631e-003
9.439681e-003
9.439728e-003
9.439773e-003
9.439813e-003
9.439848e-003
9.439877e-003
9.439901e-003
9.439918e-003
9.439931e-003
9.439938e-003
9.439942e-003
9.439943e-003
9.439941e-003
9.439939e-003
9.439936e-003
9.439933e-003
9.439930e-003
9.439927e-003
9.439925e-003
9.439924e-003
9.439923e-003
9.439922e-003
9.439921e-003
9.439921e-003
9.439921e-003
9.439920e-003
9.439920e-003
9.439920e-003
9.439920e-003
9.439920e-003
9.439920e-003
9.439920e-003
9.439920e-003
9.439920e-003
9.439920e-003
9.439920e-003
9.439920e-003
9.439920e-003
9.439920e-003
9.439920e-003
9.439921e-003
9.439921e-003
9.439920e-003
9.439920e-003
9.439920e-003
9.439920e-003
9.439921e-003
9.439922e-003
9.439923e-003
9.439924e-003
9.439926e-003
9.439928e-003
9.439930e-003
9.439933e-003
9.439936e-003
9.439940e-003
9.439944e-003
9.439948e-003
9.439950e-003
9.439950e-003
9.439947e-003
9.439939e-003
9.439926e-003
9.439906e-003
9.439879e-003
9.439843e-003
9.439798e-003
9.439744e-003
9.439681e-003
9.439610e-003
9.439531e-003
9.439445e-003
9.439354e-003
9.439259e-003
9.439160e-003
9.439060e-003
9.438960e-003
9.438861e-003
9.438765e-003
9.438672e-003
9.438583e-003
9.438501e-003
9.438424e-003
9.438356e-003
9.438296e-003
9.438246e-003
9.438207e-003
9.438180e-003
9.438166e-003
9.438165e-003
9.438180e-003
9.438212e-003
9.438259e-003
9.438323e-003
9.438403e-003
9.438499e-003
9.438608e-003
9.438728e-003
9.438857e-003
9.438990e-003
9.439124e-003
9.439255e-003
9.439381e-003
9.439496e-003
9.439599e-003
9.439688e-003
9.439762e-003
9.439822e-003
9.439867e-003
9.439900e-003
9.439921e-003
9.439934e-003
9.439941e-003
9.439943e-003
9.439942e-003
9.439939e-003
9.439935e-003
9.439932e-003
9.439929e-003
9.439926e-003
9.439925e-003
9.439923e-003
9.439922e-003
9.439921e-003
9.439921e-003
9.439921e-003
9.439920e-003
9.439920e-003
9.439920e-003
9.439920e-003
9.439920e-003
9.439920e-003
9.439920e-003
9.439920e-003
9.439920e-003
9.439920e-003
9.439920e-003
9.439920e-003
9.439920e-003
9.439920e-003
9.439921e-003
9.439921e-003
9.439921e-003
9.439921e-003
9.439920e-003
9.439921e-003
9.439921e-003
9.439923e-003
9.439925e-003
9.439927e-003
9.439930e-003
9.439933e-003
9.439937e-003
9.439941e-003
9.439946e-003
9.439950e-003
9.439952e-003
9.439951e-003
9.439945e-003
9.439932e-003
9.439909e-003
9.439874e-003
9.439824e-003
9.439757e-003
9.439670e-003
9.439563e-003
9.439434e-003
9.439284e-003
9.439112e-003
9.438922e-003
9.438715e-003
9.438493e-003
9.438260e-003
9.438019e-003
9.437774e-003
9.437527e-003
9.437281e-003
9.437041e-003
9.436808e-003
9.436584e-003
9.436373e-003
9.436177e-003
9.435998e-003
9.435837e-003
9.435697e-003
9.435581e-003
9.435490e-003
9.435428e-003
9.435397e-003
9.435399e-003
9.435437e-003
9.435512e-003
9.435627e-003
9.435780e-003
9.435973e-003
9.436202e-003
9.436464e-003
9.436755e-003
9.437067e-003
9.437394e-003
9.437725e-003
9.438053e-003
9.438369e-003
9.438664e-003
9.438932e-003
9.439167e-003
9.439368e-003
9.439533e-003
9.439664e-003
9.439763e-003
9.439835e-003
9.439884e-003
9.439915e-003
9.439933e-003
9.439941e-003
9.439943e-003
9.439941e-003
9.439938e-003
9.439934e-003
9.439931e-003
9.439928e-003
9.439925e-003
9.439924e-003
9.439922e-003
9.439922e-003
9.439921e-003
9.439920e-003
9.439920e-003
9.439920e-003
9.439920e-003
9.439920e-003
9.439920e-003
9.439920e-003
9.439920e-003
9.439920e-003
9.439920e-003
9.439920e-003
9.439920e-003
9.439920e-003
9.439920e-003
9.439919e-003
9.439920e-003
9.439921e-003
9.439922e-003
9.439922e-003
9.439922e-003
9.439923e-003
9.439925e-003
9.439928e-003
9.439932e-003
9.439936e-003
9.439941e-003
9.439946e-003
9.439951e-003
9.439954e-003
9.439954e-003
9.439946e-003
9.439929e-003
9.439897e-003
9.439845e-003
9.439769e-003
9.439661e-003
9.439516e-003
9.439330e-003
9.439097e-003
9.438816e-003
9.438487e-003
9.438109e-003
9.437686e-003
9.437222e-003
9.436723e-003
9.436196e-003
9.435648e-003
9.435086e-003
9.434518e-003
9.433952e-003
9.433393e-003
9.432849e-003
9.432325e-003
9.431825e-003
9.431356e-003
9.430921e-003
9.430526e-003
9.430173e-003
9.429868e-003
9.429615e-003
9.429419e-003
9.429286e-003
9.429221e-003
9.429229e-003
9.429315e-003
9.429484e-003
9.429740e-003
9.430082e-003
9.430511e-003
9.431023e-003
9.431611e-003
9.432265e-003
9.432972e-003
9.433715e-003
9.434476e-003
9.435235e-003
9.435972e-003
9.436669e-003
9.437309e-003
9.437880e-003
9.438374e-003
9.438788e-003
9.439124e-003
9.439385e-003
9.439581e-003
9.439722e-003
9.439818e-003
9.439880e-003
9.439916e-003
9.439935e-003
9.439942e-003
9.439943e-003
9.439941e-003
9.439937e-003
9.439932e-003
9.439929e-003
9.439926e-003
9.439924e-003
9.439922e-003
9.439921e-003
9.439921e-003
9.439921e-003
9.439920e-003
9.439920e-003
9.439920e-003
9.439920e-003
9.439920e-003
9.439920e-003
9.439920e-003
9.439920e-003
9.439920e-003
9.439920e-003
9.439920e-003
9.439920e-003
9.439918e-003
9.439920e-003
9.439921e-003
9.439923e-003
9.439924e-003
9.439925e-003
9.439927e-003
9.439930e-003
9.439933e-003
9.439938e-003
9.439944e-003
9.439950e-003
9.439954e-003
9.439956e-003
9.439950e-003
9.439932e-003
9.439896e-003
9.439833e-003
9.439732e-003
9.439583e-003
9.439373e-003
9.439089e-003
9.438719e-003
9.438254e-003
9.437686e-003
9.437013e-003
9.436235e-003
9.435356e-003
9.434385e-003
9.433333e-003
9.432214e-003
9.431044e-003
9.429839e-003
9.428616e-003
9.427389e-003
9.426175e-003
9.424987e-003
9.423837e-003
9.422736e-003
9.421694e-003
9.420720e-003
9.419823e-003
9.419009e-003
9.418288e-003
9.417666e-003
9.417154e-003
9.416760e-003
9.416495e-003
9.416369e-003
9.416392e-003
9.416576e-003
9.416929e-003
9.417458e-003
9.418168e-003
9.419058e-003
9.420123e-003
9.421351e-003
9.422724e-003
9.424216e-003
9.425797e-003
9.427427e-003
9.429069e-003
9.430678e-003
9.432216e-003
9.433644e-003
9.434935e-003
9.436067e-003
9.437030e-003
9.437823e-003
9.438453e-003
9.438937e-003
9.439294e-003
9.439547e-003
9.439717e-003
9.439825e-003
9.439889e-003
9.439924e-003
9.439939e-003
9.439944e-003
9.439942e-003
9.439938e-003
9.439934e-003
9.439930e-003
9.439926e-003
9.439924e-003
9.439922e-003
9.439922e-003
9.439921e-003
9.439921e-003
9.439920e-003
9.439920e-003
9.439920e-003
9.439920e-003
9.439920e-003
9.439920e-003
9.439920e-003
9.439920e-003
9.439920e-003
9.439920e-003
9.439920e-003
9.439919e-003
9.439920e-003
9.439922e-003
9.439924e-003
9.439926e-003
9.439929e-003
9.439932e-003
9.439936e-003
9.439942e-003
9.439948e-003
9.439954e-003
9.439958e-003
9.439955e-003
9.439941e-003
9.439907e-003
9.439841e-003
9.439729e-003
9.439552e-003
9.439286e-003
9.438907e-003
9.438389e-003
9.437707e-003
9.436837e-003
9.435763e-003
9.434474e-003
9.432968e-003
9.431251e-003
9.429338e-003
9.427251e-003
9.425019e-003
9.422673e-003
9.420248e-003
9.417778e-003
9.415296e-003
9.412835e-003
9.410421e-003
9.408081e-003
9.405835e-003
9.403704e-003
9.401702e-003
9.399845e-003
9.398146e-003
9.396616e-003
9.395268e-003
9.394116e-003
9.393172e-003
9.392454e-003
9.391977e-003
9.391761e-003
9.391824e-003
9.392185e-003
9.392862e-003
9.393869e-003
9.395217e-003
9.396908e-003
9.398938e-003
9.401291e-003
9.403939e-003
9.406842e-003
9.409944e-003
9.413181e-003
9.416476e-003
9.419749e-003
9.422915e-003
9.425897e-003
9.428630e-003
9.431061e-003
9.433159e-003
9.434913e-003
9.436332e-003
9.437440e-003
9.438274e-003
9.438878e-003
9.439297e-003
9.439575e-003
9.439749e-003
9.439852e-003
9.439908e-003
9.439933e-003
9.439942e-003
9.439943e-003
9.439939e-003
9.439935e-003
9.439931e-003
9.439927e-003
9.439924e-003
9.439923e-003
9.439922e-003
9.439921e-003
9.439921e-003
9.439920e-003
9.439920e-003
9.439920e-003
9.439920e-003
9.439920e-003
9.439920e-003
9.439920e-003
9.439920e-003
9.439920e-003
9.439920e-003
9.439923e-003
9.439923e-003
9.439924e-003
9.439926e-003
9.439929e-003
9.439933e-003
9.439939e-003
9.439945e-003
9.439952e-003
9.439958e-003
9.439960e-003
9.439953e-003
9.439928e-003
9.439871e-003
9.439764e-003
9.439582e-003
9.439290e-003
9.438850e-003
9.438213e-003
9.437329e-003
9.436146e-003
9.434617e-003
9.432703e-003
9.430377e-003
9.427629e-003
9.424469e-003
9.420923e-003
9.417033e-003
9.412858e-003
9.408462e-003
9.403916e-003
9.399292e-003
9.394657e-003
9.390074e-003
9.385598e-003
9.381276e-003
9.377148e-003
9.373244e-003
9.369589e-003
9.366203e-003
9.363103e-003
9.360301e-003
9.357811e-003
9.355645e-003
9.353818e-003
9.352346e-003
9.351250e-003
9.350549e-003
9.350269e-003
9.350437e-003
9.351080e-003
9.352227e-003
9.353904e-003
9.356134e-003
9.358932e-003
9.362307e-003
9.366249e-003
9.370737e-003
9.375724e-003
9.381143e-003
9.386899e-003
9.392872e-003
9.398924e-003
9.404901e-003
9.410647e-003
9.416017e-003
9.420887e-003
9.425169e-003
9.428812e-003
9.431810e-003
9.434192e-003
9.436018e-003
9.437365e-003
9.438321e-003
9.438972e-003
9.439395e-003
9.439656e-003
9.439807e-003
9.439888e-003
9.439926e-003
9.439941e-003
9.439944e-003
9.439941e-003
9.439936e-003
9.439931e-003
9.439927e-003
9.439924e-003
9.439923e-003
9.439922e-003
9.439921e-003
9.439920e-003
9.439920e-003
9.439920e-003
9.439920e-003
9.439920e-003
9.439920e-003
9.439920e-003
9.439920e-003
9.439920e-003
9.439920e-003
9.439928e-003
9.439927e-003
9.439928e-003
9.439930e-003
9.439934e-003
9.439940e-003
9.439948e-003
9.439956e-003
9.439962e-003
9.439962e-003
9.439949e-003
9.439911e-003
9.439826e-003
9.439667e-003
9.439391e-003
9.438946e-003
9.438262e-003
9.437255e-003
9.435835e-003
9.433902e-003
9.431365e-003
9.428144e-003
9.424182e-003
9.419457e-003
9.413983e-003
9.407817e-003
9.401048e-003
9.393798e-003
9.386206e-003
9.378422e-003
9.370592e-003
9.362854e-003
9.355327e-003
9.348111e-003
9.341285e-003
9.334905e-003
9.329010e-003
9.323620e-003
9.318743e-003
9.314378e-003
9.310517e-003
9.307153e-003
9.304274e-003
9.301873e-003
9.299943e-003
9.298481e-003
9.297487e-003
9.296966e-003
9.296926e-003
9.297382e-003
9.298353e-003
9.299868e-003
9.301963e-003
9.304681e-003
9.308074e-003
9.312199e-003
9.317114e-003
9.322867e-003
9.329487e-003
9.336970e-003
9.345263e-003
9.354254e-003
9.363764e-003
9.373555e-003
9.383346e-003
9.392835e-003
9.401730e-003
9.409786e-003
9.416826e-003
9.422758e-003
9.427573e-003
9.431337e-003
9.434168e-003
9.436216e-003
9.437638e-003
9.438585e-003
9.439188e-003
9.439552e-003
9.439759e-003
9.439868e-003
9.439920e-003
9.439940e-003
9.439944e-003
9.439941e-003
9.439936e-003
9.439931e-003
9.439927e-003
9.439924e-003
9.439922e-003
9.439921e-003
9.439921e-003
9.439921e-003
9.439920e-003
9.439920e-003
9.439920e-003
9.439920e-003
9.439920e-003
9.439920e-003
9.439920e-003
9.439920e-003
9.439931e-003
9.439932e-003
9.439933e-003
9.439936e-003
9.439942e-003
9.439950e-003
9.439959e-003
9.439965e-003
9.439964e-003
9.439945e-003
9.439891e-003
9.439775e-003
9.439555e-003
9.439167e-003
9.438529e-003
9.437529e-003
9.436032e-003
9.433877e-003
9.430894e-003
9.426914e-003
9.421790e-003
9.415420e-003
9.407770e-003
9.398886e-003
9.388904e-003
9.378043e-003
9.366586e-003
9.354858e-003
9.343194e-003
9.331915e-003
9.321300e-003
9.311578e-003
9.302913e-003
9.295411e-003
9.289113e-003
9.284013e-003
9.280057e-003
9.277164e-003
9.275227e-003
9.274130e-003
9.273754e-003
9.273982e-003
9.274700e-003
9.275801e-003
9.277178e-003
9.278730e-003
9.280353e-003
9.281947e-003
9.283413e-003
9.284664e-003
9.285631e-003
9.286275e-003
9.286599e-003
9.286668e-003
9.286616e-003
9.286659e-003
9.287091e-003
9.288270e-003
9.290589e-003
9.294430e-003
9.300104e-003
9.307793e-003
9.317495e-003
9.329000e-003
9.341895e-003
9.355606e-003
9.369469e-003
9.382824e-003
9.395098e-003
9.405875e-003
9.414924e-003
9.422199e-003
9.427803e-003
9.431943e-003
9.434877e-003
9.436871e-003
9.438168e-003
9.438974e-003
9.439450e-003
9.439714e-003
9.439851e-003
9.439914e-003
9.439939e-003
9.439944e-003
9.439941e-003
9.439936e-003
9.439931e-003
9.439927e-003
9.439924e-003
9.439922e-003
9.439922e-003
9.439921e-003
9.439921e-003
9.439920e-003
9.439920e-003
9.439920e-003
9.439920e-003
9.439920e-003
9.439920e-003
9.439920e-003
9.439935e-003
9.439936e-003
9.439940e-003
9.439946e-003
9.439954e-003
9.439963e-003
9.439969e-003
9.439966e-003
9.439941e-003
9.439873e-003
9.439725e-003
9.439439e-003
9.438927e-003
9.438067e-003
9.436690e-003
9.434585e-003
9.431496e-003
9.427140e-003
9.421231e-003
9.413524e-003
9.403862e-003
9.392230e-003
9.378800e-003
9.363947e-003
9.348247e-003
9.332431e-003
9.317324e-003
9.303754e-003
9.292480e-003
9.284126e-003
9.279134e-003
9.277753e-003
9.280042e-003
9.285887e-003
9.295029e-003
9.307096e-003
9.321635e-003
9.338146e-003
9.356108e-003
9.375008e-003
9.394352e-003
9.413676e-003
9.432539e-003
9.450519e-003
9.467194e-003
9.482134e-003
9.494891e-003
9.504994e-003
9.511963e-003
9.515324e-003
9.514646e-003
9.509581e-003
9.499929e-003
9.485696e-003
9.467164e-003
9.444945e-003
9.420008e-003
9.393676e-003
9.367556e-003
9.343418e-003
9.323011e-003
9.307849e-003
9.299001e-003
9.296922e-003
9.301373e-003
9.311459e-003
9.325769e-003
9.342613e-003
9.360288e-003
9.377318e-003
9.392615e-003
9.405544e-003
9.415891e-003
9.423766e-003
9.429484e-003
9.433454e-003
9.436090e-003
9.437764e-003
9.438778e-003
9.439363e-003
9.439680e-003
9.439839e-003
9.439911e-003
9.439938e-003
9.439944e-003
9.439941e-003
9.439936e-003
9.439930e-003
9.439926e-003
9.439924e-003
9.439922e-003
9.439922e-003
9.439921e-003
9.439920e-003
9.439920e-003
9.439920e-003
9.439920e-003
9.439920e-003
9.439920e-003
9.439920e-003
9.439939e-003
9.439943e-003
9.439949e-003
9.439958e-003
9.439967e-003
9.439973e-003
9.439970e-003
9.439941e-003
9.439862e-003
9.439685e-003
9.439335e-003
9.438698e-003
9.437603e-003
9.435814e-003
9.433015e-003
9.428822e-003
9.422794e-003
9.414484e-003
9.403517e-003
9.389698e-003
9.373140e-003
9.354386e-003
9.334475e-003
9.314954e-003
9.297776e-003
9.285124e-003
9.279187e-003
9.281916e-003
9.294832e-003
9.318887e-003
9.354427e-003
9.401210e-003
9.458485e-003
9.525097e-003
9.599597e-003
9.680338e-003
9.765578e-003
9.853553e-003
9.942555e-003
1.003098e-002
1.011733e-002
1.020026e-002
1.027850e-002
1.035082e-002
1.041601e-002
1.047279e-002
1.051979e-002
1.055553e-002
1.057847e-002
1.058700e-002
1.057959e-002
1.055491e-002
1.051198e-002
1.045039e-002
1.037053e-002
1.027378e-002
1.016267e-002
1.004095e-002
9.913480e-003
9.785971e-003
9.664519e-003
9.554993e-003
9.462357e-003
9.390048e-003
9.339532e-003
9.310169e-003
9.299404e-003
9.303296e-003
9.317235e-003
9.336693e-003
9.357840e-003
9.377897e-003
9.395207e-003
9.409084e-003
9.419545e-003
9.427015e-003
9.432093e-003
9.435386e-003
9.437425e-003
9.438630e-003
9.439305e-003
9.439661e-003
9.439835e-003
9.439911e-003
9.439938e-003
9.439944e-003
9.439941e-003
9.439935e-003
9.439930e-003
9.439926e-003
9.439923e-003
9.439922e-003
9.439921e-003
9.439920e-003
9.439920e-003
9.439920e-003
9.439920e-003
9.439920e-003
9.439920e-003
9.439920e-003
9.439950e-003
9.439954e-003
9.439963e-003
9.439972e-003
9.439979e-003
9.439975e-003
9.439944e-003
9.439858e-003
9.439660e-003
9.439260e-003
9.438512e-003
9.437196e-003
9.434994e-003
9.431472e-003
9.426078e-003
9.418168e-003
9.407084e-003
9.392300e-003
9.373651e-003
9.351627e-003
9.327688e-003
9.304503e-003
9.286023e-003
9.277302e-003
9.284076e-003
9.312134e-003
9.366642e-003
9.451537e-003
9.569109e-003
9.719836e-003
9.902463e-003
1.011425e-002
1.035135e-002
1.060913e-002
1.088257e-002
1.116647e-002
1.145573e-002
1.174549e-002
1.203123e-002
1.230890e-002
1.257490e-002
1.282601e-002
1.305930e-002
1.327196e-002
1.346114e-002
1.362380e-002
1.375660e-002
1.385583e-002
1.391747e-002
1.393726e-002
1.391093e-002
1.383451e-002
1.370475e-002
1.351965e-002
1.327905e-002
1.298521e-002
1.264340e-002
1.226221e-002
1.185358e-002
1.143243e-002
1.101565e-002
1.062072e-002
1.026389e-002
9.958332e-003
9.712546e-003
9.529348e-003
9.405807e-003
9.334109e-003
9.303231e-003
9.300984e-003
9.315936e-003
9.338797e-003
9.363036e-003
9.384807e-003
9.402407e-003
9.415571e-003
9.424815e-003
9.430963e-003
9.434855e-003
9.437203e-003
9.438551e-003
9.439286e-003
9.439662e-003
9.439839e-003
9.439914e-003
9.439940e-003
9.439944e-003
9.439939e-003
9.439933e-003
9.439928e-003
9.439925e-003
9.439923e-003
9.439922e-003
9.439921e-003
9.439920e-003
9.439920e-003
9.439920e-003
9.439920e-003
9.439920e-003
9.439920e-003
9.439966e-003
9.439971e-003
9.439979e-003
9.439985e-003
9.439982e-003
9.439952e-003
9.439863e-003
9.439655e-003
9.439224e-003
9.438396e-003
9.436901e-003
9.434336e-003
9.430136e-003
9.423555e-003
9.413702e-003
9.399661e-003
9.380743e-003
9.356939e-003
9.329556e-003
9.301975e-003
9.280351e-003
9.273975e-003
9.295054e-003
9.357788e-003
9.476830e-003
9.665443e-003
9.933753e-003
1.028747e-002
1.072733e-002
1.124920e-002
1.184489e-002
1.250317e-002
1.321099e-002
1.395450e-002
1.471990e-002
1.549400e-002
1.626460e-002
1.702073e-002
1.775278e-002
1.845252e-002
1.911299e-002
1.972822e-002
2.029294e-002
2.080211e-002
2.125052e-002
2.163243e-002
2.194127e-002
2.216948e-002
2.230849e-002
2.234891e-002
2.228092e-002
2.209481e-002
2.178182e-002
2.133526e-002
2.075177e-002
2.003277e-002
1.918595e-002
1.822655e-002
1.717805e-002
1.607213e-002
1.494737e-002
1.384662e-002
1.281327e-002
1.188655e-002
1.109688e-002
1.046203e-002
9.985203e-003
9.655475e-003
9.450835e-003
9.342888e-003
9.302075e-003
9.302072e-003
9.322470e-003
9.349524e-003
9.375392e-003
9.396585e-003
9.412315e-003
9.423168e-003
9.430224e-003
9.434576e-003
9.437130e-003
9.438556e-003
9.439309e-003
9.439682e-003
9.439852e-003
9.439920e-003
9.439941e-003
9.439943e-003
9.439938e-003
9.439932e-003
9.439927e-003
9.439924e-003
9.439922e-003
9.439921e-003
9.439921e-003
9.439921e-003
9.439920e-003
9.439920e-003
9.439920e-003
9.439920e-003
9.439987e-003
9.439991e-003
9.439995e-003
9.439992e-003
9.439964e-003
9.439879e-003
9.439673e-003
9.439232e-003
9.438365e-003
9.436757e-003
9.433929e-003
9.429179e-003
9.421559e-003
9.409898e-003
9.392975e-003
9.369931e-003
9.341060e-003
9.309082e-003
9.280806e-003
9.268899e-003
9.293143e-003
9.380471e-003
9.563263e-003
9.875894e-003
1.035013e-002
1.101045e-002
1.187035e-002
1.293059e-002
1.417934e-002
1.559424e-002
1.714543e-002
1.879900e-002
2.052006e-002
2.227511e-002
2.403353e-002
2.576837e-002
2.745659e-002
2.907909e-002
3.062042e-002
3.206849e-002
3.341393e-002
3.464944e-002
3.576888e-002
3.676642e-002
3.763562e-002
3.836872e-002
3.895603e-002
3.938558e-002
3.964297e-002
3.971156e-002
3.957284e-002
3.920729e-002
3.859552e-002
3.772000e-002
3.656719e-002
3.513033e-002
3.341259e-002
3.143037e-002
2.921639e-002
2.682159e-002
2.431530e-002
2.178269e-002
1.931894e-002
1.702037e-002
1.497320e-002
1.324225e-002
1.186200e-002
1.083270e-002
1.012305e-002
9.678683e-003
9.434240e-003
9.325315e-003
9.297437e-003
9.310461e-003
9.338649e-003
9.367956e-003
9.392304e-003
9.410202e-003
9.422307e-003
9.429984e-003
9.434592e-003
9.437219e-003
9.438642e-003
9.439370e-003
9.439718e-003
9.439870e-003
9.439927e-003
9.439942e-003
9.439941e-003
9.439936e-003
9.439931e-003
9.439926e-003
9.439924e-003
9.439922e-003
9.439921e-003
9.439921e-003
9.439920e-003
9.439920e-003
9.439920e-003
9.439920e-003
9.440010e-003
9.440011e-003
9.440006e-003
9.439982e-003
9.439905e-003
9.439712e-003
9.439287e-003
9.438426e-003
9.436788e-003
9.433831e-003
9.428737e-003
9.420357e-003
9.407232e-003
9.387795e-003
9.360977e-003
9.327474e-003
9.291994e-003
9.266537e-003
9.274327e-003
9.353246e-003
9.557102e-003
9.953111e-003
1.061492e-002
1.161205e-002
1.299829e-002
1.480191e-002
1.702051e-002
1.962131e-002
2.254651e-002
2.572169e-002
2.906513e-002
3.249612e-002
3.594101e-002
3.933678e-002
4.263224e-002
4.578774e-002
4.877395e-002
5.157040e-002
5.416393e-002
5.654710e-002
5.871669e-002
6.067210e-002
6.241376e-002
6.394171e-002
6.525422e-002
6.634670e-002
6.721088e-002
6.783417e-002
6.819934e-002
6.828439e-002
6.806271e-002
6.750353e-002
6.657285e-002
6.523491e-002
6.345459e-002
6.120083e-002
5.845149e-002
5.519953e-002
5.146033e-002
4.727949e-002
4.273940e-002
3.796286e-002
3.311072e-002
2.837170e-002
2.394317e-002
2.000519e-002
1.669291e-002
1.407513e-002
1.214612e-002
1.083372e-002
1.002105e-002
9.574301e-003
9.367947e-003
9.301068e-003
9.303112e-003
9.331231e-003
9.363265e-003
9.390090e-003
9.409518e-003
9.422355e-003
9.430279e-003
9.434899e-003
9.437455e-003
9.438796e-003
9.439458e-003
9.439763e-003