# vtk DataFile Version 3.0
vtk output
ASCII
DATASET STRUCTURED_POINTS
DIMENSIONS 100 100 1
SPACING 1 1 1
ORIGIN 0 0 0
POINT_DATA 10000
SCALARS SFBox_profile double
LOOKUP_TABLE default 
0.000000e+000
0.000000e+000
0.000000e+000
0.000000e+000
0.000000e+000
0.000000e+000
0.000000e+000
0.000000e+000
0.000000e+000
0.000000e+000
0.000000e+000
0.000000e+000
0.000000e+000
0.000000e+000
0.000000e+000
0.000000e+000
0.000000e+000
0.000000e+000
0.000000e+000
0.000000e+000
0.000000e+000
0.000000e+000
0.000000e+000
0.000000e+000
0.000000e+000
0.000000e+000
0.000000e+000
0.000000e+000
0.000000e+000
0.000000e+000
0.000000e+000
0.000000e+000
0.000000e+000
0.000000e+000
0.000000e+000
0.000000e+000
0.000000e+000
0.000000e+000
0.000000e+000
0.000000e+000
0.000000e+000
0.000000e+000
0.000000e+000
0.000000e+000
0.000000e+000
0.000000e+000
0.000000e+000
0.000000e+000
0.000000e+000
0.000000e+000
0.000000e+000
0.000000e+000
0.000000e+000
0.000000e+000
0.000000e+000
0.000000e+000
0.000000e+000
0.000000e+000
0.000000e+000
0.000000e+000
0.000000e+000
0.000000e+000
0.000000e+000
0.000000e+000
0.000000e+000
0.000000e+000
0.000000e+000
0.000000e+000
0.000000e+000
0.000000e+000
0.000000e+000
0.000000e+000
0.000000e+000
0.000000e+000
0.000000e+000
0.000000e+000
0.000000e+000
0.000000e+000
0.000000e+000
0.000000e+000
0.000000e+000
0.000000e+000
0.000000e+000
0.000000e+000
0.000000e+000
0.000000e+000
0.000000e+000
0.000000e+000
0.000000e+000
0.000000e+000
0.000000e+000
0.000000e+000
0.000000e+000
0.000000e+000
0.000000e+000
0.000000e+000
0.000000e+000
0.000000e+000
0.000000e+000
0.000000e+000
1.440675e-008
5.994206e-009
-3.665421e-009
-8.653395e-009
-7.054591e-009
-1.393783e-009
3.801217e-009
5.408745e-009
3.535981e-009
6.034584e-010
-1.167320e-009
-1.503367e-009
-1.635340e-009
-2.422761e-009
-3.160646e-009
-2.347880e-009
4.546389e-010
3.762777e-009
5.347286e-009
4.282118e-009
1.719950e-009
-3.880717e-010
-1.201296e-009
-1.492476e-009
-2.358465e-009
-3.752517e-009
-4.529997e-009
-3.843776e-009
-2.163800e-009
-7.341397e-010
-1.867618e-010
1.840147e-011
7.445554e-010
2.051125e-009
3.163120e-009
3.478177e-009
3.290605e-009
3.356816e-009
3.925129e-009
4.479986e-009
4.471985e-009
4.040839e-009
3.804801e-009
4.038235e-009
4.335883e-009
4.183989e-009
3.655544e-009
3.305449e-009
3.422751e-009
3.652353e-009
3.494349e-009
3.003698e-009
2.734695e-009
2.988508e-009
3.378983e-009
3.331076e-009
2.869970e-009
2.627377e-009
3.008801e-009
3.613060e-009
3.716249e-009
3.230235e-009
2.861999e-009
3.200979e-009
3.891971e-009
4.011757e-009
3.228956e-009
2.258304e-009
1.965323e-009
2.218007e-009
1.977523e-009
5.921724e-010
-1.295760e-009
-2.404429e-009
-2.278111e-009
-1.771906e-009
-1.932879e-009
-2.625436e-009
-2.600640e-009
-9.927514e-010
1.497845e-009
3.147951e-009
2.911400e-009
1.396297e-009
8.737554e-011
-2.479729e-010
-1.901255e-010
-7.172605e-010
-1.837838e-009
-2.389949e-009
-1.272577e-009
1.193963e-009
3.246543e-009
3.125540e-009
6.756450e-010
-2.371161e-009
-3.714408e-009
-2.306220e-009
8.108011e-010
3.297050e-009
1.249424e-009
3.411064e-010
-5.912981e-010
-8.238213e-010
-2.287987e-010
6.292598e-010
9.238992e-010
2.695069e-010
-8.716177e-010
-1.503306e-009
-9.518514e-010
4.771925e-010
1.699483e-009
1.792625e-009
8.037593e-010
-3.723204e-010
-9.171941e-010
-8.468986e-010
-8.121806e-010
-1.204994e-009
-1.616536e-009
-1.289642e-009
-4.763184e-011
1.397023e-009
2.143286e-009
2.015646e-009
1.640972e-009
1.630340e-009
1.862155e-009
1.707169e-009
8.723275e-010
-1.977760e-010
-8.409043e-010
-9.450233e-010
-1.010042e-009
-1.464483e-009
-2.126444e-009
-2.473573e-009
-2.333683e-009
-2.092229e-009
-2.173206e-009
-2.496917e-009
-2.619799e-009
-2.345665e-009
-1.986035e-009
-1.934747e-009
-2.141524e-009
-2.193698e-009
-1.889181e-009
-1.520820e-009
-1.483529e-009
-1.735237e-009
-1.848975e-009
-1.597435e-009
-1.279369e-009
-1.328897e-009
-1.718823e-009
-1.971461e-009
-1.790172e-009
-1.474884e-009
-1.541550e-009
-2.022928e-009
-2.383452e-009
-2.194694e-009
-1.700968e-009
-1.513103e-009
-1.798364e-009
-2.018289e-009
-1.585308e-009
-6.198650e-010
1.661363e-010
3.329155e-010
2.386927e-010
5.562315e-010
1.376379e-009
2.019551e-009
1.804147e-009
8.468129e-010
-6.125872e-011
-3.361904e-010
-1.879366e-010
-2.511258e-010
-7.477907e-010
-1.188298e-009
-9.434946e-010
-5.670438e-012
9.279082e-010
1.126887e-009
5.200268e-010
-2.905227e-010
-6.390882e-010
-3.750552e-010
1.144054e-010
3.517980e-010
1.921431e-010
-1.375935e-010
-3.165950e-010
-2.101429e-010
6.832392e-011
2.904817e-010
-1.282337e-008
-5.512562e-009
2.941092e-009
7.501971e-009
6.538070e-009
2.021699e-009
-2.545407e-009
-4.704602e-009
-4.200619e-009
-2.259923e-009
-1.129398e-010
1.772715e-009
3.324896e-009
4.181062e-009
3.673914e-009
1.540653e-009
-1.509259e-009
-4.103938e-009
-5.158166e-009
-4.540824e-009
-2.890733e-009
-9.255786e-010
9.922735e-010
2.732163e-009
4.095094e-009
4.802891e-009
4.745712e-009
4.099930e-009
3.145848e-009
2.038764e-009
8.193594e-010
-4.153170e-010
-1.477373e-009
-2.257927e-009
-2.844490e-009
-3.389774e-009
-3.897021e-009
-4.222357e-009
-4.296234e-009
-4.251213e-009
-4.266739e-009
-4.340523e-009
-4.307920e-009
-4.087609e-009
-3.810666e-009
-3.648335e-009
-3.577974e-009
-3.420396e-009
-3.104221e-009
-2.788235e-009
-2.662488e-009
-2.696894e-009
-2.686574e-009
-2.535907e-009
-2.390814e-009
-2.436613e-009
-2.641439e-009
-2.800070e-009
-2.815669e-009
-2.828033e-009
-3.012308e-009
-3.328707e-009
-3.566457e-009
-3.613330e-009
-3.574410e-009
-3.583416e-009
-3.579229e-009
-3.358028e-009
-2.818308e-009
-2.055003e-009
-1.191485e-009
-2.185016e-010
9.115524e-010
2.074203e-009
2.973612e-009
3.386770e-009
3.322516e-009
2.873480e-009
1.990365e-009
5.621707e-010
-1.225153e-009
-2.732442e-009
-3.242056e-009
-2.553227e-009
-1.154259e-009
2.348478e-010
1.239293e-009
1.892998e-009
2.198138e-009
1.829559e-009
4.755151e-010
-1.503717e-009
-2.936904e-009
-2.627307e-009
-4.752566e-010
2.152978e-009
3.326467e-009
2.078992e-009
-7.246742e-010
-2.982660e-009
-1.499592e-008
-5.998932e-009
4.066579e-009
8.831139e-009
6.627655e-009
6.695794e-010
-4.073263e-009
-4.745868e-009
-2.217286e-009
5.190873e-010
1.347764e-009
6.228989e-010
1.369023e-010
8.626697e-010
1.918265e-009
1.720538e-009
-9.020909e-011
-2.121040e-009
-2.639573e-009
-1.335365e-009
4.684203e-010
1.269994e-009
8.354710e-010
1.344785e-010
5.523463e-011
4.679525e-010
5.981658e-010
7.390226e-011
-6.511934e-010
-8.907816e-010
-5.046504e-010
5.138913e-011
3.367426e-010
3.869753e-010
5.350730e-010
9.336014e-010
1.394803e-009
1.668168e-009
1.738463e-009
1.790771e-009
1.953436e-009
2.164001e-009
2.284850e-009
2.281254e-009
2.246921e-009
2.280645e-009
2.379008e-009
2.457550e-009
2.456638e-009
2.407259e-009
2.387121e-009
2.420291e-009
2.442228e-009
2.384180e-009
2.279722e-009
2.242556e-009
2.315173e-009
2.382247e-009
2.298865e-009
2.097810e-009
1.982141e-009
2.057688e-009
2.142092e-009
1.955386e-009
1.500095e-009
1.114906e-009
1.054172e-009
1.106789e-009
8.140552e-010
9.426434e-011
-5.331842e-010
-5.132816e-010
3.043743e-011
3.775096e-010
8.967619e-011
-3.820542e-010
-2.064157e-010
7.301393e-010
1.498528e-009
1.098408e-009
-3.370203e-010
-1.554081e-009
-1.488889e-009
-4.091391e-010
4.353347e-010
2.656705e-010
-3.462599e-010
-2.045922e-010
9.903149e-010
2.082259e-009
1.585579e-009
-6.340392e-010
-2.919797e-009
-3.197069e-009
-9.111445e-010
2.305040e-009
3.899413e-009
2.520507e-009
-8.275325e-010
-3.558563e-009
-3.845698e-009
-8.624967e-010
2.049210e-009
2.531771e-009
4.233553e-010
-2.210347e-009
-2.808960e-009
-5.527295e-010
2.789398e-009
4.284874e-009
2.416726e-009
-1.503718e-009
-4.468551e-009
-4.431229e-009
-1.953917e-009
6.864594e-010
1.871308e-009
1.969537e-009
2.356429e-009
3.440424e-009
4.037485e-009
2.772735e-009
-1.912052e-010
-3.136605e-009
-4.483846e-009
-4.235719e-009
-3.608089e-009
-3.450768e-009
-3.370747e-009
-2.458065e-009
-5.584894e-010
1.482406e-009
2.790187e-009
3.375209e-009
3.927163e-009
4.874365e-009
5.909525e-009
6.473114e-009
6.480961e-009
6.385401e-009
6.578670e-009
6.940795e-009
7.064179e-009
6.805600e-009
6.454609e-009
6.345734e-009
6.441223e-009
6.409850e-009
6.078525e-009
5.668710e-009
5.515390e-009
5.631629e-009
5.688169e-009
5.451919e-009
5.119416e-009
5.083854e-009
5.404779e-009
5.683072e-009
5.560902e-009
5.225389e-009
5.212265e-009
5.690624e-009
6.156544e-009
6.015959e-009
5.364406e-009
4.909753e-009
5.035477e-009
5.185967e-009
4.459350e-009
2.756165e-009
1.011098e-009
1.105637e-010
-1.942160e-010
-9.495523e-010
-2.561277e-009
-4.045140e-009
-4.006741e-009
-2.263619e-009
-1.527517e-010
8.994774e-010
8.695751e-010
9.273828e-010
1.806933e-009
2.746893e-009
2.310534e-009
1.612375e-010
-2.272634e-009
-3.063244e-009
-1.651552e-009
6.347722e-010
1.882962e-009
1.326508e-009
-1.628192e-010
-1.103236e-009
-7.842236e-010
2.757927e-010
1.003279e-009
7.711440e-010
-1.547242e-010
-9.514975e-010
9.885463e-009
4.699563e-009
-1.442297e-009
-5.189805e-009
-5.417326e-009
-3.054017e-009
2.330591e-010
3.098717e-009
4.650656e-009
4.243807e-009
1.752814e-009
-1.856979e-009
-4.656610e-009
-4.994495e-009
-2.854811e-009
1.234599e-010
2.137710e-009
2.720062e-009
2.692134e-009
2.783444e-009
2.648363e-009
1.459850e-009
-7.307193e-010
-2.656487e-009
-3.047642e-009
-1.973300e-009
-6.921967e-010
-1.979510e-010
-2.098629e-010
2.436578e-010
1.475225e-009
2.718974e-009
3.090055e-009
2.652652e-009
2.278406e-009
2.551914e-009
3.126652e-009
3.271356e-009
2.827591e-009
2.363273e-009
2.405268e-009
2.785894e-009
2.912811e-009
2.554623e-009
2.113497e-009
2.068010e-009
2.342658e-009
2.423455e-009
2.051989e-009
1.580916e-009
1.519501e-009
1.858862e-009
2.069659e-009
1.798254e-009
1.355349e-009
1.326679e-009
1.783573e-009
2.144581e-009
1.925943e-009
1.421513e-009
1.371652e-009
1.987306e-009
2.610344e-009
2.530945e-009
1.946936e-009
1.770472e-009
2.444622e-009
3.282261e-009
3.251229e-009
2.264808e-009
1.311456e-009
1.198957e-009
1.493514e-009
1.045983e-009
-5.068855e-010
-2.149251e-009
-2.574826e-009
-1.635913e-009
-3.996789e-010
1.904071e-010
3.488704e-010
9.346560e-010
2.112427e-009
2.906995e-009
2.225503e-009
1.361805e-010
-2.065929e-009
-3.021823e-009
-2.390536e-009
-8.331100e-010
7.781878e-010
1.907580e-009
2.264466e-009
1.609328e-009
-1.578940e-012
-1.819691e-009
-2.610264e-009
-1.608401e-009
6.271335e-010
2.454416e-009
1.402032e-008
5.329888e-009
-3.954604e-009
-7.739991e-009
-5.170805e-009
-1.763407e-011
3.218626e-009
2.912165e-009
7.377945e-010
-7.618677e-010
-6.586054e-010
1.169226e-010
4.076631e-010
1.625451e-010
8.886279e-011
4.224070e-010
5.292864e-010
-2.106046e-010
-1.478224e-009
-2.273562e-009
-2.002676e-009
-1.001846e-009
8.299082e-011
1.132037e-009
2.473525e-009
4.081752e-009
5.255252e-009
5.313425e-009
4.422858e-009
3.428108e-009
2.857603e-009
2.373205e-009
1.357653e-009
-1.544835e-010
-1.430994e-009
-1.931746e-009
-1.962758e-009
-2.252677e-009
-3.022616e-009
-3.753388e-009
-3.913374e-009
-3.664953e-009
-3.636276e-009
-4.091789e-009
-4.605700e-009
-4.652747e-009
-4.317030e-009
-4.177220e-009
-4.525619e-009
-4.964474e-009
-4.927038e-009
-4.440757e-009
-4.110397e-009
-4.320675e-009
-4.709527e-009
-4.634447e-009
-4.038513e-009
-3.556926e-009
-3.685783e-009
-4.101022e-009
-4.060858e-009
-3.394304e-009
-2.758446e-009
-2.780151e-009
-3.192193e-009
-3.125928e-009
-2.210072e-009
-1.039154e-009
-3.872459e-010
-2.003831e-010
3.008551e-010
1.544432e-009
2.973120e-009
3.671818e-009
3.415983e-009
2.795330e-009
2.339700e-009
1.875925e-009
9.521680e-010
-3.223141e-010
-1.220133e-009
-1.223206e-009
-6.275313e-010
-1.314498e-010
1.009888e-011
1.249365e-010
4.215891e-010
5.016348e-010
-1.190485e-010
-1.100995e-009
-1.301438e-009
4.459007e-013
1.985532e-009
2.744534e-009
1.118947e-009
-1.891773e-009
-3.750818e-009
-2.641851e-009
7.417915e-010
3.650000e-009
6.230357e-009
8.650009e-010
-3.950135e-009
-4.053813e-009
1.163263e-010
4.310365e-009
4.422521e-009
1.715060e-010
-4.746820e-009
-6.086707e-009
-2.812317e-009
2.272076e-009
5.357353e-009
4.940266e-009
2.467589e-009
1.883021e-010
-1.103702e-009
-2.119308e-009
-3.402601e-009
-4.268156e-009
-3.582283e-009
-1.222124e-009
1.656894e-009
3.772576e-009
4.795325e-009
5.177424e-009
5.246088e-009
4.848529e-009
3.853262e-009
2.600682e-009
1.597100e-009
9.190571e-010
2.103486e-010
-7.278649e-010
-1.615498e-009
-2.108924e-009
-2.354299e-009
-2.866438e-009
-3.866968e-009
-4.990078e-009
-5.775751e-009
-6.287351e-009
-7.009958e-009
-8.164785e-009
-9.376206e-009
-1.015235e-008
-1.053019e-008
-1.100403e-008
-1.182700e-008
-1.263504e-008
-1.291536e-008
-1.269188e-008
-1.249050e-008
-1.261600e-008
-1.271828e-008
-1.224985e-008
-1.120826e-008
-1.015600e-008
-9.483182e-009
-8.911958e-009
-7.918280e-009
-6.494155e-009
-5.206605e-009
-4.474293e-009
-4.052308e-009
-3.414389e-009
-2.476824e-009
-1.656551e-009
-1.215516e-009
-8.475425e-010
-9.532210e-011
1.015051e-009
2.037406e-009
2.749198e-009
3.390292e-009
4.102037e-009
4.405289e-009
3.615602e-009
1.780277e-009
-1.471494e-010
-1.273092e-009
-1.685370e-009
-2.085542e-009
-2.565605e-009
-2.209984e-009
-2.609257e-010
2.486041e-009
3.941097e-009
2.685435e-009
-4.101060e-010
-2.790484e-009
-2.570629e-009
-2.692749e-010
1.799898e-009
1.791234e-009
-2.199426e-011
-1.706883e-009
-1.618363e-009
9.164865e-011
1.733536e-009
-5.058705e-009
-3.756575e-009
-1.403490e-009
1.619692e-009
4.296453e-009
5.061837e-009
2.835036e-009
-1.620611e-009
-5.532675e-009
-5.970081e-009
-2.417873e-009
2.469648e-009
5.039796e-009
3.840448e-009
6.865288e-010
-1.429923e-009
-1.278542e-009
-9.488011e-011
3.771548e-010
-2.666994e-011
-4.836965e-011
1.093839e-009
2.575990e-009
2.934078e-009
1.785229e-009
1.798780e-010
-6.777086e-010
-6.448048e-010
-4.325763e-010
-5.303107e-010
-7.337360e-010
-6.989118e-010
-5.690619e-010
-8.245533e-010
-1.697904e-009
-3.020605e-009
-4.625647e-009
-6.627363e-009
-9.173544e-009
-1.210269e-008
-1.506786e-008
-1.795768e-008
-2.097760e-008
-2.425002e-008
-2.751384e-008
-3.037927e-008
-3.278904e-008
-3.502181e-008
-3.721877e-008
-3.910390e-008
-4.030303e-008
-4.081267e-008
-4.094858e-008
-4.084412e-008
-4.021664e-008
-3.874237e-008
-3.650923e-008
-3.390545e-008
-3.111431e-008
-2.794960e-008
-2.426066e-008
-2.029853e-008
-1.649774e-008
-1.300616e-008
-9.679813e-009
-6.549821e-009
-4.013104e-009
-2.375152e-009
-1.388594e-009
-5.439505e-010
2.147240e-010
4.147455e-010
-1.320163e-010
-7.310399e-010
-4.247534e-010
8.016019e-010
1.840853e-009
1.731669e-009
8.451348e-010
4.044259e-010
8.559639e-010
1.198047e-009
2.631247e-010
-1.568408e-009
-2.450551e-009
-1.063409e-009
1.741338e-009
3.593344e-009
2.892469e-009
2.751650e-010
-2.162360e-009
-2.837371e-009
-1.782461e-009
-1.068203e-010
1.172795e-009
1.669128e-009
1.400859e-009
5.228097e-010
-6.154975e-010
-1.431032e-009
-1.004414e-008
-3.882872e-009
2.409704e-009
4.722404e-009
3.095111e-009
3.753760e-010
-1.038411e-009
-9.504170e-010
-4.272716e-010
-5.650148e-011
3.495017e-010
7.230914e-010
3.114753e-010
-1.266981e-009
-2.929789e-009
-2.808718e-009
-2.586333e-010
3.180060e-009
5.194604e-009
4.956494e-009
3.630295e-009
2.679486e-009
2.161796e-009
1.048058e-009
-1.059190e-009
-3.135489e-009
-3.867828e-009
-3.211248e-009
-2.433038e-009
-2.717891e-009
-4.131912e-009
-6.069967e-009
-8.358367e-009
-1.154159e-008
-1.615358e-008
-2.207195e-008
-2.874357e-008
-3.582531e-008
-4.336206e-008
-5.141162e-008
-5.975995e-008
-6.809072e-008
-7.626100e-008
-8.425839e-008
-9.196636e-008
-9.913581e-008
-1.055868e-007
-1.112945e-007
-1.162255e-007
-1.202033e-007
-1.230291e-007
-1.246537e-007
-1.251083e-007
-1.243060e-007
-1.220642e-007
-1.183507e-007
-1.133608e-007
-1.072618e-007
-9.999463e-008
-9.150054e-008
-8.208046e-008
-7.229809e-008
-6.247172e-008
-5.249883e-008
-4.237855e-008
-3.273794e-008
-2.449289e-008
-1.793916e-008
-1.251243e-008
-7.687155e-009
-3.870409e-009
-1.964227e-009
-2.003471e-009
-2.672780e-009
-2.520959e-009
-1.449747e-009
-5.590509e-010
-5.046967e-010
-5.105162e-010
6.137656e-010
2.724023e-009
4.170097e-009
3.549492e-009
1.294810e-009
-7.914088e-010
-1.413223e-009
-8.335852e-010
-1.051343e-010
2.396923e-010
3.835216e-010
4.158022e-010
-1.330754e-011
-9.691662e-010
-1.587503e-009
-7.724091e-010
1.317214e-009
2.904227e-009
2.195844e-009
-5.934865e-010
-3.129986e-009
-6.768124e-009
-1.896187e-011
5.353096e-009
4.290637e-009
-1.480560e-009
-5.908940e-009
-4.749348e-009
6.935817e-010
5.452191e-009
5.871461e-009
2.488697e-009
-1.486374e-009
-3.623475e-009
-3.808223e-009
-2.981504e-009
-1.481385e-009
8.453462e-010
3.447565e-009
4.937679e-009
4.472724e-009
2.805909e-009
1.489998e-009
1.170315e-009
1.107606e-009
4.065594e-010
-8.106184e-010
-1.856002e-009
-2.855842e-009
-5.122749e-009
-9.976313e-009
-1.752590e-008
-2.691439e-008
-3.758146e-008
-4.988374e-008
-6.440384e-008
-8.099684e-008
-9.880648e-008
-1.170998e-007
-1.357819e-007
-1.550379e-007
-1.747157e-007
-1.942482e-007
-2.130855e-007
-2.310026e-007
-2.479598e-007
-2.638048e-007
-2.781934e-007
-2.907389e-007
-3.011658e-007
-3.093427e-007
-3.152074e-007
-3.186319e-007
-3.193346e-007
-3.169896e-007
-3.114981e-007
-3.030972e-007
-2.920760e-007
-2.784094e-007
-2.618719e-007
-2.426136e-007
-2.214435e-007
-1.993132e-007
-1.765878e-007
-1.531385e-007
-1.292530e-007
-1.061367e-007
-8.516315e-008
-6.672112e-008
-5.020907e-008
-3.528796e-008
-2.274442e-008
-1.371017e-008
-8.168430e-009
-4.729549e-009
-2.043391e-009
-3.314339e-011
6.422587e-010
1.083084e-010
-3.382758e-010
4.451095e-010
2.145181e-009
3.410692e-009
3.395251e-009
2.433870e-009
1.196299e-009
-2.269412e-010
-1.923076e-009
-3.162863e-009
-2.626113e-009
-4.036956e-011
2.804387e-009
3.388324e-009
1.069512e-009
-1.966886e-009
-2.770755e-009
-6.672004e-010
2.019406e-009
2.420966e-009
1.598475e-010
-2.290714e-009
-9.348528e-010
3.093098e-009
5.292058e-009
2.242121e-009
-3.934551e-009
-7.640482e-009
-5.248429e-009
1.327832e-009
6.441504e-009
6.075243e-009
1.389481e-009
-2.924776e-009
-3.431997e-009
-8.035763e-010
1.789603e-009
2.306682e-009
1.356961e-009
5.603525e-010
4.099121e-010
2.404413e-010
-2.504590e-010
-3.673722e-010
4.778794e-010
1.588021e-009
1.386728e-009
-1.208321e-009
-6.313242e-009
-1.397670e-008
-2.499402e-008
-4.041432e-008
-6.044429e-008
-8.430366e-008
-1.112397e-007
-1.413226e-007
-1.749934e-007
-2.120411e-007
-2.513864e-007
-2.918968e-007
-3.331220e-007
-3.750563e-007
-4.173605e-007
-4.590834e-007
-4.991643e-007
-5.370120e-007
-5.724785e-007
-6.053645e-007
-6.350917e-007
-6.608733e-007
-6.821238e-007
-6.986429e-007
-7.103883e-007
-7.170895e-007
-7.181425e-007
-7.129664e-007
-7.014662e-007
-6.840254e-007
-6.609639e-007
-6.321371e-007
-5.973117e-007
-5.569654e-007
-5.124649e-007
-4.652707e-007
-4.161401e-007
-3.654284e-007
-3.141380e-007
-2.642429e-007
-2.176809e-007
-1.752219e-007
-1.366868e-007
-1.022046e-007
-7.276722e-008
-4.929280e-008
-3.148738e-008
-1.809901e-008
-8.224903e-009
-1.865184e-009
9.982524e-010
1.407421e-009
1.003997e-009
7.191292e-010
4.107853e-010
-9.111398e-011
-1.648620e-010
8.292950e-010
2.207629e-009
2.215601e-009
7.042215e-011
-2.626667e-009
-3.180652e-009
-6.798218e-010
2.775850e-009
4.038925e-009
2.033704e-009
-1.280452e-009
-2.994293e-009
-2.047359e-009
9.583515e-011
1.272939e-009
8.111155e-010
-1.263224e-010
1.987848e-009
2.029688e-009
1.576148e-009
2.121769e-010
-1.651469e-009
-2.668187e-009
-1.696400e-009
6.671478e-010
2.138103e-009
9.806229e-010
-1.774140e-009
-2.957563e-009
-5.632504e-010
3.826489e-009
6.418324e-009
5.043839e-009
1.216682e-009
-1.743622e-009
-2.138501e-009
-1.011221e-009
-2.480255e-010
-5.114634e-010
-1.495783e-009
-3.660857e-009
-8.857031e-009
-1.908678e-008
-3.520506e-008
-5.720179e-008
-8.539674e-008
-1.207645e-007
-1.640422e-007
-2.150029e-007
-2.728917e-007
-3.372837e-007
-4.080760e-007
-4.846527e-007
-5.654604e-007
-6.486358e-007
-7.328700e-007
-8.174198e-007
-9.013681e-007
-9.832010e-007
-1.061256e-006
-1.134434e-006
-1.202284e-006
-1.264415e-006
-1.319992e-006
-1.367877e-006
-1.407185e-006
-1.437561e-006
-1.458869e-006
-1.470644e-006
-1.471982e-006
-1.462046e-006
-1.440623e-006
-1.408035e-006
-1.364489e-006
-1.309729e-006
-1.243596e-006
-1.166895e-006
-1.081447e-006
-9.892257e-007
-8.917064e-007
-7.903446e-007
-6.875040e-007
-5.864401e-007
-4.901661e-007
-4.005697e-007
-3.188036e-007
-2.461749e-007
-1.840807e-007
-1.329980e-007
-9.203323e-008
-5.982090e-008
-3.560077e-008
-1.898217e-008
-8.816764e-009
-2.999774e-009
2.613686e-010
1.419556e-009
3.980934e-010
-1.738618e-009
-2.710918e-009
-1.074835e-009
2.037521e-009
3.881923e-009
2.928311e-009
3.657159e-010
-1.341984e-009
-1.026334e-009
3.679507e-010
1.228826e-009
9.470561e-010
5.014491e-011
-7.628746e-010
-1.199708e-009
-1.154490e-009
-5.078997e-010
5.757156e-010
1.446905e-009
2.487339e-009
-1.514366e-009
-3.882117e-009
-1.779633e-009
2.531600e-009
4.746115e-009
3.121500e-009
-4.172316e-010
-3.037629e-009
-3.690653e-009
-2.907319e-009
-1.110232e-009
1.670001e-009
4.570802e-009
5.682914e-009
3.935831e-009
7.954043e-010
-8.506241e-010
2.460413e-010
2.222976e-009
1.911745e-009
-2.418589e-009
-1.067236e-008
-2.298278e-008
-4.129058e-008
-6.850763e-008
-1.066334e-007
-1.563125e-007
-2.180751e-007
-2.932466e-007
-3.832198e-007
-4.881386e-007
-6.067008e-007
-7.370924e-007
-8.776109e-007
-1.026262e-006
-1.180219e-006
-1.336191e-006
-1.491349e-006
-1.643661e-006
-1.791346e-006
-1.932331e-006
-2.064513e-006
-2.186433e-006
-2.297440e-006
-2.397107e-006
-2.484630e-006
-2.558895e-006
-2.619041e-006
-2.664761e-006
-2.695941e-006
-2.712077e-006
-2.712155e-006
-2.695201e-006
-2.660808e-006
-2.608986e-006
-2.539526e-006
-2.451786e-006
-2.345352e-006
-2.220823e-006
-2.079771e-006
-1.924044e-006
-1.755520e-006
-1.576816e-006
-1.391969e-006
-1.206016e-006
-1.023863e-006
-8.497767e-007
-6.878398e-007
-5.421294e-007
-4.157385e-007
-3.095957e-007
-2.226882e-007
-1.535278e-007
-1.009596e-007
-6.333327e-008
-3.752375e-008
-1.972973e-008
-7.501578e-009
-4.359056e-010
1.549664e-009
2.436592e-010
-1.210299e-009
-7.160010e-010
1.279701e-009
2.934322e-009
3.189612e-009
2.385038e-009
1.142570e-009
-4.018323e-010
-1.958991e-009
-2.475974e-009
-1.098393e-009
1.305474e-009
2.468116e-009
1.128939e-009
-1.283806e-009
-2.074273e-009
-3.937522e-010
1.708919e-009
4.282274e-009
-3.011231e-009
-7.488940e-009
-3.836716e-009
4.071271e-009
8.212792e-009
5.063910e-009
-1.462719e-009
-5.041219e-009
-3.473524e-009
2.641000e-010
2.353453e-009
2.007993e-009
9.601854e-010
5.640870e-010
6.680438e-010
9.376371e-010
1.759351e-009
3.003295e-009
2.526980e-009
-3.093741e-009
-1.632069e-008
-3.790497e-008
-6.870447e-008
-1.116767e-007
-1.714501e-007
-2.520834e-007
-3.557822e-007
-4.836928e-007
-6.369991e-007
-8.163965e-007
-1.020521e-006
-1.245418e-006
-1.485721e-006
-1.736060e-006
-1.991308e-006
-2.246104e-006
-2.494979e-006
-2.733261e-006
-2.957692e-006
-3.166082e-006
-3.356634e-006
-3.527888e-006
-3.679188e-006
-3.810828e-006
-3.923524e-006
-4.017779e-006
-4.093836e-006
-4.152104e-006
-4.193378e-006
-4.218483e-006
-4.227712e-006
-4.220717e-006
-4.196938e-006
-4.155966e-006
-4.097289e-006
-4.019700e-006
-3.921223e-006
-3.799761e-006
-3.653735e-006
-3.482033e-006
-3.283728e-006
-3.058570e-006
-2.808152e-006
-2.536553e-006
-2.249768e-006
-1.954820e-006
-1.659723e-006
-1.373818e-006
-1.106932e-006
-8.671586e-007
-6.591340e-007
-4.844227e-007
-3.430562e-007
-2.339549e-007
-1.538695e-007
-9.700206e-008
-5.688040e-008
-2.896015e-008
-1.114144e-008
-1.881256e-009
1.454827e-009
1.975026e-009
1.597245e-009
8.287629e-010
9.650419e-011
3.312401e-010
1.730766e-009
2.726551e-009
1.402693e-009
-1.833692e-009
-3.934195e-009
-2.376696e-009
1.652322e-009
4.151645e-009
2.653150e-009
-9.861544e-010
-2.754838e-009
-1.124626e-009
1.354510e-009
7.604001e-009
-6.407007e-010
-6.690339e-009
-4.745667e-009
1.892814e-009
5.537970e-009
2.759786e-009
-2.416348e-009
-3.686112e-009
3.564475e-010
5.096011e-009
5.485581e-009
1.492223e-009
-2.532402e-009
-2.985331e-009
-3.781538e-010
2.153928e-009
2.151725e-009
-1.402573e-009
-9.979807e-009
-2.678822e-008
-5.583488e-008
-1.007268e-007
-1.653506e-007
-2.554184e-007
-3.782247e-007
-5.402012e-007
-7.446801e-007
-9.917540e-007
-1.279221e-006
-1.602542e-006
-1.953783e-006
-2.321483e-006
-2.692493e-006
-3.054407e-006
-3.396712e-006
-3.710615e-006
-3.988945e-006
-4.226819e-006
-4.422209e-006
-4.575571e-006
-4.688891e-006
-4.765146e-006
-4.808359e-006
-4.823569e-006
-4.816321e-006
-4.792027e-006
-4.755764e-006
-4.712461e-006
-4.666966e-006
-4.623709e-006
-4.586225e-006
-4.556983e-006
-4.537531e-006
-4.528480e-006
-4.528969e-006
-4.535974e-006
-4.544155e-006
-4.546300e-006
-4.533705e-006
-4.496198e-006
-4.422555e-006
-4.302114e-006
-4.127018e-006
-3.893640e-006
-3.602816e-006
-3.260039e-006
-2.876300e-006
-2.468313e-006
-2.056379e-006
-1.660393e-006
-1.296604e-006
-9.767842e-007
-7.085480e-007
-4.948409e-007
-3.329468e-007
-2.152335e-007
-1.322431e-007
-7.575551e-008
-3.941294e-008
-1.760470e-008
-5.199685e-009
1.261990e-009
3.111209e-009
1.286895e-009
-1.698419e-009
-2.529785e-009
-1.237063e-010
2.997664e-009
3.353377e-009
4.929619e-010
-2.399267e-009
-2.147489e-009
7.859801e-010
2.951217e-009
1.975066e-009
-8.155494e-010
-2.183284e-009
-8.607670e-010
1.127891e-009
7.694564e-009
2.600448e-009
-2.107937e-009
-3.006944e-009
-1.063986e-009
2.008147e-010
-9.778524e-010
-2.536267e-009
-1.203923e-009
3.131661e-009
6.648420e-009
5.716067e-009
1.219498e-009
-2.198534e-009
-1.310681e-009
2.015077e-009
2.557432e-009
-3.770934e-009
-1.826641e-008
-4.214306e-008
-7.984452e-008
-1.392689e-007
-2.296549e-007
-3.602650e-007
-5.406136e-007
-7.799408e-007
-1.084392e-006
-1.453566e-006
-1.879076e-006
-2.345412e-006
-2.831355e-006
-3.311073e-006
-3.756002e-006
-4.138399e-006
-4.435300e-006
-4.630780e-006
-4.716012e-006
-4.688508e-006
-4.551680e-006
-4.314419e-006
-3.989937e-006
-3.594088e-006
-3.144051e-006
-2.657723e-006
-2.153345e-006
-1.648968e-006
-1.161900e-006
-7.084327e-007
-3.038315e-007
3.769236e-008
3.031809e-007
4.812348e-007
5.623023e-007
5.390139e-007
4.068443e-007
1.652451e-007
-1.810994e-007
-6.214459e-007
-1.138625e-006
-1.708690e-006
-2.300713e-006
-2.877787e-006
-3.400020e-006
-3.828713e-006
-4.130243e-006
-4.279383e-006
-4.262961e-006
-4.083605e-006
-3.761236e-006
-3.330217e-006
-2.833034e-006
-2.313589e-006
-1.811992e-006
-1.360390e-006
-9.793321e-007
-6.761616e-007
-4.471933e-007
-2.825638e-007
-1.703234e-007
-9.794948e-008
-5.298131e-008
-2.497455e-008
-7.801141e-009
6.701115e-010
1.891077e-009
-6.044632e-010
-2.224308e-009
-7.467342e-010
2.222961e-009
3.645061e-009
2.467745e-009
3.064970e-010
-8.088283e-010
-5.493789e-010
-3.074882e-011
-1.113283e-010
-5.124298e-010
-4.872441e-010
1.333815e-010
7.642743e-010
8.459054e-010
2.722730e-009
3.169839e-009
9.698922e-010
-1.950088e-009
-3.160608e-009
-2.303784e-009
-6.226901e-010
9.946936e-010
2.415732e-009
3.220420e-009
2.718260e-009
1.394621e-009
1.102503e-009
2.572773e-009
2.937841e-009
-3.328177e-009
-2.103005e-008
-5.300694e-008
-1.031853e-007
-1.806494e-007
-3.001232e-007
-4.784927e-007
-7.308693e-007
-1.068366e-006
-1.495938e-006
-2.008108e-006
-2.583860e-006
-3.184423e-006
-3.755974e-006
-4.235817e-006
-4.559618e-006
-4.668681e-006
-4.517061e-006
-4.077224e-006
-3.342287e-006
-2.324369e-006
-1.050713e-006
4.404240e-007
2.103444e-006
3.888898e-006
5.746694e-006
7.628454e-006
9.488770e-006
1.128570e-005
1.298089e-005
1.453949e-005
1.592986e-005
1.712331e-005
1.809364e-005
1.881673e-005
1.927026e-005
1.943383e-005
1.928972e-005
1.882406e-005
1.802879e-005
1.690403e-005
1.546059e-005
1.372256e-005
1.173008e-005
9.541842e-006
7.235564e-006
4.905444e-006
2.656565e-006
5.972192e-007
-1.170974e-006
-2.565419e-006
-3.535420e-006
-4.071219e-006
-4.205483e-006
-4.006959e-006
-3.568629e-006
-2.992708e-006
-2.374490e-006
-1.788511e-006
-1.281533e-006
-8.741755e-007
-5.679577e-007
-3.523763e-007
-2.097425e-007
-1.194576e-007
-6.310915e-008
-2.835866e-008
-8.766919e-009
-3.027278e-010
1.444834e-009
8.811319e-010
5.737613e-010
9.262064e-010
1.524684e-009
2.063790e-009
2.083219e-009
9.620138e-010
-1.062115e-009
-2.428222e-009
-1.740434e-009
3.495126e-010
1.618804e-009
9.113974e-010
-4.441911e-010
-9.604051e-009
-2.692188e-010
6.419431e-009
4.607196e-009
-1.270461e-009
-3.560673e-009
-5.015912e-010
3.153721e-009
3.031619e-009
6.846191e-011
-1.757046e-009
-5.355086e-010
2.147597e-009