# vtk DataFile Version 3.0
vtk output
ASCII
DATASET STRUCTURED_POINTS
DIMENSIONS 100 100 1
SPACING 1 1 1
ORIGIN 0 0 0
POINT_DATA 10000
SCALARS SFBox_profile double
LOOKUP_TABLE default 
0.000000e+000
0.000000e+000
0.000000e+000
0.000000e+000
0.000000e+000
0.000000e+000
0.000000e+000
0.000000e+000
0.000000e+000
0.000000e+000
0.000000e+000
0.000000e+000
0.000000e+000
0.000000e+000
0.000000e+000
0.000000e+000
0.000000e+000
0.000000e+000
0.000000e+000
0.000000e+000
0.000000e+000
0.000000e+000
0.000000e+000
0.000000e+000
0.000000e+000
0.000000e+000
0.000000e+000
0.000000e+000
0.000000e+000
0.000000e+000
0.000000e+000
0.000000e+000
0.000000e+000
0.000000e+000
0.000000e+000
0.000000e+000
0.000000e+000
0.000000e+000
0.000000e+000
0.000000e+000
0.000000e+000
0.000000e+000
0.000000e+000
0.000000e+000
0.000000e+000
0.000000e+000
0.000000e+000
0.000000e+000
0.000000e+000
0.000000e+000
0.000000e+000
0.000000e+000
0.000000e+000
0.000000e+000
0.000000e+000
0.000000e+000
0.000000e+000
0.000000e+000
0.000000e+000
0.000000e+000
0.000000e+000
0.000000e+000
0.000000e+000
0.000000e+000
0.000000e+000
0.000000e+000
0.000000e+000
0.000000e+000
0.000000e+000
0.000000e+000
0.000000e+000
0.000000e+000
0.000000e+000
0.000000e+000
0.000000e+000
0.000000e+000
0.000000e+000
0.000000e+000
0.000000e+000
0.000000e+000
0.000000e+000
0.000000e+000
0.000000e+000
0.000000e+000
0.000000e+000
0.000000e+000
0.000000e+000
0.000000e+000
0.000000e+000
0.000000e+000
0.000000e+000
0.000000e+000
0.000000e+000
0.000000e+000
0.000000e+000
0.000000e+000
0.000000e+000
0.000000e+000
0.000000e+000
0.000000e+000
2.697033e-009
8.938570e-010
-1.514411e-009
-2.985157e-009
-2.527110e-009
-3.191229e-010
2.330553e-009
3.737806e-009
2.907493e-009
2.276811e-010
-2.722309e-009
-4.180905e-009
-3.352574e-009
-8.764858e-010
1.711740e-009
3.085211e-009
2.938115e-009
1.929697e-009
9.282255e-010
2.775141e-010
-3.001637e-010
-1.187951e-009
-2.323417e-009
-3.160533e-009
-3.149293e-009
-2.235565e-009
-8.999537e-010
2.679547e-010
1.024621e-009
1.542152e-009
2.092686e-009
2.711818e-009
3.170130e-009
3.231669e-009
2.898369e-009
2.397071e-009
1.956690e-009
1.624044e-009
1.289820e-009
8.598428e-010
3.729505e-010
-4.526949e-011
-3.173415e-010
-4.822989e-010
-6.353344e-010
-8.206267e-010
-9.976235e-010
-1.106745e-009
-1.148816e-009
-1.185312e-009
-1.263185e-009
-1.355809e-009
-1.392075e-009
-1.341765e-009
-1.255254e-009
-1.203354e-009
-1.180723e-009
-1.089832e-009
-8.398086e-010
-4.576760e-010
-7.695252e-011
2.039345e-010
4.428204e-010
8.021849e-010
1.355004e-009
1.955690e-009
2.342209e-009
2.389758e-009
2.245901e-009
2.173978e-009
2.243893e-009
2.204933e-009
1.714639e-009
7.195897e-010
-4.109985e-010
-1.173586e-009
-1.377670e-009
-1.296698e-009
-1.346436e-009
-1.601700e-009
-1.655907e-009
-1.008327e-009
3.669300e-010
1.829466e-009
2.489690e-009
1.901556e-009
4.334842e-010
-1.000884e-009
-1.615326e-009
-1.267089e-009
-4.327843e-010
2.588776e-010
4.989032e-010
4.064282e-010
2.721480e-010
2.403489e-010
2.231237e-010
7.309796e-011
-2.059093e-010
-4.349693e-010
4.624545e-010
2.790392e-010
-5.240054e-011
-4.128286e-010
-5.945009e-010
-4.272706e-010
4.789312e-011
5.382304e-010
6.845721e-010
3.544339e-010
-2.125875e-010
-5.696575e-010
-4.310912e-010
6.892758e-011
4.737723e-010
3.963457e-010
-1.333948e-010
-6.824216e-010
-7.864134e-010
-3.465884e-010
3.048769e-010
7.171606e-010
7.080062e-010
4.694889e-010
3.221576e-010
3.841847e-010
4.802440e-010
3.537828e-010
-5.593196e-011
-5.522930e-010
-8.762215e-010
-9.409172e-010
-8.737890e-010
-8.502111e-010
-9.113731e-010
-9.484158e-010
-8.432469e-010
-5.999344e-010
-3.338396e-010
-1.497232e-010
-4.912562e-011
4.327031e-011
1.806583e-010
3.374758e-010
4.485519e-010
4.876415e-010
4.934468e-010
5.196568e-010
5.729345e-010
6.113603e-010
6.015606e-010
5.636324e-010
5.481687e-010
5.712408e-010
5.865223e-010
5.339999e-010
4.133189e-010
2.927761e-010
2.331811e-010
2.086600e-010
1.229295e-010
-8.253427e-011
-3.453345e-010
-5.294490e-010
-5.676548e-010
-5.442527e-010
-6.110192e-010
-8.108253e-010
-1.002077e-009
-9.860069e-010
-7.183819e-010
-3.768808e-010
-1.930128e-010
-2.112848e-010
-2.341024e-010
-2.915510e-011
4.035319e-010
7.872882e-010
8.125627e-010
4.373059e-010
-5.583759e-011
-3.093765e-010
-2.086848e-010
3.659154e-011
1.172081e-010
-7.105759e-011
-3.361196e-010
-3.885731e-010
-1.291962e-010
2.503935e-010
4.413945e-010
2.955765e-010
-4.909049e-011
-2.998632e-010
-2.676812e-010
-1.914111e-011
2.028611e-010
2.049892e-010
9.372252e-012
-1.819680e-010
-2.292671e-009
-5.774660e-010
1.572162e-009
2.633284e-009
1.851670e-009
-2.845908e-010
-2.393807e-009
-3.118391e-009
-1.992051e-009
3.092809e-010
2.459849e-009
3.336592e-009
2.636967e-009
8.963501e-010
-9.936040e-010
-2.337510e-009
-2.880638e-009
-2.693973e-009
-1.937799e-009
-7.549141e-010
6.702281e-010
2.042778e-009
3.019749e-009
3.371927e-009
3.091655e-009
2.347565e-009
1.343526e-009
2.204777e-010
-9.306652e-010
-2.004945e-009
-2.869030e-009
-3.419710e-009
-3.644508e-009
-3.612223e-009
-3.404001e-009
-3.059968e-009
-2.590961e-009
-2.026968e-009
-1.436758e-009
-8.945238e-010
-4.339241e-010
-4.175340e-011
3.057656e-010
6.090192e-010
8.500426e-010
1.023707e-009
1.152752e-009
1.267835e-009
1.378186e-009
1.469025e-009
1.527346e-009
1.561905e-009
1.590888e-009
1.612351e-009
1.596243e-009
1.511579e-009
1.357522e-009
1.158871e-009
9.284789e-010
6.423866e-010
2.627449e-010
-2.131850e-010
-7.354279e-010
-1.239917e-009
-1.701079e-009
-2.135093e-009
-2.546373e-009
-2.880048e-009
-3.041982e-009
-2.970491e-009
-2.679994e-009
-2.226417e-009
-1.637740e-009
-8.992244e-010
-2.033742e-011
8.924173e-010
1.651634e-009
2.093104e-009
2.163491e-009
1.901803e-009
1.349746e-009
5.177557e-010
-5.259917e-010
-1.535191e-009
-2.105575e-009
-1.898119e-009
-9.179710e-010
3.975453e-010
1.399788e-009
1.622306e-009
1.059508e-009
1.308461e-010
-6.231326e-010
-8.754093e-010
-6.514595e-010
-2.220250e-010
1.236537e-010
2.504806e-010
2.057724e-010
1.290070e-010
-3.372728e-009
-1.101877e-009
1.878518e-009
3.617567e-009
2.967150e-009
2.970553e-010
-2.715152e-009
-4.136208e-009
-3.030027e-009
-7.707414e-011
2.888200e-009
4.114386e-009
3.063046e-009
6.311989e-010
-1.630441e-009
-2.635019e-009
-2.346878e-009
-1.486727e-009
-7.542605e-010
-2.971075e-010
1.818330e-010
9.177849e-010
1.738888e-009
2.199770e-009
2.004307e-009
1.272297e-009
4.114997e-010
-2.361052e-010
-6.184192e-010
-8.939593e-010
-1.191500e-009
-1.472431e-009
-1.603545e-009
-1.519340e-009
-1.290838e-009
-1.050055e-009
-8.733659e-010
-7.445903e-010
-6.121821e-010
-4.596145e-010
-3.167564e-010
-2.181687e-010
-1.653832e-010
-1.302952e-010
-8.564107e-011
-2.629286e-011
3.527396e-011
8.717736e-011
1.300294e-010
1.743825e-010
2.290136e-010
2.906543e-010
3.442842e-010
3.757970e-010
3.867058e-010
3.937332e-010
4.080312e-010
4.138902e-010
3.757842e-010
2.749909e-010
1.368349e-010
8.687834e-012
-9.730129e-011
-2.300822e-010
-4.485129e-010
-7.364597e-010
-9.854845e-010
-1.087821e-009
-1.052296e-009
-1.003957e-009
-1.040030e-009
-1.087711e-009
-9.413344e-010
-4.778350e-010
1.655103e-010
6.670472e-010
8.125308e-010
7.107499e-010
6.801934e-010
8.855845e-010
1.095090e-009
8.521855e-010
-5.078293e-011
-1.248138e-009
-1.983770e-009
-1.695611e-009
-5.008455e-010
8.559817e-010
1.558742e-009
1.307519e-009
4.610420e-010
-3.325532e-010
-6.515207e-010
-5.287947e-010
-2.714093e-010
-1.177774e-010
-6.740474e-011
1.068183e-011
1.685187e-010
3.091624e-010
-1.745464e-009
-8.583993e-010
4.847885e-010
1.601385e-009
1.830620e-009
9.488205e-010
-5.622724e-010
-1.722009e-009
-1.718485e-009
-5.633871e-010
8.491000e-010
1.421186e-009
7.536389e-010
-5.047318e-010
-1.200520e-009
-6.662657e-010
7.061914e-010
1.812281e-009
1.777550e-009
6.495678e-010
-7.433963e-010
-1.564959e-009
-1.625599e-009
-1.359550e-009
-1.252618e-009
-1.341670e-009
-1.250971e-009
-6.493561e-010
3.807849e-010
1.415992e-009
2.078855e-009
2.325205e-009
2.377955e-009
2.437700e-009
2.491645e-009
2.384682e-009
2.026682e-009
1.500316e-009
9.791717e-010
5.723025e-010
2.608050e-010
-3.276023e-011
-3.400714e-010
-6.183065e-010
-8.084988e-010
-9.035319e-010
-9.539914e-010
-1.014934e-009
-1.095085e-009
-1.159302e-009
-1.176333e-009
-1.158239e-009
-1.147947e-009
-1.166475e-009
-1.177619e-009
-1.115353e-009
-9.527254e-010
-7.368247e-010
-5.397869e-010
-3.687421e-010
-1.395576e-010
2.354619e-010
7.275263e-010
1.182064e-009
1.459483e-009
1.587444e-009
1.740085e-009
2.032147e-009
2.340478e-009
2.376638e-009
1.976905e-009
1.310521e-009
7.495190e-010
4.948537e-010
3.501162e-010
-7.637830e-011
-9.069416e-010
-1.752052e-009
-1.993920e-009
-1.366096e-009
-2.600953e-010
5.759206e-010
6.846810e-010
2.753597e-010
-3.403160e-011
1.522870e-010
6.258621e-010
8.083300e-010
3.575446e-010
-4.582832e-010
-9.847945e-010
-7.847059e-010
-4.188692e-011
6.099803e-010
6.612182e-010
1.627409e-010
-3.654592e-010
-4.422308e-010
-6.134720e-011
3.425160e-010
1.565446e-009
9.201224e-011
-1.539880e-009
-1.951126e-009
-7.978816e-010
1.035095e-009
2.219309e-009
2.019661e-009
7.295121e-010
-7.503735e-010
-1.691438e-009
-1.951540e-009
-1.756071e-009
-1.227905e-009
-2.434894e-010
1.233634e-009
2.765852e-009
3.528188e-009
2.904359e-009
1.054791e-009
-1.119596e-009
-2.631799e-009
-3.097308e-009
-2.849638e-009
-2.445255e-009
-2.095011e-009
-1.567352e-009
-5.821042e-010
7.761715e-010
2.060719e-009
2.844782e-009
3.064977e-009
2.993272e-009
2.915994e-009
2.875995e-009
2.714912e-009
2.314436e-009
1.754102e-009
1.237094e-009
8.968760e-010
6.992711e-010
5.213199e-010
2.962614e-010
6.773210e-011
-8.355886e-011
-1.413964e-010
-1.720835e-010
-2.503284e-010
-3.819349e-010
-5.066674e-010
-5.729701e-010
-5.988574e-010
-6.496210e-010
-7.550637e-010
-8.600338e-010
-8.720379e-010
-7.619976e-010
-6.033338e-010
-4.904387e-010
-4.155408e-010
-2.502670e-010
1.219424e-010
6.541932e-010
1.147831e-009
1.445721e-009
1.606619e-009
1.845714e-009
2.271439e-009
2.700231e-009
2.785901e-009
2.365757e-009
1.656690e-009
1.057610e-009
7.361790e-010
4.442798e-010
-2.044182e-010
-1.256684e-009
-2.250626e-009
-2.570352e-009
-1.994701e-009
-8.937967e-010
1.190183e-010
7.156239e-010
1.026327e-009
1.314585e-009
1.545099e-009
1.346913e-009
4.431788e-010
-8.981291e-010
-1.902100e-009
-1.858772e-009
-7.399334e-010
7.092061e-010
1.519476e-009
1.237660e-009
2.400649e-010
-6.262774e-010
-7.518844e-010
-2.240863e-010
3.260629e-010
4.085263e-009
1.112102e-009
-2.543362e-009
-4.265594e-009
-2.949004e-009
3.451866e-010
3.290338e-009
4.001141e-009
2.263738e-009
-5.428635e-010
-2.619852e-009
-3.006447e-009
-1.986842e-009
-5.223278e-010
6.185737e-010
1.259550e-009
1.565634e-009
1.602809e-009
1.239142e-009
4.317228e-010
-5.205389e-010
-1.119254e-009
-1.087715e-009
-6.176543e-010
-1.685535e-010
-3.000417e-011
-1.017821e-010
-9.263141e-011
1.141300e-010
3.326786e-010
2.985749e-010
-2.822972e-011
-4.144004e-010
-5.905426e-010
-5.017202e-010
-3.137501e-010
-2.024023e-010
-1.733682e-010
-9.333624e-011
1.339306e-010
4.544857e-010
7.254264e-010
8.625261e-010
9.079588e-010
9.589225e-010
1.052284e-009
1.134048e-009
1.135836e-009
1.062133e-009
9.882718e-010
9.745911e-010
9.970004e-010
9.753944e-010
8.698872e-010
7.335940e-010
6.541433e-010
6.438983e-010
6.089266e-010
4.480715e-010
1.805307e-010
-5.148275e-011
-1.296249e-010
-1.004199e-010
-1.370563e-010
-3.408110e-010
-5.997122e-010
-6.848694e-010
-5.031882e-010
-2.261345e-010
-1.264325e-010
-2.804815e-010
-4.684311e-010
-4.047256e-010
-6.082027e-011
2.804867e-010
3.143272e-010
3.616767e-011
-2.595557e-010
-3.030860e-010
-1.298681e-010
-3.772712e-013
-5.553911e-011
-1.164086e-010
1.148659e-010
6.540691e-010
1.090999e-009
9.161212e-010
3.393462e-011
-1.047447e-009
-1.572705e-009
-1.146653e-009
-5.978524e-011
9.426705e-010
1.234452e-009
7.447424e-010
-6.256475e-011
-5.922579e-010
-5.546492e-010
-1.203389e-010
2.714829e-010
3.694521e-009
1.385405e-009
-1.637282e-009
-3.425687e-009
-2.920867e-009
-6.107760e-010
1.843392e-009
2.794323e-009
1.779289e-009
-2.066204e-010
-1.557687e-009
-1.346639e-009
-5.464885e-013
1.168825e-009
1.122575e-009
-8.472028e-011
-1.479694e-009
-2.069764e-009
-1.597333e-009
-5.366252e-010
4.961219e-010
1.250499e-009
1.825576e-009
2.302364e-009
2.519243e-009
2.228287e-009
1.400312e-009
3.034666e-010
-7.234588e-010
-1.532130e-009
-2.183136e-009
-2.747721e-009
-3.154176e-009
-3.252329e-009
-2.996380e-009
-2.518823e-009
-2.013847e-009
-1.571964e-009
-1.147857e-009
-6.759720e-010
-1.841550e-010
2.227418e-010
4.758607e-010
6.130889e-010
7.302639e-010
8.773681e-010
1.020033e-009
1.102267e-009
1.128187e-009
1.164088e-009
1.260319e-009
1.388108e-009
1.469113e-009
1.465155e-009
1.420616e-009
1.401640e-009
1.400010e-009
1.320493e-009
1.078973e-009
7.030231e-010
3.102109e-010
-2.303754e-011
-3.508097e-010
-7.882890e-010
-1.351415e-009
-1.895475e-009
-2.241097e-009
-2.353233e-009
-2.360141e-009
-2.378392e-009
-2.347659e-009
-2.083476e-009
-1.500452e-009
-7.408114e-010
-4.070089e-011
5.150044e-010
1.042094e-009
1.623834e-009
2.068454e-009
1.991931e-009
1.208342e-009
2.462227e-011
-9.217189e-010
-1.176937e-009
-8.386324e-010
-4.037908e-010
-2.563170e-010
-3.238836e-010
-2.434393e-010
1.701757e-010
6.709863e-010
8.160379e-010
4.307262e-010
-1.921315e-010
-5.656962e-010
-4.638718e-010
-9.268696e-011
1.697707e-010
1.615163e-010
4.297254e-011
3.489168e-010
5.836814e-010
5.980044e-010
9.222893e-011
-6.669100e-010
-1.088274e-009
-8.775608e-010
-3.341815e-010
1.842093e-011
5.453490e-011
1.952687e-010
8.653048e-010
1.831184e-009
2.201001e-009
1.210837e-009
-9.324084e-010
-3.023444e-009
-3.754575e-009
-2.737469e-009
-7.289397e-010
1.085515e-009
2.023186e-009
2.215640e-009
2.160617e-009
2.102945e-009
1.874280e-009
1.237404e-009
2.594312e-010
-6.993113e-010
-1.312876e-009
-1.542396e-009
-1.570745e-009
-1.554271e-009
-1.488742e-009
-1.298437e-009
-9.901896e-010
-6.765927e-010
-4.622516e-010
-3.478760e-010
-2.608430e-010
-1.562265e-010
-5.948116e-011
-1.169274e-011
-9.903258e-013
3.071583e-011
1.198755e-010
2.418377e-010
3.475742e-010
4.262296e-010
5.132544e-010
6.359917e-010
7.692417e-010
8.606174e-010
8.952375e-010
9.155091e-010
9.655684e-010
1.027677e-009
1.034834e-009
9.506666e-010
8.167692e-010
7.000976e-010
6.000575e-010
4.379778e-010
1.569822e-010
-1.866392e-010
-4.672093e-010
-6.314062e-010
-7.603877e-010
-9.529386e-010
-1.158868e-009
-1.187180e-009
-9.212788e-010
-4.976838e-010
-1.979817e-010
-1.276285e-010
-5.001121e-011
3.751408e-010
1.156266e-009
1.826783e-009
1.820300e-009
1.022611e-009
-8.099401e-011
-8.461089e-010
-1.048140e-009
-9.870393e-010
-1.019676e-009
-1.064329e-009
-6.713945e-010
3.742347e-010
1.586995e-009
2.044022e-009
1.221426e-009
-4.058012e-010
-1.655763e-009
-1.628418e-009
-4.875015e-010
7.102534e-010
9.897180e-010
3.199041e-010
-4.412022e-010
-3.685012e-009
-7.568074e-010
2.591322e-009
3.755294e-009
2.084545e-009
-8.608414e-010
-2.842776e-009
-2.762578e-009
-1.222163e-009
3.981707e-010
1.240520e-009
1.416284e-009
1.411178e-009
1.319318e-009
7.943468e-010
-3.201615e-010
-1.515142e-009
-1.935606e-009
-1.209723e-009
1.061438e-010
9.783560e-010
8.118066e-010
-7.704700e-011
-8.558337e-010
-9.776134e-010
-5.770111e-010
-1.532543e-010
1.954611e-011
1.172569e-010
4.687123e-010
1.142255e-009
1.869667e-009
2.330151e-009
2.439751e-009
2.354279e-009
2.248411e-009
2.149018e-009
1.977683e-009
1.698756e-009
1.382424e-009
1.132485e-009
9.901559e-010
9.243931e-010
8.946580e-010
8.946764e-010
9.339222e-010
1.001038e-009
1.064768e-009
1.104922e-009
1.124683e-009
1.129050e-009
1.107001e-009
1.048740e-009
9.733582e-010
9.198952e-010
9.047807e-010
9.042274e-010
8.957031e-010
9.086554e-010
1.005812e-009
1.200111e-009
1.411989e-009
1.543883e-009
1.600241e-009
1.695056e-009
1.904373e-009
2.127710e-009
2.154959e-009
1.905996e-009
1.567626e-009
1.419330e-009
1.496528e-009
1.483491e-009
1.021773e-009
1.412623e-010
-6.799760e-010
-9.537891e-010
-6.762839e-010
-3.242666e-010
-3.258842e-010
-5.824275e-010
-5.979159e-010
-1.016784e-010
5.400235e-010
6.437330e-010
-2.307903e-011
-8.608187e-010
-9.372126e-010
6.104422e-011
1.389484e-009
1.837557e-009
8.520538e-010
-8.749622e-010
-1.954415e-009
-1.517356e-009
1.112279e-011
1.297122e-009
1.293009e-009
1.529754e-010
-9.557376e-010
-5.425752e-009
-1.580624e-009
2.983731e-009
4.918048e-009
3.195446e-009
-3.814299e-010
-2.923958e-009
-2.834535e-009
-8.334103e-010
1.033290e-009
1.307936e-009
2.091932e-010
-9.089970e-010
-9.766190e-010
-7.810670e-011
9.127045e-010
1.332628e-009
1.253366e-009
1.101963e-009
9.775216e-010
5.121699e-010
-5.939592e-010
-2.037972e-009
-3.038233e-009
-3.009889e-009
-2.069072e-009
-8.523827e-010
1.106814e-010
7.981322e-010
1.511937e-009
2.405391e-009
3.269126e-009
3.762678e-009
3.776140e-009
3.518500e-009
3.282777e-009
3.182846e-009
3.128691e-009
3.005930e-009
2.824224e-009
2.689039e-009
2.671944e-009
2.741697e-009
2.812367e-009
2.828517e-009
2.794098e-009
2.738816e-009
2.678495e-009
2.606614e-009
2.507125e-009
2.368394e-009
2.195336e-009
2.017269e-009
1.875112e-009
1.784862e-009
1.714835e-009
1.619459e-009
1.508142e-009
1.463409e-009
1.560375e-009
1.764265e-009
1.941477e-009
2.004942e-009
2.034817e-009
2.203095e-009
2.549256e-009
2.866496e-009
2.877462e-009
2.543702e-009
2.147218e-009
1.997908e-009
2.060704e-009
1.943548e-009
1.312337e-009
2.922312e-010
-6.179569e-010
-1.056528e-009
-1.161369e-009
-1.343849e-009
-1.709347e-009
-1.812335e-009
-1.102951e-009
3.671389e-010
1.773107e-009
2.158746e-009
1.304710e-009
-4.552493e-011
-8.477018e-010
-6.707596e-010
5.473490e-012
3.473290e-010
-7.139587e-012
-6.462376e-010
-8.419600e-010
-2.797425e-010
6.315205e-010
1.124580e-009
7.538641e-010
-2.134432e-010
-1.014272e-009
-3.455225e-009
-1.187189e-009
1.558706e-009
2.806598e-009
1.881957e-009
-1.589315e-010
-1.480939e-009
-1.034740e-009
5.712688e-010
1.653484e-009
9.948475e-010
-1.030262e-009
-2.770852e-009
-2.755290e-009
-9.385846e-010
1.367507e-009
2.705061e-009
2.608449e-009
1.674187e-009
7.190173e-010
2.484748e-011
-6.179994e-010
-1.329075e-009
-1.812238e-009
-1.658714e-009
-8.616981e-010
9.869652e-011
7.023184e-010
8.545483e-010
8.726705e-010
1.064803e-009
1.404081e-009
1.629992e-009
1.597945e-009
1.453869e-009
1.463955e-009
1.730298e-009
2.111407e-009
2.396963e-009
2.511121e-009
2.533758e-009
2.561761e-009
2.591437e-009
2.538181e-009
2.341317e-009
2.029569e-009
1.692938e-009
1.408546e-009
1.194634e-009
1.022190e-009
8.625849e-010
7.287925e-010
6.742068e-010
7.425444e-010
9.094767e-010
1.082384e-009
1.179723e-009
1.217512e-009
1.295294e-009
1.471431e-009
1.661628e-009
1.701990e-009
1.537230e-009
1.318247e-009
1.259307e-009
1.383987e-009
1.460327e-009
1.242879e-009
7.721700e-010
3.702378e-010
2.979671e-010
4.547799e-010
4.914692e-010
2.327335e-010
-9.002760e-011
-1.074618e-010
2.033530e-010
4.088607e-010
7.752871e-011
-6.742596e-010
-1.189744e-009
-8.883664e-010
1.392009e-010
1.187316e-009
1.575463e-009
1.198329e-009
4.650663e-010
-1.958804e-010
-6.661309e-010
-9.990497e-010
-1.115404e-009
-8.013524e-010
-3.646632e-011
7.921559e-010
1.137713e-009
7.951298e-010
1.064604e-010
-3.789993e-010
-4.320780e-010
-2.904516e-010
9.437553e-010
1.203164e-010
-7.601768e-010
-1.022645e-009
-6.536043e-010
-9.113717e-011
3.801816e-010
8.367206e-010
1.319258e-009
1.451397e-009
7.128889e-010
-8.357598e-010
-2.265825e-009
-2.450959e-009
-1.136616e-009
7.086793e-010
1.708113e-009
1.292054e-009
1.205850e-010
-6.501708e-010
-4.470309e-010
3.655664e-010
1.064966e-009
1.328476e-009
1.373904e-009
1.487486e-009
1.602897e-009
1.412999e-009
8.027272e-010
4.290475e-011
-4.705452e-010
-5.972694e-010
-5.198961e-010
-4.717712e-010
-4.798239e-010
-4.046698e-010
-1.813042e-010
4.860082e-011
5.479343e-011
-2.709929e-010
-8.483631e-010
-1.530071e-009
-2.251360e-009
-3.049249e-009
-3.960727e-009
-4.931089e-009
-5.827237e-009
-6.529225e-009
-7.003164e-009
-7.291099e-009
-7.436511e-009
-7.420224e-009
-7.170859e-009
-6.645311e-009
-5.900974e-009
-5.075214e-009
-4.276135e-009
-3.496108e-009
-2.657263e-009
-1.756402e-009
-9.414541e-010
-4.021696e-010
-1.733912e-010
-8.326255e-011
6.250282e-011
2.549470e-010
2.922216e-010
4.091836e-011
-3.565351e-010
-6.022541e-010
-5.742997e-010
-4.634602e-010
-5.131927e-010
-6.548125e-010
-5.091531e-010
1.818863e-010
1.172234e-009
1.857114e-009
1.833430e-009
1.260527e-009
6.223955e-010
1.945924e-010
-1.392511e-010
-5.312511e-010
-7.872739e-010
-5.328159e-010
2.094411e-010
7.867541e-010
4.834865e-010
-6.221663e-010
-1.518716e-009
-1.177078e-009
3.322846e-010
1.742306e-009
1.751770e-009
3.312870e-010
-1.191561e-009
-1.422199e-009
-2.798845e-010
9.488147e-010
4.759671e-009
1.253384e-009
-2.673129e-009
-4.008536e-009
-2.306131e-009
4.033208e-010
1.833290e-009
1.435013e-009
3.775482e-010
-5.096133e-011
2.700886e-010
5.391870e-010
2.140803e-010
-3.643940e-010
-5.353173e-010
-2.381446e-010
-1.142849e-010
-6.759004e-010
-1.565937e-009
-1.817823e-009
-8.489191e-010
9.117508e-010
2.424404e-009
2.990603e-009
2.747644e-009
2.295896e-009
2.002585e-009
1.756670e-009
1.315962e-009
7.174171e-010
2.572385e-010
1.290310e-010
1.899775e-010
1.081423e-010
-3.262571e-010
-1.089854e-009
-2.090211e-009
-3.356595e-009
-5.025142e-009
-7.164377e-009
-9.666402e-009
-1.232299e-008
-1.498217e-008
-1.760833e-008
-2.020110e-008
-2.268652e-008
-2.490551e-008
-2.670408e-008
-2.802218e-008
-2.888892e-008
-2.933469e-008
-2.931604e-008
-2.873665e-008
-2.754845e-008
-2.582701e-008
-2.373253e-008
-2.138908e-008
-1.881690e-008
-1.600699e-008
-1.306101e-008
-1.022064e-008
-7.720813e-009
-5.618113e-009
-3.802487e-009
-2.194294e-009
-8.878113e-010
-4.316334e-011
3.582624e-010
5.732531e-010
8.470756e-010
1.131686e-009
1.144465e-009
7.513124e-010
2.271899e-010
3.859031e-011
3.585030e-010
8.870100e-010
1.214122e-009
1.286933e-009
1.375910e-009
1.553605e-009
1.381549e-009
3.456885e-010
-1.343134e-009
-2.577438e-009
-2.251382e-009
-4.405442e-010
1.436014e-009
1.837802e-009
5.864403e-010
-9.273171e-010
-1.121560e-009
1.649309e-010
1.496459e-009
1.330327e-009
-3.380904e-010
-1.895630e-009
-1.726966e-009
1.099410e-010
1.881224e-009
5.549876e-009
1.288713e-009
-3.314056e-009
-4.493731e-009
-1.899273e-009
1.529373e-009
2.618776e-009
8.442806e-010
-1.589691e-009
-2.191816e-009
-5.343651e-010
1.677700e-009
2.530536e-009
1.658445e-009
1.871433e-010
-7.107346e-010
-9.090183e-010
-1.027167e-009
-1.375277e-009
-1.506755e-009
-8.394851e-010
5.069612e-010
1.701064e-009
2.023339e-009
1.569220e-009
1.073923e-009
1.126270e-009
1.658016e-009
2.174214e-009
2.330613e-009
2.172656e-009
1.855547e-009
1.274624e-009
5.545021e-011
-2.133523e-009
-5.339795e-009
-9.400839e-009
-1.418182e-008
-1.967625e-008
-2.588704e-008
-3.267443e-008
-3.976231e-008
-4.687919e-008
-5.385799e-008
-6.059243e-008
-6.692542e-008
-7.261227e-008
-7.739965e-008
-8.112551e-008
-8.372831e-008
-8.516313e-008
-8.532956e-008
-8.410372e-008
-8.144752e-008
-7.747421e-008
-7.239114e-008
-6.638172e-008
-5.956867e-008
-5.211004e-008
-4.430908e-008
-3.657832e-008
-2.926398e-008
-2.252364e-008
-1.640868e-008
-1.104913e-008
-6.681807e-009
-3.439103e-009
-1.144150e-009
5.877553e-010
1.992595e-009
2.950658e-009
3.210082e-009
2.803348e-009
2.135861e-009
1.592810e-009
1.135742e-009
4.446944e-010
-4.946296e-010
-1.099979e-009
-7.059214e-010
5.708497e-010
1.642370e-009
1.358839e-009
-2.942230e-010
-1.995470e-009
-2.236883e-009
-7.563654e-010
1.185560e-009
1.992868e-009
1.212827e-009
-1.502779e-010
-7.434479e-010
-2.220007e-010
5.165253e-010
3.973086e-010
-6.241808e-010
-1.479793e-009
-1.110752e-009
3.761987e-010
1.724945e-009
3.160123e-009
2.909763e-010
-2.548908e-009
-2.669944e-009
-1.085722e-010
2.530579e-009
2.636844e-009
6.046053e-011
-2.825745e-009
-3.422565e-009
-1.287635e-009
1.629056e-009
2.955358e-009
2.029967e-009
1.879370e-010
-8.204700e-010
-4.896350e-010
3.104621e-010
5.651689e-010
1.891779e-010
-1.420563e-010
3.185534e-011
4.233715e-010
4.624860e-010
8.437993e-011
-1.434869e-010
3.231929e-010
1.358052e-009
2.232378e-009
2.239549e-009
1.137794e-009
-1.007785e-009
-4.274968e-009
-9.054396e-009
-1.578576e-008
-2.462002e-008
-3.538542e-008
-4.782763e-008
-6.179810e-008
-7.719212e-008
-9.376370e-008
-1.110623e-007
-1.285521e-007
-1.457566e-007
-1.622712e-007
-1.776711e-007
-1.914595e-007
-2.031340e-007
-2.122950e-007
-2.186752e-007
-2.220743e-007
-2.223000e-007
-2.192099e-007
-2.128168e-007
-2.033344e-007
-1.911038e-007
-1.764901e-007
-1.598807e-007
-1.417901e-007
-1.229165e-007
-1.040271e-007
-8.575697e-008
-6.853953e-008
-5.274573e-008
-3.883099e-008
-2.724017e-008
-1.811545e-008
-1.115326e-008
-5.845547e-009
-1.884847e-009
7.340767e-010
2.048251e-009
2.464105e-009
2.595976e-009
2.707133e-009
2.438286e-009
1.285162e-009
-5.952188e-010
-2.184537e-009
-2.384824e-009
-1.064194e-009
7.326066e-010
1.682691e-009
1.313942e-009
2.728444e-010
-4.313503e-010
-3.547768e-010
1.645112e-010
5.337125e-010
4.922478e-010
2.003140e-010
-8.035225e-011
-2.529416e-010
-3.581208e-010
-4.130844e-010
-3.658217e-010
-1.857322e-010
6.866756e-011
2.929947e-010
4.157466e-010
-4.855366e-010
-7.745354e-010
-7.772426e-010
-4.182901e-012
1.310959e-009
2.189444e-009
1.676831e-009
-1.783984e-010
-2.111291e-009
-2.605136e-009
-1.273259e-009
6.984031e-010
1.610899e-009
8.536863e-010
-5.522096e-010
-1.029013e-009
-1.699302e-011
1.565326e-009
2.360296e-009
1.914579e-009
9.330612e-010
3.522461e-010
3.935459e-010
5.898438e-010
5.443614e-010
3.947466e-010
4.509500e-010
5.214212e-010
-2.387022e-010
-2.813137e-009
-7.775676e-009
-1.529483e-008
-2.557245e-008
-3.912633e-008
-5.659376e-008
-7.832143e-008
-1.041995e-007
-1.338452e-007
-1.668408e-007
-2.027408e-007
-2.408980e-007
-2.803685e-007
-3.200259e-007
-3.587581e-007
-3.955521e-007
-4.294409e-007
-4.594491e-007
-4.846430e-007
-5.042390e-007
-5.176489e-007
-5.244366e-007
-5.242778e-007
-5.170083e-007
-5.027194e-007
-4.817841e-007
-4.547798e-007
-4.224142e-007
-3.855636e-007
-3.453744e-007
-3.032527e-007
-2.606665e-007
-2.189147e-007
-1.790877e-007
-1.422141e-007
-1.093265e-007
-8.124242e-008
-5.822998e-008
-3.995445e-008
-2.583149e-008
-1.542047e-008
-8.399533e-009
-4.171907e-009
-1.676298e-009
1.889970e-010
1.867637e-009
2.957704e-009
2.843591e-009
1.540903e-009
-1.264679e-010
-1.172299e-009
-1.189786e-009
-4.544672e-010
5.336403e-010
1.409551e-009
1.881507e-009
1.625247e-009
5.552888e-010
-7.968545e-010
-1.478322e-009
-9.673396e-010
1.861354e-010
8.008786e-010
2.832509e-010
-6.944231e-010
-9.063589e-010
3.335858e-011
1.165486e-009
1.205443e-009
-6.754771e-012
-1.262679e-009
-3.147811e-009
-9.611870e-010
1.378626e-009
2.081620e-009
1.179822e-009
5.592232e-011
-2.474227e-010
5.886705e-011
1.791375e-010
-1.268518e-010
-3.867877e-010
-2.547351e-010
-8.073782e-011
-4.067315e-010
-1.079496e-009
-1.224721e-009
-2.332026e-010
1.416553e-009
2.542977e-009
2.463228e-009
1.653110e-009
1.157014e-009
1.474499e-009
2.149813e-009
2.358975e-009
1.642249e-009
-9.116197e-011
-3.175580e-009
-8.594826e-009
-1.770961e-008
-3.168945e-008
-5.131432e-008
-7.726699e-008
-1.104246e-007
-1.517104e-007
-2.016323e-007
-2.599815e-007
-3.259305e-007
-3.983130e-007
-4.757514e-007
-5.565802e-007
-6.387896e-007
-7.201641e-007
-7.985312e-007
-8.719181e-007
-9.385439e-007
-9.967640e-007
-1.045091e-006
-1.082275e-006
-1.107351e-006
-1.119599e-006
-1.118527e-006
-1.103913e-006
-1.075893e-006
-1.034980e-006
-9.820073e-007
-9.181119e-007
-8.448280e-007
-7.641933e-007
-6.786833e-007
-5.909506e-007
-5.035680e-007
-4.189750e-007
-3.395465e-007
-2.674927e-007
-2.044808e-007
-1.512673e-007
-1.077364e-007
-7.333667e-008
-4.743908e-008
-2.922629e-008
-1.732782e-008
-9.815034e-009
-4.800105e-009
-1.139400e-009
1.452268e-009
2.924551e-009
3.398108e-009
3.138152e-009
2.267357e-009
8.477996e-010
-6.573771e-010
-1.300474e-009
-4.313203e-010
1.354477e-009
2.385383e-009
1.432325e-009
-8.837904e-010
-2.485746e-009
-1.890339e-009
2.008298e-010
1.600608e-009
9.853748e-010
-6.761312e-010
-1.256755e-009
6.446112e-011
1.804443e-009
1.828930e-009
-1.809112e-010
-2.258620e-009
-3.916896e-009
-2.050851e-010
3.235062e-009
3.055424e-009
-1.490218e-010
-2.846834e-009
-2.431959e-009
3.195653e-010
2.519314e-009
2.336584e-009
5.366393e-010
-8.888691e-010
-1.002981e-009
-5.195139e-010
-4.496985e-010
-7.588235e-010
-6.134951e-010
3.535475e-010
1.490791e-009
1.936161e-009
1.680476e-009
1.538862e-009
2.088858e-009
2.840098e-009
2.498646e-009