# vtk DataFile Version 3.0
vtk output
ASCII
DATASET STRUCTURED_POINTS
DIMENSIONS 100 100 1
SPACING 1 1 1
ORIGIN 0 0 0
POINT_DATA 10000
SCALARS SFBox_profile double
LOOKUP_TABLE default 
0.000000e+000
0.000000e+000
0.000000e+000
0.000000e+000
0.000000e+000
0.000000e+000
0.000000e+000
0.000000e+000
0.000000e+000
0.000000e+000
0.000000e+000
0.000000e+000
0.000000e+000
0.000000e+000
0.000000e+000
0.000000e+000
0.000000e+000
0.000000e+000
0.000000e+000
0.000000e+000
0.000000e+000
0.000000e+000
0.000000e+000
0.000000e+000
0.000000e+000
0.000000e+000
0.000000e+000
0.000000e+000
0.000000e+000
0.000000e+000
0.000000e+000
0.000000e+000
0.000000e+000
0.000000e+000
0.000000e+000
0.000000e+000
0.000000e+000
0.000000e+000
0.000000e+000
0.000000e+000
0.000000e+000
0.000000e+000
0.000000e+000
0.000000e+000
0.000000e+000
0.000000e+000
0.000000e+000
0.000000e+000
0.000000e+000
0.000000e+000
0.000000e+000
0.000000e+000
0.000000e+000
0.000000e+000
0.000000e+000
0.000000e+000
0.000000e+000
0.000000e+000
0.000000e+000
0.000000e+000
0.000000e+000
0.000000e+000
0.000000e+000
0.000000e+000
0.000000e+000
0.000000e+000
0.000000e+000
0.000000e+000
0.000000e+000
0.000000e+000
0.000000e+000
0.000000e+000
0.000000e+000
0.000000e+000
0.000000e+000
0.000000e+000
0.000000e+000
0.000000e+000
0.000000e+000
0.000000e+000
0.000000e+000
0.000000e+000
0.000000e+000
0.000000e+000
0.000000e+000
0.000000e+000
0.000000e+000
0.000000e+000
0.000000e+000
0.000000e+000
0.000000e+000
0.000000e+000
0.000000e+000
0.000000e+000
0.000000e+000
0.000000e+000
0.000000e+000
0.000000e+000
0.000000e+000
0.000000e+000
-2.906310e-009
-1.556591e-009
2.058605e-010
1.447897e-009
1.767386e-009
1.378977e-009
7.648352e-010
2.279334e-010
-2.751701e-010
-9.180220e-010
-1.648854e-009
-2.064937e-009
-1.676306e-009
-3.554590e-010
1.425815e-009
2.816329e-009
3.124687e-009
2.263119e-009
7.539508e-010
-6.825058e-010
-1.606866e-009
-2.035087e-009
-2.229631e-009
-2.356352e-009
-2.329613e-009
-1.949519e-009
-1.153573e-009
-1.238348e-010
8.403742e-010
1.543304e-009
1.997167e-009
2.336297e-009
2.652335e-009
2.914306e-009
3.028507e-009
2.951902e-009
2.739087e-009
2.489596e-009
2.264062e-009
2.053636e-009
1.818713e-009
1.544122e-009
1.255330e-009
9.912875e-010
7.715180e-010
5.892461e-010
4.279920e-010
2.787743e-010
1.443689e-010
3.500842e-011
-3.668505e-011
-6.175324e-011
-4.324525e-011
1.124069e-012
5.201541e-011
1.105964e-010
2.050164e-010
3.653115e-010
5.863406e-010
8.214408e-010
1.024412e-009
1.201632e-009
1.412358e-009
1.702345e-009
2.033477e-009
2.292100e-009
2.384076e-009
2.324413e-009
2.217498e-009
2.131381e-009
1.992950e-009
1.630737e-009
9.479340e-010
6.000041e-011
-7.564744e-010
-1.275924e-009
-1.495768e-009
-1.589240e-009
-1.675071e-009
-1.638597e-009
-1.210246e-009
-2.602298e-010
9.628881e-010
1.902730e-009
2.059351e-009
1.358800e-009
2.183415e-010
-7.483327e-010
-1.142087e-009
-9.818422e-010
-5.746474e-010
-2.112428e-010
3.455149e-011
2.567553e-010
5.150738e-010
7.039364e-010
6.271834e-010
2.045124e-010
-3.943134e-010
-8.287664e-010
-9.959791e-010
-3.490467e-010
4.078170e-010
7.500896e-010
5.116487e-010
-4.637501e-011
-4.709949e-010
-4.667156e-010
-9.555402e-011
3.105175e-010
4.358724e-010
2.263194e-010
-1.010523e-010
-2.731581e-010
-2.018181e-010
-3.875265e-011
-7.102078e-012
-1.745471e-010
-3.808304e-010
-3.840570e-010
-8.598867e-011
3.726030e-010
7.289079e-010
8.123875e-010
6.606615e-010
4.459743e-010
3.012087e-010
2.151506e-010
8.138472e-011
-1.689199e-010
-4.892788e-010
-7.624668e-010
-9.083642e-010
-9.438911e-010
-9.460647e-010
-9.690705e-010
-1.001206e-009
-9.940487e-010
-9.211650e-010
-8.039746e-010
-6.868462e-010
-5.960094e-010
-5.244426e-010
-4.501145e-010
-3.618657e-010
-2.676423e-010
-1.838940e-010
-1.218824e-010
-8.245574e-011
-5.841899e-011
-3.959579e-011
-1.944947e-011
-2.049463e-012
-2.587477e-012
-3.546665e-011
-9.737496e-011
-1.645448e-010
-2.138366e-010
-2.499093e-010
-3.063648e-010
-4.112606e-010
-5.491060e-010
-6.645287e-010
-7.133172e-010
-7.107019e-010
-7.191089e-010
-7.776231e-010
-8.446088e-010
-8.231828e-010
-6.561203e-010
-3.953375e-010
-1.650514e-010
-4.476784e-011
9.791868e-012
1.172899e-010
3.325921e-010
5.606859e-010
6.232206e-010
4.268995e-010
7.177961e-011
-2.149100e-010
-2.674278e-010
-1.186891e-010
4.263825e-011
5.314823e-011
-7.800468e-011
-1.916841e-010
-1.435774e-010
4.943838e-011
2.200422e-010
2.063629e-010
6.408099e-012
-2.117126e-010
-2.537401e-010
-6.986026e-011
1.970319e-010
3.268724e-010
2.041501e-010
-8.513289e-011
-3.200733e-010
1.444153e-009
1.048583e-009
4.093865e-010
-3.153973e-010
-9.836420e-010
-1.438775e-009
-1.488561e-009
-9.734612e-010
8.179843e-011
1.355553e-009
2.297362e-009
2.395785e-009
1.490148e-009
-9.772252e-011
-1.721894e-009
-2.758725e-009
-2.905247e-009
-2.247918e-009
-1.107738e-009
1.774360e-010
1.372326e-009
2.331624e-009
2.941556e-009
3.109765e-009
2.811826e-009
2.128085e-009
1.215907e-009
2.345067e-010
-7.124662e-010
-1.575624e-009
-2.321038e-009
-2.905869e-009
-3.292626e-009
-3.478216e-009
-3.499696e-009
-3.408232e-009
-3.238086e-009
-2.999821e-009
-2.698401e-009
-2.352028e-009
-1.991610e-009
-1.644439e-009
-1.321113e-009
-1.018012e-009
-7.302130e-010
-4.612932e-010
-2.225686e-010
-2.522060e-011
1.267207e-010
2.374557e-010
3.144692e-010
3.610921e-010
3.720921e-010
3.369281e-010
2.495677e-010
1.161956e-010
-4.858271e-011
-2.358195e-010
-4.524638e-010
-7.142638e-010
-1.025423e-009
-1.365971e-009
-1.702649e-009
-2.013508e-009
-2.298243e-009
-2.559268e-009
-2.772200e-009
-2.880582e-009
-2.826223e-009
-2.586405e-009
-2.179040e-009
-1.632250e-009
-9.578554e-010
-1.670294e-010
6.829182e-010
1.464946e-009
2.020259e-009
2.233086e-009
2.076447e-009
1.593882e-009
8.537225e-010
-5.755367e-011
-9.892009e-010
-1.695562e-009
-1.903266e-009
-1.472054e-009
-5.345859e-010
5.181688e-010
1.231069e-009
1.336798e-009
8.901179e-010
1.977354e-010
-3.892263e-010
-6.649127e-010
-6.258562e-010
-3.979641e-010
-1.228541e-010
1.106155e-010
2.693855e-010
3.482411e-010
2.782030e-009
1.517794e-009
-1.215709e-010
-1.275907e-009
-1.612324e-009
-1.355988e-009
-9.104497e-010
-4.550629e-010
1.207412e-010
9.298877e-010
1.771014e-009
2.135070e-009
1.579428e-009
1.537959e-010
-1.515681e-009
-2.595900e-009
-2.591263e-009
-1.635441e-009
-3.226510e-010
7.462813e-010
1.322151e-009
1.521962e-009
1.572106e-009
1.559329e-009
1.399487e-009
9.950795e-010
3.870008e-010
-2.491521e-010
-7.366209e-010
-1.017014e-009
-1.151022e-009
-1.225099e-009
-1.269036e-009
-1.254456e-009
-1.151949e-009
-9.752460e-010
-7.717459e-010
-5.812282e-010
-4.104512e-010
-2.441454e-010
-7.221467e-011
9.770664e-011
2.505719e-010
3.801488e-010
4.924118e-010
5.953011e-010
6.888048e-010
7.662072e-010
8.230855e-010
8.623834e-010
8.898016e-010
9.057883e-010
9.044494e-010
8.811980e-010
8.397550e-010
7.887602e-010
7.305153e-010
6.555415e-010
5.519787e-010
4.209803e-010
2.786841e-010
1.381225e-010
-1.007652e-011
-1.916311e-010
-4.162093e-010
-6.524105e-010
-8.446618e-010
-9.626920e-010
-1.029861e-009
-1.088577e-009
-1.129463e-009
-1.064671e-009
-7.943195e-010
-3.156373e-010
2.388237e-010
6.915029e-010
9.620030e-010
1.112851e-009
1.235794e-009
1.288257e-009
1.069176e-009
4.044594e-010
-6.077598e-010
-1.541717e-009
-1.884741e-009
-1.408989e-009
-3.656156e-010
6.743535e-010
1.210220e-009
1.118401e-009
6.474649e-010
1.506684e-010
-1.841688e-010
-3.860821e-010
-5.421406e-010
-6.293897e-010
-5.189697e-010
-1.396979e-010
3.805039e-010
7.574295e-010
2.361640e-009
8.080307e-010
-9.730792e-010
-1.723531e-009
-1.111713e-009
1.660398e-010
1.042026e-009
9.258671e-010
8.087939e-011
-7.107990e-010
-8.473564e-010
-3.611455e-010
2.208551e-010
4.212055e-010
2.373965e-010
7.536439e-011
2.932983e-010
8.110173e-010
1.154248e-009
8.799898e-010
-2.129799e-011
-1.108096e-009
-1.845272e-009
-1.994959e-009
-1.707989e-009
-1.290010e-009
-9.055062e-010
-4.911451e-010
9.034668e-011
8.520304e-010
1.640792e-009
2.266717e-009
2.652722e-009
2.861323e-009
2.998142e-009
3.107109e-009
3.155005e-009
3.096417e-009
2.935864e-009
2.726626e-009
2.522025e-009
2.337671e-009
2.158156e-009
1.969523e-009
1.778394e-009
1.602912e-009
1.453946e-009
1.329909e-009
1.226695e-009
1.145946e-009
1.091088e-009
1.059576e-009
1.045276e-009
1.049773e-009
1.085944e-009
1.164136e-009
1.274954e-009
1.392980e-009
1.504143e-009
1.626989e-009
1.796110e-009
2.016285e-009
2.237311e-009
2.388005e-009
2.443544e-009
2.451075e-009
2.470771e-009
2.483772e-009
2.373126e-009
2.022181e-009
1.444967e-009
8.059297e-010
2.850543e-010
-8.642774e-011
-4.390649e-010
-8.886679e-010
-1.342754e-009
-1.513398e-009
-1.168916e-009
-3.996092e-010
3.795763e-010
7.332811e-010
5.567151e-010
1.461659e-010
-8.423654e-011
2.356573e-011
2.579002e-010
2.832088e-010
-2.821313e-012
-3.535430e-010
-4.132591e-010
-7.921048e-011
3.690519e-010
5.083019e-010
1.646509e-010
-4.031686e-010
-7.082890e-010
-4.561127e-010
1.880042e-010
7.222744e-010
7.790653e-010
-3.323348e-010
-1.422378e-009
-1.419311e-009
-1.256418e-010
1.630351e-009
2.593943e-009
1.993040e-009
9.619096e-011
-1.978756e-009
-3.042801e-009
-2.606638e-009
-1.089062e-009
6.199556e-010
1.818984e-009
2.339386e-009
2.381347e-009
2.115733e-009
1.484765e-009
3.695719e-010
-1.104595e-009
-2.486483e-009
-3.256883e-009
-3.190559e-009
-2.484029e-009
-1.546333e-009
-6.686845e-010
1.253943e-010
9.554121e-010
1.858907e-009
2.703701e-009
3.301039e-009
3.575792e-009
3.616528e-009
3.573864e-009
3.527752e-009
3.452414e-009
3.289066e-009
3.031261e-009
2.736744e-009
2.471095e-009
2.254389e-009
2.062387e-009
1.867308e-009
1.667905e-009
1.483173e-009
1.328337e-009
1.204115e-009
1.105309e-009
1.030328e-009
9.784370e-010
9.436581e-010
9.201752e-010
9.150936e-010
9.479097e-010
1.029081e-009
1.140570e-009
1.248285e-009
1.342005e-009
1.458244e-009
1.649220e-009
1.920418e-009
2.206488e-009
2.425685e-009
2.564760e-009
2.696131e-009
2.889258e-009
3.099020e-009
3.160946e-009
2.924075e-009
2.397207e-009
1.747094e-009
1.131646e-009
5.382023e-010
-1.839254e-010
-1.102693e-009
-2.017489e-009
-2.528749e-009
-2.337992e-009
-1.507611e-009
-4.276638e-010
4.833227e-010
1.056178e-009
1.370899e-009
1.516039e-009
1.397270e-009
8.281474e-010
-1.753634e-010
-1.219297e-009
-1.714412e-009
-1.314338e-009
-2.358737e-010
8.431385e-010
1.258742e-009
8.369374e-010
-7.211915e-012
-6.170869e-010
-6.020869e-010
-1.056073e-010
3.601570e-010
-8.707935e-010
-9.295205e-010
-8.332543e-010
-3.492307e-010
5.520735e-010
1.549238e-009
2.057692e-009
1.588464e-009
1.653165e-010
-1.549628e-009
-2.605428e-009
-2.386110e-009
-1.038880e-009
6.410237e-010
1.778214e-009
1.977594e-009
1.453031e-009
6.996245e-010
6.649874e-011
-3.957814e-010
-7.628129e-010
-1.005114e-009
-9.676863e-010
-5.582785e-010
9.253382e-011
6.927371e-010
1.015174e-009
1.058436e-009
9.916218e-010
9.608045e-010
9.622947e-010
8.936773e-010
6.999657e-010
4.491490e-010
2.685542e-010
2.258276e-010
2.820431e-010
3.516657e-010
3.916182e-010
4.274529e-010
5.055101e-010
6.357256e-010
7.842766e-010
9.111895e-010
1.004140e-009
1.076684e-009
1.144324e-009
1.209837e-009
1.267827e-009
1.313148e-009
1.340305e-009
1.340944e-009
1.311337e-009
1.263334e-009
1.218878e-009
1.185166e-009
1.137832e-009
1.040595e-009
8.893211e-010
7.305285e-010
6.223074e-010
5.713446e-010
5.195034e-010
4.089879e-010
2.633049e-010
1.872775e-010
2.678196e-010
4.735254e-010
6.701749e-010
7.511444e-010
7.463580e-010
7.799443e-010
9.075655e-010
1.010300e-009
8.801902e-010
4.299157e-010
-1.882083e-010
-6.881056e-010
-8.804127e-010
-7.928143e-010
-5.662051e-010
-2.623507e-010
1.809880e-010
7.823709e-010
1.332341e-009
1.444858e-009
8.652808e-010
-2.334845e-010
-1.273503e-009
-1.647465e-009
-1.155401e-009
-1.436406e-010
7.594743e-010
1.084242e-009
7.932157e-010
2.174480e-010
-2.375059e-010
-3.662985e-010
-2.409389e-010
-8.773372e-011
-1.902845e-009
-6.721630e-010
6.778636e-010
1.174368e-009
6.966196e-010
-1.011343e-010
-4.845264e-010
-2.680214e-010
1.590962e-010
3.318926e-010
1.807452e-010
1.821134e-011
1.147193e-010
3.474664e-010
3.020299e-010
-2.794151e-010
-1.167416e-009
-1.772552e-009
-1.612843e-009
-6.833516e-010
5.873796e-010
1.701198e-009
2.411047e-009
2.744141e-009
2.800470e-009
2.590857e-009
2.069594e-009
1.272955e-009
3.729556e-010
-4.210034e-010
-1.000261e-009
-1.389490e-009
-1.657500e-009
-1.818854e-009
-1.829094e-009
-1.659008e-009
-1.350819e-009
-9.943171e-010
-6.569890e-010
-3.461019e-010
-3.447734e-011
2.895029e-010
6.031966e-010
8.729994e-010
1.084978e-009
1.250194e-009
1.387242e-009
1.506166e-009
1.606701e-009
1.683422e-009
1.728452e-009
1.734532e-009
1.703412e-009
1.651425e-009
1.598368e-009
1.543905e-009
1.458338e-009
1.306949e-009
1.088180e-009
8.407139e-010
6.024219e-010
3.625590e-010
6.766355e-011
-3.130416e-010
-7.309131e-010
-1.080670e-009
-1.288128e-009
-1.366958e-009
-1.373898e-009
-1.308575e-009
-1.080192e-009
-5.979587e-010
1.030537e-010
8.453844e-010
1.433963e-009
1.790902e-009
1.949779e-009
1.922713e-009
1.617585e-009
9.417059e-010
4.161451e-012
-8.275183e-010
-1.146382e-009
-8.378637e-010
-2.034168e-010
2.729774e-010
3.172498e-010
5.390899e-011
-1.737272e-010
-1.541761e-010
2.239032e-011
1.201770e-010
4.262075e-011
-6.883144e-011
-1.784655e-011
1.971357e-010
3.516129e-010
2.265457e-010
-1.413870e-010
-4.629400e-010
-2.246366e-009
-6.887436e-011
2.141996e-009
2.455597e-009
6.283983e-010
-1.858554e-009
-3.092132e-009
-2.218960e-009
3.872736e-011
2.119697e-009
2.862007e-009
2.199754e-009
8.842607e-010
-3.211529e-010
-1.171066e-009
-1.808549e-009
-2.287815e-009
-2.340273e-009
-1.627528e-009
-1.732434e-010
1.511369e-009
2.755038e-009
3.191738e-009
2.939541e-009
2.382180e-009
1.818678e-009
1.310814e-009
8.000129e-010
2.945788e-010
-8.722236e-011
-2.309100e-010
-1.402367e-010
7.331297e-011
2.954260e-010
4.856586e-010
6.590048e-010
8.190242e-010
9.280970e-010
9.395327e-010
8.428128e-010
6.689372e-010
4.568693e-010
2.230633e-010
-3.688238e-011
-3.253617e-010
-6.275709e-010
-9.165422e-010
-1.167930e-009
-1.369659e-009
-1.521879e-009
-1.630226e-009
-1.695854e-009
-1.707413e-009
-1.643782e-009
-1.490940e-009
-1.259912e-009
-9.843701e-010
-6.944569e-010
-3.935781e-010
-6.894033e-011
2.700519e-010
5.705279e-010
7.658674e-010
8.312228e-010
8.007098e-010
7.198554e-010
5.873332e-010
3.645392e-010
5.558136e-011
-2.359485e-010
-3.595515e-010
-2.426425e-010
5.034574e-011
4.046072e-010
7.942708e-010
1.294737e-009
1.918359e-009
2.448943e-009
2.505334e-009
1.844548e-009
6.329678e-010
-6.078812e-010
-1.371634e-009
-1.517061e-009
-1.269270e-009
-9.010086e-010
-4.565155e-010
1.774379e-010
9.490601e-010
1.473348e-009
1.287358e-009
3.330316e-010
-8.328117e-010
-1.394989e-009
-9.490953e-010
1.196561e-010
9.311588e-010
8.535337e-010
4.138180e-011
-7.180368e-010
-1.971504e-009
1.976284e-010
2.393018e-009
2.637703e-009
6.204492e-010
-2.154723e-009
-3.601629e-009
-2.662104e-009
-4.540348e-011
2.416137e-009
3.196742e-009
2.117901e-009
2.415122e-010
-1.137550e-009
-1.454643e-009
-1.035760e-009
-5.102356e-010
-1.682310e-010
1.419329e-010
6.178394e-010
1.136684e-009
1.328122e-009
9.736456e-010
2.780301e-010
-2.736108e-010
-3.131399e-010
1.553656e-010
8.519484e-010
1.513098e-009
2.071260e-009
2.587348e-009
3.071513e-009
3.405444e-009
3.427507e-009
3.061858e-009
2.353050e-009
1.393039e-009
2.374541e-010
-1.106095e-009
-2.629039e-009
-4.281949e-009
-5.985389e-009
-7.669755e-009
-9.297667e-009
-1.085145e-008
-1.230708e-008
-1.362363e-008
-1.475500e-008
-1.566836e-008
-1.635058e-008
-1.679773e-008
-1.699815e-008
-1.692617e-008
-1.655483e-008
-1.587797e-008
-1.491932e-008
-1.371644e-008
-1.229525e-008
-1.066735e-008
-8.860554e-009
-6.950443e-009
-5.049137e-009
-3.251838e-009
-1.598548e-009
-1.027153e-010
1.179239e-009
2.127704e-009
2.638388e-009
2.729794e-009
2.550892e-009
2.255057e-009
1.868862e-009
1.319436e-009
6.168662e-010
-1.356876e-011
-2.434624e-010
6.317039e-011
6.668899e-010
1.108078e-009
1.084731e-009
6.835213e-010
2.291505e-010
-7.795735e-011
-3.292477e-010
-6.889925e-010
-1.047974e-009
-9.939825e-010
-2.215959e-010
1.007892e-009
1.887658e-009
1.669945e-009
3.559786e-010
-1.187227e-009
-1.862959e-009
-1.225433e-009
1.541849e-010
1.164475e-009
1.072458e-009
1.046448e-010
-7.925849e-010
-9.146935e-010
-5.629875e-012
9.968144e-010
1.258910e-009
5.134083e-010
-7.195352e-010
-1.489431e-009
-1.159261e-009
3.221081e-011
1.107095e-009
1.145391e-009
8.880330e-011
-1.171179e-009
-1.530529e-009
-5.932911e-010
1.033473e-009
2.291215e-009
2.519114e-009
1.842890e-009
8.567217e-010
2.783304e-011
-5.760184e-010
-1.070218e-009
-1.404849e-009
-1.311403e-009
-5.838127e-010
6.443506e-010
1.934779e-009
2.845349e-009
3.185038e-009
2.998430e-009
2.356163e-009
1.201426e-009
-6.058620e-010
-3.135004e-009
-6.302786e-009
-9.936136e-009
-1.389066e-008
-1.809974e-008
-2.252669e-008
-2.709558e-008
-3.167895e-008
-3.614350e-008
-4.039509e-008
-4.437840e-008
-4.804255e-008
-5.131578e-008
-5.411382e-008
-5.636653e-008
-5.803115e-008
-5.907895e-008
-5.947288e-008
-5.916424e-008
-5.811598e-008
-5.632929e-008
-5.384347e-008
-5.070748e-008
-4.695812e-008
-4.263885e-008
-3.784720e-008
-3.275478e-008
-2.756196e-008
-2.242376e-008
-1.742993e-008
-1.267211e-008
-8.323550e-009
-4.619330e-009
-1.725693e-009
3.715002e-010
1.820041e-009
2.723720e-009
3.030238e-009
2.639584e-009
1.644738e-009
4.343312e-010
-5.010088e-010
-8.987546e-010
-8.574857e-010
-6.330196e-010
-3.294429e-010
1.555020e-010
8.611089e-010
1.501688e-009
1.585432e-009
8.795311e-010
-2.441750e-010
-1.005223e-009
-8.515704e-010
3.808783e-011
8.806564e-010
9.555005e-010
2.135824e-010
-7.099864e-010
-1.064128e-009
-6.074771e-010
2.371395e-010
7.804160e-010
6.376562e-010
3.824125e-012
-5.484728e-010
1.024642e-009
-2.081284e-010
-1.318339e-009
-1.219389e-009
-5.947023e-012
1.291312e-009
1.716816e-009
1.135987e-009
1.076678e-010
-7.856960e-010
-1.366137e-009
-1.688649e-009
-1.648162e-009
-9.496359e-010
4.786418e-010
2.137237e-009
3.164119e-009
2.987006e-009
1.800301e-009
3.998352e-010
-4.532787e-010
-5.332074e-010
-1.095206e-010
4.651570e-010
1.052590e-009
1.647463e-009
2.106278e-009
2.049167e-009
1.050230e-009
-1.106391e-009
-4.378030e-009
-8.643649e-009
-1.389226e-008
-2.022525e-008
-2.770368e-008
-3.622738e-008
-4.556693e-008
-5.549006e-008
-6.583937e-008
-7.649779e-008
-8.730739e-008
-9.804143e-008
-1.084529e-007
-1.183378e-007
-1.275477e-007
-1.359529e-007
-1.434062e-007
-1.497468e-007
-1.548328e-007
-1.585585e-007
-1.608397e-007
-1.615876e-007
-1.607111e-007
-1.581490e-007
-1.539026e-007
-1.480287e-007
-1.406065e-007
-1.317236e-007
-1.215144e-007
-1.102181e-007
-9.818174e-008
-8.578447e-008
-7.334703e-008
-6.112372e-008
-4.938492e-008
-3.848138e-008
-2.877982e-008
-2.050249e-008
-1.363803e-008
-8.042785e-009
-3.643304e-009
-5.150219e-010
1.270658e-009
1.872105e-009
1.708509e-009
1.231573e-009
6.765958e-010
7.437873e-011
-4.949189e-010
-7.351601e-010
-3.193250e-010
7.187452e-010
1.829761e-009
2.287925e-009
1.766721e-009
6.096902e-010
-4.696162e-010
-9.643678e-010
-8.839091e-010
-5.654786e-010
-2.726624e-010
-2.245005e-011
2.477690e-010
4.634747e-010
4.491273e-010
1.656519e-010
-1.729540e-010
-2.854279e-010
-1.180026e-010
9.622964e-011
3.251662e-009
4.491422e-011
-3.119272e-009
-3.454086e-009
-8.379258e-010
2.420985e-009
3.765659e-009
2.455914e-009
-1.653865e-010
-2.114150e-009
-2.393976e-009
-1.428417e-009
-2.452382e-010
5.329888e-010
9.434242e-010
1.212748e-009
1.308942e-009
1.041570e-009
4.854394e-010
1.243948e-010
4.792058e-010
1.601231e-009
2.964239e-009
3.842366e-009
3.760913e-009
2.591495e-009
2.901241e-010
-3.364859e-009
-8.754030e-009
-1.619287e-008
-2.578543e-008
-3.749950e-008
-5.133329e-008
-6.736028e-008
-8.560673e-008
-1.059115e-007
-1.279198e-007
-1.512005e-007
-1.753524e-007
-2.000058e-007
-2.247565e-007
-2.491359e-007
-2.726588e-007
-2.948965e-007
-3.155012e-007
-3.341706e-007
-3.506057e-007
-3.645076e-007
-3.756074e-007
-3.836839e-007
-3.885466e-007
-3.900103e-007
-3.879027e-007
-3.821073e-007
-3.726009e-007
-3.594502e-007
-3.427851e-007
-3.228010e-007
-2.998167e-007
-2.743356e-007
-2.470324e-007
-2.186543e-007
-1.899229e-007
-1.615254e-007
-1.341772e-007
-1.086314e-007
-8.555433e-008
-6.534563e-008
-4.808195e-008
-3.365437e-008
-2.195868e-008
-1.293042e-008
-6.399566e-009
-1.971636e-009
8.670352e-010
2.494420e-009
3.042543e-009
2.598176e-009
1.512083e-009
4.346290e-010
-4.059546e-011
2.031388e-010
7.651157e-010
1.126225e-009
1.079483e-009
7.682424e-010
3.719422e-010
-1.198674e-010
-7.496959e-010
-1.281441e-009
-1.228164e-009
-3.384329e-010
9.498174e-010
1.689588e-009
1.225746e-009
-1.214881e-010
-1.236987e-009
-1.188484e-009
-9.923019e-011
9.532283e-010
4.402510e-009
6.127741e-010
-3.263248e-009
-4.000659e-009
-1.359556e-009
2.099054e-009
3.463045e-009
1.919109e-009
-8.420701e-010
-2.366111e-009
-1.579417e-009
5.374960e-010
2.101264e-009
2.020810e-009
6.954800e-010
-6.652913e-010
-1.187829e-009
-8.314601e-010
-4.946803e-012
1.027390e-009
2.253188e-009
3.536245e-009
4.311529e-009
3.741821e-009
1.145535e-009
-3.788367e-009
-1.120197e-008
-2.142006e-008
-3.506276e-008
-5.283454e-008
-7.524366e-008
-1.025137e-007
-1.346842e-007
-1.716988e-007
-2.133521e-007
-2.591705e-007
-3.083863e-007
-3.600506e-007
-4.131809e-007
-4.668269e-007
-5.200513e-007
-5.719104e-007
-6.214943e-007
-6.679957e-007
-7.107376e-007
-7.491408e-007
-7.826747e-007
-8.108408e-007
-8.331893e-007
-8.493276e-007
-8.589012e-007
-8.615714e-007
-8.570300e-007
-8.450499e-007
-8.255309e-007
-7.985104e-007
-7.641587e-007
-7.228125e-007
-6.750549e-007
-6.217819e-007
-5.641811e-007
-5.036321e-007
-4.416138e-007
-3.796863e-007
-3.194947e-007
-2.626783e-007
-2.106548e-007
-1.644068e-007
-1.244349e-007
-9.088339e-008
-6.366439e-008
-4.243360e-008
-2.649516e-008
-1.486434e-008
-6.568547e-009
-9.600362e-010
2.275474e-009
3.439250e-009
3.121457e-009
2.132435e-009
1.124397e-009
3.320638e-010
-2.718206e-010
-6.175421e-010
-4.612646e-010
2.611033e-010
1.088336e-009
1.248266e-009
3.876620e-010
-9.108665e-010
-1.496188e-009
-7.049505e-010
8.932345e-010
1.889322e-009
1.310230e-009
-4.135856e-010
-1.769347e-009
-1.537590e-009
5.892281e-011
1.540671e-009
3.237881e-009
8.683771e-010
-1.645498e-009
-2.332737e-009
-9.968477e-010
8.266938e-010
1.359912e-009
1.950069e-010
-1.385460e-009
-1.644332e-009
-3.610867e-011
2.255607e-009
3.371114e-009
2.418868e-009
2.023591e-010
-1.554930e-009
-1.663277e-009
-2.628819e-010
1.585764e-009
2.882326e-009
3.217294e-009
2.490136e-009
3.218443e-010
-4.158208e-009
-1.203161e-008
-2.425726e-008
-4.168588e-008
-6.533697e-008
-9.653378e-008
-1.366700e-007
-1.867897e-007
-2.473219e-007
-3.181020e-007
-3.985182e-007
-4.875815e-007
-5.838948e-007
-6.856623e-007
-7.908307e-007
-8.973042e-007
-1.003102e-006
-1.106409e-006
-1.205570e-006
-1.299107e-006
-1.385752e-006
-1.464468e-006
-1.534398e-006
-1.594805e-006
-1.645032e-006
-1.684483e-006
-1.712616e-006
-1.728916e-006
-1.732879e-006
-1.724027e-006
-1.701961e-006
-1.666412e-006
-1.617272e-006
-1.554629e-006
-1.478843e-006
-1.390666e-006
-1.291330e-006
-1.182555e-006
-1.066494e-006
-9.456922e-007
-8.230709e-007
-7.018561e-007
-5.853478e-007
-4.765663e-007
-3.779476e-007
-2.912242e-007
-2.174409e-007
-1.569303e-007
-1.091993e-007
-7.290554e-008
-4.613888e-008
-2.694473e-008
-1.373432e-008
-5.292951e-009
-5.046915e-010
1.792558e-009
2.601352e-009
2.472747e-009
1.573693e-009
1.539813e-010
-1.100660e-009
-1.342082e-009
-3.041172e-010
1.267657e-009
2.102906e-009
1.496461e-009
-1.897314e-011
-1.126835e-009
-9.329645e-010
2.171629e-010
1.098945e-009
7.975416e-010
-4.200114e-010
-1.374519e-009
-1.109954e-009
1.921618e-010
1.374126e-009
-1.643580e-010
3.868029e-010
8.367979e-010
7.129312e-010
1.070909e-010
-5.689757e-010
-1.029899e-009
-1.208435e-009
-1.015970e-009
-2.710586e-010
9.744286e-010
2.137365e-009
2.394742e-009
1.463890e-009
7.360368e-011
-5.046879e-010
4.517882e-010
2.417427e-009
3.966027e-009
3.772579e-009
1.257486e-009
-3.702091e-009
-1.160879e-008
-2.388987e-008
-4.274684e-008
-7.064161e-008
-1.099781e-007
-1.631246e-007
-2.324455e-007
-3.200111e-007
-4.270605e-007
-5.535904e-007
-6.983231e-007
-8.589671e-007
-1.032510e-006
-1.215406e-006
-1.403737e-006
-1.593465e-006
-1.780747e-006
-1.962205e-006
-2.135030e-006
-2.296964e-006
-2.446238e-006
-2.581521e-006
-2.701862e-006
-2.806609e-006
-2.895298e-006
-2.967567e-006
-3.023092e-006
-3.061544e-006
-3.082551e-006
-3.085672e-006
-3.070402e-006
-3.036197e-006
-2.982502e-006
-2.908786e-006
-2.814605e-006
-2.699732e-006
-2.564330e-006
-2.409121e-006
-2.235511e-006
-2.045709e-006
-1.842878e-006
-1.631237e-006
-1.415995e-006
-1.202997e-006
-9.981911e-007
-8.071038e-007
-6.344458e-007
-4.837847e-007
-3.571813e-007
-2.548835e-007
-1.753507e-007
-1.157624e-007
-7.278207e-008
-4.312304e-008
-2.369367e-008
-1.156553e-008
-4.162961e-009
3.071120e-010
2.641321e-009
3.041224e-009
1.900704e-009
2.385526e-010
-7.040406e-010
-3.356998e-010
8.416452e-010
1.720150e-009
1.570274e-009
6.003467e-010
-3.714433e-010
-7.142803e-010
-4.559367e-010
-7.451536e-011
4.368959e-011
-9.076977e-011
-2.088594e-010
-1.121795e-010
1.520721e-010
3.722569e-010
-4.092444e-009
-5.336199e-010
2.962897e-009
3.466397e-009
1.091475e-009
-1.662761e-009
-2.516930e-009
-1.284087e-009
5.062693e-010
1.370313e-009
1.075368e-009
3.707826e-010
-1.016884e-011
1.372187e-010
7.482626e-010
1.826964e-009
3.269077e-009
4.420558e-009
4.034396e-009
7.658034e-010
-6.403003e-009
-1.843201e-008
-3.705991e-008
-6.544529e-008
-1.080315e-007
-1.697919e-007
-2.554632e-007
-3.691283e-007
-5.139640e-007
-6.918012e-007
-9.024843e-007
-1.143409e-006
-1.409596e-006
-1.694298e-006
-1.989801e-006
-2.288134e-006
-2.581623e-006
-2.863382e-006
-3.127749e-006
-3.370583e-006
-3.589301e-006
-3.782687e-006
-3.950591e-006
-4.093631e-006
-4.212961e-006
-4.310052e-006
-4.386508e-006
-4.443905e-006
-4.483677e-006
-4.507043e-006
-4.514942e-006
-4.507984e-006
-4.486375e-006
-4.449848e-006
-4.397562e-006
-4.328037e-006
-4.239156e-006
-4.128272e-006
-3.992427e-006
-3.828675e-006
-3.634516e-006
-3.408499e-006
-3.150951e-006
-2.864644e-006
-2.555130e-006
-2.230584e-006
-1.901186e-006
-1.578218e-006
-1.272978e-006
-9.955385e-007
-7.534591e-007
-5.508460e-007
-3.881627e-007
-2.628814e-007
-1.705491e-007
-1.056938e-007
-6.237352e-008
-3.464941e-008
-1.728532e-008
-6.487102e-009
-1.262844e-010
2.826168e-009
3.219203e-009
2.214236e-009
1.026724e-009
3.659993e-010
2.551043e-010
3.837691e-010
5.309752e-010
6.197344e-010
5.279966e-010
9.685604e-011
-5.761413e-010
-9.997212e-010
-6.771955e-010
2.871435e-010
1.100195e-009
9.773515e-010
-2.831772e-011
-9.895315e-010
-6.246075e-009
-1.098846e-009
3.898929e-009
4.525314e-009
1.128529e-009
-2.431818e-009
-2.839431e-009
-2.463742e-010
2.449390e-009
2.729707e-009
6.982507e-010
-1.463552e-009
-1.786046e-009
-1.051175e-010
2.273112e-009
3.955317e-009
4.258697e-009
2.826233e-009
-1.208339e-009
-9.606733e-009
-2.492985e-008
-5.057445e-008
-9.124273e-008
-1.533867e-007
-2.449491e-007
-3.742666e-007
-5.486332e-007
-7.730608e-007
-1.049343e-006
-1.375252e-006
-1.743902e-006
-2.143681e-006
-2.559134e-006
-2.972734e-006
-3.367001e-006
-3.726360e-006
-4.038439e-006
-4.294806e-006
-4.491256e-006
-4.627677e-006
-4.707500e-006
-4.736824e-006
-4.723455e-006
-4.676037e-006
-4.603427e-006
-4.514258e-006
-4.416671e-006
-4.318144e-006
-4.225416e-006
-4.144452e-006
-4.080403e-006
-4.037495e-006
-4.018797e-006
-4.025854e-006
-4.058229e-006
-4.113022e-006
-4.184471e-006
-4.263733e-006
-4.338916e-006
-4.395503e-006
-4.417298e-006
-4.388029e-006
-4.293503e-006
-4.123961e-006
-3.876126e-006
-3.554447e-006
-3.171289e-006
-2.745915e-006
-2.302232e-006
-1.865478e-006
-1.458491e-006
-1.098578e-006
-7.958843e-007
-5.535149e-007
-3.688246e-007
-2.350861e-007
-1.431016e-007
-8.279580e-008
-4.480217e-008
-2.167348e-008
-8.237633e-009
-1.102844e-009
2.082019e-009
2.999769e-009
2.674450e-009
1.600347e-009
2.011680e-010
-8.213524e-010
-7.810345e-010
2.722870e-010
1.325480e-009
1.226546e-009
-1.014712e-010
-1.399207e-009
-1.259814e-009
3.449169e-010
1.868944e-009
1.694032e-009
-1.609458e-010
-1.958335e-009
-5.363261e-009
-7.865112e-010
3.453257e-009
3.569985e-009
2.056373e-010
-2.762335e-009
-2.314652e-009
8.951737e-010
3.555592e-009
3.167489e-009
3.822967e-010
-1.903040e-009
-1.460671e-009
1.319511e-009
4.063881e-009
4.531865e-009
1.885157e-009
-4.016090e-009
-1.439089e-008