# vtk DataFile Version 3.0
vtk output
ASCII
DATASET STRUCTURED_POINTS
DIMENSIONS 100 100 1
SPACING 1 1 1
ORIGIN 0 0 0
POINT_DATA 10000
SCALARS SFBox_profile double
LOOKUP_TABLE default 
0.000000e+000
0.000000e+000
0.000000e+000
0.000000e+000
0.000000e+000
0.000000e+000
0.000000e+000
0.000000e+000
0.000000e+000
0.000000e+000
0.000000e+000
0.000000e+000
0.000000e+000
0.000000e+000
0.000000e+000
0.000000e+000
0.000000e+000
0.000000e+000
0.000000e+000
0.000000e+000
0.000000e+000
0.000000e+000
0.000000e+000
0.000000e+000
0.000000e+000
0.000000e+000
0.000000e+000
0.000000e+000
0.000000e+000
0.000000e+000
0.000000e+000
0.000000e+000
0.000000e+000
0.000000e+000
0.000000e+000
0.000000e+000
0.000000e+000
0.000000e+000
0.000000e+000
0.000000e+000
0.000000e+000
0.000000e+000
0.000000e+000
0.000000e+000
0.000000e+000
0.000000e+000
0.000000e+000
0.000000e+000
0.000000e+000
0.000000e+000
0.000000e+000
0.000000e+000
0.000000e+000
0.000000e+000
0.000000e+000
0.000000e+000
0.000000e+000
0.000000e+000
0.000000e+000
0.000000e+000
0.000000e+000
0.000000e+000
0.000000e+000
0.000000e+000
0.000000e+000
0.000000e+000
0.000000e+000
0.000000e+000
0.000000e+000
0.000000e+000
0.000000e+000
0.000000e+000
0.000000e+000
0.000000e+000
0.000000e+000
0.000000e+000
0.000000e+000
0.000000e+000
0.000000e+000
0.000000e+000
0.000000e+000
0.000000e+000
0.000000e+000
0.000000e+000
0.000000e+000
0.000000e+000
0.000000e+000
0.000000e+000
0.000000e+000
0.000000e+000
0.000000e+000
0.000000e+000
0.000000e+000
0.000000e+000
0.000000e+000
0.000000e+000
0.000000e+000
0.000000e+000
0.000000e+000
0.000000e+000
-1.221841e-009
-4.146937e-010
7.172483e-010
1.502841e-009
1.430339e-009
4.411342e-010
-9.921543e-010
-2.083794e-009
-2.167240e-009
-1.102735e-009
6.055997e-010
2.087936e-009
2.622204e-009
2.045022e-009
7.838550e-010
-4.909069e-010
-1.315086e-009
-1.644936e-009
-1.714703e-009
-1.716723e-009
-1.609145e-009
-1.205329e-009
-4.228988e-010
5.691197e-010
1.448288e-009
1.978694e-009
2.160873e-009
2.164345e-009
2.132934e-009
2.061440e-009
1.846424e-009
1.430516e-009
8.804621e-010
3.295627e-010
-1.382695e-010
-5.387192e-010
-9.333051e-010
-1.344479e-009
-1.731033e-009
-2.037134e-009
-2.250191e-009
-2.405516e-009
-2.542542e-009
-2.667025e-009
-2.757164e-009
-2.798104e-009
-2.801915e-009
-2.793645e-009
-2.784405e-009
-2.763564e-009
-2.716058e-009
-2.641471e-009
-2.551926e-009
-2.452892e-009
-2.331681e-009
-2.168815e-009
-1.959060e-009
-1.715740e-009
-1.451183e-009
-1.156712e-009
-8.098529e-010
-4.052500e-010
2.636532e-011
4.381954e-010
8.077061e-010
1.148170e-009
1.469978e-009
1.731837e-009
1.844809e-009
1.739202e-009
1.428385e-009
9.958715e-010
5.141148e-010
-1.186112e-011
-6.001858e-010
-1.186229e-009
-1.582121e-009
-1.579180e-009
-1.120370e-009
-3.779990e-010
3.508643e-010
8.413217e-010
1.047616e-009
1.033885e-009
8.298957e-010
3.913827e-010
-2.760726e-010
-9.682608e-010
-1.309431e-009
-1.001255e-009
-1.078275e-010
8.896665e-010
1.369776e-009
1.002631e-009
1.074744e-011
-9.555862e-010
-1.255842e-009
-7.010934e-010
3.148031e-010
1.087591e-009
2.523122e-010
5.121671e-011
-1.945212e-010
-3.039136e-010
-2.023978e-010
3.405959e-011
2.480152e-010
3.207692e-010
2.458078e-010
1.028198e-010
-3.213513e-011
-1.503758e-010
-2.878318e-010
-4.433791e-010
-5.296883e-010
-4.221321e-010
-7.433706e-011
4.067658e-010
8.085284e-010
9.548239e-010
8.231424e-010
5.356499e-010
2.389764e-010
-1.150958e-011
-2.597826e-010
-5.577219e-010
-8.782782e-010
-1.122896e-009
-1.209114e-009
-1.142875e-009
-1.003088e-009
-8.615305e-010
-7.243477e-010
-5.496112e-010
-3.111511e-010
-3.567155e-011
2.217579e-010
4.294532e-010
6.001780e-010
7.644690e-010
9.319187e-010
1.083015e-009
1.194622e-009
1.265750e-009
1.315529e-009
1.360110e-009
1.397167e-009
1.413700e-009
1.404450e-009
1.378086e-009
1.345460e-009
1.305961e-009
1.248881e-009
1.167292e-009
1.066497e-009
9.561211e-010
8.357943e-010
6.934213e-010
5.202067e-010
3.248092e-010
1.277047e-010
-5.975343e-011
-2.459306e-010
-4.427012e-010
-6.384854e-010
-7.940328e-010
-8.715450e-010
-8.671475e-010
-8.076763e-010
-7.120039e-010
-5.624826e-010
-3.269223e-010
-1.430311e-011
2.986103e-010
5.091808e-010
5.648576e-010
4.963499e-010
3.732010e-010
2.315680e-010
5.613718e-011
-1.628074e-010
-3.656349e-010
-4.378605e-010
-3.066516e-010
-2.827761e-011
2.292594e-010
3.076318e-010
1.805748e-010
-3.101747e-011
-1.626861e-010
-1.357776e-010
-4.561613e-012
1.068448e-010
1.115632e-010
1.989842e-011
-8.519189e-011
-1.217123e-010
-6.733861e-011
3.411183e-011
1.104863e-010
1.561396e-009
4.942112e-010
-9.545748e-010
-1.879116e-009
-1.673970e-009
-3.876183e-010
1.292361e-009
2.425257e-009
2.357349e-009
1.093787e-009
-7.249776e-010
-2.217482e-009
-2.760324e-009
-2.271218e-009
-1.129077e-009
1.498499e-010
1.211337e-009
1.943532e-009
2.356322e-009
2.434505e-009
2.115053e-009
1.383396e-009
3.612440e-010
-7.195044e-010
-1.637126e-009
-2.283539e-009
-2.667799e-009
-2.840362e-009
-2.825239e-009
-2.617556e-009
-2.225575e-009
-1.696986e-009
-1.100780e-009
-4.903744e-010
1.112695e-010
6.957919e-010
1.248495e-009
1.746757e-009
2.174366e-009
2.530833e-009
2.825113e-009
3.063672e-009
3.247379e-009
3.378137e-009
3.464181e-009
3.516790e-009
3.543323e-009
3.545487e-009
3.523814e-009
3.481195e-009
3.420649e-009
3.340957e-009
3.236585e-009
3.102054e-009
2.934597e-009
2.731534e-009
2.486630e-009
2.191740e-009
1.842952e-009
1.443735e-009
1.001034e-009
5.201813e-010
7.186747e-012
-5.224245e-010
-1.038942e-009
-1.504822e-009
-1.884784e-009
-2.146828e-009
-2.254139e-009
-2.163867e-009
-1.845177e-009
-1.306030e-009
-6.037004e-010
1.706426e-010
9.139467e-010
1.515941e-009
1.853247e-009
1.808693e-009
1.334302e-009
5.205274e-010
-3.980296e-010
-1.130990e-009
-1.463306e-009
-1.336876e-009
-8.374258e-010
-1.282142e-010
5.957183e-010
1.115692e-009
1.217961e-009
7.950727e-010
-2.536802e-011
-8.567419e-010
-1.227434e-009
-8.839793e-010
-7.451354e-012
8.539346e-010
1.133359e-009
6.429741e-010
-2.765074e-010
-9.826749e-010
1.165453e-009
4.255455e-010
-6.246838e-010
-1.372865e-009
-1.332397e-009
-4.322152e-010
8.816425e-010
1.848674e-009
1.837824e-009
7.710757e-010
-7.792832e-010
-1.930555e-009
-2.057269e-009
-1.184111e-009
8.312167e-011
1.021969e-009
1.280678e-009
1.019703e-009
6.475311e-010
4.291381e-010
3.150339e-010
9.688222e-011
-3.127957e-010
-7.643545e-010
-1.011009e-009
-9.389236e-010
-6.543030e-010
-3.617906e-010
-1.778504e-010
-6.330576e-011
8.548699e-011
3.069030e-010
5.398507e-010
6.984406e-010
7.580840e-010
7.644073e-010
7.726300e-010
7.934171e-010
7.975792e-010
7.602641e-010
6.898102e-010
6.155353e-010
5.572054e-010
5.119310e-010
4.671026e-010
4.190622e-010
3.768720e-010
3.513916e-010
3.447386e-010
3.507357e-010
3.632309e-010
3.822232e-010
4.120684e-010
4.546310e-010
5.047891e-010
5.531705e-010
5.937157e-010
6.278433e-010
6.592227e-010
6.835550e-010
6.858628e-010
6.517357e-010
5.817669e-010
4.903318e-010
3.856401e-010
2.536744e-010
7.116707e-011
-1.590702e-010
-3.900268e-010
-5.582817e-010
-6.341603e-010
-6.363379e-010
-5.870979e-010
-4.588910e-010
-1.888961e-010
2.307488e-010
6.780188e-010
9.425502e-010
8.741401e-010
5.060550e-010
2.822680e-011
-3.678226e-010
-6.154973e-010
-7.450715e-010
-7.500479e-010
-5.265946e-010
6.536337e-012
7.133887e-010
1.204727e-009
1.076492e-009
2.662024e-010
-7.920953e-010
-1.405995e-009
-1.119229e-009
-8.327580e-011
1.006898e-009
1.393618e-009
8.049311e-010
-3.399745e-010
-1.226174e-009
-6.899963e-010
-1.336402e-010
5.371677e-010
8.223385e-010
5.346003e-010
-9.701603e-011
-6.464990e-010
-8.256340e-010
-6.508601e-010
-3.288616e-010
-8.312104e-012
3.420186e-010
8.097016e-010
1.311749e-009
1.530068e-009
1.126572e-009
6.812044e-011
-1.249598e-009
-2.228636e-009
-2.472890e-009
-2.025657e-009
-1.249371e-009
-4.860956e-010
1.783257e-010
8.566256e-010
1.620000e-009
2.347136e-009
2.808360e-009
2.873722e-009
2.619216e-009
2.234128e-009
1.844660e-009
1.436689e-009
9.332254e-010
3.180556e-010
-3.297033e-010
-9.092271e-010
-1.384035e-009
-1.790007e-009
-2.172888e-009
-2.533779e-009
-2.836311e-009
-3.053743e-009
-3.197538e-009
-3.301126e-009
-3.385123e-009
-3.443846e-009
-3.462115e-009
-3.437820e-009
-3.384801e-009
-3.316299e-009
-3.229927e-009
-3.110662e-009
-2.947176e-009
-2.742417e-009
-2.506264e-009
-2.238706e-009
-1.924282e-009
-1.547412e-009
-1.113388e-009
-6.493279e-010
-1.799922e-010
2.942147e-010
7.856213e-010
1.279776e-009
1.713393e-009
2.004615e-009
2.111144e-009
2.050698e-009
1.854265e-009
1.505884e-009
9.537283e-010
2.031823e-010
-6.043318e-010
-1.232954e-009
-1.501489e-009
-1.401792e-009
-1.066614e-009
-6.257205e-010
-1.150857e-010
4.555742e-010
9.640073e-010
1.160092e-009
8.510888e-010
1.308193e-010
-5.976252e-010
-8.848003e-010
-5.819276e-010
3.545921e-011
4.880649e-010
4.724034e-010
7.822506e-011
-3.238537e-010
-4.043896e-010
-1.276173e-010
2.548871e-010
4.297955e-010
2.664723e-010
-1.014349e-010
-3.933792e-010
-2.112361e-009
-6.333110e-010
1.300887e-009
2.409239e-009
1.969841e-009
2.525614e-010
-1.691273e-009
-2.720621e-009
-2.304573e-009
-7.735502e-010
9.971630e-010
2.184513e-009
2.447069e-009
1.935649e-009
1.000275e-009
-8.236895e-011
-1.147774e-009
-2.019935e-009
-2.454374e-009
-2.262194e-009
-1.490364e-009
-4.433791e-010
5.101914e-010
1.174092e-009
1.585583e-009
1.867878e-009
2.050120e-009
2.042108e-009
1.765352e-009
1.274207e-009
7.293545e-010
2.608201e-010
-1.254431e-010
-5.057120e-010
-9.239282e-010
-1.335208e-009
-1.657462e-009
-1.858509e-009
-1.979787e-009
-2.081634e-009
-2.181294e-009
-2.250042e-009
-2.260723e-009
-2.224757e-009
-2.180456e-009
-2.153995e-009
-2.139952e-009
-2.118702e-009
-2.084990e-009
-2.054195e-009
-2.042474e-009
-2.046651e-009
-2.047192e-009
-2.029372e-009
-1.996726e-009
-1.960340e-009
-1.916504e-009
-1.840740e-009
-1.708555e-009
-1.520275e-009
-1.298313e-009
-1.055725e-009
-7.729366e-010
-4.166841e-010
1.334306e-011
4.642838e-010
8.668287e-010
1.190850e-009
1.450213e-009
1.641722e-009
1.689369e-009
1.476031e-009
9.518074e-010
2.111979e-010
-5.491776e-010
-1.153657e-009
-1.522330e-009
-1.628276e-009
-1.416049e-009
-8.181037e-010
1.108577e-010
1.088291e-009
1.689064e-009
1.605304e-009
8.734305e-010
-1.333444e-010
-9.428297e-010
-1.251848e-009
-1.030758e-009
-4.494145e-010
2.446459e-010
7.930105e-010
9.656987e-010
6.505665e-010
-2.744691e-011
-6.940753e-010
-9.203717e-010
-5.311306e-010
2.228706e-010
8.116574e-010
-1.460454e-009
-5.253435e-010
7.545419e-010
1.581286e-009
1.408242e-009
2.952072e-010
-1.078144e-009
-1.814080e-009
-1.397602e-009
-7.967922e-011
1.270533e-009
1.771416e-009
1.146046e-009
-1.218833e-010
-1.194416e-009
-1.492545e-009
-1.022627e-009
-2.139920e-010
5.010415e-010
9.626047e-010
1.228156e-009
1.346815e-009
1.246594e-009
8.336090e-010
1.495134e-010
-6.113974e-010
-1.243092e-009
-1.666637e-009
-1.927587e-009
-2.083080e-009
-2.121489e-009
-1.994777e-009
-1.702115e-009
-1.314176e-009
-9.130448e-010
-5.253929e-010
-1.253397e-010
3.063024e-010
7.422486e-010
1.131242e-009
1.448196e-009
1.710650e-009
1.947464e-009
2.162026e-009
2.332089e-009
2.440288e-009
2.495324e-009
2.520291e-009
2.525789e-009
2.500878e-009
2.430337e-009
2.314882e-009
2.169464e-009
2.002970e-009
1.805639e-009
1.560930e-009
1.267957e-009
9.461441e-010
6.145707e-010
2.711055e-010
-9.992403e-011
-4.966421e-010
-8.823581e-010
-1.206991e-009
-1.444631e-009
-1.600115e-009
-1.672608e-009
-1.621813e-009
-1.388698e-009
-9.602813e-010
-4.085604e-010
1.445575e-010
5.996081e-010
9.081428e-010
1.034689e-009
9.224735e-010
5.380623e-010
-3.449749e-011
-5.694002e-010
-8.144155e-010
-6.644396e-010
-2.321871e-010
2.490495e-010
5.851841e-010
6.900447e-010
5.391415e-010
1.307041e-010
-4.499725e-010
-9.433001e-010
-9.875363e-010
-3.953721e-010
5.817726e-010
1.307029e-009
1.194356e-009
2.147920e-010
-9.824716e-010
-1.510302e-009
-9.357071e-010
3.423443e-010
1.369301e-009
8.880227e-010
1.554148e-010
-7.042283e-010
-1.038671e-009
-6.560724e-010
1.009836e-010
7.213269e-010
9.485905e-010
8.743451e-010
6.764190e-010
3.395205e-010
-3.082876e-010
-1.272131e-009
-2.151913e-009
-2.314555e-009
-1.392096e-009
3.406656e-010
2.085192e-009
3.059835e-009
2.998602e-009
2.202235e-009
1.168270e-009
1.922234e-010
-7.151700e-010
-1.613942e-009
-2.422862e-009
-2.938349e-009
-3.023513e-009
-2.733588e-009
-2.249317e-009
-1.713968e-009
-1.152794e-009
-5.321581e-010
1.419197e-010
8.027103e-010
1.382987e-009
1.868934e-009
2.287477e-009
2.656251e-009
2.961938e-009
3.185180e-009
3.331378e-009
3.427892e-009
3.496402e-009
3.537953e-009
3.546225e-009
3.527183e-009
3.498667e-009
3.472596e-009
3.444445e-009
3.402892e-009
3.345252e-009
3.277757e-009
3.200996e-009
3.101062e-009
2.959437e-009
2.769278e-009
2.536213e-009
2.261862e-009
1.932552e-009
1.530964e-009
1.058121e-009
5.369425e-010
-8.749220e-012
-5.707973e-010
-1.141005e-009
-1.677523e-009
-2.097984e-009
-2.316844e-009
-2.288278e-009
-2.006070e-009
-1.470596e-009
-6.869799e-010
2.746340e-010
1.220379e-009
1.873930e-009
2.023531e-009
1.653161e-009
9.325101e-010
8.550798e-011
-7.127777e-010
-1.311904e-009
-1.518590e-009
-1.155380e-009
-2.654154e-010
7.495584e-010
1.293885e-009
1.005951e-009
9.646413e-011
-7.532768e-010
-9.113211e-010
-3.092137e-010
5.039852e-010
8.283614e-010
4.016003e-010
-3.936994e-010
-8.695776e-010
-6.174202e-010
1.564191e-010
8.124163e-010
2.739704e-009
7.664132e-010
-1.705604e-009
-2.940526e-009
-2.159361e-009
8.910552e-013
2.056075e-009
2.769894e-009
1.928716e-009
2.805874e-010
-1.173063e-009
-1.871306e-009
-1.848337e-009
-1.389309e-009
-6.604728e-010
3.055919e-010
1.352579e-009
2.069582e-009
2.022711e-009
1.146011e-009
-1.278332e-010
-1.166914e-009
-1.598580e-009
-1.502085e-009
-1.197173e-009
-8.926627e-010
-5.520411e-010
-5.467785e-011
5.830237e-010
1.180046e-009
1.558438e-009
1.696899e-009
1.709748e-009
1.703304e-009
1.680554e-009
1.579235e-009
1.369782e-009
1.093775e-009
8.162624e-010
5.648849e-010
3.247800e-010
7.937712e-011
-1.607143e-010
-3.694853e-010
-5.328663e-010
-6.557314e-010
-7.464567e-010
-8.039488e-010
-8.217741e-010
-7.984955e-010
-7.385242e-010
-6.450091e-010
-5.175082e-010
-3.576171e-010
-1.723450e-010
3.111750e-011
2.507916e-010
4.850610e-010
7.230339e-010
9.457133e-010
1.139542e-009
1.302903e-009
1.431137e-009
1.496437e-009
1.454050e-009
1.276981e-009
9.798018e-010
5.984078e-010
1.508109e-010
-3.591437e-010
-8.806909e-010
-1.270663e-009
-1.348079e-009
-1.028832e-009
-4.116147e-010
2.830130e-010
8.609960e-010
1.229722e-009
1.332264e-009
1.064747e-009
3.459796e-010
-6.825395e-010
-1.567100e-009
-1.763199e-009
-1.056159e-009
1.928125e-010
1.247354e-009
1.514394e-009
9.486708e-010
1.793108e-011
-6.946434e-010
-8.821584e-010
-6.103714e-010
-1.433271e-010
2.703462e-010
4.855200e-010
4.491478e-010
1.921896e-010
-1.567043e-010
-4.048632e-010
2.160885e-009
6.729390e-010
-1.218898e-009
-2.190758e-009
-1.589238e-009
1.158911e-010
1.668002e-009
1.939868e-009
7.677787e-010
-9.397907e-010
-1.913586e-009
-1.485273e-009
-2.770851e-011
1.436074e-009
2.050260e-009
1.654662e-009
6.644056e-010
-4.281510e-010
-1.384370e-009
-2.139889e-009
-2.558460e-009
-2.396312e-009
-1.537242e-009
-2.015449e-010
1.148257e-009
2.132455e-009
2.680372e-009
2.950479e-009
3.074897e-009
3.019879e-009
2.681771e-009
2.063337e-009
1.313349e-009
5.995442e-010
-2.426096e-011
-6.141401e-010
-1.224972e-009
-1.831782e-009
-2.359845e-009
-2.766339e-009
-3.073314e-009
-3.327577e-009
-3.547986e-009
-3.719089e-009
-3.824491e-009
-3.872212e-009
-3.886619e-009
-3.885061e-009
-3.867980e-009
-3.827435e-009
-3.758510e-009
-3.661936e-009
-3.540034e-009
-3.392042e-009
-3.210999e-009
-2.983982e-009
-2.698836e-009
-2.354111e-009
-1.959928e-009
-1.523738e-009
-1.036269e-009
-4.808995e-010
1.357289e-010
7.670346e-010
1.350692e-009
1.849210e-009
2.251192e-009
2.520414e-009
2.556892e-009
2.243041e-009
1.555142e-009
6.269119e-010
-3.151657e-010
-1.084219e-009
-1.590853e-009
-1.778385e-009
-1.555282e-009
-8.670270e-010
1.327067e-010
1.029747e-009
1.363264e-009
9.692343e-010
1.339020e-010
-6.106317e-010
-8.710290e-010
-6.154628e-010
-8.502538e-011
4.375399e-010
7.516008e-010
7.192514e-010
2.738396e-010
-4.521263e-010
-1.046592e-009
-1.018692e-009
-2.283251e-010
8.518101e-010
1.399262e-009
9.095535e-010
-3.096634e-010
-1.321522e-009
-5.786729e-010
-8.889904e-011
4.637799e-010
6.728245e-010
4.885132e-010
1.401576e-010
-2.011280e-010
-5.810841e-010
-1.046794e-009
-1.348452e-009
-1.005238e-009
2.109544e-010
1.846638e-009
2.916285e-009
2.612429e-009
9.681737e-010
-1.140474e-009
-2.653203e-009
-3.040447e-009
-2.479872e-009
-1.471233e-009
-3.744327e-010
6.982847e-010
1.674835e-009
2.361862e-009
2.546663e-009
2.211798e-009
1.577665e-009
9.133155e-010
3.316468e-010
-2.175880e-010
-7.896388e-010
-1.329893e-009
-1.724593e-009
-1.928528e-009
-2.006248e-009
-2.049123e-009
-2.079635e-009
-2.051280e-009
-1.926225e-009
-1.729234e-009
-1.522511e-009
-1.345070e-009
-1.190050e-009
-1.035439e-009
-8.820046e-010
-7.558169e-010
-6.813999e-010
-6.609501e-010
-6.792542e-010
-7.228701e-010
-7.916970e-010
-8.939042e-010
-1.031601e-009
-1.191168e-009
-1.348004e-009
-1.483208e-009
-1.596036e-009
-1.695459e-009
-1.775307e-009
-1.801375e-009
-1.732099e-009
-1.554304e-009
-1.288903e-009
-9.521393e-010
-5.196004e-010
4.778022e-011
7.263841e-010
1.387339e-009
1.852207e-009
1.999614e-009
1.810302e-009
1.313686e-009
5.316726e-010
-4.728349e-010
-1.484339e-009
-2.131453e-009
-2.083317e-009
-1.306296e-009
-1.313939e-010
9.492477e-010
1.567605e-009
1.600070e-009
1.096408e-009
2.065996e-010
-7.746582e-010
-1.385301e-009
-1.209829e-009
-2.652896e-010
8.339776e-010
1.247812e-009
6.152364e-010
-5.475207e-010
-1.219650e-009
-7.705133e-010
4.318955e-010
1.308652e-009
1.038759e-009
-1.740484e-010
-1.263906e-009
-3.128461e-009
-8.032469e-010
1.973950e-009
3.147073e-009
2.050597e-009
-2.670425e-010
-2.081561e-009
-2.368238e-009
-1.357173e-009
4.672591e-012
9.686707e-010
1.389611e-009
1.426470e-009
1.095774e-009
2.661083e-010
-9.492090e-010
-1.968907e-009
-2.076663e-009
-1.040005e-009
6.216615e-010
2.015819e-009
2.538428e-009
2.201944e-009
1.407089e-009
4.989151e-010
-4.264852e-010
-1.369734e-009
-2.221605e-009
-2.775755e-009
-2.913075e-009
-2.707333e-009
-2.329842e-009
-1.883324e-009
-1.355756e-009
-7.148044e-010
-2.036601e-013
6.959998e-010
1.316808e-009
1.878043e-009
2.418993e-009
2.938263e-009
3.392028e-009
3.745292e-009
4.007145e-009
4.212290e-009
4.379317e-009
4.496176e-009
4.542877e-009
4.518698e-009
4.443046e-009
4.333287e-009
4.186533e-009
3.984316e-009
3.713703e-009
3.381951e-009
3.008685e-009
2.603158e-009
2.152327e-009
1.636853e-009
1.060318e-009
4.565942e-010
-1.379396e-010
-7.147162e-010
-1.281034e-009
-1.809500e-009
-2.209157e-009
-2.365554e-009
-2.216819e-009
-1.783647e-009
-1.126752e-009
-3.036664e-010
5.979360e-010
1.387999e-009
1.791407e-009
1.607495e-009
8.856752e-010
-6.798146e-011
-8.766521e-010
-1.290758e-009
-1.226859e-009
-6.941540e-010
2.057315e-010
1.166135e-009
1.664455e-009
1.255446e-009
1.554226e-011
-1.321602e-009
-1.821148e-009
-1.100488e-009
2.980457e-010
1.316529e-009
1.251544e-009
3.105525e-010
-6.355406e-010
-8.464101e-010
-3.147246e-010
3.354411e-010
4.917961e-010
1.065450e-010
-3.322998e-010
-3.174495e-009
-7.747107e-010
2.038483e-009
3.075339e-009
1.669435e-009
-8.889786e-010
-2.498545e-009
-1.969303e-009
1.087216e-010
1.998326e-009
2.297185e-009
9.582245e-010
-9.226372e-010
-2.156567e-009
-2.297403e-009
-1.622333e-009
-5.566757e-010
7.036648e-010
2.038159e-009
3.086582e-009
3.303102e-009
2.400924e-009
6.903500e-010
-1.096812e-009
-2.338489e-009
-2.884486e-009
-2.951068e-009
-2.759870e-009
-2.338784e-009
-1.631457e-009
-6.944057e-010
2.819601e-010
1.128573e-009
1.820482e-009
2.432828e-009
3.011644e-009
3.520559e-009
3.902605e-009
4.155797e-009
4.329133e-009
4.460938e-009
4.545489e-009
4.561946e-009
4.517843e-009
4.451003e-009
4.393916e-009
4.348636e-009
4.299635e-009
4.243078e-009
4.195320e-009
4.172957e-009
4.170800e-009
4.164238e-009
4.132514e-009
4.075237e-009
4.002467e-009
3.910122e-009
3.771425e-009
3.557561e-009
3.263679e-009
2.905221e-009
2.484513e-009
1.970028e-009
1.323034e-009
5.485663e-010
-2.886508e-010
-1.101789e-009
-1.818625e-009
-2.360632e-009
-2.595633e-009
-2.360889e-009
-1.587919e-009
-4.212873e-010
8.087922e-010
1.756140e-009
2.208922e-009
2.095363e-009
1.417882e-009
2.830200e-010
-9.719940e-010
-1.782542e-009
-1.663774e-009
-6.405263e-010
6.372154e-010
1.316954e-009
9.978606e-010
3.076739e-011
-8.102317e-010
-9.640208e-010
-4.517384e-010
2.734046e-010
7.432463e-010
7.530891e-010
3.647788e-010
-2.081320e-010
-6.812209e-010
-7.805946e-010
-3.996132e-010
2.622001e-010
7.723899e-010
-5.412867e-010
-3.413393e-011
5.015571e-010
5.120410e-010
-1.429013e-010
-9.512580e-010
-1.065630e-009
-5.514017e-011
1.533872e-009
2.437303e-009
1.689762e-009
-4.578832e-010
-2.611011e-009
-3.306388e-009
-2.144587e-009
1.443355e-011
1.867760e-009
2.646698e-009
2.401437e-009
1.562205e-009
4.370651e-010
-8.310098e-010
-1.993452e-009
-2.614134e-009
-2.359413e-009
-1.322672e-009
1.946401e-011
1.189353e-009
2.024135e-009
2.634816e-009
3.136454e-009
3.487764e-009
3.580792e-009
3.410484e-009
3.101340e-009
2.781525e-009
2.475155e-009
2.129529e-009
1.716345e-009
1.275937e-009
8.693405e-010
5.170558e-010
1.993744e-010
-9.742200e-011
-3.555340e-010
-5.473544e-010
-6.676936e-010
-7.339931e-010
-7.592584e-010
-7.357650e-010
-6.488129e-010
-4.996314e-010
-3.068717e-010
-8.580372e-011
1.665176e-010
4.600327e-010
7.891285e-010
1.130018e-009
1.464033e-009
1.796000e-009
2.138433e-009
2.476118e-009
2.756281e-009
2.920123e-009
2.934141e-009
2.775243e-009
2.391715e-009
1.715669e-009
7.525156e-010
-3.375941e-010
-1.276382e-009
-1.812829e-009
-1.839487e-009
-1.378675e-009
-5.094836e-010
6.167061e-010
1.675117e-009
2.180159e-009
1.755292e-009
4.910652e-010
-9.827201e-010
-1.874530e-009
-1.772058e-009
-8.750337e-010
2.424432e-010
1.048451e-009
1.273356e-009
8.874330e-010
6.302087e-011
-7.871714e-010
-1.104154e-009
-5.708290e-010
4.813936e-010
1.175140e-009
8.157036e-010
-3.758743e-010
-1.336677e-009
-1.119159e-009
1.548810e-010
1.340012e-009
2.673557e-009
6.913383e-010
-1.595571e-009
-2.476491e-009
-1.587364e-009
7.708900e-011
1.281457e-009
1.542576e-009
1.136013e-009
4.483360e-010
-3.958775e-010
-1.272466e-009
-1.715023e-009
-1.151983e-009
4.134686e-010
2.096722e-009
2.701549e-009
1.701001e-009
-3.283077e-010
-2.220057e-009
-3.121029e-009
-2.925301e-009
-1.994846e-009
-6.666686e-010
8.941526e-010
2.492903e-009
3.774140e-009
4.401664e-009
4.332211e-009
3.834783e-009
3.227276e-009
2.631288e-009
1.987892e-009
1.250965e-009
4.987415e-010
-1.445529e-010
-6.418393e-010
-1.059693e-009
-1.468311e-009
-1.861740e-009
-2.184041e-009
-2.406828e-009
-2.557207e-009
-2.676400e-009
-2.774543e-009
-2.835300e-009
-2.851206e-009
-2.838045e-009
-2.814522e-009
-2.780496e-009
-2.722522e-009
-2.634566e-009
-2.523260e-009
-2.392474e-009
-2.232411e-009
-2.030947e-009
-1.790918e-009
-1.525459e-009
-1.233690e-009
-8.905100e-010
-4.692902e-010
3.040825e-011
5.902775e-010
1.206644e-009
1.891728e-009
2.614969e-009
3.244054e-009
3.574007e-009
3.443195e-009
2.826788e-009
1.819811e-009
5.627522e-010
-7.644930e-010
-1.871791e-009
-2.369196e-009
-1.979479e-009
-8.182054e-010
5.614130e-010
1.482401e-009
1.571114e-009
9.260695e-010
-5.902669e-011
-9.561842e-010
-1.403720e-009
-1.129093e-009
-1.173016e-010
1.150332e-009
1.796000e-009
1.182894e-009
-3.832717e-010
-1.692200e-009
-1.612254e-009
-1.869941e-010
1.297348e-009
1.483785e-009
2.636457e-010
-1.105856e-009
-1.259582e-009
-1.005788e-010
1.122462e-009
3.955218e-009
7.194625e-010
-2.802973e-009
-3.649756e-009
-1.412254e-009
1.669433e-009
2.932874e-009
1.603614e-009
-8.611915e-010
-2.385626e-009
-2.066041e-009
-5.374277e-010
1.028269e-009
1.971904e-009
2.257069e-009
1.926034e-009
8.418634e-010
-9.370674e-010
-2.749645e-009
-3.583295e-009
-2.854393e-009
-9.102113e-010
1.272431e-009
2.850703e-009
3.579296e-009
3.650804e-009
3.280237e-009
2.544084e-009
1.536707e-009
5.065178e-010
-2.606398e-010
-6.631195e-010
-8.268330e-010
-9.281985e-010
-1.019594e-009
-1.042160e-009
-9.624617e-010
-8.418371e-010
-7.689126e-010
-7.641443e-010
-7.772586e-010
-7.635075e-010
-7.340091e-010
-7.281988e-010
-7.592858e-010
-8.030880e-010
-8.321433e-010
-8.429251e-010
-8.462831e-010
-8.443795e-010
-8.278046e-010
-7.909369e-010
-7.391154e-010
-6.792758e-010
-6.133156e-010
-5.474780e-010
-5.018983e-010
-4.993530e-010
-5.432820e-010
-6.165651e-010
-7.055897e-010
-8.111245e-010
-9.159665e-010
-9.425467e-010
-7.681502e-010
-3.081863e-010
4.108475e-010
1.265274e-009
2.105050e-009
2.779634e-009
3.095190e-009
2.816656e-009
1.817010e-009
2.809450e-010
-1.272706e-009
-2.250608e-009
-2.329464e-009
-1.587245e-009
-3.636125e-010
9.238967e-010
1.828352e-009
1.911785e-009
9.928000e-010
-5.147279e-010
-1.639522e-009
-1.513258e-009
-1.871583e-010
1.249199e-009
1.550931e-009
4.635478e-010
-1.004583e-009
-1.520649e-009
-6.851511e-010
6.351506e-010
1.209869e-009
6.428262e-010
-3.370220e-010
-7.196686e-010
-2.591779e-010
3.623313e-010
2.423371e-009
8.792511e-011
-2.244722e-009
-2.303257e-009
-2.177472e-011
2.425307e-009
2.677768e-009
3.875097e-010
-2.480635e-009
-3.465637e-009
-1.784126e-009
1.134153e-009
3.073076e-009
2.902496e-009
1.184975e-009
-7.285644e-010
-1.913477e-009
-2.223427e-009
-1.809307e-009
-6.993475e-010
1.024986e-009
2.853344e-009
3.945983e-009
3.739447e-009
2.413687e-009
7.116707e-010
-6.700159e-010
-1.486348e-009
-1.841177e-009
-1.859259e-009
-1.557829e-009
-9.791595e-010
-3.102950e-010
2.027325e-010
4.317614e-010
4.120801e-010
2.237795e-010
-1.241748e-010
-6.770390e-010
-1.439442e-009
-2.338193e-009
-3.278721e-009
-4.209498e-009
-5.117386e-009
-5.977069e-009
-6.727689e-009
-7.300148e-009
-7.652728e-009
-7.774462e-009
-7.665491e-009
-7.327060e-009
-6.769163e-009
-6.017585e-009
-5.110439e-009
-4.095149e-009
-3.032946e-009
-1.997892e-009
-1.059865e-009
-2.684825e-010
3.371684e-010
7.037096e-010
7.678425e-010
5.074056e-010
-8.540505e-012
-6.317473e-010
-1.198560e-009
-1.568996e-009
-1.606982e-009
-1.174777e-009
-2.268161e-010
1.049728e-009
2.222746e-009
2.819528e-009
2.601934e-009
1.671954e-009
3.537837e-010
-9.618197e-010
-1.856656e-009
-1.916186e-009
-9.541394e-010
6.606476e-010
1.996083e-009
2.124805e-009
9.013089e-010
-8.055740e-010
-1.765486e-009
-1.390692e-009
-1.662419e-010
8.638962e-010
1.009588e-009
3.941734e-010
-3.391852e-010
-6.441938e-010
-4.227031e-010
5.983370e-011
4.523330e-010
5.265360e-010
2.581509e-010
-1.785203e-010
-5.033059e-010
-6.876569e-010
-5.294624e-010
-1.508365e-010
4.694416e-010
1.119017e-009
1.296659e-009
5.603865e-010
-8.821134e-010
-2.008353e-009
-1.706611e-009
1.005407e-010
2.100130e-009
2.584686e-009
9.864349e-010
-1.545366e-009
-3.121119e-009
-2.679546e-009
-6.644622e-010
1.644318e-009
3.245742e-009
3.870956e-009
3.638341e-009
2.639808e-009
1.004265e-009
-8.136823e-010
-2.090459e-009
-2.311293e-009
-1.561853e-009
-4.073460e-010
5.774831e-010
1.122686e-009
1.185544e-009
7.128530e-010
-4.275763e-010
-2.316588e-009
-4.879116e-009
-7.947718e-009
-1.139515e-008
-1.516807e-008
-1.920655e-008
-2.337481e-008
-2.748723e-008
-3.138027e-008
-3.493796e-008
-3.805761e-008
-4.061784e-008
-4.249262e-008
-4.358845e-008
-4.386071e-008
-4.330211e-008
-4.192834e-008
-3.977787e-008
-3.691836e-008
-3.345014e-008
-2.950676e-008
-2.525188e-008
-2.086386e-008
-1.651049e-008
-1.233652e-008
-8.479881e-009
-5.093974e-009
-2.335133e-009
-3.146768e-010
9.332146e-010
1.433335e-009
1.243944e-009
4.932668e-010
-5.417321e-010
-1.435862e-009
-1.772974e-009
-1.362644e-009
-3.266034e-010
1.004281e-009
2.240923e-009
2.993804e-009
2.904848e-009
1.821784e-009
6.638255e-011
-1.535849e-009
-2.100021e-009
-1.340928e-009
1.535910e-010
1.346867e-009
1.519065e-009
7.081643e-010
-4.621455e-010
-1.271784e-009
-1.280976e-009
-4.825633e-010
6.696442e-010
1.406599e-009
1.112335e-009
-8.580999e-011
-1.224564e-009
-1.264002e-009
-1.242199e-010
1.109381e-009
1.205259e-009
6.555438e-011
-1.125691e-009
-3.255384e-009
-5.372627e-010
2.300627e-009
2.830517e-009
9.817234e-010
-1.276596e-009
-2.060841e-009
-1.139429e-009
3.886841e-010
1.438371e-009
1.670956e-009
1.178362e-009
3.522790e-011
-1.522355e-009
-2.715819e-009
-2.520014e-009
-6.112544e-010
2.074076e-009
3.940966e-009
3.989856e-009
2.493287e-009
5.384836e-010
-9.214919e-010
-1.538790e-009
-1.354975e-009