# vtk DataFile Version 3.0
vtk output
ASCII
DATASET STRUCTURED_POINTS
DIMENSIONS 100 100 1
SPACING 1 1 1
ORIGIN 0 0 0
POINT_DATA 10000
SCALARS SFBox_profile double
LOOKUP_TABLE default 
9.439921e-003
9.439920e-003
9.439920e-003
9.439919e-003
9.439919e-003
9.439920e-003
9.439920e-003
9.439921e-003
9.439921e-003
9.439920e-003
9.439920e-003
9.439919e-003
9.439919e-003
9.439920e-003
9.439920e-003
9.439920e-003
9.439920e-003
9.439920e-003
9.439921e-003
9.439920e-003
9.439920e-003
9.439920e-003
9.439920e-003
9.439920e-003
9.439919e-003
9.439919e-003
9.439919e-003
9.439920e-003
9.439920e-003
9.439920e-003
9.439920e-003
9.439920e-003
9.439921e-003
9.439921e-003
9.439921e-003
9.439921e-003
9.439921e-003
9.439921e-003
9.439922e-003
9.439922e-003
9.439922e-003
9.439922e-003
9.439922e-003
9.439922e-003
9.439922e-003
9.439922e-003
9.439922e-003
9.439922e-003
9.439922e-003
9.439922e-003
9.439922e-003
9.439922e-003
9.439922e-003
9.439922e-003
9.439922e-003
9.439922e-003
9.439922e-003
9.439922e-003
9.439922e-003
9.439922e-003
9.439922e-003
9.439922e-003
9.439921e-003
9.439921e-003
9.439921e-003
9.439921e-003
9.439921e-003
9.439921e-003
9.439921e-003
9.439920e-003
9.439920e-003
9.439920e-003
9.439920e-003
9.439920e-003
9.439920e-003
9.439920e-003
9.439920e-003
9.439920e-003
9.439920e-003
9.439920e-003
9.439920e-003
9.439920e-003
9.439920e-003
9.439920e-003
9.439920e-003
9.439920e-003
9.439920e-003
9.439920e-003
9.439920e-003
9.439920e-003
9.439920e-003
9.439920e-003
9.439920e-003
9.439920e-003
9.439920e-003
9.439920e-003
9.439920e-003
9.439920e-003
9.439920e-003
9.439920e-003
9.439921e-003
9.439920e-003
9.439920e-003
9.439919e-003
9.439919e-003
9.439920e-003
9.439920e-003
9.439921e-003
9.439921e-003
9.439920e-003
9.439920e-003
9.439919e-003
9.439919e-003
9.439920e-003
9.439920e-003
9.439920e-003
9.439920e-003
9.439920e-003
9.439921e-003
9.439920e-003
9.439920e-003
9.439920e-003
9.439920e-003
9.439920e-003
9.439919e-003
9.439919e-003
9.439919e-003
9.439920e-003
9.439920e-003
9.439920e-003
9.439920e-003
9.439920e-003
9.439921e-003
9.439921e-003
9.439921e-003
9.439921e-003
9.439921e-003
9.439921e-003
9.439922e-003
9.439922e-003
9.439922e-003
9.439922e-003
9.439922e-003
9.439922e-003
9.439922e-003
9.439922e-003
9.439922e-003
9.439922e-003
9.439922e-003
9.439922e-003
9.439922e-003
9.439922e-003
9.439922e-003
9.439922e-003
9.439922e-003
9.439922e-003
9.439922e-003
9.439922e-003
9.439922e-003
9.439922e-003
9.439922e-003
9.439922e-003
9.439921e-003
9.439921e-003
9.439921e-003
9.439921e-003
9.439921e-003
9.439921e-003
9.439921e-003
9.439920e-003
9.439920e-003
9.439920e-003
9.439920e-003
9.439920e-003
9.439920e-003
9.439920e-003
9.439920e-003
9.439920e-003
9.439920e-003
9.439920e-003
9.439920e-003
9.439920e-003
9.439920e-003
9.439920e-003
9.439920e-003
9.439920e-003
9.439920e-003
9.439920e-003
9.439920e-003
9.439920e-003
9.439920e-003
9.439920e-003
9.439920e-003
9.439920e-003
9.439920e-003
9.439920e-003
9.439920e-003
9.439920e-003
9.439920e-003
9.439920e-003
9.439920e-003
9.439920e-003
9.439920e-003
9.439920e-003
9.439920e-003
9.439920e-003
9.439920e-003
9.439920e-003
9.439920e-003
9.439920e-003
9.439920e-003
9.439920e-003
9.439920e-003
9.439920e-003
9.439920e-003
9.439920e-003
9.439920e-003
9.439920e-003
9.439920e-003
9.439920e-003
9.439920e-003
9.439920e-003
9.439920e-003
9.439920e-003
9.439920e-003
9.439920e-003
9.439920e-003
9.439920e-003
9.439920e-003
9.439920e-003
9.439920e-003
9.439920e-003
9.439921e-003
9.439921e-003
9.439921e-003
9.439921e-003
9.439921e-003
9.439921e-003
9.439921e-003
9.439921e-003
9.439921e-003
9.439921e-003
9.439922e-003
9.439922e-003
9.439922e-003
9.439922e-003
9.439922e-003
9.439922e-003
9.439922e-003
9.439922e-003
9.439922e-003
9.439922e-003
9.439922e-003
9.439922e-003
9.439922e-003
9.439922e-003
9.439922e-003
9.439922e-003
9.439922e-003
9.439922e-003
9.439921e-003
9.439921e-003
9.439921e-003
9.439921e-003
9.439921e-003
9.439921e-003
9.439921e-003
9.439921e-003
9.439920e-003
9.439920e-003
9.439920e-003
9.439920e-003
9.439920e-003
9.439920e-003
9.439920e-003
9.439920e-003
9.439920e-003
9.439920e-003
9.439920e-003
9.439920e-003
9.439920e-003
9.439920e-003
9.439920e-003
9.439920e-003
9.439920e-003
9.439920e-003
9.439920e-003
9.439920e-003
9.439920e-003
9.439920e-003
9.439920e-003
9.439920e-003
9.439920e-003
9.439920e-003
9.439920e-003
9.439920e-003
9.439920e-003
9.439920e-003
9.439920e-003
9.439920e-003
9.439919e-003
9.439920e-003
9.439920e-003
9.439921e-003
9.439921e-003
9.439920e-003
9.439920e-003
9.439919e-003
9.439919e-003
9.439920e-003
9.439920e-003
9.439921e-003
9.439921e-003
9.439920e-003
9.439920e-003
9.439920e-003
9.439920e-003
9.439919e-003
9.439919e-003
9.439919e-003
9.439920e-003
9.439920e-003
9.439920e-003
9.439921e-003
9.439921e-003
9.439921e-003
9.439921e-003
9.439921e-003
9.439921e-003
9.439921e-003
9.439921e-003
9.439921e-003
9.439921e-003
9.439921e-003
9.439921e-003
9.439921e-003
9.439921e-003
9.439922e-003
9.439922e-003
9.439922e-003
9.439922e-003
9.439923e-003
9.439923e-003
9.439923e-003
9.439924e-003
9.439924e-003
9.439924e-003
9.439924e-003
9.439924e-003
9.439924e-003
9.439924e-003
9.439924e-003
9.439924e-003
9.439924e-003
9.439924e-003
9.439924e-003
9.439924e-003
9.439924e-003
9.439923e-003
9.439923e-003
9.439923e-003
9.439922e-003
9.439922e-003
9.439922e-003
9.439921e-003
9.439921e-003
9.439921e-003
9.439921e-003
9.439921e-003
9.439921e-003
9.439921e-003
9.439921e-003
9.439921e-003
9.439921e-003
9.439921e-003
9.439921e-003
9.439921e-003
9.439920e-003
9.439920e-003
9.439920e-003
9.439920e-003
9.439920e-003
9.439920e-003
9.439920e-003
9.439920e-003
9.439920e-003
9.439920e-003
9.439920e-003
9.439920e-003
9.439920e-003
9.439920e-003
9.439920e-003
9.439920e-003
9.439920e-003
9.439920e-003
9.439920e-003
9.439920e-003
9.439920e-003
9.439920e-003
9.439920e-003
9.439919e-003
9.439920e-003
9.439920e-003
9.439921e-003
9.439921e-003
9.439920e-003
9.439919e-003
9.439919e-003
9.439919e-003
9.439920e-003
9.439920e-003
9.439921e-003
9.439921e-003
9.439920e-003
9.439920e-003
9.439920e-003
9.439920e-003
9.439920e-003
9.439920e-003
9.439920e-003
9.439920e-003
9.439920e-003
9.439920e-003
9.439921e-003
9.439921e-003
9.439921e-003
9.439921e-003
9.439921e-003
9.439921e-003
9.439921e-003
9.439922e-003
9.439922e-003
9.439922e-003
9.439923e-003
9.439923e-003
9.439924e-003
9.439924e-003
9.439925e-003
9.439925e-003
9.439926e-003
9.439926e-003
9.439927e-003
9.439927e-003
9.439928e-003
9.439928e-003
9.439929e-003
9.439929e-003
9.439929e-003
9.439929e-003
9.439929e-003
9.439930e-003
9.439930e-003
9.439929e-003
9.439929e-003
9.439929e-003
9.439929e-003
9.439928e-003
9.439928e-003
9.439928e-003
9.439927e-003
9.439927e-003
9.439926e-003
9.439925e-003
9.439925e-003
9.439924e-003
9.439924e-003
9.439923e-003
9.439923e-003
9.439922e-003
9.439922e-003
9.439921e-003
9.439921e-003
9.439921e-003
9.439921e-003
9.439921e-003
9.439921e-003
9.439921e-003
9.439920e-003
9.439920e-003
9.439920e-003
9.439920e-003
9.439920e-003
9.439920e-003
9.439920e-003
9.439920e-003
9.439920e-003
9.439920e-003
9.439920e-003
9.439920e-003
9.439920e-003
9.439920e-003
9.439920e-003
9.439920e-003
9.439920e-003
9.439920e-003
9.439920e-003
9.439920e-003
9.439920e-003
9.439920e-003
9.439920e-003
9.439920e-003
9.439920e-003
9.439920e-003
9.439920e-003
9.439920e-003
9.439920e-003
9.439920e-003
9.439920e-003
9.439920e-003
9.439920e-003
9.439920e-003
9.439920e-003
9.439920e-003
9.439920e-003
9.439920e-003
9.439920e-003
9.439920e-003
9.439920e-003
9.439921e-003
9.439921e-003
9.439920e-003
9.439920e-003
9.439920e-003
9.439920e-003
9.439920e-003
9.439921e-003
9.439921e-003
9.439921e-003
9.439922e-003
9.439923e-003
9.439923e-003
9.439924e-003
9.439925e-003
9.439926e-003
9.439927e-003
9.439928e-003
9.439929e-003
9.439930e-003
9.439931e-003
9.439932e-003
9.439933e-003
9.439934e-003
9.439934e-003
9.439935e-003
9.439935e-003
9.439936e-003
9.439936e-003
9.439937e-003
9.439937e-003
9.439937e-003
9.439937e-003
9.439937e-003
9.439937e-003
9.439937e-003
9.439936e-003
9.439936e-003
9.439935e-003
9.439935e-003
9.439934e-003
9.439933e-003
9.439933e-003
9.439932e-003
9.439931e-003
9.439930e-003
9.439929e-003
9.439928e-003
9.439927e-003
9.439926e-003
9.439925e-003
9.439924e-003
9.439923e-003
9.439922e-003
9.439922e-003
9.439921e-003
9.439921e-003
9.439920e-003
9.439920e-003
9.439920e-003
9.439920e-003
9.439920e-003
9.439920e-003
9.439920e-003
9.439920e-003
9.439920e-003
9.439920e-003
9.439920e-003
9.439920e-003
9.439920e-003
9.439920e-003
9.439920e-003
9.439920e-003
9.439920e-003
9.439920e-003
9.439920e-003
9.439920e-003
9.439920e-003
9.439920e-003
9.439920e-003
9.439920e-003
9.439920e-003
9.439921e-003
9.439920e-003
9.439920e-003
9.439919e-003
9.439920e-003
9.439920e-003
9.439920e-003
9.439921e-003
9.439920e-003
9.439920e-003
9.439920e-003
9.439920e-003
9.439919e-003
9.439919e-003
9.439920e-003
9.439920e-003
9.439921e-003
9.439921e-003
9.439921e-003
9.439921e-003
9.439921e-003
9.439921e-003
9.439921e-003
9.439921e-003
9.439921e-003
9.439922e-003
9.439922e-003
9.439923e-003
9.439925e-003
9.439926e-003
9.439927e-003
9.439928e-003
9.439930e-003
9.439931e-003
9.439933e-003
9.439934e-003
9.439936e-003
9.439937e-003
9.439938e-003
9.439939e-003
9.439940e-003
9.439941e-003
9.439942e-003
9.439942e-003
9.439943e-003
9.439943e-003
9.439944e-003
9.439944e-003
9.439944e-003
9.439944e-003
9.439944e-003
9.439944e-003
9.439944e-003
9.439944e-003
9.439943e-003
9.439943e-003
9.439942e-003
9.439942e-003
9.439941e-003
9.439940e-003
9.439939e-003
9.439938e-003
9.439937e-003
9.439936e-003
9.439935e-003
9.439933e-003
9.439932e-003
9.439930e-003
9.439929e-003
9.439928e-003
9.439926e-003
9.439925e-003
9.439924e-003
9.439923e-003
9.439922e-003
9.439921e-003
9.439921e-003
9.439920e-003
9.439920e-003
9.439920e-003
9.439920e-003
9.439921e-003
9.439921e-003
9.439920e-003
9.439920e-003
9.439920e-003
9.439920e-003
9.439920e-003
9.439920e-003
9.439920e-003
9.439920e-003
9.439920e-003
9.439920e-003
9.439920e-003
9.439920e-003
9.439920e-003
9.439920e-003
9.439920e-003
9.439920e-003
9.439920e-003
9.439921e-003
9.439920e-003
9.439919e-003
9.439919e-003
9.439919e-003
9.439920e-003
9.439921e-003
9.439921e-003
9.439920e-003
9.439920e-003
9.439920e-003
9.439920e-003
9.439920e-003
9.439920e-003
9.439920e-003
9.439920e-003
9.439920e-003
9.439921e-003
9.439921e-003
9.439921e-003
9.439921e-003
9.439921e-003
9.439922e-003
9.439923e-003
9.439924e-003
9.439925e-003
9.439926e-003
9.439928e-003
9.439929e-003
9.439931e-003
9.439933e-003
9.439935e-003
9.439936e-003
9.439938e-003
9.439940e-003
9.439941e-003
9.439942e-003
9.439943e-003
9.439944e-003
9.439945e-003
9.439946e-003
9.439946e-003
9.439946e-003
9.439946e-003
9.439946e-003
9.439946e-003
9.439946e-003
9.439946e-003
9.439945e-003
9.439945e-003
9.439945e-003
9.439945e-003
9.439944e-003
9.439944e-003
9.439944e-003
9.439944e-003
9.439944e-003
9.439944e-003
9.439944e-003
9.439944e-003
9.439943e-003
9.439943e-003
9.439942e-003
9.439941e-003
9.439940e-003
9.439939e-003
9.439938e-003
9.439936e-003
9.439934e-003
9.439932e-003
9.439931e-003
9.439929e-003
9.439927e-003
9.439926e-003
9.439925e-003
9.439923e-003
9.439922e-003
9.439922e-003
9.439921e-003
9.439921e-003
9.439920e-003
9.439920e-003
9.439920e-003
9.439920e-003
9.439920e-003
9.439920e-003
9.439920e-003
9.439920e-003
9.439920e-003
9.439920e-003
9.439920e-003
9.439920e-003
9.439920e-003
9.439920e-003
9.439920e-003
9.439920e-003
9.439920e-003
9.439920e-003
9.439920e-003
9.439920e-003
9.439921e-003
9.439920e-003
9.439920e-003
9.439919e-003
9.439920e-003
9.439920e-003
9.439920e-003
9.439920e-003
9.439920e-003
9.439920e-003
9.439920e-003
9.439920e-003
9.439920e-003
9.439921e-003
9.439921e-003
9.439920e-003
9.439920e-003
9.439920e-003
9.439920e-003
9.439921e-003
9.439922e-003
9.439923e-003
9.439924e-003
9.439926e-003
9.439927e-003
9.439929e-003
9.439931e-003
9.439933e-003
9.439936e-003
9.439938e-003
9.439940e-003
9.439942e-003
9.439943e-003
9.439945e-003
9.439945e-003
9.439946e-003
9.439945e-003
9.439945e-003
9.439943e-003
9.439942e-003
9.439940e-003
9.439937e-003
9.439934e-003
9.439932e-003
9.439929e-003
9.439926e-003
9.439923e-003
9.439921e-003
9.439919e-003
9.439917e-003
9.439916e-003
9.439916e-003
9.439916e-003
9.439916e-003
9.439917e-003
9.439919e-003
9.439921e-003
9.439924e-003
9.439927e-003
9.439930e-003
9.439933e-003
9.439936e-003
9.439938e-003
9.439940e-003
9.439941e-003
9.439942e-003
9.439942e-003
9.439941e-003
9.439940e-003
9.439938e-003
9.439937e-003
9.439935e-003
9.439932e-003
9.439930e-003
9.439929e-003
9.439927e-003
9.439925e-003
9.439924e-003
9.439922e-003
9.439922e-003
9.439921e-003
9.439920e-003
9.439920e-003
9.439920e-003
9.439920e-003
9.439920e-003
9.439920e-003
9.439920e-003
9.439920e-003
9.439920e-003
9.439920e-003
9.439920e-003
9.439920e-003
9.439920e-003
9.439920e-003
9.439920e-003
9.439920e-003
9.439920e-003
9.439920e-003
9.439920e-003
9.439920e-003
9.439920e-003
9.439920e-003
9.439920e-003
9.439920e-003
9.439920e-003
9.439920e-003
9.439920e-003
9.439920e-003
9.439920e-003
9.439920e-003
9.439920e-003
9.439921e-003
9.439921e-003
9.439921e-003
9.439920e-003
9.439920e-003
9.439921e-003
9.439921e-003
9.439922e-003
9.439924e-003
9.439926e-003
9.439928e-003
9.439930e-003
9.439932e-003
9.439935e-003
9.439938e-003
9.439940e-003
9.439943e-003
9.439945e-003
9.439946e-003
9.439946e-003
9.439945e-003
9.439943e-003
9.439939e-003
9.439934e-003
9.439927e-003
9.439919e-003
9.439909e-003
9.439899e-003
9.439887e-003
9.439875e-003
9.439863e-003
9.439851e-003
9.439839e-003
9.439828e-003
9.439818e-003
9.439809e-003
9.439802e-003
9.439796e-003
9.439793e-003
9.439791e-003
9.439792e-003
9.439795e-003
9.439801e-003
9.439808e-003
9.439818e-003
9.439829e-003
9.439842e-003
9.439855e-003
9.439869e-003
9.439883e-003
9.439896e-003
9.439908e-003
9.439918e-003
9.439927e-003
9.439934e-003
9.439938e-003
9.439941e-003
9.439942e-003
9.439942e-003
9.439940e-003
9.439938e-003
9.439936e-003
9.439933e-003
9.439931e-003
9.439929e-003
9.439927e-003
9.439925e-003
9.439923e-003
9.439922e-003
9.439921e-003
9.439920e-003
9.439920e-003
9.439920e-003
9.439920e-003
9.439921e-003
9.439921e-003
9.439920e-003
9.439920e-003
9.439920e-003
9.439920e-003
9.439920e-003
9.439920e-003
9.439920e-003
9.439920e-003
9.439920e-003
9.439920e-003
9.439920e-003
9.439920e-003
9.439919e-003
9.439920e-003
9.439921e-003
9.439921e-003
9.439921e-003
9.439920e-003
9.439919e-003
9.439919e-003
9.439920e-003
9.439920e-003
9.439920e-003
9.439920e-003
9.439921e-003
9.439920e-003
9.439921e-003
9.439921e-003
9.439921e-003
9.439922e-003
9.439924e-003
9.439926e-003
9.439928e-003
9.439930e-003
9.439933e-003
9.439935e-003
9.439939e-003
9.439942e-003
9.439944e-003
9.439946e-003
9.439946e-003
9.439945e-003
9.439941e-003
9.439933e-003
9.439922e-003
9.439907e-003
9.439887e-003
9.439863e-003
9.439835e-003
9.439804e-003
9.439770e-003
9.439733e-003
9.439695e-003
9.439656e-003
9.439617e-003
9.439579e-003
9.439543e-003
9.439510e-003
9.439481e-003
9.439455e-003
9.439435e-003
9.439419e-003
9.439410e-003
9.439407e-003
9.439410e-003
9.439420e-003
9.439437e-003
9.439460e-003
9.439490e-003
9.439524e-003
9.439563e-003
9.439606e-003
9.439650e-003
9.439694e-003
9.439738e-003
9.439779e-003
9.439817e-003
9.439850e-003
9.439878e-003
9.439901e-003
9.439918e-003
9.439930e-003
9.439937e-003
9.439941e-003
9.439942e-003
9.439941e-003
9.439939e-003
9.439936e-003
9.439933e-003
9.439931e-003
9.439928e-003
9.439926e-003
9.439924e-003
9.439923e-003
9.439922e-003
9.439921e-003
9.439920e-003
9.439920e-003
9.439920e-003
9.439920e-003
9.439920e-003
9.439920e-003
9.439920e-003
9.439920e-003
9.439920e-003
9.439920e-003
9.439920e-003
9.439920e-003
9.439920e-003
9.439920e-003
9.439920e-003
9.439920e-003
9.439919e-003
9.439920e-003
9.439921e-003
9.439921e-003
9.439920e-003
9.439920e-003
9.439919e-003
9.439920e-003
9.439920e-003
9.439921e-003
9.439921e-003
9.439920e-003
9.439920e-003
9.439920e-003
9.439921e-003
9.439922e-003
9.439923e-003
9.439925e-003
9.439927e-003
9.439930e-003
9.439933e-003
9.439936e-003
9.439939e-003
9.439943e-003
9.439946e-003
9.439947e-003
9.439947e-003
9.439942e-003
9.439933e-003
9.439917e-003
9.439893e-003
9.439860e-003
9.439816e-003
9.439763e-003
9.439698e-003
9.439624e-003
9.439540e-003
9.439448e-003
9.439349e-003
9.439246e-003
9.439140e-003
9.439034e-003
9.438929e-003
9.438829e-003
9.438735e-003
9.438648e-003
9.438571e-003
9.438506e-003
9.438453e-003
9.438415e-003
9.438392e-003
9.438385e-003
9.438395e-003
9.438422e-003
9.438467e-003
9.438529e-003
9.438606e-003
9.438698e-003
9.438802e-003
9.438916e-003
9.439036e-003
9.439158e-003
9.439279e-003
9.439396e-003
9.439505e-003
9.439603e-003
9.439689e-003
9.439761e-003
9.439819e-003
9.439864e-003
9.439897e-003
9.439919e-003
9.439932e-003
9.439940e-003
9.439942e-003
9.439941e-003
9.439939e-003
9.439936e-003
9.439933e-003
9.439930e-003
9.439928e-003
9.439926e-003
9.439924e-003
9.439922e-003
9.439921e-003
9.439921e-003
9.439920e-003
9.439920e-003
9.439920e-003
9.439920e-003
9.439920e-003
9.439920e-003
9.439920e-003
9.439920e-003
9.439920e-003
9.439920e-003
9.439920e-003
9.439920e-003
9.439920e-003
9.439920e-003
9.439920e-003
9.439920e-003
9.439920e-003
9.439920e-003
9.439920e-003
9.439920e-003
9.439920e-003
9.439920e-003
9.439921e-003
9.439921e-003
9.439921e-003
9.439920e-003
9.439920e-003
9.439921e-003
9.439922e-003
9.439924e-003
9.439926e-003
9.439929e-003
9.439932e-003
9.439935e-003
9.439939e-003
9.439943e-003
9.439947e-003
9.439949e-003
9.439947e-003
9.439940e-003
9.439925e-003
9.439899e-003
9.439859e-003
9.439800e-003
9.439722e-003
9.439620e-003
9.439494e-003
9.439342e-003
9.439165e-003
9.438965e-003
9.438744e-003
9.438506e-003
9.438255e-003
9.437995e-003
9.437731e-003
9.437469e-003
9.437214e-003
9.436971e-003
9.436743e-003
9.436536e-003
9.436353e-003
9.436197e-003
9.436073e-003
9.435983e-003
9.435929e-003
9.435915e-003
9.435940e-003
9.436007e-003
9.436116e-003
9.436265e-003
9.436453e-003
9.436675e-003
9.436928e-003
9.437206e-003
9.437500e-003
9.437803e-003
9.438107e-003
9.438402e-003
9.438680e-003
9.438936e-003
9.439164e-003
9.439360e-003
9.439523e-003
9.439653e-003
9.439754e-003
9.439827e-003
9.439878e-003
9.439911e-003
9.439930e-003
9.439940e-003
9.439942e-003
9.439941e-003
9.439939e-003
9.439935e-003
9.439932e-003
9.439929e-003
9.439926e-003
9.439924e-003
9.439923e-003
9.439921e-003
9.439920e-003
9.439920e-003
9.439920e-003
9.439920e-003
9.439921e-003
9.439920e-003
9.439920e-003
9.439920e-003
9.439920e-003
9.439920e-003
9.439920e-003
9.439920e-003
9.439920e-003
9.439920e-003
9.439921e-003
9.439920e-003
9.439920e-003
9.439920e-003
9.439920e-003
9.439920e-003
9.439920e-003
9.439920e-003
9.439921e-003
9.439921e-003
9.439921e-003
9.439921e-003
9.439921e-003
9.439923e-003
9.439925e-003
9.439927e-003
9.439930e-003
9.439933e-003
9.439937e-003
9.439942e-003
9.439947e-003
9.439950e-003
9.439949e-003
9.439941e-003
9.439923e-003
9.439888e-003
9.439831e-003
9.439745e-003
9.439623e-003
9.439458e-003
9.439243e-003
9.438974e-003
9.438649e-003
9.438267e-003
9.437830e-003
9.437342e-003
9.436810e-003
9.436244e-003
9.435652e-003
9.435046e-003
9.434438e-003
9.433838e-003
9.433258e-003
9.432707e-003
9.432195e-003
9.431732e-003
9.431324e-003
9.430980e-003
9.430707e-003
9.430509e-003
9.430393e-003
9.430363e-003
9.430422e-003
9.430573e-003
9.430817e-003
9.431152e-003
9.431573e-003
9.432075e-003
9.432648e-003
9.433278e-003
9.433950e-003
9.434648e-003
9.435352e-003
9.436042e-003
9.436702e-003
9.437314e-003
9.437865e-003
9.438348e-003
9.438757e-003
9.439092e-003
9.439357e-003
9.439558e-003
9.439704e-003
9.439806e-003
9.439872e-003
9.439911e-003
9.439932e-003
9.439941e-003
9.439943e-003
9.439941e-003
9.439937e-003
9.439933e-003
9.439930e-003
9.439927e-003
9.439925e-003
9.439923e-003
9.439922e-003
9.439921e-003
9.439920e-003
9.439920e-003
9.439920e-003
9.439920e-003
9.439920e-003
9.439920e-003
9.439920e-003
9.439920e-003
9.439920e-003
9.439920e-003
9.439920e-003
9.439920e-003
9.439921e-003
9.439920e-003
9.439919e-003
9.439919e-003
9.439920e-003
9.439920e-003
9.439921e-003
9.439920e-003
9.439920e-003
9.439920e-003
9.439921e-003
9.439922e-003
9.439923e-003
9.439925e-003
9.439928e-003
9.439931e-003
9.439935e-003
9.439940e-003
9.439945e-003
9.439949e-003
9.439951e-003
9.439945e-003
9.439927e-003
9.439889e-003
9.439822e-003
9.439714e-003
9.439551e-003
9.439319e-003
9.439001e-003
9.438584e-003
9.438057e-003
9.437410e-003
9.436640e-003
9.435748e-003
9.434742e-003
9.433634e-003
9.432441e-003
9.431183e-003
9.429882e-003
9.428562e-003
9.427249e-003
9.425963e-003
9.424729e-003
9.423565e-003
9.422492e-003
9.421524e-003
9.420679e-003
9.419968e-003
9.419405e-003
9.419001e-003
9.418766e-003
9.418709e-003
9.418837e-003
9.419155e-003
9.419664e-003
9.420364e-003
9.421246e-003
9.422300e-003
9.423507e-003
9.424844e-003
9.426280e-003
9.427780e-003
9.429306e-003
9.430818e-003
9.432276e-003
9.433644e-003
9.434893e-003
9.435999e-003
9.436950e-003
9.437742e-003
9.438379e-003
9.438874e-003
9.439244e-003
9.439509e-003
9.439691e-003
9.439808e-003
9.439879e-003
9.439919e-003
9.439937e-003
9.439943e-003
9.439942e-003
9.439939e-003
9.439934e-003
9.439931e-003
9.439928e-003
9.439925e-003
9.439923e-003
9.439922e-003
9.439921e-003
9.439920e-003
9.439920e-003
9.439920e-003
9.439920e-003
9.439920e-003
9.439920e-003
9.439920e-003
9.439920e-003
9.439920e-003
9.439920e-003
9.439920e-003
9.439921e-003
9.439920e-003
9.439919e-003
9.439919e-003
9.439920e-003
9.439921e-003
9.439921e-003
9.439920e-003
9.439920e-003
9.439920e-003
9.439922e-003
9.439924e-003
9.439926e-003
9.439929e-003
9.439932e-003
9.439937e-003
9.439942e-003
9.439948e-003
9.439952e-003
9.439950e-003
9.439937e-003
9.439904e-003
9.439838e-003
9.439722e-003
9.439535e-003
9.439252e-003
9.438843e-003
9.438276e-003
9.437522e-003
9.436553e-003
9.435347e-003
9.433892e-003
9.432185e-003
9.430237e-003
9.428069e-003
9.425711e-003
9.423204e-003
9.420592e-003
9.417924e-003
9.415248e-003
9.412611e-003
9.410059e-003
9.407630e-003
9.405362e-003
9.403286e-003
9.401430e-003
9.399820e-003
9.398476e-003
9.397418e-003
9.396666e-003
9.396236e-003
9.396142e-003
9.396397e-003
9.397011e-003
9.397989e-003
9.399330e-003
9.401027e-003
9.403061e-003
9.405405e-003
9.408019e-003
9.410852e-003
9.413843e-003
9.416918e-003
9.420001e-003
9.423011e-003
9.425873e-003
9.428520e-003
9.430898e-003
9.432971e-003
9.434722e-003
9.436154e-003
9.437286e-003
9.438149e-003
9.438782e-003
9.439227e-003
9.439527e-003
9.439719e-003
9.439835e-003
9.439899e-003
9.439930e-003
9.439942e-003
9.439943e-003
9.439940e-003
9.439936e-003
9.439932e-003
9.439928e-003
9.439926e-003
9.439924e-003
9.439922e-003
9.439921e-003
9.439920e-003
9.439920e-003
9.439920e-003
9.439920e-003
9.439920e-003
9.439920e-003
9.439920e-003
9.439920e-003
9.439920e-003
9.439920e-003
9.439920e-003
9.439920e-003
9.439919e-003
9.439920e-003
9.439920e-003
9.439921e-003
9.439921e-003
9.439920e-003
9.439920e-003
9.439921e-003
9.439923e-003
9.439926e-003
9.439929e-003
9.439933e-003
9.439938e-003
9.439944e-003
9.439950e-003
9.439953e-003
9.439948e-003
9.439925e-003
9.439872e-003
9.439768e-003
9.439585e-003
9.439288e-003
9.438830e-003
9.438157e-003
9.437211e-003
9.435930e-003
9.434255e-003
9.432140e-003
9.429551e-003
9.426477e-003
9.422931e-003
9.418949e-003
9.414589e-003
9.409929e-003
9.405057e-003
9.400069e-003
9.395061e-003
9.390123e-003
9.385339e-003
9.380783e-003
9.376516e-003
9.372591e-003
9.369050e-003
9.365928e-003
9.363253e-003
9.361050e-003
9.359342e-003
9.358148e-003
9.357489e-003
9.357382e-003
9.357846e-003
9.358897e-003
9.360546e-003
9.362801e-003
9.365660e-003
9.369111e-003
9.373126e-003
9.377660e-003
9.382647e-003
9.387998e-003
9.393601e-003
9.399323e-003
9.405021e-003
9.410545e-003
9.415752e-003
9.420519e-003
9.424750e-003
9.428388e-003
9.431415e-003
9.433847e-003
9.435733e-003
9.437143e-003
9.438156e-003
9.438856e-003
9.439318e-003
9.439608e-003
9.439780e-003
9.439874e-003
9.439921e-003
9.439940e-003
9.439944e-003
9.439941e-003
9.439936e-003
9.439932e-003
9.439928e-003
9.439926e-003
9.439924e-003
9.439922e-003
9.439921e-003
9.439920e-003
9.439920e-003
9.439920e-003
9.439921e-003
9.439920e-003
9.439920e-003
9.439920e-003
9.439920e-003
9.439920e-003
9.439920e-003
9.439920e-003
9.439920e-003
9.439920e-003
9.439920e-003
9.439921e-003
9.439921e-003
9.439921e-003
9.439922e-003
9.439923e-003
9.439926e-003
9.439930e-003
9.439934e-003
9.439939e-003
9.439946e-003
9.439952e-003
9.439954e-003
9.439944e-003
9.439911e-003
9.439834e-003
9.439683e-003
9.439416e-003
9.438975e-003
9.438282e-003
9.437246e-003
9.435758e-003
9.433707e-003
9.430979e-003
9.427479e-003
9.423138e-003
9.417928e-003
9.411869e-003
9.405035e-003
9.397543e-003
9.389554e-003
9.381249e-003
9.372821e-003
9.364459e-003
9.356334e-003
9.348592e-003
9.341350e-003
9.334695e-003
9.328686e-003
9.323355e-003
9.318719e-003
9.314779e-003
9.311527e-003
9.308954e-003
9.307049e-003
9.305803e-003
9.305211e-003
9.305274e-003
9.306001e-003
9.307408e-003
9.309520e-003
9.312369e-003
9.315994e-003
9.320434e-003
9.325722e-003
9.331876e-003
9.338886e-003
9.346700e-003
9.355213e-003
9.364264e-003
9.373635e-003
9.383065e-003
9.392270e-003
9.400972e-003
9.408927e-003
9.415949e-003
9.421930e-003
9.426841e-003
9.430725e-003
9.433684e-003
9.435851e-003
9.437377e-003
9.438407e-003
9.439073e-003
9.439482e-003
9.439720e-003
9.439849e-003
9.439912e-003
9.439937e-003
9.439944e-003
9.439942e-003
9.439937e-003
9.439932e-003
9.439928e-003
9.439926e-003
9.439923e-003
9.439922e-003
9.439921e-003
9.439920e-003
9.439920e-003
9.439920e-003
9.439920e-003
9.439920e-003
9.439920e-003
9.439920e-003
9.439920e-003
9.439919e-003
9.439920e-003
9.439921e-003
9.439921e-003
9.439920e-003
9.439920e-003
9.439920e-003
9.439922e-003
9.439924e-003
9.439926e-003
9.439930e-003
9.439934e-003
9.439940e-003
9.439947e-003
9.439953e-003
9.439954e-003
9.439940e-003
9.439896e-003
9.439794e-003
9.439592e-003
9.439228e-003
9.438613e-003
9.437628e-003
9.436123e-003
9.433919e-003
9.430819e-003
9.426623e-003
9.421156e-003
9.414295e-003
9.405998e-003
9.396324e-003
9.385449e-003
9.373653e-003
9.361302e-003
9.348809e-003
9.336598e-003
9.325060e-003
9.314525e-003
9.305237e-003
9.297349e-003
9.290921e-003
9.285931e-003
9.282290e-003
9.279856e-003
9.278458e-003
9.277907e-003
9.278013e-003
9.278590e-003
9.279467e-003
9.280493e-003
9.281536e-003
9.282494e-003
9.283302e-003
9.283939e-003
9.284441e-003
9.284908e-003
9.285516e-003
9.286509e-003
9.288195e-003
9.290913e-003
9.295003e-003
9.300747e-003
9.308321e-003
9.317745e-003
9.328858e-003
9.341310e-003
9.354597e-003
9.368117e-003
9.381252e-003
9.393447e-003
9.404273e-003
9.413473e-003
9.420962e-003
9.426806e-003
9.431180e-003
9.434321e-003
9.436485e-003
9.437912e-003
9.438813e-003
9.439355e-003
9.439662e-003
9.439825e-003
9.439903e-003
9.439935e-003
9.439944e-003
9.439942e-003
9.439937e-003
9.439932e-003
9.439928e-003
9.439925e-003
9.439923e-003
9.439922e-003
9.439921e-003
9.439920e-003
9.439920e-003
9.439920e-003
9.439920e-003
9.439920e-003
9.439920e-003
9.439920e-003
9.439919e-003
9.439920e-003
9.439921e-003
9.439921e-003
9.439920e-003
9.439920e-003
9.439921e-003
9.439923e-003
9.439926e-003
9.439930e-003
9.439934e-003
9.439940e-003
9.439947e-003
9.439954e-003
9.439955e-003
9.439938e-003
9.439884e-003
9.439759e-003
9.439506e-003
9.439040e-003
9.438235e-003
9.436916e-003
9.434855e-003
9.431768e-003
9.427338e-003
9.421236e-003
9.413170e-003
9.402954e-003
9.390566e-003
9.376218e-003
9.360384e-003
9.343796e-003
9.327386e-003
9.312201e-003
9.299275e-003
9.289526e-003
9.283652e-003
9.282077e-003
9.284927e-003
9.292043e-003
9.303017e-003
9.317239e-003
9.333965e-003
9.352363e-003
9.371575e-003
9.390752e-003
9.409083e-003
9.425814e-003
9.440253e-003
9.451774e-003
9.459827e-003
9.463949e-003
9.463791e-003
9.459154e-003
9.450037e-003
9.436684e-003
9.419634e-003
9.399741e-003
9.378178e-003
9.356380e-003
9.335944e-003
9.318478e-003
9.305413e-003
9.297819e-003
9.296241e-003
9.300612e-003
9.310253e-003
9.323983e-003
9.340305e-003
9.357643e-003
9.374575e-003
9.390001e-003
9.403227e-003
9.413966e-003
9.422256e-003
9.428362e-003
9.432660e-003
9.435556e-003
9.437421e-003
9.438570e-003
9.439243e-003
9.439615e-003
9.439808e-003
9.439898e-003
9.439934e-003
9.439944e-003