# vtk DataFile Version 3.0
vtk output
ASCII
DATASET STRUCTURED_POINTS
DIMENSIONS 100 100 1
SPACING 1 1 1
ORIGIN 0 0 0
POINT_DATA 10000
SCALARS SFBox_profile double
LOOKUP_TABLE default 
0.000000e+000
0.000000e+000
0.000000e+000
0.000000e+000
0.000000e+000
0.000000e+000
0.000000e+000
0.000000e+000
0.000000e+000
0.000000e+000
0.000000e+000
0.000000e+000
0.000000e+000
0.000000e+000
0.000000e+000
0.000000e+000
0.000000e+000
0.000000e+000
0.000000e+000
0.000000e+000
0.000000e+000
0.000000e+000
0.000000e+000
0.000000e+000
0.000000e+000
0.000000e+000
0.000000e+000
0.000000e+000
0.000000e+000
0.000000e+000
0.000000e+000
0.000000e+000
0.000000e+000
0.000000e+000
0.000000e+000
0.000000e+000
0.000000e+000
0.000000e+000
0.000000e+000
0.000000e+000
0.000000e+000
0.000000e+000
0.000000e+000
0.000000e+000
0.000000e+000
0.000000e+000
0.000000e+000
0.000000e+000
0.000000e+000
0.000000e+000
0.000000e+000
0.000000e+000
0.000000e+000
0.000000e+000
0.000000e+000
0.000000e+000
0.000000e+000
0.000000e+000
0.000000e+000
0.000000e+000
0.000000e+000
0.000000e+000
0.000000e+000
0.000000e+000
0.000000e+000
0.000000e+000
0.000000e+000
0.000000e+000
0.000000e+000
0.000000e+000
0.000000e+000
0.000000e+000
0.000000e+000
0.000000e+000
0.000000e+000
0.000000e+000
0.000000e+000
0.000000e+000
0.000000e+000
0.000000e+000
0.000000e+000
0.000000e+000
0.000000e+000
0.000000e+000
0.000000e+000
0.000000e+000
0.000000e+000
0.000000e+000
0.000000e+000
0.000000e+000
0.000000e+000
0.000000e+000
0.000000e+000
0.000000e+000
0.000000e+000
0.000000e+000
0.000000e+000
0.000000e+000
0.000000e+000
0.000000e+000
5.361458e-009
3.744828e-009
1.201805e-009
-1.213782e-009
-2.570704e-009
-2.463878e-009
-1.147605e-009
6.414675e-010
2.056816e-009
2.515172e-009
1.902812e-009
5.519959e-010
-9.599412e-010
-2.069534e-009
-2.428302e-009
-1.983995e-009
-9.442790e-010
3.327494e-010
1.467078e-009
2.163310e-009
2.274160e-009
1.816151e-009
9.432215e-010
-1.090090e-010
-1.090802e-009
-1.798905e-009
-2.115365e-009
-2.018220e-009
-1.567314e-009
-8.751532e-010
-7.427255e-011
7.101941e-010
1.378621e-009
1.865479e-009
2.140289e-009
2.203382e-009
2.078602e-009
1.804748e-009
1.427223e-009
9.910259e-010
5.357862e-010
9.303344e-011
-3.145653e-010
-6.725201e-010
-9.729905e-010
-1.212928e-009
-1.392262e-009
-1.512333e-009
-1.574699e-009
-1.580326e-009
-1.529171e-009
-1.420165e-009
-1.251574e-009
-1.021755e-009
-7.302972e-010
-3.794808e-010
2.403632e-011
4.675145e-010
9.307062e-010
1.385093e-009
1.794242e-009
2.115695e-009
2.304690e-009
2.319810e-009
2.130311e-009
1.724505e-009
1.117967e-009
3.596920e-010
-4.663032e-010
-1.246564e-009
-1.852722e-009
-2.164656e-009
-2.098982e-009
-1.636581e-009
-8.410767e-010
1.396163e-010
1.094065e-009
1.790999e-009
2.039750e-009
1.753300e-009
9.928295e-010
-2.878557e-011
-9.984188e-010
-1.602784e-009
-1.645468e-009
-1.131736e-009
-2.763473e-010
5.797360e-010
1.112870e-009
1.154544e-009
7.553956e-010
1.436046e-010
-3.979915e-010
-6.682245e-010
-6.254473e-010
-3.727076e-010
-7.173770e-011
1.540605e-010
2.689218e-010
3.057197e-010
1.442112e-009
9.484671e-010
1.941428e-010
-4.748089e-010
-7.737043e-010
-6.148961e-010
-1.356879e-010
3.890857e-010
6.953162e-010
6.564766e-010
3.264740e-010
-1.124132e-010
-4.561378e-010
-5.774584e-010
-4.689596e-010
-2.207521e-010
4.164117e-011
2.198247e-010
2.762050e-010
2.318801e-010
1.408716e-010
5.950444e-011
2.484023e-011
4.669032e-011
1.105991e-010
1.867835e-010
2.408693e-010
2.437914e-010
1.790931e-010
4.631823e-011
-1.399927e-010
-3.549441e-010
-5.697070e-010
-7.575916e-010
-8.982529e-010
-9.795847e-010
-9.976996e-010
-9.557403e-010
-8.621596e-010
-7.288558e-010
-5.693680e-010
-3.972749e-010
-2.249389e-010
-6.269748e-011
8.146756e-011
2.018583e-010
2.947300e-010
3.578436e-010
3.900500e-010
3.909807e-010
3.608947e-010
3.006895e-010
2.120600e-010
9.777462e-011
-3.799564e-011
-1.893517e-010
-3.484494e-010
-5.054781e-010
-6.489351e-010
-7.662720e-010
-8.449542e-010
-8.739444e-010
-8.455348e-010
-7.573626e-010
-6.142574e-010
-4.293908e-010
-2.240886e-010
-2.575719e-011
1.362605e-010
2.365081e-010
2.598806e-010
2.071607e-010
9.775004e-011
-3.222565e-011
-1.376142e-010
-1.772983e-010
-1.296196e-010
-4.451798e-012
1.548359e-010
2.838065e-010
3.218176e-010
2.398867e-010
5.800605e-011
-1.586704e-010
-3.254721e-010
-3.747068e-010
-2.855783e-010
-9.315967e-011
1.271365e-010
2.912243e-010
3.394315e-010
2.578731e-010
8.167832e-011
-1.192343e-010
-2.662583e-010
-3.017247e-010
-2.120876e-010
-3.509380e-011
1.541524e-010
2.745236e-010
-3.706669e-009
-2.683353e-009
-1.043157e-009
5.821196e-010
1.608398e-009
1.735075e-009
1.041509e-009
-8.317782e-011
-1.126702e-009
-1.664356e-009
-1.508068e-009
-7.485025e-010
3.069295e-010
1.262602e-009
1.778330e-009
1.680752e-009
1.010661e-009
-3.378646e-012
-1.031090e-009
-1.753336e-009
-1.961714e-009
-1.612741e-009
-8.240624e-010
1.776873e-010
1.132613e-009
1.819136e-009
2.101483e-009
1.945783e-009
1.408719e-009
6.089954e-010
-3.070388e-010
-1.196580e-009
-1.943049e-009
-2.468421e-009
-2.736048e-009
-2.746312e-009
-2.528013e-009
-2.128144e-009
-1.602038e-009
-1.005160e-009
-3.871475e-010
2.117489e-010
7.620139e-010
1.244438e-009
1.648476e-009
1.969981e-009
2.208839e-009
2.366873e-009
2.446211e-009
2.448222e-009
2.373002e-009
2.219412e-009
1.985630e-009
1.670202e-009
1.273547e-009
7.998254e-010
2.590003e-010
-3.311828e-010
-9.436571e-010
-1.541402e-009
-2.078221e-009
-2.501414e-009
-2.756691e-009
-2.795417e-009
-2.583795e-009
-2.112976e-009
-1.408327e-009
-5.353577e-010
4.006367e-010
1.263940e-009
1.908218e-009
2.205594e-009
2.080142e-009
1.537201e-009
6.778512e-010
-3.107098e-010
-1.192430e-009
-1.741768e-009
-1.810187e-009
-1.378797e-009
-5.766522e-010
3.476111e-010
1.098796e-009
1.433800e-009
1.252793e-009
6.452228e-010
-1.362174e-010
-7.736318e-010
-1.019084e-009
-8.063261e-010
-2.803568e-010
2.778319e-010
5.978939e-010
5.601903e-010
2.492601e-010
-1.114124e-010
-3.034054e-010
-2.458160e-010
-3.254231e-011
1.469145e-010
-6.522592e-009
-4.586099e-009
-1.544548e-009
1.340972e-009
2.970714e-009
2.883670e-009
1.396969e-009
-6.255790e-010
-2.220251e-009
-2.746928e-009
-2.101731e-009
-6.656214e-010
9.328944e-010
2.100298e-009
2.483853e-009
2.044941e-009
1.011246e-009
-2.429180e-010
-1.333114e-009
-1.976266e-009
-2.053418e-009
-1.616619e-009
-8.472499e-010
1.512995e-011
7.480352e-010
1.202138e-009
1.324976e-009
1.152469e-009
7.790334e-010
3.210766e-010
-1.139257e-010
-4.465542e-010
-6.323960e-010
-6.599377e-010
-5.434038e-010
-3.138187e-010
-1.034056e-011
3.270642e-010
6.631226e-010
9.707543e-010
1.232596e-009
1.440785e-009
1.595433e-009
1.702355e-009
1.770599e-009
1.810235e-009
1.830646e-009
1.839388e-009
1.841525e-009
1.839306e-009
1.832065e-009
1.816269e-009
1.785739e-009
1.732094e-009
1.645510e-009
1.515881e-009
1.334402e-009
1.095531e-009
7.992050e-010
4.530053e-010
7.391882e-011
-3.107991e-010
-6.641793e-010
-9.420458e-010
-1.097925e-009
-1.090609e-009
-8.940965e-010
-5.087260e-010
2.903663e-011
6.419615e-010
1.216842e-009
1.621713e-009
1.735128e-009
1.482328e-009
8.684775e-010
-3.180154e-012
-9.390284e-010
-1.693796e-009
-2.036359e-009
-1.827687e-009
-1.086012e-009
-9.893254e-012
1.063337e-009
1.764950e-009
1.837500e-009
1.254283e-009
2.521284e-010
-7.552337e-010
-1.357266e-009
-1.337214e-009
-7.724022e-010
1.555413e-011
6.375822e-010
8.418558e-010
6.284069e-010
2.107821e-010
-1.418389e-010
-2.743245e-010
-2.173394e-010
-1.231810e-010
-4.962340e-009
-3.352294e-009
-8.843223e-010
1.330318e-009
2.385520e-009
2.005807e-009
6.164354e-010
-9.473178e-010
-1.900279e-009
-1.876362e-009
-1.030355e-009
1.338087e-010
1.069450e-009
1.446747e-009
1.248329e-009
6.956574e-010
8.737086e-011
-3.491191e-010
-5.293626e-010
-5.006513e-010
-3.812001e-010
-2.915029e-010
-3.057869e-010
-4.325639e-010
-6.206740e-010
-7.824551e-010
-8.248557e-010
-6.793552e-010
-3.224208e-010
2.187773e-010
8.756102e-010
1.557317e-009
2.172840e-009
2.648355e-009
2.936913e-009
3.020224e-009
2.904958e-009
2.616416e-009
2.191763e-009
1.673897e-009
1.106335e-009
5.292282e-010
-2.341911e-011
-5.252311e-010
-9.576703e-010
-1.309187e-009
-1.573690e-009
-1.748785e-009
-1.834185e-009
-1.830565e-009
-1.739013e-009
-1.561089e-009
-1.299427e-009
-9.587549e-010
-5.471844e-010
-7.754888e-011
4.314388e-010
9.545072e-010
1.459913e-009
1.910586e-009
2.266561e-009
2.488880e-009
2.544968e-009
2.415231e-009
2.100041e-009
1.625521e-009
1.045840e-009
4.395616e-010
-1.014894e-010
-4.902878e-010
-6.663284e-010
-6.152816e-010
-3.797789e-010
-5.535214e-011
2.314513e-010
3.606371e-010
2.631577e-010
-4.337907e-011
-4.460973e-010
-7.684180e-010
-8.392410e-010
-5.756587e-010
-3.932519e-011
5.701915e-010
9.945888e-010
1.037723e-009
6.674626e-010
4.036575e-011
-5.699905e-010
-9.057319e-010
-8.469963e-010
-4.586174e-010
5.879536e-011
4.783903e-010
6.523588e-010
5.597633e-010
2.848575e-010
-4.522269e-011
-3.194506e-010
-4.702007e-010
1.436071e-010
3.204062e-010
5.091550e-010
5.001119e-010
1.977530e-010
-2.901472e-010
-6.991356e-010
-7.674599e-010
-4.086927e-010
2.152552e-010
7.729540e-010
9.502309e-010
6.322295e-010
-2.864021e-011
-6.966581e-010
-1.034864e-009
-8.784095e-010
-3.068875e-010
4.110189e-010
9.562872e-010
1.102596e-009
7.979942e-010
1.627199e-010
-5.768373e-010
-1.177431e-009
-1.454670e-009
-1.325311e-009
-8.136319e-010
-2.996956e-011
8.665500e-010
1.709125e-009
2.358203e-009
2.723482e-009
2.770672e-009
2.515200e-009
2.008053e-009
1.319508e-009
5.249633e-010
-3.052727e-010
-1.112285e-009
-1.851774e-009
-2.495005e-009
-3.027967e-009
-3.449082e-009
-3.765872e-009
-3.991170e-009
-4.139471e-009
-4.223917e-009
-4.254172e-009
-4.235197e-009
-4.166857e-009
-4.044196e-009
-3.858311e-009
-3.597796e-009
-3.250744e-009
-2.807290e-009
-2.262591e-009
-1.620019e-009
-8.942336e-010
-1.136912e-010
6.779975e-010
1.422570e-009
2.050357e-009
2.487156e-009
2.665216e-009
2.537789e-009
2.095134e-009
1.378033e-009
4.837820e-010
-4.402974e-010
-1.218787e-009
-1.684740e-009
-1.724798e-009
-1.321098e-009
-5.742291e-010
3.076420e-010
1.059979e-009
1.444335e-009
1.335625e-009
7.780717e-010
-1.989471e-011
-7.581170e-010
-1.160042e-009
-1.083908e-009
-5.815126e-010
1.223953e-010
7.233480e-010
9.658204e-010
7.546468e-010
2.008823e-010
-4.231489e-010
-8.081662e-010
-7.606478e-010
-3.090531e-010
3.001700e-010
7.285362e-010
7.338774e-010
3.143567e-010
-2.835743e-010
-7.070464e-010
5.639689e-009
4.110591e-009
1.673953e-009
-7.214298e-010
-2.229225e-009
-2.450513e-009
-1.540317e-009
-6.243273e-011
1.298269e-009
2.016074e-009
1.888575e-009
1.052635e-009
-1.177815e-010
-1.174383e-009
-1.758733e-009
-1.717971e-009
-1.137956e-009
-2.857422e-010
5.126935e-010
1.005863e-009
1.103781e-009
8.859533e-010
5.377893e-010
2.548660e-010
1.619325e-010
2.768703e-010
5.230730e-010
7.729807e-010
8.988215e-010
8.119081e-010
4.819678e-010
-6.321795e-011
-7.524808e-010
-1.492995e-009
-2.192083e-009
-2.773860e-009
-3.188184e-009
-3.412243e-009
-3.447091e-009
-3.311958e-009
-3.038401e-009
-2.665187e-009
-2.233950e-009
-1.785481e-009
-1.356654e-009
-9.782185e-010
-6.736447e-010
-4.589571e-010
-3.432685e-010
-3.295622e-010
-4.153471e-010
-5.929633e-010
-8.495418e-010
-1.166774e-009
-1.520765e-009
-1.882269e-009
-2.217558e-009
-2.490144e-009
-2.663484e-009
-2.704755e-009
-2.589699e-009
-2.308317e-009
-1.870747e-009
-1.311963e-009
-6.932401e-010
-9.800925e-011
3.796994e-010
6.543218e-010
6.726539e-010
4.366640e-010
1.678022e-011
-4.530962e-010
-8.041197e-010
-8.820884e-010
-6.053394e-010
-9.758604e-012
7.414922e-010
1.396597e-009
1.697028e-009
1.477869e-009
7.487612e-010
-2.814927e-010
-1.257879e-009
-1.803417e-009
-1.676378e-009
-8.965369e-010
2.276323e-010
1.208430e-009
1.598610e-009
1.223334e-009
2.936059e-010
-6.862511e-010
-1.190860e-009
-9.782178e-010
-2.360148e-010
5.371213e-010
8.526840e-010
5.493083e-010
-1.095029e-010
-6.277006e-010
8.071187e-009
5.602969e-009
1.808232e-009
-1.641687e-009
-3.405566e-009
-3.087548e-009
-1.295516e-009
8.183696e-010
2.209686e-009
2.407860e-009
1.593607e-009
3.410488e-010
-7.555403e-010
-1.350330e-009
-1.411245e-009
-1.119809e-009
-7.121770e-010
-3.555031e-010
-9.968053e-011
1.039458e-010
3.467330e-010
6.996734e-010
1.165848e-009
1.663517e-009
2.045419e-009
2.147177e-009
1.845928e-009
1.106132e-009
-4.059886e-012
-1.329256e-009
-2.666718e-009
-3.813940e-009
-4.609114e-009
-4.955426e-009
-4.826964e-009
-4.259406e-009
-3.331653e-009
-2.145046e-009
-8.053303e-010
5.899850e-010
1.958698e-009
3.236765e-009
4.378539e-009
5.355509e-009
6.153988e-009
6.771879e-009
7.214779e-009
7.491911e-009
7.612530e-009
7.583358e-009
7.407354e-009
7.083860e-009
6.609945e-009
5.982705e-009
5.202204e-009
4.274787e-009
3.216430e-009
2.055809e-009
8.366668e-010
-3.811032e-010
-1.522449e-009
-2.501285e-009
-3.228801e-009
-3.626446e-009
-3.642705e-009
-3.270741e-009
-2.561814e-009
-1.628309e-009
-6.311529e-010
2.498381e-010
8.581760e-010
1.104612e-009
9.978605e-010
6.482458e-010
2.373124e-010
-4.211564e-011
-5.857715e-011
1.985332e-010
6.000184e-010
9.168796e-010
9.168353e-010
4.859809e-010
-2.811679e-010
-1.083332e-009
-1.532454e-009
-1.353477e-009
-5.616679e-010
4.991520e-010
1.310699e-009
1.462000e-009
8.954546e-010
-4.723904e-011
-8.270591e-010
-1.038830e-009
-6.545304e-010
-1.266614e-011
4.373085e-010
4.509962e-010
1.375020e-010
-1.616031e-010
5.827755e-009
3.811190e-009
8.157804e-010
-1.689245e-009
-2.631773e-009
-1.878631e-009
-1.898486e-010
1.328324e-009
1.886815e-009
1.385577e-009
3.226859e-010
-6.208081e-010
-1.009555e-009
-8.385065e-010
-4.188336e-010
-1.040943e-010
-5.929827e-011
-1.999988e-010
-2.958595e-010
-1.398244e-010
3.256041e-010
9.801369e-010
1.585827e-009
1.888630e-009
1.712601e-009
1.016490e-009
-9.634519e-011
-1.408921e-009
-2.648381e-009
-3.552579e-009
-3.927597e-009
-3.682627e-009
-2.836453e-009
-1.498481e-009
1.662085e-010
1.975798e-009
3.764408e-009
5.402649e-009
6.805285e-009
7.929053e-009
8.765233e-009
9.330903e-009
9.661017e-009
9.801737e-009
9.804577e-009
9.720972e-009
9.597354e-009
9.471117e-009
9.367889e-009
9.300205e-009
9.267402e-009
9.256413e-009
9.243170e-009
9.194526e-009
9.070719e-009
8.828517e-009
8.425179e-009
7.823333e-009
6.996843e-009
5.937645e-009
4.663187e-009
3.223339e-009
1.704540e-009
2.279679e-010
-1.061514e-009
-2.017199e-009
-2.521246e-009
-2.517986e-009
-2.040073e-009
-1.216900e-009
-2.575298e-010
5.931681e-010
1.117934e-009
1.194018e-009
8.412064e-010
2.281627e-010
-3.769099e-010
-7.055432e-010
-6.062442e-010
-1.270560e-010
4.877172e-010
9.042030e-010
8.701406e-010
3.628970e-010
-3.773199e-010
-9.645612e-010
-1.079498e-009
-6.545323e-010
8.383094e-011
7.455556e-010
1.000751e-009
7.576344e-010
1.899560e-010
-3.889088e-010
-7.114264e-010
-6.823294e-010
-3.841279e-010
1.163491e-011
3.474855e-010
5.317745e-010
6.550689e-011
-2.756560e-010
-6.719269e-010
-7.594782e-010
-3.671428e-010
3.420052e-010
9.605792e-010
1.099949e-009
6.469787e-010
-1.603101e-010
-8.858254e-010
-1.167261e-009
-9.213913e-010
-3.546998e-010
2.070536e-010
5.368052e-010
6.222219e-010
6.181446e-010
6.915437e-010
8.781753e-010
1.044807e-009
9.695737e-010
4.788821e-010
-4.430113e-010
-1.625262e-009
-2.764418e-009
-3.524710e-009
-3.638557e-009
-2.974350e-009
-1.559285e-009
4.385214e-010
2.755932e-009
5.093621e-009
7.173528e-009
8.783207e-009
9.799708e-009
1.019141e-008
1.000213e-008
9.325877e-009
8.281022e-009
6.990324e-009
5.568865e-009
4.118601e-009
2.726680e-009
1.465106e-009
3.906736e-010
-4.548176e-010
-1.043716e-009
-1.360993e-009
-1.402425e-009
-1.173070e-009
-6.865009e-010
3.506426e-011
9.599159e-010
2.045655e-009
3.238041e-009
4.470225e-009
5.662690e-009
6.724489e-009
7.556783e-009
8.060149e-009
8.146922e-009
7.758512e-009
6.885145e-009
5.582703e-009
3.979672e-009
2.268016e-009
6.751936e-010
-5.800488e-010
-1.339575e-009
-1.551846e-009
-1.295723e-009
-7.676632e-010
-2.265389e-010
9.392184e-011
7.635767e-011
-2.258381e-010
-6.053542e-010
-7.950629e-010
-6.045804e-010
-3.333600e-011
7.046032e-010
1.268852e-009
1.358799e-009
8.755592e-010
-6.470119e-012
-9.025751e-010
-1.392888e-009
-1.229955e-009
-4.771200e-010
4.996782e-010
1.200017e-009
1.248028e-009
6.103548e-010
-3.600080e-010
-1.104926e-009
-1.183710e-009
-5.478290e-010
4.144412e-010
1.109676e-009
-6.062044e-009
-4.378597e-009
-1.764196e-009
6.904876e-010
2.119401e-009
2.252809e-009
1.416179e-009
2.295889e-010
-7.560893e-010
-1.271919e-009
-1.328531e-009
-1.079572e-009
-6.782530e-010
-2.067060e-010
3.159513e-010
8.832188e-010
1.447482e-009
1.889382e-009
2.027389e-009
1.674862e-009
7.316806e-010
-7.281537e-010
-2.422733e-009
-3.913404e-009
-4.730324e-009
-4.522775e-009
-3.172503e-009
-8.286606e-010
2.139656e-009
5.245240e-009
7.998337e-009
1.000205e-008
1.100975e-008
1.094185e-008
9.868583e-009
7.969823e-009
5.484072e-009
2.659121e-009
-2.855608e-010
-3.179147e-009
-5.902915e-009
-8.382194e-009
-1.057389e-008
-1.245516e-008
-1.401563e-008
-1.525275e-008
-1.616886e-008
-1.676867e-008
-1.705721e-008
-1.703831e-008
-1.671403e-008
-1.608530e-008
-1.515312e-008
-1.392025e-008
-1.239311e-008
-1.058386e-008
-8.513301e-009
-6.215166e-009
-3.742277e-009
-1.174116e-009
1.376303e-009
3.760189e-009
5.799928e-009
7.308558e-009
8.121463e-009
8.135370e-009
7.345453e-009
5.868986e-009
3.944336e-009
1.897871e-009
7.932911e-011
-1.222114e-009
-1.856756e-009
-1.857906e-009
-1.426361e-009
-8.529256e-010
-4.039891e-010
-2.163678e-010
-2.493952e-010
-3.207050e-010
-2.153194e-010
1.789322e-010
7.769187e-010
1.302232e-009
1.413593e-009
9.075952e-010
-1.079462e-010
-1.193143e-009
-1.768973e-009
-1.454070e-009
-3.485173e-010
9.502960e-010
1.670510e-009
1.359294e-009
2.160062e-010
-1.001022e-009
-1.473811e-009
-8.978287e-010
2.912248e-010
1.223378e-009
-9.267679e-009
-6.308147e-009
-1.895471e-009
1.875038e-009
3.526868e-009
2.911556e-009
1.032210e-009
-7.738888e-010
-1.663421e-009
-1.601136e-009
-1.082667e-009
-6.027026e-010
-2.990338e-010
2.336238e-011
6.001412e-010
1.422844e-009
2.172022e-009
2.387841e-009
1.741290e-009
2.366422e-010
-1.751703e-009
-3.603669e-009
-4.667724e-009
-4.476666e-009
-2.894686e-009
-1.575705e-010
3.196836e-009
6.478295e-009
9.022149e-009
1.034007e-008
1.020437e-008
8.654992e-009
5.944251e-009
2.448392e-009
-1.425214e-009
-5.314697e-009
-8.953281e-009
-1.218865e-008
-1.497466e-008
-1.734313e-008
-1.936673e-008
-2.112467e-008
-2.267903e-008
-2.406438e-008
-2.528790e-008
-2.633539e-008
-2.717921e-008
-2.778594e-008
-2.812337e-008
-2.816653e-008
-2.790243e-008
-2.733266e-008
-2.647288e-008
-2.534920e-008
-2.399178e-008
-2.242668e-008
-2.066788e-008
-1.871161e-008
-1.653617e-008
-1.410979e-008
-1.140787e-008
-8.437255e-009
-5.261775e-009
-2.020047e-009
1.073377e-009
3.749724e-009
5.731283e-009
6.793959e-009
6.833259e-009
5.913867e-009
4.281802e-009
2.325124e-009
4.848757e-010
-8.621829e-010
-1.511583e-009
-1.488734e-009
-1.027396e-009
-4.672136e-010
-1.030729e-010
-4.911041e-011
-1.890910e-010
-2.563871e-010
-1.984418e-011
5.254418e-010
1.096969e-009
1.271416e-009
7.799404e-010
-2.406201e-010
-1.249547e-009
-1.614132e-009
-1.051330e-009
1.226515e-010
1.159538e-009
1.387019e-009
6.978888e-010
-3.627165e-010
-1.004539e-009
-7.941077e-010
2.044599e-011
7.249817e-010
-7.919097e-009
-5.149826e-009
-1.118928e-009
2.122438e-009
3.224473e-009
2.218487e-009
2.460189e-010
-1.349413e-009
-1.858377e-009
-1.427233e-009
-6.567934e-010
-1.761121e-011
4.381566e-010
9.173052e-010
1.510678e-009
1.969257e-009
1.823944e-009
7.450423e-010
-1.139318e-009
-3.196053e-009
-4.540809e-009
-4.435132e-009
-2.611739e-009
6.142976e-010
4.463659e-009
7.956891e-009
1.020746e-008
1.064693e-008
9.130346e-009
5.915479e-009
1.544881e-009
-3.320654e-009
-8.065480e-009
-1.223999e-008
-1.562042e-008
-1.820896e-008
-2.018828e-008
-2.184909e-008
-2.350949e-008
-2.544221e-008
-2.782269e-008
-3.070477e-008
-3.402328e-008
-3.761627e-008
-4.125705e-008
-4.468784e-008
-4.765055e-008
-4.991371e-008
-5.129528e-008
-5.168094e-008
-5.103595e-008
-4.940907e-008
-4.692730e-008
-4.378196e-008
-4.020711e-008
-3.645238e-008
-3.275205e-008
-2.929320e-008
-2.618701e-008
-2.344932e-008
-2.099727e-008
-1.866737e-008
-1.625554e-008
-1.357346e-008
-1.050977e-008
-7.080937e-009
-3.456121e-009
5.634042e-011
3.065807e-009
5.192650e-009
6.177135e-009
5.971665e-009
4.781326e-009
3.027585e-009
1.233053e-009
-1.428092e-010
-8.573428e-010
-9.567328e-010
-7.192106e-010
-4.827955e-010
-4.433916e-010
-5.454698e-010
-5.471420e-010
-2.305100e-010
3.855170e-010
9.977926e-010
1.200088e-009
7.816446e-010
-7.929157e-011
-8.938256e-010
-1.180097e-009
-7.942956e-010
-2.412283e-011
6.286554e-010
8.067979e-010
5.195049e-010
6.940582e-011
-2.275391e-010
-2.795620e-010
-2.231658e-010
-2.775051e-009
-1.613347e-009
3.762859e-011
1.268786e-009
1.495833e-009
7.640266e-010
-3.748401e-010
-1.267456e-009
-1.528107e-009
-1.142565e-009
-3.236742e-010
6.808351e-010
1.649928e-009
2.321077e-009
2.347357e-009
1.419080e-009
-4.784406e-010
-2.863108e-009
-4.811563e-009
-5.312150e-009
-3.748035e-009
-2.447127e-010
4.309108e-009
8.573407e-009
1.123947e-008
1.146287e-008
9.085734e-009
4.604885e-009
-1.054573e-009
-6.850197e-009
-1.191129e-008
-1.573460e-008
-1.825878e-008
-1.982720e-008
-2.107229e-008
-2.276247e-008
-2.564817e-008
-3.033235e-008
-3.718009e-008
-4.627366e-008
-5.741233e-008
-7.014976e-008
-8.385586e-008
-9.778799e-008
-1.111597e-007
-1.232011e-007
-1.332110e-007
-1.406016e-007
-1.449371e-007
-1.459637e-007
-1.436272e-007
-1.380773e-007
-1.296562e-007
-1.188742e-007
-1.063735e-007
-9.288342e-008
-7.916703e-008
-6.596142e-008
-5.391269e-008
-4.351118e-008
-3.503630e-008
-2.852318e-008
-2.376222e-008
-2.033782e-008
-1.770531e-008
-1.529710e-008
-1.264161e-008
-9.471810e-009
-5.795462e-009
-1.901009e-009
1.715998e-009
4.498972e-009
6.013749e-009
6.110061e-009
4.995032e-009
3.175565e-009
1.278517e-009
-1.803201e-010
-9.705972e-010
-1.176740e-009
-1.070362e-009
-9.065849e-010
-7.725767e-010
-5.809486e-010
-2.009870e-010
3.752282e-010
9.590783e-010
1.246799e-009
1.010695e-009
2.762380e-010
-6.382436e-010
-1.264019e-009
-1.240579e-009
-5.439763e-010
4.622703e-010
1.209675e-009
1.254186e-009
5.571317e-010
-4.702855e-010
-1.207292e-009
3.593101e-009
2.515671e-009
9.791900e-010
-2.372370e-010
-7.352754e-010
-6.939777e-010
-5.943101e-010
-7.344916e-010
-9.512188e-010
-7.700987e-010
1.458010e-010
1.608411e-009
2.882560e-009
3.068444e-009
1.657491e-009
-1.073913e-009
-4.069635e-009
-5.915279e-009
-5.479029e-009
-2.467080e-009
2.370307e-009
7.481324e-009
1.109475e-008
1.188253e-008
9.422434e-009
4.290139e-009
-2.217091e-009
-8.577183e-009
-1.355638e-008
-1.657129e-008
-1.782165e-008
-1.820627e-008
-1.909235e-008
-2.202626e-008
-2.845986e-008
-3.953798e-008
-5.596323e-008
-7.793472e-008
-1.051485e-007
-1.368462e-007
-1.718995e-007
-2.089136e-007
-2.463366e-007
-2.825601e-007
-3.160070e-007
-3.452077e-007
-3.688676e-007
-3.859306e-007
-3.956330e-007
-3.975446e-007
-3.915922e-007
-3.780623e-007
-3.575850e-007
-3.310999e-007
-2.998086e-007
-2.651144e-007
-2.285532e-007
-1.917134e-007
-1.561445e-007
-1.232565e-007
-9.421415e-008
-6.983901e-008
-5.053386e-008
-3.624458e-008
-2.647128e-008
-2.033604e-008
-1.670999e-008
-1.439228e-008
-1.231880e-008
-9.760043e-009
-6.454625e-009
-2.628609e-009
1.123843e-009
4.077419e-009
5.659251e-009
5.677019e-009
4.398509e-009
2.444458e-009
5.377223e-010
-7.788797e-010
-1.324217e-009
-1.274339e-009
-9.809553e-010
-7.207377e-010
-5.308378e-010
-2.429578e-010
2.998120e-010
1.003941e-009
1.477379e-009
1.271574e-009
2.771699e-010
-1.045416e-009
-1.862211e-009
-1.535605e-009
-1.657495e-010
1.365033e-009
1.971795e-009
1.181110e-009
-4.618235e-010
-1.760485e-009
8.221228e-009
5.380279e-009
1.395784e-009
-1.588541e-009
-2.461637e-009
-1.690099e-009
-6.044856e-010
-1.538113e-010
-2.161402e-010
2.672655e-011
1.093059e-009
2.517650e-009
3.086089e-009
1.794913e-009
-1.233694e-009
-4.591875e-009
-6.312048e-009
-4.999715e-009
-6.703538e-010
5.171944e-009
1.020590e-008
1.232040e-008
1.048753e-008
5.117816e-009
-2.188734e-009
-9.325692e-009
-1.449210e-008
-1.683652e-008
-1.675220e-008
-1.579515e-008
-1.632170e-008
-2.100088e-008
-3.234856e-008
-5.237880e-008
-8.240372e-008
-1.229640e-007
-1.738479e-007
-2.341589e-007
-3.024070e-007
-3.766151e-007
-4.544377e-007
-5.332877e-007
-6.104624e-007
-6.832632e-007
-7.491058e-007
-8.056249e-007
-8.507717e-007
-8.829023e-007
-9.008479e-007
-9.039619e-007
-8.921429e-007
-8.658350e-007
-8.260096e-007
-7.741288e-007
-7.120906e-007
-6.421553e-007
-5.668549e-007
-4.888868e-007
-4.109938e-007
-3.358306e-007
-2.658221e-007
-2.030219e-007
-1.489828e-007
-1.046528e-007
-7.030424e-008
-4.550641e-008
-2.915757e-008
-1.959388e-008
-1.478933e-008
-1.263941e-008
-1.129007e-008
-9.441773e-009
-6.542911e-009
-2.798949e-009
1.030132e-009
4.000343e-009
5.404400e-009
5.082754e-009
3.487390e-009
1.458300e-009
-1.849322e-010
-1.019161e-009
-1.140988e-009
-9.611677e-010
-8.186277e-010
-7.112870e-010
-3.709938e-010
3.688928e-010
1.246710e-009
1.640016e-009
1.059934e-009
-3.192914e-010
-1.616314e-009
-1.846414e-009
-7.434921e-010
9.161140e-010
1.854786e-009
1.321033e-009
-2.575576e-010
-1.592382e-009
9.189968e-009
5.921284e-009
1.343548e-009
-2.082775e-009
-3.088157e-009
-2.167289e-009
-7.311281e-010
2.363932e-010
7.871186e-010
1.470904e-009
2.347934e-009
2.618637e-009
1.291492e-009
-1.701630e-009
-4.982332e-009
-6.360893e-009
-4.250713e-009
1.137775e-009
7.665758e-009
1.229562e-008
1.263908e-008
8.130552e-009
2.419316e-010
-8.270009e-009
-1.462899e-008
-1.722354e-008
-1.627794e-008
-1.387579e-008
-1.346608e-008
-1.911668e-008
-3.477955e-008
-6.374431e-008
-1.083418e-007
-1.698641e-007
-2.486175e-007
-3.440187e-007
-4.546768e-007
-5.784470e-007
-7.124802e-007
-8.533033e-007
-9.969533e-007
-1.139163e-006
-1.275578e-006
-1.401972e-006
-1.514445e-006
-1.609583e-006
-1.684581e-006
-1.737306e-006
-1.766320e-006
-1.770869e-006
-1.750860e-006
-1.706846e-006
-1.640031e-006
-1.552280e-006
-1.446118e-006
-1.324702e-006
-1.191743e-006
-1.051377e-006
-9.079885e-007
-7.659876e-007
-6.295765e-007
-5.025141e-007
-3.879182e-007
-2.881214e-007
-2.045823e-007
-1.378404e-007
-8.750123e-008
-5.225558e-008
-2.995329e-008
-1.776902e-008
-1.248688e-008
-1.090292e-008
-1.029440e-008
-8.848682e-009
-5.909156e-009
-1.913106e-009
2.010908e-009
4.669565e-009
5.403274e-009
4.377192e-009
2.420940e-009
5.247150e-010
-6.852105e-010
-1.156102e-009
-1.200275e-009
-1.087755e-009
-8.106841e-010
-2.203258e-010
6.273633e-010
1.309884e-009
1.300053e-009
4.643347e-010
-6.869997e-010
-1.318593e-009
-9.524762e-010
8.820682e-011
9.217478e-010
8.679602e-010
4.945735e-011
-7.295952e-010
6.389583e-009
4.217328e-009
1.068031e-009
-1.517786e-009
-2.622369e-009
-2.275962e-009
-1.045460e-009
5.360865e-010
2.106787e-009
3.189844e-009
3.039244e-009
1.062974e-009
-2.401300e-009
-5.726560e-009
-6.643217e-009
-3.672481e-009
2.619635e-009
9.530153e-009
1.350878e-008
1.209331e-008
5.313810e-009
-4.260586e-009
-1.282412e-008
-1.724489e-008
-1.663084e-008
-1.292462e-008
-1.046497e-008
-1.490287e-008
-3.200990e-008
-6.678812e-008
-1.230366e-007
-2.033024e-007
-3.090263e-007
-4.406903e-007
-5.978460e-007
-7.790038e-007
-9.814490e-007
-1.201102e-006
-1.432538e-006
-1.669227e-006
-1.903987e-006
-2.129556e-006
-2.339170e-006
-2.527047e-006
-2.688677e-006
-2.820921e-006
-2.921898e-006
-2.990733e-006
-3.027203e-006
-3.031412e-006
-3.003556e-006
-2.943846e-006
-2.852622e-006
-2.730610e-006
-2.579253e-006
-2.401033e-006
-2.199696e-006
-1.980295e-006
-1.749048e-006
-1.512976e-006
-1.279388e-006
-1.055290e-006
-8.468245e-007
-6.588577e-007
-4.947612e-007
-3.563930e-007
-2.442140e-007
-1.574577e-007
-9.428318e-008
-5.188631e-008
-2.660896e-008
-1.413020e-008
-9.830434e-009
-9.354516e-009
-9.277674e-009
-7.654303e-009
-4.191686e-009
9.873049e-011
3.682807e-009
5.386910e-009
4.967165e-009
3.107990e-009
9.220469e-010
-6.874090e-010
-1.396697e-009
-1.393897e-009
-1.034093e-009
-5.455627e-010
4.097910e-012
5.490913e-010
9.117776e-010
8.872738e-010
4.424005e-010
-1.930039e-010
-6.622227e-010
-7.341981e-010
-4.454543e-010
-2.024302e-011
3.250064e-010
4.987559e-010
1.360953e-009
1.250232e-009
7.541289e-010
-2.893198e-010
-1.524299e-009
-2.096405e-009
-1.225741e-009
1.026285e-009
3.439103e-009
4.196106e-009
2.127123e-009
-2.187033e-009
-6.348829e-009
-7.400646e-009
-3.742494e-009
3.536552e-009
1.090404e-008