# vtk DataFile Version 3.0
vtk output
ASCII
DATASET STRUCTURED_POINTS
DIMENSIONS 100 100 1
SPACING 1 1 1
ORIGIN 0 0 0
POINT_DATA 10000
SCALARS SFBox_profile double
LOOKUP_TABLE default 
0.000000e+000
0.000000e+000
0.000000e+000
0.000000e+000
0.000000e+000
0.000000e+000
0.000000e+000
0.000000e+000
0.000000e+000
0.000000e+000
0.000000e+000
0.000000e+000
0.000000e+000
0.000000e+000
0.000000e+000
0.000000e+000
0.000000e+000
0.000000e+000
0.000000e+000
0.000000e+000
0.000000e+000
0.000000e+000
0.000000e+000
0.000000e+000
0.000000e+000
0.000000e+000
0.000000e+000
0.000000e+000
0.000000e+000
0.000000e+000
0.000000e+000
0.000000e+000
0.000000e+000
0.000000e+000
0.000000e+000
0.000000e+000
0.000000e+000
0.000000e+000
0.000000e+000
0.000000e+000
0.000000e+000
0.000000e+000
0.000000e+000
0.000000e+000
0.000000e+000
0.000000e+000
0.000000e+000
0.000000e+000
0.000000e+000
0.000000e+000
0.000000e+000
0.000000e+000
0.000000e+000
0.000000e+000
0.000000e+000
0.000000e+000
0.000000e+000
0.000000e+000
0.000000e+000
0.000000e+000
0.000000e+000
0.000000e+000
0.000000e+000
0.000000e+000
0.000000e+000
0.000000e+000
0.000000e+000
0.000000e+000
0.000000e+000
0.000000e+000
0.000000e+000
0.000000e+000
0.000000e+000
0.000000e+000
0.000000e+000
0.000000e+000
0.000000e+000
0.000000e+000
0.000000e+000
0.000000e+000
0.000000e+000
0.000000e+000
0.000000e+000
0.000000e+000
0.000000e+000
0.000000e+000
0.000000e+000
0.000000e+000
0.000000e+000
0.000000e+000
0.000000e+000
0.000000e+000
0.000000e+000
0.000000e+000
0.000000e+000
0.000000e+000
0.000000e+000
0.000000e+000
0.000000e+000
0.000000e+000
1.262833e-009
1.313367e-009
1.328285e-009
1.485748e-009
2.166460e-009
3.415113e-009
4.761404e-009
5.685041e-009
5.929549e-009
5.058568e-009
1.719883e-009
-6.658376e-009
-2.377379e-008
-5.448242e-008
-1.051039e-007
-1.836215e-007
-2.994163e-007
-4.625177e-007
-6.825196e-007
-9.672810e-007
-1.321536e-006
-1.745669e-006
-2.234987e-006
-2.779734e-006
-3.365887e-006
-3.976580e-006
-4.593853e-006
-5.200381e-006
-5.780913e-006
-6.323221e-006
-6.818546e-006
-7.261599e-006
-7.650228e-006
-7.984900e-006
-8.268113e-006
-8.503803e-006
-8.696772e-006
-8.852182e-006
-8.975143e-006
-9.070389e-006
-9.142036e-006
-9.193421e-006
-9.227078e-006
-9.244801e-006
-9.247758e-006
-9.236584e-006
-9.211512e-006
-9.172541e-006
-9.119629e-006
-9.052835e-006
-8.972449e-006
-8.879121e-006
-8.774011e-006
-8.658891e-006
-8.536211e-006
-8.409120e-006
-8.281457e-006
-8.157674e-006
-8.042701e-006
-7.941727e-006
-7.859908e-006
-7.802000e-006
-7.771916e-006
-7.772228e-006
-7.803615e-006
-7.864283e-006
-7.949412e-006
-8.050692e-006
-8.156031e-006
-8.249526e-006
-8.311843e-006
-8.321145e-006
-8.254687e-006
-8.091131e-006
-7.813410e-006
-7.411807e-006
-6.886673e-006
-6.250121e-006
-5.526057e-006
-4.748156e-006
-3.955896e-006
-3.189278e-006
-2.483465e-006
-1.864594e-006
-1.347594e-006
-9.360168e-007
-6.235623e-007
-3.969971e-007
-2.399369e-007
-1.362329e-007
-7.163011e-008
-3.385515e-008
-1.277592e-008
-1.420951e-009
3.640955e-009
4.064645e-009
2.164951e-009
9.953505e-010
1.971882e-009
3.596086e-009
4.325009e-010
1.220720e-009
1.990397e-009
2.271585e-009
2.517065e-009
3.339563e-009
4.565125e-009
5.281135e-009
4.427973e-009
8.131282e-010
-7.601970e-009
-2.440918e-008
-5.501864e-008
-1.066986e-007
-1.886176e-007
-3.116887e-007
-4.878420e-007
-7.285685e-007
-1.042855e-006
-1.434834e-006
-1.901633e-006
-2.432066e-006
-3.006684e-006
-3.599393e-006
-4.180361e-006
-4.719576e-006
-5.190269e-006
-5.571547e-006
-5.849853e-006
-6.019227e-006
-6.080583e-006
-6.040381e-006
-5.909042e-006
-5.699403e-006
-5.425376e-006
-5.100857e-006
-4.738869e-006
-4.350923e-006
-3.946586e-006
-3.533250e-006
-3.116073e-006
-2.698071e-006
-2.280367e-006
-1.862561e-006
-1.443171e-006
-1.020059e-006
-5.908683e-007
-1.534622e-007
2.936597e-007
7.510172e-007
1.217871e-006
1.691977e-006
2.169388e-006
2.644319e-006
3.109116e-006
3.554283e-006
3.968590e-006
4.339259e-006
4.652262e-006
4.892699e-006
5.045294e-006
5.094990e-006
5.027668e-006
4.830990e-006
4.495379e-006
4.015153e-006
3.389783e-006
2.625255e-006
1.735433e-006
7.432794e-007
-3.183451e-007
-1.406658e-006
-2.470161e-006
-3.451450e-006
-4.291817e-006
-4.937467e-006
-5.346638e-006
-5.496439e-006
-5.387787e-006
-5.046901e-006
-4.522368e-006
-3.877926e-006
-3.182432e-006
-2.499382e-006
-1.878468e-006
-1.350891e-006
-9.290386e-007
-6.099647e-007
-3.810073e-007
-2.252693e-007
-1.252855e-007
-6.487467e-008
-3.032106e-008
-1.143530e-008
-1.817848e-009
2.194023e-009
3.051143e-009
2.694787e-009
2.325326e-009
2.224530e-009
-6.147282e-011
1.280116e-009
2.732273e-009
3.317632e-009
3.318652e-009
3.572301e-009
4.054871e-009
3.380660e-009
-6.906150e-010
-1.096073e-008
-3.144822e-008
-6.848375e-008
-1.314043e-007
-2.325839e-007
-3.869176e-007
-6.106220e-007
-9.188922e-007
-1.322127e-006
-1.821086e-006
-2.402099e-006
-3.033963e-006
-3.668063e-006
-4.242423e-006
-4.689177e-006
-4.943768e-006
-4.953694e-006
-4.684851e-006
-4.124418e-006
-3.280186e-006
-2.177146e-006
-8.525397e-007
6.494413e-007
2.282405e-006
4.001503e-006
5.766040e-006
7.541069e-006
9.298212e-006
1.101592e-005
1.267931e-005
1.427972e-005
1.581397e-005
1.728348e-005
1.869328e-005
2.005091e-005
2.136528e-005
2.264562e-005
2.390051e-005
2.513700e-005
2.635986e-005
2.757101e-005
2.876909e-005
2.994918e-005
3.110268e-005
3.221728e-005
3.327712e-005
3.426304e-005
3.515289e-005
3.592191e-005
3.654318e-005
3.698801e-005
3.722646e-005
3.722781e-005
3.696116e-005
3.639615e-005
3.550394e-005
3.425868e-005
3.263951e-005
3.063332e-005
2.823842e-005
2.546895e-005
2.235977e-005
1.897095e-005
1.539093e-005
1.173671e-005
8.149570e-006
4.785323e-006
1.798806e-006
-6.756565e-007
-2.544421e-006
-3.770526e-006
-4.380826e-006
-4.461307e-006
-4.140758e-006
-3.566620e-006
-2.879333e-006
-2.191978e-006
-1.579853e-006
-1.080693e-006
-7.024105e-007
-4.336888e-007
-2.537900e-007
-1.399777e-007
-7.203570e-008
-3.392064e-008
-1.362411e-008
-2.943019e-009
2.457449e-009
4.044481e-009
2.865786e-009
1.160743e-009
1.070522e-009
1.868045e-009
3.061876e-009
4.053143e-009
4.427665e-009
4.052694e-009
2.442316e-009
-2.210475e-009
-1.356585e-008
-3.728348e-008
-8.153508e-008
-1.580846e-007
-2.831734e-007
-4.772675e-007
-7.630781e-007
-1.161326e-006
-1.683671e-006
-2.322919e-006
-3.042370e-006
-3.768037e-006
-4.388019e-006
-4.761727e-006
-4.738316e-006
-4.180172e-006
-2.985376e-006
-1.103502e-006
1.458556e-006
4.640905e-006
8.342681e-006
1.243801e-005
1.679213e-005
2.127490e-005
2.577038e-005
3.018240e-005
3.443679e-005
3.848099e-005
4.228218e-005
4.582441e-005
4.910543e-005
5.213352e-005
5.492442e-005
5.749871e-005
5.987944e-005
6.209022e-005
6.415354e-005
6.608941e-005
6.791444e-005
6.964113e-005
7.127752e-005
7.282710e-005
7.428905e-005
7.565874e-005
7.692839e-005
7.808789e-005
7.912571e-005
8.002974e-005
8.078786e-005
8.138828e-005
8.181938e-005
8.206904e-005
8.212328e-005
8.196437e-005
8.156834e-005
8.090220e-005
7.992122e-005
7.856680e-005
7.676579e-005
7.443208e-005
7.147166e-005
6.779204e-005
6.331643e-005
5.800266e-005
5.186486e-005
4.499450e-005
3.757529e-005
2.988487e-005
2.227748e-005
1.514536e-005
8.863261e-006
3.727583e-006
-9.437781e-008
-2.590507e-006
-3.897222e-006
-4.261180e-006
-3.980736e-006
-3.345180e-006
-2.588872e-006
-1.869670e-006
-1.270604e-006
-8.166335e-007
-4.969740e-007
-2.854142e-007
-1.537956e-007
-7.748916e-008
-3.610530e-008
-1.410595e-008
-2.286751e-009
2.889757e-009
3.194745e-009
1.760747e-009
3.991356e-009
3.204239e-009
3.130260e-009
4.313005e-009
5.189801e-009
3.555513e-009
-2.326935e-009
-1.515005e-008
-4.093920e-008
-9.022813e-008
-1.783492e-007
-3.260582e-007
-5.599585e-007
-9.105378e-007
-1.405576e-006
-2.057442e-006
-2.844180e-006
-3.687301e-006
-4.433671e-006
-4.851895e-006
-4.651585e-006
-3.526289e-006
-1.210930e-006
2.462079e-006
7.524191e-006
1.385980e-005
2.122402e-005
2.928245e-005
3.766149e-005
4.599692e-005
5.397146e-005
6.133714e-005
6.792331e-005
7.363369e-005
7.843666e-005
8.235220e-005
8.543748e-005
8.777299e-005
8.945005e-005
9.056059e-005
9.118953e-005
9.140986e-005
9.128015e-005
9.084403e-005
9.013112e-005
8.915898e-005
8.793578e-005
8.646345e-005
8.474113e-005
8.276879e-005
8.055101e-005
7.810086e-005
7.544354e-005
7.261975e-005
6.968842e-005
6.672849e-005
6.383941e-005
6.113994e-005
5.876501e-005
5.686017e-005
5.557361e-005
5.504536e-005
5.539379e-005
5.669965e-005
5.898816e-005
6.221017e-005
6.622416e-005
7.078156e-005
7.551921e-005
7.996336e-005
8.355100e-005
8.567384e-005
8.574828e-005
8.330882e-005
7.811228e-005
7.022882e-005
6.008855e-005
4.845662e-005
3.632779e-005
2.475688e-005
1.466585e-005
6.681484e-006
1.050188e-006
-2.352051e-006
-3.926615e-006
-4.211977e-006
-3.744176e-006
-2.956985e-006
-2.138853e-006
-1.440210e-006
-9.104702e-007
-5.418127e-007
-3.033004e-007
-1.596971e-007
-7.899816e-008
-3.571969e-008
-1.294616e-008
-1.724625e-009
2.541566e-009
3.388985e-009
7.384564e-009
5.062575e-009
3.533636e-009
4.253743e-009
4.472586e-009
-2.947794e-010
-1.388229e-008
-4.148220e-008
-9.376279e-008
-1.890919e-007
-3.536682e-007
-6.211447e-007
-1.030485e-006
-1.617475e-006
-2.394909e-006
-3.319261e-006
-4.247842e-006
-4.900137e-006
-4.845999e-006
-3.543207e-006
-4.322960e-007
4.928133e-006
1.272328e-005
2.278582e-005
3.457360e-005
4.723045e-005
5.971593e-005
7.096775e-005
8.005349e-005
8.627891e-005
8.923755e-005
8.880558e-005
8.509828e-005
7.840856e-005
6.914352e-005
5.776769e-005
4.475552e-005
3.055356e-005
1.555231e-005
6.785594e-008
-1.566676e-005
-3.150145e-005
-4.736176e-005
-6.323627e-005
-7.916109e-005
-9.520284e-005
-1.114415e-004
-1.279541e-004
-1.447988e-004
-1.620016e-004
-1.795430e-004
-1.973475e-004
-2.152744e-004
-2.331110e-004
-2.505684e-004
-2.672803e-004
-2.828056e-004
-2.966346e-004
-3.081991e-004
-3.168875e-004
-3.220644e-004
-3.230958e-004
-3.193807e-004
-3.103889e-004
-2.957077e-004
-2.750970e-004
-2.485526e-004
-2.163766e-004
-1.792497e-004
-1.382949e-004
-9.511647e-005
-5.178620e-005
-1.074625e-005
2.540131e-005
5.422442e-005
7.387398e-005
8.348688e-005
8.344675e-005
7.538148e-005
6.185700e-005
4.584202e-005
3.009927e-005
1.668245e-005
6.685179e-006
2.746682e-007
-3.065358e-006
-4.197000e-006
-4.015112e-006
-3.240168e-006
-2.340321e-006
-1.554340e-006
-9.625911e-007
-5.597749e-007
-3.064203e-007
-1.574753e-007
-7.506549e-008
-3.198794e-008
-1.055818e-008
-3.222987e-010
3.890503e-009
9.409070e-009
6.822757e-009
4.581360e-009
3.744407e-009
7.317904e-010
-1.070170e-008
-3.769822e-008
-9.089016e-008
-1.891615e-007
-3.625183e-007
-6.520019e-007
-1.106286e-006
-1.770596e-006
-2.659231e-006
-3.703790e-006
-4.678915e-006
-5.127155e-006
-4.327763e-006
-1.363537e-006
4.682155e-006
1.441906e-005
2.781350e-005
4.393657e-005
6.090015e-005
7.604248e-005
8.634389e-005
8.895087e-005
8.165904e-005
6.323373e-005
3.350205e-005
-6.769266e-006
-5.613139e-005
-1.127494e-004
-1.746628e-004
-2.399774e-004
-3.069892e-004
-3.742568e-004
-4.406367e-004
-5.052940e-004
-5.676915e-004
-6.275626e-004
-6.848703e-004
-7.397575e-004
-7.924932e-004
-8.434197e-004
-8.929025e-004
-9.412869e-004
-9.888597e-004
-1.035819e-003
-1.082249e-003
-1.128106e-003
-1.173204e-003
-1.217215e-003
-1.259669e-003
-1.299963e-003
-1.337371e-003
-1.371065e-003
-1.400126e-003
-1.423560e-003
-1.440309e-003
-1.449258e-003
-1.449238e-003
-1.439026e-003
-1.417352e-003
-1.382915e-003
-1.334428e-003
-1.270707e-003
-1.190814e-003
-1.094288e-003
-9.814466e-004
-8.537542e-004
-7.141916e-004
-5.675117e-004
-4.202304e-004
-2.801985e-004
-1.556788e-004
-5.400379e-005
1.991831e-005
6.480600e-005
8.339468e-005
8.169660e-005
6.736367e-005
4.782620e-005
2.882259e-005
1.371623e-005
3.640464e-006
-1.852978e-006
-4.000199e-006
-4.159542e-006
-3.415102e-006
-2.450154e-006
-1.599419e-006
-9.692202e-007
-5.499934e-007
-2.920498e-007
-1.440926e-007
-6.540167e-008
-2.619434e-008
-7.048771e-009
1.313872e-009
9.149993e-009
7.869939e-009
5.733114e-009
1.736282e-009
-8.198423e-009
-3.184371e-008
-8.170288e-008
-1.778029e-007
-3.516434e-007
-6.490230e-007
-1.128056e-006
-1.845925e-006
-2.823132e-006
-3.971018e-006
-4.977156e-006
-5.174471e-006
-3.470072e-006
1.551555e-006
1.125310e-005
2.629263e-005
4.583187e-005
6.687183e-005
8.403709e-005
9.010417e-005
7.727195e-005
3.880563e-005
-2.943934e-005
-1.281533e-004
-2.546368e-004
-4.036009e-004
-5.682954e-004
-7.416072e-004
-9.169156e-004
-1.088630e-003
-1.252438e-003
-1.405335e-003
-1.545522e-003
-1.672225e-003
-1.785481e-003
-1.885910e-003
-1.974499e-003
-2.052420e-003
-2.120879e-003
-2.181005e-003
-2.233779e-003
-2.279991e-003
-2.320223e-003
-2.354858e-003
-2.384100e-003
-2.408013e-003
-2.426568e-003
-2.439710e-003
-2.447419e-003
-2.449786e-003
-2.447072e-003
-2.439761e-003
-2.428593e-003
-2.414558e-003
-2.398866e-003
-2.382864e-003
-2.367912e-003
-2.355206e-003
-2.345559e-003
-2.339118e-003
-2.335057e-003
-2.331227e-003
-2.323835e-003
-2.307203e-003
-2.273725e-003
-2.214207e-003
-2.118792e-003
-1.978650e-003
-1.788453e-003
-1.549216e-003
-1.270553e-003
-9.709766e-004
-6.752885e-004
-4.094754e-004
-1.948214e-004
-4.313958e-005
4.555256e-005
8.184786e-005
8.238079e-005
6.428875e-005
4.109280e-005
2.093246e-005
7.039395e-006
-6.508129e-007
-3.768221e-006
-4.214824e-006
-3.480042e-006
-2.461683e-006
-1.571827e-006
-9.270815e-007
-5.091355e-007
-2.603037e-007
-1.236760e-007
-5.387807e-008
-1.984310e-008
-5.446849e-009
7.217294e-009
7.877945e-009
5.582561e-009
-3.915117e-009
-2.550202e-008
-6.957963e-008
-1.570952e-007
-3.219059e-007
-6.127131e-007
-1.093872e-006
-1.834831e-006
-2.869880e-006
-4.105960e-006
-5.162956e-006
-5.169058e-006
-2.618539e-006
4.500732e-006
1.807185e-005
3.858740e-005
6.342432e-005
8.519745e-005
9.110516e-005
6.434592e-005
-1.222724e-005
-1.511043e-004
-3.555848e-004
-6.179545e-004
-9.207425e-004
-1.240011e-003
-1.549762e-003
-1.826484e-003
-2.052601e-003
-2.218035e-003
-2.319964e-003
-2.361432e-003
-2.349496e-003
-2.293386e-003
-2.202907e-003
-2.087242e-003
-1.954184e-003
-1.809781e-003
-1.658301e-003
-1.502405e-003
-1.343454e-003
-1.181849e-003
-1.017372e-003
-8.494922e-004
-6.776413e-004
-5.014343e-004
-3.208537e-004
-1.363890e-004
5.086862e-005
2.391764e-004
4.261363e-004
6.087338e-004
7.834116e-004
9.461659e-004
1.092647e-003
1.218252e-003
1.318180e-003
1.387469e-003
1.420975e-003
1.413356e-003
1.359052e-003
1.252369e-003
1.087724e-003
8.602325e-004
5.668111e-004
2.080372e-004
-2.090641e-004
-6.673531e-004
-1.135721e-003
-1.566930e-003
-1.900573e-003
-2.075004e-003
-2.048610e-003
-1.822240e-003
-1.447332e-003
-1.009594e-003
-5.966172e-004
-2.704377e-004
-5.667706e-005
5.252087e-005
8.574590e-005
7.637050e-005
5.135765e-005
2.690409e-005
9.633875e-006
1.389244e-007
-3.648254e-006
-4.215803e-006
-3.436827e-006
-2.372493e-006
-1.470776e-006
-8.393685e-007
-4.454477e-007
-2.203660e-007
-1.009567e-007
-4.204455e-008
-1.785842e-008
4.962020e-009
6.592938e-009
2.175212e-009
-1.618919e-008
-5.565942e-008
-1.321012e-007
-2.787435e-007
-5.475898e-007
-1.007971e-006
-1.739270e-006
-2.794723e-006
-4.099741e-006
-5.252063e-006
-5.232729e-006
-2.154139e-006
6.638858e-006
2.364471e-005
4.905113e-005
7.737959e-005
9.383753e-005
7.262253e-005
-1.959114e-005
-2.137751e-004
-5.239446e-004
-9.341713e-004
-1.393797e-003
-1.822711e-003
-2.129958e-003
-2.242334e-003
-2.127580e-003
-1.799020e-003
-1.302678e-003
-6.980290e-004
-4.246789e-005
6.171360e-004
1.247183e-003
1.826770e-003
2.345538e-003
2.800997e-003
3.195886e-003
3.535957e-003
3.828277e-003
4.080073e-003
4.298027e-003
4.487893e-003
4.654345e-003
4.800971e-003
4.930356e-003
5.044219e-003
5.143589e-003
5.229003e-003
5.300724e-003
5.358947e-003
5.404008e-003
5.436546e-003
5.457631e-003
5.468825e-003
5.472176e-003
5.470125e-003
5.465351e-003
5.460515e-003
5.457931e-003
5.459119e-003
5.464223e-003
5.471247e-003
5.475028e-003
5.465896e-003
5.427940e-003
5.336959e-003
5.158408e-003
4.846411e-003
4.346316e-003
3.605510e-003
2.598436e-003
1.366788e-003
5.773345e-005
-1.081570e-003
-1.792081e-003
-1.947642e-003
-1.640868e-003
-1.112457e-003
-5.938395e-004
-2.147113e-004
-2.658437e-006
7.819731e-005
8.309367e-005
5.813314e-005
3.043725e-005
1.074960e-005
2.433586e-007
-3.710325e-006
-4.167353e-006
-3.283690e-006
-2.188471e-006
-1.309901e-006
-7.223886e-007
-3.704104e-007
-1.763643e-007
-7.881999e-008
-3.919753e-008
3.096391e-009
3.312772e-009
-6.728826e-009
-3.859598e-008
-1.044938e-007
-2.299761e-007
-4.645617e-007
-8.816425e-007
-1.570049e-006
-2.603969e-006
-3.947308e-006
-5.234896e-006
-5.408021e-006
-2.319908e-006
7.286216e-006
2.666546e-005
5.590450e-005
8.623101e-005
9.293230e-005
3.145058e-005
-1.551436e-004
-5.116762e-004
-1.030728e-003
-1.613865e-003
-2.058779e-003
-2.114262e-003
-1.617148e-003
-6.030374e-004
7.175605e-004
2.081039e-003
3.282492e-003
4.218207e-003
4.869598e-003
5.266891e-003
5.459084e-003
5.496817e-003
5.424808e-003
5.279374e-003
5.088271e-003
4.871542e-003
4.642776e-003
4.410491e-003
4.179440e-003
3.951749e-003
3.727849e-003
3.507208e-003
3.288878e-003
3.071903e-003
2.855606e-003
2.639785e-003
2.424829e-003
2.211772e-003
2.002284e-003
1.798624e-003
1.603546e-003
1.420199e-003
1.252019e-003
1.102648e-003
9.758893e-004
8.757308e-004
8.064245e-004
7.726447e-004
7.797106e-004
8.338573e-004
9.425212e-004
1.114566e-003
1.360315e-003
1.691115e-003
2.117965e-003
2.648323e-003
3.279707e-003
3.988122e-003
4.709648e-003
5.316815e-003
5.601731e-003
5.297481e-003
4.187473e-003
2.323155e-003
2.127373e-004
-1.349964e-003
-1.877911e-003
-1.560597e-003
-9.327496e-004
-3.887731e-004
-6.468520e-005
6.680617e-005
8.569318e-005
6.078806e-005
3.085774e-005
1.009493e-005
-3.720918e-007
-3.913503e-006
-4.041860e-006
-3.022320e-006
-1.929150e-006
-1.110682e-006
-5.894704e-007
-2.907278e-007
-1.372323e-007
-7.456637e-008
9.062465e-010
-3.408618e-009
-2.357676e-008
-7.510198e-008
-1.790415e-007
-3.754627e-007
-7.335802e-007
-1.348349e-006
-2.315549e-006
-3.650257e-006
-5.077284e-006
-5.627539e-006
-3.101023e-006
6.189180e-006
2.638059e-005
5.813990e-005
9.037664e-005
8.828056e-005
-1.493889e-005
-3.051823e-004
-8.346632e-004
-1.522579e-003
-2.050301e-003
-1.888974e-003
-6.749079e-004
1.338992e-003
3.414119e-003
4.897919e-003
5.555525e-003
5.493851e-003
4.953342e-003
4.164750e-003
3.295172e-003
2.446464e-003
1.671975e-003
9.939820e-004
4.164956e-004
-6.645911e-005
-4.657003e-004
-7.937554e-004
-1.063017e-003
-1.284742e-003
-1.468610e-003
-1.622607e-003
-1.753116e-003
-1.865089e-003
-1.962260e-003
-2.047362e-003
-2.122328e-003
-2.188482e-003
-2.246709e-003
-2.297613e-003
-2.341645e-003
-2.379220e-003
-2.410798e-003
-2.436945e-003
-2.458358e-003
-2.475865e-003
-2.490389e-003
-2.502896e-003
-2.514304e-003
-2.525357e-003
-2.536459e-003
-2.547419e-003
-2.557078e-003
-2.562718e-003
-2.559135e-003
-2.537159e-003
-2.481336e-003
-2.366453e-003
-2.152818e-003
-1.781149e-003
-1.170617e-003
-2.288762e-004
1.109527e-003
2.796550e-003
4.534773e-003
5.672395e-003
5.373140e-003
3.314417e-003
4.641428e-004
-1.463463e-003
-1.784269e-003
-1.196355e-003
-5.259909e-004
-1.079091e-004
6.056165e-005
8.588851e-005
5.919834e-005
2.809402e-005
7.847462e-006
-1.488109e-006
-4.124273e-006
-3.799047e-006
-2.664684e-006
-1.619520e-006
-8.926012e-007
-4.560302e-007
-2.254864e-007
-1.298200e-007
-3.524477e-009
-1.558347e-008
-5.099436e-008
-1.301507e-007
-2.871806e-007
-5.811655e-007
-1.102683e-006
-1.961611e-006
-3.226066e-006
-4.743318e-006
-5.746210e-006
-4.223319e-006
3.627791e-006
2.277702e-005
5.538208e-005
9.057066e-005
8.699733e-005
-4.298744e-005
-4.177308e-004
-1.092832e-003
-1.853515e-003
-1.991507e-003
-6.080586e-004
2.146124e-003
4.721461e-003
5.754370e-003
5.149061e-003
3.610422e-003
1.867990e-003
3.505933e-004
-7.921810e-004
-1.571705e-003
-2.062234e-003
-2.345827e-003
-2.490340e-003
-2.545262e-003
-2.544466e-003
-2.510362e-003
-2.457455e-003
-2.394938e-003
-2.328475e-003
-2.261398e-003
-2.195523e-003
-2.131700e-003
-2.070192e-003
-2.010932e-003
-1.953700e-003
-1.898237e-003
-1.844324e-003
-1.791835e-003
-1.740762e-003
-1.691230e-003
-1.643504e-003
-1.597980e-003
-1.555179e-003
-1.515734e-003
-1.480381e-003
-1.449951e-003
-1.425370e-003
-1.407671e-003
-1.398018e-003
-1.397736e-003
-1.408371e-003
-1.431752e-003
-1.470076e-003
-1.526000e-003
-1.602704e-003
-1.703896e-003
-1.833582e-003
-1.995342e-003
-2.190452e-003
-2.413630e-003
-2.644123e-003
-2.828556e-003
-2.851986e-003
-2.501685e-003
-1.461825e-003
5.452283e-004
3.313327e-003
5.586555e-003
5.453721e-003
2.540797e-003
-6.581807e-004
-1.800969e-003
-1.337601e-003
-5.853409e-004
-1.135684e-004
6.418154e-005
8.395752e-005
5.345289e-005
2.268150e-005
4.603426e-006
-2.720082e-006
-4.186300e-006
-3.417214e-006
-2.236330e-006
-1.289959e-006
-6.838195e-007
-3.519271e-007
-2.109090e-007
-1.257260e-008
-3.536348e-008
-9.166538e-008
-2.084583e-007
-4.368244e-007
-8.580700e-007
-1.582216e-006
-2.714997e-006
-4.227663e-006
-5.618723e-006
-5.273528e-006
3.256112e-007
1.661926e-005
4.782073e-005
8.643203e-005
9.160438e-005
-3.707922e-005
-4.511561e-004
-1.224701e-003
-2.001908e-003
-1.596297e-003
1.099524e-003
4.594292e-003
5.900936e-003
4.387804e-003
1.699945e-003
-6.000452e-004
-1.982651e-003
-2.583367e-003
-2.701723e-003
-2.577567e-003
-2.355771e-003
-2.111382e-003
-1.878603e-003
-1.670435e-003
-1.489800e-003
-1.335274e-003
-1.203837e-003
-1.092114e-003
-9.968882e-004
-9.152857e-004
-8.448236e-004
-7.833989e-004
-7.292580e-004
-6.809616e-004
-6.373488e-004
-5.975042e-004
-5.607267e-004
-5.265020e-004
-4.944759e-004
-4.644303e-004
-4.362604e-004
-4.099539e-004
-3.855721e-004
-3.632340e-004
-3.431045e-004
-3.253858e-004
-3.103161e-004
-2.981727e-004
-2.892844e-004
-2.840517e-004
-2.829792e-004
-2.867226e-004
-2.961565e-004
-3.124710e-004
-3.373124e-004
-3.729876e-004
-4.227602e-004
-4.912776e-004
-5.851614e-004
-7.137693e-004
-8.900140e-004
-1.130768e-003
-1.455402e-003
-1.878502e-003
-2.387192e-003
-2.883550e-003
-3.068809e-003
-2.314566e-003
1.222264e-004
3.849105e-003
6.012492e-003
3.951282e-003
-1.331675e-005
-1.765587e-003
-1.353132e-003
-5.504684e-004
-7.930408e-005
7.483411e-005
7.846082e-005
4.403196e-005
1.570069e-005
1.181183e-006
-3.681353e-006
-3.998597e-006
-2.912683e-006
-1.779845e-006
-9.823201e-007
-5.242682e-007
-3.240701e-007
-2.847673e-008
-6.470795e-008
-1.481138e-007
-3.144587e-007
-6.346541e-007
-1.213113e-006
-2.171168e-006
-3.572513e-006
-5.177741e-006
-5.881501e-006
-2.815951e-006
9.299901e-006
3.646923e-005
7.670972e-005
9.764405e-005
5.841305e-007
-3.916146e-004
-1.205712e-003
-2.043622e-003
-1.305761e-003
2.312796e-003
5.746486e-003
5.062427e-003
1.567049e-003
-1.401927e-003
-2.683253e-003
-2.793505e-003
-2.417693e-003
-1.938926e-003
-1.506415e-003
-1.157840e-003
-8.894108e-004
-6.860496e-004
-5.323039e-004
-4.154631e-004
-3.258852e-004
-2.564950e-004
-2.021535e-004
-1.591199e-004
-1.246464e-004
-9.669247e-005
-7.372710e-005
-5.459288e-005
-3.841142e-005
-2.451619e-005
-1.240359e-005
-1.696637e-006
7.882691e-006
1.653506e-005
2.440107e-005
3.157531e-005
3.811810e-005
4.406506e-005
4.943503e-005
5.423619e-005
5.847032e-005
6.213533e-005
6.522574e-005
6.773110e-005
6.963213e-005
7.089417e-005
7.145697e-005
7.121969e-005
7.001823e-005
6.759060e-005
6.352221e-005
5.715788e-005
4.745708e-005
3.275362e-005
1.035406e-005
-2.413207e-005
-7.789875e-005
-1.627229e-004
-2.976492e-004
-5.124471e-004
-8.501257e-004
-1.361706e-003
-2.072470e-003
-2.866613e-003
-3.205412e-003
-1.835249e-003
2.130769e-003
5.840932e-003
4.476529e-003
8.105281e-005
-1.783761e-003
-1.245017e-003
-4.313460e-004
-2.021169e-005
8.417212e-005
6.786370e-005
3.218489e-005
8.544082e-006
-1.658982e-006
-4.126952e-006
-3.553434e-006
-2.341887e-006
-1.353502e-006
-7.488076e-007
-4.758550e-007
-5.308418e-008
-1.052411e-007
-2.224388e-007
-4.515444e-007
-8.846615e-007
-1.646770e-006
-2.853306e-006
-4.464275e-006
-5.869663e-006
-5.055877e-006
2.436330e-006
2.333904e-005
6.113046e-005
9.710014e-005
5.069358e-005
-2.590415e-004
-1.033503e-003
-2.006098e-003
-1.426803e-003
2.585073e-003
6.024603e-003
3.936657e-003
-4.273683e-004
-2.686279e-003
-2.817323e-003
-2.168307e-003
-1.473501e-003
-9.404549e-004
-5.756017e-004
-3.371291e-004
-1.838038e-004
-8.539467e-005
-2.187705e-005
1.948175e-005
4.666308e-005
6.466651e-005
7.664645e-005
8.461808e-005
8.988935e-005
9.332360e-005
9.549932e-005
9.680849e-005
9.751821e-005
9.781047e-005
9.780876e-005
9.759620e-005
9.722834e-005
9.674226e-005
9.616314e-005
9.550915e-005
9.479502e-005
9.403469e-005
9.324326e-005
9.243833e-005
9.164097e-005
9.087620e-005
9.017325e-005
8.956555e-005
8.909058e-005
8.878970e-005
8.870794e-005
8.889364e-005
8.939799e-005
9.027398e-005
9.157392e-005
9.334370e-005
9.561018e-005
9.835433e-005
1.014554e-004
1.045766e-004
1.069332e-004
1.068245e-004
1.006945e-004
8.128218e-005
3.412826e-005
-6.850339e-005
-2.765241e-004
-6.696878e-004
-1.345320e-003
-2.325473e-003
-3.229049e-003
-2.606629e-003
1.388386e-003
5.792818e-003
4.192778e-003
-4.236561e-004
-1.794163e-003
-1.012947e-003
-2.630977e-004
3.881008e-005
8.413993e-005
5.247969e-005
1.990203e-005
2.509191e-006
-3.450989e-006
-4.015820e-006
-2.933199e-006
-1.790760e-006
-1.029202e-006
-6.721780e-007
-8.774240e-008
-1.581458e-007
-3.160056e-007
-6.213212e-007
-1.186908e-006
-2.151409e-006
-3.596040e-006
-5.291035e-006
-6.061127e-006
-2.685528e-006
1.098757e-005
4.183348e-005
8.484760e-005
8.835964e-005
-1.016836e-004
-7.372671e-004
-1.810028e-003
-1.874622e-003
1.826927e-003
5.961879e-003
3.654997e-003
-1.186171e-003
-2.942966e-003
-2.427888e-003
-1.492242e-003
-7.810596e-004
-3.487333e-004
-1.121969e-004
8.864706e-006
6.722274e-005
9.303950e-005
1.024591e-004
1.038486e-004
1.014768e-004
9.750110e-005
9.299781e-005
8.849044e-005
8.421972e-005
8.028225e-005
7.670162e-005
7.346494e-005
7.054186e-005
6.789476e-005
6.548431e-005
6.327278e-005
6.122603e-005
5.931472e-005
5.751492e-005
5.580836e-005
5.418240e-005
5.262989e-005
5.114880e-005
4.974187e-005
4.841616e-005
4.718260e-005
4.605567e-005
4.505312e-005
4.419589e-005
4.350827e-005
4.301843e-005
4.275931e-005
4.277011e-005
4.309857e-005
4.380421e-005
4.496304e-005
4.667396e-005
4.906748e-005
5.231697e-005
5.665152e-005
6.236659e-005
6.982002e-005
7.937736e-005
9.121050e-005
1.047110e-004
1.169702e-004
1.191893e-004
8.902569e-005
-2.344255e-005
-3.145837e-004
-9.313758e-004
-1.984902e-003
-3.152624e-003
-2.691522e-003
1.794891e-003
5.988897e-003
3.051702e-003
-1.228629e-003
-1.638792e-003
-6.893692e-004
-9.689391e-005
7.609552e-005
7.217554e-005
3.492171e-005
9.280624e-006
-1.605843e-006
-4.121997e-006
-3.488998e-006
-2.277511e-006
-1.365004e-006
-9.168384e-007
-1.331274e-007
-2.239529e-007
-4.290893e-007
-8.230408e-007
-1.536856e-006
-2.711121e-006
-4.353359e-006
-5.938899e-006
-5.522714e-006
1.542114e-006
2.278488e-005
6.256782e-005
9.823215e-005
2.550589e-005
-3.962594e-004
-1.390096e-003
-2.212265e-003
2.028563e-004
5.339514e-003
4.440644e-003
-9.167493e-004
-2.922404e-003
-2.172845e-003
-1.105652e-003
-4.182197e-004
-7.699243e-005
6.335766e-005
1.077131e-004
1.123093e-004
1.029956e-004
9.038989e-005
7.834853e-005
6.798548e-005
5.940336e-005
5.238578e-005
4.665418e-005
4.195289e-005
3.807024e-005
3.483770e-005
3.212259e-005
2.982017e-005
2.784727e-005
2.613734e-005
2.463692e-005
2.330302e-005
2.210139e-005
2.100515e-005
1.999370e-005
1.905183e-005
1.816889e-005
1.733815e-005
1.655616e-005
1.582222e-005
1.513790e-005
1.450657e-005
1.393314e-005
1.342384e-005
1.298614e-005
1.262884e-005
1.236241e-005
1.219955e-005
1.215614e-005
1.225264e-005
1.251633e-005
1.298465e-005
1.371022e-005
1.476876e-005
1.627146e-005
1.838463e-005
2.136076e-005
2.558707e-005
3.165647e-005
4.045377e-005
5.319910e-005
7.123476e-005
9.493246e-005
1.201781e-004
1.292412e-004
7.123003e-005
-1.686023e-004
-7.852762e-004
-1.944306e-003
-3.208262e-003
-2.170686e-003
3.267424e-003
5.763525e-003
1.125458e-003
-1.799164e-003
-1.249180e-003
-3.551229e-004
2.235935e-005
8.374912e-005
5.206190e-005
1.875926e-005
1.710897e-006
-3.683789e-006
-3.928107e-006
-2.787250e-006
-1.750700e-006
-1.210501e-006
-1.890341e-007
-3.022776e-007
-5.605597e-007
-1.053341e-006
-1.925489e-006
-3.303373e-006
-5.072843e-006
-6.301438e-006
-4.092928e-006
7.691404e-006
3.710177e-005
8.187809e-005
9.012553e-005
-1.125679e-004
-8.336445e-004
-2.026749e-003
-1.546684e-003
3.419522e-003