# vtk DataFile Version 3.0
vtk output
ASCII
DATASET STRUCTURED_POINTS
DIMENSIONS 100 100 1
SPACING 1 1 1
ORIGIN 0 0 0
POINT_DATA 10000
SCALARS SFBox_profile double
LOOKUP_TABLE default 
9.439937e-003
9.439940e-003
9.439946e-003
9.439955e-003
9.439967e-003
9.439982e-003
9.439997e-003
9.440006e-003
9.440000e-003
9.439957e-003
9.439847e-003
9.439619e-003
9.439195e-003
9.438471e-003
9.437302e-003
9.435510e-003
9.432880e-003
9.429173e-003
9.424142e-003
9.417562e-003
9.409252e-003
9.399112e-003
9.387141e-003
9.373453e-003
9.358271e-003
9.341913e-003
9.324761e-003
9.307224e-003
9.289705e-003
9.272570e-003
9.256129e-003
9.240620e-003
9.226216e-003
9.213022e-003
9.201086e-003
9.190406e-003
9.180944e-003
9.172629e-003
9.165373e-003
9.159075e-003
9.153630e-003
9.148937e-003
9.144901e-003
9.141439e-003
9.138480e-003
9.135969e-003
9.133860e-003
9.132122e-003
9.130732e-003
9.129679e-003
9.128953e-003
9.128553e-003
9.128476e-003
9.128719e-003
9.129275e-003
9.130134e-003
9.131276e-003
9.132672e-003
9.134283e-003
9.136062e-003
9.137958e-003
9.139918e-003
9.141899e-003
9.143877e-003
9.145860e-003
9.147909e-003
9.150145e-003
9.152773e-003
9.156081e-003
9.160441e-003
9.166291e-003
9.174096e-003
9.184290e-003
9.197202e-003
9.212982e-003
9.231533e-003
9.252475e-003
9.275157e-003
9.298711e-003
9.322154e-003
9.344514e-003
9.364953e-003
9.382859e-003
9.397901e-003
9.410021e-003
9.419393e-003
9.426349e-003
9.431304e-003
9.434689e-003
9.436904e-003
9.438288e-003
9.439109e-003
9.439568e-003
9.439806e-003
9.439916e-003
9.439957e-003
9.439967e-003
9.439963e-003
9.439956e-003
9.439952e-003
9.439937e-003
9.439940e-003
9.439946e-003
9.439955e-003
9.439967e-003
9.439982e-003
9.439997e-003
9.440006e-003
9.440000e-003
9.439957e-003
9.439847e-003
9.439619e-003
9.439195e-003
9.438471e-003
9.437302e-003
9.435510e-003
9.432880e-003
9.429173e-003
9.424142e-003
9.417562e-003
9.409252e-003
9.399112e-003
9.387141e-003
9.373453e-003
9.358271e-003
9.341913e-003
9.324761e-003
9.307224e-003
9.289705e-003
9.272570e-003
9.256129e-003
9.240620e-003
9.226216e-003
9.213022e-003
9.201086e-003
9.190406e-003
9.180944e-003
9.172629e-003
9.165373e-003
9.159075e-003
9.153630e-003
9.148937e-003
9.144901e-003
9.141439e-003
9.138480e-003
9.135969e-003
9.133860e-003
9.132122e-003
9.130732e-003
9.129679e-003
9.128953e-003
9.128553e-003
9.128476e-003
9.128719e-003
9.129275e-003
9.130134e-003
9.131276e-003
9.132672e-003
9.134283e-003
9.136062e-003
9.137958e-003
9.139918e-003
9.141899e-003
9.143877e-003
9.145860e-003
9.147909e-003
9.150145e-003
9.152773e-003
9.156081e-003
9.160441e-003
9.166291e-003
9.174096e-003
9.184290e-003
9.197202e-003
9.212982e-003
9.231533e-003
9.252475e-003
9.275157e-003
9.298711e-003
9.322154e-003
9.344514e-003
9.364953e-003
9.382859e-003
9.397901e-003
9.410021e-003
9.419393e-003
9.426349e-003
9.431304e-003
9.434689e-003
9.436904e-003
9.438288e-003
9.439109e-003
9.439568e-003
9.439806e-003
9.439916e-003
9.439957e-003
9.439967e-003
9.439963e-003
9.439956e-003
9.439952e-003
9.439942e-003
9.439945e-003
9.439951e-003
9.439960e-003
9.439972e-003
9.439984e-003
9.439992e-003
9.439986e-003
9.439947e-003
9.439844e-003
9.439624e-003
9.439210e-003
9.438486e-003
9.437292e-003
9.435419e-003
9.432611e-003
9.428572e-003
9.422992e-003
9.415579e-003
9.406113e-003
9.394489e-003
9.380771e-003
9.365212e-003
9.348260e-003
9.330519e-003
9.312693e-003
9.295514e-003
9.279663e-003
9.265709e-003
9.254077e-003
9.245025e-003
9.238658e-003
9.234948e-003
9.233763e-003
9.234895e-003
9.238087e-003
9.243052e-003
9.249489e-003
9.257103e-003
9.265611e-003
9.274763e-003
9.284343e-003
9.294183e-003
9.304158e-003
9.314191e-003
9.324242e-003
9.334305e-003
9.344398e-003
9.354552e-003
9.364801e-003
9.375172e-003
9.385674e-003
9.396288e-003
9.406957e-003
9.417579e-003
9.428000e-003
9.438003e-003
9.447310e-003
9.455579e-003
9.462409e-003
9.467349e-003
9.469919e-003
9.469636e-003
9.466050e-003
9.458793e-003
9.447631e-003
9.432532e-003
9.413726e-003
9.391760e-003
9.367534e-003
9.342300e-003
9.317604e-003
9.295176e-003
9.276755e-003
9.263873e-003
9.257634e-003
9.258529e-003
9.266333e-003
9.280123e-003
9.298407e-003
9.319364e-003
9.341121e-003
9.362025e-003
9.380830e-003
9.396788e-003
9.409627e-003
9.419458e-003
9.426642e-003
9.431660e-003
9.435012e-003
9.437153e-003
9.438456e-003
9.439210e-003
9.439619e-003
9.439825e-003
9.439917e-003
9.439952e-003
9.439960e-003
9.439958e-003
9.439956e-003
9.439950e-003
9.439954e-003
9.439961e-003
9.439970e-003
9.439980e-003
9.439984e-003
9.439973e-003
9.439925e-003
9.439804e-003
9.439548e-003
9.439061e-003
9.438197e-003
9.436749e-003
9.434437e-003
9.430905e-003
9.425736e-003
9.418483e-003
9.408737e-003
9.396219e-003
9.380891e-003
9.363073e-003
9.343519e-003
9.323427e-003
9.304372e-003
9.288149e-003
9.276572e-003
9.271263e-003
9.273473e-003
9.283969e-003
9.303008e-003
9.330365e-003
9.365435e-003
9.407338e-003
9.455034e-003
9.507416e-003
9.563375e-003
9.621843e-003
9.681828e-003
9.742434e-003
9.802887e-003
9.862548e-003
9.920935e-003
9.977721e-003
1.003273e-002
1.008593e-002
1.013739e-002
1.018729e-002
1.023583e-002
1.028324e-002
1.032973e-002
1.037547e-002
1.042050e-002
1.046477e-002
1.050807e-002
1.055002e-002
1.059002e-002
1.062727e-002
1.066073e-002
1.068915e-002
1.071105e-002
1.072477e-002
1.072851e-002
1.072042e-002
1.069869e-002
1.066170e-002
1.060820e-002
1.053745e-002
1.044950e-002
1.034539e-002
1.022726e-002
1.009851e-002
9.963719e-003
9.828414e-003
9.698674e-003
9.580526e-003
9.479258e-003
9.398754e-003
9.340967e-003
9.305688e-003
9.290655e-003
9.292017e-003
9.305036e-003
9.324885e-003
9.347327e-003
9.369162e-003
9.388375e-003
9.404025e-003
9.415983e-003
9.424626e-003
9.430564e-003
9.434455e-003
9.436888e-003
9.438338e-003
9.439158e-003
9.439595e-003
9.439812e-003
9.439910e-003
9.439948e-003
9.439959e-003
9.439962e-003
9.439964e-003
9.439967e-003
9.439974e-003
9.439982e-003
9.439985e-003
9.439970e-003
9.439915e-003
9.439777e-003
9.439484e-003
9.438918e-003
9.437893e-003
9.436141e-003
9.433282e-003
9.428824e-003
9.422168e-003
9.412667e-003
9.399739e-003
9.383052e-003
9.362780e-003
9.339889e-003
9.316369e-003
9.295336e-003
9.280903e-003
9.277827e-003
9.290954e-003
9.324605e-003
9.382027e-003
9.465023e-003
9.573822e-003
9.707178e-003
9.862653e-003
1.003699e-002
1.022651e-002
1.042742e-002
1.063610e-002
1.084918e-002
1.106367e-002
1.127695e-002
1.148681e-002
1.169145e-002
1.188952e-002
1.208011e-002
1.226274e-002
1.243732e-002
1.260412e-002
1.276370e-002
1.291678e-002
1.306419e-002
1.320677e-002
1.334522e-002
1.348008e-002
1.361161e-002
1.373967e-002
1.386373e-002
1.398273e-002
1.409506e-002
1.419854e-002
1.429034e-002
1.436702e-002
1.442454e-002
1.445835e-002
1.446346e-002
1.443464e-002
1.436666e-002
1.425462e-002
1.409430e-002
1.388273e-002
1.361869e-002
1.330336e-002
1.294085e-002
1.253860e-002
1.210759e-002
1.166196e-002
1.121832e-002
1.079432e-002
1.040696e-002
1.007063e-002
9.795324e-003
9.585409e-003
9.439264e-003
9.349907e-003
9.306523e-003
9.296521e-003
9.307612e-003
9.329413e-003
9.354320e-003
9.377596e-003
9.396919e-003
9.411663e-003
9.422186e-003
9.429284e-003
9.433834e-003
9.436612e-003
9.438228e-003
9.439121e-003
9.439586e-003
9.439812e-003
9.439913e-003
9.439953e-003
9.439966e-003
9.439981e-003
9.439985e-003
9.439990e-003
9.439991e-003
9.439975e-003
9.439918e-003
9.439773e-003
9.439457e-003
9.438833e-003
9.437678e-003
9.435655e-003
9.432277e-003
9.426884e-003
9.418657e-003
9.406688e-003
9.390178e-003
9.368782e-003
9.343153e-003
9.315609e-003
9.290798e-003
9.276117e-003
9.281613e-003
9.319252e-003
9.401570e-003
9.539996e-003
9.743233e-003
1.001606e-002
1.035881e-002
1.076755e-002
1.123482e-002
1.175075e-002
1.230425e-002
1.288407e-002
1.347960e-002
1.408136e-002
1.468120e-002
1.527229e-002
1.584908e-002
1.640718e-002
1.694335e-002
1.745542e-002
1.794226e-002
1.840372e-002
1.884052e-002
1.925409e-002
1.964640e-002
2.001974e-002
2.037652e-002
2.071905e-002
2.104931e-002
2.136877e-002
2.167819e-002
2.197745e-002
2.226542e-002
2.253982e-002
2.279714e-002
2.303253e-002
2.323974e-002
2.341116e-002
2.353781e-002
2.360946e-002
2.361485e-002
2.354196e-002
2.337843e-002
2.311218e-002
2.273212e-002
2.222919e-002
2.159754e-002
2.083594e-002
1.994921e-002
1.894964e-002
1.785789e-002
1.670322e-002
1.552257e-002
1.435835e-002
1.325482e-002
1.225350e-002
1.138824e-002
1.068094e-002
1.013878e-002
9.754088e-003
9.506670e-003
9.368311e-003
9.308158e-003
9.297609e-003
9.313629e-003
9.340054e-003
9.367167e-003
9.390244e-003
9.407818e-003
9.420179e-003
9.428344e-003
9.433453e-003
9.436492e-003
9.438213e-003
9.439139e-003
9.439608e-003
9.439831e-003
9.439928e-003
9.439962e-003
9.440002e-003
9.440004e-003
9.440003e-003
9.439987e-003
9.439932e-003
9.439789e-003
9.439469e-003
9.438821e-003
9.437591e-003
9.435381e-003
9.431598e-003
9.425408e-003
9.415741e-003
9.401386e-003
9.381281e-003
9.355124e-003
9.324394e-003
9.293805e-003
9.272945e-003
9.277609e-003
9.330145e-003
9.458231e-003
9.691951e-003
1.005964e-002
1.058346e-002
1.127587e-002
1.213774e-002
1.315854e-002
1.431822e-002
1.559016e-002
1.694452e-002
1.835136e-002
1.978293e-002
2.121514e-002
2.262817e-002
2.400638e-002
2.533785e-002
2.661386e-002
2.782845e-002
2.897799e-002
3.006102e-002
3.107798e-002
3.203102e-002
3.292372e-002
3.376079e-002
3.454765e-002
3.529011e-002
3.599391e-002
3.666436e-002
3.730598e-002
3.792213e-002
3.851471e-002
3.908389e-002
3.962792e-002
4.014289e-002
4.062264e-002
4.105856e-002
4.143958e-002
4.175209e-002
4.198000e-002
4.210485e-002
4.210598e-002
4.196096e-002
4.164598e-002
4.113668e-002
4.040911e-002
3.944125e-002
3.821490e-002
3.671821e-002
3.494875e-002
3.291676e-002
3.064845e-002
2.818846e-002
2.560071e-002
2.296675e-002
2.038082e-002
1.794157e-002
1.574097e-002
1.385243e-002
1.232043e-002
1.115486e-002
1.033169e-002
9.800265e-003
9.494913e-003
9.347735e-003
9.298933e-003
9.302710e-003
9.328485e-003
9.358708e-003
9.385145e-003
9.405184e-003
9.419035e-003
9.427973e-003
9.433420e-003
9.436572e-003
9.438307e-003
9.439213e-003
9.439658e-003
9.439861e-003
9.439937e-003
9.440024e-003
9.440021e-003
9.440006e-003
9.439955e-003
9.439821e-003
9.439516e-003
9.438881e-003
9.437643e-003
9.435359e-003
9.431346e-003
9.424611e-003
9.413830e-003
9.397454e-003
9.374113e-003
9.343545e-003
9.308365e-003
9.276831e-003
9.266408e-003
9.307254e-003
9.444135e-003
9.735082e-003
1.024582e-002
1.104043e-002
1.217044e-002
1.366506e-002
1.552562e-002
1.772518e-002
2.021314e-002
2.292316e-002
2.578202e-002
2.871774e-002
3.166566e-002
3.457198e-002
3.739505e-002
4.010480e-002
4.268112e-002
4.511189e-002
4.739106e-002
4.951721e-002
5.149251e-002
5.332202e-002
5.501315e-002
5.657521e-002
5.801891e-002
5.935586e-002
6.059803e-002
6.175722e-002
6.284454e-002
6.386991e-002
6.484160e-002
6.576583e-002
6.664639e-002
6.748441e-002
6.827809e-002
6.902260e-002
6.970986e-002
7.032852e-002
7.086381e-002
7.129750e-002
7.160785e-002
7.176962e-002
7.175410e-002
7.152916e-002
7.105942e-002
7.030648e-002
6.922961e-002
6.778674e-002
6.593643e-002
6.364075e-002
6.086960e-002
5.760651e-002
5.385578e-002
4.965046e-002
4.505984e-002
4.019445e-002
3.520594e-002
3.027922e-002
2.561540e-002
2.140663e-002
1.780726e-002
1.490903e-002
1.272789e-002
1.120750e-002
1.023811e-002
9.684266e-003
9.412360e-003
9.310407e-003
9.296991e-003
9.320590e-003
9.353195e-003
9.382324e-003
9.404172e-003
9.418953e-003
9.428244e-003
9.433749e-003
9.436843e-003
9.438494e-003
9.439329e-003
9.439719e-003
9.439870e-003
9.440043e-003
9.440029e-003
9.439984e-003
9.439866e-003
9.439590e-003
9.439000e-003
9.437820e-003
9.435585e-003
9.431553e-003
9.424604e-003
9.413188e-003
9.395413e-003
9.369532e-003
9.335221e-003
9.296267e-003
9.265243e-003
9.270251e-003
9.362619e-003
9.622769e-003
1.016031e-002
1.110499e-002
1.258783e-002
1.471617e-002
1.754952e-002
2.108414e-002
2.525104e-002
2.992756e-002
3.495796e-002
4.017662e-002
4.542809e-002
5.058081e-002
5.553382e-002
6.021745e-002
6.458997e-002
6.863217e-002
7.234139e-002
7.572622e-002
7.880232e-002
8.158942e-002
8.410949e-002
8.638554e-002
8.844089e-002
9.029867e-002
9.198135e-002
9.351036e-002
9.490570e-002
9.618563e-002
9.736637e-002
9.846183e-002
9.948333e-002
1.004394e-001
1.013357e-001
1.021749e-001
1.029565e-001
1.036772e-001
1.043307e-001
1.049076e-001
1.053958e-001
1.057798e-001
1.060410e-001
1.061573e-001
1.061026e-001
1.058464e-001
1.053530e-001
1.045803e-001
1.034789e-001
1.019911e-001
1.000506e-001
9.758300e-002
9.450808e-002
9.074495e-002
8.622089e-002
8.088502e-002
7.472681e-002
6.779805e-002
6.023365e-002
5.226402e-002
4.420972e-002
3.645142e-002
2.937502e-002
2.330327e-002
1.843448e-002
1.481070e-002
1.232683e-002
1.077540e-002
9.907337e-003
9.486898e-003
9.325968e-003
9.294992e-003
9.316582e-003
9.351142e-003
9.382133e-003
9.404929e-003
9.419946e-003
9.429116e-003
9.434388e-003
9.437260e-003
9.438740e-003
9.439449e-003
9.439727e-003
9.440051e-003
9.440016e-003
9.439917e-003
9.439679e-003
9.439160e-003
9.438094e-003
9.436020e-003
9.432178e-003
9.425377e-003
9.413896e-003
9.395531e-003
9.368096e-003
9.330967e-003
9.288697e-003
9.257953e-003
9.278688e-003
9.428670e-003
9.837240e-003
1.069062e-002
1.221994e-002
1.466707e-002
1.823242e-002
2.301955e-002
2.899674e-002
3.599120e-002
4.371866e-002
5.183673e-002
6.000314e-002
6.792222e-002
7.537142e-002
8.220795e-002
8.836097e-002
9.381618e-002
9.859863e-002
1.027575e-001
1.063541e-001
1.094539e-001
1.121206e-001
1.144139e-001
1.163873e-001
1.180883e-001
1.195585e-001
1.208335e-001
1.219440e-001
1.229161e-001
1.237716e-001
1.245288e-001
1.252028e-001
1.258056e-001
1.263471e-001
1.268345e-001
1.272730e-001
1.276659e-001
1.280149e-001
1.283204e-001
1.285816e-001
1.287965e-001
1.289620e-001
1.290739e-001
1.291261e-001
1.291111e-001
1.290186e-001
1.288352e-001
1.285425e-001
1.281162e-001
1.275227e-001
1.267167e-001
1.256371e-001
1.242027e-001
1.223073e-001
1.198160e-001
1.165636e-001
1.123602e-001
1.070070e-001
1.003305e-001
9.223413e-002
8.276257e-002
7.216030e-002
6.089592e-002
4.962521e-002
3.908233e-002
2.992288e-002
2.257557e-002
1.716386e-002
1.352598e-002
1.131279e-002
1.011186e-002
9.548171e-003
9.337403e-003
9.294719e-003
9.316364e-003
9.352708e-003
9.384593e-003
9.407349e-003
9.421871e-003
9.430459e-003
9.435239e-003
9.437750e-003
9.438972e-003
9.439459e-003
9.440034e-003
9.439963e-003
9.439772e-003
9.439337e-003
9.438422e-003
9.436596e-003
9.433122e-003
9.426804e-003
9.415837e-003
9.397780e-003
9.369983e-003
9.331222e-003
9.285957e-003
9.253393e-003
9.283668e-003
9.481584e-003
1.003323e-002
1.122314e-002
1.342356e-002
1.703960e-002
2.241013e-002
2.969040e-002
3.876386e-002
4.922858e-002
6.047188e-002
7.180425e-002
8.259850e-002
9.238730e-002
1.009004e-001
1.080500e-001
1.138864e-001
1.185442e-001
1.221961e-001
1.250201e-001
1.271812e-001
1.288227e-001
1.300640e-001
1.310011e-001
1.317095e-001
1.322468e-001
1.326567e-001
1.329713e-001
1.332143e-001
1.334032e-001
1.335503e-001
1.336650e-001
1.337539e-001
1.338221e-001
1.338734e-001
1.339110e-001
1.339372e-001
1.339540e-001
1.339629e-001
1.339654e-001
1.339627e-001
1.339559e-001
1.339462e-001
1.339342e-001
1.339203e-001
1.339041e-001
1.338846e-001
1.338599e-001
1.338270e-001
1.337815e-001
1.337163e-001
1.336218e-001
1.334833e-001
1.332798e-001
1.329805e-001
1.325389e-001
1.318844e-001
1.309070e-001
1.294362e-001
1.272161e-001
1.238878e-001
1.190050e-001
1.121071e-001
1.028649e-001
9.126888e-002
7.778502e-002
6.337150e-002
4.929484e-002
3.679057e-002
2.671925e-002
1.938214e-002
1.456175e-002
1.172177e-002
1.023972e-002
9.574569e-003
9.338635e-003
9.295152e-003
9.319902e-003
9.357759e-003
9.389406e-003
9.411105e-003
9.424457e-003
9.432080e-003
9.436163e-003
9.438182e-003
9.438997e-003
9.439975e-003
9.439846e-003
9.439506e-003
9.438760e-003
9.437232e-003
9.434248e-003
9.428675e-003
9.418724e-003
9.401835e-003
9.374957e-003
9.336020e-003
9.288341e-003
9.251010e-003
9.279428e-003
9.499048e-003
1.014919e-002
1.162095e-002
1.445761e-002
1.927955e-002
2.661574e-002
3.667665e-002
4.916629e-002
6.325079e-002
7.773580e-002
9.138610e-002
1.032388e-001
1.127807e-001
1.199512e-001
1.250191e-001
1.284169e-001
1.305997e-001
1.319580e-001
1.327862e-001
1.332874e-001
1.335939e-001
1.337880e-001
1.339179e-001
1.340101e-001
1.340771e-001
1.341240e-001
1.341523e-001
1.341627e-001
1.341559e-001
1.341332e-001
1.340967e-001
1.340484e-001
1.339909e-001
1.339262e-001
1.338566e-001
1.337840e-001
1.337101e-001
1.336366e-001
1.335649e-001
1.334969e-001
1.334347e-001
1.333808e-001
1.333387e-001
1.333123e-001
1.333062e-001
1.333256e-001
1.333764e-001
1.334641e-001
1.335940e-001
1.337697e-001
1.339913e-001
1.342533e-001
1.345421e-001
1.348321e-001
1.350838e-001
1.352429e-001
1.352442e-001
1.350222e-001
1.345235e-001
1.337094e-001
1.325219e-001
1.307923e-001
1.281089e-001
1.237304e-001
1.166896e-001
1.061907e-001
9.217087e-002
7.564160e-002
5.849086e-002
4.280449e-002
3.011509e-002
2.100428e-002
1.518720e-002
1.189114e-002
1.025112e-002
9.556357e-003
9.329105e-003
9.296984e-003
9.327267e-003
9.365853e-003
9.396001e-003
9.415713e-003
9.427358e-003
9.433734e-003
9.436939e-003
9.438247e-003
9.439849e-003
9.439629e-003
9.439064e-003
9.437850e-003
9.435414e-003
9.430741e-003
9.422161e-003
9.407146e-003
9.382392e-003
9.344936e-003
9.296110e-003
9.251976e-003
9.266174e-003
9.471797e-003
1.014355e-002
1.176468e-002
1.505460e-002
2.088740e-002
3.004187e-002
4.280689e-002
5.861041e-002
7.593927e-002
9.272079e-002
1.070383e-001
1.177891e-001
1.249190e-001
1.291593e-001
1.315151e-001
1.328409e-001
1.336656e-001
1.342213e-001
1.345612e-001
1.346746e-001
1.345556e-001
1.342226e-001
1.337120e-001
1.330665e-001
1.323258e-001
1.315234e-001
1.306864e-001
1.298358e-001
1.289876e-001
1.281534e-001
1.273414e-001
1.265562e-001
1.258000e-001
1.250732e-001
1.243747e-001
1.237028e-001
1.230559e-001
1.224326e-001
1.218326e-001
1.212567e-001
1.207077e-001
1.201905e-001
1.197124e-001
1.192837e-001
1.189172e-001
1.186293e-001
1.184392e-001
1.183694e-001
1.184457e-001
1.186968e-001
1.191535e-001
1.198476e-001
1.208096e-001
1.220651e-001
1.236287e-001
1.254952e-001
1.276268e-001
1.299366e-001
1.322704e-001
1.343929e-001
1.359933e-001
1.367348e-001
1.363734e-001
1.349043e-001
1.325377e-001
1.292627e-001
1.242233e-001
1.157485e-001
1.025116e-001
8.492820e-002
6.536760e-002
4.696120e-002
3.209632e-002
2.166188e-002
1.524157e-002
1.177261e-002
1.014274e-002
9.500545e-003
9.314068e-003
9.302104e-003
9.338356e-003
9.376222e-003
9.403613e-003
9.420605e-003
9.430175e-003
9.435070e-003
9.437091e-003
9.439626e-003
9.439274e-003
9.438379e-003
9.436493e-003
9.432767e-003
9.425735e-003
9.413048e-003
9.391376e-003
9.357050e-003
9.309119e-003
9.258498e-003
9.250243e-003
9.409006e-003
1.001554e-002
1.160543e-002
1.504176e-002
2.145889e-002
3.195075e-002
4.696874e-002
6.565337e-002
8.561644e-002
1.036490e-001
1.171932e-001
1.255958e-001
1.300866e-001
1.325213e-001
1.341081e-001
1.351053e-001
1.353078e-001
1.345634e-001
1.329357e-001
1.306304e-001
1.278882e-001
1.249222e-001
1.218952e-001
1.189196e-001
1.160658e-001
1.133736e-001
1.108621e-001
1.085371e-001
1.063957e-001
1.044296e-001
1.026272e-001
1.009746e-001
9.945661e-002
9.805785e-002
9.676318e-002
9.555851e-002
9.443135e-002
9.337122e-002
9.237001e-002
9.142232e-002
9.052562e-002
8.968060e-002
8.889129e-002
8.816525e-002
8.751374e-002
8.695180e-002
8.649851e-002
8.617717e-002
8.601574e-002
8.604736e-002
8.631093e-002
8.685190e-002
8.772304e-002
8.898511e-002
9.070713e-002
9.296550e-002
9.584089e-002
9.941092e-002
1.037355e-001
1.088308e-001
1.146257e-001
1.208975e-001
1.271923e-001
1.327659e-001
1.366411e-001
1.379271e-001
1.364250e-001
1.329428e-001
1.282149e-001
1.210384e-001
1.087861e-001
9.061523e-002
6.912733e-002
4.859331e-002
3.226660e-002
2.120209e-002
1.471208e-002
1.140136e-002
9.949103e-003
9.427261e-003
9.301616e-003
9.312223e-003
9.352534e-003
9.387808e-003
9.411385e-003
9.425171e-003
9.432379e-003
9.435390e-003
9.439272e-003
9.438733e-003
9.437378e-003
9.434564e-003
9.429083e-003
9.418896e-003
9.400879e-003
9.371035e-003
9.326442e-003
9.272223e-003
9.240534e-003
9.333737e-003
9.806310e-003
1.118880e-002
1.441516e-002
2.083378e-002
3.190002e-002
4.839278e-002
6.934404e-002
9.148549e-002
1.102960e-001
1.226893e-001
1.291476e-001
1.325569e-001
1.348770e-001
1.358941e-001
1.347432e-001
1.312726e-001
1.260521e-001
1.198717e-001
1.134022e-001
1.070937e-001
1.011986e-001
9.582984e-002
9.101459e-002
8.673299e-002
8.294267e-002
7.959337e-002
7.663449e-002
7.401867e-002
7.170285e-002
6.964829e-002
6.782022e-002
6.618738e-002
6.472171e-002
6.339824e-002
6.219498e-002
6.109294e-002
6.007613e-002
5.913155e-002
5.824922e-002
5.742216e-002
5.664634e-002
5.592072e-002
5.524725e-002
5.463082e-002
5.407936e-002
5.360381e-002
5.321836e-002
5.294065e-002
5.279227e-002
5.279941e-002
5.299387e-002
5.341441e-002
5.410858e-002
5.513513e-002
5.656715e-002
5.849566e-002
6.103366e-002
6.431963e-002
6.851875e-002
7.381814e-002
8.040883e-002
8.844160e-002
9.793716e-002
1.086299e-001
1.197463e-001
1.298060e-001
1.367294e-001
1.387343e-001
1.359765e-001
1.307193e-001
1.236807e-001
1.117355e-001
9.269024e-002
6.944163e-002
4.745667e-002
3.059734e-002
1.973734e-002
1.373817e-002
1.088047e-002
9.726553e-003
9.360000e-003
9.298473e-003
9.327648e-003
9.368525e-003
9.399395e-003
9.418428e-003
9.428654e-003
9.432987e-003
9.438750e-003
9.437959e-003
9.435989e-003
9.431944e-003
9.424171e-003
9.409954e-003
9.385389e-003
9.346334e-003
9.292923e-003
9.243676e-003
9.271354e-003
9.579344e-003
1.063511e-002
1.334451e-002
1.916027e-002
2.987602e-002
4.678988e-002
6.923293e-002
9.338992e-002
1.133412e-001
1.252494e-001
1.308756e-001
1.343267e-001
1.361755e-001
1.343595e-001
1.281772e-001
1.188900e-001
1.083069e-001
9.782089e-002
8.821198e-002
7.979085e-002
7.259091e-002
6.651124e-002
6.140179e-002
5.710738e-002
5.348724e-002
5.042163e-002
4.781210e-002
4.557903e-002
4.365825e-002
4.199780e-002
4.055510e-002
3.929482e-002
3.818731e-002
3.720748e-002
3.633407e-002
3.554910e-002
3.483755e-002
3.418708e-002
3.358781e-002
3.303220e-002
3.251485e-002
3.203246e-002
3.158366e-002
3.116900e-002
3.079084e-002
3.045336e-002
3.016258e-002
2.992642e-002
2.975488e-002
2.966043e-002
2.965848e-002
2.976822e-002
3.001371e-002
3.042560e-002
3.104348e-002
3.191915e-002
3.312125e-002
3.474154e-002
3.690328e-002
3.977191e-002
4.356765e-002
4.857707e-002
5.515620e-002
6.370697e-002
7.459258e-002
8.793778e-002
1.032604e-001
1.189655e-001
1.320349e-001
1.388167e-001
1.378329e-001
1.321162e-001
1.245716e-001
1.119596e-001
9.124784e-002
6.630047e-002
4.373665e-002
2.743157e-002
1.760646e-002
1.255675e-002
1.033790e-002
9.529375e-003
9.315730e-003
9.307112e-003
9.346936e-003
9.384615e-003
9.409716e-003
9.423695e-003
9.429722e-003
9.438026e-003
9.436908e-003
9.434147e-003
9.428534e-003
9.417888e-003
9.398756e-003
9.366630e-003
9.318332e-003
9.261054e-003
9.238333e-003
9.392139e-003
1.008668e-002
1.210399e-002
1.684625e-002
2.630997e-002
4.240020e-002
6.526093e-002
9.128697e-002
1.133543e-001
1.260369e-001
1.316289e-001
1.352461e-001
1.357366e-001
1.297013e-001
1.176811e-001
1.028439e-001
8.807616e-002
7.497789e-002
6.408023e-002
5.531771e-002
4.838226e-002
4.291644e-002
3.859684e-002
3.515917e-002
3.239781e-002
3.015674e-002
2.831885e-002
2.679655e-002
2.552408e-002
2.445159e-002
2.354078e-002
2.276169e-002
2.209050e-002
2.150791e-002
2.099816e-002
2.054825e-002
2.014748e-002
1.978708e-002
1.945996e-002
1.916051e-002
1.888444e-002
1.862869e-002
1.839126e-002
1.817122e-002
1.796854e-002
1.778413e-002
1.761976e-002
1.747807e-002
1.736261e-002
1.727795e-002
1.722984e-002
1.722553e-002
1.727422e-002
1.738775e-002
1.758163e-002
1.787659e-002
1.830080e-002
1.889329e-002
1.970895e-002
2.082615e-002
2.235797e-002
2.446897e-002
2.739864e-002
3.149177e-002
3.722944e-002
4.524017e-002
5.624175e-002
7.082009e-002
8.891964e-002
1.089990e-001
1.272256e-001
1.380922e-001
1.384761e-001
1.322484e-001
1.239448e-001
1.095252e-001
8.624718e-002
5.998957e-002
3.803572e-002
2.339750e-002
1.526074e-002
1.141493e-002
9.879321e-003
9.391110e-003
9.299993e-003
9.325506e-003
9.367455e-003
9.398941e-003
9.417338e-003
9.425444e-003
9.437074e-003
9.435548e-003
9.431805e-003
9.424271e-003
9.410171e-003
9.385331e-003
9.345068e-003
9.289055e-003
9.237624e-003
9.275729e-003
9.652246e-003
1.096414e-002
1.441176e-002
2.196367e-002
3.599665e-002
5.780490e-002
8.501660e-002
1.102066e-001
1.254100e-001
1.315484e-001
1.352628e-001
1.346978e-001
1.250098e-001
1.079549e-001
8.867326e-002
7.104439e-002
5.669381e-002
4.573843e-002
3.764190e-002
3.172908e-002
2.740542e-002
2.421403e-002
2.182541e-002
2.000876e-002
1.860397e-002
1.749986e-002
1.661875e-002
1.590579e-002
1.532173e-002
1.483806e-002
1.443362e-002
1.409240e-002
1.380204e-002
1.355279e-002
1.333688e-002
1.314801e-002
1.298113e-002
1.283213e-002
1.269775e-002
1.257541e-002
1.246318e-002
1.235963e-002
1.226384e-002
1.217529e-002
1.209389e-002
1.201988e-002
1.195387e-002
1.189679e-002
1.184993e-002
1.181498e-002
1.179410e-002
1.179004e-002
1.180639e-002
1.184785e-002
1.192077e-002
1.203388e-002
1.219948e-002
1.243530e-002
1.276739e-002
1.323494e-002
1.389801e-002
1.485039e-002
1.624072e-002
1.830576e-002
2.141972e-002
2.615722e-002
3.334828e-002
4.405745e-002
5.934043e-002
7.955533e-002
1.030971e-001
1.250684e-001
1.380354e-001
1.380955e-001
1.310874e-001
1.216510e-001
1.039529e-001
7.767876e-002
5.121859e-002
3.130077e-002
1.923573e-002
1.311820e-002
1.049124e-002
9.559254e-003
9.318980e-003
9.308190e-003
9.348878e-003
9.386200e-003
9.409488e-003
9.420031e-003
9.435878e-003
9.433861e-003
9.428945e-003
9.419148e-003
9.401064e-003
9.369919e-003
9.321602e-003
9.261394e-003
9.230970e-003
9.377429e-003
1.010075e-002
1.230566e-002
1.769169e-002
2.876156e-002
4.786120e-002
7.463715e-002
1.030437e-001
1.229119e-001
1.308198e-001
1.345701e-001
1.343388e-001
1.230747e-001
1.024377e-001
7.954350e-002
5.960739e-002
4.444340e-002
3.376453e-002
2.653901e-002
2.172046e-002
1.849710e-002
1.630927e-002
1.479270e-002
1.371599e-002
1.293268e-002
1.234929e-002
1.190522e-002
1.156047e-002
1.128810e-002
1.106961e-002
1.089201e-002
1.074597e-002
1.062463e-002
1.052279e-002
1.043648e-002
1.036258e-002
1.029862e-002
1.024263e-002
1.019307e-002
1.014869e-002
1.010854e-002
1.007189e-002
1.003820e-002
1.000713e-002
9.978450e-003
9.952087e-003
9.928074e-003
9.906555e-003
9.887773e-003
9.872079e-003
9.859939e-003
9.851962e-003
9.848946e-003
9.851951e-003
9.862415e-003
9.882347e-003
9.914619e-003
9.963450e-003
1.003520e-002
1.013973e-002
1.029268e-002
1.051967e-002
1.086376e-002
1.139912e-002
1.225560e-002
1.366165e-002
1.601411e-002
1.997783e-002
2.659094e-002
3.727948e-002
5.355325e-002
7.602769e-002
1.025867e-001
1.266113e-001
1.387921e-001
1.365385e-001
1.287724e-001
1.169824e-001
9.452191e-002
6.602079e-002
4.118813e-002
2.461591e-002
1.558483e-002
1.144743e-002
9.859072e-003
9.379645e-003
9.300362e-003
9.330449e-003
9.371827e-003
9.400139e-003
9.413406e-003
9.434437e-003
9.431852e-003
9.425588e-003
9.413220e-003
9.390727e-003
9.352969e-003
9.297481e-003
9.238708e-003
9.249564e-003
9.562720e-003
1.077495e-002
1.416402e-002
2.196069e-002
3.703455e-002
6.107037e-002
9.100125e-002
1.169265e-001
1.294448e-001
1.333513e-001
1.345972e-001
1.248463e-001
1.026968e-001
7.668569e-002
5.416475e-002
3.775114e-002
2.696348e-002
2.028354e-002
1.626128e-002
1.384889e-002
1.238189e-002
1.146662e-002
1.087701e-002
1.048407e-002
1.021343e-002
1.002125e-002
9.880987e-003
9.776104e-003
9.696008e-003
9.633727e-003
9.584548e-003
9.545198e-003
9.513340e-003
9.487263e-003
9.465682e-003
9.447616e-003
9.432306e-003
9.419160e-003
9.407716e-003
9.397616e-003
9.388584e-003
9.380410e-003
9.372940e-003
9.366066e-003
9.359714e-003
9.353842e-003
9.348431e-003
9.343484e-003
9.339020e-003
9.335074e-003
9.331697e-003
9.328965e-003
9.326980e-003
9.325898e-003
9.325946e-003
9.327481e-003
9.331067e-003
9.337619e-003
9.348660e-003
9.366786e-003
9.396563e-003
9.446270e-003
9.531416e-003
9.681890e-003
9.956456e-003
1.047154e-002
1.145581e-002
1.334561e-002
1.692937e-002
2.350743e-002
3.491739e-002
5.306490e-002
7.844010e-002
1.075357e-001
1.311209e-001
1.390834e-001
1.337057e-001