# vtk DataFile Version 3.0
vtk output
ASCII
DATASET STRUCTURED_POINTS
DIMENSIONS 100 100 1
SPACING 1 1 1
ORIGIN 0 0 0
POINT_DATA 10000
SCALARS SFBox_profile double
LOOKUP_TABLE default 
9.439920e-003
9.439920e-003
9.439920e-003
9.439920e-003
9.439920e-003
9.439921e-003
9.439922e-003
9.439924e-003
9.439927e-003
9.439930e-003
9.439932e-003
9.439935e-003
9.439938e-003
9.439942e-003
9.439949e-003
9.439957e-003
9.439966e-003
9.439973e-003
9.439977e-003
9.439977e-003
9.439971e-003
9.439961e-003
9.439944e-003
9.439921e-003
9.439888e-003
9.439846e-003
9.439792e-003
9.439727e-003
9.439652e-003
9.439569e-003
9.439478e-003
9.439381e-003
9.439279e-003
9.439171e-003
9.439060e-003
9.438946e-003
9.438831e-003
9.438717e-003
9.438605e-003
9.438496e-003
9.438390e-003
9.438287e-003
9.438189e-003
9.438094e-003
9.438005e-003
9.437922e-003
9.437845e-003
9.437774e-003
9.437711e-003
9.437656e-003
9.437611e-003
9.437576e-003
9.437552e-003
9.437543e-003
9.437550e-003
9.437573e-003
9.437614e-003
9.437674e-003
9.437754e-003
9.437854e-003
9.437974e-003
9.438113e-003
9.438268e-003
9.438436e-003
9.438611e-003
9.438791e-003
9.438968e-003
9.439140e-003
9.439301e-003
9.439449e-003
9.439578e-003
9.439688e-003
9.439776e-003
9.439843e-003
9.439891e-003
9.439924e-003
9.439946e-003
9.439958e-003
9.439964e-003
9.439964e-003
9.439959e-003
9.439952e-003
9.439944e-003
9.439937e-003
9.439933e-003
9.439931e-003
9.439929e-003
9.439927e-003
9.439923e-003
9.439918e-003
9.439914e-003
9.439914e-003
9.439917e-003
9.439922e-003
9.439927e-003
9.439929e-003
9.439927e-003
9.439921e-003
9.439915e-003
9.439911e-003
9.439920e-003
9.439920e-003
9.439920e-003
9.439920e-003
9.439920e-003
9.439921e-003
9.439922e-003
9.439924e-003
9.439927e-003
9.439930e-003
9.439932e-003
9.439935e-003
9.439938e-003
9.439942e-003
9.439949e-003
9.439957e-003
9.439966e-003
9.439973e-003
9.439977e-003
9.439977e-003
9.439971e-003
9.439961e-003
9.439944e-003
9.439921e-003
9.439888e-003
9.439846e-003
9.439792e-003
9.439727e-003
9.439652e-003
9.439569e-003
9.439478e-003
9.439381e-003
9.439279e-003
9.439171e-003
9.439060e-003
9.438946e-003
9.438831e-003
9.438717e-003
9.438605e-003
9.438496e-003
9.438390e-003
9.438287e-003
9.438189e-003
9.438094e-003
9.438005e-003
9.437922e-003
9.437845e-003
9.437774e-003
9.437711e-003
9.437656e-003
9.437611e-003
9.437576e-003
9.437552e-003
9.437543e-003
9.437550e-003
9.437573e-003
9.437614e-003
9.437674e-003
9.437754e-003
9.437854e-003
9.437974e-003
9.438113e-003
9.438268e-003
9.438436e-003
9.438611e-003
9.438791e-003
9.438968e-003
9.439140e-003
9.439301e-003
9.439449e-003
9.439578e-003
9.439688e-003
9.439776e-003
9.439843e-003
9.439891e-003
9.439924e-003
9.439946e-003
9.439958e-003
9.439964e-003
9.439964e-003
9.439959e-003
9.439952e-003
9.439944e-003
9.439937e-003
9.439933e-003
9.439931e-003
9.439929e-003
9.439927e-003
9.439923e-003
9.439918e-003
9.439914e-003
9.439914e-003
9.439917e-003
9.439922e-003
9.439927e-003
9.439929e-003
9.439927e-003
9.439921e-003
9.439915e-003
9.439911e-003
9.439920e-003
9.439920e-003
9.439920e-003
9.439921e-003
9.439921e-003
9.439922e-003
9.439923e-003
9.439925e-003
9.439928e-003
9.439931e-003
9.439935e-003
9.439939e-003
9.439943e-003
9.439948e-003
9.439953e-003
9.439959e-003
9.439963e-003
9.439963e-003
9.439957e-003
9.439941e-003
9.439915e-003
9.439877e-003
9.439826e-003
9.439758e-003
9.439674e-003
9.439570e-003
9.439447e-003
9.439305e-003
9.439145e-003
9.438971e-003
9.438785e-003
9.438588e-003
9.438383e-003
9.438171e-003
9.437956e-003
9.437739e-003
9.437522e-003
9.437309e-003
9.437100e-003
9.436897e-003
9.436701e-003
9.436513e-003
9.436333e-003
9.436162e-003
9.436002e-003
9.435852e-003
9.435714e-003
9.435589e-003
9.435477e-003
9.435381e-003
9.435302e-003
9.435241e-003
9.435203e-003
9.435189e-003
9.435203e-003
9.435247e-003
9.435323e-003
9.435434e-003
9.435582e-003
9.435766e-003
9.435986e-003
9.436241e-003
9.436527e-003
9.436837e-003
9.437165e-003
9.437502e-003
9.437841e-003
9.438172e-003
9.438487e-003
9.438778e-003
9.439040e-003
9.439266e-003
9.439455e-003
9.439607e-003
9.439725e-003
9.439811e-003
9.439872e-003
9.439913e-003
9.439938e-003
9.439950e-003
9.439953e-003
9.439950e-003
9.439945e-003
9.439939e-003
9.439935e-003
9.439932e-003
9.439930e-003
9.439928e-003
9.439924e-003
9.439921e-003
9.439917e-003
9.439917e-003
9.439918e-003
9.439921e-003
9.439924e-003
9.439925e-003
9.439924e-003
9.439921e-003
9.439917e-003
9.439915e-003
9.439921e-003
9.439921e-003
9.439922e-003
9.439922e-003
9.439923e-003
9.439923e-003
9.439925e-003
9.439927e-003
9.439931e-003
9.439935e-003
9.439941e-003
9.439947e-003
9.439952e-003
9.439956e-003
9.439957e-003
9.439953e-003
9.439942e-003
9.439920e-003
9.439881e-003
9.439821e-003
9.439735e-003
9.439618e-003
9.439467e-003
9.439278e-003
9.439050e-003
9.438780e-003
9.438469e-003
9.438119e-003
9.437735e-003
9.437321e-003
9.436883e-003
9.436425e-003
9.435954e-003
9.435474e-003
9.434991e-003
9.434510e-003
9.434034e-003
9.433567e-003
9.433113e-003
9.432675e-003
9.432253e-003
9.431850e-003
9.431468e-003
9.431107e-003
9.430769e-003
9.430455e-003
9.430167e-003
9.429906e-003
9.429676e-003
9.429478e-003
9.429316e-003
9.429195e-003
9.429119e-003
9.429095e-003
9.429128e-003
9.429225e-003
9.429389e-003
9.429627e-003
9.429941e-003
9.430334e-003
9.430805e-003
9.431350e-003
9.431963e-003
9.432633e-003
9.433346e-003
9.434087e-003
9.434837e-003
9.435577e-003
9.436290e-003
9.436957e-003
9.437565e-003
9.438101e-003
9.438560e-003
9.438940e-003
9.439243e-003
9.439477e-003
9.439649e-003
9.439771e-003
9.439853e-003
9.439902e-003
9.439929e-003
9.439941e-003
9.439943e-003
9.439941e-003
9.439938e-003
9.439935e-003
9.439933e-003
9.439930e-003
9.439928e-003
9.439925e-003
9.439923e-003
9.439921e-003
9.439920e-003
9.439920e-003
9.439920e-003
9.439920e-003
9.439920e-003
9.439920e-003
9.439920e-003
9.439920e-003
9.439921e-003
9.439922e-003
9.439923e-003
9.439924e-003
9.439926e-003
9.439927e-003
9.439929e-003
9.439931e-003
9.439936e-003
9.439942e-003
9.439949e-003
9.439956e-003
9.439959e-003
9.439955e-003
9.439942e-003
9.439913e-003
9.439862e-003
9.439781e-003
9.439659e-003
9.439486e-003
9.439251e-003
9.438944e-003
9.438556e-003
9.438083e-003
9.437520e-003
9.436870e-003
9.436135e-003
9.435321e-003
9.434438e-003
9.433498e-003
9.432511e-003
9.431492e-003
9.430452e-003
9.429404e-003
9.428357e-003
9.427322e-003
9.426307e-003
9.425318e-003
9.424361e-003
9.423441e-003
9.422562e-003
9.421727e-003
9.420938e-003
9.420197e-003
9.419505e-003
9.418866e-003
9.418282e-003
9.417756e-003
9.417292e-003
9.416895e-003
9.416574e-003
9.416335e-003
9.416190e-003
9.416148e-003
9.416223e-003
9.416425e-003
9.416767e-003
9.417258e-003
9.417906e-003
9.418716e-003
9.419690e-003
9.420820e-003
9.422095e-003
9.423498e-003
9.425002e-003
9.426576e-003
9.428185e-003
9.429788e-003
9.431347e-003
9.432822e-003
9.434182e-003
9.435399e-003
9.436457e-003
9.437349e-003
9.438075e-003
9.438647e-003
9.439081e-003
9.439397e-003
9.439617e-003
9.439762e-003
9.439852e-003
9.439903e-003
9.439929e-003
9.439940e-003
9.439942e-003
9.439940e-003
9.439937e-003
9.439934e-003
9.439931e-003
9.439929e-003
9.439928e-003
9.439925e-003
9.439922e-003
9.439919e-003
9.439916e-003
9.439915e-003
9.439916e-003
9.439919e-003
9.439923e-003
9.439925e-003
9.439921e-003
9.439923e-003
9.439925e-003
9.439927e-003
9.439930e-003
9.439932e-003
9.439935e-003
9.439939e-003
9.439945e-003
9.439951e-003
9.439957e-003
9.439958e-003
9.439950e-003
9.439923e-003
9.439869e-003
9.439775e-003
9.439625e-003
9.439401e-003
9.439083e-003
9.438646e-003
9.438070e-003
9.437335e-003
9.436424e-003
9.435331e-003
9.434053e-003
9.432595e-003
9.430970e-003
9.429196e-003
9.427295e-003
9.425292e-003
9.423215e-003
9.421091e-003
9.418946e-003
9.416804e-003
9.414686e-003
9.412610e-003
9.410590e-003
9.408639e-003
9.406766e-003
9.404977e-003
9.403280e-003
9.401677e-003
9.400172e-003
9.398767e-003
9.397463e-003
9.396264e-003
9.395174e-003
9.394197e-003
9.393341e-003
9.392615e-003
9.392031e-003
9.391604e-003
9.391351e-003
9.391293e-003
9.391451e-003
9.391846e-003
9.392501e-003
9.393436e-003
9.394667e-003
9.396207e-003
9.398060e-003
9.400221e-003
9.402674e-003
9.405391e-003
9.408331e-003
9.411439e-003
9.414650e-003
9.417889e-003
9.421078e-003
9.424136e-003
9.426993e-003
9.429587e-003
9.431875e-003
9.433833e-003
9.435454e-003
9.436752e-003
9.437755e-003
9.438502e-003
9.439036e-003
9.439402e-003
9.439641e-003
9.439788e-003
9.439874e-003
9.439919e-003
9.439938e-003
9.439943e-003
9.439941e-003
9.439937e-003
9.439934e-003
9.439933e-003
9.439931e-003
9.439929e-003
9.439925e-003
9.439919e-003
9.439914e-003
9.439912e-003
9.439914e-003
9.439919e-003
9.439925e-003
9.439928e-003
9.439922e-003
9.439924e-003
9.439927e-003
9.439930e-003
9.439935e-003
9.439940e-003
9.439945e-003
9.439951e-003
9.439956e-003
9.439959e-003
9.439955e-003
9.439937e-003
9.439893e-003
9.439805e-003
9.439650e-003
9.439401e-003
9.439024e-003
9.438478e-003
9.437722e-003
9.436710e-003
9.435401e-003
9.433759e-003
9.431761e-003
9.429398e-003
9.426678e-003
9.423622e-003
9.420267e-003
9.416657e-003
9.412846e-003
9.408890e-003
9.404847e-003
9.400772e-003
9.396714e-003
9.392718e-003
9.388820e-003
9.385049e-003
9.381428e-003
9.377973e-003
9.374695e-003
9.371602e-003
9.368698e-003
9.365985e-003
9.363462e-003
9.361130e-003
9.358987e-003
9.357036e-003
9.355279e-003
9.353722e-003
9.352374e-003
9.351249e-003
9.350361e-003
9.349734e-003
9.349392e-003
9.349363e-003
9.349682e-003
9.350380e-003
9.351494e-003
9.353057e-003
9.355103e-003
9.357657e-003
9.360738e-003
9.364354e-003
9.368497e-003
9.373142e-003
9.378240e-003
9.383721e-003
9.389487e-003
9.395417e-003
9.401370e-003
9.407197e-003
9.412749e-003
9.417890e-003
9.422511e-003
9.426536e-003
9.429928e-003
9.432693e-003
9.434866e-003
9.436514e-003
9.437716e-003
9.438560e-003
9.439128e-003
9.439493e-003
9.439716e-003
9.439842e-003
9.439907e-003
9.439934e-003
9.439941e-003
9.439940e-003
9.439937e-003
9.439935e-003
9.439934e-003
9.439931e-003
9.439927e-003
9.439921e-003
9.439916e-003
9.439913e-003
9.439914e-003
9.439919e-003
9.439924e-003
9.439928e-003
9.439925e-003
9.439927e-003
9.439930e-003
9.439935e-003
9.439942e-003
9.439949e-003
9.439957e-003
9.439963e-003
9.439963e-003
9.439953e-003
9.439922e-003
9.439852e-003
9.439718e-003
9.439484e-003
9.439101e-003
9.438509e-003
9.437638e-003
9.436407e-003
9.434734e-003
9.432535e-003
9.429740e-003
9.426298e-003
9.422184e-003
9.417407e-003
9.412012e-003
9.406071e-003
9.399682e-003
9.392960e-003
9.386025e-003
9.378997e-003
9.371988e-003
9.365099e-003
9.358413e-003
9.351998e-003
9.345904e-003
9.340164e-003
9.334799e-003
9.329816e-003
9.325214e-003
9.320985e-003
9.317118e-003
9.313598e-003
9.310410e-003
9.307539e-003
9.304972e-003
9.302702e-003
9.300722e-003
9.299032e-003
9.297634e-003
9.296533e-003
9.295739e-003
9.295268e-003
9.295137e-003
9.295368e-003
9.295987e-003
9.297026e-003
9.298518e-003
9.300507e-003
9.303040e-003
9.306171e-003
9.309958e-003
9.314462e-003
9.319738e-003
9.325831e-003
9.332760e-003
9.340507e-003
9.349001e-003
9.358113e-003
9.367649e-003
9.377363e-003
9.386971e-003
9.396182e-003
9.404725e-003
9.412379e-003
9.418997e-003
9.424513e-003
9.428942e-003
9.432365e-003
9.434911e-003
9.436732e-003
9.437984e-003
9.438809e-003
9.439328e-003
9.439636e-003
9.439806e-003
9.439891e-003
9.439927e-003
9.439938e-003
9.439939e-003
9.439938e-003
9.439936e-003
9.439934e-003
9.439930e-003
9.439925e-003
9.439920e-003
9.439917e-003
9.439917e-003
9.439919e-003
9.439922e-003
9.439925e-003
9.439931e-003
9.439933e-003
9.439937e-003
9.439943e-003
9.439951e-003
9.439961e-003
9.439968e-003
9.439969e-003
9.439953e-003
9.439907e-003
9.439807e-003
9.439617e-003
9.439282e-003
9.438729e-003
9.437859e-003
9.436551e-003
9.434667e-003
9.432055e-003
9.428568e-003
9.424071e-003
9.418469e-003
9.411720e-003
9.403849e-003
9.394958e-003
9.385216e-003
9.374851e-003
9.364123e-003
9.353306e-003
9.342662e-003
9.332424e-003
9.322786e-003
9.313898e-003
9.305863e-003
9.298739e-003
9.292548e-003
9.287277e-003
9.282889e-003
9.279325e-003
9.276515e-003
9.274381e-003
9.272844e-003
9.271828e-003
9.271263e-003
9.271089e-003
9.271253e-003
9.271710e-003
9.272422e-003
9.273353e-003
9.274466e-003
9.275720e-003
9.277070e-003
9.278465e-003
9.279846e-003
9.281152e-003
9.282321e-003
9.283297e-003
9.284039e-003
9.284536e-003
9.284817e-003
9.284969e-003
9.285144e-003
9.285567e-003
9.286535e-003
9.288393e-003
9.291510e-003
9.296223e-003
9.302783e-003
9.311303e-003
9.321709e-003
9.333727e-003
9.346900e-003
9.360638e-003
9.374290e-003
9.387236e-003
9.398961e-003
9.409114e-003
9.417528e-003
9.424206e-003
9.429288e-003
9.432998e-003
9.435598e-003
9.437345e-003
9.438468e-003
9.439156e-003
9.439554e-003
9.439769e-003
9.439874e-003
9.439920e-003
9.439936e-003
9.439940e-003
9.439939e-003
9.439936e-003
9.439933e-003
9.439929e-003
9.439925e-003
9.439922e-003
9.439920e-003
9.439920e-003
9.439920e-003
9.439920e-003
9.439942e-003
9.439943e-003
9.439947e-003
9.439954e-003
9.439963e-003
9.439971e-003
9.439972e-003
9.439953e-003
9.439895e-003
9.439765e-003
9.439514e-003
9.439065e-003
9.438309e-003
9.437100e-003
9.435247e-003
9.432523e-003
9.428674e-003
9.423443e-003
9.416604e-003
9.407999e-003
9.397586e-003
9.385472e-003
9.371934e-003
9.357413e-003
9.342483e-003
9.327799e-003
9.314029e-003
9.301792e-003
9.291606e-003
9.283858e-003
9.278788e-003
9.276496e-003
9.276965e-003
9.280072e-003
9.285623e-003
9.293365e-003
9.303008e-003
9.314239e-003
9.326741e-003
9.340205e-003
9.354342e-003
9.368896e-003
9.383643e-003
9.398394e-003
9.412989e-003
9.427288e-003
9.441155e-003
9.454447e-003
9.466995e-003
9.478594e-003
9.488996e-003
9.497899e-003
9.504948e-003
9.509749e-003
9.511875e-003
9.510901e-003
9.506438e-003
9.498181e-003
9.485975e-003
9.469871e-003
9.450195e-003
9.427592e-003
9.403052e-003
9.377882e-003
9.353634e-003
9.331968e-003
9.314467e-003
9.302430e-003
9.296682e-003
9.297434e-003
9.304239e-003
9.316057e-003
9.331417e-003
9.348657e-003
9.366175e-003
9.382644e-003
9.397142e-003
9.409184e-003
9.418675e-003
9.425797e-003
9.430903e-003
9.434403e-003
9.436700e-003
9.438140e-003
9.438998e-003
9.439483e-003
9.439740e-003
9.439864e-003
9.439919e-003
9.439938e-003
9.439942e-003
9.439939e-003
9.439936e-003
9.439932e-003
9.439929e-003
9.439927e-003
9.439924e-003
9.439921e-003
9.439918e-003
9.439916e-003
9.439956e-003
9.439958e-003
9.439962e-003
9.439968e-003
9.439974e-003
9.439973e-003
9.439952e-003
9.439885e-003
9.439730e-003
9.439422e-003
9.438856e-003
9.437885e-003
9.436296e-003
9.433812e-003
9.430083e-003
9.424712e-003
9.417287e-003
9.407448e-003
9.394979e-003
9.379909e-003
9.362612e-003
9.343866e-003
9.324863e-003
9.307132e-003
9.292405e-003
9.282433e-003
9.278799e-003
9.282762e-003
9.295151e-003
9.316334e-003
9.346239e-003
9.384425e-003
9.430172e-003
9.482570e-003
9.540596e-003
9.603173e-003
9.669211e-003
9.737640e-003
9.807447e-003
9.877698e-003
9.947569e-003
1.001635e-002
1.008347e-002
1.014845e-002
1.021089e-002
1.027045e-002
1.032677e-002
1.037946e-002
1.042800e-002
1.047174e-002
1.050987e-002
1.054137e-002
1.056502e-002
1.057943e-002
1.058310e-002
1.057443e-002
1.055191e-002
1.051424e-002
1.046048e-002
1.039031e-002
1.030421e-002
1.020365e-002
1.009127e-002
9.970828e-003
9.847119e-003
9.725642e-003
9.612114e-003
9.511860e-003
9.429170e-003
9.366741e-003
9.325332e-003
9.303713e-003
9.298951e-003
9.306970e-003
9.323267e-003
9.343615e-003
9.364587e-003
9.383818e-003
9.400012e-003
9.412742e-003
9.422180e-003
9.428822e-003
9.433276e-003
9.436126e-003
9.437868e-003
9.438881e-003
9.439439e-003
9.439728e-003
9.439865e-003
9.439922e-003
9.439940e-003
9.439942e-003
9.439939e-003
9.439935e-003
9.439932e-003
9.439930e-003
9.439926e-003
9.439922e-003
9.439918e-003
9.439915e-003
9.439975e-003
9.439977e-003
9.439980e-003
9.439983e-003
9.439978e-003
9.439953e-003
9.439878e-003
9.439705e-003
9.439350e-003
9.438683e-003
9.437505e-003
9.435533e-003
9.432379e-003
9.427542e-003
9.420436e-003
9.410443e-003
9.397041e-003
9.379989e-003
9.359570e-003
9.336845e-003
9.313861e-003
9.293709e-003
9.280394e-003
9.278497e-003
9.292681e-003
9.327151e-003
9.385165e-003
9.468707e-003
9.578358e-003
9.713353e-003
9.871808e-003
1.005101e-002
1.024776e-002
1.045861e-002
1.068012e-002
1.090895e-002
1.114194e-002
1.137617e-002
1.160903e-002
1.183820e-002
1.206173e-002
1.227805e-002
1.248591e-002
1.268436e-002
1.287266e-002
1.305014e-002
1.321610e-002
1.336964e-002
1.350958e-002
1.363429e-002
1.374166e-002
1.382900e-002
1.389308e-002
1.393009e-002
1.393583e-002
1.390582e-002
1.383558e-002
1.372101e-002
1.355882e-002
1.334706e-002
1.308573e-002
1.277739e-002
1.242757e-002
1.204511e-002
1.164203e-002
1.123302e-002
1.083432e-002
1.046231e-002
1.013172e-002
9.853856e-003
9.635232e-003
9.476829e-003
9.374269e-003
9.318888e-003
9.299484e-003
9.304296e-003
9.322752e-003
9.346599e-003
9.370302e-003
9.390812e-003
9.406970e-003
9.418815e-003
9.426997e-003
9.432359e-003
9.435705e-003
9.437697e-003
9.438826e-003
9.439431e-003
9.439734e-003
9.439872e-003
9.439926e-003
9.439940e-003
9.439940e-003
9.439937e-003
9.439934e-003
9.439931e-003
9.439928e-003
9.439924e-003
9.439919e-003
9.439916e-003
9.439996e-003
9.439997e-003
9.439998e-003
9.439991e-003
9.439962e-003
9.439882e-003
9.439696e-003
9.439309e-003
9.438565e-003
9.437218e-003
9.434905e-003
9.431113e-003
9.425165e-003
9.416241e-003
9.403473e-003
9.386152e-003
9.364096e-003
9.338177e-003
9.310950e-003
9.287238e-003
9.274444e-003
9.282396e-003
9.322615e-003
9.407078e-003
9.546726e-003
9.750046e-003
1.002204e-002
1.036374e-002
1.077234e-002
1.124178e-002
1.176367e-002
1.232826e-002
1.292536e-002
1.354502e-002
1.417798e-002
1.481588e-002
1.545129e-002
1.607774e-002
1.668969e-002
1.728256e-002
1.785271e-002
1.839740e-002
1.891470e-002
1.940330e-002
1.986233e-002
2.029100e-002
2.068836e-002
2.105299e-002
2.138268e-002
2.167420e-002
2.192313e-002
2.212370e-002
2.226879e-002
2.234991e-002
2.235743e-002
2.228090e-002
2.210947e-002
2.183265e-002
2.144116e-002
2.092812e-002
2.029033e-002
1.952977e-002
1.865494e-002
1.768201e-002
1.663529e-002
1.554679e-002
1.445466e-002
1.340026e-002
1.242430e-002
1.156222e-002
1.083988e-002
1.027025e-002
9.852160e-003
9.571464e-003
9.404487e-003
9.322841e-003
9.298361e-003
9.306958e-003
9.330673e-003
9.357936e-003
9.382530e-003
9.402002e-003
9.416113e-003
9.425670e-003
9.431785e-003
9.435504e-003
9.437657e-003
9.438842e-003
9.439457e-003
9.439754e-003
9.439882e-003
9.439927e-003
9.439938e-003
9.439938e-003
9.439935e-003
9.439933e-003
9.439930e-003
9.439926e-003
9.439922e-003
9.439919e-003
9.440017e-003
9.440016e-003
9.440009e-003
9.439980e-003
9.439899e-003
9.439709e-003
9.439308e-003
9.438520e-003
9.437062e-003
9.434493e-003
9.430176e-003
9.423239e-003
9.412598e-003
9.397086e-003
9.375787e-003
9.348691e-003
9.317734e-003
9.288205e-003
9.270227e-003
9.279847e-003
9.339134e-003
9.474841e-003
9.715600e-003
1.008816e-002
1.061352e-002
1.130387e-002
1.216103e-002
1.317661e-002
1.433352e-002
1.560854e-002
1.697507e-002
1.840584e-002
1.987491e-002
2.135901e-002
2.283812e-002
2.429555e-002
2.571762e-002
2.709333e-002
2.841407e-002
2.967342e-002
3.086694e-002
3.199193e-002
3.304721e-002
3.403262e-002
3.494862e-002
3.579566e-002
3.657367e-002
3.728146e-002
3.791625e-002
3.847319e-002
3.894506e-002
3.932202e-002
3.959148e-002
3.973813e-002
3.974413e-002
3.958945e-002
3.925256e-002
3.871135e-002
3.794448e-002
3.693323e-002
3.566380e-002
3.413015e-002
3.233715e-002
3.030372e-002
2.806550e-002
2.567622e-002
2.320707e-002
2.074331e-002
1.837773e-002
1.620127e-002
1.429197e-002
1.270436e-002
1.146204e-002
1.055559e-002
9.946893e-003
9.578655e-003
9.386363e-003
9.309350e-003
9.298320e-003
9.318332e-003
9.347934e-003
9.376072e-003
9.398444e-003
9.414436e-003
9.425033e-003
9.431643e-003
9.435553e-003
9.437751e-003
9.438923e-003
9.439509e-003
9.439780e-003
9.439891e-003
9.439929e-003
9.439938e-003
9.439937e-003
9.439935e-003
9.439932e-003
9.439928e-003
9.439924e-003
9.439922e-003
9.440036e-003
9.440029e-003
9.440003e-003
9.439928e-003
9.439746e-003
9.439351e-003
9.438559e-003
9.437059e-003
9.434353e-003
9.429692e-003
9.422015e-003
9.409958e-003
9.392015e-003
9.367024e-003
9.335215e-003
9.300078e-003
9.271128e-003
9.267250e-003
9.319692e-003
9.473310e-003
9.784660e-003
1.031635e-002
1.112835e-002
1.226822e-002
1.376286e-002
1.561387e-002
1.779745e-002
2.026860e-002
2.296775e-002
2.582855e-002
2.878477e-002
3.177568e-002
3.474937e-002
3.766404e-002
4.048774e-002
4.319721e-002
4.577625e-002
4.821430e-002
5.050528e-002
5.264669e-002
5.463901e-002
5.648505e-002
5.818937e-002
5.975751e-002
6.119522e-002
6.250770e-002
6.369873e-002
6.476999e-002
6.572041e-002
6.654558e-002
6.723737e-002
6.778360e-002
6.816781e-002
6.836913e-002
6.836229e-002
6.811775e-002
6.760204e-002
6.677841e-002
6.560794e-002
6.405123e-002
6.207111e-002
5.963642e-002
5.672706e-002
5.334037e-002
4.949835e-002
4.525486e-002
4.070120e-002
3.596790e-002
3.122035e-002
2.664619e-002
2.243450e-002
1.874949e-002
1.570474e-002
1.334554e-002
1.164544e-002
1.051844e-002
9.842589e-003
9.487181e-003
9.335226e-003
9.296443e-003
9.310177e-003
9.341158e-003
9.372150e-003
9.396750e-003
9.414018e-003
9.425180e-003
9.431953e-003
9.435842e-003
9.437960e-003
9.439051e-003
9.439578e-003
9.439812e-003
9.439904e-003
9.439934e-003
9.439940e-003
9.439938e-003
9.439934e-003
9.439930e-003
9.439927e-003
9.439925e-003
9.440046e-003
9.440025e-003
9.439960e-003
9.439797e-003
9.439432e-003
9.438677e-003
9.437212e-003
9.434504e-003
9.429724e-003
9.421654e-003
9.408663e-003
9.388882e-003
9.360825e-003
9.324905e-003
9.286395e-003
9.260286e-003
9.277869e-003
9.393647e-003
9.689767e-003
1.027447e-002
1.127203e-002
1.280445e-002
1.496875e-002
1.781621e-002
2.133994e-002
2.547437e-002
3.010611e-002
3.509211e-002
4.027985e-002
4.552476e-002
5.070243e-002
5.571483e-002
6.049141e-002
6.498664e-002
6.917564e-002
7.304914e-002
7.660893e-002
7.986420e-002
8.282885e-002
8.551962e-002
8.795492e-002
9.015380e-002
9.213514e-002
9.391691e-002
9.551550e-002
9.694505e-002
9.821688e-002
9.933907e-002
1.003160e-001
1.011480e-001
1.018314e-001
1.023578e-001
1.027141e-001
1.028824e-001
1.028392e-001
1.025548e-001
1.019932e-001
1.011109e-001
9.985639e-002
9.816990e-002
9.598387e-002
9.322472e-002
8.981686e-002
8.568987e-002
8.078969e-002
7.509441e-002
6.863368e-002
6.150887e-002
5.390805e-002
4.610788e-002
3.845469e-002
3.132148e-002
2.504679e-002
1.987183e-002
1.589715e-002
1.307519e-002
1.124032e-002
1.016286e-002
9.605885e-003
9.367108e-003
9.298458e-003
9.305940e-003
9.338062e-003
9.371187e-003
9.397140e-003
9.414917e-003
9.426088e-003
9.432663e-003
9.436322e-003
9.438251e-003
9.439212e-003
9.439658e-003
9.439849e-003
9.439920e-003
9.439940e-003
9.439941e-003
9.439937e-003
9.439932e-003
9.439928e-003
9.439926e-003
9.440036e-003
9.439988e-003
9.439851e-003
9.439532e-003
9.438852e-003
9.437494e-003
9.434922e-003
9.430264e-003
9.422199e-003
9.408879e-003
9.388076e-003
9.357885e-003
9.318649e-003
9.277133e-003
9.254058e-003
9.295475e-003
9.486420e-003
9.962227e-003
1.091011e-002
1.255371e-002
1.511801e-002
1.878049e-002
2.362287e-002
2.960069e-002
3.654255e-002
4.417920e-002
5.219163e-002
6.026195e-002
6.811378e-002
7.553556e-002
8.238703e-002
8.859326e-002
9.413169e-002
9.901748e-002
1.032900e-001
1.070023e-001
1.102128e-001
1.129808e-001
1.153625e-001
1.174094e-001
1.191678e-001
1.206782e-001
1.219753e-001
1.230890e-001
1.240438e-001
1.248603e-001
1.255547e-001
1.261396e-001
1.266245e-001
1.270156e-001
1.273162e-001
1.275270e-001
1.276455e-001
1.276659e-001
1.275786e-001
1.273691e-001
1.270166e-001
1.264920e-001
1.257556e-001
1.247537e-001
1.234146e-001
1.216446e-001
1.193239e-001
1.163051e-001
1.124155e-001
1.074701e-001
1.012966e-001
9.377864e-002
8.491224e-002
7.486400e-002
6.400786e-002
5.291417e-002
4.227249e-002
3.275666e-002
2.487429e-002
1.886072e-002
1.466009e-002
1.199323e-002
1.047218e-002
9.710086e-003
9.392193e-003
9.300579e-003
9.305057e-003
9.338801e-003
9.373282e-003
9.399559e-003
9.417003e-003
9.427618e-003
9.433668e-003
9.436926e-003
9.438587e-003
9.439385e-003
9.439741e-003
9.439886e-003
9.439934e-003
9.439943e-003
9.439939e-003
9.439934e-003
9.439929e-003
9.439927e-003
9.439991e-003
9.439893e-003
9.439632e-003
9.439052e-003
9.437859e-003
9.435537e-003
9.431224e-003
9.423560e-003
9.410560e-003
9.389689e-003
9.358538e-003
9.316981e-003
9.272359e-003
9.249793e-003
9.309434e-003
9.569874e-003
1.023155e-002
1.158716e-002
1.400229e-002
1.785491e-002
2.343895e-002
3.086017e-002
3.996718e-002
5.035273e-002
6.143013e-002
7.255525e-002
8.314776e-002
9.277417e-002
1.011792e-001
1.082734e-001
1.140948e-001
1.187627e-001
1.224352e-001
1.252796e-001
1.274545e-001
1.291006e-001
1.303371e-001
1.312616e-001
1.319513e-001
1.324658e-001
1.328498e-001
1.331366e-001
1.333503e-001
1.335088e-001
1.336251e-001
1.337089e-001
1.337673e-001
1.338060e-001
1.338290e-001
1.338396e-001
1.338399e-001
1.338313e-001
1.338145e-001
1.337887e-001
1.337522e-001
1.337014e-001
1.336305e-001
1.335306e-001
1.333885e-001
1.331848e-001
1.328911e-001
1.324648e-001
1.318420e-001
1.309247e-001
1.295631e-001
1.275335e-001
1.245207e-001
1.201227e-001
1.139007e-001
1.054918e-001
9.477454e-002
8.203304e-002
6.803013e-002
5.390618e-002
4.090298e-002
3.001965e-002
2.176312e-002
1.610205e-002
1.260973e-002
1.068897e-002
9.766427e-003
9.399671e-003
9.300394e-003
9.307305e-003
9.343324e-003
9.378203e-003
9.403690e-003
9.419986e-003
9.429559e-003
9.434832e-003
9.437576e-003
9.438927e-003
9.439550e-003
9.439815e-003
9.439913e-003
9.439940e-003
9.439941e-003
9.439936e-003
9.439931e-003
9.439929e-003
9.439883e-003
9.439704e-003
9.439241e-003
9.438247e-003
9.436256e-003
9.432460e-003
9.425533e-003
9.413457e-003
9.393491e-003
9.362710e-003
9.320110e-003
9.272270e-003
9.245795e-003
9.310316e-003
9.613514e-003
1.042213e-002
1.215003e-002
1.534192e-002
2.058152e-002
2.831909e-002
3.866457e-002
5.124093e-002
6.519278e-002
7.937483e-002
9.264522e-002
1.041341e-001
1.133870e-001
1.203587e-001
1.253027e-001
1.286254e-001
1.307588e-001
1.320798e-001
1.328771e-001
1.333532e-001
1.336412e-001
1.338239e-001
1.339492e-001
1.340415e-001
1.341109e-001
1.341600e-001
1.341884e-001
1.341958e-001
1.341831e-001
1.341528e-001
1.341083e-001
1.340540e-001
1.339947e-001
1.339352e-001
1.338807e-001
1.338359e-001
1.338061e-001
1.337964e-001
1.338120e-001
1.338580e-001
1.339387e-001
1.340572e-001
1.342137e-001
1.344042e-001
1.346179e-001
1.348346e-001
1.350228e-001
1.351382e-001
1.351268e-001
1.349312e-001
1.345006e-001
1.337924e-001
1.327496e-001
1.312319e-001
1.289073e-001
1.251554e-001
1.190962e-001
1.098685e-001
9.712744e-002
8.147973e-002
6.449931e-002
4.822639e-002
3.442497e-002
2.403486e-002
1.707577e-002
1.293066e-002
1.074931e-002
9.755586e-003
9.386330e-003
9.298377e-003
9.313020e-003
9.351358e-003
9.385406e-003
9.409009e-003
9.423477e-003
9.431664e-003
9.436015e-003
9.438200e-003
9.439234e-003
9.439689e-003
9.439870e-003
9.439929e-003
9.439941e-003
9.439938e-003
9.439934e-003
9.439932e-003
9.439676e-003
9.439371e-003
9.438598e-003
9.436978e-003
9.433799e-003
9.427844e-003
9.417169e-003
9.398974e-003
9.369913e-003
9.327865e-003
9.277353e-003
9.242754e-003
9.295276e-003
9.598854e-003
1.047208e-002
1.244418e-002
1.625653e-002
2.274518e-002
3.256727e-002
4.582680e-002
6.178111e-002
7.885823e-002
9.508140e-002
1.087300e-001
1.188859e-001
1.255850e-001
1.295514e-001
1.317379e-001
1.329527e-001
1.337014e-001
1.342084e-001
1.345212e-001
1.346205e-001
1.344890e-001
1.341353e-001
1.335888e-001
1.328888e-001
1.320746e-001
1.311820e-001
1.302414e-001
1.292784e-001
1.283144e-001
1.273664e-001
1.264484e-001
1.255713e-001
1.247439e-001
1.239738e-001
1.232680e-001
1.226345e-001
1.220821e-001
1.216218e-001
1.212675e-001
1.210355e-001
1.209458e-001
1.210213e-001
1.212876e-001
1.217720e-001
1.225016e-001
1.235002e-001
1.247833e-001
1.263503e-001
1.281741e-001
1.301870e-001
1.322647e-001
1.342127e-001
1.357649e-001
1.366142e-001
1.365000e-001
1.353399e-001
1.332734e-001
1.303849e-001
1.261294e-001
1.190818e-001
1.076832e-001
9.163293e-002
7.261067e-002
5.357233e-002
3.727434e-002
2.518604e-002
1.734146e-002
1.286756e-002
1.063493e-002
9.681612e-003
9.358255e-003
9.297562e-003
9.322703e-003