# vtk DataFile Version 3.0
vtk output
ASCII
DATASET STRUCTURED_POINTS
DIMENSIONS 100 100 1
SPACING 1 1 1
ORIGIN 0 0 0
POINT_DATA 10000
SCALARS SFBox_profile double
LOOKUP_TABLE default 
0.000000e+000
0.000000e+000
0.000000e+000
0.000000e+000
0.000000e+000
0.000000e+000
0.000000e+000
0.000000e+000
0.000000e+000
0.000000e+000
0.000000e+000
0.000000e+000
0.000000e+000
0.000000e+000
0.000000e+000
0.000000e+000
0.000000e+000
0.000000e+000
0.000000e+000
0.000000e+000
0.000000e+000
0.000000e+000
0.000000e+000
0.000000e+000
0.000000e+000
0.000000e+000
0.000000e+000
0.000000e+000
0.000000e+000
0.000000e+000
0.000000e+000
0.000000e+000
0.000000e+000
0.000000e+000
0.000000e+000
0.000000e+000
0.000000e+000
0.000000e+000
0.000000e+000
0.000000e+000
0.000000e+000
0.000000e+000
0.000000e+000
0.000000e+000
0.000000e+000
0.000000e+000
0.000000e+000
0.000000e+000
0.000000e+000
0.000000e+000
0.000000e+000
0.000000e+000
0.000000e+000
0.000000e+000
0.000000e+000
0.000000e+000
0.000000e+000
0.000000e+000
0.000000e+000
0.000000e+000
0.000000e+000
0.000000e+000
0.000000e+000
0.000000e+000
0.000000e+000
0.000000e+000
0.000000e+000
0.000000e+000
0.000000e+000
0.000000e+000
0.000000e+000
0.000000e+000
0.000000e+000
0.000000e+000
0.000000e+000
0.000000e+000
0.000000e+000
0.000000e+000
0.000000e+000
0.000000e+000
0.000000e+000
0.000000e+000
0.000000e+000
0.000000e+000
0.000000e+000
0.000000e+000
0.000000e+000
0.000000e+000
0.000000e+000
0.000000e+000
0.000000e+000
0.000000e+000
0.000000e+000
0.000000e+000
0.000000e+000
0.000000e+000
0.000000e+000
0.000000e+000
0.000000e+000
0.000000e+000
2.413578e-008
2.134242e-008
1.618154e-008
9.448739e-009
2.199069e-009
-4.410820e-009
-9.312454e-009
-1.172004e-008
-1.129275e-008
-8.224986e-009
-3.232932e-009
2.574341e-009
7.922713e-009
1.165437e-008
1.299668e-008
1.174852e-008
8.330022e-009
3.675480e-009
-1.008060e-009
-4.554840e-009
-6.141951e-009
-5.494374e-009
-2.935856e-009
7.273855e-010
4.453391e-009
7.265781e-009
8.517941e-009
8.041420e-009
6.138059e-009
3.426409e-009
5.999671e-010
-1.818038e-009
-3.640404e-009
-5.049372e-009
-6.492348e-009
-8.482995e-009
-1.138278e-008
-1.524272e-008
-1.976108e-008
-2.436895e-008
-2.840920e-008
-3.134114e-008
-3.289664e-008
-3.313405e-008
-3.237655e-008
-3.106496e-008
-2.958543e-008
-2.813862e-008
-2.669725e-008
-2.506167e-008
-2.298435e-008
-2.030818e-008
-1.706079e-008
-1.346766e-008
-9.881443e-009
-6.659272e-009
-4.040056e-009
-2.071928e-009
-6.180337e-010
5.641850e-010
1.704981e-009
2.915308e-009
4.134923e-009
5.156305e-009
5.713951e-009
5.602434e-009
4.775603e-009
3.387352e-009
1.757751e-009
2.772368e-010
-7.153252e-010
-1.036162e-009
-7.055511e-010
7.256140e-011
9.893571e-010
1.737326e-009
2.105307e-009
2.030953e-009
1.597125e-009
9.800369e-010
3.735315e-010
-8.015421e-011
-3.286180e-010
-4.065407e-010
-3.988748e-010
-3.895318e-010
-4.189468e-010
-4.680635e-010
-4.737669e-010
-3.670191e-010
-1.154483e-010
2.493576e-010
6.328707e-010
9.078810e-010
9.625312e-010
7.469277e-010
2.991684e-010
-2.606571e-010
-7.675582e-010
-1.066776e-009
1.501387e-008
1.338549e-008
1.034790e-008
6.321578e-009
1.887814e-009
-2.280203e-009
-5.515483e-009
-7.275091e-009
-7.256588e-009
-5.483630e-009
-2.331291e-009
1.527803e-009
5.255849e-009
8.036580e-009
9.272218e-009
8.737600e-009
6.644919e-009
3.594401e-009
4.179469e-010
-2.044985e-009
-3.177489e-009
-2.754973e-009
-1.004001e-009
1.468015e-009
3.851266e-009
5.365482e-009
5.473755e-009
4.012668e-009
1.200598e-009
-2.473657e-009
-6.440256e-009
-1.024872e-008
-1.371020e-008
-1.693425e-008
-2.025095e-008
-2.405015e-008
-2.859865e-008
-3.390303e-008
-3.966780e-008
-4.536274e-008
-5.037327e-008
-5.417759e-008
-5.648679e-008
-5.729954e-008
-5.685704e-008
-5.552145e-008
-5.362899e-008
-5.137521e-008
-4.877468e-008
-4.570508e-008
-4.201178e-008
-3.762530e-008
-3.264107e-008
-2.732815e-008
-2.206398e-008
-1.722274e-008
-1.306347e-008
-9.662805e-009
-6.918056e-009
-4.616952e-009
-2.543685e-009
-5.770130e-010
1.259085e-009
2.811264e-009
3.870746e-009
4.273664e-009
3.986367e-009
3.141235e-009
2.008919e-009
9.181300e-010
1.538984e-010
-1.275836e-010
6.274562e-011
5.668781e-010
1.147510e-009
1.576136e-009
1.708628e-009
1.522649e-009
1.107403e-009
6.146854e-010
1.936950e-010
-6.397872e-011
-1.492557e-010
-1.239737e-010
-8.136769e-011
-9.761929e-011
-1.956678e-010
-3.360421e-010
-4.374731e-010
-4.174499e-010
-2.347509e-010
8.462157e-011
4.497057e-010
7.350637e-010
8.279281e-010
6.735305e-010
3.004860e-010
-1.843784e-010
-6.306579e-010
-8.960511e-010
-1.371546e-010
1.511919e-010
6.116806e-010
1.054581e-009
1.287221e-009
1.187883e-009
7.567829e-010
1.252725e-010
-4.816714e-010
-8.185081e-010
-7.038076e-010
-8.756259e-011
9.231001e-010
2.090725e-009
3.120034e-009
3.753076e-009
3.854893e-009
3.459192e-009
2.755822e-009
2.021248e-009
1.513121e-009
1.363765e-009
1.509533e-009
1.682354e-009
1.469327e-009
4.228275e-010
-1.814599e-009
-5.412410e-009
-1.031452e-008
-1.627444e-008
-2.294955e-008
-3.001960e-008
-3.728533e-008
-4.471063e-008
-5.239236e-008
-6.046964e-008
-6.900758e-008
-7.790049e-008
-8.683317e-008
-9.531698e-008
-1.027893e-007
-1.087415e-007
-1.128300e-007
-1.149329e-007
-1.151353e-007
-1.136549e-007
-1.107418e-007
-1.065934e-007
-1.013166e-007
-9.495055e-008
-8.753264e-008
-7.917645e-008
-7.012364e-008
-6.074391e-008
-5.147952e-008
-4.275442e-008
-3.488252e-008
-2.801025e-008
-2.211422e-008
-1.705254e-008
-1.264769e-008
-8.766955e-009
-5.369978e-009
-2.507374e-009
-2.754472e-010
1.250620e-009
2.075153e-009
2.307106e-009
2.142010e-009
1.809020e-009
1.505144e-009
1.342952e-009
1.331410e-009
1.395362e-009
1.423686e-009
1.325442e-009
1.071514e-009
7.064045e-010
3.276203e-010
4.316887e-011
-7.419708e-011
-1.697700e-011
1.546265e-010
3.380762e-010
4.307995e-010
3.720672e-010
1.676686e-010
-1.122857e-010
-3.613717e-010
-4.795125e-010
-4.135191e-010
-1.796666e-010
1.405323e-010
4.298657e-010
5.790999e-010
5.282377e-010
2.897132e-010
-5.527952e-011
-3.860288e-010
-5.862260e-010
-1.611532e-008
-1.384876e-008
-9.766330e-009
-4.670193e-009
4.619105e-010
4.689092e-009
7.307720e-009
7.994039e-009
6.856852e-009
4.389649e-009
1.335965e-009
-1.497180e-009
-3.430543e-009
-4.061403e-009
-3.335010e-009
-1.525698e-009
8.605118e-010
3.229049e-009
5.042147e-009
5.925358e-009
5.708991e-009
4.400390e-009
2.105197e-009
-1.069350e-009
-5.093164e-009
-1.004780e-008
-1.610855e-008
-2.348585e-008
-3.235138e-008
-4.277788e-008
-5.471315e-008
-6.799341e-008
-8.238433e-008
-9.762780e-008
-1.134718e-007
-1.296702e-007
-1.459551e-007
-1.619966e-007
-1.773738e-007
-1.915762e-007
-2.040411e-007
-2.142215e-007
-2.216604e-007
-2.260509e-007
-2.272609e-007
-2.253205e-007
-2.203820e-007
-2.126720e-007
-2.024575e-007
-1.900360e-007
-1.757496e-007
-1.600080e-007
-1.433010e-007
-1.261853e-007
-1.092409e-007
-9.300738e-008
-7.791865e-008
-6.425819e-008
-5.214855e-008
-4.157683e-008
-3.244446e-008
-2.462234e-008
-1.799231e-008
-1.246419e-008
-7.968634e-009
-4.436276e-009
-1.777481e-009
1.252762e-010
1.408409e-009
2.206423e-009
2.630087e-009
2.754669e-009
2.624298e-009
2.270572e-009
1.736533e-009
1.094207e-009
4.463363e-010
-9.034187e-011
-4.148848e-010
-4.735916e-010
-2.802750e-010
8.377411e-011
4.918647e-010
8.095664e-010
9.355900e-010
8.321417e-010
5.345399e-010
1.370628e-010
-2.398449e-010
-4.896151e-010
-5.532363e-010
-4.354964e-010
-1.989926e-010
6.110509e-011
2.520060e-010
3.153838e-010
2.454478e-010
8.716271e-011
-8.395315e-011
-1.924570e-010
-2.727393e-008
-2.370598e-008
-1.721742e-008
-8.978435e-009
-4.556610e-010
6.873439e-009
1.181021e-008
1.366965e-008
1.240992e-008
8.625911e-009
3.404825e-009
-1.926616e-009
-6.106833e-009
-8.224792e-009
-7.917935e-009
-5.435468e-009
-1.554412e-009
2.625265e-009
5.947902e-009
7.457588e-009
6.573494e-009
3.142785e-009
-2.633154e-009
-1.036534e-008
-1.967680e-008
-3.036919e-008
-4.250596e-008
-5.639194e-008
-7.246409e-008
-9.113578e-008
-1.126474e-007
-1.369690e-007
-1.637770e-007
-1.925026e-007
-2.224215e-007
-2.527519e-007
-2.827249e-007
-3.116145e-007
-3.387296e-007
-3.633879e-007
-3.848966e-007
-4.025599e-007
-4.157176e-007
-4.238088e-007
-4.264392e-007
-4.234350e-007
-4.148678e-007
-4.010461e-007
-3.824827e-007
-3.598476e-007
-3.339199e-007
-3.055455e-007
-2.756021e-007
-2.449668e-007
-2.144835e-007
-1.849269e-007
-1.569649e-007
-1.311267e-007
-1.077810e-007
-8.712932e-008
-6.921615e-008
-5.395243e-008
-4.114807e-008
-3.054845e-008
-2.187079e-008
-1.483706e-008
-9.200637e-009
-4.763638e-009
-1.382264e-009
1.041585e-009
2.581022e-009
3.312226e-009
3.341585e-009
2.822633e-009
1.955698e-009
9.682297e-010
8.025598e-011
-5.351871e-010
-7.844172e-010
-6.678344e-010
-2.719311e-010
2.594275e-010
7.661443e-010
1.113696e-009
1.224245e-009
1.089589e-009
7.643254e-010
3.433625e-010
-6.813762e-011
-3.831853e-010
-5.522324e-010
-5.693612e-010
-4.656953e-010
-2.938933e-010
-1.095554e-010
4.458728e-011
1.474718e-010
1.999300e-010
2.176114e-010
2.200209e-010
-2.935262e-008
-2.569798e-008
-1.899829e-008
-1.037228e-008
-1.259247e-009
6.832394e-009
1.260060e-008
1.520005e-008
1.441473e-008
1.070860e-008
5.131389e-009
-9.112005e-010
-5.978751e-009
-8.936661e-009
-9.232523e-009
-7.036430e-009
-3.206497e-009
9.123055e-010
3.800950e-009
4.103328e-009
8.930414e-010
-6.202525e-009
-1.704897e-008
-3.119747e-008
-4.815367e-008
-6.763153e-008
-8.970930e-008
-1.148395e-007
-1.437137e-007
-1.770303e-007
-2.152407e-007
-2.583534e-007
-3.058496e-007
-3.567256e-007
-4.096353e-007
-4.630770e-007
-5.155649e-007
-5.657373e-007
-6.123866e-007
-6.544260e-007
-6.908308e-007
-7.205980e-007
-7.427544e-007
-7.564216e-007
-7.609214e-007
-7.558890e-007
-7.413568e-007
-7.177840e-007
-6.860233e-007
-6.472361e-007
-6.027815e-007
-5.541067e-007
-5.026585e-007
-4.498276e-007
-3.969187e-007
-3.451359e-007
-2.955677e-007
-2.491605e-007
-2.066810e-007
-1.686728e-007
-1.354222e-007
-1.069466e-007
-8.301570e-008
-6.320701e-008
-4.698708e-008
-3.380169e-008
-2.315507e-008
-1.466001e-008
-8.048789e-009
-3.146042e-009
1.841240e-010
2.096974e-009
2.810925e-009
2.621000e-009
1.877397e-009
9.367881e-010
1.031358e-010
-4.219862e-010
-5.635369e-010
-3.648465e-010
4.851034e-011
5.196822e-010
9.097231e-010
1.130981e-009
1.157861e-009
1.016726e-009
7.633673e-010
4.589330e-010
1.532059e-010
-1.209985e-010
-3.440981e-010
-5.021917e-010
-5.817389e-010
-5.701137e-010
-4.617552e-010
-2.662334e-010
-1.315308e-011
2.499486e-010
4.674335e-010
5.902539e-010
-2.090497e-008
-1.852744e-008
-1.408920e-008
-8.198959e-009
-1.698765e-009
4.438539e-009
9.257439e-009
1.199731e-008
1.226359e-008
1.014425e-008
6.225748e-009
1.483110e-009
-2.946597e-009
-6.060553e-009
-7.280855e-009
-6.657309e-009
-4.919213e-009
-3.354591e-009
-3.547048e-009
-7.045489e-009
-1.506462e-008
-2.830555e-008
-4.694734e-008
-7.080443e-008
-9.958959e-008
-1.331869e-007
-1.718359e-007
-2.161589e-007
-2.670153e-007
-3.252267e-007
-3.912565e-007
-4.649445e-007
-5.453727e-007
-6.308998e-007
-7.193409e-007
-8.082327e-007
-8.950998e-007
-9.776523e-007
-1.053874e-006
-1.122012e-006
-1.180502e-006
-1.227895e-006
-1.262839e-006
-1.284130e-006
-1.290839e-006
-1.282460e-006
-1.259038e-006
-1.221232e-006
-1.170285e-006
-1.107916e-006
-1.036157e-006
-9.571946e-007
-8.732281e-007
-7.863911e-007
-6.987126e-007
-6.121085e-007
-5.283702e-007
-4.491293e-007
-3.757912e-007
-3.094468e-007
-2.507890e-007
-2.000646e-007
-1.570816e-007
-1.212833e-007
-9.187218e-008
-6.795861e-008
-4.869563e-008
-3.336983e-008
-2.143046e-008
-1.245995e-008
-6.106696e-009
-2.011426e-009
2.422413e-010
1.134315e-009
1.170807e-009
8.179602e-010
4.345969e-010
2.285966e-010
2.534131e-010
4.447875e-010
6.828817e-010
8.566413e-010
9.082834e-010
8.453922e-010
7.218516e-010
6.009837e-010
5.199689e-010
4.720040e-010
4.133117e-010
2.903706e-010
7.363922e-011
-2.186370e-010
-5.183946e-010
-7.296593e-010
-7.660150e-010
-5.882681e-010
-2.263754e-010
2.242531e-010
6.318408e-010
8.723765e-010
-3.869686e-009
-3.826081e-009
-3.575622e-009
-2.876881e-009
-1.545073e-009
4.203187e-010
2.771632e-009
5.046261e-009
6.693085e-009
7.250108e-009
6.507152e-009
4.587060e-009
1.903651e-009
-1.003160e-009
-3.709778e-009
-6.152478e-009
-8.790365e-009
-1.262974e-008
-1.909726e-008
-2.980068e-008
-4.625515e-008
-6.966487e-008
-1.008299e-007
-1.402020e-007
-1.880574e-007
-2.447096e-007
-3.106675e-007
-3.866614e-007
-4.735038e-007
-5.718135e-007
-6.816795e-007
-8.023697e-007
-9.321771e-007
-1.068455e-006
-1.207835e-006
-1.346564e-006
-1.480876e-006
-1.607285e-006
-1.722767e-006
-1.824788e-006
-1.911235e-006
-1.980309e-006
-2.030446e-006
-2.060321e-006
-2.068938e-006
-2.055771e-006
-2.020908e-006
-1.965141e-006
-1.889965e-006
-1.797484e-006
-1.690255e-006
-1.571119e-006
-1.443051e-006
-1.309063e-006
-1.172158e-006
-1.035297e-006
-9.013661e-007
-7.730930e-007
-6.529204e-007
-5.428511e-007
-4.442997e-007
-3.579973e-007
-2.839817e-007
-2.216839e-007
-1.700936e-007
-1.279653e-007
-9.401230e-008
-6.704834e-008
-4.605154e-008
-3.015435e-008
-1.858602e-008
-1.060594e-008
-5.463494e-009
-2.404072e-009
-7.185538e-010
1.861236e-010
7.270562e-010
1.123568e-009
1.425234e-009
1.581032e-009
1.524373e-009
1.242728e-009
8.074765e-010
3.562334e-010
3.932655e-011
-4.372975e-011
1.112816e-010
4.080782e-010
6.872067e-010
7.911113e-010
6.304146e-010
2.241381e-010
-3.030272e-010
-7.661158e-010
-9.906116e-010
-8.810388e-010
-4.606300e-010
1.336012e-010
6.989092e-010
1.040028e-009
1.691143e-008
1.424975e-008
9.617094e-009
4.197228e-009
-6.686216e-010
-3.854735e-009
-4.751168e-009
-3.406032e-009
-4.754417e-010
2.992453e-009
5.861703e-009
7.198032e-009
6.448917e-009
3.458754e-009
-1.679994e-009
-8.884010e-009
-1.835458e-008
-3.077823e-008
-4.738857e-008
-6.987520e-008
-1.001782e-007
-1.402425e-007
-1.918136e-007
-2.563313e-007
-3.349309e-007
-4.285167e-007
-5.378328e-007
-6.634615e-007
-8.057018e-007
-9.643347e-007
-1.138336e-006
-1.325625e-006
-1.522957e-006
-1.726011e-006
-1.929685e-006
-2.128551e-006
-2.317351e-006
-2.491430e-006
-2.647017e-006
-2.781296e-006
-2.892307e-006
-2.978734e-006
-3.039671e-006
-3.074456e-006
-3.082604e-006
-3.063856e-006
-3.018282e-006
-2.946411e-006
-2.849314e-006
-2.728635e-006
-2.586572e-006
-2.425820e-006
-2.249522e-006
-2.061230e-006
-1.864864e-006
-1.664650e-006
-1.465007e-006
-1.270348e-006
-1.084829e-006
-9.120525e-007
-7.548073e-007
-6.148844e-007
-4.930238e-007
-3.889989e-007
-3.018163e-007
-2.299777e-007
-1.717433e-007
-1.253404e-007
-8.908669e-008
-6.143058e-008
-4.093489e-008
-2.624480e-008
-1.607665e-008
-9.245172e-009
-4.723197e-009
-1.707759e-009
3.400265e-010
1.705754e-009
2.487588e-009
2.698719e-009
2.371967e-009
1.629894e-009
6.966070e-010
-1.498369e-010
-6.620817e-010
-7.082367e-010
-3.199602e-010
3.180776e-010
9.357353e-010
1.277431e-009
1.196991e-009
7.113130e-010
-7.462641e-012
-6.981027e-010
-1.109432e-009
-1.094891e-009
-6.669777e-010
8.477371e-012
6.754757e-010
1.084205e-009
3.510434e-008
3.022901e-008
2.157159e-008
1.104394e-008
8.999299e-010
-6.817685e-009
-1.076363e-008
-1.058727e-008
-6.972710e-009
-1.426444e-009
4.113320e-009
7.724071e-009
7.870485e-009
3.595209e-009
-5.517537e-009
-1.958162e-008
-3.876729e-008
-6.366147e-008
-9.551872e-008
-1.363314e-007
-1.887061e-007
-2.555920e-007
-3.399419e-007
-4.443919e-007
-5.710202e-007
-7.211987e-007
-8.955101e-007
-1.093679e-006
-1.314470e-006
-1.555546e-006
-1.813319e-006
-2.082867e-006
-2.358012e-006
-2.631615e-006
-2.896089e-006
-3.144090e-006
-3.369224e-006
-3.566660e-006
-3.733482e-006
-3.868714e-006
-3.973027e-006
-4.048198e-006
-4.096462e-006
-4.119903e-006
-4.119995e-006
-4.097371e-006
-4.051820e-006
-3.982466e-006
-3.888085e-006
-3.767475e-006
-3.619844e-006
-3.445172e-006
-3.244517e-006
-3.020234e-006
-2.776071e-006
-2.517097e-006
-2.249465e-006
-1.979989e-006
-1.715613e-006
-1.462826e-006
-1.227135e-006
-1.012676e-006
-8.220289e-007
-6.562379e-007
-5.150169e-007
-3.970653e-007
-3.004158e-007
-2.227420e-007
-1.615864e-007
-1.144981e-007
-7.910515e-008
-5.315737e-008
-3.457159e-008
-2.149563e-008
-1.238197e-008
-6.046282e-009
-1.681896e-009
1.187155e-009
2.809667e-009
3.340006e-009
2.959098e-009
1.944905e-009
6.712222e-010
-4.597085e-010
-1.120235e-009
-1.151835e-009
-6.104764e-010
2.586807e-010
1.111154e-009
1.626369e-009
1.619918e-009
1.104420e-009
2.777341e-010
-5.557214e-010
-1.100261e-009
-1.177667e-009
-7.895019e-010
-1.110904e-010
5.790778e-010
1.006979e-009
4.480877e-008
3.898754e-008
2.856333e-008
1.568937e-008
2.954215e-009
-7.216408e-009
-1.311538e-008
-1.413807e-008
-1.090835e-008
-5.126461e-009
8.091766e-010
4.295322e-009
2.991452e-009
-4.870145e-009
-2.041659e-008
-4.432194e-008
-7.718700e-008
-1.199911e-007
-1.744740e-007
-2.433271e-007
-3.301267e-007
-4.390149e-007
-5.741938e-007
-7.393391e-007
-9.370388e-007
-1.168335e-006
-1.432404e-006
-1.726372e-006
-2.045248e-006
-2.381968e-006
-2.727565e-006
-3.071521e-006
-3.402350e-006
-3.708434e-006
-3.979080e-006
-4.205670e-006
-4.382736e-006
-4.508712e-006
-4.586213e-006
-4.621697e-006
-4.624546e-006
-4.605694e-006
-4.576027e-006
-4.544827e-006
-4.518510e-006
-4.499830e-006
-4.487637e-006
-4.477182e-006
-4.460878e-006
-4.429408e-006
-4.373014e-006
-4.282824e-006
-4.152059e-006
-3.976987e-006
-3.757486e-006
-3.497173e-006
-3.203046e-006
-2.884719e-006
-2.553361e-006
-2.220518e-006
-1.896988e-006
-1.591930e-006
-1.312287e-006
-1.062579e-006
-8.450022e-007
-6.597643e-007
-5.055333e-007
-3.799016e-007
-2.797946e-007
-2.017945e-007
-1.423817e-007
-9.811985e-008
-6.580762e-008
-4.260952e-008
-2.615959e-008
-1.461941e-008
-6.671180e-009
-1.440060e-009
1.639694e-009
2.980536e-009
2.975814e-009
2.074916e-009
7.821564e-010
-4.106447e-010
-1.124030e-009
-1.178129e-009
-6.278297e-010
2.728822e-010
1.168695e-009
1.730168e-009
1.766311e-009
1.283818e-009
4.738832e-010
-3.660850e-010
-9.453529e-010
-1.085332e-009
-7.796460e-010
-1.884634e-010
4.286773e-010
8.150208e-010
4.241593e-008
3.735817e-008
2.822404e-008
1.676924e-008
5.148551e-009
-4.554908e-009
-1.080157e-008
-1.296938e-008
-1.154786e-008
-8.108432e-009
-5.061271e-009
-5.265290e-009
-1.160165e-008
-2.663639e-008
-5.247643e-008
-9.086773e-008
-1.435088e-007
-2.124802e-007
-3.006417e-007
-4.118443e-007
-5.508408e-007
-7.228499e-007
-9.328134e-007
-1.184455e-006
-1.479291e-006
-1.815748e-006
-2.188517e-006
-2.588242e-006
-3.001580e-006
-3.411695e-006
-3.799173e-006
-4.143364e-006
-4.424122e-006
-4.623818e-006
-4.729459e-006
-4.734634e-006
-4.640968e-006
-4.458789e-006
-4.206767e-006
-3.910470e-006
-3.599941e-006
-3.306581e-006
-3.059771e-006
-2.883663e-006
-2.794591e-006
-2.799378e-006
-2.894739e-006
-3.067771e-006
-3.297462e-006
-3.557007e-006
-3.816668e-006
-4.046890e-006
-4.221309e-006
-4.319324e-006
-4.327939e-006
-4.242639e-006
-4.067242e-006
-3.812794e-006
-3.495716e-006
-3.135545e-006
-2.752621e-006
-2.366050e-006
-1.992178e-006
-1.643684e-006
-1.329274e-006
-1.053873e-006
-8.191382e-007
-6.241528e-007
-4.661388e-007
-3.411187e-007
-2.444776e-007
-1.714180e-007
-1.173167e-007
-7.799063e-008
-4.987281e-008
-3.009682e-008
-1.648715e-008
-7.466983e-009
-1.909011e-009
1.032002e-009
2.062848e-009
1.838934e-009
9.818232e-010
3.824563e-011
-5.889447e-010
-6.994112e-010
-3.115135e-010
3.779722e-010
1.081848e-009
1.530672e-009
1.565641e-009
1.186248e-009
5.391850e-010
-1.440703e-010
-6.359514e-010
-7.947481e-010
-6.107633e-010
-2.017840e-010
2.382288e-010
5.166649e-010
2.782144e-008
2.518855e-008
2.031961e-008
1.395524e-008
7.065860e-009
6.701439e-010
-4.405567e-009
-7.794384e-009
-9.827411e-009
-1.168093e-008
-1.538539e-008
-2.368788e-008
-3.980976e-008
-6.718314e-008
-1.092649e-007
-1.695048e-007
-2.514862e-007
-3.591805e-007
-4.971864e-007
-6.707881e-007
-8.856740e-007
-1.147222e-006
-1.459348e-006
-1.823042e-006
-2.234773e-006
-2.685061e-006
-3.157488e-006
-3.628400e-006
-4.067521e-006
-4.439564e-006
-4.706833e-006
-4.832670e-006
-4.785465e-006
-4.542789e-006
-4.095143e-006
-3.448755e-006
-2.626927e-006
-1.669586e-006
-6.309335e-007
4.246302e-007
1.427859e-006
2.310674e-006
3.012133e-006
3.483708e-006
3.693370e-006
3.628167e-006
3.295148e-006
2.720638e-006
1.947968e-006
1.033801e-006
4.333153e-008
-9.552928e-007
-1.896826e-006
-2.724452e-006
-3.394348e-006
-3.878711e-006
-4.166904e-006
-4.264624e-006
-4.191353e-006
-3.976589e-006
-3.655497e-006
-3.264659e-006
-2.838470e-006
-2.406521e-006
-1.992092e-006
-1.611690e-006
-1.275394e-006
-9.877576e-007
-7.489824e-007
-5.561501e-007
-4.043686e-007
-2.877402e-007
-2.001226e-007
-1.356785e-007
-8.922728e-008
-5.642312e-008
-3.378960e-008
-1.864620e-008
-8.968888e-009
-3.227550e-009
-2.383243e-010
9.430789e-010
1.077849e-009
7.580911e-010
3.983881e-010
2.288095e-010
3.081034e-010
5.642855e-010
8.566350e-010
1.043305e-009
1.035771e-009
8.257649e-010
4.799058e-010
1.081018e-010
-1.802185e-010
-3.153659e-010
-2.887153e-010
-1.501267e-010
1.574485e-011
1.243703e-010
4.602325e-009
5.503517e-009
6.885122e-009
8.053874e-009
8.275363e-009
6.984178e-009
3.871511e-009
-1.207041e-009
-8.493078e-009
-1.868163e-008
-3.326212e-008
-5.474183e-008
-8.669701e-008
-1.336624e-007
-2.009265e-007
-2.943201e-007
-4.200575e-007
-5.846214e-007
-7.945937e-007
-1.056269e-006
-1.374862e-006
-1.753177e-006
-2.189718e-006
-2.676388e-006
-3.196102e-006
-3.720798e-006
-4.210397e-006
-4.613234e-006
-4.868373e-006
-4.909924e-006
-4.673194e-006
-4.102093e-006
-3.156933e-006
-1.821513e-006
-1.083571e-007
1.938850e-006
4.246202e-006
6.713937e-006
9.223714e-006
1.164782e-005
1.385907e-005
1.574022e-005
1.719184e-005
1.813827e-005
1.853145e-005
1.835295e-005
1.761449e-005
1.635728e-005
1.465002e-005
1.258552e-005
1.027548e-005
7.843428e-006
5.415919e-006
3.112897e-006
1.038218e-006
-7.282986e-007
-2.136125e-006
-3.165854e-006
-3.827449e-006
-4.155420e-006
-4.201888e-006
-4.028768e-006
-3.700259e-006
-3.276583e-006
-2.809556e-006
-2.340125e-006
-1.897712e-006
-1.500955e-006
-1.159343e-006
-8.752934e-007
-6.462697e-007
-4.666817e-007
-3.294305e-007
-2.270461e-007
-1.524401e-007
-9.933513e-008
-6.244724e-008
-3.750049e-008
-2.114148e-008
-1.080772e-008
-4.585889e-009
-1.080470e-009
6.993755e-010
1.434609e-009
1.575869e-009
1.410289e-009
1.115984e-009
8.028959e-010
5.389104e-010
3.623288e-010
2.848786e-010
2.917066e-010
3.447169e-010
3.928398e-010
3.883404e-010
3.040922e-010
1.449008e-010
-5.252816e-011
-2.320015e-010
-3.383966e-010
-2.092239e-008
-1.630375e-008
-8.349834e-009
7.211489e-010
8.333509e-009
1.216200e-008
1.056075e-008
2.663138e-009
-1.188881e-008
-3.350766e-008
-6.334961e-008
-1.039327e-007
-1.595219e-007
-2.361996e-007
-3.416308e-007
-4.845935e-007
-6.743531e-007
-9.199020e-007
-1.228998e-006
-1.606843e-006
-2.054219e-006
-2.564948e-006
-3.122727e-006
-3.697651e-006
-4.243038e-006
-4.693423e-006
-4.964706e-006
-4.957339e-006
-4.563051e-006
-3.675037e-006
-2.200749e-006
-7.571434e-008
2.723767e-006
6.171353e-006
1.018682e-005
1.463886e-005
1.935449e-005
2.413381e-005
2.876762e-005
3.305508e-005
3.681825e-005
3.991178e-005
4.222692e-005
4.369072e-005
4.426238e-005
4.392920e-005
4.270422e-005
4.062658e-005
3.776428e-005
3.421774e-005
3.012158e-005
2.564265e-005
2.097252e-005
1.631479e-005
1.186851e-005
7.810640e-006
4.280418e-006
1.368536e-006
-8.872852e-007
-2.499957e-006
-3.524895e-006
-4.048001e-006
-4.172068e-006
-4.003810e-006
-3.643207e-006
-3.176118e-006
-2.670369e-006
-2.174921e-006
-1.721374e-006
-1.326867e-006
-9.975902e-007
-7.322123e-007
-5.248451e-007
-3.673336e-007
-2.508603e-007
-1.669561e-007
-1.080559e-007
-6.774637e-008
-4.082286e-008
-2.323756e-008
-1.198545e-008
-4.950712e-009
-7.262280e-010
1.580629e-009
2.536497e-009
2.541349e-009
1.937335e-009
1.056139e-009
2.095820e-010
-3.560830e-010
-5.120436e-010
-2.752885e-010
2.051634e-010
7.049097e-010
1.006312e-009
9.773782e-010
6.184987e-010
5.953938e-011
-4.916117e-010
-8.294416e-010
-4.148907e-008
-3.403207e-008
-2.109654e-008
-6.146583e-009
6.697164e-009
1.355925e-008
1.149600e-008
-1.254552e-009
-2.554694e-008
-6.205499e-008
-1.122467e-007
-1.793348e-007
-2.689427e-007
-3.893020e-007
-5.509065e-007
-7.656305e-007
-1.045359e-006
-1.400139e-006
-1.835797e-006
-2.350882e-006
-2.932833e-006
-3.553394e-006
-4.163620e-006
-4.689256e-006
-5.027717e-006
-5.048198e-006
-4.596488e-006
-3.505565e-006
-1.612168e-006
1.221811e-006
5.085721e-006
9.998186e-006
1.589131e-005
2.260525e-005
2.989603e-005
3.745693e-005
4.495103e-005
5.204947e-005
5.846813e-005
6.399547e-005
6.850562e-005
7.195450e-005
7.436051e-005
7.577548e-005
7.625368e-005
7.582721e-005
7.449434e-005
7.222382e-005
6.897390e-005
6.472095e-005
5.948978e-005
5.337725e-005
4.656246e-005
3.930004e-005
3.189763e-005
2.468207e-005
1.796150e-005
1.199102e-005
6.947912e-006
2.920004e-006
-9.239310e-008
-2.163253e-006
-3.420231e-006
-4.021209e-006
-4.132099e-006
-3.908897e-006
-3.485515e-006
-2.967620e-006
-2.431612e-006
-1.927316e-006
-1.482794e-006
-1.109882e-006
-8.094263e-007
-5.756444e-007
-3.993848e-007
-2.703527e-007
-1.784953e-007
-1.147839e-007
-7.159720e-008
-4.285361e-008
-2.397535e-008
-1.173245e-008
-3.996374e-009
5.608250e-010
2.775651e-009
3.258068e-009
2.568156e-009
1.283261e-009
-3.432642e-011
-9.301615e-010
-1.155936e-009
-7.214680e-010
1.299529e-010
1.021219e-009
1.583769e-009
1.592468e-009
1.044411e-009
1.534752e-010
-7.361779e-010
-1.284129e-009
-5.102599e-008
-4.253550e-008
-2.788129e-008
-1.118342e-008
2.548286e-009
8.409192e-009
2.375606e-009
-1.838904e-008
-5.581193e-008
-1.117158e-007
-1.889372e-007
-2.924444e-007
-4.301170e-007
-6.128996e-007
-8.541269e-007
-1.167906e-006
-1.566492e-006
-2.056586e-006
-2.634514e-006
-3.280238e-006
-3.950398e-006
-4.570921e-006
-5.030344e-006
-5.175626e-006
-4.812823e-006
-3.715091e-006
-1.640015e-006
1.643085e-006
6.317371e-006
1.247828e-005
2.009554e-005
2.898586e-005
3.880495e-005
4.906553e-005
5.918393e-005
6.855131e-005
7.661945e-005
8.298495e-005
8.745429e-005
9.007396e-005
9.111674e-005
9.102470e-005
9.031926e-005
8.949596e-005
8.892529e-005
8.877925e-005
8.899836e-005
8.930535e-005
8.926303e-005
8.836471e-005
8.613917e-005
8.224861e-005
7.655996e-005
6.917570e-005
6.041962e-005
5.078331e-005
4.084711e-005
3.119337e-005
2.232929e-005
1.463193e-005
8.321419e-006
3.461849e-006
-1.597970e-008
-2.278310e-006
-3.547594e-006
-4.064508e-006
-4.057863e-006
-3.724694e-006
-3.220464e-006
-2.657618e-006
-2.109892e-006
-1.619691e-006
-1.206344e-006
-8.736952e-007
-6.162753e-007
-4.238332e-007
-2.843950e-007
-1.861712e-007
-1.186460e-007
-7.311304e-008
-4.283694e-008
-2.295140e-008
-1.017141e-008
-2.394151e-009
1.730369e-009
3.175842e-009
2.796835e-009
1.435252e-009
-1.104279e-010
-1.199704e-009
-1.473949e-009
-9.205309e-010
1.625167e-010
1.298419e-009
2.017540e-009
2.032124e-009
1.337811e-009
2.066215e-010
-9.235671e-010
-1.619783e-009
-4.651076e-008
-3.935075e-008
-2.726326e-008
-1.427150e-008
-5.438680e-009
-6.038304e-009
-2.090882e-008
-5.421416e-008
-1.097229e-007
-1.915685e-007
-3.052969e-007
-4.588811e-007
-6.633103e-007
-9.323436e-007
-1.281047e-006
-1.722785e-006
-2.264397e-006
-2.899400e-006
-3.599221e-006
-4.302845e-006
-4.905843e-006
-5.250598e-006
-5.120539e-006
-4.242064e-006
-2.298159e-006
1.042850e-006
6.081881e-006
1.302873e-005
2.193287e-005
3.261648e-005
4.462483e-005
5.721118e-005
6.937164e-005
7.993832e-005
8.772748e-005
9.172454e-005
9.127396e-005
8.623391e-005
7.705805e-005
6.477951e-005
5.089328e-005
3.715574e-005
2.533676e-005
1.696757e-005
1.312442e-005
1.427911e-005
2.023508e-005
3.015625e-005
4.268507e-005
5.613537e-005
6.873395e-005
7.887432e-005
8.533991e-005
8.745690e-005
8.514990e-005
7.889473e-005
6.958569e-005
5.835206e-005
4.636540e-005
3.467459e-005
2.409284e-005
1.514509e-005
8.070334e-006
2.864677e-006
-6.528739e-007
-2.768568e-006
-3.809035e-006
-4.091199e-006
-3.889907e-006
-3.422259e-006
-2.845152e-006
-2.261548e-006
-1.731151e-006
-1.282122e-006
-9.216873e-007
-6.446018e-007
-4.392939e-007
-2.919638e-007
-1.891048e-007
-1.188956e-007
-7.181578e-008
-4.073318e-008
-2.064341e-008
-8.206357e-009
-1.212476e-009
1.902541e-009
2.405912e-009
1.437215e-009
1.303135e-011
-1.072121e-009
-1.363589e-009
-8.047210e-010
3.095425e-010
1.481061e-009
2.212819e-009
2.199190e-009
1.435963e-009
2.132777e-010
-1.002281e-009
-1.749631e-009
-2.902296e-008
-2.562797e-008
-2.055222e-008
-1.700769e-008
-1.933620e-008
-3.260715e-008
-6.232423e-008
-1.143734e-007