# vtk DataFile Version 3.0
vtk output
ASCII
DATASET STRUCTURED_POINTS
DIMENSIONS 100 100 1
SPACING 1 1 1
ORIGIN 0 0 0
POINT_DATA 10000
SCALARS SFBox_profile double
LOOKUP_TABLE default 
9.439926e-003
9.439927e-003
9.439929e-003
9.439933e-003
9.439938e-003
9.439945e-003
9.439954e-003
9.439966e-003
9.439978e-003
9.439988e-003
9.439993e-003
9.439986e-003
9.439954e-003
9.439883e-003
9.439750e-003
9.439528e-003
9.439183e-003
9.438675e-003
9.437961e-003
9.436999e-003
9.435748e-003
9.434173e-003
9.432250e-003
9.429967e-003
9.427325e-003
9.424339e-003
9.421036e-003
9.417453e-003
9.413633e-003
9.409625e-003
9.405475e-003
9.401229e-003
9.396927e-003
9.392604e-003
9.388288e-003
9.384000e-003
9.379755e-003
9.375564e-003
9.371433e-003
9.367366e-003
9.363367e-003
9.359438e-003
9.355583e-003
9.351810e-003
9.348126e-003
9.344544e-003
9.341077e-003
9.337742e-003
9.334560e-003
9.331553e-003
9.328745e-003
9.326165e-003
9.323843e-003
9.321812e-003
9.320109e-003
9.318773e-003
9.317849e-003
9.317381e-003
9.317417e-003
9.318007e-003
9.319197e-003
9.321034e-003
9.323557e-003
9.326798e-003
9.330776e-003
9.335495e-003
9.340939e-003
9.347069e-003
9.353817e-003
9.361088e-003
9.368756e-003
9.376669e-003
9.384654e-003
9.392522e-003
9.400088e-003
9.407176e-003
9.413635e-003
9.419355e-003
9.424269e-003
9.428359e-003
9.431652e-003
9.434214e-003
9.436136e-003
9.437522e-003
9.438482e-003
9.439117e-003
9.439516e-003
9.439751e-003
9.439879e-003
9.439940e-003
9.439962e-003
9.439965e-003
9.439959e-003
9.439950e-003
9.439941e-003
9.439934e-003
9.439929e-003
9.439926e-003
9.439924e-003
9.439923e-003
9.439926e-003
9.439927e-003
9.439929e-003
9.439933e-003
9.439938e-003
9.439945e-003
9.439954e-003
9.439966e-003
9.439978e-003
9.439988e-003
9.439993e-003
9.439986e-003
9.439954e-003
9.439883e-003
9.439750e-003
9.439528e-003
9.439183e-003
9.438675e-003
9.437961e-003
9.436999e-003
9.435748e-003
9.434173e-003
9.432250e-003
9.429967e-003
9.427325e-003
9.424339e-003
9.421036e-003
9.417453e-003
9.413633e-003
9.409625e-003
9.405475e-003
9.401229e-003
9.396927e-003
9.392604e-003
9.388288e-003
9.384000e-003
9.379755e-003
9.375564e-003
9.371433e-003
9.367366e-003
9.363367e-003
9.359438e-003
9.355583e-003
9.351810e-003
9.348126e-003
9.344544e-003
9.341077e-003
9.337742e-003
9.334560e-003
9.331553e-003
9.328745e-003
9.326165e-003
9.323843e-003
9.321812e-003
9.320109e-003
9.318773e-003
9.317849e-003
9.317381e-003
9.317417e-003
9.318007e-003
9.319197e-003
9.321034e-003
9.323557e-003
9.326798e-003
9.330776e-003
9.335495e-003
9.340939e-003
9.347069e-003
9.353817e-003
9.361088e-003
9.368756e-003
9.376669e-003
9.384654e-003
9.392522e-003
9.400088e-003
9.407176e-003
9.413635e-003
9.419355e-003
9.424269e-003
9.428359e-003
9.431652e-003
9.434214e-003
9.436136e-003
9.437522e-003
9.438482e-003
9.439117e-003
9.439516e-003
9.439751e-003
9.439879e-003
9.439940e-003
9.439962e-003
9.439965e-003
9.439959e-003
9.439950e-003
9.439941e-003
9.439934e-003
9.439929e-003
9.439926e-003
9.439924e-003
9.439923e-003
9.439928e-003
9.439929e-003
9.439932e-003
9.439936e-003
9.439942e-003
9.439950e-003
9.439959e-003
9.439969e-003
9.439977e-003
9.439979e-003
9.439966e-003
9.439925e-003
9.439837e-003
9.439676e-003
9.439406e-003
9.438982e-003
9.438349e-003
9.437447e-003
9.436214e-003
9.434586e-003
9.432509e-003
9.429942e-003
9.426861e-003
9.423264e-003
9.419170e-003
9.414620e-003
9.409672e-003
9.404395e-003
9.398867e-003
9.393164e-003
9.387360e-003
9.381522e-003
9.375707e-003
9.369959e-003
9.364315e-003
9.358798e-003
9.353425e-003
9.348205e-003
9.343143e-003
9.338243e-003
9.333504e-003
9.328928e-003
9.324519e-003
9.320279e-003
9.316215e-003
9.312336e-003
9.308651e-003
9.305172e-003
9.301915e-003
9.298895e-003
9.296131e-003
9.293643e-003
9.291455e-003
9.289591e-003
9.288079e-003
9.286951e-003
9.286238e-003
9.285978e-003
9.286208e-003
9.286970e-003
9.288308e-003
9.290266e-003
9.292892e-003
9.296232e-003
9.300332e-003
9.305231e-003
9.310960e-003
9.317532e-003
9.324936e-003
9.333127e-003
9.342022e-003
9.351486e-003
9.361341e-003
9.371364e-003
9.381302e-003
9.390891e-003
9.399879e-003
9.408049e-003
9.415240e-003
9.421361e-003
9.426394e-003
9.430386e-003
9.433438e-003
9.435685e-003
9.437275e-003
9.438352e-003
9.439051e-003
9.439481e-003
9.439730e-003
9.439863e-003
9.439926e-003
9.439951e-003
9.439955e-003
9.439950e-003
9.439943e-003
9.439937e-003
9.439931e-003
9.439927e-003
9.439925e-003
9.439924e-003
9.439932e-003
9.439934e-003
9.439937e-003
9.439943e-003
9.439950e-003
9.439959e-003
9.439967e-003
9.439972e-003
9.439968e-003
9.439942e-003
9.439878e-003
9.439749e-003
9.439514e-003
9.439121e-003
9.438499e-003
9.437562e-003
9.436210e-003
9.434335e-003
9.431828e-003
9.428590e-003
9.424546e-003
9.419653e-003
9.413912e-003
9.407365e-003
9.400100e-003
9.392239e-003
9.383931e-003
9.375334e-003
9.366608e-003
9.357901e-003
9.349343e-003
9.341040e-003
9.333073e-003
9.325500e-003
9.318356e-003
9.311661e-003
9.305422e-003
9.299639e-003
9.294309e-003
9.289425e-003
9.284982e-003
9.280974e-003
9.277395e-003
9.274237e-003
9.271491e-003
9.269146e-003
9.267188e-003
9.265600e-003
9.264363e-003
9.263458e-003
9.262863e-003
9.262556e-003
9.262512e-003
9.262705e-003
9.263109e-003
9.263693e-003
9.264428e-003
9.265282e-003
9.266227e-003
9.267239e-003
9.268308e-003
9.269441e-003
9.270671e-003
9.272068e-003
9.273742e-003
9.275847e-003
9.278581e-003
9.282167e-003
9.286843e-003
9.292820e-003
9.300259e-003
9.309225e-003
9.319665e-003
9.331386e-003
9.344058e-003
9.357243e-003
9.370431e-003
9.383108e-003
9.394812e-003
9.405188e-003
9.414022e-003
9.421244e-003
9.426915e-003
9.431191e-003
9.434288e-003
9.436441e-003
9.437874e-003
9.438787e-003
9.439340e-003
9.439657e-003
9.439825e-003
9.439906e-003
9.439939e-003
9.439948e-003
9.439946e-003
9.439940e-003
9.439935e-003
9.439930e-003
9.439927e-003
9.439925e-003
9.439939e-003
9.439941e-003
9.439946e-003
9.439953e-003
9.439961e-003
9.439969e-003
9.439972e-003
9.439962e-003
9.439924e-003
9.439834e-003
9.439654e-003
9.439327e-003
9.438772e-003
9.437881e-003
9.436516e-003
9.434513e-003
9.431686e-003
9.427846e-003
9.422820e-003
9.416473e-003
9.408739e-003
9.399641e-003
9.389301e-003
9.377936e-003
9.365848e-003
9.353390e-003
9.340939e-003
9.328857e-003
9.317467e-003
9.307037e-003
9.297765e-003
9.289783e-003
9.283159e-003
9.277913e-003
9.274026e-003
9.271456e-003
9.270155e-003
9.270072e-003
9.271168e-003
9.273408e-003
9.276763e-003
9.281206e-003
9.286699e-003
9.293193e-003
9.300619e-003
9.308889e-003
9.317894e-003
9.327505e-003
9.337576e-003
9.347944e-003
9.358434e-003
9.368855e-003
9.379002e-003
9.388653e-003
9.397565e-003
9.405477e-003
9.412104e-003
9.417146e-003
9.420298e-003
9.421261e-003
9.419772e-003
9.415629e-003
9.408734e-003
9.399131e-003
9.387049e-003
9.372931e-003
9.357450e-003
9.341493e-003
9.326121e-003
9.312481e-003
9.301700e-003
9.294753e-003
9.292335e-003
9.294749e-003
9.301847e-003
9.313028e-003
9.327315e-003
9.343488e-003
9.360266e-003
9.376480e-003
9.391214e-003
9.403879e-003
9.414222e-003
9.422273e-003
9.428261e-003
9.432521e-003
9.435423e-003
9.437317e-003
9.438496e-003
9.439196e-003
9.439589e-003
9.439795e-003
9.439893e-003
9.439933e-003
9.439945e-003
9.439944e-003
9.439939e-003
9.439934e-003
9.439930e-003
9.439928e-003
9.439950e-003
9.439953e-003
9.439959e-003
9.439966e-003
9.439974e-003
9.439975e-003
9.439961e-003
9.439912e-003
9.439798e-003
9.439566e-003
9.439140e-003
9.438403e-003
9.437197e-003
9.435313e-003
9.432490e-003
9.428431e-003
9.422822e-003
9.415374e-003
9.405875e-003
9.394254e-003
9.380638e-003
9.365383e-003
9.349085e-003
9.332537e-003
9.316664e-003
9.302424e-003
9.290720e-003
9.282315e-003
9.277784e-003
9.277488e-003
9.281585e-003
9.290053e-003
9.302733e-003
9.319371e-003
9.339669e-003
9.363324e-003
9.390066e-003
9.419677e-003
9.451996e-003
9.486909e-003
9.524326e-003
9.564156e-003
9.606278e-003
9.650513e-003
9.696618e-003
9.744268e-003
9.793063e-003
9.842533e-003
9.892146e-003
9.941314e-003
9.989399e-003
1.003572e-002
1.007952e-002
1.012001e-002
1.015630e-002
1.018744e-002
1.021239e-002
1.023002e-002
1.023917e-002
1.023868e-002
1.022743e-002
1.020451e-002
1.016924e-002
1.012140e-002
1.006131e-002
9.990001e-003
9.909262e-003
9.821689e-003
9.730601e-003
9.639860e-003
9.553589e-003
9.475795e-003
9.409952e-003
9.358600e-003
9.323015e-003
9.303054e-003
9.297195e-003
9.302809e-003
9.316605e-003
9.335151e-003
9.355362e-003
9.374841e-003
9.392024e-003
9.406146e-003
9.417074e-003
9.425090e-003
9.430689e-003
9.434422e-003
9.436801e-003
9.438248e-003
9.439085e-003
9.439544e-003
9.439778e-003
9.439888e-003
9.439932e-003
9.439944e-003
9.439944e-003
9.439939e-003
9.439935e-003
9.439933e-003
9.439964e-003
9.439968e-003
9.439974e-003
9.439981e-003
9.439981e-003
9.439964e-003
9.439907e-003
9.439772e-003
9.439495e-003
9.438974e-003
9.438054e-003
9.436515e-003
9.434057e-003
9.430294e-003
9.424774e-003
9.417007e-003
9.406548e-003
9.393104e-003
9.376678e-003
9.357718e-003
9.337230e-003
9.316813e-003
9.298593e-003
9.285045e-003
9.278732e-003
9.282031e-003
9.296880e-003
9.324615e-003
9.365900e-003
9.420761e-003
9.488676e-003
9.568718e-003
9.659707e-003
9.760349e-003
9.869378e-003
9.985657e-003
1.010825e-002
1.023648e-002
1.036986e-002
1.050809e-002
1.065096e-002
1.079824e-002
1.094961e-002
1.110460e-002
1.126251e-002
1.142243e-002
1.158322e-002
1.174357e-002
1.190198e-002
1.205683e-002
1.220636e-002
1.234867e-002
1.248173e-002
1.260334e-002
1.271108e-002
1.280230e-002
1.287411e-002
1.292336e-002
1.294673e-002
1.294080e-002
1.290224e-002
1.282804e-002
1.271580e-002
1.256412e-002
1.237298e-002
1.214412e-002
1.188141e-002
1.159096e-002
1.128117e-002
1.096241e-002
1.064642e-002
1.034545e-002
1.007115e-002
9.833387e-003
9.639102e-003
9.491476e-003
9.389618e-003
9.328883e-003
9.301806e-003
9.299453e-003
9.312863e-003
9.334255e-003
9.357755e-003
9.379582e-003
9.397808e-003
9.411874e-003
9.422056e-003
9.429032e-003
9.433580e-003
9.436406e-003
9.438081e-003
9.439025e-003
9.439527e-003
9.439777e-003
9.439889e-003
9.439933e-003
9.439945e-003
9.439944e-003
9.439941e-003
9.439938e-003
9.439984e-003
9.439987e-003
9.439991e-003
9.439990e-003
9.439971e-003
9.439910e-003
9.439761e-003
9.439449e-003
9.438850e-003
9.437767e-003
9.435912e-003
9.432879e-003
9.428132e-003
9.421016e-003
9.410820e-003
9.396901e-003
9.378910e-003
9.357107e-003
9.332727e-003
9.308319e-003
9.287917e-003
9.276960e-003
9.281887e-003
9.309471e-003
9.366017e-003
9.456615e-003
9.584589e-003
9.751254e-003
9.955974e-003
1.019647e-002
1.046924e-002
1.077009e-002
1.109455e-002
1.143825e-002
1.179725e-002
1.216827e-002
1.254877e-002
1.293701e-002
1.333189e-002
1.373280e-002
1.413939e-002
1.455124e-002
1.496772e-002
1.538776e-002
1.580978e-002
1.623166e-002
1.665078e-002
1.706410e-002
1.746821e-002
1.785941e-002
1.823373e-002
1.858696e-002
1.891456e-002
1.921164e-002
1.947279e-002
1.969207e-002
1.986292e-002
1.997813e-002
2.002992e-002
2.001014e-002
1.991055e-002
1.972332e-002
1.944161e-002
1.906039e-002
1.857736e-002
1.799389e-002
1.731599e-002
1.655502e-002
1.572806e-002
1.485781e-002
1.397172e-002
1.310047e-002
1.227561e-002
1.152665e-002
1.087782e-002
1.034521e-002
9.934769e-003
9.641923e-003
9.452919e-003
9.347709e-003
9.303664e-003
9.299155e-003
9.316210e-003
9.341796e-003
9.367791e-003
9.390072e-003
9.407257e-003
9.419531e-003
9.427772e-003
9.433015e-003
9.436190e-003
9.438020e-003
9.439022e-003
9.439540e-003
9.439788e-003
9.439897e-003
9.439937e-003
9.439947e-003
9.439947e-003
9.439945e-003
9.440006e-003
9.440007e-003
9.440004e-003
9.439984e-003
9.439921e-003
9.439767e-003
9.439436e-003
9.438785e-003
9.437580e-003
9.435465e-003
9.431923e-003
9.426247e-003
9.417549e-003
9.404843e-003
9.387254e-003
9.364431e-003
9.337189e-003
9.308358e-003
9.283662e-003
9.272360e-003
9.287298e-003
9.344145e-003
9.459815e-003
9.650367e-003
9.928851e-003
1.030362e-002
1.077745e-002
1.134757e-002
1.200646e-002
1.274321e-002
1.354492e-002
1.439813e-002
1.528985e-002
1.620842e-002
1.714402e-002
1.808899e-002
1.903786e-002
1.998722e-002
2.093528e-002
2.188141e-002
2.282546e-002
2.376717e-002
2.470572e-002
2.563936e-002
2.656527e-002
2.747957e-002
2.837737e-002
2.925306e-002
3.010037e-002
3.091261e-002
3.168268e-002
3.240307e-002
3.306578e-002
3.366209e-002
3.418243e-002
3.461608e-002
3.495107e-002
3.517400e-002
3.527011e-002
3.522345e-002
3.501729e-002
3.463479e-002
3.405995e-002
3.327898e-002
3.228188e-002
3.106444e-002
2.963031e-002
2.799306e-002
2.617802e-002
2.422332e-002
2.217994e-002
2.011024e-002
1.808444e-002
1.617511e-002
1.444982e-002
1.296299e-002
1.174874e-002
1.081643e-002
1.015057e-002
9.715202e-003
9.461823e-003
9.338579e-003
9.298288e-003
9.303577e-003
9.328578e-003
9.357852e-003
9.383795e-003
9.403788e-003
9.417850e-003
9.427084e-003
9.432811e-003
9.436185e-003
9.438074e-003
9.439077e-003
9.439579e-003
9.439811e-003
9.439909e-003
9.439943e-003
9.439952e-003
9.439953e-003
9.440029e-003
9.440024e-003
9.440003e-003
9.439941e-003
9.439789e-003
9.439458e-003
9.438788e-003
9.437519e-003
9.435236e-003
9.431316e-003
9.424880e-003
9.414787e-003
9.399735e-003
9.378579e-003
9.351013e-003
9.318770e-003
9.287368e-003
9.268187e-003
9.280313e-003
9.351296e-003
9.516034e-003
9.813477e-003
1.028158e-002
1.095163e-002
1.184345e-002
1.296255e-002
1.429984e-002
1.583366e-002
1.753336e-002
1.936350e-002
2.128774e-002
2.327186e-002
2.528581e-002
2.730482e-002
2.930981e-002
3.128734e-002
3.322914e-002
3.513127e-002
3.699302e-002
3.881570e-002
4.060131e-002
4.235147e-002
4.406660e-002
4.574535e-002
4.738455e-002
4.897923e-002
5.052296e-002
5.200824e-002
5.342681e-002
5.476991e-002
5.602841e-002
5.719271e-002
5.825258e-002
5.919684e-002
6.001298e-002
6.068671e-002
6.120161e-002
6.153878e-002
6.167667e-002
6.159099e-002
6.125495e-002
6.063972e-002
5.971532e-002
5.845204e-002
5.682241e-002
5.480395e-002
5.238257e-002
4.955686e-002
4.634274e-002
4.277835e-002
3.892824e-002
3.488577e-002
3.077213e-002
2.673026e-002
2.291286e-002
1.946490e-002
1.650361e-002
1.410068e-002
1.227204e-002
1.097891e-002
1.013995e-002
9.650871e-003
9.405154e-003
9.310404e-003
9.296978e-003
9.319076e-003
9.350719e-003
9.379697e-003
9.401913e-003
9.417247e-003
9.427070e-003
9.432998e-003
9.436390e-003
9.438232e-003
9.439180e-003
9.439638e-003
9.439842e-003
9.439925e-003
9.439953e-003
9.439960e-003
9.440046e-003
9.440027e-003
9.439969e-003
9.439827e-003
9.439511e-003
9.438858e-003
9.437591e-003
9.435255e-003
9.431141e-003
9.424217e-003
9.413090e-003
9.396120e-003
9.371836e-003
9.339967e-003
9.303419e-003
9.271503e-003
9.264227e-003
9.316773e-003
9.482374e-003
9.831479e-003
1.044573e-002
1.140698e-002
1.278365e-002
1.461807e-002
1.691836e-002
1.965696e-002
2.277571e-002
2.619537e-002
2.982701e-002
3.358231e-002
3.738145e-002
4.115768e-002
4.485916e-002
4.844876e-002
5.190266e-002
5.520837e-002
5.836246e-002
6.136821e-002
6.423319e-002
6.696703e-002
6.957943e-002
7.207872e-002
7.447085e-002
7.675906e-002
7.894390e-002
8.102368e-002
8.299499e-002
8.485335e-002
8.659363e-002
8.821037e-002
8.969790e-002
9.105019e-002
9.226059e-002
9.332144e-002
9.422350e-002
9.495547e-002
9.550336e-002
9.584993e-002
9.597410e-002
9.585035e-002
9.544822e-002
9.473185e-002
9.365965e-002
9.218444e-002
9.025405e-002
8.781289e-002
8.480498e-002
8.117882e-002
7.689488e-002
7.193593e-002
6.631997e-002
6.011453e-002
5.344907e-002
4.652090e-002
3.958898e-002
3.295124e-002
2.690541e-002
2.170073e-002
1.749364e-002
1.432287e-002
1.211283e-002
1.070350e-002
9.895101e-003
9.491481e-003
9.330209e-003
9.295012e-003
9.313528e-003
9.346995e-003
9.378246e-003
9.401878e-003
9.417806e-003
9.427731e-003
9.433546e-003
9.436773e-003
9.438471e-003
9.439315e-003
9.439709e-003
9.439878e-003
9.439943e-003
9.439964e-003
9.440046e-003
9.440000e-003
9.439874e-003
9.439587e-003
9.438983e-003
9.437782e-003
9.435513e-003
9.431416e-003
9.424343e-003
9.412684e-003
9.394459e-003
9.367810e-003
9.332359e-003
9.292136e-003
9.260815e-003
9.269521e-003
9.376136e-003
9.673045e-003
1.028861e-002
1.137785e-002
1.310091e-002
1.559270e-002
1.893234e-002
2.312207e-002
2.808281e-002
3.366726e-002
3.968529e-002
4.593351e-002
5.222109e-002
5.838743e-002
6.431049e-002
6.990745e-002
7.513039e-002
7.995963e-002
8.439661e-002
8.845729e-002
9.216662e-002
9.555412e-002
9.865045e-002
1.014849e-001
1.040839e-001
1.064699e-001
1.086616e-001
1.106739e-001
1.125185e-001
1.142049e-001
1.157409e-001
1.171333e-001
1.183878e-001
1.195101e-001
1.205048e-001
1.213764e-001
1.221281e-001
1.227624e-001
1.232801e-001
1.236804e-001
1.239601e-001
1.241135e-001
1.241310e-001
1.239991e-001
1.236983e-001
1.232023e-001
1.224757e-001
1.214717e-001
1.201296e-001
1.183721e-001
1.161028e-001
1.132058e-001
1.095481e-001
1.049883e-001
9.939360e-002
9.266735e-002
8.478661e-002
7.584393e-002
6.608198e-002
5.590376e-002
4.584106e-002
3.647463e-002
2.832158e-002
2.172679e-002
1.680029e-002
1.342425e-002
1.132061e-002
1.014569e-002
9.573982e-003
9.348517e-003
9.295148e-003
9.311739e-003
9.346949e-003
9.379603e-003
9.403686e-003
9.419444e-003
9.428966e-003
9.434372e-003
9.437276e-003
9.438755e-003
9.439465e-003
9.439783e-003
9.439914e-003
9.439959e-003
9.440009e-003
9.439916e-003
9.439673e-003
9.439141e-003
9.438058e-003
9.435964e-003
9.432089e-003
9.425225e-003
9.413610e-003
9.394963e-003
9.366979e-003
9.328919e-003
9.285413e-003
9.253980e-003
9.277455e-003
9.440754e-003
9.887679e-003
1.082909e-002
1.253157e-002
1.527937e-002
1.931286e-002
2.475998e-002
3.158612e-002
3.958344e-002
4.840553e-002
5.763382e-002
6.685166e-002
7.570372e-002
8.392922e-002
9.136886e-002
9.795318e-002
1.036820e-001
1.086025e-001
1.127891e-001
1.163287e-001
1.193092e-001
1.218126e-001
1.239120e-001
1.256703e-001
1.271404e-001
1.283668e-001
1.293868e-001
1.302318e-001
1.309286e-001
1.315004e-001
1.319670e-001
1.323454e-001
1.326503e-001
1.328940e-001
1.330867e-001
1.332369e-001
1.333514e-001
1.334359e-001
1.334947e-001
1.335311e-001
1.335474e-001
1.335450e-001
1.335239e-001
1.334828e-001
1.334187e-001
1.333263e-001
1.331970e-001
1.330181e-001
1.327705e-001
1.324262e-001
1.319436e-001
1.312612e-001
1.302879e-001
1.288901e-001
1.268785e-001
1.239988e-001
1.199359e-001
1.143448e-001
1.069179e-001
9.749160e-002
8.617043e-002
7.341931e-002
6.005856e-002
4.712412e-002
3.562078e-002
2.626543e-002
1.933513e-002
1.467854e-002
1.185844e-002
1.033737e-002
9.625693e-003
9.356481e-003
9.295389e-003
9.313543e-003
9.350573e-003
9.383608e-003
9.407093e-003
9.421931e-003
9.430599e-003
9.435360e-003
9.437833e-003
9.439049e-003
9.439612e-003
9.439852e-003
9.439938e-003
9.439908e-003
9.439738e-003
9.439302e-003
9.438376e-003
9.436538e-003
9.433053e-003
9.426720e-003
9.415715e-003
9.397541e-003
9.369437e-003
9.330002e-003
9.283542e-003
9.249573e-003
9.280198e-003
9.486383e-003
1.006874e-002
1.133955e-002
1.371464e-002
1.765442e-002
2.355021e-002
3.158328e-002
4.161376e-002
5.315816e-002
6.547797e-002
7.774639e-002
8.922395e-002
9.938116e-002
1.079419e-001
1.148581e-001
1.202456e-001
1.243129e-001
1.273019e-001
1.294492e-001
1.309631e-001
1.320137e-001
1.327323e-001
1.332154e-001
1.335330e-001
1.337352e-001
1.338584e-001
1.339296e-001
1.339690e-001
1.339910e-001
1.340060e-001
1.340203e-001
1.340367e-001
1.340560e-001
1.340771e-001
1.340982e-001
1.341177e-001
1.341343e-001
1.341479e-001
1.341593e-001
1.341702e-001
1.341832e-001
1.342013e-001
1.342279e-001
1.342660e-001
1.343180e-001
1.343849e-001
1.344655e-001
1.345553e-001
1.346454e-001
1.347215e-001
1.347634e-001
1.347453e-001
1.346373e-001
1.344087e-001
1.340272e-001
1.334528e-001
1.326143e-001
1.313652e-001
1.294193e-001
1.262897e-001
1.212883e-001
1.136675e-001
1.029346e-001
8.922246e-002
7.348398e-002
5.732430e-002
4.250097e-002
3.034953e-002
2.144003e-002
1.559691e-002
1.217906e-002
1.041324e-002
9.628275e-003
9.350250e-003
9.295617e-003
9.319037e-003
9.357587e-003
9.389795e-003
9.411655e-003
9.424936e-003
9.432419e-003
9.436388e-003
9.438380e-003
9.439323e-003
9.439737e-003
9.439889e-003
9.439704e-003
9.439412e-003
9.438677e-003
9.437147e-003
9.434165e-003
9.428608e-003
9.418689e-003
9.401823e-003
9.374871e-003
9.335560e-003
9.286842e-003
9.247447e-003
9.273223e-003
9.493150e-003
1.015779e-002
1.168404e-002
1.466145e-002
1.977518e-002
2.761903e-002
3.843138e-002
5.186613e-002
6.694465e-002
8.226545e-002
9.639811e-002
1.082743e-001
1.174030e-001
1.238546e-001
1.280769e-001
1.306639e-001
1.321733e-001
1.330355e-001
1.335389e-001
1.338533e-001
1.340637e-001
1.342019e-001
1.342723e-001
1.342706e-001
1.341930e-001
1.340398e-001
1.338152e-001
1.335252e-001
1.331762e-001
1.327741e-001
1.323240e-001
1.318308e-001
1.312999e-001
1.307372e-001
1.301503e-001
1.295481e-001
1.289409e-001
1.283403e-001
1.277589e-001
1.272104e-001
1.267091e-001
1.262702e-001
1.259100e-001
1.256457e-001
1.254956e-001
1.254789e-001
1.256155e-001
1.259249e-001
1.264245e-001
1.271276e-001
1.280395e-001
1.291523e-001
1.304387e-001
1.318435e-001
1.332756e-001
1.346000e-001
1.356387e-001
1.361887e-001
1.360720e-001
1.352103e-001
1.336544e-001
1.314356e-001
1.282072e-001
1.229577e-001
1.142638e-001
1.012014e-001
8.429007e-002
6.559547e-002
4.784007e-002
3.321035e-002
2.265762e-002
1.595182e-002
1.219312e-002
1.034964e-002
9.580961e-003
9.333080e-003
9.297654e-003
9.328386e-003
9.367394e-003
9.397454e-003
9.416818e-003
9.428099e-003
9.434221e-003
9.437353e-003
9.438865e-003
9.439543e-003
9.439796e-003
9.439349e-003
9.438875e-003
9.437695e-003
9.435277e-003
9.430637e-003
9.422128e-003
9.407231e-003
9.382597e-003
9.345079e-003
9.295538e-003
9.249118e-003
9.258276e-003
9.456012e-003
1.012202e-002
1.175740e-002
1.512213e-002
2.115757e-002
3.071991e-002
4.413740e-002
6.077309e-002
7.891108e-002
9.619661e-002
1.105023e-001
1.207330e-001
1.270735e-001
1.305764e-001
1.324568e-001
1.335789e-001
1.343267e-001
1.347516e-001
1.347900e-001
1.344025e-001
1.336097e-001
1.324731e-001
1.310678e-001
1.294654e-001
1.277270e-001
1.259013e-001
1.240254e-001
1.221261e-001
1.202220e-001
1.183264e-001
1.164487e-001
1.145973e-001
1.127800e-001
1.110055e-001
1.092832e-001
1.076233e-001
1.060366e-001
1.045341e-001
1.031271e-001
1.018271e-001
1.006460e-001
9.959659e-002
9.869291e-002
9.795115e-002
9.739021e-002
9.703243e-002
9.690426e-002
9.703689e-002
9.746666e-002
9.823519e-002
9.938911e-002
1.009788e-001
1.030559e-001
1.056685e-001
1.088525e-001
1.126179e-001
1.169253e-001
1.216520e-001
1.265465e-001
1.311831e-001
1.349532e-001
1.371597e-001
1.372940e-001
1.354189e-001
1.321616e-001
1.277238e-001
1.207184e-001
1.088871e-001
9.155621e-002
7.092724e-002
5.078930e-002
3.428926e-002
2.270937e-002
1.565192e-002
1.189719e-002
1.016701e-002
9.500875e-003
9.313488e-003
9.303995e-003
9.341379e-003
9.379062e-003
9.405743e-003
9.422022e-003
9.431104e-003
9.435844e-003
9.438175e-003
9.439238e-003
9.439642e-003
9.438783e-003
9.438046e-003
9.436233e-003
9.432563e-003
9.425620e-003
9.413099e-003
9.391673e-003
9.357559e-003
9.309356e-003
9.256810e-003
9.242607e-003
9.387882e-003
9.970890e-003
1.153249e-002
1.496135e-002
2.145055e-002
3.218118e-002
4.767309e-002
6.702505e-002
8.762625e-002
1.059373e-001
1.192197e-001
1.270176e-001
1.309978e-001
1.332414e-001
1.347526e-001
1.354230e-001
1.348649e-001
1.329781e-001
1.299778e-001
1.262151e-001
1.220322e-001
1.176982e-001
1.133977e-001
1.092434e-001
1.052955e-001
1.015791e-001
9.809693e-002
9.483895e-002
9.178865e-002
8.892748e-002
8.623785e-002
8.370490e-002
8.131727e-002
7.906722e-002
7.695018e-002
7.496406e-002
7.310853e-002
7.138442e-002
6.979324e-002
6.833703e-002
6.701840e-002
6.584082e-002
6.480901e-002
6.392957e-002
6.321155e-002
6.266728e-002
6.231310e-002
6.217034e-002
6.226634e-002
6.263568e-002
6.332163e-002
6.437781e-002
6.587005e-002
6.787835e-002
7.049859e-002
7.384313e-002
7.803886e-002
8.321901e-002
8.950282e-002
9.695282e-002
1.054966e-001
1.148020e-001
1.241190e-001
1.321706e-001
1.373197e-001
1.383273e-001
1.355214e-001
1.306669e-001
1.240837e-001
1.129762e-001
9.517251e-002
7.284189e-002
5.091115e-002
3.337708e-002
2.158558e-002
1.477673e-002
1.137503e-002
9.920252e-003
9.414565e-003
9.300713e-003
9.316147e-003
9.357104e-003
9.391428e-003
9.413840e-003
9.426797e-003
9.433717e-003
9.437179e-003
9.438784e-003
9.439400e-003
9.437941e-003
9.436843e-003
9.434162e-003
9.428798e-003
9.418792e-003
9.401077e-003
9.371628e-003
9.327208e-003
9.271847e-003
9.234923e-003
9.313146e-003
9.752186e-003
1.107422e-002
1.421702e-002
2.056554e-002
3.166021e-002
4.838914e-002
6.981888e-002
9.251009e-002
1.115884e-001
1.237769e-001
1.298565e-001
1.331087e-001
1.353087e-001
1.357325e-001
1.333508e-001
1.282407e-001
1.212859e-001
1.134923e-001
1.056272e-001
9.815730e-002
9.131145e-002
8.516521e-002
7.970715e-002
7.488283e-002
7.062075e-002
6.684632e-002
6.348896e-002
6.048532e-002
5.778072e-002
5.532944e-002
5.309446e-002
5.104672e-002
4.916404e-002
4.742993e-002
4.583230e-002
4.436230e-002
4.301337e-002
4.178049e-002
4.065969e-002
3.964787e-002
3.874272e-002
3.794288e-002
3.724822e-002
3.666015e-002
3.618207e-002
3.581984e-002
3.558235e-002
3.548227e-002
3.553690e-002
3.576936e-002
3.621010e-002
3.689899e-002
3.788806e-002
3.924520e-002
4.105906e-002
4.344551e-002
4.655542e-002
5.058311e-002
5.577233e-002
6.241255e-002
7.081030e-002
8.120857e-002
9.361499e-002
1.075046e-001
1.214349e-001
1.328448e-001
1.387271e-001
1.378391e-001
1.325909e-001
1.255905e-001
1.142849e-001
9.530530e-002
7.121916e-002
4.819515e-002
3.065823e-002
1.954747e-002
1.354548e-002
1.076203e-002
9.674540e-003
9.346060e-003
9.300402e-003
9.333670e-003
9.374032e-003
9.403319e-003
9.421082e-003
9.430830e-003
9.435799e-003
9.438137e-003
9.439045e-003
9.436755e-003
9.435178e-003
9.431357e-003
9.423793e-003
9.409887e-003
9.385796e-003
9.347239e-003
9.293565e-003
9.240834e-003
9.255749e-003
9.529601e-003
1.051107e-002
1.308737e-002
1.871461e-002
2.924721e-002
4.611982e-002
6.881052e-002
9.347823e-002
1.138708e-001
1.258099e-001
1.312469e-001
1.345881e-001
1.360375e-001
1.331237e-001
1.253218e-001
1.143315e-001
1.022769e-001
9.066868e-002
8.027612e-002
7.134447e-002
6.383230e-002
5.757415e-002
5.237103e-002
4.803310e-002
4.439583e-002
4.132301e-002
3.870440e-002
3.645170e-002
3.449463e-002
3.277764e-002
3.125721e-002
2.989964e-002
2.867922e-002
2.757649e-002
2.657690e-002
2.566951e-002
2.484600e-002
2.409989e-002
2.342595e-002
2.281990e-002
2.227814e-002
2.179776e-002
2.137651e-002
2.101298e-002
2.070670e-002
2.045838e-002
2.027014e-002
2.014582e-002
2.009140e-002
2.011551e-002
2.023022e-002
2.045203e-002
2.080340e-002
2.131486e-002
2.202813e-002
2.300071e-002
2.431258e-002
2.607607e-002
2.845001e-002
3.165870e-002
3.601493e-002
4.194075e-002
4.996863e-002
6.068311e-002
7.453102e-002
9.140460e-002
1.099614e-001
1.269582e-001
1.376437e-001
1.388733e-001
1.333262e-001
1.256360e-001
1.131471e-001
9.197870e-002
6.617911e-002
4.305330e-002
2.666846e-002
1.704145e-002
1.223470e-002
1.019221e-002
9.480234e-003
9.308244e-003
9.312874e-003
9.354399e-003
9.390436e-003
9.413797e-003
9.427057e-003
9.433958e-003
9.437254e-003
9.438546e-003
9.435166e-003
9.432979e-003
9.427715e-003
9.417407e-003
9.398755e-003
9.367280e-003
9.319399e-003
9.260577e-003
9.229289e-003
9.355520e-003
9.980284e-003
1.185100e-002
1.633843e-002
2.545328e-002
4.122155e-002
6.402659e-002
9.045826e-002
1.132080e-001
1.262659e-001
1.317600e-001
1.352023e-001
1.352478e-001
1.281486e-001
1.146966e-001
9.851751e-002
8.276295e-002
6.907696e-002
5.791788e-002
4.911723e-002
4.227646e-002
3.697273e-002
3.284068e-002
2.959153e-002
2.700673e-002
2.492403e-002
2.322368e-002
2.181706e-002
2.063809e-002
1.963720e-002
1.877699e-002
1.802924e-002
1.737269e-002
1.679144e-002
1.627359e-002
1.581026e-002
1.539474e-002
1.502189e-002
1.468765e-002
1.438873e-002
1.412238e-002
1.388627e-002
1.367846e-002
1.349740e-002
1.334194e-002
1.321139e-002
1.310564e-002
1.302521e-002
1.297139e-002
1.294648e-002
1.295395e-002
1.299889e-002
1.308851e-002
1.323294e-002
1.344645e-002
1.374927e-002
1.417049e-002
1.475264e-002
1.555900e-002
1.668533e-002
1.827840e-002
2.056425e-002
2.388847e-002
2.876582e-002
3.592114e-002
4.626859e-002
6.071498e-002
7.961040e-002
1.017187e-001
1.230309e-001
1.369896e-001
1.389612e-001
1.327358e-001
1.242241e-001
1.093020e-001
8.505521e-002
5.817407e-002