# vtk DataFile Version 3.0
vtk output
ASCII
DATASET STRUCTURED_POINTS
DIMENSIONS 100 100 1
SPACING 1 1 1
ORIGIN 0 0 0
POINT_DATA 10000
SCALARS SFBox_profile double
LOOKUP_TABLE default 
0.000000e+000
0.000000e+000
0.000000e+000
0.000000e+000
0.000000e+000
0.000000e+000
0.000000e+000
0.000000e+000
0.000000e+000
0.000000e+000
0.000000e+000
0.000000e+000
0.000000e+000
0.000000e+000
0.000000e+000
0.000000e+000
0.000000e+000
0.000000e+000
0.000000e+000
0.000000e+000
0.000000e+000
0.000000e+000
0.000000e+000
0.000000e+000
0.000000e+000
0.000000e+000
0.000000e+000
0.000000e+000
0.000000e+000
0.000000e+000
0.000000e+000
0.000000e+000
0.000000e+000
0.000000e+000
0.000000e+000
0.000000e+000
0.000000e+000
0.000000e+000
0.000000e+000
0.000000e+000
0.000000e+000
0.000000e+000
0.000000e+000
0.000000e+000
0.000000e+000
0.000000e+000
0.000000e+000
0.000000e+000
0.000000e+000
0.000000e+000
0.000000e+000
0.000000e+000
0.000000e+000
0.000000e+000
0.000000e+000
0.000000e+000
0.000000e+000
0.000000e+000
0.000000e+000
0.000000e+000
0.000000e+000
0.000000e+000
0.000000e+000
0.000000e+000
0.000000e+000
0.000000e+000
0.000000e+000
0.000000e+000
0.000000e+000
0.000000e+000
0.000000e+000
0.000000e+000
0.000000e+000
0.000000e+000
0.000000e+000
0.000000e+000
0.000000e+000
0.000000e+000
0.000000e+000
0.000000e+000
0.000000e+000
0.000000e+000
0.000000e+000
0.000000e+000
0.000000e+000
0.000000e+000
0.000000e+000
0.000000e+000
0.000000e+000
0.000000e+000
0.000000e+000
0.000000e+000
0.000000e+000
0.000000e+000
0.000000e+000
0.000000e+000
0.000000e+000
0.000000e+000
0.000000e+000
0.000000e+000
-9.407822e-009
-4.630992e-009
1.356689e-009
4.586883e-009
3.814350e-009
7.938183e-010
-1.880953e-009
-2.807205e-009
-2.078030e-009
-4.864664e-010
1.096465e-009
1.935548e-009
1.710486e-009
8.017249e-010
1.529218e-011
-1.958854e-010
-9.824276e-011
-1.068942e-010
-3.681345e-011
7.286630e-010
2.288043e-009
3.786846e-009
4.218592e-009
3.557486e-009
2.808653e-009
2.879343e-009
3.624415e-009
4.163915e-009
3.996007e-009
3.534456e-009
3.504529e-009
4.022640e-009
4.473480e-009
4.267270e-009
3.531879e-009
2.936571e-009
2.890634e-009
3.070501e-009
2.824269e-009
1.972051e-009
1.047465e-009
6.762314e-010
8.323292e-010
8.915738e-010
4.307451e-010
-2.401712e-010
-5.143004e-010
-3.291473e-010
-2.723633e-010
-7.693605e-010
-1.447121e-009
-1.593685e-009
-1.138740e-009
-7.909203e-010
-1.068399e-009
-1.525339e-009
-1.299256e-009
-3.024583e-010
5.888674e-010
6.858844e-010
4.373566e-010
8.234896e-010
1.957331e-009
2.827175e-009
2.623401e-009
1.889533e-009
1.874157e-009
2.870148e-009
3.770457e-009
3.504564e-009
2.476730e-009
2.053394e-009
2.725439e-009
3.384750e-009
2.737782e-009
1.055491e-009
-4.269695e-011
4.416689e-010
1.646259e-009
1.908380e-009
7.891557e-010
-4.599824e-010
-5.194009e-010
3.529521e-010
6.878841e-010
-3.020435e-010
-1.640928e-009
-1.646402e-009
9.627757e-011
2.111678e-009
2.472804e-009
7.491200e-010
-1.553350e-009
-2.427673e-009
-1.190940e-009
1.000675e-009
2.263675e-009
1.597212e-009
-3.787160e-010
-2.026378e-009
-3.898481e-009
-2.050096e-009
5.684078e-011
9.132491e-010
4.766693e-010
-1.885509e-010
-2.949676e-010
1.045915e-011
2.311137e-010
2.600286e-010
3.052706e-010
3.884103e-010
3.245710e-010
1.740511e-010
3.392814e-010
1.025987e-009
1.830876e-009
2.141225e-009
1.889250e-009
1.644273e-009
1.887087e-009
2.414015e-009
2.641874e-009
2.384163e-009
2.073068e-009
2.166499e-009
2.535544e-009
2.605691e-009
2.038828e-009
1.100425e-009
3.040001e-010
-1.907973e-010
-7.131175e-010
-1.637722e-009
-2.916973e-009
-4.127555e-009
-4.958946e-009
-5.567851e-009
-6.379846e-009
-7.564067e-009
-8.811812e-009
-9.709784e-009
-1.026365e-008
-1.089795e-008
-1.189644e-008
-1.299722e-008
-1.370613e-008
-1.394785e-008
-1.417360e-008
-1.473718e-008
-1.536944e-008
-1.550438e-008
-1.505249e-008
-1.454800e-008
-1.441445e-008
-1.433787e-008
-1.365321e-008
-1.226332e-008
-1.081782e-008
-9.851391e-009
-9.041413e-009
-7.645200e-009
-5.569900e-009
-3.605406e-009
-2.446451e-009
-1.801912e-009
-8.252554e-010
6.801081e-010
1.916977e-009
2.120810e-009
1.604598e-009
1.402489e-009
1.948221e-009
2.527603e-009
2.238486e-009
1.205264e-009
4.593600e-010
6.434500e-010
1.218401e-009
1.180557e-009
3.511153e-010
-3.994800e-010
-2.451698e-010
5.729500e-010
1.038253e-009
5.617625e-010
-3.626667e-010
-7.690493e-010
-3.072543e-010
4.372392e-010
6.519701e-010
1.548906e-010
-5.062903e-010
-6.902608e-010
-2.778195e-010
3.120926e-010
5.837751e-010
3.792334e-010
-7.996449e-011
-4.318600e-010
4.258059e-009
2.265804e-009
-7.178964e-010
-3.033946e-009
-3.256802e-009
-1.276658e-009
1.445173e-009
2.979318e-009
2.504303e-009
8.242552e-010
-6.147132e-010
-1.048107e-009
-6.946671e-010
-2.546312e-011
8.675457e-010
2.072530e-009
3.317039e-009
3.965423e-009
3.618236e-009
2.555271e-009
1.480976e-009
8.870020e-010
7.208905e-010
5.965971e-010
1.885162e-010
-6.061423e-010
-1.775356e-009
-3.334919e-009
-5.334857e-009
-7.766324e-009
-1.050594e-008
-1.337682e-008
-1.627575e-008
-1.923096e-008
-2.231205e-008
-2.548616e-008
-2.860329e-008
-3.154547e-008
-3.434850e-008
-3.712218e-008
-3.987445e-008
-4.249643e-008
-4.493760e-008
-4.729915e-008
-4.966684e-008
-5.190420e-008
-5.373927e-008
-5.507931e-008
-5.612165e-008
-5.706706e-008
-5.780305e-008
-5.800599e-008
-5.754483e-008
-5.663110e-008
-5.549351e-008
-5.402393e-008
-5.189944e-008
-4.902507e-008
-4.568162e-008
-4.216294e-008
-3.840334e-008
-3.412298e-008
-2.930780e-008
-2.437239e-008
-1.978167e-008
-1.563813e-008
-1.177186e-008
-8.172690e-009
-5.147346e-009
-2.982705e-009
-1.577637e-009
-5.376638e-010
4.023619e-010
1.172871e-009
1.592043e-009
1.658830e-009
1.534951e-009
1.317935e-009
9.760678e-010
5.235559e-010
1.393313e-010
2.814215e-011
2.144222e-010
5.490202e-010
8.784802e-010
1.098350e-009
1.044652e-009
5.077380e-010
-4.771542e-010
-1.389176e-009
-1.489803e-009
-5.199797e-010
8.721112e-010
1.552190e-009
8.997191e-010
-5.589864e-010
-1.553402e-009
-1.188531e-009
2.419660e-010
1.502140e-009
9.777629e-009
5.711005e-009
4.166907e-011
-3.924954e-009
-4.220590e-009
-1.435714e-009
1.924093e-009
3.442527e-009
2.527056e-009
4.966293e-010
-8.532172e-010
-7.615645e-010
2.201621e-010
1.146166e-009
1.652942e-009
2.049357e-009
2.651882e-009
3.234530e-009
3.192338e-009
2.180289e-009
4.988068e-010
-1.207647e-009
-2.645792e-009
-4.247497e-009
-6.817257e-009
-1.079797e-008
-1.591535e-008
-2.156169e-008
-2.746527e-008
-3.388283e-008
-4.113258e-008
-4.907468e-008
-5.718312e-008
-6.509658e-008
-7.294330e-008
-8.104743e-008
-8.941517e-008
-9.764831e-008
-1.053576e-007
-1.125308e-007
-1.194263e-007
-1.261852e-007
-1.326624e-007
-1.386215e-007
-1.439799e-007
-1.487979e-007
-1.530890e-007
-1.567365e-007
-1.596042e-007
-1.616572e-007
-1.629203e-007
-1.633351e-007
-1.627114e-007
-1.608476e-007
-1.576810e-007
-1.532902e-007
-1.477411e-007
-1.409676e-007
-1.328522e-007
-1.234401e-007
-1.130230e-007
-1.019611e-007
-9.044508e-008
-7.852164e-008
-6.639182e-008
-5.459594e-008
-4.377230e-008
-3.421435e-008
-2.577541e-008
-1.828274e-008
-1.194733e-008
-7.190876e-009
-4.044002e-009
-1.899011e-009
-4.248676e-011
1.604183e-009
2.476130e-009
2.189374e-009
1.223930e-009
5.700460e-010
6.895263e-010
1.050616e-009
8.613673e-010
1.430254e-010
-2.149015e-010
4.191207e-010
1.450524e-009
1.530020e-009
8.446120e-011
-1.813754e-009
-2.349125e-009
-8.059627e-010
1.575716e-009
2.678161e-009
1.481018e-009
-9.853403e-010
-2.579240e-009
-1.948836e-009
3.287897e-010
2.296567e-009
7.926057e-009
4.982328e-009
1.032792e-009
-1.565525e-009
-1.760163e-009
-3.273786e-010
1.066309e-009
1.298440e-009
5.209479e-010
-2.310725e-010
-3.340685e-011
1.176228e-009
2.597829e-009
3.238300e-009
2.712488e-009
1.530698e-009
5.877772e-010
2.573010e-010
-5.763527e-011
-1.433125e-009
-4.482286e-009
-8.991684e-009
-1.453889e-008
-2.132585e-008
-3.016568e-008
-4.158528e-008
-5.513598e-008
-6.979765e-008
-8.502185e-008
-1.011581e-007
-1.187695e-007
-1.377125e-007
-1.571113e-007
-1.762109e-007
-1.950234e-007
-2.140052e-007
-2.332342e-007
-2.521235e-007
-2.699733e-007
-2.866270e-007
-3.024420e-007
-3.176774e-007
-3.320849e-007
-3.451688e-007
-3.567339e-007
-3.670237e-007
-3.762965e-007
-3.843881e-007
-3.908053e-007
-3.952176e-007
-3.977017e-007
-3.984071e-007
-3.970750e-007
-3.930759e-007
-3.859802e-007
-3.759364e-007
-3.633246e-007
-3.481207e-007
-3.298689e-007
-3.083996e-007
-2.843761e-007
-2.588770e-007
-2.324933e-007
-2.051518e-007
-1.769689e-007
-1.490042e-007
-1.227974e-007
-9.916773e-008
-7.782420e-008
-5.835260e-008
-4.129652e-008
-2.782509e-008
-1.830355e-008
-1.161047e-008
-6.194128e-009
-1.632241e-009
1.260845e-009
1.934036e-009
1.292057e-009
1.001700e-009
1.708945e-009
2.395655e-009
1.751901e-009
-5.331113e-011
-1.368408e-009
-8.917963e-010
7.980633e-010
1.822760e-009
1.051968e-009
-6.887340e-010
-1.554906e-009
-6.612335e-010
1.050841e-009
1.863668e-009
1.009622e-009
-6.898072e-010
-1.724210e-009
-1.277756e-009
1.755556e-010
1.392978e-009
-7.792785e-010
-3.750921e-010
4.949606e-010
1.533305e-009
2.004327e-009
1.369893e-009
-3.224251e-011
-1.154934e-009
-1.151585e-009
-2.518657e-011
1.606967e-009
3.142028e-009
4.193798e-009
4.362573e-009
3.249988e-009
9.105525e-010
-1.980663e-009
-4.828350e-009
-8.082999e-009
-1.327130e-008
-2.188775e-008
-3.436442e-008
-5.028138e-008
-6.943384e-008
-9.232389e-008
-1.194661e-007
-1.504884e-007
-1.842684e-007
-2.199570e-007
-2.575771e-007
-2.974479e-007
-3.392046e-007
-3.816651e-007
-4.236840e-007
-4.649191e-007
-5.056147e-007
-5.457634e-007
-5.847136e-007
-6.216539e-007
-6.563097e-007
-6.889855e-007
-7.199334e-007
-7.488506e-007
-7.751158e-007
-7.984481e-007
-8.191440e-007
-8.375590e-007
-8.534521e-007
-8.660242e-007
-8.746301e-007
-8.792595e-007
-8.801275e-007
-8.768808e-007
-8.685047e-007
-8.541522e-007
-8.338446e-007
-8.080795e-007
-7.768451e-007
-7.394465e-007
-6.955349e-007
-6.460373e-007
-5.926838e-007
-5.366766e-007
-4.782919e-007
-4.180134e-007
-3.576667e-007
-2.998859e-007
-2.464369e-007
-1.975289e-007
-1.530052e-007
-1.137883e-007
-8.154803e-008
-5.690691e-008
-3.850651e-008
-2.422808e-008
-1.309851e-008
-5.532516e-009
-1.717719e-009
-3.326624e-010
6.719505e-010
2.173179e-009
3.251398e-009
2.656218e-009
6.068426e-010
-1.201652e-009
-1.329982e-009
-9.676820e-012
1.292745e-009
1.483354e-009
7.549679e-010
5.929870e-012
-2.612501e-010
-2.414907e-010
-2.443895e-010
-2.111053e-010
5.088206e-011
3.964221e-010
4.106267e-010
-3.323853e-011
-5.136083e-010
-9.277934e-009
-6.060693e-009
-1.145727e-009
2.990349e-009
4.250773e-009
2.451268e-009
-3.885783e-010
-1.682769e-009
-5.004661e-010
1.853943e-009
3.448792e-009
3.633405e-009
3.138216e-009
2.539766e-009
1.170416e-009
-2.264361e-009
-8.427664e-009
-1.725912e-008
-2.914080e-008
-4.565267e-008
-6.879907e-008
-9.962327e-008
-1.378905e-007
-1.830750e-007
-2.352508e-007
-2.947774e-007
-3.613449e-007
-4.337060e-007
-5.103989e-007
-5.904650e-007
-6.732866e-007
-7.579019e-007
-8.427880e-007
-9.264192e-007
-1.007901e-006
-1.086943e-006
-1.163280e-006
-1.236295e-006
-1.305261e-006
-1.369842e-006
-1.430196e-006
-1.486522e-006
-1.538588e-006
-1.585827e-006
-1.627897e-006
-1.664982e-006
-1.697370e-006
-1.724766e-006
-1.746205e-006
-1.760774e-006
-1.768220e-006
-1.768618e-006
-1.761468e-006
-1.745440e-006
-1.719245e-006
-1.682532e-006
-1.635610e-006
-1.578352e-006
-1.509875e-006
-1.429602e-006
-1.338435e-006
-1.238435e-006
-1.131446e-006
-1.018543e-006
-9.011289e-007
-7.821713e-007
-6.657392e-007
-5.552300e-007
-4.524308e-007
-3.584537e-007
-2.750614e-007
-2.044060e-007
-1.473942e-007
-1.028035e-007
-6.833788e-008
-4.233113e-008
-2.408000e-008
-1.267737e-008
-6.136543e-009
-2.078161e-009
8.637171e-010
2.655641e-009
2.884483e-009
1.865665e-009
6.058498e-010
-7.928629e-011
-8.961026e-011
2.709868e-010
7.725474e-010
1.224900e-009
1.216635e-009
3.473232e-010
-1.102235e-009
-2.010235e-009
-1.343409e-009
6.191581e-010
2.224584e-009
1.917577e-009
-1.427478e-010
-2.082546e-009
-9.480389e-009
-6.401114e-009
-1.647393e-009
2.406803e-009
3.716054e-009
2.204628e-009
7.110950e-011
-1.157710e-010
2.069557e-009
4.488022e-009
4.700093e-009
2.411979e-009
-6.826662e-010
-3.423276e-009
-7.124971e-009
-1.487621e-008
-2.933603e-008
-5.170593e-008
-8.273929e-008
-1.240726e-007
-1.780457e-007
-2.463254e-007
-3.290925e-007
-4.256067e-007
-5.351764e-007
-6.572598e-007
-7.907414e-007
-9.334522e-007
-1.082550e-006
-1.235283e-006
-1.389357e-006
-1.542760e-006
-1.693521e-006
-1.839791e-006
-1.980125e-006
-2.113629e-006
-2.239801e-006
-2.358253e-006
-2.468615e-006
-2.570685e-006
-2.664581e-006
-2.750591e-006
-2.828824e-006
-2.899060e-006
-2.961044e-006
-3.014829e-006
-3.060635e-006
-3.098280e-006
-3.126944e-006
-3.145645e-006
-3.153878e-006
-3.151492e-006
-3.137885e-006
-3.111610e-006
-3.071030e-006
-3.015233e-006
-2.943961e-006
-2.856663e-006
-2.752032e-006
-2.628857e-006
-2.487209e-006
-2.328474e-006
-2.154361e-006
-1.966420e-006
-1.766923e-006
-1.559974e-006
-1.351280e-006
-1.146695e-006
-9.511554e-007
-7.689234e-007
-6.041743e-007
-4.606057e-007
-3.402380e-007
-2.428142e-007
-1.664793e-007
-1.088678e-007
-6.747652e-008
-3.940192e-008
-2.135222e-008
-1.024793e-008
-3.758748e-009
-2.391826e-010
1.578945e-009
2.536473e-009
2.803963e-009
2.139273e-009
6.914379e-010
-5.821210e-010
-6.197602e-010
5.503939e-010
1.589536e-009
1.128348e-009
-6.908211e-010
-2.155830e-009
-1.662552e-009
5.436013e-010
2.439370e-009
2.158333e-009
-1.232680e-010
-2.282186e-009
-2.566784e-010
-3.416309e-010
-9.863885e-012
7.978978e-010
1.364134e-009
1.199811e-009
1.021836e-009
2.061293e-009
4.264456e-009
5.700804e-009
4.207535e-009
-5.838563e-010
-7.424873e-009
-1.588241e-008
-2.837092e-008
-4.959760e-008
-8.421859e-008
-1.353129e-007
-2.049226e-007
-2.953642e-007
-4.094038e-007
-5.490732e-007
-7.145081e-007
-9.039086e-007
-1.114304e-006
-1.342129e-006
-1.583200e-006
-1.832553e-006
-2.084672e-006
-2.334183e-006
-2.576583e-006
-2.808586e-006
-3.027921e-006
-3.232904e-006
-3.422232e-006
-3.595165e-006
-3.751754e-006
-3.892670e-006
-4.018730e-006
-4.130627e-006
-4.229100e-006
-4.315136e-006
-4.389783e-006
-4.453738e-006
-4.507308e-006
-4.550802e-006
-4.584764e-006
-4.609676e-006
-4.625537e-006
-4.631994e-006
-4.628879e-006
-4.616362e-006
-4.594405e-006
-4.562215e-006
-4.518458e-006
-4.461905e-006
-4.391534e-006
-4.305825e-006
-4.202189e-006
-4.077354e-006
-3.928316e-006
-3.752829e-006
-3.549226e-006
-3.316454e-006
-3.054934e-006
-2.767672e-006
-2.460610e-006
-2.142010e-006
-1.821561e-006
-1.509643e-006
-1.216495e-006
-9.510283e-007
-7.196857e-007
-5.259152e-007
-3.702306e-007
-2.504638e-007
-1.621986e-007
-9.974016e-008
-5.746147e-008
-3.062094e-008
-1.510510e-008
-6.838567e-009
-2.085252e-009
1.367753e-009
3.618615e-009
3.759916e-009
1.809257e-009
-5.824869e-010
-1.444610e-009
-3.479500e-010
1.274009e-009
1.684862e-009
5.781253e-010
-7.930763e-010
-1.052793e-009
-8.983818e-011
9.687345e-010
9.983212e-010
-1.136250e-011
-1.022467e-009
1.074079e-008
6.840962e-009
1.963920e-009
-7.839182e-010
-6.298284e-010
1.004129e-009
2.544471e-009
3.561913e-009
4.104537e-009
3.433291e-009
-6.972101e-011
-7.998885e-009
-2.167124e-008
-4.323536e-008
-7.693315e-008
-1.289667e-007
-2.060073e-007
-3.137793e-007
-4.567294e-007
-6.383204e-007
-8.608521e-007
-1.124463e-006
-1.426005e-006
-1.758693e-006
-2.112821e-006
-2.477140e-006
-2.840221e-006
-3.191324e-006
-3.520821e-006
-3.820617e-006
-4.084828e-006
-4.310328e-006
-4.496537e-006
-4.644457e-006
-4.755818e-006
-4.833031e-006
-4.879541e-006
-4.899675e-006
-4.897772e-006
-4.877495e-006
-4.841971e-006
-4.794337e-006
-4.737757e-006
-4.674881e-006
-4.607572e-006
-4.537399e-006
-4.466311e-006
-4.396695e-006
-4.330893e-006
-4.270995e-006
-4.219201e-006
-4.178190e-006
-4.150822e-006
-4.139396e-006
-4.145169e-006
-4.168352e-006
-4.208018e-006
-4.261466e-006
-4.323346e-006
-4.385262e-006
-4.436127e-006
-4.462968e-006
-4.451900e-006
-4.389344e-006
-4.263700e-006
-4.067366e-006
-3.798693e-006
-3.463341e-006
-3.074465e-006
-2.651298e-006
-2.216369e-006
-1.792292e-006
-1.399134e-006
-1.052553e-006
-7.622724e-007
-5.310444e-007
-3.550892e-007
-2.265225e-007
-1.365392e-007
-7.721252e-008
-4.121358e-008
-2.105197e-008
-9.731047e-009
-2.562910e-009
1.977301e-009
3.615477e-009
2.575624e-009
4.854455e-010
-7.422394e-010
-4.393642e-010
6.325634e-010
1.384883e-009
1.380501e-009
8.260188e-010
5.933216e-011
-6.535915e-010
-9.976854e-010
-6.952798e-010
1.258858e-010
8.422772e-010
1.424170e-008
8.764629e-009
1.951955e-009
-1.588157e-009
-5.372805e-010
2.702293e-009
4.754985e-009
4.065294e-009
1.113944e-009
-3.641681e-009
-1.181440e-008
-2.750384e-008
-5.644359e-008
-1.052269e-007
-1.812964e-007
-2.932256e-007
-4.504109e-007
-6.617707e-007
-9.337654e-007
-1.268428e-006
-1.661964e-006
-2.104061e-006
-2.577835e-006
-3.060549e-006
-3.525539e-006
-3.945479e-006
-4.296057e-006
-4.558582e-006
-4.720731e-006
-4.776164e-006
-4.724166e-006
-4.569484e-006
-4.321482e-006
-3.992283e-006
-3.594899e-006
-3.142513e-006
-2.648619e-006
-2.126745e-006
-1.589291e-006
-1.046546e-006
-5.068646e-007
2.243552e-008
5.346679e-007
1.024141e-006
1.486320e-006
1.917065e-006
2.311456e-006
2.663276e-006
2.965309e-006
3.209707e-006
3.387807e-006
3.489739e-006
3.504627e-006
3.421614e-006
3.231242e-006
2.926598e-006
2.504274e-006
1.965604e-006
1.318464e-006
5.791567e-007
-2.264540e-007
-1.063244e-006
-1.888573e-006
-2.655090e-006
-3.314428e-006
-3.822035e-006
-4.143229e-006
-4.259430e-006
-4.172429e-006
-3.904698e-006
-3.495555e-006
-2.994746e-006
-2.455312e-006
-1.926531e-006
-1.447381e-006
-1.041879e-006
-7.183409e-007
-4.730496e-007
-2.959767e-007
-1.750978e-007
-9.795143e-008
-5.200311e-008
-2.582487e-008
-1.095325e-008
-2.640077e-009
1.319719e-009
2.388846e-009
2.021674e-009
1.276530e-009
5.538967e-010
4.414108e-011
1.031645e-010
8.368868e-010
1.538481e-009
1.138642e-009
-4.955313e-010
-2.016307e-009
-1.812175e-009
1.615403e-010
2.090861e-009
8.251625e-009
4.573836e-009
3.963350e-010
-7.879315e-010
1.745487e-009
5.394766e-009
6.476567e-009
2.938815e-009
-5.116472e-009
-1.765417e-008
-3.778123e-008
-7.320908e-008
-1.352568e-007
-2.366942e-007
-3.903528e-007
-6.090075e-007
-9.050050e-007
-1.287641e-006
-1.758041e-006
-2.303721e-006
-2.895737e-006
-3.489720e-006
-4.029949e-006
-4.455027e-006
-4.704549e-006
-4.726543e-006
-4.484320e-006
-3.960392e-006
-3.156099e-006
-2.088188e-006
-7.848439e-007
7.175412e-007
2.377530e-006
4.152389e-006
6.001495e-006
7.887995e-006
9.778910e-006
1.164524e-005
1.346283e-005
1.521308e-005
1.688223e-005
1.845975e-005
1.993719e-005
2.130783e-005
2.256617e-005
2.370671e-005
2.472219e-005
2.560258e-005
2.633496e-005
2.690368e-005
2.729030e-005
2.747329e-005
2.742815e-005
2.712854e-005
2.654821e-005
2.566332e-005
2.445470e-005
2.291034e-005
2.102904e-005
1.882514e-005
1.633335e-005
1.361190e-005
1.074325e-005
7.832269e-006
5.001470e-006
2.382272e-006
1.012489e-007
-1.737114e-006
-3.066928e-006
-3.871723e-006
-4.186568e-006
-4.091288e-006
-3.696381e-006
-3.124012e-006
-2.487690e-006
-1.875772e-006
-1.343585e-006
-9.154167e-007
-5.929116e-007
-3.644538e-007
-2.121980e-007
-1.166771e-007
-6.009617e-008
-2.842731e-008
-1.178948e-008
-3.533598e-009
6.229338e-010
2.799891e-009
3.327671e-009
2.079509e-009
-6.967522e-011
-1.301614e-009
-5.470952e-010
1.204505e-009
1.824321e-009
4.197695e-010
-1.548153e-009
-1.843966e-009
-2.476042e-011
1.973932e-009
-8.004324e-010
-5.293114e-010
3.616580e-010
2.203725e-009
4.679340e-009
6.340500e-009
4.801728e-009
-2.484372e-009
-1.790649e-008
-4.492776e-008
-9.061956e-008
-1.676719e-007
-2.940916e-007
-4.906289e-007
-7.775407e-007
-1.171575e-006
-1.681761e-006
-2.301804e-006
-2.999599e-006
-3.708474e-006
-4.326101e-006
-4.723709e-006
-4.763087e-006
-4.316154e-006
-3.282780e-006
-1.604411e-006
7.284453e-007
3.676782e-006
7.161814e-006
1.107867e-005
1.531019e-005
1.973763e-005
2.424864e-005
2.874344e-005
3.313908e-005
3.737070e-005
4.139004e-005
4.516341e-005
4.867004e-005
5.190052e-005
5.485402e-005
5.753490e-005
5.995024e-005
6.210834e-005
6.401754e-005
6.568462e-005
6.711320e-005
6.830280e-005
6.924844e-005
6.994057e-005
7.036474e-005
7.050096e-005
7.032281e-005
6.979666e-005
6.888156e-005
6.752979e-005
6.568757e-005
6.329668e-005
6.029839e-005
5.664169e-005
5.229542e-005
4.726295e-005
4.159723e-005
3.541414e-005
2.890054e-005
2.231134e-005
1.595047e-005
1.013534e-005
5.150757e-006
1.203141e-006
-1.613470e-006
-3.330757e-006
-4.094564e-006
-4.130095e-006
-3.692927e-006
-3.020208e-006
-2.296019e-006
-1.638024e-006
-1.103064e-006
-7.033493e-007
-4.247780e-007
-2.421861e-007
-1.294893e-007
-6.452728e-008
-2.995279e-008
-1.264500e-008
-3.630468e-009
1.604209e-009
3.963119e-009
3.252829e-009
5.793555e-010
-1.563963e-009
-1.383307e-009
5.131071e-010
1.893977e-009
1.361011e-009
-2.616277e-010
-1.077359e-009
-3.537432e-010
7.596570e-010
-5.377710e-009
-1.294896e-009
3.822587e-009
6.670952e-009
6.165034e-009
2.925360e-009
-3.566230e-009
-1.726089e-008
-4.571590e-008
-9.949244e-008
-1.929157e-007
-3.460826e-007
-5.855097e-007
-9.408712e-007
-1.437244e-006
-2.083382e-006
-2.856169e-006
-3.682202e-006
-4.421524e-006
-4.863091e-006
-4.740985e-006
-3.772530e-006
-1.708944e-006
1.616396e-006
6.254935e-006
1.213141e-005
1.905386e-005
2.674170e-005
3.486547e-005
4.308899e-005
5.110406e-005
5.865276e-005
6.553785e-005
7.162541e-005
7.684213e-005
8.116800e-005
8.462564e-005
8.726903e-005
8.917341e-005
9.042636e-005
9.111963e-005
9.134256e-005
9.117859e-005
9.070439e-005
8.999054e-005
8.910282e-005
8.810423e-005
8.705740e-005
8.602635e-005
8.507707e-005
8.427681e-005
8.369143e-005
8.337970e-005
8.338426e-005
8.372004e-005
8.436109e-005
8.522586e-005
8.616261e-005
8.693928e-005
8.724422e-005
8.670361e-005
8.491871e-005
8.152373e-005
7.626008e-005
6.905448e-005
6.007978e-005
4.977492e-005
3.880744e-005
2.797808e-005
1.808472e-005
9.778627e-006
3.452440e-006
-8.090809e-007
-3.204992e-006
-4.132274e-006
-4.068896e-006
-3.464292e-006
-2.666538e-006
-1.896771e-006
-1.262473e-006
-7.913238e-007
-4.676036e-007
-2.596640e-007
-1.350291e-007
-6.586994e-008
-3.011791e-008
-1.199083e-008
-2.362452e-009
2.399664e-009
3.350157e-009
1.760686e-009
-2.023019e-010
-7.787483e-010
1.187247e-010
1.233228e-009
1.436221e-009
7.239477e-010
-1.154787e-010
-4.978079e-010
-5.136717e-010
-3.918071e-009
2.176421e-009
8.860696e-009
1.023620e-008
4.718591e-009
-5.710149e-009
-2.104562e-008
-4.839228e-008
-1.028143e-007
-2.051552e-007
-3.808287e-007
-6.608871e-007
-1.081535e-006
-1.675813e-006
-2.453218e-006
-3.367645e-006
-4.279408e-006
-4.923401e-006
-4.901233e-006
-3.715096e-006
-8.499867e-007
4.109388e-006
1.135877e-005
2.078919e-005
3.196260e-005
4.415471e-005
5.645375e-005
6.788958e-005
7.756220e-005
8.474332e-005
8.893502e-005
8.988278e-005
8.755424e-005
8.209985e-005
7.380867e-005
6.306495e-005
5.030778e-005
3.599566e-005
2.057781e-005
4.472318e-006
-1.194860e-005
-2.836480e-005
-4.450514e-005
-6.013731e-005
-7.505379e-005
-8.905600e-005
-1.019377e-004
-1.134697e-004
-1.233887e-004
-1.313915e-004
-1.371346e-004
-1.402400e-004
-1.403114e-004
-1.369609e-004
-1.298485e-004
-1.187328e-004
-1.035330e-004
-8.440240e-005
-6.180288e-005
-3.656817e-005
-9.933116e-006
1.649407e-005
4.084000e-005
6.116831e-005
7.576473e-005
8.345790e-005
8.389589e-005
7.768548e-005
6.632451e-005
5.191995e-005
3.675883e-005
2.285086e-005
1.157805e-005
3.549404e-006
-1.332362e-006
-3.653826e-006
-4.214659e-006
-3.785107e-006
-2.956116e-006
-2.094304e-006
-1.374154e-006
-8.435570e-007
-4.861316e-007
-2.629327e-007
-1.333887e-007
-6.336019e-008
-2.761364e-008
-9.935782e-009
-1.485555e-009
1.982907e-009
2.649251e-009
1.947027e-009
8.958730e-010
1.535864e-010
4.310018e-011
4.632820e-010
8.675413e-010
6.588383e-010
-1.837077e-010
-9.709209e-010
-1.005895e-010
5.671936e-009
1.124682e-008
9.985663e-009
-5.854527e-010
-1.985750e-008
-5.067539e-008
-1.057980e-007
-2.096520e-007
-3.959670e-007
-7.049956e-007
-1.180877e-006
-1.862678e-006
-2.758237e-006
-3.793416e-006
-4.742006e-006
-5.160238e-006
-4.366636e-006
-1.510180e-006
4.251979e-006
1.348884e-005
2.620781e-005
4.163750e-005
5.816297e-005
7.346289e-005
8.483582e-005
8.962534e-005
8.562995e-005
7.140305e-005
4.638497e-005
1.086291e-005
-3.419605e-005
-8.736789e-005
-1.469857e-004
-2.113090e-004
-2.786440e-004
-3.474250e-004
-4.162669e-004
-4.839969e-004
-5.496654e-004
-6.125408e-004
-6.720851e-004
-7.279134e-004
-7.797451e-004
-8.273510e-004
-8.705048e-004
-9.089368e-004
-9.422952e-004
-9.701186e-004
-9.918178e-004
-1.006668e-003
-1.013808e-003
-1.012255e-003
-1.000930e-003
-9.787113e-004
-9.445079e-004
-8.973696e-004
-8.366483e-004
-7.622115e-004
-6.747037e-004
-5.758236e-004
-4.685583e-004
-3.572791e-004
-2.475921e-004
-1.458540e-004
-5.834414e-005
9.808616e-006
5.570635e-005
7.941897e-005
8.401866e-005
7.478840e-005
5.788332e-005
3.893638e-005
2.203428e-005
9.334035e-006
1.283074e-006
-2.817855e-006
-4.173410e-006
-3.980949e-006
-3.145151e-006
-2.209381e-006
-1.423063e-006
-8.531039e-007
-4.790403e-007
-2.521234e-007
-1.238682e-007
-5.629031e-008
-2.319711e-008
-7.992014e-009
-1.032232e-009
2.323873e-009
3.442223e-009
2.527656e-009
4.589755e-010
-1.021212e-009
-7.739831e-010
5.295137e-010
1.178411e-009
4.293593e-010
-6.689125e-010
3.402661e-009
6.509804e-009
8.526791e-009
3.953486e-009
-1.160605e-008
-4.288053e-008
-1.002012e-007
-2.052872e-007
-3.940813e-007
-7.155344e-007
-1.226066e-006
-1.975323e-006
-2.971363e-006
-4.110233e-006
-5.066993e-006
-5.178381e-006
-3.391533e-006
1.621449e-006
1.110995e-005
2.566493e-005
4.453812e-005
6.508182e-005
8.256309e-005
9.058179e-005
8.209212e-005
5.075052e-005
-7.786875e-006
-9.503361e-005
-2.095525e-004
-3.474562e-004
-5.032445e-004
-6.706961e-004
-8.436268e-004
-1.016424e-003
-1.184359e-003
-1.343722e-003
-1.491838e-003
-1.627010e-003
-1.748395e-003
-1.855853e-003
-1.949766e-003
-2.030868e-003
-2.100085e-003
-2.158409e-003
-2.206810e-003
-2.246189e-003
-2.277344e-003
-2.300965e-003
-2.317631e-003
-2.327807e-003
-2.331827e-003
-2.329847e-003
-2.321764e-003
-2.307093e-003
-2.284812e-003
-2.253161e-003
-2.209459e-003
-2.149982e-003
-2.070010e-003
-1.964199e-003
-1.827396e-003
-1.656007e-003
-1.449774e-003
-1.213520e-003
-9.580934e-004
-6.997539e-004
-4.577154e-004
-2.503645e-004
-9.123193e-005
1.412941e-005
6.925049e-005
8.502223e-005
7.576840e-005
5.511975e-005
3.317925e-005
1.556614e-005
4.081438e-006
-1.903085e-006
-4.052336e-006
-4.073119e-006
-3.224603e-006
-2.230719e-006
-1.404508e-006
-8.202856e-007
-4.475156e-007
-2.276356e-007
-1.072203e-007
-4.660249e-008
-1.863870e-008
-6.029095e-009
3.467450e-010
3.401098e-009
3.304082e-009
9.513270e-010
-1.209683e-009
-1.224740e-009
3.910683e-010
1.454238e-009
8.143203e-010
-3.829865e-010
8.044249e-009
6.230004e-009
1.726598e-009
-8.697388e-009
-3.262438e-008
-8.390696e-008
-1.850873e-007
-3.709844e-007
-6.921836e-007
-1.213754e-006
-1.999984e-006
-3.069768e-006
-4.302419e-006
-5.282487e-006
-5.114056e-006
-2.314377e-006
5.023857e-006
1.860736e-005
3.878551e-005
6.303957e-005
8.459628e-005
9.192075e-005
6.993044e-005
3.023087e-006
-1.207796e-004
-3.059654e-004
-5.476923e-004
-8.324045e-004
-1.140144e-003
-1.447839e-003
-1.732963e-003
-1.976726e-003
-2.166087e-003
-2.294358e-003
-2.360707e-003
-2.369026e-003
-2.326520e-003
-2.242261e-003
-2.125887e-003
-1.986583e-003
-1.832430e-003
-1.670121e-003
-1.504960e-003
-1.341061e-003
-1.181651e-003
-1.029403e-003
-8.867497e-004
-7.561386e-004
-6.402399e-004
-5.420869e-004
-4.651551e-004
-4.133741e-004
-3.910653e-004
-4.027901e-004
-4.530635e-004
-5.458630e-004
-6.838317e-004
-8.670532e-004
-1.091293e-003
-1.345728e-003
-1.610544e-003
-1.855425e-003
-2.040777e-003
-2.123884e-003
-2.070787e-003
-1.870889e-003
-1.546804e-003
-1.151523e-003
-7.517810e-004
-4.065858e-004
-1.522283e-004
2.565163e-006
7.259877e-005
8.520710e-005
6.834978e-005
4.302902e-005
2.097928e-005
6.346762e-006
-1.243518e-006
-3.968873e-006
-4.085833e-006
-3.193813e-006
-2.158291e-006
-1.322003e-006
-7.490028e-007
-3.947292e-007
-1.929435e-007
-8.727959e-008
-3.675528e-008
-1.399620e-008
-3.280264e-009
1.906673e-009
3.141328e-009
1.579200e-009
-3.458605e-010
-5.585506e-010
6.837058e-010
1.431609e-009
6.287907e-010
-6.166124e-010
1.544297e-008
7.061991e-009
-7.284347e-009
-2.901823e-008
-7.031589e-008
-1.568362e-007
-3.272599e-007
-6.340697e-007
-1.145345e-006