# vtk DataFile Version 3.0
vtk output
ASCII
DATASET STRUCTURED_POINTS
DIMENSIONS 100 100 1
SPACING 1 1 1
ORIGIN 0 0 0
POINT_DATA 10000
SCALARS SFBox_profile double
LOOKUP_TABLE default 
9.439918e-003
9.439919e-003
9.439920e-003
9.439921e-003
9.439922e-003
9.439921e-003
9.439920e-003
9.439919e-003
9.439918e-003
9.439918e-003
9.439919e-003
9.439921e-003
9.439922e-003
9.439922e-003
9.439921e-003
9.439919e-003
9.439919e-003
9.439919e-003
9.439920e-003
9.439920e-003
9.439919e-003
9.439919e-003
9.439919e-003
9.439920e-003
9.439921e-003
9.439921e-003
9.439921e-003
9.439921e-003
9.439921e-003
9.439921e-003
9.439922e-003
9.439921e-003
9.439921e-003
9.439921e-003
9.439921e-003
9.439921e-003
9.439922e-003
9.439921e-003
9.439921e-003
9.439922e-003
9.439922e-003
9.439922e-003
9.439922e-003
9.439922e-003
9.439923e-003
9.439923e-003
9.439923e-003
9.439923e-003
9.439923e-003
9.439922e-003
9.439922e-003
9.439922e-003
9.439922e-003
9.439922e-003
9.439921e-003
9.439921e-003
9.439921e-003
9.439921e-003
9.439921e-003
9.439921e-003
9.439921e-003
9.439921e-003
9.439921e-003
9.439921e-003
9.439921e-003
9.439921e-003
9.439921e-003
9.439921e-003
9.439920e-003
9.439920e-003
9.439919e-003
9.439919e-003
9.439920e-003
9.439920e-003
9.439919e-003
9.439919e-003
9.439920e-003
9.439921e-003
9.439921e-003
9.439921e-003
9.439920e-003
9.439920e-003
9.439920e-003
9.439920e-003
9.439920e-003
9.439920e-003
9.439920e-003
9.439920e-003
9.439921e-003
9.439921e-003
9.439921e-003
9.439920e-003
9.439919e-003
9.439919e-003
9.439920e-003
9.439921e-003
9.439921e-003
9.439921e-003
9.439920e-003
9.439919e-003
9.439918e-003
9.439919e-003
9.439920e-003
9.439921e-003
9.439922e-003
9.439921e-003
9.439920e-003
9.439919e-003
9.439918e-003
9.439918e-003
9.439919e-003
9.439921e-003
9.439922e-003
9.439922e-003
9.439921e-003
9.439919e-003
9.439919e-003
9.439919e-003
9.439920e-003
9.439920e-003
9.439919e-003
9.439919e-003
9.439919e-003
9.439920e-003
9.439921e-003
9.439921e-003
9.439921e-003
9.439921e-003
9.439921e-003
9.439921e-003
9.439922e-003
9.439921e-003
9.439921e-003
9.439921e-003
9.439921e-003
9.439921e-003
9.439922e-003
9.439921e-003
9.439921e-003
9.439922e-003
9.439922e-003
9.439922e-003
9.439922e-003
9.439922e-003
9.439923e-003
9.439923e-003
9.439923e-003
9.439923e-003
9.439923e-003
9.439922e-003
9.439922e-003
9.439922e-003
9.439922e-003
9.439922e-003
9.439921e-003
9.439921e-003
9.439921e-003
9.439921e-003
9.439921e-003
9.439921e-003
9.439921e-003
9.439921e-003
9.439921e-003
9.439921e-003
9.439921e-003
9.439921e-003
9.439921e-003
9.439921e-003
9.439920e-003
9.439920e-003
9.439919e-003
9.439919e-003
9.439920e-003
9.439920e-003
9.439919e-003
9.439919e-003
9.439920e-003
9.439921e-003
9.439921e-003
9.439921e-003
9.439920e-003
9.439920e-003
9.439920e-003
9.439920e-003
9.439920e-003
9.439920e-003
9.439920e-003
9.439920e-003
9.439921e-003
9.439921e-003
9.439921e-003
9.439920e-003
9.439919e-003
9.439919e-003
9.439920e-003
9.439921e-003
9.439921e-003
9.439921e-003
9.439920e-003
9.439919e-003
9.439921e-003
9.439920e-003
9.439920e-003
9.439920e-003
9.439920e-003
9.439920e-003
9.439920e-003
9.439920e-003
9.439920e-003
9.439920e-003
9.439920e-003
9.439920e-003
9.439920e-003
9.439920e-003
9.439920e-003
9.439919e-003
9.439920e-003
9.439920e-003
9.439921e-003
9.439921e-003
9.439920e-003
9.439920e-003
9.439920e-003
9.439920e-003
9.439921e-003
9.439921e-003
9.439920e-003
9.439920e-003
9.439920e-003
9.439921e-003
9.439921e-003
9.439921e-003
9.439922e-003
9.439922e-003
9.439922e-003
9.439923e-003
9.439923e-003
9.439923e-003
9.439924e-003
9.439924e-003
9.439924e-003
9.439925e-003
9.439925e-003
9.439925e-003
9.439925e-003
9.439925e-003
9.439925e-003
9.439925e-003
9.439925e-003
9.439925e-003
9.439924e-003
9.439924e-003
9.439924e-003
9.439924e-003
9.439923e-003
9.439923e-003
9.439923e-003
9.439923e-003
9.439922e-003
9.439922e-003
9.439921e-003
9.439921e-003
9.439921e-003
9.439921e-003
9.439920e-003
9.439920e-003
9.439920e-003
9.439920e-003
9.439920e-003
9.439920e-003
9.439920e-003
9.439920e-003
9.439920e-003
9.439920e-003
9.439920e-003
9.439920e-003
9.439920e-003
9.439920e-003
9.439920e-003
9.439920e-003
9.439920e-003
9.439920e-003
9.439920e-003
9.439920e-003
9.439920e-003
9.439920e-003
9.439920e-003
9.439920e-003
9.439920e-003
9.439920e-003
9.439920e-003
9.439920e-003
9.439920e-003
9.439920e-003
9.439920e-003
9.439920e-003
9.439920e-003
9.439920e-003
9.439920e-003
9.439920e-003
9.439923e-003
9.439922e-003
9.439920e-003
9.439918e-003
9.439918e-003
9.439919e-003
9.439920e-003
9.439922e-003
9.439922e-003
9.439922e-003
9.439920e-003
9.439919e-003
9.439918e-003
9.439918e-003
9.439919e-003
9.439920e-003
9.439920e-003
9.439921e-003
9.439921e-003
9.439921e-003
9.439921e-003
9.439921e-003
9.439921e-003
9.439920e-003
9.439920e-003
9.439920e-003
9.439920e-003
9.439920e-003
9.439921e-003
9.439921e-003
9.439922e-003
9.439923e-003
9.439923e-003
9.439924e-003
9.439925e-003
9.439925e-003
9.439926e-003
9.439927e-003
9.439927e-003
9.439927e-003
9.439928e-003
9.439928e-003
9.439928e-003
9.439928e-003
9.439929e-003
9.439929e-003
9.439929e-003
9.439929e-003
9.439928e-003
9.439928e-003
9.439928e-003
9.439928e-003
9.439928e-003
9.439927e-003
9.439927e-003
9.439926e-003
9.439926e-003
9.439925e-003
9.439924e-003
9.439923e-003
9.439923e-003
9.439922e-003
9.439921e-003
9.439921e-003
9.439920e-003
9.439920e-003
9.439920e-003
9.439920e-003
9.439920e-003
9.439920e-003
9.439921e-003
9.439921e-003
9.439921e-003
9.439921e-003
9.439921e-003
9.439920e-003
9.439920e-003
9.439920e-003
9.439919e-003
9.439919e-003
9.439919e-003
9.439920e-003
9.439920e-003
9.439921e-003
9.439921e-003
9.439920e-003
9.439920e-003
9.439920e-003
9.439919e-003
9.439919e-003
9.439920e-003
9.439920e-003
9.439921e-003
9.439921e-003
9.439920e-003
9.439920e-003
9.439919e-003
9.439920e-003
9.439920e-003
9.439921e-003
9.439923e-003
9.439922e-003
9.439921e-003
9.439919e-003
9.439918e-003
9.439918e-003
9.439920e-003
9.439921e-003
9.439922e-003
9.439922e-003
9.439920e-003
9.439918e-003
9.439918e-003
9.439919e-003
9.439920e-003
9.439921e-003
9.439921e-003
9.439920e-003
9.439920e-003
9.439920e-003
9.439921e-003
9.439921e-003
9.439921e-003
9.439921e-003
9.439921e-003
9.439921e-003
9.439922e-003
9.439923e-003
9.439923e-003
9.439924e-003
9.439924e-003
9.439925e-003
9.439927e-003
9.439928e-003
9.439928e-003
9.439929e-003
9.439930e-003
9.439931e-003
9.439932e-003
9.439932e-003
9.439933e-003
9.439933e-003
9.439934e-003
9.439934e-003
9.439934e-003
9.439934e-003
9.439934e-003
9.439934e-003
9.439934e-003
9.439934e-003
9.439933e-003
9.439933e-003
9.439932e-003
9.439932e-003
9.439931e-003
9.439930e-003
9.439929e-003
9.439928e-003
9.439928e-003
9.439927e-003
9.439926e-003
9.439925e-003
9.439924e-003
9.439923e-003
9.439922e-003
9.439922e-003
9.439921e-003
9.439921e-003
9.439921e-003
9.439921e-003
9.439921e-003
9.439921e-003
9.439920e-003
9.439920e-003
9.439920e-003
9.439920e-003
9.439920e-003
9.439920e-003
9.439919e-003
9.439919e-003
9.439920e-003
9.439920e-003
9.439920e-003
9.439920e-003
9.439920e-003
9.439920e-003
9.439920e-003
9.439920e-003
9.439919e-003
9.439919e-003
9.439919e-003
9.439920e-003
9.439921e-003
9.439921e-003
9.439920e-003
9.439919e-003
9.439919e-003
9.439919e-003
9.439920e-003
9.439921e-003
9.439919e-003
9.439920e-003
9.439921e-003
9.439921e-003
9.439920e-003
9.439919e-003
9.439919e-003
9.439919e-003
9.439920e-003
9.439921e-003
9.439920e-003
9.439920e-003
9.439919e-003
9.439920e-003
9.439921e-003
9.439921e-003
9.439921e-003
9.439920e-003
9.439919e-003
9.439919e-003
9.439920e-003
9.439921e-003
9.439922e-003
9.439922e-003
9.439922e-003
9.439923e-003
9.439925e-003
9.439926e-003
9.439927e-003
9.439928e-003
9.439929e-003
9.439930e-003
9.439932e-003
9.439933e-003
9.439934e-003
9.439935e-003
9.439936e-003
9.439937e-003
9.439938e-003
9.439939e-003
9.439939e-003
9.439940e-003
9.439940e-003
9.439941e-003
9.439941e-003
9.439941e-003
9.439941e-003
9.439941e-003
9.439941e-003
9.439940e-003
9.439940e-003
9.439939e-003
9.439938e-003
9.439938e-003
9.439937e-003
9.439936e-003
9.439935e-003
9.439934e-003
9.439933e-003
9.439932e-003
9.439930e-003
9.439929e-003
9.439928e-003
9.439927e-003
9.439926e-003
9.439925e-003
9.439924e-003
9.439923e-003
9.439922e-003
9.439921e-003
9.439921e-003
9.439920e-003
9.439920e-003
9.439920e-003
9.439920e-003
9.439920e-003
9.439920e-003
9.439920e-003
9.439920e-003
9.439920e-003
9.439920e-003
9.439920e-003
9.439920e-003
9.439920e-003
9.439919e-003
9.439920e-003
9.439920e-003
9.439921e-003
9.439920e-003
9.439919e-003
9.439919e-003
9.439920e-003
9.439921e-003
9.439921e-003
9.439920e-003
9.439920e-003
9.439919e-003
9.439919e-003
9.439920e-003
9.439921e-003
9.439914e-003
9.439917e-003
9.439920e-003
9.439923e-003
9.439923e-003
9.439921e-003
9.439919e-003
9.439918e-003
9.439918e-003
9.439919e-003
9.439920e-003
9.439921e-003
9.439921e-003
9.439921e-003
9.439921e-003
9.439921e-003
9.439921e-003
9.439920e-003
9.439919e-003
9.439920e-003
9.439921e-003
9.439922e-003
9.439923e-003
9.439924e-003
9.439925e-003
9.439927e-003
9.439929e-003
9.439931e-003
9.439933e-003
9.439934e-003
9.439935e-003
9.439937e-003
9.439939e-003
9.439941e-003
9.439942e-003
9.439942e-003
9.439943e-003
9.439944e-003
9.439945e-003
9.439945e-003
9.439945e-003
9.439945e-003
9.439945e-003
9.439945e-003
9.439945e-003
9.439945e-003
9.439944e-003
9.439944e-003
9.439944e-003
9.439944e-003
9.439944e-003
9.439943e-003
9.439943e-003
9.439943e-003
9.439943e-003
9.439942e-003
9.439941e-003
9.439940e-003
9.439939e-003
9.439938e-003
9.439937e-003
9.439935e-003
9.439933e-003
9.439932e-003
9.439930e-003
9.439929e-003
9.439927e-003
9.439925e-003
9.439924e-003
9.439923e-003
9.439922e-003
9.439921e-003
9.439920e-003
9.439920e-003
9.439920e-003
9.439920e-003
9.439921e-003
9.439920e-003
9.439920e-003
9.439921e-003
9.439921e-003
9.439921e-003
9.439920e-003
9.439919e-003
9.439919e-003
9.439919e-003
9.439920e-003
9.439921e-003
9.439921e-003
9.439920e-003
9.439920e-003
9.439920e-003
9.439920e-003
9.439920e-003
9.439920e-003
9.439920e-003
9.439920e-003
9.439920e-003
9.439920e-003
9.439920e-003
9.439913e-003
9.439916e-003
9.439919e-003
9.439922e-003
9.439923e-003
9.439922e-003
9.439920e-003
9.439918e-003
9.439918e-003
9.439919e-003
9.439921e-003
9.439922e-003
9.439921e-003
9.439921e-003
9.439920e-003
9.439920e-003
9.439920e-003
9.439921e-003
9.439921e-003
9.439922e-003
9.439923e-003
9.439925e-003
9.439926e-003
9.439928e-003
9.439929e-003
9.439932e-003
9.439934e-003
9.439937e-003
9.439939e-003
9.439941e-003
9.439943e-003
9.439944e-003
9.439946e-003
9.439946e-003
9.439946e-003
9.439945e-003
9.439944e-003
9.439942e-003
9.439940e-003
9.439938e-003
9.439935e-003
9.439932e-003
9.439930e-003
9.439928e-003
9.439926e-003
9.439925e-003
9.439924e-003
9.439924e-003
9.439925e-003
9.439927e-003
9.439928e-003
9.439930e-003
9.439932e-003
9.439935e-003
9.439937e-003
9.439939e-003
9.439941e-003
9.439942e-003
9.439943e-003
9.439943e-003
9.439942e-003
9.439940e-003
9.439939e-003
9.439937e-003
9.439935e-003
9.439933e-003
9.439931e-003
9.439929e-003
9.439927e-003
9.439926e-003
9.439924e-003
9.439923e-003
9.439922e-003
9.439921e-003
9.439921e-003
9.439921e-003
9.439920e-003
9.439920e-003
9.439920e-003
9.439920e-003
9.439921e-003
9.439921e-003
9.439920e-003
9.439919e-003
9.439919e-003
9.439919e-003
9.439920e-003
9.439921e-003
9.439921e-003
9.439921e-003
9.439920e-003
9.439920e-003
9.439919e-003
9.439919e-003
9.439920e-003
9.439920e-003
9.439921e-003
9.439920e-003
9.439920e-003
9.439919e-003
9.439918e-003
9.439918e-003
9.439919e-003
9.439920e-003
9.439921e-003
9.439921e-003
9.439921e-003
9.439920e-003
9.439919e-003
9.439920e-003
9.439921e-003
9.439921e-003
9.439921e-003
9.439919e-003
9.439919e-003
9.439920e-003
9.439921e-003
9.439923e-003
9.439925e-003
9.439926e-003
9.439927e-003
9.439929e-003
9.439931e-003
9.439933e-003
9.439936e-003
9.439938e-003
9.439941e-003
9.439943e-003
9.439945e-003
9.439946e-003
9.439946e-003
9.439944e-003
9.439941e-003
9.439937e-003
9.439930e-003
9.439922e-003
9.439912e-003
9.439902e-003
9.439890e-003
9.439879e-003
9.439867e-003
9.439856e-003
9.439846e-003
9.439838e-003
9.439832e-003
9.439828e-003
9.439826e-003
9.439827e-003
9.439830e-003
9.439836e-003
9.439844e-003
9.439853e-003
9.439864e-003
9.439875e-003
9.439887e-003
9.439899e-003
9.439909e-003
9.439919e-003
9.439927e-003
9.439933e-003
9.439938e-003
9.439940e-003
9.439941e-003
9.439941e-003
9.439941e-003
9.439939e-003
9.439936e-003
9.439934e-003
9.439932e-003
9.439930e-003
9.439928e-003
9.439926e-003
9.439925e-003
9.439923e-003
9.439922e-003
9.439922e-003
9.439921e-003
9.439920e-003
9.439920e-003
9.439920e-003
9.439920e-003
9.439920e-003
9.439920e-003
9.439920e-003
9.439920e-003
9.439920e-003
9.439920e-003
9.439920e-003
9.439920e-003
9.439920e-003
9.439921e-003
9.439920e-003
9.439919e-003
9.439919e-003
9.439920e-003
9.439920e-003
9.439921e-003
9.439921e-003
9.439920e-003
9.439919e-003
9.439926e-003
9.439923e-003
9.439919e-003
9.439917e-003
9.439917e-003
9.439919e-003
9.439921e-003
9.439922e-003
9.439921e-003
9.439920e-003
9.439920e-003
9.439920e-003
9.439920e-003
9.439920e-003
9.439920e-003
9.439921e-003
9.439923e-003
9.439926e-003
9.439928e-003
9.439929e-003
9.439931e-003
9.439934e-003
9.439937e-003
9.439941e-003
9.439944e-003
9.439946e-003
9.439947e-003
9.439946e-003
9.439944e-003
9.439938e-003
9.439928e-003
9.439914e-003
9.439895e-003
9.439872e-003
9.439845e-003
9.439814e-003
9.439780e-003
9.439744e-003
9.439706e-003
9.439669e-003
9.439633e-003
9.439600e-003
9.439571e-003
9.439547e-003
9.439528e-003
9.439517e-003
9.439513e-003
9.439516e-003
9.439526e-003
9.439544e-003
9.439568e-003
9.439597e-003
9.439631e-003
9.439667e-003
9.439706e-003
9.439744e-003
9.439781e-003
9.439816e-003
9.439847e-003
9.439874e-003
9.439896e-003
9.439913e-003
9.439926e-003
9.439935e-003
9.439940e-003
9.439942e-003
9.439942e-003
9.439940e-003
9.439938e-003
9.439935e-003
9.439932e-003
9.439930e-003
9.439928e-003
9.439926e-003
9.439924e-003
9.439923e-003
9.439921e-003
9.439920e-003
9.439920e-003
9.439920e-003
9.439920e-003
9.439920e-003
9.439920e-003
9.439921e-003
9.439921e-003
9.439921e-003
9.439920e-003
9.439919e-003
9.439919e-003
9.439920e-003
9.439921e-003
9.439921e-003
9.439920e-003
9.439919e-003
9.439919e-003
9.439920e-003
9.439921e-003
9.439921e-003
9.439920e-003
9.439919e-003
9.439931e-003
9.439927e-003
9.439920e-003
9.439916e-003
9.439916e-003
9.439918e-003
9.439921e-003
9.439923e-003
9.439922e-003
9.439920e-003
9.439919e-003
9.439920e-003
9.439921e-003
9.439922e-003
9.439923e-003
9.439924e-003
9.439926e-003
9.439928e-003
9.439931e-003
9.439934e-003
9.439937e-003
9.439941e-003
9.439945e-003
9.439949e-003
9.439950e-003
9.439947e-003
9.439940e-003
9.439927e-003
9.439907e-003
9.439878e-003
9.439839e-003
9.439789e-003
9.439727e-003
9.439654e-003
9.439572e-003
9.439481e-003
9.439383e-003
9.439281e-003
9.439178e-003
9.439077e-003
9.438981e-003
9.438893e-003
9.438816e-003
9.438753e-003
9.438706e-003
9.438676e-003
9.438666e-003
9.438675e-003
9.438704e-003
9.438750e-003
9.438814e-003
9.438893e-003
9.438984e-003
9.439083e-003
9.439188e-003
9.439295e-003
9.439400e-003
9.439500e-003
9.439592e-003
9.439674e-003
9.439745e-003
9.439804e-003
9.439851e-003
9.439886e-003
9.439911e-003
9.439928e-003
9.439937e-003
9.439942e-003
9.439943e-003
9.439941e-003
9.439938e-003
9.439934e-003
9.439932e-003
9.439929e-003
9.439927e-003
9.439924e-003
9.439923e-003
9.439922e-003
9.439921e-003
9.439921e-003
9.439920e-003
9.439920e-003
9.439920e-003
9.439921e-003
9.439921e-003
9.439921e-003
9.439920e-003
9.439919e-003
9.439919e-003
9.439920e-003
9.439921e-003
9.439921e-003
9.439921e-003
9.439920e-003
9.439919e-003
9.439920e-003
9.439920e-003
9.439920e-003
9.439920e-003
9.439920e-003
9.439929e-003
9.439925e-003
9.439921e-003
9.439918e-003
9.439917e-003
9.439919e-003
9.439921e-003
9.439922e-003
9.439921e-003
9.439919e-003
9.439919e-003
9.439920e-003
9.439923e-003
9.439925e-003
9.439926e-003
9.439928e-003
9.439929e-003
9.439932e-003
9.439936e-003
9.439941e-003
9.439945e-003
9.439948e-003
9.439950e-003
9.439947e-003
9.439937e-003
9.439918e-003
9.439885e-003
9.439835e-003
9.439767e-003
9.439676e-003
9.439559e-003
9.439416e-003
9.439246e-003
9.439051e-003
9.438834e-003
9.438598e-003
9.438348e-003
9.438091e-003
9.437834e-003
9.437584e-003
9.437348e-003
9.437134e-003
9.436948e-003
9.436797e-003
9.436684e-003
9.436615e-003
9.436591e-003
9.436614e-003
9.436684e-003
9.436798e-003
9.436954e-003
9.437146e-003
9.437369e-003
9.437615e-003
9.437876e-003
9.438143e-003
9.438409e-003
9.438666e-003
9.438906e-003
9.439124e-003
9.439315e-003
9.439479e-003
9.439613e-003
9.439720e-003
9.439800e-003
9.439858e-003
9.439898e-003
9.439923e-003
9.439936e-003
9.439941e-003
9.439942e-003
9.439940e-003
9.439937e-003
9.439934e-003
9.439930e-003
9.439927e-003
9.439925e-003
9.439924e-003
9.439923e-003
9.439922e-003
9.439921e-003
9.439920e-003
9.439919e-003
9.439920e-003
9.439921e-003
9.439921e-003
9.439920e-003
9.439920e-003
9.439919e-003
9.439920e-003
9.439920e-003
9.439921e-003
9.439921e-003
9.439920e-003
9.439920e-003
9.439920e-003
9.439919e-003
9.439920e-003
9.439920e-003
9.439920e-003
9.439919e-003
9.439920e-003
9.439920e-003
9.439921e-003
9.439921e-003
9.439920e-003
9.439920e-003
9.439920e-003
9.439920e-003
9.439919e-003
9.439920e-003
9.439922e-003
9.439925e-003
9.439928e-003
9.439930e-003
9.439932e-003
9.439935e-003
9.439939e-003
9.439945e-003
9.439950e-003
9.439952e-003
9.439949e-003
9.439937e-003
9.439913e-003
9.439869e-003
9.439800e-003
9.439697e-003
9.439554e-003
9.439364e-003
9.439120e-003
9.438817e-003
9.438454e-003
9.438031e-003
9.437554e-003
9.437030e-003
9.436467e-003
9.435878e-003
9.435278e-003
9.434683e-003
9.434109e-003
9.433571e-003
9.433085e-003
9.432665e-003
9.432324e-003
9.432073e-003
9.431919e-003
9.431868e-003
9.431921e-003
9.432080e-003
9.432339e-003
9.432693e-003
9.433130e-003
9.433638e-003
9.434202e-003
9.434804e-003
9.435427e-003
9.436051e-003
9.436658e-003
9.437232e-003
9.437760e-003
9.438231e-003
9.438640e-003
9.438983e-003
9.439261e-003
9.439478e-003
9.439642e-003
9.439760e-003
9.439840e-003
9.439892e-003
9.439921e-003
9.439936e-003
9.439942e-003
9.439943e-003
9.439940e-003
9.439936e-003
9.439932e-003
9.439929e-003
9.439927e-003
9.439925e-003
9.439924e-003
9.439922e-003
9.439920e-003
9.439920e-003
9.439919e-003
9.439920e-003
9.439920e-003
9.439920e-003
9.439921e-003
9.439920e-003
9.439920e-003
9.439920e-003
9.439920e-003
9.439920e-003
9.439921e-003
9.439920e-003
9.439920e-003
9.439919e-003
9.439919e-003
9.439920e-003
9.439921e-003
9.439909e-003
9.439914e-003
9.439920e-003
9.439924e-003
9.439924e-003
9.439921e-003
9.439919e-003
9.439919e-003
9.439920e-003
9.439921e-003
9.439923e-003
9.439924e-003
9.439927e-003
9.439930e-003
9.439934e-003
9.439938e-003
9.439943e-003
9.439948e-003
9.439953e-003
9.439953e-003
9.439944e-003
9.439918e-003
9.439869e-003
9.439786e-003
9.439656e-003
9.439463e-003
9.439192e-003
9.438827e-003
9.438353e-003
9.437759e-003
9.437037e-003
9.436186e-003
9.435210e-003
9.434122e-003
9.432939e-003
9.431685e-003
9.430386e-003
9.429076e-003
9.427786e-003
9.426552e-003
9.425404e-003
9.424374e-003
9.423489e-003
9.422773e-003
9.422248e-003
9.421929e-003
9.421825e-003
9.421941e-003
9.422276e-003
9.422824e-003
9.423571e-003
9.424499e-003
9.425583e-003
9.426791e-003
9.428090e-003
9.429443e-003
9.430811e-003
9.432155e-003
9.433440e-003
9.434634e-003
9.435714e-003
9.436662e-003
9.437470e-003
9.438136e-003
9.438668e-003
9.439079e-003
9.439383e-003
9.439600e-003
9.439747e-003
9.439841e-003
9.439897e-003
9.439927e-003
9.439941e-003
9.439944e-003
9.439942e-003
9.439938e-003
9.439933e-003
9.439930e-003
9.439927e-003
9.439925e-003
9.439923e-003
9.439922e-003
9.439921e-003
9.439920e-003
9.439919e-003
9.439920e-003
9.439920e-003
9.439921e-003
9.439921e-003
9.439920e-003
9.439919e-003
9.439919e-003
9.439920e-003
9.439921e-003
9.439921e-003
9.439920e-003
9.439919e-003
9.439919e-003
9.439920e-003
9.439921e-003
9.439906e-003
9.439912e-003
9.439920e-003
9.439925e-003
9.439924e-003
9.439921e-003
9.439918e-003
9.439918e-003
9.439921e-003
9.439925e-003
9.439927e-003
9.439927e-003
9.439929e-003
9.439933e-003
9.439939e-003
9.439946e-003
9.439952e-003
9.439955e-003
9.439950e-003
9.439931e-003
9.439887e-003
9.439803e-003
9.439660e-003
9.439436e-003
9.439102e-003
9.438626e-003
9.437975e-003
9.437117e-003
9.436025e-003
9.434678e-003
9.433069e-003
9.431199e-003
9.429086e-003
9.426759e-003
9.424262e-003
9.421647e-003
9.418974e-003
9.416307e-003
9.413710e-003
9.411249e-003
9.408983e-003
9.406967e-003
9.405249e-003
9.403870e-003
9.402865e-003
9.402258e-003
9.402067e-003
9.402298e-003
9.402952e-003
9.404016e-003
9.405472e-003
9.407286e-003
9.409417e-003
9.411812e-003
9.414410e-003
9.417143e-003
9.419936e-003
9.422713e-003
9.425399e-003
9.427929e-003
9.430246e-003
9.432310e-003
9.434092e-003
9.435586e-003
9.436799e-003
9.437751e-003
9.438472e-003
9.438998e-003
9.439366e-003
9.439612e-003
9.439768e-003
9.439861e-003
9.439912e-003
9.439936e-003
9.439943e-003
9.439943e-003
9.439939e-003
9.439934e-003
9.439930e-003
9.439927e-003
9.439925e-003
9.439924e-003
9.439923e-003
9.439921e-003
9.439920e-003
9.439919e-003
9.439920e-003
9.439921e-003
9.439921e-003
9.439920e-003
9.439919e-003
9.439919e-003
9.439919e-003
9.439920e-003
9.439921e-003
9.439921e-003
9.439920e-003
9.439919e-003
9.439920e-003
9.439920e-003
9.439911e-003
9.439915e-003
9.439921e-003
9.439924e-003
9.439923e-003
9.439920e-003
9.439918e-003
9.439920e-003
9.439924e-003
9.439928e-003
9.439930e-003
9.439932e-003
9.439934e-003
9.439940e-003
9.439948e-003
9.439955e-003
9.439956e-003
9.439945e-003
9.439913e-003
9.439842e-003
9.439712e-003
9.439488e-003
9.439131e-003
9.438590e-003
9.437807e-003
9.436719e-003
9.435260e-003
9.433372e-003
9.431009e-003
9.428145e-003
9.424776e-003
9.420926e-003
9.416648e-003
9.412018e-003
9.407136e-003
9.402113e-003
9.397070e-003
9.392126e-003
9.387397e-003
9.382990e-003
9.378997e-003
9.375499e-003
9.372559e-003
9.370232e-003
9.368558e-003
9.367565e-003
9.367272e-003
9.367689e-003
9.368815e-003
9.370640e-003
9.373140e-003
9.376279e-003
9.380005e-003
9.384247e-003
9.388918e-003
9.393910e-003
9.399102e-003
9.404356e-003
9.409535e-003
9.414501e-003
9.419133e-003
9.423330e-003
9.427020e-003
9.430164e-003
9.432759e-003
9.434831e-003
9.436428e-003
9.437616e-003
9.438466e-003
9.439050e-003
9.439434e-003
9.439673e-003
9.439814e-003
9.439891e-003
9.439928e-003
9.439942e-003
9.439944e-003
9.439940e-003
9.439935e-003
9.439930e-003
9.439927e-003
9.439926e-003
9.439924e-003
9.439923e-003
9.439921e-003
9.439920e-003
9.439919e-003
9.439920e-003
9.439921e-003
9.439921e-003
9.439920e-003
9.439919e-003
9.439920e-003
9.439920e-003
9.439921e-003
9.439920e-003
9.439920e-003
9.439920e-003
9.439920e-003
9.439920e-003
9.439921e-003
9.439922e-003
9.439922e-003
9.439921e-003
9.439920e-003
9.439919e-003
9.439920e-003
9.439922e-003
9.439926e-003
9.439930e-003
9.439933e-003
9.439937e-003
9.439942e-003
9.439950e-003
9.439957e-003
9.439957e-003
9.439940e-003
9.439892e-003
9.439789e-003
9.439599e-003
9.439272e-003
9.438740e-003
9.437920e-003
9.436709e-003
9.434993e-003
9.432654e-003
9.429576e-003
9.425666e-003
9.420866e-003
9.415161e-003
9.408597e-003
9.401272e-003
9.393339e-003
9.384992e-003
9.376452e-003
9.367947e-003
9.359696e-003
9.351894e-003
9.344705e-003
9.338256e-003
9.332635e-003
9.327894e-003
9.324060e-003
9.321136e-003
9.319115e-003
9.317987e-003
9.317740e-003
9.318371e-003
9.319882e-003
9.322284e-003
9.325591e-003
9.329815e-003
9.334956e-003
9.340992e-003
9.347868e-003
9.355487e-003
9.363706e-003
9.372333e-003
9.381140e-003
9.389872e-003
9.398273e-003
9.406107e-003
9.413178e-003
9.419351e-003
9.424558e-003
9.428799e-003
9.432132e-003
9.434656e-003
9.436497e-003
9.437789e-003
9.438659e-003
9.439220e-003
9.439563e-003
9.439761e-003
9.439868e-003
9.439920e-003
9.439941e-003
9.439945e-003
9.439941e-003
9.439936e-003
9.439931e-003
9.439928e-003
9.439926e-003
9.439924e-003
9.439922e-003
9.439920e-003
9.439920e-003
9.439920e-003
9.439920e-003
9.439920e-003
9.439920e-003
9.439920e-003
9.439920e-003
9.439920e-003
9.439920e-003
9.439920e-003
9.439920e-003
9.439920e-003
9.439920e-003
9.439920e-003
9.439930e-003
9.439926e-003
9.439921e-003
9.439918e-003
9.439918e-003
9.439921e-003
9.439924e-003
9.439926e-003
9.439928e-003
9.439932e-003
9.439937e-003
9.439945e-003
9.439953e-003
9.439959e-003
9.439957e-003
9.439935e-003
9.439871e-003
9.439735e-003
9.439478e-003
9.439028e-003
9.438283e-003
9.437111e-003
9.435345e-003
9.432792e-003
9.429246e-003
9.424504e-003
9.418397e-003
9.410819e-003
9.401761e-003
9.391329e-003
9.379758e-003
9.367393e-003
9.354670e-003
9.342067e-003
9.330057e-003
9.319064e-003
9.309421e-003
9.301346e-003
9.294932e-003
9.290149e-003
9.286865e-003
9.284864e-003
9.283883e-003
9.283641e-003
9.283872e-003
9.284353e-003
9.284928e-003
9.285519e-003
9.286140e-003
9.286900e-003
9.287992e-003
9.289676e-003
9.292255e-003
9.296032e-003
9.301270e-003
9.308144e-003
9.316705e-003
9.326852e-003
9.338326e-003
9.350728e-003
9.363559e-003
9.376278e-003
9.388364e-003
9.399379e-003
9.409014e-003
9.417105e-003
9.423630e-003
9.428686e-003
9.432452e-003
9.435147e-003
9.436999e-003
9.438219e-003
9.438987e-003
9.439447e-003
9.439708e-003
9.439847e-003
9.439913e-003
9.439939e-003
9.439945e-003
9.439941e-003
9.439936e-003
9.439931e-003
9.439928e-003
9.439925e-003
9.439923e-003
9.439922e-003
9.439921e-003
9.439920e-003
9.439920e-003
9.439920e-003
9.439921e-003
9.439921e-003
9.439920e-003
9.439920e-003
9.439919e-003
9.439920e-003
9.439920e-003
9.439920e-003
9.439920e-003
9.439920e-003
9.439933e-003
9.439927e-003
9.439919e-003
9.439916e-003
9.439918e-003
9.439924e-003
9.439928e-003
9.439930e-003
9.439931e-003
9.439936e-003
9.439944e-003
9.439954e-003
9.439961e-003
9.439957e-003
9.439929e-003
9.439852e-003
9.439685e-003
9.439361e-003
9.438780e-003
9.437798e-003
9.436216e-003
9.433783e-003
9.430191e-003
9.425106e-003
9.418195e-003
9.409182e-003
9.397921e-003
9.384465e-003
9.369133e-003
9.352535e-003
9.335554e-003
9.319279e-003
9.304889e-003
9.293511e-003
9.286088e-003
9.283261e-003
9.285298e-003
9.292058e-003
9.303014e-003
9.317299e-003
9.333788e-003
9.351196e-003
9.368180e-003
9.383444e-003
9.395829e-003
9.404399e-003
9.408495e-003
9.407793e-003
9.402331e-003
9.392522e-003
9.379144e-003
9.363303e-003
9.346358e-003
9.329815e-003
9.315191e-003
9.303862e-003
9.296909e-003
9.294992e-003
9.298267e-003
9.306369e-003
9.318469e-003
9.333398e-003
9.349825e-003
9.366445e-003
9.382146e-003
9.396119e-003
9.407905e-003
9.417363e-003
9.424610e-003
9.429920e-003
9.433647e-003
9.436154e-003
9.437768e-003
9.438760e-003
9.439342e-003
9.439664e-003
9.439830e-003
9.439907e-003
9.439937e-003
9.439944e-003
9.439941e-003
9.439936e-003
9.439930e-003
9.439927e-003
9.439925e-003
9.439923e-003
9.439922e-003
9.439921e-003
9.439920e-003
9.439920e-003
9.439920e-003
9.439921e-003
9.439921e-003
9.439919e-003
9.439919e-003
9.439919e-003
9.439921e-003
9.439921e-003
9.439920e-003
9.439919e-003
9.439930e-003
9.439924e-003
9.439917e-003
9.439916e-003
9.439920e-003
9.439928e-003
9.439933e-003
9.439934e-003
9.439936e-003
9.439943e-003
9.439953e-003
9.439962e-003
9.439959e-003
9.439928e-003
9.439840e-003
9.439646e-003
9.439263e-003
9.438559e-003
9.437336e-003
9.435320e-003
9.432146e-003
9.427362e-003
9.420456e-003
9.410916e-003
9.398341e-003
9.382587e-003
9.363949e-003
9.343320e-003
9.322305e-003
9.303206e-003
9.288867e-003
9.282382e-003
9.286713e-003
9.304285e-003
9.336641e-003
9.384213e-003
9.446220e-003
9.520712e-003
9.604717e-003
9.694467e-003
9.785669e-003
9.873799e-003
9.954390e-003
1.002329e-002
1.007688e-002
1.011229e-002
1.012751e-002
1.012153e-002
1.009439e-002
1.004729e-002
9.982526e-003
9.903487e-003
9.814463e-003
9.720418e-003
9.626646e-003
9.538345e-003
9.460162e-003
9.395747e-003
9.347395e-003
9.315838e-003
9.300236e-003
9.298393e-003
9.307166e-003
9.322996e-003
9.342434e-003
9.362578e-003
9.381322e-003
9.397413e-003
9.410347e-003
9.420168e-003
9.427255e-003
9.432133e-003
9.435342e-003
9.437359e-003
9.438569e-003
9.439260e-003
9.439633e-003
9.439820e-003
9.439905e-003
9.439937e-003
9.439944e-003
9.439941e-003
9.439935e-003
9.439930e-003
9.439927e-003
9.439925e-003