# vtk DataFile Version 3.0
vtk output
ASCII
DATASET STRUCTURED_POINTS
DIMENSIONS 100 100 1
SPACING 1 1 1
ORIGIN 0 0 0
POINT_DATA 10000
SCALARS SFBox_profile double
LOOKUP_TABLE default 
9.439911e-003
9.439913e-003
9.439916e-003
9.439920e-003
9.439923e-003
9.439924e-003
9.439924e-003
9.439922e-003
9.439920e-003
9.439917e-003
9.439916e-003
9.439916e-003
9.439918e-003
9.439921e-003
9.439924e-003
9.439925e-003
9.439925e-003
9.439923e-003
9.439920e-003
9.439917e-003
9.439915e-003
9.439914e-003
9.439915e-003
9.439917e-003
9.439919e-003
9.439922e-003
9.439924e-003
9.439926e-003
9.439926e-003
9.439926e-003
9.439925e-003
9.439924e-003
9.439922e-003
9.439920e-003
9.439919e-003
9.439918e-003
9.439917e-003
9.439916e-003
9.439916e-003
9.439916e-003
9.439916e-003
9.439917e-003
9.439917e-003
9.439918e-003
9.439919e-003
9.439919e-003
9.439919e-003
9.439920e-003
9.439920e-003
9.439920e-003
9.439920e-003
9.439920e-003
9.439919e-003
9.439919e-003
9.439918e-003
9.439918e-003
9.439917e-003
9.439917e-003
9.439917e-003
9.439917e-003
9.439917e-003
9.439917e-003
9.439918e-003
9.439918e-003
9.439920e-003
9.439921e-003
9.439922e-003
9.439924e-003
9.439924e-003
9.439925e-003
9.439925e-003
9.439924e-003
9.439922e-003
9.439920e-003
9.439918e-003
9.439917e-003
9.439916e-003
9.439916e-003
9.439918e-003
9.439919e-003
9.439921e-003
9.439923e-003
9.439923e-003
9.439922e-003
9.439921e-003
9.439919e-003
9.439918e-003
9.439918e-003
9.439918e-003
9.439919e-003
9.439921e-003
9.439922e-003
9.439922e-003
9.439921e-003
9.439920e-003
9.439918e-003
9.439918e-003
9.439919e-003
9.439921e-003
9.439922e-003
9.439911e-003
9.439913e-003
9.439916e-003
9.439920e-003
9.439923e-003
9.439924e-003
9.439924e-003
9.439922e-003
9.439920e-003
9.439917e-003
9.439916e-003
9.439916e-003
9.439918e-003
9.439921e-003
9.439924e-003
9.439925e-003
9.439925e-003
9.439923e-003
9.439920e-003
9.439917e-003
9.439915e-003
9.439914e-003
9.439915e-003
9.439917e-003
9.439919e-003
9.439922e-003
9.439924e-003
9.439926e-003
9.439926e-003
9.439926e-003
9.439925e-003
9.439924e-003
9.439922e-003
9.439920e-003
9.439919e-003
9.439918e-003
9.439917e-003
9.439916e-003
9.439916e-003
9.439916e-003
9.439916e-003
9.439917e-003
9.439917e-003
9.439918e-003
9.439919e-003
9.439919e-003
9.439919e-003
9.439920e-003
9.439920e-003
9.439920e-003
9.439920e-003
9.439920e-003
9.439919e-003
9.439919e-003
9.439918e-003
9.439918e-003
9.439917e-003
9.439917e-003
9.439917e-003
9.439917e-003
9.439917e-003
9.439917e-003
9.439918e-003
9.439918e-003
9.439920e-003
9.439921e-003
9.439922e-003
9.439924e-003
9.439924e-003
9.439925e-003
9.439925e-003
9.439924e-003
9.439922e-003
9.439920e-003
9.439918e-003
9.439917e-003
9.439916e-003
9.439916e-003
9.439918e-003
9.439919e-003
9.439921e-003
9.439923e-003
9.439923e-003
9.439922e-003
9.439921e-003
9.439919e-003
9.439918e-003
9.439918e-003
9.439918e-003
9.439919e-003
9.439921e-003
9.439922e-003
9.439922e-003
9.439921e-003
9.439920e-003
9.439918e-003
9.439918e-003
9.439919e-003
9.439921e-003
9.439922e-003
9.439916e-003
9.439917e-003
9.439919e-003
9.439921e-003
9.439922e-003
9.439921e-003
9.439920e-003
9.439919e-003
9.439919e-003
9.439919e-003
9.439920e-003
9.439921e-003
9.439921e-003
9.439921e-003
9.439920e-003
9.439920e-003
9.439919e-003
9.439919e-003
9.439919e-003
9.439920e-003
9.439920e-003
9.439921e-003
9.439922e-003
9.439922e-003
9.439921e-003
9.439921e-003
9.439920e-003
9.439919e-003
9.439918e-003
9.439918e-003
9.439918e-003
9.439919e-003
9.439920e-003
9.439921e-003
9.439922e-003
9.439923e-003
9.439924e-003
9.439925e-003
9.439926e-003
9.439926e-003
9.439927e-003
9.439927e-003
9.439928e-003
9.439928e-003
9.439928e-003
9.439929e-003
9.439929e-003
9.439929e-003
9.439929e-003
9.439929e-003
9.439929e-003
9.439928e-003
9.439928e-003
9.439928e-003
9.439928e-003
9.439927e-003
9.439927e-003
9.439927e-003
9.439926e-003
9.439925e-003
9.439925e-003
9.439924e-003
9.439923e-003
9.439922e-003
9.439921e-003
9.439920e-003
9.439919e-003
9.439919e-003
9.439919e-003
9.439919e-003
9.439919e-003
9.439920e-003
9.439920e-003
9.439921e-003
9.439921e-003
9.439921e-003
9.439921e-003
9.439920e-003
9.439920e-003
9.439920e-003
9.439919e-003
9.439919e-003
9.439920e-003
9.439920e-003
9.439920e-003
9.439921e-003
9.439920e-003
9.439920e-003
9.439920e-003
9.439919e-003
9.439920e-003
9.439920e-003
9.439921e-003
9.439920e-003
9.439920e-003
9.439920e-003
9.439919e-003
9.439920e-003
9.439920e-003
9.439920e-003
9.439923e-003
9.439923e-003
9.439923e-003
9.439922e-003
9.439920e-003
9.439917e-003
9.439916e-003
9.439917e-003
9.439919e-003
9.439922e-003
9.439925e-003
9.439925e-003
9.439924e-003
9.439920e-003
9.439916e-003
9.439914e-003
9.439914e-003
9.439916e-003
9.439919e-003
9.439923e-003
9.439926e-003
9.439927e-003
9.439927e-003
9.439925e-003
9.439922e-003
9.439918e-003
9.439916e-003
9.439914e-003
9.439913e-003
9.439914e-003
9.439915e-003
9.439918e-003
9.439920e-003
9.439923e-003
9.439926e-003
9.439929e-003
9.439931e-003
9.439933e-003
9.439934e-003
9.439935e-003
9.439935e-003
9.439936e-003
9.439936e-003
9.439936e-003
9.439936e-003
9.439936e-003
9.439936e-003
9.439935e-003
9.439935e-003
9.439935e-003
9.439935e-003
9.439935e-003
9.439935e-003
9.439935e-003
9.439935e-003
9.439935e-003
9.439934e-003
9.439934e-003
9.439933e-003
9.439933e-003
9.439931e-003
9.439930e-003
9.439928e-003
9.439926e-003
9.439924e-003
9.439921e-003
9.439919e-003
9.439917e-003
9.439916e-003
9.439915e-003
9.439915e-003
9.439916e-003
9.439918e-003
9.439920e-003
9.439922e-003
9.439924e-003
9.439925e-003
9.439924e-003
9.439922e-003
9.439920e-003
9.439918e-003
9.439917e-003
9.439917e-003
9.439918e-003
9.439919e-003
9.439921e-003
9.439922e-003
9.439922e-003
9.439921e-003
9.439920e-003
9.439919e-003
9.439918e-003
9.439919e-003
9.439920e-003
9.439921e-003
9.439921e-003
9.439921e-003
9.439920e-003
9.439920e-003
9.439919e-003
9.439930e-003
9.439928e-003
9.439924e-003
9.439920e-003
9.439917e-003
9.439916e-003
9.439916e-003
9.439918e-003
9.439921e-003
9.439923e-003
9.439925e-003
9.439924e-003
9.439922e-003
9.439919e-003
9.439916e-003
9.439915e-003
9.439916e-003
9.439918e-003
9.439921e-003
9.439924e-003
9.439925e-003
9.439925e-003
9.439923e-003
9.439921e-003
9.439919e-003
9.439918e-003
9.439917e-003
9.439917e-003
9.439918e-003
9.439920e-003
9.439922e-003
9.439924e-003
9.439926e-003
9.439928e-003
9.439930e-003
9.439931e-003
9.439932e-003
9.439933e-003
9.439933e-003
9.439934e-003
9.439934e-003
9.439934e-003
9.439935e-003
9.439935e-003
9.439935e-003
9.439935e-003
9.439936e-003
9.439936e-003
9.439936e-003
9.439936e-003
9.439935e-003
9.439935e-003
9.439935e-003
9.439935e-003
9.439934e-003
9.439934e-003
9.439934e-003
9.439933e-003
9.439933e-003
9.439932e-003
9.439931e-003
9.439931e-003
9.439930e-003
9.439929e-003
9.439927e-003
9.439926e-003
9.439924e-003
9.439923e-003
9.439921e-003
9.439919e-003
9.439918e-003
9.439918e-003
9.439918e-003
9.439919e-003
9.439920e-003
9.439922e-003
9.439923e-003
9.439923e-003
9.439923e-003
9.439921e-003
9.439920e-003
9.439918e-003
9.439917e-003
9.439917e-003
9.439919e-003
9.439920e-003
9.439922e-003
9.439922e-003
9.439922e-003
9.439921e-003
9.439919e-003
9.439918e-003
9.439918e-003
9.439919e-003
9.439920e-003
9.439922e-003
9.439922e-003
9.439921e-003
9.439919e-003
9.439918e-003
9.439932e-003
9.439928e-003
9.439922e-003
9.439917e-003
9.439915e-003
9.439917e-003
9.439920e-003
9.439922e-003
9.439923e-003
9.439922e-003
9.439920e-003
9.439918e-003
9.439918e-003
9.439918e-003
9.439919e-003
9.439921e-003
9.439922e-003
9.439923e-003
9.439923e-003
9.439921e-003
9.439919e-003
9.439917e-003
9.439916e-003
9.439916e-003
9.439918e-003
9.439921e-003
9.439924e-003
9.439927e-003
9.439929e-003
9.439931e-003
9.439932e-003
9.439933e-003
9.439932e-003
9.439932e-003
9.439931e-003
9.439931e-003
9.439931e-003
9.439931e-003
9.439931e-003
9.439932e-003
9.439932e-003
9.439933e-003
9.439934e-003
9.439935e-003
9.439936e-003
9.439936e-003
9.439937e-003
9.439937e-003
9.439937e-003
9.439937e-003
9.439937e-003
9.439936e-003
9.439936e-003
9.439935e-003
9.439935e-003
9.439934e-003
9.439933e-003
9.439932e-003
9.439931e-003
9.439930e-003
9.439930e-003
9.439930e-003
9.439929e-003
9.439930e-003
9.439930e-003
9.439930e-003
9.439930e-003
9.439930e-003
9.439929e-003
9.439928e-003
9.439926e-003
9.439924e-003
9.439921e-003
9.439919e-003
9.439918e-003
9.439917e-003
9.439918e-003
9.439919e-003
9.439920e-003
9.439921e-003
9.439922e-003
9.439922e-003
9.439921e-003
9.439920e-003
9.439919e-003
9.439918e-003
9.439919e-003
9.439920e-003
9.439921e-003
9.439921e-003
9.439921e-003
9.439920e-003
9.439919e-003
9.439919e-003
9.439920e-003
9.439921e-003
9.439922e-003
9.439921e-003
9.439920e-003
9.439919e-003
9.439927e-003
9.439923e-003
9.439918e-003
9.439915e-003
9.439916e-003
9.439920e-003
9.439924e-003
9.439926e-003
9.439924e-003
9.439919e-003
9.439915e-003
9.439913e-003
9.439915e-003
9.439919e-003
9.439924e-003
9.439926e-003
9.439927e-003
9.439924e-003
9.439921e-003
9.439917e-003
9.439914e-003
9.439914e-003
9.439915e-003
9.439918e-003
9.439922e-003
9.439926e-003
9.439930e-003
9.439933e-003
9.439935e-003
9.439936e-003
9.439936e-003
9.439935e-003
9.439935e-003
9.439934e-003
9.439935e-003
9.439935e-003
9.439936e-003
9.439937e-003
9.439938e-003
9.439939e-003
9.439939e-003
9.439940e-003
9.439940e-003
9.439940e-003
9.439940e-003
9.439940e-003
9.439939e-003
9.439939e-003
9.439939e-003
9.439939e-003
9.439939e-003
9.439939e-003
9.439939e-003
9.439939e-003
9.439939e-003
9.439939e-003
9.439939e-003
9.439939e-003
9.439938e-003
9.439937e-003
9.439936e-003
9.439934e-003
9.439933e-003
9.439933e-003
9.439932e-003
9.439932e-003
9.439932e-003
9.439932e-003
9.439932e-003
9.439932e-003
9.439931e-003
9.439929e-003
9.439926e-003
9.439923e-003
9.439920e-003
9.439917e-003
9.439916e-003
9.439916e-003
9.439917e-003
9.439920e-003
9.439922e-003
9.439924e-003
9.439924e-003
9.439922e-003
9.439920e-003
9.439918e-003
9.439917e-003
9.439918e-003
9.439919e-003
9.439921e-003
9.439922e-003
9.439921e-003
9.439920e-003
9.439919e-003
9.439919e-003
9.439919e-003
9.439920e-003
9.439920e-003
9.439920e-003
9.439920e-003
9.439916e-003
9.439916e-003
9.439916e-003
9.439918e-003
9.439920e-003
9.439923e-003
9.439925e-003
9.439924e-003
9.439921e-003
9.439917e-003
9.439914e-003
9.439915e-003
9.439918e-003
9.439922e-003
9.439925e-003
9.439926e-003
9.439923e-003
9.439920e-003
9.439917e-003
9.439916e-003
9.439917e-003
9.439919e-003
9.439923e-003
9.439926e-003
9.439929e-003
9.439931e-003
9.439932e-003
9.439932e-003
9.439933e-003
9.439933e-003
9.439934e-003
9.439936e-003
9.439938e-003
9.439940e-003
9.439943e-003
9.439945e-003
9.439946e-003
9.439946e-003
9.439945e-003
9.439942e-003
9.439939e-003
9.439934e-003
9.439929e-003
9.439923e-003
9.439918e-003
9.439913e-003
9.439908e-003
9.439905e-003
9.439904e-003
9.439903e-003
9.439904e-003
9.439907e-003
9.439911e-003
9.439916e-003
9.439921e-003
9.439926e-003
9.439931e-003
9.439936e-003
9.439939e-003
9.439942e-003
9.439943e-003
9.439943e-003
9.439942e-003
9.439941e-003
9.439938e-003
9.439936e-003
9.439934e-003
9.439932e-003
9.439931e-003
9.439930e-003
9.439930e-003
9.439929e-003
9.439928e-003
9.439927e-003
9.439925e-003
9.439923e-003
9.439920e-003
9.439918e-003
9.439917e-003
9.439918e-003
9.439920e-003
9.439922e-003
9.439923e-003
9.439923e-003
9.439922e-003
9.439920e-003
9.439918e-003
9.439917e-003
9.439918e-003
9.439920e-003
9.439921e-003
9.439922e-003
9.439922e-003
9.439921e-003
9.439919e-003
9.439918e-003
9.439918e-003
9.439919e-003
9.439921e-003
9.439922e-003
9.439906e-003
9.439910e-003
9.439917e-003
9.439923e-003
9.439926e-003
9.439924e-003
9.439921e-003
9.439918e-003
9.439916e-003
9.439917e-003
9.439919e-003
9.439922e-003
9.439923e-003
9.439924e-003
9.439922e-003
9.439919e-003
9.439917e-003
9.439916e-003
9.439917e-003
9.439920e-003
9.439925e-003
9.439929e-003
9.439932e-003
9.439933e-003
9.439933e-003
9.439932e-003
9.439931e-003
9.439931e-003
9.439932e-003
9.439935e-003
9.439938e-003
9.439942e-003
9.439945e-003
9.439947e-003
9.439946e-003
9.439942e-003
9.439935e-003
9.439925e-003
9.439911e-003
9.439894e-003
9.439874e-003
9.439853e-003
9.439831e-003
9.439809e-003
9.439789e-003
9.439771e-003
9.439756e-003
9.439746e-003
9.439740e-003
9.439740e-003
9.439744e-003
9.439754e-003
9.439768e-003
9.439785e-003
9.439805e-003
9.439826e-003
9.439848e-003
9.439869e-003
9.439888e-003
9.439905e-003
9.439919e-003
9.439930e-003
9.439938e-003
9.439942e-003
9.439943e-003
9.439942e-003
9.439940e-003
9.439937e-003
9.439933e-003
9.439931e-003
9.439929e-003
9.439928e-003
9.439929e-003
9.439929e-003
9.439929e-003
9.439929e-003
9.439927e-003
9.439924e-003
9.439921e-003
9.439919e-003
9.439917e-003
9.439918e-003
9.439919e-003
9.439921e-003
9.439922e-003
9.439922e-003
9.439921e-003
9.439920e-003
9.439918e-003
9.439918e-003
9.439919e-003
9.439921e-003
9.439922e-003
9.439922e-003
9.439920e-003
9.439918e-003
9.439918e-003
9.439919e-003
9.439921e-003
9.439922e-003
9.439902e-003
9.439910e-003
9.439920e-003
9.439927e-003
9.439928e-003
9.439922e-003
9.439916e-003
9.439913e-003
9.439915e-003
9.439920e-003
9.439925e-003
9.439927e-003
9.439925e-003
9.439921e-003
9.439917e-003
9.439914e-003
9.439914e-003
9.439917e-003
9.439922e-003
9.439927e-003
9.439932e-003
9.439934e-003
9.439934e-003
9.439934e-003
9.439933e-003
9.439933e-003
9.439935e-003
9.439939e-003
9.439943e-003
9.439946e-003
9.439948e-003
9.439946e-003
9.439939e-003
9.439927e-003
9.439907e-003
9.439880e-003
9.439845e-003
9.439802e-003
9.439751e-003
9.439695e-003
9.439634e-003
9.439570e-003
9.439507e-003
9.439445e-003
9.439389e-003
9.439340e-003
9.439301e-003
9.439274e-003
9.439260e-003
9.439259e-003
9.439273e-003
9.439299e-003
9.439337e-003
9.439385e-003
9.439441e-003
9.439502e-003
9.439565e-003
9.439628e-003
9.439688e-003
9.439745e-003
9.439795e-003
9.439838e-003
9.439873e-003
9.439900e-003
9.439920e-003
9.439933e-003
9.439940e-003
9.439943e-003
9.439942e-003
9.439939e-003
9.439936e-003
9.439933e-003
9.439931e-003
9.439930e-003
9.439930e-003
9.439930e-003
9.439930e-003
9.439928e-003
9.439926e-003
9.439922e-003
9.439919e-003
9.439917e-003
9.439916e-003
9.439918e-003
9.439920e-003
9.439923e-003
9.439924e-003
9.439922e-003
9.439920e-003
9.439918e-003
9.439917e-003
9.439919e-003
9.439921e-003
9.439922e-003
9.439921e-003
9.439920e-003
9.439918e-003
9.439919e-003
9.439920e-003
9.439921e-003
9.439910e-003
9.439916e-003
9.439923e-003
9.439927e-003
9.439925e-003
9.439919e-003
9.439914e-003
9.439913e-003
9.439917e-003
9.439923e-003
9.439927e-003
9.439926e-003
9.439922e-003
9.439917e-003
9.439914e-003
9.439916e-003
9.439920e-003
9.439925e-003
9.439929e-003
9.439931e-003
9.439932e-003
9.439932e-003
9.439932e-003
9.439933e-003
9.439937e-003
9.439942e-003
9.439948e-003
9.439952e-003
9.439952e-003
9.439947e-003
9.439932e-003
9.439907e-003
9.439869e-003
9.439815e-003
9.439745e-003
9.439658e-003
9.439553e-003
9.439431e-003
9.439293e-003
9.439143e-003
9.438984e-003
9.438820e-003
9.438658e-003
9.438503e-003
9.438362e-003
9.438241e-003
9.438144e-003
9.438077e-003
9.438043e-003
9.438043e-003
9.438076e-003
9.438143e-003
9.438239e-003
9.438360e-003
9.438501e-003
9.438655e-003
9.438817e-003
9.438981e-003
9.439140e-003
9.439290e-003
9.439427e-003
9.439549e-003
9.439653e-003
9.439739e-003
9.439808e-003
9.439861e-003
9.439899e-003
9.439924e-003
9.439939e-003
9.439945e-003
9.439946e-003
9.439943e-003
9.439938e-003
9.439934e-003
9.439931e-003
9.439929e-003
9.439928e-003
9.439928e-003
9.439928e-003
9.439926e-003
9.439924e-003
9.439920e-003
9.439918e-003
9.439917e-003
9.439918e-003
9.439921e-003
9.439923e-003
9.439923e-003
9.439922e-003
9.439919e-003
9.439918e-003
9.439918e-003
9.439919e-003
9.439921e-003
9.439921e-003
9.439921e-003
9.439920e-003
9.439920e-003
9.439920e-003
9.439920e-003
9.439925e-003
9.439925e-003
9.439923e-003
9.439921e-003
9.439918e-003
9.439916e-003
9.439917e-003
9.439919e-003
9.439923e-003
9.439924e-003
9.439924e-003
9.439920e-003
9.439917e-003
9.439915e-003
9.439918e-003
9.439923e-003
9.439929e-003
9.439932e-003
9.439933e-003
9.439931e-003
9.439930e-003
9.439931e-003
9.439935e-003
9.439941e-003
9.439948e-003
9.439954e-003
9.439954e-003
9.439946e-003
9.439924e-003
9.439886e-003
9.439827e-003
9.439741e-003
9.439626e-003
9.439476e-003
9.439288e-003
9.439061e-003
9.438794e-003
9.438488e-003
9.438148e-003
9.437781e-003
9.437395e-003
9.437002e-003
9.436616e-003
9.436249e-003
9.435917e-003
9.435632e-003
9.435407e-003
9.435251e-003
9.435171e-003
9.435171e-003
9.435251e-003
9.435407e-003
9.435633e-003
9.435919e-003
9.436253e-003
9.436621e-003
9.437009e-003
9.437403e-003
9.437790e-003
9.438158e-003
9.438498e-003
9.438803e-003
9.439068e-003
9.439293e-003
9.439478e-003
9.439625e-003
9.439737e-003
9.439820e-003
9.439878e-003
9.439915e-003
9.439936e-003
9.439946e-003
9.439947e-003
9.439943e-003
9.439937e-003
9.439932e-003
9.439928e-003
9.439927e-003
9.439927e-003
9.439928e-003
9.439928e-003
9.439926e-003
9.439923e-003
9.439919e-003
9.439918e-003
9.439918e-003
9.439920e-003
9.439921e-003
9.439922e-003
9.439922e-003
9.439920e-003
9.439919e-003
9.439918e-003
9.439919e-003
9.439920e-003
9.439922e-003
9.439922e-003
9.439921e-003
9.439919e-003
9.439918e-003
9.439941e-003
9.439932e-003
9.439921e-003
9.439913e-003
9.439911e-003
9.439916e-003
9.439923e-003
9.439927e-003
9.439926e-003
9.439922e-003
9.439917e-003
9.439914e-003
9.439915e-003
9.439919e-003
9.439925e-003
9.439931e-003
9.439933e-003
9.439933e-003
9.439932e-003
9.439932e-003
9.439934e-003
9.439940e-003
9.439948e-003
9.439955e-003
9.439956e-003
9.439946e-003
9.439919e-003
9.439870e-003
9.439791e-003
9.439672e-003
9.439506e-003
9.439280e-003
9.438986e-003
9.438614e-003
9.438157e-003
9.437611e-003
9.436976e-003
9.436258e-003
9.435468e-003
9.434623e-003
9.433743e-003
9.432856e-003
9.431989e-003
9.431172e-003
9.430436e-003
9.429809e-003
9.429315e-003
9.428975e-003
9.428802e-003
9.428803e-003
9.428980e-003
9.429324e-003
9.429821e-003
9.430453e-003
9.431194e-003
9.432015e-003
9.432887e-003
9.433780e-003
9.434663e-003
9.435511e-003
9.436302e-003
9.437019e-003
9.437652e-003
9.438194e-003
9.438645e-003
9.439011e-003
9.439298e-003
9.439516e-003
9.439676e-003
9.439789e-003
9.439864e-003
9.439910e-003
9.439936e-003
9.439946e-003
9.439947e-003
9.439942e-003
9.439936e-003
9.439931e-003
9.439928e-003
9.439928e-003
9.439928e-003
9.439928e-003
9.439927e-003
9.439924e-003
9.439920e-003
9.439917e-003
9.439917e-003
9.439918e-003
9.439921e-003
9.439923e-003
9.439923e-003
9.439921e-003
9.439918e-003
9.439917e-003
9.439918e-003
9.439921e-003
9.439923e-003
9.439922e-003
9.439920e-003
9.439918e-003
9.439945e-003
9.439934e-003
9.439918e-003
9.439909e-003
9.439910e-003
9.439919e-003
9.439928e-003
9.439930e-003
9.439925e-003
9.439917e-003
9.439912e-003
9.439914e-003
9.439920e-003
9.439927e-003
9.439932e-003
9.439933e-003
9.439932e-003
9.439931e-003
9.439933e-003
9.439939e-003
9.439948e-003
9.439957e-003
9.439960e-003
9.439952e-003
9.439925e-003
9.439870e-003
9.439777e-003
9.439632e-003
9.439418e-003
9.439117e-003
9.438706e-003
9.438162e-003
9.437465e-003
9.436596e-003
9.435544e-003
9.434304e-003
9.432882e-003
9.431295e-003
9.429569e-003
9.427743e-003
9.425864e-003
9.423988e-003
9.422172e-003
9.420477e-003
9.418962e-003
9.417680e-003
9.416676e-003
9.415989e-003
9.415642e-003
9.415648e-003
9.416009e-003
9.416710e-003
9.417727e-003
9.419023e-003
9.420552e-003
9.422260e-003
9.424088e-003
9.425975e-003
9.427863e-003
9.429695e-003
9.431423e-003
9.433010e-003
9.434427e-003
9.435659e-003
9.436699e-003
9.437554e-003
9.438235e-003
9.438763e-003
9.439158e-003
9.439445e-003
9.439645e-003
9.439780e-003
9.439865e-003
9.439915e-003
9.439940e-003
9.439949e-003
9.439947e-003
9.439941e-003
9.439934e-003
9.439930e-003
9.439927e-003
9.439927e-003
9.439928e-003
9.439927e-003
9.439924e-003
9.439920e-003
9.439917e-003
9.439916e-003
9.439919e-003
9.439922e-003
9.439924e-003
9.439923e-003
9.439920e-003
9.439917e-003
9.439917e-003
9.439920e-003
9.439922e-003
9.439922e-003
9.439920e-003
9.439918e-003
9.439935e-003
9.439927e-003
9.439917e-003
9.439912e-003
9.439915e-003
9.439923e-003
9.439928e-003
9.439926e-003
9.439920e-003
9.439914e-003
9.439914e-003
9.439920e-003
9.439928e-003
9.439933e-003
9.439933e-003
9.439931e-003
9.439930e-003
9.439934e-003
9.439944e-003
9.439955e-003
9.439963e-003
9.439960e-003
9.439938e-003
9.439887e-003
9.439792e-003
9.439636e-003
9.439394e-003
9.439035e-003
9.438522e-003
9.437812e-003
9.436860e-003
9.435624e-003
9.434063e-003
9.432150e-003
9.429870e-003
9.427224e-003
9.424237e-003
9.420953e-003
9.417437e-003
9.413774e-003
9.410061e-003
9.406406e-003
9.402918e-003
9.399706e-003
9.396869e-003
9.394494e-003
9.392654e-003
9.391404e-003
9.390781e-003
9.390804e-003
9.391472e-003
9.392766e-003
9.394647e-003
9.397060e-003
9.399932e-003
9.403174e-003
9.406688e-003
9.410364e-003
9.414093e-003
9.417766e-003
9.421284e-003
9.424564e-003
9.427539e-003
9.430165e-003
9.432419e-003
9.434301e-003
9.435826e-003
9.437027e-003
9.437943e-003
9.438620e-003
9.439103e-003
9.439437e-003
9.439658e-003
9.439798e-003
9.439882e-003
9.439927e-003
9.439947e-003
9.439950e-003
9.439945e-003
9.439937e-003
9.439930e-003
9.439927e-003
9.439927e-003
9.439928e-003
9.439927e-003
9.439925e-003
9.439921e-003
9.439918e-003
9.439917e-003
9.439919e-003
9.439922e-003
9.439923e-003
9.439921e-003
9.439919e-003
9.439918e-003
9.439919e-003
9.439920e-003
9.439921e-003
9.439920e-003
9.439920e-003
9.439914e-003
9.439915e-003
9.439917e-003
9.439921e-003
9.439924e-003
9.439924e-003
9.439922e-003
9.439918e-003
9.439915e-003
9.439917e-003
9.439922e-003
9.439929e-003
9.439933e-003
9.439934e-003
9.439932e-003
9.439931e-003
9.439937e-003
9.439948e-003
9.439960e-003
9.439965e-003
9.439953e-003
9.439913e-003
9.439831e-003
9.439683e-003
9.439441e-003
9.439062e-003
9.438491e-003
9.437663e-003
9.436499e-003
9.434920e-003
9.432841e-003
9.430189e-003
9.426903e-003
9.422950e-003
9.418327e-003
9.413070e-003
9.407256e-003
9.401003e-003
9.394461e-003
9.387809e-003
9.381235e-003
9.374928e-003
9.369067e-003
9.363807e-003
9.359276e-003
9.355573e-003
9.352767e-003
9.350902e-003
9.350002e-003
9.350077e-003
9.351123e-003
9.353124e-003
9.356051e-003
9.359856e-003
9.364468e-003
9.369790e-003
9.375695e-003
9.382029e-003
9.388618e-003
9.395272e-003
9.401803e-003
9.408034e-003
9.413813e-003
9.419023e-003
9.423588e-003
9.427472e-003
9.430682e-003
9.433255e-003
9.435255e-003
9.436761e-003
9.437857e-003
9.438629e-003
9.439152e-003
9.439494e-003
9.439709e-003
9.439836e-003
9.439907e-003
9.439940e-003
9.439950e-003
9.439948e-003
9.439940e-003
9.439932e-003
9.439927e-003
9.439927e-003
9.439928e-003
9.439927e-003
9.439925e-003
9.439921e-003
9.439918e-003
9.439918e-003
9.439919e-003
9.439921e-003
9.439922e-003
9.439922e-003
9.439920e-003
9.439919e-003
9.439918e-003
9.439919e-003
9.439920e-003
9.439922e-003
9.439894e-003
9.439905e-003
9.439920e-003
9.439930e-003
9.439930e-003
9.439923e-003
9.439915e-003
9.439912e-003
9.439916e-003
9.439924e-003
9.439931e-003
9.439933e-003
9.439933e-003
9.439931e-003
9.439933e-003
9.439941e-003
9.439953e-003
9.439964e-003
9.439965e-003
9.439942e-003
9.439881e-003
9.439759e-003
9.439545e-003
9.439190e-003
9.438626e-003
9.437763e-003
9.436491e-003
9.434679e-003
9.432188e-003
9.428873e-003
9.424600e-003
9.419263e-003
9.412802e-003
9.405217e-003
9.396586e-003
9.387072e-003
9.376913e-003
9.366415e-003
9.355925e-003
9.345796e-003
9.336359e-003
9.327887e-003
9.320571e-003
9.314515e-003
9.309733e-003
9.306169e-003
9.303717e-003
9.302257e-003
9.301680e-003
9.301920e-003
9.302960e-003
9.304842e-003
9.307652e-003
9.311496e-003
9.316473e-003
9.322645e-003
9.330008e-003
9.338473e-003
9.347861e-003
9.357914e-003
9.368313e-003
9.378706e-003
9.388751e-003
9.398141e-003
9.406634e-003
9.414069e-003
9.420371e-003
9.425543e-003
9.429651e-003
9.432809e-003
9.435156e-003
9.436842e-003
9.438010e-003
9.438790e-003
9.439291e-003
9.439599e-003
9.439781e-003
9.439881e-003
9.439931e-003
9.439949e-003
9.439950e-003
9.439942e-003
9.439934e-003
9.439928e-003
9.439927e-003
9.439927e-003
9.439927e-003
9.439926e-003
9.439922e-003
9.439918e-003
9.439917e-003
9.439918e-003
9.439922e-003
9.439924e-003
9.439923e-003
9.439919e-003
9.439917e-003
9.439917e-003
9.439920e-003
9.439923e-003
9.439886e-003
9.439902e-003
9.439923e-003
9.439935e-003
9.439931e-003
9.439919e-003
9.439910e-003
9.439912e-003
9.439922e-003
9.439932e-003
9.439936e-003
9.439933e-003
9.439930e-003
9.439933e-003
9.439943e-003
9.439958e-003
9.439969e-003
9.439964e-003
9.439929e-003
9.439844e-003
9.439678e-003
9.439385e-003
9.438890e-003
9.438091e-003
9.436848e-003
9.434988e-003
9.432303e-003
9.428565e-003
9.423538e-003
9.417003e-003
9.408795e-003
9.398838e-003
9.387190e-003
9.374071e-003
9.359883e-003
9.345201e-003
9.330736e-003
9.317273e-003
9.305578e-003
9.296304e-003
9.289898e-003
9.286532e-003
9.286070e-003
9.288074e-003
9.291859e-003
9.296579e-003
9.301338e-003
9.305310e-003
9.307852e-003
9.308592e-003
9.307479e-003
9.304791e-003
9.301092e-003
9.297159e-003
9.293868e-003
9.292076e-003
9.292507e-003
9.295653e-003
9.301712e-003
9.310571e-003
9.321832e-003
9.334873e-003
9.348940e-003
9.363253e-003
9.377092e-003
9.389872e-003
9.401184e-003
9.410805e-003
9.418683e-003
9.424901e-003
9.429635e-003
9.433113e-003
9.435576e-003
9.437257e-003
9.438361e-003
9.439057e-003
9.439478e-003
9.439721e-003
9.439854e-003
9.439920e-003
9.439947e-003
9.439951e-003
9.439945e-003
9.439935e-003
9.439928e-003
9.439926e-003
9.439927e-003
9.439928e-003
9.439925e-003
9.439921e-003
9.439917e-003
9.439917e-003
9.439920e-003
9.439923e-003
9.439924e-003
9.439920e-003
9.439917e-003
9.439917e-003
9.439920e-003
9.439923e-003
9.439896e-003
9.439909e-003
9.439925e-003
9.439932e-003
9.439926e-003
9.439916e-003
9.439912e-003
9.439918e-003
9.439929e-003
9.439936e-003
9.439936e-003
9.439932e-003
9.439933e-003
9.439943e-003
9.439960e-003
9.439971e-003
9.439963e-003
9.439916e-003
9.439806e-003
9.439594e-003
9.439212e-003
9.438558e-003
9.437479e-003
9.435774e-003
9.433181e-003
9.429388e-003
9.424042e-003
9.416781e-003
9.407280e-003
9.395321e-003
9.380885e-003
9.364241e-003
9.346034e-003
9.327332e-003
9.309616e-003
9.294696e-003
9.284549e-003
9.281083e-003
9.285868e-003
9.299872e-003
9.323239e-003
9.355163e-003
9.393881e-003
9.436783e-003
9.480645e-003
9.521943e-003
9.557210e-003
9.583402e-003
9.598223e-003
9.600379e-003
9.589718e-003
9.567247e-003
9.535024e-003
9.495935e-003
9.453376e-003
9.410898e-003
9.371830e-003
9.338950e-003
9.314223e-003
9.298658e-003
9.292282e-003
9.294258e-003
9.303085e-003
9.316875e-003
9.333634e-003
9.351512e-003
9.368983e-003
9.384947e-003
9.398740e-003
9.410089e-003
9.419024e-003
9.425774e-003
9.430677e-003
9.434102e-003
9.436404e-003
9.437890e-003
9.438809e-003
9.439354e-003
9.439663e-003
9.439829e-003
9.439911e-003
9.439945e-003
9.439952e-003
9.439945e-003
9.439935e-003
9.439928e-003
9.439926e-003
9.439928e-003
9.439928e-003
9.439924e-003
9.439920e-003
9.439917e-003
9.439918e-003
9.439921e-003
9.439923e-003
9.439921e-003
9.439919e-003
9.439918e-003
9.439920e-003
9.439921e-003
9.439919e-003
9.439922e-003
9.439924e-003
9.439922e-003
9.439918e-003
9.439916e-003
9.439919e-003
9.439927e-003
9.439934e-003
9.439935e-003
9.439934e-003
9.439935e-003
9.439945e-003
9.439961e-003
9.439972e-003
9.439960e-003
9.439904e-003
9.439773e-003
9.439514e-003
9.439042e-003
9.438216e-003
9.436830e-003
9.434598e-003
9.431150e-003
9.426034e-003
9.418736e-003
9.408732e-003
9.395583e-003
9.379080e-003
9.359440e-003
9.337529e-003
9.315075e-003
9.294813e-003
9.280496e-003
9.276728e-003
9.288584e-003
9.321039e-003
9.378277e-003
9.462969e-003
9.575647e-003
9.714278e-003
9.874132e-003
1.004797e-002
1.022656e-002
1.039940e-002
1.055561e-002
1.068494e-002
1.077860e-002
1.083013e-002
1.083590e-002
1.079553e-002
1.071185e-002
1.059073e-002
1.044047e-002
1.027112e-002
1.009358e-002
9.918582e-003
9.755800e-003
9.613016e-003
9.495539e-003
9.405935e-003
9.344094e-003
9.307614e-003
9.292425e-003
9.293530e-003
9.305746e-003
9.324324e-003
9.345368e-003
9.366039e-003
9.384548e-003
9.400009e-003
9.412211e-003
9.421380e-003
9.427969e-003
9.432509e-003
9.435512e-003
9.437415e-003
9.438570e-003
9.439241e-003
9.439612e-003
9.439808e-003
9.439904e-003
9.439944e-003
9.439951e-003
9.439945e-003
9.439935e-003