# vtk DataFile Version 3.0
vtk output
ASCII
DATASET STRUCTURED_POINTS
DIMENSIONS 100 100 1
SPACING 1 1 1
ORIGIN 0 0 0
POINT_DATA 10000
SCALARS SFBox_profile double
LOOKUP_TABLE default 
9.439920e-006
9.439920e-006
9.439920e-006
9.439920e-006
9.439920e-006
9.439920e-006
9.439920e-006
9.439920e-006
9.439920e-006
9.439920e-006
9.439920e-006
9.439920e-006
9.439920e-006
9.439920e-006
9.439920e-006
9.439920e-006
9.439920e-006
9.439920e-006
9.439920e-006
9.439920e-006
9.439920e-006
9.439920e-006
9.439920e-006
9.439920e-006
9.439920e-006
9.439920e-006
9.439920e-006
9.439920e-006
9.439920e-006
9.439920e-006
9.439920e-006
9.439920e-006
9.439920e-006
9.439920e-006
9.439920e-006
9.439920e-006
9.439920e-006
9.439920e-006
9.439920e-006
9.439920e-006
9.439920e-006
9.439920e-006
9.439920e-006
9.439920e-006
9.439920e-006
9.439920e-006
9.439920e-006
9.439920e-006
9.439920e-006
9.439920e-006
9.439920e-006
9.439920e-006
9.439920e-006
9.439920e-006
9.439920e-006
9.439920e-006
9.439920e-006
9.439920e-006
9.439920e-006
9.439920e-006
9.439920e-006
9.439920e-006
9.439920e-006
9.439920e-006
9.439920e-006
9.439920e-006
9.439920e-006
9.439920e-006
9.439920e-006
9.439920e-006
9.439920e-006
9.439920e-006
9.439920e-006
9.439920e-006
9.439920e-006
9.439920e-006
9.439920e-006
9.439920e-006
9.439920e-006
9.439920e-006
9.439920e-006
9.439920e-006
9.439920e-006
9.439920e-006
9.439920e-006
9.439920e-006
9.439920e-006
9.439920e-006
9.439920e-006
9.439920e-006
9.439920e-006
9.439920e-006
9.439920e-006
9.439920e-006
9.439920e-006
9.439920e-006
9.439920e-006
9.439920e-006
9.439920e-006
9.439920e-006
9.439920e-006
9.439920e-006
9.439920e-006
9.439920e-006
9.439920e-006
9.439920e-006
9.439920e-006
9.439920e-006
9.439920e-006
9.439920e-006
9.439920e-006
9.439920e-006
9.439920e-006
9.439920e-006
9.439920e-006
9.439920e-006
9.439920e-006
9.439920e-006
9.439920e-006
9.439920e-006
9.439920e-006
9.439920e-006
9.439920e-006
9.439920e-006
9.439920e-006
9.439920e-006
9.439920e-006
9.439920e-006
9.439920e-006
9.439920e-006
9.439920e-006
9.439920e-006
9.439920e-006
9.439920e-006
9.439920e-006
9.439920e-006
9.439920e-006
9.439920e-006
9.439920e-006
9.439920e-006
9.439920e-006
9.439920e-006
9.439920e-006
9.439920e-006
9.439920e-006
9.439920e-006
9.439920e-006
9.439920e-006
9.439920e-006
9.439920e-006
9.439920e-006
9.439920e-006
9.439920e-006
9.439920e-006
9.439920e-006
9.439920e-006
9.439920e-006
9.439920e-006
9.439920e-006
9.439920e-006
9.439920e-006
9.439920e-006
9.439920e-006
9.439920e-006
9.439920e-006
9.439920e-006
9.439920e-006
9.439920e-006
9.439920e-006
9.439920e-006
9.439920e-006
9.439920e-006
9.439920e-006
9.439920e-006
9.439920e-006
9.439920e-006
9.439920e-006
9.439920e-006
9.439920e-006
9.439920e-006
9.439920e-006
9.439920e-006
9.439920e-006
9.439920e-006
9.439920e-006
9.439920e-006
9.439920e-006
9.439920e-006
9.439920e-006
9.439920e-006
9.439920e-006
9.439920e-006
9.439920e-006
9.439920e-006
9.439920e-006
9.439920e-006
9.439920e-006
9.439920e-006
9.439920e-006
9.439920e-006
9.439920e-006
9.439920e-006
9.439920e-006
9.439920e-006
9.439920e-006
9.439920e-006
9.439920e-006
9.439920e-006
9.439920e-006
9.439920e-006
9.439920e-006
9.439920e-006
9.439920e-006
9.439920e-006
9.439920e-006
9.439920e-006
9.439920e-006
9.439920e-006
9.439920e-006
9.439920e-006
9.439920e-006
9.439920e-006
9.439920e-006
9.439920e-006
9.439920e-006
9.439920e-006
9.439920e-006
9.439920e-006
9.439920e-006
9.439920e-006
9.439920e-006
9.439920e-006
9.439920e-006
9.439920e-006
9.439920e-006
9.439920e-006
9.439920e-006
9.439920e-006
9.439920e-006
9.439920e-006
9.439920e-006
9.439920e-006
9.439920e-006
9.439920e-006
9.439920e-006
9.439920e-006
9.439920e-006
9.439920e-006
9.439920e-006
9.439920e-006
9.439920e-006
9.439920e-006
9.439920e-006
9.439920e-006
9.439920e-006
9.439920e-006
9.439920e-006
9.439920e-006
9.439920e-006
9.439920e-006
9.439920e-006
9.439920e-006
9.439920e-006
9.439920e-006
9.439920e-006
9.439920e-006
9.439920e-006
9.439920e-006
9.439920e-006
9.439920e-006
9.439920e-006
9.439920e-006
9.439920e-006
9.439920e-006
9.439920e-006
9.439920e-006
9.439920e-006
9.439920e-006
9.439920e-006
9.439920e-006
9.439920e-006
9.439920e-006
9.439920e-006
9.439920e-006
9.439920e-006
9.439920e-006
9.439920e-006
9.439920e-006
9.439920e-006
9.439920e-006
9.439920e-006
9.439920e-006
9.439920e-006
9.439920e-006
9.439920e-006
9.439920e-006
9.439920e-006
9.439920e-006
9.439920e-006
9.439920e-006
9.439920e-006
9.439920e-006
9.439920e-006
9.439920e-006
9.439920e-006
9.439920e-006
9.439920e-006
9.439920e-006
9.439920e-006
9.439920e-006
9.439920e-006
9.439920e-006
9.439920e-006
9.439920e-006
9.439920e-006
9.439920e-006
9.439920e-006
9.439920e-006
9.439920e-006
9.439920e-006
9.439920e-006
9.439920e-006
9.439920e-006
9.439920e-006
9.439920e-006
9.439920e-006
9.439920e-006
9.439920e-006
9.439920e-006
9.439920e-006
9.439920e-006
9.439920e-006
9.439920e-006
9.439920e-006
9.439920e-006
9.439920e-006
9.439920e-006
9.439920e-006
9.439920e-006
9.439920e-006
9.439920e-006
9.439920e-006
9.439920e-006
9.439920e-006
9.439920e-006
9.439920e-006
9.439920e-006
9.439920e-006
9.439920e-006
9.439920e-006
9.439920e-006
9.439920e-006
9.439920e-006
9.439920e-006
9.439920e-006
9.439920e-006
9.439920e-006
9.439920e-006
9.439920e-006
9.439920e-006
9.439920e-006
9.439920e-006
9.439920e-006
9.439920e-006
9.439920e-006
9.439920e-006
9.439920e-006
9.439920e-006
9.439920e-006
9.439920e-006
9.439920e-006
9.439920e-006
9.439920e-006
9.439920e-006
9.439920e-006
9.439920e-006
9.439920e-006
9.439920e-006
9.439920e-006
9.439920e-006
9.439920e-006
9.439920e-006
9.439920e-006
9.439920e-006
9.439920e-006
9.439920e-006
9.439920e-006
9.439920e-006
9.439920e-006
9.439920e-006
9.439920e-006
9.439920e-006
9.439920e-006
9.439920e-006
9.439920e-006
9.439920e-006
9.439920e-006
9.439920e-006
9.439920e-006
9.439920e-006
9.439920e-006
9.439920e-006
9.439920e-006
9.439920e-006
9.439920e-006
9.439920e-006
9.439920e-006
9.439920e-006
9.439920e-006
9.439920e-006
9.439920e-006
9.439920e-006
9.439920e-006
9.439920e-006
9.439920e-006
9.439920e-006
9.439920e-006
9.439920e-006
9.439920e-006
9.439920e-006
9.439920e-006
9.439920e-006
9.439920e-006
9.439920e-006
9.439920e-006
9.439920e-006
9.439920e-006
9.439920e-006
9.439920e-006
9.439920e-006
9.439920e-006
9.439920e-006
9.439920e-006
9.439920e-006
9.439920e-006
9.439920e-006
9.439920e-006
9.439920e-006
9.439920e-006
9.439920e-006
9.439920e-006
9.439920e-006
9.439920e-006
9.439920e-006
9.439920e-006
9.439920e-006
9.439920e-006
9.439920e-006
9.439920e-006
9.439920e-006
9.439920e-006
9.439920e-006
9.439920e-006
9.439920e-006
9.439920e-006
9.439920e-006
9.439920e-006
9.439920e-006
9.439920e-006
9.439920e-006
9.439920e-006
9.439920e-006
9.439920e-006
9.439920e-006
9.439920e-006
9.439920e-006
9.439920e-006
9.439920e-006
9.439920e-006
9.439920e-006
9.439920e-006
9.439920e-006
9.439920e-006
9.439920e-006
9.439920e-006
9.439920e-006
9.439920e-006
9.439920e-006
9.439920e-006
9.439920e-006
9.439920e-006
9.439920e-006
9.439920e-006
9.439920e-006
9.439920e-006
9.439920e-006
9.439920e-006
9.439920e-006
9.439920e-006
9.439920e-006
9.439920e-006
9.439920e-006
9.439920e-006
9.439920e-006
9.439920e-006
9.439920e-006
9.439920e-006
9.439920e-006
9.439920e-006
9.439920e-006
9.439920e-006
9.439920e-006
9.439920e-006
9.439920e-006
9.439920e-006
9.439920e-006
9.439920e-006
9.439920e-006
9.439920e-006
9.439920e-006
9.439920e-006
9.439920e-006
9.439920e-006
9.439920e-006
9.439920e-006
9.439920e-006
9.439920e-006
9.439920e-006
9.439920e-006
9.439920e-006
9.439920e-006
9.439920e-006
9.439920e-006
9.439920e-006
9.439920e-006
9.439920e-006
9.439920e-006
9.439920e-006
9.439920e-006
9.439920e-006
9.439920e-006
9.439920e-006
9.439920e-006
9.439920e-006
9.439920e-006
9.439920e-006
9.439920e-006
9.439920e-006
9.439920e-006
9.439920e-006
9.439920e-006
9.439920e-006
9.439920e-006
9.439920e-006
9.439920e-006
9.439920e-006
9.439920e-006
9.439920e-006
9.439920e-006
9.439920e-006
9.439920e-006
9.439920e-006
9.439920e-006
9.439920e-006
9.439920e-006
9.439920e-006
9.439920e-006
9.439920e-006
9.439920e-006
9.439920e-006
9.439920e-006
9.439920e-006
9.439920e-006
9.439920e-006
9.439920e-006
9.439920e-006
9.439920e-006
9.439920e-006
9.439920e-006
9.439920e-006
9.439920e-006
9.439920e-006
9.439920e-006
9.439920e-006
9.439920e-006
9.439920e-006
9.439920e-006
9.439920e-006
9.439920e-006
9.439920e-006
9.439920e-006
9.439920e-006
9.439920e-006
9.439920e-006
9.439920e-006
9.439920e-006
9.439920e-006
9.439920e-006
9.439920e-006
9.439920e-006
9.439920e-006
9.439920e-006
9.439920e-006
9.439920e-006
9.439920e-006
9.439920e-006
9.439920e-006
9.439920e-006
9.439920e-006
9.439920e-006
9.439920e-006
9.439920e-006
9.439920e-006
9.439920e-006
9.439920e-006
9.439920e-006
9.439920e-006
9.439920e-006
9.439920e-006
9.439920e-006
9.439920e-006
9.439920e-006
9.439920e-006
9.439920e-006
9.439920e-006
9.439920e-006
9.439920e-006
9.439920e-006
9.439920e-006
9.439920e-006
9.439920e-006
9.439920e-006
9.439920e-006
9.439920e-006
9.439920e-006
9.439920e-006
9.439920e-006
9.439920e-006
9.439920e-006
9.439920e-006
9.439920e-006
9.439920e-006
9.439920e-006
9.439920e-006
9.439920e-006
9.439920e-006
9.439920e-006
9.439920e-006
9.439920e-006
9.439920e-006
9.439920e-006
9.439920e-006
9.439920e-006
9.439920e-006
9.439920e-006
9.439920e-006
9.439920e-006
9.439920e-006
9.439920e-006
9.439920e-006
9.439920e-006
9.439920e-006
9.439920e-006
9.439920e-006
9.439920e-006
9.439920e-006
9.439920e-006
9.439920e-006
9.439920e-006
9.439920e-006
9.439920e-006
9.439920e-006
9.439920e-006
9.439920e-006
9.439920e-006
9.439920e-006
9.439920e-006
9.439920e-006
9.439920e-006
9.439920e-006
9.439920e-006
9.439920e-006
9.439920e-006
9.439920e-006
9.439920e-006
9.439920e-006
9.439920e-006
9.439920e-006
9.439920e-006
9.439920e-006
9.439920e-006
9.439920e-006
9.439920e-006
9.439920e-006
9.439920e-006
9.439920e-006
9.439920e-006
9.439920e-006
9.439920e-006
9.439920e-006
9.439920e-006
9.439920e-006
9.439920e-006
9.439920e-006
9.439920e-006
9.439920e-006
9.439920e-006
9.439920e-006
9.439920e-006
9.439920e-006
9.439920e-006
9.439920e-006
9.439920e-006
9.439920e-006
9.439920e-006
9.439920e-006
9.439920e-006
9.439920e-006
9.439920e-006
9.439920e-006
9.439920e-006
9.439920e-006
9.439920e-006
9.439920e-006
9.439920e-006
9.439920e-006
9.439920e-006
9.439920e-006
9.439920e-006
9.439920e-006
9.439920e-006
9.439920e-006
9.439920e-006
9.439920e-006
9.439920e-006
9.439920e-006
9.439920e-006
9.439920e-006
9.439920e-006
9.439920e-006
9.439920e-006
9.439920e-006
9.439920e-006
9.439920e-006
9.439920e-006
9.439920e-006
9.439920e-006
9.439920e-006
9.439920e-006
9.439920e-006
9.439920e-006
9.439920e-006
9.439920e-006
9.439920e-006
9.439920e-006
9.439920e-006
9.439920e-006
9.439920e-006
9.439920e-006
9.439920e-006
9.439920e-006
9.439920e-006
9.439920e-006
9.439920e-006
9.439920e-006
9.439920e-006
9.439920e-006
9.439920e-006
9.439920e-006
9.439920e-006
9.439920e-006
9.439920e-006
9.439920e-006
9.439920e-006
9.439920e-006
9.439920e-006
9.439920e-006
9.439920e-006
9.439920e-006
9.439920e-006
9.439920e-006
9.439920e-006
9.439920e-006
9.439920e-006
9.439920e-006
9.439920e-006
9.439920e-006
9.439920e-006
9.439920e-006
9.439920e-006
9.439920e-006
9.439920e-006
9.439920e-006
9.439920e-006
9.439920e-006
9.439920e-006
9.439920e-006
9.439920e-006
9.439920e-006
9.439920e-006
9.439920e-006
9.439920e-006
9.439920e-006
9.439920e-006
9.439920e-006
9.439920e-006
9.439920e-006
9.439920e-006
9.439920e-006
9.439920e-006
9.439920e-006
9.439920e-006
9.439920e-006
9.439920e-006
9.439920e-006
9.439920e-006
9.439920e-006
9.439920e-006
9.439920e-006
9.439920e-006
9.439920e-006
9.439920e-006
9.439920e-006
9.439920e-006
9.439920e-006
9.439920e-006
9.439920e-006
9.439920e-006
9.439920e-006
9.439920e-006
9.439920e-006
9.439920e-006
9.439920e-006
9.439920e-006
9.439920e-006
9.439921e-006
9.439921e-006
9.439921e-006
9.439921e-006
9.439921e-006
9.439921e-006
9.439921e-006
9.439921e-006
9.439921e-006
9.439921e-006
9.439921e-006
9.439921e-006
9.439921e-006
9.439921e-006
9.439921e-006
9.439921e-006
9.439921e-006
9.439921e-006
9.439921e-006
9.439921e-006
9.439921e-006
9.439921e-006
9.439921e-006
9.439921e-006
9.439921e-006
9.439921e-006
9.439921e-006
9.439921e-006
9.439921e-006
9.439921e-006
9.439921e-006
9.439921e-006
9.439921e-006
9.439921e-006
9.439921e-006
9.439921e-006
9.439921e-006
9.439921e-006
9.439921e-006
9.439921e-006
9.439921e-006
9.439921e-006
9.439921e-006
9.439921e-006
9.439921e-006
9.439921e-006
9.439921e-006
9.439921e-006
9.439921e-006
9.439920e-006
9.439920e-006
9.439920e-006
9.439920e-006
9.439920e-006
9.439920e-006
9.439920e-006
9.439920e-006
9.439920e-006
9.439920e-006
9.439920e-006
9.439920e-006
9.439920e-006
9.439920e-006
9.439920e-006
9.439920e-006
9.439920e-006
9.439920e-006
9.439920e-006
9.439920e-006
9.439920e-006
9.439920e-006
9.439920e-006
9.439920e-006
9.439920e-006
9.439920e-006
9.439920e-006
9.439920e-006
9.439920e-006
9.439920e-006
9.439920e-006
9.439920e-006
9.439920e-006
9.439920e-006
9.439920e-006
9.439920e-006
9.439920e-006
9.439920e-006
9.439920e-006
9.439920e-006
9.439920e-006
9.439920e-006
9.439920e-006
9.439920e-006
9.439920e-006
9.439920e-006
9.439920e-006
9.439921e-006
9.439921e-006
9.439921e-006
9.439922e-006
9.439922e-006
9.439923e-006
9.439923e-006
9.439924e-006
9.439924e-006
9.439924e-006
9.439924e-006
9.439925e-006
9.439925e-006
9.439925e-006
9.439925e-006
9.439925e-006
9.439926e-006
9.439926e-006
9.439926e-006
9.439926e-006
9.439926e-006
9.439926e-006
9.439926e-006
9.439926e-006
9.439927e-006
9.439927e-006
9.439927e-006
9.439927e-006
9.439927e-006
9.439926e-006
9.439926e-006
9.439926e-006
9.439926e-006
9.439926e-006
9.439926e-006
9.439926e-006
9.439926e-006
9.439926e-006
9.439925e-006
9.439925e-006
9.439925e-006
9.439925e-006
9.439925e-006
9.439924e-006
9.439924e-006
9.439924e-006
9.439924e-006
9.439924e-006
9.439924e-006
9.439924e-006
9.439923e-006
9.439923e-006
9.439922e-006
9.439922e-006
9.439921e-006
9.439921e-006
9.439921e-006
9.439920e-006
9.439920e-006
9.439920e-006
9.439920e-006
9.439920e-006
9.439920e-006
9.439920e-006
9.439920e-006
9.439920e-006
9.439920e-006
9.439920e-006
9.439920e-006
9.439920e-006
9.439920e-006
9.439920e-006
9.439920e-006
9.439920e-006
9.439920e-006
9.439920e-006
9.439920e-006
9.439920e-006
9.439920e-006
9.439920e-006
9.439920e-006
9.439920e-006
9.439920e-006
9.439920e-006
9.439920e-006
9.439920e-006
9.439920e-006
9.439920e-006
9.439920e-006
9.439920e-006
9.439920e-006
9.439920e-006
9.439920e-006
9.439920e-006
9.439920e-006
9.439920e-006
9.439920e-006
9.439920e-006
9.439921e-006
9.439921e-006
9.439922e-006
9.439924e-006
9.439926e-006
9.439928e-006
9.439930e-006
9.439932e-006
9.439934e-006
9.439935e-006
9.439937e-006
9.439938e-006
9.439939e-006
9.439940e-006
9.439941e-006
9.439943e-006
9.439944e-006
9.439946e-006
9.439947e-006
9.439948e-006
9.439949e-006
9.439950e-006
9.439951e-006
9.439951e-006
9.439952e-006
9.439952e-006
9.439952e-006
9.439953e-006
9.439953e-006
9.439953e-006
9.439952e-006
9.439952e-006
9.439952e-006
9.439952e-006
9.439951e-006
9.439950e-006
9.439950e-006
9.439949e-006
9.439948e-006
9.439946e-006
9.439945e-006
9.439944e-006
9.439943e-006
9.439941e-006
9.439940e-006
9.439939e-006
9.439938e-006
9.439938e-006
9.439937e-006
9.439936e-006
9.439936e-006
9.439935e-006
9.439933e-006
9.439931e-006
9.439929e-006
9.439927e-006
9.439925e-006
9.439923e-006
9.439922e-006
9.439921e-006
9.439921e-006
9.439920e-006
9.439920e-006
9.439920e-006
9.439920e-006
9.439920e-006
9.439920e-006
9.439920e-006
9.439920e-006
9.439920e-006
9.439920e-006
9.439920e-006
9.439920e-006
9.439920e-006
9.439920e-006
9.439920e-006
9.439920e-006
9.439920e-006
9.439920e-006
9.439920e-006
9.439920e-006
9.439920e-006
9.439920e-006
9.439920e-006
9.439920e-006
9.439920e-006
9.439920e-006
9.439920e-006
9.439920e-006
9.439920e-006
9.439920e-006
9.439920e-006
9.439920e-006
9.439920e-006
9.439920e-006
9.439920e-006
9.439920e-006
9.439920e-006
9.439921e-006
9.439921e-006
9.439923e-006
9.439925e-006
9.439929e-006
9.439935e-006
9.439942e-006
9.439950e-006
9.439959e-006
9.439967e-006
9.439974e-006
9.439981e-006
9.439987e-006
9.439992e-006
9.439998e-006
9.440004e-006
9.440011e-006
9.440019e-006
9.440027e-006
9.440035e-006
9.440042e-006
9.440049e-006
9.440056e-006
9.440061e-006
9.440065e-006
9.440069e-006
9.440072e-006
9.440074e-006
9.440075e-006
9.440076e-006
9.440076e-006
9.440076e-006
9.440075e-006
9.440074e-006
9.440072e-006
9.440070e-006
9.440067e-006
9.440063e-006
9.440058e-006
9.440053e-006
9.440046e-006
9.440039e-006
9.440032e-006
9.440025e-006
9.440017e-006
9.440010e-006
9.440004e-006
9.439999e-006
9.439994e-006
9.439990e-006
9.439987e-006
9.439984e-006
9.439981e-006
9.439976e-006
9.439971e-006
9.439964e-006
9.439956e-006
9.439948e-006
9.439940e-006
9.439933e-006
9.439928e-006
9.439925e-006
9.439922e-006
9.439921e-006
9.439920e-006
9.439920e-006
9.439920e-006
9.439920e-006
9.439920e-006
9.439920e-006
9.439920e-006
9.439920e-006
9.439920e-006
9.439920e-006
9.439920e-006
9.439920e-006
9.439920e-006
9.439920e-006
9.439920e-006
9.439920e-006
9.439920e-006
9.439920e-006
9.439920e-006
9.439920e-006
9.439920e-006
9.439920e-006
9.439920e-006
9.439920e-006
9.439920e-006
9.439920e-006
9.439920e-006
9.439920e-006
9.439920e-006
9.439920e-006
9.439920e-006
9.439920e-006
9.439920e-006
9.439920e-006
9.439920e-006
9.439921e-006
9.439922e-006
9.439925e-006
9.439930e-006
9.439940e-006
9.439954e-006
9.439974e-006
9.440000e-006
9.440030e-006
9.440062e-006
9.440093e-006
9.440122e-006
9.440148e-006
9.440174e-006
9.440200e-006
9.440228e-006
9.440261e-006
9.440298e-006
9.440338e-006
9.440381e-006
9.440424e-006
9.440465e-006
9.440504e-006
9.440538e-006
9.440567e-006
9.440592e-006
9.440611e-006
9.440626e-006
9.440637e-006
9.440645e-006
9.440650e-006
9.440651e-006
9.440650e-006
9.440646e-006
9.440639e-006
9.440629e-006
9.440616e-006
9.440599e-006
9.440577e-006
9.440551e-006
9.440521e-006
9.440487e-006
9.440449e-006
9.440409e-006
9.440369e-006
9.440329e-006
9.440292e-006
9.440258e-006
9.440230e-006
9.440206e-006
9.440187e-006
9.440171e-006
9.440157e-006
9.440143e-006
9.440126e-006
9.440104e-006
9.440079e-006
9.440050e-006
9.440020e-006
9.439991e-006
9.439967e-006
9.439949e-006
9.439936e-006
9.439929e-006
9.439924e-006
9.439922e-006
9.439921e-006
9.439920e-006
9.439920e-006
9.439920e-006
9.439920e-006
9.439920e-006
9.439920e-006
9.439920e-006
9.439920e-006
9.439920e-006
9.439920e-006
9.439920e-006
9.439920e-006
9.439920e-006
9.439920e-006
9.439920e-006
9.439920e-006
9.439920e-006
9.439920e-006
9.439920e-006
9.439920e-006
9.439920e-006
9.439920e-006
9.439920e-006
9.439920e-006
9.439920e-006
9.439920e-006
9.439920e-006
9.439920e-006
9.439920e-006
9.439920e-006
9.439920e-006
9.439920e-006
9.439921e-006
9.439923e-006
9.439928e-006
9.439938e-006
9.439955e-006
9.439986e-006
9.440034e-006
9.440103e-006
9.440192e-006
9.440297e-006
9.440410e-006
9.440523e-006
9.440632e-006
9.440738e-006
9.440846e-006
9.440966e-006
9.441104e-006
9.441266e-006
9.441453e-006
9.441661e-006
9.441882e-006
9.442106e-006
9.442323e-006
9.442524e-006
9.442703e-006
9.442858e-006
9.442986e-006
9.443089e-006
9.443169e-006
9.443228e-006
9.443269e-006
9.443292e-006
9.443301e-006
9.443295e-006
9.443274e-006
9.443238e-006
9.443186e-006
9.443115e-006
9.443024e-006
9.442911e-006
9.442775e-006
9.442616e-006
9.442436e-006
9.442239e-006
9.442031e-006
9.441819e-006
9.441613e-006
9.441421e-006
9.441251e-006
9.441106e-006
9.440988e-006
9.440895e-006
9.440821e-006
9.440759e-006
9.440699e-006
9.440634e-006
9.440557e-006
9.440466e-006
9.440364e-006
9.440260e-006
9.440162e-006
9.440080e-006
9.440018e-006
9.439976e-006
9.439949e-006
9.439934e-006
9.439926e-006
9.439923e-006
9.439921e-006
9.439920e-006
9.439920e-006
9.439920e-006
9.439920e-006
9.439920e-006
9.439920e-006
9.439920e-006
9.439920e-006
9.439920e-006
9.439920e-006
9.439920e-006
9.439920e-006
9.439920e-006
9.439920e-006
9.439920e-006
9.439920e-006
9.439920e-006
9.439920e-006
9.439920e-006
9.439920e-006
9.439920e-006
9.439920e-006
9.439920e-006
9.439920e-006
9.439920e-006
9.439920e-006
9.439920e-006
9.439920e-006
9.439920e-006
9.439921e-006
9.439922e-006
9.439924e-006
9.439931e-006
9.439946e-006
9.439976e-006
9.440033e-006
9.440131e-006
9.440286e-006
9.440509e-006
9.440801e-006
9.441151e-006
9.441535e-006
9.441932e-006
9.442333e-006
9.442747e-006
9.443202e-006
9.443736e-006
9.444383e-006
9.445166e-006
9.446084e-006
9.447113e-006
9.448214e-006
9.449333e-006
9.450420e-006
9.451431e-006
9.452333e-006
9.453110e-006
9.453755e-006
9.454274e-006
9.454676e-006
9.454973e-006
9.455176e-006
9.455296e-006
9.455339e-006
9.455308e-006
9.455204e-006
9.455023e-006
9.454759e-006
9.454403e-006
9.453945e-006
9.453377e-006
9.452694e-006
9.451896e-006
9.450992e-006
9.450003e-006
9.448960e-006
9.447903e-006
9.446877e-006
9.445926e-006
9.445087e-006
9.444381e-006
9.443813e-006
9.443372e-006
9.443033e-006
9.442763e-006
9.442525e-006
9.442283e-006
9.442013e-006
9.441703e-006
9.441363e-006
9.441018e-006
9.440699e-006
9.440433e-006
9.440233e-006
9.440096e-006
9.440012e-006
9.439964e-006
9.439940e-006
9.439928e-006
9.439923e-006
9.439921e-006
9.439920e-006
9.439920e-006
9.439920e-006
9.439920e-006
9.439920e-006
9.439920e-006
9.439920e-006
9.439920e-006
9.439920e-006
9.439920e-006
9.439920e-006
9.439920e-006
9.439920e-006
9.439920e-006
9.439920e-006
9.439920e-006
9.439920e-006
9.439920e-006
9.439920e-006
9.439920e-006
9.439920e-006
9.439920e-006
9.439920e-006
9.439920e-006
9.439920e-006
9.439920e-006
9.439920e-006
9.439921e-006
9.439922e-006
9.439925e-006
9.439933e-006
9.439953e-006
9.439996e-006
9.440086e-006
9.440256e-006
9.440553e-006
9.441026e-006
9.441715e-006
9.442633e-006
9.443750e-006
9.445011e-006
9.446363e-006
9.447803e-006
9.449397e-006
9.451280e-006
9.453619e-006
9.456563e-006
9.460199e-006
9.464513e-006
9.469387e-006
9.474616e-006
9.479949e-006
9.485132e-006
9.489951e-006
9.494255e-006
9.497958e-006
9.501037e-006
9.503510e-006
9.505424e-006
9.506837e-006
9.507805e-006
9.508375e-006
9.508579e-006
9.508434e-006
9.507939e-006
9.507078e-006
9.505819e-006
9.504122e-006
9.501942e-006
9.499236e-006
9.495981e-006
9.492177e-006
9.487871e-006
9.483158e-006
9.478188e-006
9.473156e-006
9.468282e-006
9.463779e-006
9.459819e-006
9.456508e-006
9.453871e-006
9.451857e-006
9.450353e-006
9.449212e-006
9.448276e-006
9.447401e-006
9.446481e-006
9.445468e-006
9.444380e-006
9.443290e-006
9.442294e-006
9.441472e-006
9.440859e-006
9.440446e-006
9.440193e-006
9.440051e-006
9.439978e-006
9.439944e-006
9.439929e-006
9.439923e-006
9.439921e-006
9.439920e-006
9.439920e-006
9.439920e-006
9.439920e-006
9.439920e-006
9.439920e-006
9.439920e-006
9.439920e-006
9.439920e-006
9.439920e-006
9.439920e-006
9.439920e-006
9.439920e-006
9.439920e-006
9.439920e-006
9.439920e-006
9.439920e-006
9.439920e-006
9.439920e-006
9.439920e-006
9.439920e-006
9.439920e-006
9.439920e-006
9.439920e-006
9.439920e-006
9.439920e-006
9.439921e-006
9.439925e-006
9.439933e-006
9.439956e-006
9.440011e-006
9.440132e-006
9.440384e-006
9.440865e-006
9.441712e-006
9.443083e-006
9.445116e-006
9.447873e-006
9.451309e-006
9.455309e-006
9.459798e-006
9.464881e-006
9.470927e-006
9.478549e-006
9.488468e-006
9.501313e-006
9.517417e-006
9.536675e-006
9.558511e-006
9.581969e-006
9.605893e-006
9.629133e-006
9.650725e-006
9.669986e-006
9.686542e-006
9.700290e-006
9.711327e-006
9.719863e-006
9.726161e-006
9.730472e-006
9.733009e-006
9.733918e-006
9.733272e-006
9.731069e-006
9.727234e-006
9.721628e-006
9.714065e-006
9.704342e-006
9.692270e-006
9.677730e-006
9.660729e-006
9.641460e-006
9.620349e-006
9.598070e-006
9.575500e-006
9.553636e-006
9.533446e-006
9.515725e-006
9.500961e-006
9.489281e-006
9.480463e-006
9.474024e-006
9.469332e-006
9.465728e-006
9.462624e-006
9.459585e-006
9.456390e-006
9.453049e-006
9.449756e-006
9.446788e-006
9.444368e-006
9.442587e-006
9.441402e-006
9.440683e-006
9.440285e-006
9.440082e-006
9.439987e-006
9.439946e-006
9.439929e-006
9.439923e-006
9.439921e-006
9.439920e-006
9.439920e-006
9.439920e-006
9.439920e-006
9.439920e-006
9.439920e-006
9.439920e-006
9.439920e-006
9.439920e-006
9.439920e-006
9.439920e-006
9.439920e-006
9.439920e-006
9.439920e-006
9.439920e-006
9.439920e-006
9.439920e-006
9.439920e-006
9.439920e-006
9.439920e-006
9.439920e-006
9.439920e-006
9.439920e-006
9.439920e-006
9.439921e-006
9.439924e-006
9.439932e-006
9.439955e-006
9.440013e-006
9.440155e-006
9.440473e-006
9.441136e-006
9.442420e-006
9.444716e-006
9.448499e-006
9.454221e-006
9.462161e-006
9.472343e-006
9.484648e-006
9.499193e-006
9.516783e-006
9.539193e-006
9.569048e-006
9.609307e-006
9.662464e-006
9.729724e-006
9.810437e-006
9.901994e-006
1.000024e-005
1.010025e-005
1.019719e-005
1.028704e-005
1.036703e-005
1.043566e-005
1.049255e-005
1.053816e-005
1.057339e-005
1.059936e-005
1.061713e-005
1.062758e-005
1.063133e-005
1.062867e-005
1.061960e-005
1.060380e-005
1.058069e-005
1.054950e-005
1.050935e-005
1.045946e-005
1.039927e-005
1.032878e-005
1.024873e-005
1.016085e-005
1.006791e-005
9.973541e-006
9.881936e-006
9.797212e-006
9.722785e-006
9.660819e-006
9.611943e-006
9.575316e-006
9.548984e-006
9.530387e-006
9.516869e-006
9.506093e-006
9.496324e-006
9.486599e-006
9.476752e-006
9.467241e-006
9.458795e-006
9.452006e-006
9.447085e-006
9.443856e-006
9.441927e-006
9.440872e-006
9.440341e-006
9.440093e-006
9.439987e-006
9.439944e-006
9.439928e-006
9.439922e-006
9.439921e-006
9.439920e-006
9.439920e-006
9.439920e-006
9.439920e-006
9.439920e-006
9.439920e-006
9.439920e-006
9.439920e-006
9.439920e-006
9.439920e-006
9.439920e-006
9.439920e-006
9.439920e-006
9.439920e-006
9.439920e-006
9.439920e-006
9.439920e-006
9.439920e-006
9.439920e-006
9.439920e-006
9.439920e-006
9.439920e-006
9.439921e-006
9.439923e-006
9.439930e-006
9.439949e-006
9.440004e-006
9.440145e-006
9.440489e-006
9.441268e-006
9.442914e-006
9.446151e-006
9.452051e-006
9.461979e-006
9.477355e-006
9.499288e-006
9.528367e-006
9.565075e-006
9.611000e-006
9.670315e-006
9.750605e-006
9.862326e-006
1.001679e-005
1.022314e-005
1.048523e-005
1.079963e-005
1.115539e-005
1.153581e-005
1.192157e-005
1.229407e-005
1.263814e-005
1.294344e-005
1.320463e-005
1.342066e-005
1.359349e-005
1.372682e-005
1.382496e-005
1.389206e-005
1.393150e-005
1.394562e-005
1.393561e-005
1.390139e-005
1.384176e-005
1.375449e-005
1.363656e-005
1.348460e-005
1.329539e-005
1.306671e-005
1.279823e-005
1.249251e-005
1.215581e-005
1.179842e-005
1.143420e-005
1.107925e-005
1.074972e-005
1.045927e-005
1.021689e-005
1.002561e-005
9.882689e-006
9.780911e-006
9.710603e-006
9.661685e-006
9.625284e-006
9.594761e-006
9.566199e-006
9.538364e-006
9.512094e-006
9.489164e-006
9.471035e-006
9.458114e-006
9.449781e-006
9.444887e-006
9.442251e-006
9.440941e-006
9.440338e-006
9.440080e-006
9.439977e-006
9.439939e-006
9.439926e-006
9.439922e-006
9.439920e-006
9.439920e-006
9.439920e-006
9.439920e-006
9.439920e-006
9.439920e-006
9.439920e-006
9.439920e-006
9.439920e-006
9.439920e-006
9.439920e-006
9.439920e-006
9.439920e-006
9.439920e-006
9.439920e-006
9.439920e-006
9.439920e-006
9.439920e-006
9.439920e-006
9.439920e-006
9.439920e-006
9.439921e-006
9.439922e-006
9.439927e-006
9.439941e-006
9.439985e-006
9.440107e-006
9.440426e-006
9.441206e-006
9.442997e-006
9.446843e-006
9.454549e-006
9.468905e-006
9.493663e-006
9.533087e-006
9.591148e-006
9.671148e-006
9.777124e-006
9.917720e-006
1.011075e-005
1.038543e-005
1.077994e-005
1.133396e-005
1.207789e-005
1.302216e-005
1.415065e-005
1.542105e-005
1.677189e-005
1.813398e-005
1.944229e-005
2.064487e-005
2.170735e-005
2.261301e-005
2.335973e-005
2.395560e-005
2.441434e-005
2.475152e-005
2.498177e-005
2.511701e-005
2.516545e-005
2.513113e-005
2.501385e-005
2.480935e-005
2.450975e-005
2.410442e-005
2.358118e-005
2.292831e-005
2.213714e-005
2.120533e-005
2.014032e-005
1.896235e-005
1.770592e-005
1.641869e-005
1.515708e-005
1.397896e-005
1.293463e-005
1.205862e-005
1.136469e-005
1.084560e-005
1.047738e-005
1.022655e-005
1.005758e-005
9.938882e-006
9.846521e-006
9.765671e-006
9.690281e-006
9.621005e-006
9.561704e-006
9.515691e-006
9.483525e-006
9.463186e-006
9.451467e-006
9.445268e-006
9.442237e-006
9.440861e-006
9.440279e-006
9.440048e-006
9.439963e-006