# vtk DataFile Version 3.0
vtk output
ASCII
DATASET STRUCTURED_POINTS
DIMENSIONS 100 100 1
SPACING 1 1 1
ORIGIN 0 0 0
POINT_DATA 10000
SCALARS SFBox_profile double
LOOKUP_TABLE default 
9.439920e-003
9.439920e-003
9.439920e-003
9.439920e-003
9.439920e-003
9.439920e-003
9.439920e-003
9.439920e-003
9.439920e-003
9.439920e-003
9.439920e-003
9.439920e-003
9.439920e-003
9.439920e-003
9.439920e-003
9.439920e-003
9.439920e-003
9.439920e-003
9.439920e-003
9.439920e-003
9.439920e-003
9.439920e-003
9.439920e-003
9.439920e-003
9.439920e-003
9.439920e-003
9.439920e-003
9.439920e-003
9.439920e-003
9.439920e-003
9.439920e-003
9.439920e-003
9.439921e-003
9.439921e-003
9.439922e-003
9.439923e-003
9.439924e-003
9.439925e-003
9.439927e-003
9.439928e-003
9.439928e-003
9.439929e-003
9.439929e-003
9.439929e-003
9.439928e-003
9.439928e-003
9.439928e-003
9.439927e-003
9.439926e-003
9.439926e-003
9.439925e-003
9.439925e-003
9.439925e-003
9.439925e-003
9.439926e-003
9.439926e-003
9.439926e-003
9.439927e-003
9.439927e-003
9.439928e-003
9.439928e-003
9.439928e-003
9.439928e-003
9.439928e-003
9.439927e-003
9.439927e-003
9.439926e-003
9.439925e-003
9.439925e-003
9.439924e-003
9.439923e-003
9.439922e-003
9.439921e-003
9.439921e-003
9.439920e-003
9.439920e-003
9.439920e-003
9.439919e-003
9.439919e-003
9.439919e-003
9.439919e-003
9.439919e-003
9.439919e-003
9.439920e-003
9.439920e-003
9.439920e-003
9.439920e-003
9.439921e-003
9.439921e-003
9.439920e-003
9.439920e-003
9.439920e-003
9.439920e-003
9.439920e-003
9.439920e-003
9.439920e-003
9.439920e-003
9.439920e-003
9.439920e-003
9.439920e-003
9.439920e-003
9.439920e-003
9.439920e-003
9.439920e-003
9.439920e-003
9.439920e-003
9.439920e-003
9.439920e-003
9.439920e-003
9.439920e-003
9.439920e-003
9.439920e-003
9.439920e-003
9.439920e-003
9.439920e-003
9.439920e-003
9.439920e-003
9.439920e-003
9.439920e-003
9.439920e-003
9.439920e-003
9.439920e-003
9.439920e-003
9.439920e-003
9.439920e-003
9.439920e-003
9.439920e-003
9.439920e-003
9.439920e-003
9.439920e-003
9.439920e-003
9.439920e-003
9.439921e-003
9.439921e-003
9.439922e-003
9.439923e-003
9.439924e-003
9.439925e-003
9.439927e-003
9.439928e-003
9.439928e-003
9.439929e-003
9.439929e-003
9.439929e-003
9.439928e-003
9.439928e-003
9.439928e-003
9.439927e-003
9.439926e-003
9.439926e-003
9.439925e-003
9.439925e-003
9.439925e-003
9.439925e-003
9.439926e-003
9.439926e-003
9.439926e-003
9.439927e-003
9.439927e-003
9.439928e-003
9.439928e-003
9.439928e-003
9.439928e-003
9.439928e-003
9.439927e-003
9.439927e-003
9.439926e-003
9.439925e-003
9.439925e-003
9.439924e-003
9.439923e-003
9.439922e-003
9.439921e-003
9.439921e-003
9.439920e-003
9.439920e-003
9.439920e-003
9.439919e-003
9.439919e-003
9.439919e-003
9.439919e-003
9.439919e-003
9.439919e-003
9.439920e-003
9.439920e-003
9.439920e-003
9.439920e-003
9.439921e-003
9.439921e-003
9.439920e-003
9.439920e-003
9.439920e-003
9.439920e-003
9.439920e-003
9.439920e-003
9.439920e-003
9.439920e-003
9.439920e-003
9.439920e-003
9.439920e-003
9.439920e-003
9.439920e-003
9.439920e-003
9.439920e-003
9.439920e-003
9.439920e-003
9.439920e-003
9.439920e-003
9.439920e-003
9.439920e-003
9.439920e-003
9.439920e-003
9.439920e-003
9.439920e-003
9.439920e-003
9.439920e-003
9.439920e-003
9.439920e-003
9.439920e-003
9.439920e-003
9.439920e-003
9.439920e-003
9.439920e-003
9.439920e-003
9.439921e-003
9.439921e-003
9.439920e-003
9.439920e-003
9.439920e-003
9.439921e-003
9.439921e-003
9.439921e-003
9.439922e-003
9.439922e-003
9.439922e-003
9.439923e-003
9.439923e-003
9.439924e-003
9.439925e-003
9.439926e-003
9.439926e-003
9.439927e-003
9.439927e-003
9.439927e-003
9.439927e-003
9.439927e-003
9.439927e-003
9.439927e-003
9.439927e-003
9.439927e-003
9.439927e-003
9.439927e-003
9.439927e-003
9.439927e-003
9.439927e-003
9.439927e-003
9.439927e-003
9.439927e-003
9.439927e-003
9.439927e-003
9.439926e-003
9.439926e-003
9.439926e-003
9.439925e-003
9.439925e-003
9.439924e-003
9.439924e-003
9.439923e-003
9.439923e-003
9.439922e-003
9.439922e-003
9.439921e-003
9.439921e-003
9.439921e-003
9.439920e-003
9.439920e-003
9.439920e-003
9.439920e-003
9.439920e-003
9.439920e-003
9.439920e-003
9.439920e-003
9.439920e-003
9.439920e-003
9.439920e-003
9.439920e-003
9.439920e-003
9.439920e-003
9.439920e-003
9.439920e-003
9.439920e-003
9.439920e-003
9.439920e-003
9.439920e-003
9.439920e-003
9.439920e-003
9.439920e-003
9.439920e-003
9.439920e-003
9.439920e-003
9.439920e-003
9.439920e-003
9.439920e-003
9.439920e-003
9.439920e-003
9.439920e-003
9.439920e-003
9.439920e-003
9.439920e-003
9.439920e-003
9.439920e-003
9.439920e-003
9.439920e-003
9.439920e-003
9.439920e-003
9.439920e-003
9.439920e-003
9.439920e-003
9.439920e-003
9.439920e-003
9.439920e-003
9.439920e-003
9.439920e-003
9.439920e-003
9.439921e-003
9.439921e-003
9.439921e-003
9.439922e-003
9.439922e-003
9.439922e-003
9.439923e-003
9.439923e-003
9.439924e-003
9.439924e-003
9.439924e-003
9.439924e-003
9.439924e-003
9.439924e-003
9.439924e-003
9.439925e-003
9.439925e-003
9.439925e-003
9.439926e-003
9.439926e-003
9.439927e-003
9.439928e-003
9.439929e-003
9.439930e-003
9.439930e-003
9.439931e-003
9.439931e-003
9.439931e-003
9.439931e-003
9.439931e-003
9.439931e-003
9.439930e-003
9.439930e-003
9.439929e-003
9.439928e-003
9.439927e-003
9.439926e-003
9.439925e-003
9.439924e-003
9.439924e-003
9.439923e-003
9.439922e-003
9.439922e-003
9.439922e-003
9.439921e-003
9.439921e-003
9.439921e-003
9.439921e-003
9.439921e-003
9.439921e-003
9.439921e-003
9.439921e-003
9.439921e-003
9.439921e-003
9.439921e-003
9.439921e-003
9.439921e-003
9.439921e-003
9.439920e-003
9.439920e-003
9.439920e-003
9.439920e-003
9.439920e-003
9.439920e-003
9.439920e-003
9.439920e-003
9.439920e-003
9.439920e-003
9.439920e-003
9.439920e-003
9.439920e-003
9.439920e-003
9.439920e-003
9.439920e-003
9.439920e-003
9.439920e-003
9.439920e-003
9.439920e-003
9.439920e-003
9.439920e-003
9.439920e-003
9.439920e-003
9.439920e-003
9.439920e-003
9.439920e-003
9.439920e-003
9.439920e-003
9.439920e-003
9.439920e-003
9.439920e-003
9.439920e-003
9.439920e-003
9.439920e-003
9.439920e-003
9.439920e-003
9.439920e-003
9.439920e-003
9.439920e-003
9.439921e-003
9.439921e-003
9.439921e-003
9.439922e-003
9.439922e-003
9.439923e-003
9.439924e-003
9.439925e-003
9.439925e-003
9.439926e-003
9.439927e-003
9.439928e-003
9.439928e-003
9.439928e-003
9.439928e-003
9.439928e-003
9.439928e-003
9.439929e-003
9.439929e-003
9.439930e-003
9.439930e-003
9.439931e-003
9.439932e-003
9.439933e-003
9.439935e-003
9.439936e-003
9.439937e-003
9.439938e-003
9.439938e-003
9.439939e-003
9.439939e-003
9.439938e-003
9.439938e-003
9.439937e-003
9.439936e-003
9.439935e-003
9.439933e-003
9.439932e-003
9.439931e-003
9.439929e-003
9.439928e-003
9.439927e-003
9.439926e-003
9.439925e-003
9.439924e-003
9.439924e-003
9.439923e-003
9.439923e-003
9.439922e-003
9.439922e-003
9.439922e-003
9.439922e-003
9.439922e-003
9.439922e-003
9.439922e-003
9.439922e-003
9.439922e-003
9.439922e-003
9.439921e-003
9.439921e-003
9.439921e-003
9.439920e-003
9.439920e-003
9.439920e-003
9.439919e-003
9.439919e-003
9.439919e-003
9.439920e-003
9.439920e-003
9.439920e-003
9.439920e-003
9.439920e-003
9.439920e-003
9.439920e-003
9.439920e-003
9.439920e-003
9.439920e-003
9.439920e-003
9.439920e-003
9.439920e-003
9.439920e-003
9.439920e-003
9.439920e-003
9.439920e-003
9.439920e-003
9.439920e-003
9.439920e-003
9.439920e-003
9.439920e-003
9.439920e-003
9.439920e-003
9.439920e-003
9.439920e-003
9.439920e-003
9.439920e-003
9.439920e-003
9.439921e-003
9.439921e-003
9.439921e-003
9.439921e-003
9.439921e-003
9.439922e-003
9.439922e-003
9.439923e-003
9.439924e-003
9.439925e-003
9.439927e-003
9.439928e-003
9.439929e-003
9.439931e-003
9.439932e-003
9.439933e-003
9.439935e-003
9.439936e-003
9.439936e-003
9.439937e-003
9.439938e-003
9.439938e-003
9.439939e-003
9.439940e-003
9.439940e-003
9.439941e-003
9.439942e-003
9.439943e-003
9.439944e-003
9.439945e-003
9.439945e-003
9.439946e-003
9.439946e-003
9.439946e-003
9.439946e-003
9.439946e-003
9.439945e-003
9.439944e-003
9.439944e-003
9.439943e-003
9.439942e-003
9.439941e-003
9.439939e-003
9.439938e-003
9.439937e-003
9.439936e-003
9.439934e-003
9.439933e-003
9.439932e-003
9.439931e-003
9.439930e-003
9.439929e-003
9.439927e-003
9.439926e-003
9.439925e-003
9.439925e-003
9.439924e-003
9.439923e-003
9.439923e-003
9.439922e-003
9.439922e-003
9.439922e-003
9.439921e-003
9.439921e-003
9.439921e-003
9.439920e-003
9.439920e-003
9.439920e-003
9.439920e-003
9.439920e-003
9.439920e-003
9.439920e-003
9.439920e-003
9.439920e-003
9.439920e-003
9.439920e-003
9.439920e-003
9.439920e-003
9.439920e-003
9.439920e-003
9.439920e-003
9.439920e-003
9.439920e-003
9.439920e-003
9.439920e-003
9.439920e-003
9.439920e-003
9.439920e-003
9.439920e-003
9.439920e-003
9.439920e-003
9.439920e-003
9.439920e-003
9.439920e-003
9.439920e-003
9.439920e-003
9.439920e-003
9.439920e-003
9.439920e-003
9.439921e-003
9.439921e-003
9.439921e-003
9.439922e-003
9.439922e-003
9.439923e-003
9.439923e-003
9.439924e-003
9.439926e-003
9.439928e-003
9.439929e-003
9.439931e-003
9.439933e-003
9.439935e-003
9.439937e-003
9.439939e-003
9.439941e-003
9.439943e-003
9.439945e-003
9.439946e-003
9.439947e-003
9.439948e-003
9.439948e-003
9.439948e-003
9.439948e-003
9.439948e-003
9.439948e-003
9.439947e-003
9.439946e-003
9.439945e-003
9.439944e-003
9.439944e-003
9.439943e-003
9.439942e-003
9.439942e-003
9.439941e-003
9.439941e-003
9.439941e-003
9.439941e-003
9.439942e-003
9.439942e-003
9.439943e-003
9.439943e-003
9.439944e-003
9.439944e-003
9.439944e-003
9.439944e-003
9.439944e-003
9.439944e-003
9.439942e-003
9.439941e-003
9.439939e-003
9.439937e-003
9.439935e-003
9.439933e-003
9.439931e-003
9.439929e-003
9.439927e-003
9.439925e-003
9.439924e-003
9.439923e-003
9.439922e-003
9.439921e-003
9.439921e-003
9.439921e-003
9.439921e-003
9.439920e-003
9.439920e-003
9.439920e-003
9.439920e-003
9.439920e-003
9.439920e-003
9.439920e-003
9.439920e-003
9.439920e-003
9.439920e-003
9.439920e-003
9.439920e-003
9.439920e-003
9.439920e-003
9.439920e-003
9.439920e-003
9.439920e-003
9.439920e-003
9.439920e-003
9.439920e-003
9.439920e-003
9.439920e-003
9.439920e-003
9.439920e-003
9.439920e-003
9.439920e-003
9.439920e-003
9.439920e-003
9.439920e-003
9.439920e-003
9.439920e-003
9.439920e-003
9.439920e-003
9.439920e-003
9.439921e-003
9.439921e-003
9.439922e-003
9.439923e-003
9.439924e-003
9.439925e-003
9.439927e-003
9.439928e-003
9.439931e-003
9.439933e-003
9.439936e-003
9.439938e-003
9.439940e-003
9.439942e-003
9.439944e-003
9.439946e-003
9.439947e-003
9.439948e-003
9.439948e-003
9.439947e-003
9.439945e-003
9.439943e-003
9.439940e-003
9.439936e-003
9.439932e-003
9.439927e-003
9.439922e-003
9.439917e-003
9.439911e-003
9.439906e-003
9.439901e-003
9.439896e-003
9.439893e-003
9.439890e-003
9.439888e-003
9.439887e-003
9.439888e-003
9.439889e-003
9.439892e-003
9.439896e-003
9.439901e-003
9.439906e-003
9.439912e-003
9.439918e-003
9.439924e-003
9.439930e-003
9.439935e-003
9.439939e-003
9.439943e-003
9.439945e-003
9.439946e-003
9.439945e-003
9.439944e-003
9.439942e-003
9.439940e-003
9.439937e-003
9.439935e-003
9.439932e-003
9.439929e-003
9.439927e-003
9.439925e-003
9.439923e-003
9.439922e-003
9.439921e-003
9.439921e-003
9.439921e-003
9.439920e-003
9.439920e-003
9.439920e-003
9.439920e-003
9.439921e-003
9.439920e-003
9.439920e-003
9.439920e-003
9.439920e-003
9.439920e-003
9.439920e-003
9.439920e-003
9.439920e-003
9.439920e-003
9.439920e-003
9.439920e-003
9.439920e-003
9.439920e-003
9.439920e-003
9.439920e-003
9.439920e-003
9.439920e-003
9.439920e-003
9.439920e-003
9.439920e-003
9.439920e-003
9.439920e-003
9.439920e-003
9.439920e-003
9.439920e-003
9.439921e-003
9.439921e-003
9.439921e-003
9.439921e-003
9.439922e-003
9.439923e-003
9.439924e-003
9.439925e-003
9.439927e-003
9.439930e-003
9.439932e-003
9.439935e-003
9.439938e-003
9.439941e-003
9.439944e-003
9.439946e-003
9.439947e-003
9.439946e-003
9.439945e-003
9.439942e-003
9.439937e-003
9.439931e-003
9.439922e-003
9.439911e-003
9.439899e-003
9.439884e-003
9.439868e-003
9.439851e-003
9.439833e-003
9.439815e-003
9.439796e-003
9.439777e-003
9.439759e-003
9.439742e-003
9.439726e-003
9.439713e-003
9.439702e-003
9.439694e-003
9.439690e-003
9.439688e-003
9.439690e-003
9.439696e-003
9.439706e-003
9.439719e-003
9.439735e-003
9.439753e-003
9.439774e-003
9.439796e-003
9.439819e-003
9.439841e-003
9.439863e-003
9.439882e-003
9.439900e-003
9.439914e-003
9.439925e-003
9.439934e-003
9.439939e-003
9.439943e-003
9.439943e-003
9.439943e-003
9.439941e-003
9.439938e-003
9.439935e-003
9.439932e-003
9.439929e-003
9.439926e-003
9.439924e-003
9.439923e-003
9.439922e-003
9.439921e-003
9.439921e-003
9.439921e-003
9.439921e-003
9.439921e-003
9.439921e-003
9.439921e-003
9.439920e-003
9.439920e-003
9.439920e-003
9.439920e-003
9.439920e-003
9.439920e-003
9.439920e-003
9.439920e-003
9.439920e-003
9.439920e-003
9.439920e-003
9.439920e-003
9.439920e-003
9.439920e-003
9.439920e-003
9.439920e-003
9.439920e-003
9.439920e-003
9.439920e-003
9.439920e-003
9.439920e-003
9.439920e-003
9.439920e-003
9.439920e-003
9.439921e-003
9.439921e-003
9.439922e-003
9.439922e-003
9.439923e-003
9.439925e-003
9.439927e-003
9.439930e-003
9.439933e-003
9.439936e-003
9.439940e-003
9.439943e-003
9.439946e-003
9.439948e-003
9.439948e-003
9.439946e-003
9.439940e-003
9.439931e-003
9.439916e-003
9.439897e-003
9.439873e-003
9.439843e-003
9.439808e-003
9.439768e-003
9.439723e-003
9.439674e-003
9.439622e-003
9.439568e-003
9.439513e-003
9.439458e-003
9.439404e-003
9.439351e-003
9.439301e-003
9.439256e-003
9.439215e-003
9.439180e-003
9.439152e-003
9.439132e-003
9.439120e-003
9.439117e-003
9.439124e-003
9.439141e-003
9.439167e-003
9.439203e-003
9.439248e-003
9.439301e-003
9.439359e-003
9.439422e-003
9.439489e-003
9.439556e-003
9.439621e-003
9.439683e-003
9.439740e-003
9.439790e-003
9.439833e-003
9.439868e-003
9.439896e-003
9.439916e-003
9.439930e-003
9.439938e-003
9.439942e-003
9.439942e-003
9.439941e-003
9.439938e-003
9.439935e-003
9.439932e-003
9.439929e-003
9.439927e-003
9.439925e-003
9.439923e-003
9.439922e-003
9.439921e-003
9.439921e-003
9.439921e-003
9.439921e-003
9.439921e-003
9.439920e-003
9.439920e-003
9.439920e-003
9.439920e-003
9.439920e-003
9.439920e-003
9.439920e-003
9.439920e-003
9.439920e-003
9.439920e-003
9.439920e-003
9.439920e-003
9.439920e-003
9.439920e-003
9.439920e-003
9.439920e-003
9.439920e-003
9.439920e-003
9.439920e-003
9.439920e-003
9.439920e-003
9.439920e-003
9.439920e-003
9.439921e-003
9.439921e-003
9.439922e-003
9.439923e-003
9.439924e-003
9.439926e-003
9.439929e-003
9.439932e-003
9.439936e-003
9.439940e-003
9.439944e-003
9.439947e-003
9.439949e-003
9.439948e-003
9.439943e-003
9.439932e-003
9.439914e-003
9.439887e-003
9.439848e-003
9.439797e-003
9.439733e-003
9.439655e-003
9.439564e-003
9.439460e-003
9.439344e-003
9.439218e-003
9.439084e-003
9.438944e-003
9.438800e-003
9.438655e-003
9.438512e-003
9.438372e-003
9.438239e-003
9.438114e-003
9.438000e-003
9.437900e-003
9.437814e-003
9.437746e-003
9.437698e-003
9.437670e-003
9.437665e-003
9.437684e-003
9.437727e-003
9.437794e-003
9.437885e-003
9.437998e-003
9.438131e-003
9.438281e-003
9.438444e-003
9.438616e-003
9.438791e-003
9.438965e-003
9.439132e-003
9.439288e-003
9.439430e-003
9.439554e-003
9.439660e-003
9.439746e-003
9.439813e-003
9.439863e-003
9.439899e-003
9.439922e-003
9.439935e-003
9.439942e-003
9.439943e-003
9.439942e-003
9.439939e-003
9.439935e-003
9.439932e-003
9.439929e-003
9.439926e-003
9.439924e-003
9.439923e-003
9.439922e-003
9.439921e-003
9.439920e-003
9.439920e-003
9.439920e-003
9.439920e-003
9.439920e-003
9.439920e-003
9.439920e-003
9.439920e-003
9.439920e-003
9.439920e-003
9.439920e-003
9.439920e-003
9.439920e-003
9.439920e-003
9.439920e-003
9.439920e-003
9.439920e-003
9.439920e-003
9.439920e-003
9.439920e-003
9.439920e-003
9.439920e-003
9.439920e-003
9.439920e-003
9.439920e-003
9.439921e-003
9.439922e-003
9.439924e-003
9.439926e-003
9.439928e-003
9.439931e-003
9.439935e-003
9.439939e-003
9.439944e-003
9.439948e-003
9.439950e-003
9.439949e-003
9.439941e-003
9.439925e-003
9.439896e-003
9.439852e-003
9.439788e-003
9.439700e-003
9.439585e-003
9.439439e-003
9.439262e-003
9.439054e-003
9.438814e-003
9.438546e-003
9.438252e-003
9.437937e-003
9.437605e-003
9.437261e-003
9.436913e-003
9.436565e-003
9.436224e-003
9.435894e-003
9.435581e-003
9.435290e-003
9.435025e-003
9.434793e-003
9.434597e-003
9.434442e-003
9.434331e-003
9.434270e-003
9.434260e-003
9.434305e-003
9.434407e-003
9.434565e-003
9.434778e-003
9.435043e-003
9.435356e-003
9.435711e-003
9.436098e-003
9.436508e-003
9.436930e-003
9.437352e-003
9.437762e-003
9.438150e-003
9.438507e-003
9.438825e-003
9.439099e-003
9.439329e-003
9.439514e-003
9.439657e-003
9.439764e-003
9.439839e-003
9.439889e-003
9.439919e-003
9.439936e-003
9.439943e-003
9.439944e-003
9.439942e-003
9.439938e-003
9.439934e-003
9.439930e-003
9.439927e-003
9.439925e-003
9.439923e-003
9.439921e-003
9.439921e-003
9.439920e-003
9.439920e-003
9.439920e-003
9.439920e-003
9.439920e-003
9.439920e-003
9.439920e-003
9.439920e-003
9.439920e-003
9.439920e-003
9.439920e-003
9.439920e-003
9.439921e-003
9.439920e-003
9.439920e-003
9.439920e-003
9.439920e-003
9.439920e-003
9.439920e-003
9.439920e-003
9.439921e-003
9.439920e-003
9.439921e-003
9.439921e-003
9.439922e-003
9.439924e-003
9.439927e-003
9.439930e-003
9.439934e-003
9.439938e-003
9.439943e-003
9.439948e-003
9.439951e-003
9.439951e-003
9.439943e-003
9.439924e-003
9.439887e-003
9.439827e-003
9.439735e-003
9.439603e-003
9.439423e-003
9.439186e-003
9.438885e-003
9.438515e-003
9.438075e-003
9.437565e-003
9.436989e-003
9.436352e-003
9.435663e-003
9.434932e-003
9.434171e-003
9.433391e-003
9.432606e-003
9.431828e-003
9.431069e-003
9.430340e-003
9.429653e-003
9.429017e-003
9.428443e-003
9.427941e-003
9.427519e-003
9.427186e-003
9.426951e-003
9.426822e-003
9.426805e-003
9.426907e-003
9.427129e-003
9.427474e-003
9.427940e-003
9.428521e-003
9.429209e-003
9.429990e-003
9.430848e-003
9.431762e-003
9.432708e-003
9.433663e-003
9.434600e-003
9.435494e-003
9.436325e-003
9.437076e-003
9.437733e-003
9.438291e-003
9.438750e-003
9.439114e-003
9.439391e-003
9.439594e-003
9.439737e-003
9.439831e-003
9.439889e-003
9.439922e-003
9.439938e-003
9.439944e-003
9.439943e-003
9.439940e-003
9.439935e-003
9.439931e-003
9.439928e-003
9.439925e-003
9.439923e-003
9.439922e-003
9.439921e-003
9.439920e-003
9.439920e-003
9.439920e-003
9.439920e-003
9.439920e-003
9.439920e-003
9.439920e-003
9.439920e-003
9.439920e-003
9.439920e-003
9.439920e-003
9.439921e-003
9.439921e-003
9.439920e-003
9.439920e-003
9.439920e-003
9.439920e-003
9.439920e-003
9.439920e-003
9.439921e-003
9.439921e-003
9.439922e-003
9.439923e-003
9.439924e-003
9.439927e-003
9.439931e-003
9.439936e-003
9.439941e-003
9.439946e-003
9.439951e-003
9.439952e-003
9.439947e-003
9.439929e-003
9.439892e-003
9.439823e-003
9.439711e-003
9.439541e-003
9.439294e-003
9.438954e-003
9.438502e-003
9.437923e-003
9.437204e-003
9.436337e-003
9.435321e-003
9.434160e-003
9.432865e-003
9.431451e-003
9.429939e-003
9.428353e-003
9.426718e-003
9.425060e-003
9.423405e-003
9.421778e-003
9.420204e-003
9.418704e-003
9.417299e-003
9.416007e-003
9.414849e-003
9.413839e-003
9.412996e-003
9.412336e-003
9.411874e-003
9.411624e-003
9.411599e-003
9.411810e-003
9.412264e-003
9.412964e-003
9.413909e-003
9.415090e-003
9.416493e-003
9.418094e-003
9.419863e-003
9.421762e-003
9.423745e-003
9.425762e-003
9.427762e-003
9.429693e-003
9.431508e-003
9.433166e-003
9.434637e-003
9.435904e-003
9.436961e-003
9.437813e-003
9.438477e-003
9.438975e-003
9.439334e-003
9.439582e-003
9.439744e-003
9.439844e-003
9.439901e-003
9.439930e-003
9.439941e-003
9.439943e-003
9.439941e-003
9.439937e-003
9.439932e-003
9.439929e-003
9.439926e-003
9.439923e-003
9.439922e-003
9.439921e-003
9.439921e-003
9.439921e-003
9.439920e-003
9.439920e-003
9.439920e-003
9.439920e-003
9.439920e-003
9.439920e-003
9.439920e-003
9.439920e-003
9.439921e-003
9.439921e-003
9.439920e-003
9.439920e-003
9.439920e-003
9.439920e-003
9.439920e-003
9.439920e-003
9.439921e-003
9.439922e-003
9.439923e-003
9.439925e-003
9.439928e-003
9.439932e-003
9.439937e-003
9.439943e-003
9.439949e-003
9.439953e-003
9.439952e-003
9.439940e-003
9.439908e-003
9.439843e-003
9.439728e-003
9.439539e-003
9.439248e-003
9.438822e-003
9.438225e-003
9.437421e-003
9.436375e-003
9.435060e-003
9.433454e-003
9.431549e-003
9.429348e-003
9.426870e-003
9.424142e-003
9.421206e-003
9.418109e-003
9.414901e-003
9.411636e-003
9.408366e-003
9.405142e-003
9.402010e-003
9.399012e-003
9.396186e-003
9.393565e-003
9.391180e-003
9.389059e-003
9.387229e-003
9.385715e-003
9.384540e-003
9.383729e-003
9.383304e-003
9.383284e-003
9.383688e-003
9.384530e-003
9.385819e-003
9.387556e-003
9.389732e-003
9.392331e-003
9.395319e-003
9.398650e-003
9.402263e-003
9.406082e-003
9.410019e-003
9.413975e-003
9.417850e-003
9.421546e-003
9.424974e-003
9.428062e-003
9.430762e-003
9.433049e-003
9.434924e-003
9.436408e-003
9.437543e-003
9.438378e-003
9.438969e-003
9.439369e-003
9.439627e-003
9.439784e-003
9.439873e-003
9.439918e-003
9.439938e-003
9.439943e-003
9.439942e-003
9.439938e-003
9.439933e-003
9.439929e-003
9.439926e-003
9.439924e-003
9.439922e-003
9.439921e-003
9.439921e-003
9.439920e-003
9.439920e-003
9.439920e-003
9.439920e-003
9.439920e-003
9.439920e-003
9.439920e-003
9.439920e-003
9.439921e-003
9.439920e-003
9.439920e-003
9.439920e-003
9.439920e-003
9.439920e-003
9.439920e-003
9.439921e-003
9.439922e-003
9.439924e-003
9.439926e-003
9.439929e-003
9.439933e-003
9.439938e-003
9.439945e-003
9.439951e-003
9.439955e-003
9.439950e-003
9.439930e-003
9.439879e-003
9.439778e-003
9.439599e-003
9.439303e-003
9.438841e-003
9.438153e-003
9.437173e-003
9.435830e-003
9.434054e-003
9.431787e-003
9.428981e-003
9.425614e-003
9.421686e-003
9.417229e-003
9.412298e-003
9.406972e-003
9.401347e-003
9.395528e-003
9.389621e-003
9.383729e-003
9.377949e-003
9.372364e-003
9.367046e-003
9.362057e-003
9.357446e-003
9.353253e-003
9.349511e-003
9.346249e-003
9.343489e-003
9.341253e-003
9.339561e-003
9.338434e-003
9.337891e-003
9.337954e-003
9.338644e-003
9.339983e-003
9.341991e-003
9.344685e-003
9.348074e-003
9.352157e-003
9.356917e-003
9.362315e-003
9.368289e-003
9.374742e-003
9.381552e-003
9.388564e-003
9.395602e-003
9.402477e-003
9.409004e-003
9.415018e-003
9.420387e-003
9.425025e-003
9.428899e-003
9.432023e-003
9.434453e-003
9.436275e-003
9.437590e-003
9.438500e-003
9.439103e-003
9.439485e-003
9.439713e-003
9.439841e-003
9.439906e-003
9.439934e-003
9.439943e-003
9.439943e-003
9.439939e-003
9.439934e-003
9.439930e-003
9.439926e-003
9.439924e-003
9.439922e-003
9.439921e-003
9.439920e-003
9.439920e-003
9.439920e-003
9.439920e-003
9.439920e-003
9.439920e-003
9.439920e-003
9.439920e-003
9.439920e-003
9.439920e-003
9.439920e-003
9.439920e-003
9.439920e-003
9.439920e-003
9.439920e-003
9.439921e-003
9.439923e-003
9.439926e-003
9.439930e-003
9.439934e-003
9.439940e-003
9.439947e-003
9.439953e-003
9.439955e-003
9.439948e-003
9.439918e-003
9.439846e-003
9.439702e-003
9.439444e-003
9.439010e-003
9.438321e-003
9.437277e-003
9.435761e-003
9.433646e-003
9.430802e-003
9.427111e-003
9.422486e-003
9.416877e-003
9.410290e-003
9.402789e-003
9.394498e-003
9.385586e-003
9.376260e-003
9.366742e-003
9.357254e-003
9.348000e-003
9.339156e-003
9.330866e-003
9.323234e-003
9.316330e-003
9.310196e-003
9.304847e-003
9.300278e-003
9.296468e-003
9.293387e-003
9.290995e-003
9.289250e-003
9.288105e-003
9.287520e-003
9.287461e-003
9.287906e-003
9.288851e-003
9.290313e-003
9.292332e-003
9.294973e-003
9.298321e-003
9.302476e-003
9.307542e-003
9.313608e-003
9.320736e-003
9.328932e-003
9.338132e-003
9.348188e-003
9.358864e-003
9.369847e-003
9.380774e-003
9.391270e-003
9.400994e-003
9.409670e-003
9.417123e-003
9.423284e-003
9.428183e-003
9.431929e-003
9.434683e-003
9.436628e-003
9.437946e-003
9.438801e-003
9.439329e-003
9.439639e-003
9.439808e-003
9.439894e-003
9.439931e-003
9.439943e-003
9.439943e-003
9.439939e-003
9.439934e-003
9.439930e-003
9.439926e-003
9.439924e-003
9.439922e-003
9.439921e-003
9.439920e-003
9.439920e-003
9.439920e-003
9.439920e-003
9.439920e-003
9.439920e-003
9.439920e-003
9.439919e-003
9.439919e-003
9.439920e-003
9.439921e-003
9.439921e-003
9.439921e-003
9.439921e-003
9.439923e-003
9.439925e-003
9.439929e-003
9.439934e-003
9.439941e-003
9.439948e-003
9.439954e-003
9.439956e-003
9.439945e-003
9.439906e-003
9.439812e-003
9.439623e-003
9.439275e-003
9.438679e-003
9.437713e-003
9.436219e-003
9.434006e-003
9.430857e-003
9.426549e-003
9.420873e-003
9.413676e-003
9.404884e-003
9.394542e-003
9.382825e-003
9.370039e-003
9.356603e-003
9.343008e-003
9.329773e-003
9.317395e-003
9.306305e-003
9.296835e-003
9.289206e-003
9.283522e-003
9.279780e-003
9.277890e-003
9.277690e-003
9.278970e-003
9.281480e-003
9.284948e-003
9.289081e-003
9.293572e-003
9.298106e-003
9.302370e-003
9.306065e-003
9.308921e-003
9.310717e-003
9.311307e-003
9.310634e-003
9.308759e-003
9.305869e-003
9.302288e-003
9.298469e-003
9.294976e-003
9.292442e-003
9.291513e-003
9.292777e-003
9.296675e-003
9.303427e-003
9.312975e-003
9.324965e-003
9.338778e-003
9.353611e-003
9.368589e-003
9.382891e-003
9.395852e-003
9.407032e-003
9.416231e-003
9.423465e-003
9.428911e-003
9.432839e-003
9.435553e-003
9.437351e-003
9.438489e-003
9.439177e-003
9.439570e-003
9.439780e-003
9.439884e-003
9.439928e-003
9.439942e-003
9.439943e-003
9.439939e-003
9.439934e-003
9.439929e-003
9.439926e-003
9.439923e-003
9.439922e-003
9.439921e-003
9.439920e-003
9.439920e-003
9.439920e-003
9.439920e-003
9.439920e-003
9.439920e-003
9.439918e-003
9.439919e-003
9.439920e-003
9.439922e-003
9.439922e-003
9.439922e-003
9.439923e-003
9.439925e-003
9.439928e-003
9.439933e-003
9.439941e-003
9.439949e-003
9.439956e-003
9.439957e-003
9.439943e-003
9.439896e-003
9.439783e-003
9.439550e-003
9.439112e-003
9.438343e-003
9.437066e-003
9.435047e-003
9.431991e-003
9.427556e-003
9.421379e-003
9.413124e-003
9.402555e-003
9.389614e-003
9.374496e-003
9.357708e-003
9.340078e-003
9.322706e-003
9.306874e-003
9.293908e-003
9.285041e-003
9.281278e-003
9.283313e-003
9.291474e-003
9.305726e-003
9.325704e-003
9.350772e-003
9.380100e-003
9.412726e-003
9.447615e-003
9.483693e-003
9.519864e-003
9.555012e-003
9.588009e-003
9.617715e-003
9.642997e-003
9.662761e-003
9.675999e-003
9.681846e-003
9.679653e-003
9.669060e-003
9.650073e-003
9.623133e-003
9.589162e-003
9.549586e-003
9.506314e-003
9.461658e-003
9.418196e-003
9.378559e-003
9.345165e-003
9.319936e-003
9.304034e-003
9.297699e-003
9.300214e-003
9.310038e-003
9.325078e-003
9.343034e-003
9.361755e-003
9.379512e-003
9.395136e-003
9.408040e-003
9.418116e-003
9.425593e-003
9.430884e-003
9.434463e-003
9.436777e-003
9.438206e-003
9.439048e-003
9.439517e-003
9.439761e-003
9.439878e-003
9.439927e-003
9.439942e-003
9.439942e-003
9.439938e-003
9.439933e-003
9.439928e-003
9.439925e-003
9.439923e-003
9.439922e-003
9.439921e-003
9.439921e-003
9.439920e-003
9.439920e-003
9.439920e-003
9.439920e-003
9.439917e-003
9.439919e-003
9.439920e-003
9.439922e-003
9.439923e-003
9.439924e-003
9.439925e-003
9.439928e-003
9.439932e-003
9.439939e-003
9.439948e-003
9.439956e-003
9.439959e-003
9.439944e-003
9.439892e-003
9.439765e-003
9.439495e-003
9.438975e-003
9.438040e-003
9.436449e-003
9.433872e-003
9.429880e-003
9.423963e-003
9.415570e-003
9.404203e-003
9.389552e-003
9.371684e-003
9.351241e-003
9.329602e-003
9.308947e-003
9.292182e-003
9.282704e-003
9.284045e-003
9.299455e-003
9.331527e-003
9.381906e-003
9.451143e-003
9.538689e-003
9.643009e-003
9.761770e-003
9.892080e-003
1.003071e-002
1.017431e-002
1.031949e-002
1.046296e-002
1.060149e-002
1.073188e-002
1.085095e-002
1.095553e-002
1.104246e-002
1.110865e-002
1.115120e-002
1.116757e-002
1.115569e-002
1.111425e-002
1.104286e-002
1.094228e-002
1.081463e-002
1.066347e-002
1.049392e-002
1.031252e-002
1.012696e-002
9.945640e-003
9.776912e-003
9.628291e-003
9.505564e-003
9.412088e-003
9.348399e-003
9.312274e-003
9.299257e-003
9.303527e-003
9.318920e-003
9.339851e-003
9.361940e-003
9.382271e-003
9.399302e-003
9.412562e-003
9.422276e-003
9.429022e-003
9.433483e-003
9.436297e-003
9.437992e-003
9.438962e-003
9.439488e-003
9.439755e-003
9.439878e-003