# vtk DataFile Version 3.0
vtk output
ASCII
DATASET STRUCTURED_POINTS
DIMENSIONS 100 100 1
SPACING 1 1 1
ORIGIN 0 0 0
POINT_DATA 10000
SCALARS SFBox_profile double
LOOKUP_TABLE default 
0.000000e+000
0.000000e+000
0.000000e+000
0.000000e+000
0.000000e+000
0.000000e+000
0.000000e+000
0.000000e+000
0.000000e+000
0.000000e+000
0.000000e+000
0.000000e+000
0.000000e+000
0.000000e+000
0.000000e+000
0.000000e+000
0.000000e+000
0.000000e+000
0.000000e+000
0.000000e+000
0.000000e+000
0.000000e+000
0.000000e+000
0.000000e+000
0.000000e+000
0.000000e+000
0.000000e+000
0.000000e+000
0.000000e+000
0.000000e+000
0.000000e+000
0.000000e+000
0.000000e+000
0.000000e+000
0.000000e+000
0.000000e+000
0.000000e+000
0.000000e+000
0.000000e+000
0.000000e+000
0.000000e+000
0.000000e+000
0.000000e+000
0.000000e+000
0.000000e+000
0.000000e+000
0.000000e+000
0.000000e+000
0.000000e+000
0.000000e+000
0.000000e+000
0.000000e+000
0.000000e+000
0.000000e+000
0.000000e+000
0.000000e+000
0.000000e+000
0.000000e+000
0.000000e+000
0.000000e+000
0.000000e+000
0.000000e+000
0.000000e+000
0.000000e+000
0.000000e+000
0.000000e+000
0.000000e+000
0.000000e+000
0.000000e+000
0.000000e+000
0.000000e+000
0.000000e+000
0.000000e+000
0.000000e+000
0.000000e+000
0.000000e+000
0.000000e+000
0.000000e+000
0.000000e+000
0.000000e+000
0.000000e+000
0.000000e+000
0.000000e+000
0.000000e+000
0.000000e+000
0.000000e+000
0.000000e+000
0.000000e+000
0.000000e+000
0.000000e+000
0.000000e+000
0.000000e+000
0.000000e+000
0.000000e+000
0.000000e+000
0.000000e+000
0.000000e+000
0.000000e+000
0.000000e+000
0.000000e+000
-2.312790e-009
-1.181367e-009
1.579567e-010
6.939424e-010
2.299855e-010
-4.839656e-010
-5.176758e-010
2.970951e-010
1.164624e-009
1.096325e-009
-6.521650e-011
-1.389951e-009
-1.687459e-009
-6.542270e-010
7.993706e-010
1.410345e-009
7.782602e-010
-2.940559e-010
-6.804535e-010
-1.013672e-010
6.526144e-010
6.504928e-010
-1.464428e-010
-8.870079e-010
-8.199365e-010
-1.147056e-010
4.051205e-010
2.474455e-010
-2.244949e-010
-3.069833e-010
1.696911e-010
6.709031e-010
6.447530e-010
1.774286e-010
-1.713514e-010
-8.524726e-011
1.608807e-010
1.134779e-010
-2.692709e-010
-6.006046e-010
-5.873001e-010
-3.817731e-010
-3.374557e-010
-5.390229e-010
-7.284046e-010
-6.777911e-010
-4.814099e-010
-3.984377e-010
-5.001016e-010
-6.014638e-010
-5.348053e-010
-3.680744e-010
-2.877394e-010
-3.387597e-010
-3.818846e-010
-3.003572e-010
-1.530901e-010
-7.642857e-011
-9.418575e-011
-1.004355e-010
-1.864813e-011
9.624463e-011
1.439106e-010
1.167657e-010
9.909182e-011
1.433649e-010
2.024182e-010
2.013358e-010
1.376248e-010
7.456206e-011
5.086504e-011
3.688761e-011
-1.170010e-011
-8.729093e-011
-1.404150e-010
-1.425793e-010
-1.128258e-010
-8.093778e-011
-4.802362e-011
1.650012e-012
6.227026e-011
1.009557e-010
9.391473e-011
5.468083e-011
1.735127e-011
-2.091547e-012
-1.742991e-011
-4.518387e-011
-7.516698e-011
-7.538379e-011
-2.658896e-011
5.060983e-011
1.047529e-010
9.258650e-011
1.592097e-011
-7.437724e-011
-1.130827e-010
-6.986908e-011
2.490454e-011
1.007918e-010
-1.392117e-009
-6.752451e-010
2.416483e-010
7.228751e-010
4.999837e-010
-1.383934e-010
-6.075164e-010
-5.242767e-010
-1.809650e-011
4.193251e-010
4.093558e-010
3.904643e-011
-2.540843e-010
-1.527870e-010
1.994892e-010
3.577177e-010
7.654935e-011
-3.931666e-010
-5.594527e-010
-2.324390e-010
2.537119e-010
4.071187e-010
1.264004e-010
-2.003896e-010
-1.629543e-010
1.883782e-010
4.155210e-010
2.262062e-010
-1.804224e-010
-3.676540e-010
-1.885310e-010
6.389416e-011
4.866447e-011
-1.986118e-010
-3.354884e-010
-1.608187e-010
1.420610e-010
2.590463e-010
1.427401e-010
4.194749e-011
1.551178e-010
3.798074e-010
4.702846e-010
3.652880e-010
2.482583e-010
2.865474e-010
4.179219e-010
4.574045e-010
3.531442e-010
2.409704e-010
2.463367e-010
3.208785e-010
3.262124e-010
2.279156e-010
1.300839e-010
1.214383e-010
1.589369e-010
1.408887e-010
5.110708e-011
-2.742166e-011
-3.387264e-011
-7.993241e-012
-2.451271e-011
-8.750566e-011
-1.313684e-010
-1.153832e-010
-7.443097e-011
-6.301668e-011
-8.024237e-011
-7.847307e-011
-3.402643e-011
2.193271e-011
4.819848e-011
4.483284e-011
4.284788e-011
5.559338e-011
6.260095e-011
4.300114e-011
6.689157e-012
-1.871371e-011
-2.259655e-011
-1.955952e-011
-2.434262e-011
-3.119097e-011
-2.415973e-011
-9.707586e-013
2.201730e-011
2.797071e-011
1.643431e-011
4.717941e-013
-8.252504e-012
-8.093474e-012
-4.005761e-012
-5.821059e-013
5.949107e-013
-4.560494e-014
-1.108339e-012
-9.800166e-013
7.544413e-013
2.571738e-012
3.681717e-010
1.813268e-010
7.571991e-011
2.366511e-010
4.768888e-010
3.788674e-010
-2.300632e-010
-9.733797e-010
-1.178827e-009
-5.117573e-010
6.287576e-010
1.391023e-009
1.208036e-009
2.916902e-010
-5.945451e-010
-8.472003e-010
-5.111616e-010
-1.017016e-010
-1.832240e-011
-1.886432e-010
-2.610296e-010
-4.873344e-011
2.891274e-010
4.743823e-010
4.186936e-010
2.596863e-010
1.464461e-010
7.765618e-011
-3.294439e-011
-2.011000e-010
-3.449909e-010
-3.952204e-010
-3.691461e-010
-3.169797e-010
-2.399834e-010
-1.050451e-010
7.819502e-011
2.453952e-010
3.543973e-010
4.364588e-010
5.428582e-010
6.629101e-010
7.336380e-010
7.288901e-010
6.997165e-010
7.069004e-010
7.405804e-010
7.394527e-010
6.801062e-010
6.098863e-010
5.800135e-010
5.762480e-010
5.430888e-010
4.627245e-010
3.765958e-010
3.240956e-010
2.892154e-010
2.282715e-010
1.341089e-010
4.521393e-011
-8.282093e-012
-4.205930e-011
-8.891291e-011
-1.500540e-010
-1.953398e-010
-2.065876e-010
-1.991346e-010
-1.940799e-010
-1.856119e-010
-1.505544e-010
-8.365727e-011
-7.508754e-012
5.421795e-011
9.994939e-011
1.390764e-010
1.668056e-010
1.630656e-010
1.170409e-010
4.371974e-011
-2.785276e-011
-7.737112e-011
-1.006515e-010
-1.005213e-010
-7.954020e-011
-4.252279e-011
9.402293e-013
4.100558e-011
7.135650e-011
8.471515e-011
6.883766e-011
1.661192e-011
-5.545063e-011
-1.050743e-010
-9.204673e-011
-1.590096e-011
7.416145e-011
1.126804e-010
6.946350e-011
-2.449001e-011
-9.929974e-011
2.510767e-009
1.146731e-009
-4.231836e-010
-9.552160e-010
-2.530852e-010
7.105703e-010
7.947285e-010
-1.620330e-010
-1.179548e-009
-1.135912e-009
6.082933e-011
1.324002e-009
1.446015e-009
3.072470e-010
-1.002234e-009
-1.280444e-009
-3.973139e-010
6.513573e-010
8.319109e-010
1.163085e-010
-6.039652e-010
-5.552500e-010
1.152101e-010
6.105711e-010
4.265454e-010
-1.390920e-010
-4.227912e-010
-1.788076e-010
2.119977e-010
2.691873e-010
-2.384218e-011
-2.716815e-010
-1.869951e-010
9.313764e-011
2.332946e-010
1.199100e-010
-4.907349e-011
-5.585264e-011
7.561485e-011
1.548311e-010
8.618641e-011
-3.273429e-011
-6.511489e-011
-6.594841e-012
3.821518e-011
7.430919e-012
-5.043459e-011
-5.968467e-011
-1.756221e-011
1.718399e-011
1.024873e-011
-1.095211e-011
-5.531677e-012
2.568771e-011
4.924515e-011
4.756760e-011
3.741668e-011
4.119535e-011
5.709602e-011
6.600641e-011
5.917753e-011
4.793158e-011
4.646740e-011
5.336409e-011
5.429656e-011
3.972428e-011
1.541080e-011
-4.759428e-012
-1.349748e-011
-1.569930e-011
-1.996708e-011
-2.675007e-011
-2.693607e-011
-1.251430e-011
1.298680e-011
3.618355e-011
4.519420e-011
3.763890e-011
1.842136e-011
-6.076894e-012
-2.886939e-011
-4.096281e-011
-3.592599e-011
-1.825268e-011
-2.392319e-012
2.065819e-012
2.989336e-012
1.690720e-011
4.442338e-011
5.959334e-011
3.260288e-011
-3.339342e-011
-9.258571e-011
-9.158802e-011
-1.985250e-011
7.362677e-011
1.166296e-010
7.298987e-011
-2.624439e-011
-1.061018e-010
3.921375e-009
1.837690e-009
-7.692577e-010
-2.039788e-009
-1.292350e-009
5.105474e-010
1.681788e-009
1.292657e-009
-9.978958e-011
-1.110470e-009
-9.039335e-010
5.707280e-011
6.070191e-010
1.626102e-010
-6.701857e-010
-8.089406e-010
6.391473e-011
1.112197e-009
1.252259e-009
3.445593e-010
-6.676037e-010
-8.170404e-010
-1.540409e-010
4.003243e-010
1.673170e-010
-5.317929e-010
-8.223386e-010
-3.318744e-010
4.152060e-010
6.741569e-010
3.464551e-010
1.652080e-012
1.132010e-010
5.000929e-010
6.218693e-010
2.777961e-010
-1.828726e-010
-3.402194e-010
-2.073158e-010
-1.405672e-010
-3.443151e-010
-6.351268e-010
-7.229032e-010
-5.873115e-010
-4.647627e-010
-5.165257e-010
-6.412121e-010
-6.473824e-010
-5.139959e-010
-3.935029e-010
-3.916202e-010
-4.397627e-010
-4.109222e-010
-2.933623e-010
-1.886059e-010
-1.623159e-010
-1.640771e-010
-1.111934e-010
-3.626972e-012
8.505239e-011
1.121492e-010
1.162148e-010
1.546061e-010
2.243340e-010
2.710506e-010
2.629368e-010
2.260466e-010
2.015393e-010
1.904591e-010
1.581965e-010
8.500858e-011
-6.803032e-012
-7.910040e-011
-1.172763e-010
-1.337263e-010
-1.396246e-010
-1.278295e-010
-8.783371e-011
-2.820556e-011
2.580164e-011
5.642860e-011
6.768633e-011
7.237481e-011
7.056120e-011
4.881921e-011
2.145014e-012
-4.950696e-011
-7.326739e-011
-5.353641e-011
-7.915258e-012
2.847154e-011
3.383144e-011
1.501744e-011
-4.709626e-012
-9.242038e-012
-9.004398e-013
7.328811e-012
6.350987e-012
-2.199451e-012
-9.931453e-012
3.144114e-009
1.657840e-009
-3.993861e-010
-1.755629e-009
-1.607040e-009
-1.921314e-010
1.349284e-009
1.829441e-009
9.512099e-010
-4.806489e-010
-1.306451e-009
-1.043717e-009
-2.188112e-010
2.960113e-010
2.022770e-010
-3.729113e-011
1.128769e-010
5.568043e-010
6.969589e-010
2.214193e-010
-4.453451e-010
-6.156448e-010
-1.702607e-010
2.883586e-010
1.727516e-010
-3.657603e-010
-6.273637e-010
-2.328617e-010
4.115714e-010
6.231396e-010
2.708603e-010
-1.100511e-010
-2.448530e-011
3.768562e-010
5.391690e-010
2.331855e-010
-1.771504e-010
-2.312387e-010
5.255617e-011
2.533618e-010
1.197990e-010
-1.338199e-010
-1.543257e-010
8.262498e-011
2.769331e-010
2.226491e-010
5.625170e-011
3.524958e-011
1.893997e-010
3.116082e-010
2.579650e-010
1.271134e-010
9.986438e-011
1.924439e-010
2.584416e-010
2.048558e-010
1.094689e-010
9.666240e-011
1.666170e-010
2.102307e-010
1.669319e-010
9.874575e-011
9.342896e-011
1.463047e-010
1.789719e-010
1.519124e-010
1.102364e-010
1.112819e-010
1.448067e-010
1.514753e-010
1.030076e-010
3.266156e-011
-1.507695e-011
-3.832185e-011
-6.555835e-011
-1.042294e-010
-1.244734e-010
-9.698214e-011
-3.152966e-011
3.228036e-011
6.583446e-011
7.258048e-011
7.031758e-011
6.425156e-011
4.428839e-011
4.085438e-012
-4.526649e-011
-8.149575e-011
-8.658385e-011
-5.568136e-011
2.042946e-012
6.414777e-011
9.877682e-011
7.963892e-011
8.916399e-012
-7.278565e-011
-1.081395e-010
-6.698171e-011
2.421490e-011
9.790909e-011
-4.112074e-010
1.497360e-010
5.639673e-010
2.517914e-010
-5.202075e-010
-8.801638e-010
-3.230974e-010
6.643963e-010
1.065282e-009
4.210598e-010
-6.411842e-010
-1.049318e-009
-4.140351e-010
5.843995e-010
9.535293e-010
4.241391e-010
-3.675193e-010
-6.652810e-010
-3.793005e-010
-1.203674e-011
4.917844e-011
-5.743489e-011
7.197573e-012
2.577549e-010
3.818730e-010
2.124934e-010
-1.933543e-011
-8.608765e-012
1.861380e-010
2.162949e-010
-6.292707e-011
-3.624000e-010
-3.231328e-010
1.205144e-011
2.597793e-010
2.080225e-010
8.713989e-011
2.424477e-010
6.618245e-010
9.933476e-010
1.011504e-009
8.945845e-010
9.576532e-010
1.227302e-009
1.429494e-009
1.374939e-009
1.200953e-009
1.162260e-009
1.287335e-009
1.367182e-009
1.258501e-009
1.067201e-009
9.811398e-010
1.012426e-009
1.002837e-009
8.561270e-010
6.613609e-010
5.546386e-010
5.342620e-010
4.820643e-010
3.379183e-010
1.755892e-010
9.076057e-011
7.452314e-011
4.327022e-011
-3.540363e-011
-1.023289e-010
-9.573689e-011
-3.450193e-011
1.448403e-011
2.610578e-011
3.706806e-011
7.935450e-011
1.282753e-010
1.343118e-010
8.840475e-011
3.222940e-011
6.542368e-012
9.118913e-012
9.907379e-012
-6.954879e-012
-2.921312e-011
-3.811091e-011
-2.943665e-011
-1.121239e-011
7.680420e-012
1.897802e-011
1.290452e-011
-1.251175e-011
-3.850362e-011
-3.370257e-011
1.344444e-011
7.120220e-011
8.413111e-011
2.570510e-011
-6.731439e-011
-1.188082e-010
-7.933746e-011
2.597337e-011
1.142985e-010
-5.155220e-009
-2.229610e-009
1.269331e-009
2.707967e-009
1.409660e-009
-9.619522e-010
-2.124005e-009
-1.277662e-009
3.992326e-010
1.189664e-009
6.060948e-010
-3.216887e-010
-3.848111e-010
4.245267e-010
1.005875e-009
5.050766e-010
-6.813869e-010
-1.375382e-009
-9.433654e-010
7.090712e-011
6.554083e-010
4.523291e-010
-2.836299e-012
-5.953532e-011
2.969792e-010
5.714026e-010
4.459084e-010
1.098322e-010
-8.364974e-011
-6.688422e-011
-3.223694e-011
-7.868006e-011
-7.961952e-011
8.465681e-011
3.272482e-010
4.879444e-010
5.748682e-010
7.379623e-010
1.018051e-009
1.257331e-009
1.314127e-009
1.268494e-009
1.313554e-009
1.484603e-009
1.613343e-009
1.569819e-009
1.445455e-009
1.422324e-009
1.521827e-009
1.586070e-009
1.505105e-009
1.362762e-009
1.306856e-009
1.342190e-009
1.335750e-009
1.209282e-009
1.040071e-009
9.415194e-010
9.080216e-010
8.386695e-010
6.877740e-010
5.227360e-010
4.209934e-010
3.658722e-010
2.843651e-010
1.585030e-010
4.862079e-011
6.525691e-012
1.035339e-011
7.516528e-012
-6.943787e-012
9.958706e-012
7.809047e-011
1.564876e-010
1.884933e-010
1.636219e-010
1.166024e-010
7.651562e-011
3.930202e-011
-8.612824e-012
-6.016452e-011
-9.371357e-011
-9.891234e-011
-8.188136e-011
-4.801638e-011
3.827865e-012
6.362744e-011
9.945280e-011
8.077913e-011
1.487863e-011
-5.011489e-011
-6.656519e-011
-3.114142e-011
1.547245e-011
3.087818e-011
9.709126e-012
-1.812592e-011
-2.191012e-011
3.245684e-013
2.373161e-011
-7.538644e-009
-3.806520e-009
9.757681e-010
3.556327e-009
2.621209e-009
-3.485574e-010
-2.538875e-009
-2.260260e-009
-2.158087e-010
1.477735e-009
1.438956e-009
1.921375e-010
-6.922902e-010
-3.971458e-010
3.962294e-010
5.166001e-010
-2.366407e-010
-9.069891e-010
-6.053245e-010
3.921484e-010
9.862426e-010
5.676891e-010
-3.077264e-010
-6.410132e-010
-1.588630e-010
4.746772e-010
5.476862e-010
1.208125e-010
-1.687066e-010
6.123567e-011
5.475805e-010
8.140766e-010
7.601139e-010
6.772268e-010
7.983724e-010
1.030383e-009
1.151817e-009
1.116645e-009
1.057685e-009
1.066891e-009
1.098955e-009
1.090322e-009
1.066214e-009
1.080777e-009
1.118228e-009
1.122968e-009
1.099647e-009
1.112356e-009
1.181338e-009
1.243116e-009
1.241359e-009
1.211060e-009
1.226924e-009
1.292403e-009
1.333843e-009
1.305750e-009
1.251066e-009
1.232758e-009
1.242811e-009
1.219771e-009
1.140771e-009
1.050152e-009
9.891555e-010
9.363070e-010
8.435759e-010
7.084342e-010
5.753297e-010
4.707835e-010
3.718008e-010
2.511262e-010
1.280203e-010
4.943507e-011
3.056674e-011
3.902538e-011
3.945332e-011
3.148869e-011
3.242887e-011
3.958265e-011
3.107104e-011
6.306065e-013
-2.893565e-011
-3.491162e-011
-2.383445e-011
-1.862544e-011
-2.290169e-011
-1.416053e-011
2.329541e-011
6.976509e-011
8.450022e-011
4.678716e-011
-2.294455e-011
-8.104864e-011
-9.374281e-011
-5.526349e-011
1.359809e-011
7.576594e-011
9.364034e-011
5.171268e-011
-2.629999e-011
-8.734748e-011
-4.569762e-009
-2.760070e-009
-1.581190e-010
1.737806e-009
1.879460e-009
4.673531e-010
-1.120809e-009
-1.451594e-009
-3.251954e-010
1.045659e-009
1.260747e-009
1.579632e-010
-1.073215e-009
-1.211979e-009
-2.836826e-010
6.152785e-010
6.533907e-010
1.405591e-010
-3.877082e-011
3.750743e-010
7.209745e-010
3.472295e-010
-4.801572e-010
-8.708664e-010
-4.115656e-010
3.433083e-010
5.921711e-010
2.674516e-010
4.681126e-011
4.490525e-010
1.202540e-009
1.636863e-009
1.514111e-009
1.237715e-009
1.267388e-009
1.563767e-009
1.731695e-009
1.571429e-009
1.293770e-009
1.196475e-009
1.298471e-009
1.385321e-009
1.322660e-009
1.196230e-009
1.150430e-009
1.198881e-009
1.246195e-009
1.235572e-009
1.204153e-009
1.206390e-009
1.243314e-009
1.283733e-009
1.316612e-009
1.354779e-009
1.404280e-009
1.455670e-009
1.500638e-009
1.537673e-009
1.561430e-009
1.562683e-009
1.541919e-009
1.509429e-009
1.466569e-009
1.399278e-009
1.298833e-009
1.178590e-009
1.057026e-009
9.300233e-010
7.763176e-010
5.920545e-010
4.048607e-010
2.460087e-010
1.206154e-010
1.783192e-011
-5.783814e-011
-8.504625e-011
-5.941268e-011
-1.252511e-011
1.642505e-011
2.180797e-011
3.050040e-011
5.951748e-011
8.819353e-011
8.075109e-011
2.989725e-011
-3.161260e-011
-6.190223e-011
-4.596461e-011
-2.775057e-012
3.328425e-011
3.497685e-011
-1.944116e-012
-5.165226e-011
-6.915146e-011
-2.512827e-011
5.810399e-011
1.119594e-010
7.939431e-011
-2.445712e-011
-1.156715e-010
3.040195e-009
9.762949e-010
-1.241185e-009
-1.739950e-009
-4.836860e-010
9.434161e-010
1.167403e-009
3.634592e-010
-2.761075e-010
-1.060379e-010
3.029405e-010
8.117856e-011
-7.126866e-010
-1.126358e-009
-5.271092e-010
5.715157e-010
1.103575e-009
6.901603e-010
-1.769486e-011
-2.357698e-010
3.197754e-011
1.836209e-010
-5.904534e-011
-2.843614e-010
-2.196538e-011
5.615379e-010
8.755076e-010
7.154669e-010
5.435760e-010
8.575144e-010
1.512320e-009
1.905562e-009
1.758962e-009
1.450823e-009
1.491522e-009
1.871704e-009
2.125123e-009
1.960970e-009
1.606012e-009
1.455813e-009
1.558368e-009
1.603200e-009
1.362171e-009
9.646291e-010
6.875999e-010
6.004718e-010
5.313786e-010
3.398066e-010
9.866210e-011
-2.546698e-011
1.225947e-011
1.100162e-010
1.771546e-010
2.414388e-010
3.835134e-010
6.158200e-010
8.666829e-010
1.067417e-009
1.216585e-009
1.351314e-009
1.481511e-009
1.573407e-009
1.592127e-009
1.542719e-009
1.462361e-009
1.379435e-009
1.289434e-009
1.171923e-009
1.023431e-009
8.649669e-010
7.164678e-010
5.731115e-010
4.169165e-010
2.510049e-010
1.110929e-010
3.444009e-011
2.080674e-011
3.275197e-011
3.535532e-011
2.800737e-011
3.309967e-011
6.001895e-011
8.886583e-011
8.915099e-011
4.799526e-011
-2.032839e-011
-8.438314e-011
-1.110017e-010
-8.110099e-011
-5.929836e-012
6.924070e-011
9.135844e-011
4.499635e-011
-2.705052e-011
-5.920037e-011
-2.678419e-011
2.883373e-011
4.500707e-011
6.085912e-012
-4.080777e-011
1.027895e-008
4.932367e-009
-1.539719e-009
-4.467274e-009
-2.682548e-009
9.850143e-010
2.824456e-009
1.677297e-009
-5.824843e-010
-1.529860e-009
-6.913879e-010
4.671727e-010
5.856067e-010
-1.070147e-010
-4.309969e-010
8.743322e-011
6.877590e-010
4.828966e-010
-3.604656e-010
-8.629571e-010
-4.680259e-010
3.560277e-010
8.142358e-010
7.534005e-010
6.704281e-010
9.186264e-010
1.272458e-009
1.363334e-009
1.252519e-009
1.308757e-009
1.626164e-009
1.863765e-009
1.733668e-009
1.415221e-009
1.292725e-009
1.392473e-009
1.317083e-009
7.653090e-010
-8.610553e-011
-8.473018e-010
-1.436415e-009
-2.145297e-009
-3.195287e-009
-4.411628e-009
-5.436843e-009
-6.155845e-009
-6.760495e-009
-7.413593e-009
-7.998510e-009
-8.270281e-009
-8.162586e-009
-7.834997e-009
-7.436870e-009
-6.932427e-009
-6.201608e-009
-5.243966e-009
-4.206862e-009
-3.227705e-009
-2.318657e-009
-1.429866e-009
-5.766932e-010
1.459793e-010
6.654063e-010
1.002421e-009
1.227299e-009
1.373544e-009
1.423227e-009
1.367749e-009
1.250578e-009
1.134424e-009
1.040048e-009
9.364512e-010
7.910580e-010
6.146579e-010
4.499704e-010
3.259594e-010
2.358267e-010
1.580601e-010
8.592148e-011
2.940859e-011
-3.714545e-012
-1.713922e-011
-1.681010e-011
-4.082690e-012
1.511249e-011
2.185621e-011
-1.580576e-012
-4.541877e-011
-6.978435e-011
-4.002700e-011
3.307492e-011
9.466184e-011
9.329496e-011
2.830218e-011
-5.050292e-011
-8.824017e-011
-6.849560e-011
-1.609467e-011
3.342204e-011
6.013823e-011
1.124356e-008
5.777344e-009
-1.039069e-009
-4.454819e-009
-2.965736e-009
8.099695e-010
2.898282e-009
1.656444e-009
-1.097915e-009
-2.363395e-009
-1.084824e-009
1.083143e-009
1.884111e-009
8.750099e-010
-4.683645e-010
-7.315606e-010
-9.835649e-011
2.424158e-010
-2.133544e-010
-7.105897e-010
-3.482671e-010
7.137412e-010
1.496901e-009
1.451249e-009
1.043651e-009
1.038409e-009
1.538020e-009
1.999484e-009
2.027645e-009
1.798742e-009
1.647789e-009
1.531526e-009
1.116387e-009
2.563140e-010
-8.846943e-010
-2.195311e-009
-3.861954e-009
-6.113657e-009
-8.859803e-009
-1.176907e-008
-1.467387e-008
-1.770801e-008
-2.098476e-008
-2.429049e-008
-2.723577e-008
-2.964575e-008
-3.164552e-008
-3.334482e-008
-3.458249e-008
-3.507766e-008
-3.475584e-008
-3.380048e-008
-3.238982e-008
-3.050262e-008
-2.804196e-008
-2.507272e-008
-2.184054e-008
-1.856974e-008
-1.532968e-008
-1.212812e-008
-9.066786e-009
-6.334139e-009
-4.058760e-009
-2.230694e-009
-7.816532e-010
3.059842e-010
1.008826e-009
1.356945e-009
1.467360e-009
1.468004e-009
1.414231e-009
1.298299e-009
1.120969e-009
9.227821e-010
7.448488e-010
5.881719e-010
4.310794e-010
2.745679e-010
1.480694e-010
6.945550e-011
1.938764e-011
-3.137875e-011
-7.851226e-011
-8.531706e-011
-3.123446e-011
5.167888e-011
1.003579e-010
7.837743e-011
8.682507e-012
-4.923643e-011
-5.152165e-011
-3.511852e-012
4.889547e-011
5.760073e-011
1.029039e-011
-5.837795e-011
-9.168903e-011
-5.639442e-011
2.643678e-011
9.448434e-011
4.125279e-009
2.299942e-009
-1.412774e-010
-1.564940e-009
-1.130563e-009
4.351800e-010
1.392629e-009
6.486684e-010
-1.056650e-009
-1.849095e-009
-7.481294e-010
1.187477e-009
1.979882e-009
9.074367e-010
-7.645471e-010
-1.307401e-009
-4.428377e-010
5.908888e-010
7.117548e-010
2.241227e-010
1.793235e-010
8.962957e-010
1.613996e-009
1.600649e-009
1.133654e-009
1.074940e-009
1.703505e-009
2.367298e-009
2.307433e-009
1.472962e-009
3.115517e-010
-1.029501e-009
-2.974025e-009
-6.005776e-009
-1.017212e-008
-1.522502e-008
-2.105711e-008
-2.776705e-008
-3.533948e-008
-4.348263e-008
-5.185353e-008
-6.029018e-008
-6.869830e-008
-7.680146e-008
-8.416875e-008
-9.049386e-008
-9.571127e-008
-9.978450e-008
-1.024933e-007
-1.035427e-007
-1.028389e-007
-1.005406e-007
-9.682976e-008
-9.174378e-008
-8.529741e-008
-7.769968e-008
-6.934899e-008
-6.062186e-008
-5.175010e-008
-4.292634e-008
-3.444549e-008
-2.666025e-008
-1.981064e-008
-1.395850e-008
-9.093255e-009
-5.238135e-009
-2.411380e-009
-5.198073e-010
6.469534e-010
1.305085e-009
1.591078e-009
1.592826e-009
1.420258e-009
1.198878e-009
9.982260e-010
8.064816e-010
5.947018e-010
3.859551e-010
2.388689e-010
1.733882e-010
1.420000e-010
8.519346e-011
2.075808e-013
-5.948021e-011
-4.732024e-011
2.566974e-011
1.009190e-010
1.210460e-010
6.906764e-011
-2.404185e-011
-9.876581e-011
-1.041691e-010
-3.716511e-011
4.744028e-011
7.842356e-011
3.387684e-011
-3.501668e-011
-5.545948e-011
-1.026224e-011
4.466194e-011
-6.766117e-009
-3.191745e-009
9.033273e-010
2.496764e-009
1.347149e-009
-4.182391e-010
-9.638199e-010
-4.150802e-010
4.005275e-011
-4.623168e-011
-7.534916e-011
3.539789e-010
6.716441e-010
1.727797e-010
-7.911382e-010
-1.057753e-009
-1.125475e-010
1.189590e-009
1.640649e-009
1.118972e-009
6.058025e-010
8.547493e-010
1.518456e-009
1.791628e-009
1.548142e-009
1.389020e-009
1.616407e-009
1.603452e-009
3.944892e-010
-2.341711e-009
-6.282796e-009
-1.128401e-008
-1.787333e-008
-2.678007e-008
-3.820004e-008
-5.174692e-008
-6.701562e-008
-8.391673e-008
-1.024043e-007
-1.220934e-007
-1.423121e-007
-1.624374e-007
-1.820164e-007
-2.005834e-007
-2.175375e-007
-2.322832e-007
-2.443983e-007
-2.535799e-007
-2.594968e-007
-2.618181e-007
-2.603920e-007
-2.553069e-007
-2.467484e-007
-2.348855e-007
-2.199628e-007
-2.024526e-007
-1.830250e-007
-1.623633e-007
-1.410674e-007
-1.197414e-007
-9.907553e-008
-7.975407e-008
-6.227832e-008
-4.692000e-008
-3.382734e-008
-2.310266e-008
-1.474235e-008
-8.551245e-009
-4.184366e-009
-1.284718e-009
4.431940e-010
1.279290e-009
1.536760e-009
1.507844e-009
1.365315e-009
1.153032e-009
8.818823e-010
6.102638e-010
4.183524e-010
3.294441e-010
2.906498e-010
2.350018e-010
1.445556e-010
4.929731e-011
-1.500266e-011
-3.299333e-011
-8.866191e-012
3.545931e-011
6.016935e-011
3.000968e-011
-4.533539e-011
-1.034762e-010
-8.373863e-011
5.512062e-012
8.750023e-011
9.409321e-011
3.411643e-011
-2.544710e-011
-3.916900e-011
-2.553909e-011
-1.410981e-008
-6.666317e-009
1.988401e-009
5.392169e-009
2.636334e-009
-1.756213e-009
-3.072032e-009
-8.577881e-010
1.720917e-009
1.980001e-009
3.200275e-010
-1.060377e-009
-1.008811e-009
-2.793569e-010
4.317592e-011
1.711975e-011
3.810752e-010
1.201332e-009
1.697114e-009
1.397533e-009
8.743445e-010
9.982165e-010
1.785164e-009
2.398335e-009
2.181505e-009
1.214217e-009
-3.209413e-010
-2.959942e-009
-7.788351e-009
-1.557708e-008
-2.646282e-008
-4.054874e-008
-5.847063e-008
-8.107280e-008
-1.086254e-007
-1.406200e-007
-1.763274e-007
-2.152871e-007
-2.571115e-007
-3.009905e-007
-3.456300e-007
-3.896756e-007
-4.320370e-007
-4.717744e-007
-5.078501e-007
-5.391477e-007
-5.647011e-007
-5.838040e-007
-5.959222e-007
-6.006216e-007
-5.976389e-007
-5.869646e-007
-5.688170e-007
-5.435888e-007
-5.118874e-007
-4.746052e-007
-4.328810e-007
-3.879720e-007
-3.411864e-007
-2.939142e-007
-2.476142e-007
-2.036631e-007
-1.631743e-007
-1.269478e-007
-9.552808e-008
-6.922126e-008
-4.802421e-008
-3.159333e-008
-1.935366e-008
-1.066553e-008
-4.898100e-009
-1.400652e-009
4.978306e-010
1.390817e-009
1.689071e-009
1.626459e-009
1.357522e-009
1.024842e-009
7.389625e-010
5.374316e-010
3.996741e-010
2.987062e-010
2.216124e-010
1.508862e-010
6.214914e-011
-4.067230e-011
-1.072339e-010
-8.712319e-011
2.767703e-012
7.848943e-011
7.053796e-011
-3.599067e-012
-6.140589e-011
-4.608364e-011
1.847926e-011
6.434873e-011
5.465592e-011
9.938799e-012
-2.993723e-011
-4.793654e-011
-1.318552e-008
-5.772812e-009
2.671312e-009
5.537950e-009
2.037490e-009
-2.815685e-009
-3.804049e-009
-5.828479e-010
2.819294e-009
2.861414e-009
7.813425e-011
-2.186676e-009
-1.787895e-009
2.448767e-010
1.535188e-009
1.222422e-009
4.437549e-010
4.410871e-010
1.085431e-009
1.500329e-009
1.482280e-009
1.635234e-009
2.210596e-009
2.410465e-009
1.049097e-009
-2.510193e-009
-8.473888e-009
-1.750150e-008
-3.102382e-008
-5.058872e-008
-7.720367e-008
-1.114969e-007
-1.542256e-007
-2.061896e-007
-2.675638e-007
-3.375525e-007
-4.148017e-007
-4.979517e-007
-5.856054e-007
-6.758953e-007
-7.663964e-007
-8.545965e-007
-9.383581e-007
-1.015883e-006
-1.085398e-006
-1.145086e-006
-1.193346e-006
-1.229010e-006
-1.251289e-006
-1.259596e-006
-1.253525e-006
-1.232959e-006
-1.198161e-006
-1.149774e-006
-1.088808e-006
-1.016656e-006
-9.350865e-007
-8.462076e-007
-7.524313e-007
-6.564305e-007
-5.610114e-007
-4.688955e-007
-3.825084e-007
-3.038590e-007
-2.344645e-007
-1.752459e-007
-1.264321e-007
-8.759050e-008
-5.781255e-008
-3.592715e-008
-2.062641e-008
-1.053024e-008
-4.288750e-009
-7.286183e-010
1.056042e-009
1.725981e-009
1.767791e-009
1.524067e-009
1.189820e-009
8.458882e-010
5.374273e-010
3.197229e-010
2.235958e-010
2.035179e-010
1.632391e-010
5.215146e-011
-7.703780e-011
-1.237677e-010
-5.068230e-011
7.234075e-011
1.360686e-010
9.423376e-011
-4.308819e-012
-7.381268e-011
-7.053014e-011
-1.822787e-011
2.820855e-011
3.426809e-011
7.216625e-012
-1.995249e-011
-5.041553e-009
-1.589577e-009
2.133525e-009
2.846422e-009
3.302940e-010
-2.468978e-009
-2.540881e-009
6.797001e-011
2.425538e-009
2.005198e-009
-5.468001e-010
-2.256745e-009
-1.240234e-009
1.289648e-009
2.634341e-009
1.735637e-009
1.048313e-010
-2.447099e-010
9.283657e-010
2.245946e-009
2.607682e-009
2.152679e-009
1.243545e-009
-8.821482e-010
-6.012304e-009
-1.584219e-008
-3.155245e-008
-5.456500e-008
-8.722448e-008
-1.323532e-007
-1.922367e-007
-2.682260e-007
-3.610740e-007
-4.711037e-007
-5.977550e-007
-7.391367e-007
-8.922610e-007
-1.053687e-006
-1.219824e-006
-1.386772e-006
-1.550310e-006
-1.706353e-006
-1.851472e-006
-1.982935e-006
-2.098377e-006
-2.195624e-006
-2.272885e-006
-2.328955e-006
-2.363114e-006
-2.374851e-006
-2.363743e-006
-2.329570e-006
-2.272485e-006
-2.193055e-006
-2.092253e-006
-1.971492e-006
-1.832752e-006
-1.678717e-006
-1.512846e-006
-1.339307e-006
-1.162794e-006
-9.882508e-007
-8.205753e-007
-6.643061e-007
-5.232502e-007
-4.001087e-007
-2.962422e-007
-2.116873e-007
-1.453757e-007
-9.541533e-008
-5.936378e-008
-3.452120e-008
-1.825038e-008
-8.230729e-009
-2.554770e-009
2.967355e-010
1.482493e-009
1.788283e-009
1.651523e-009
1.286606e-009
8.444193e-010
4.780205e-010
2.870293e-010
2.492420e-010
2.492375e-010
1.881309e-010
6.486180e-011
-4.280855e-011
-6.388675e-011
6.687757e-014
8.009803e-011
1.004665e-010
4.073472e-011
-4.985017e-011
-9.727660e-011
-6.923281e-011
-1.775537e-012
4.106813e-011
3.329033e-011
7.216268e-012
5.156503e-009
2.777373e-009
-1.862306e-011
-1.364694e-009
-1.110694e-009
-3.175011e-010
2.453957e-010
5.467727e-010
5.795010e-010
7.288129e-011
-7.950609e-010
-1.047561e-009
4.607038e-011
1.752983e-009
2.410928e-009
1.397292e-009
4.762588e-011
1.658657e-010
1.876147e-009
3.449091e-009
3.151665e-009
6.007624e-010
-4.069984e-009
-1.199359e-008
-2.603387e-008
-4.966509e-008
-8.604318e-008
-1.384088e-007
-2.108526e-007
-3.079462e-007