# vtk DataFile Version 3.0
vtk output
ASCII
DATASET STRUCTURED_POINTS
DIMENSIONS 100 100 1
SPACING 1 1 1
ORIGIN 0 0 0
POINT_DATA 10000
SCALARS SFBox_profile double
LOOKUP_TABLE default 
0.000000e+000
0.000000e+000
0.000000e+000
0.000000e+000
0.000000e+000
0.000000e+000
0.000000e+000
0.000000e+000
0.000000e+000
0.000000e+000
0.000000e+000
0.000000e+000
0.000000e+000
0.000000e+000
0.000000e+000
0.000000e+000
0.000000e+000
0.000000e+000
0.000000e+000
0.000000e+000
0.000000e+000
0.000000e+000
0.000000e+000
0.000000e+000
0.000000e+000
0.000000e+000
0.000000e+000
0.000000e+000
0.000000e+000
0.000000e+000
0.000000e+000
0.000000e+000
0.000000e+000
0.000000e+000
0.000000e+000
0.000000e+000
0.000000e+000
0.000000e+000
0.000000e+000
0.000000e+000
0.000000e+000
0.000000e+000
0.000000e+000
0.000000e+000
0.000000e+000
0.000000e+000
0.000000e+000
0.000000e+000
0.000000e+000
0.000000e+000
0.000000e+000
0.000000e+000
0.000000e+000
0.000000e+000
0.000000e+000
0.000000e+000
0.000000e+000
0.000000e+000
0.000000e+000
0.000000e+000
0.000000e+000
0.000000e+000
0.000000e+000
0.000000e+000
0.000000e+000
0.000000e+000
0.000000e+000
0.000000e+000
0.000000e+000
0.000000e+000
0.000000e+000
0.000000e+000
0.000000e+000
0.000000e+000
0.000000e+000
0.000000e+000
0.000000e+000
0.000000e+000
0.000000e+000
0.000000e+000
0.000000e+000
0.000000e+000
0.000000e+000
0.000000e+000
0.000000e+000
0.000000e+000
0.000000e+000
0.000000e+000
0.000000e+000
0.000000e+000
0.000000e+000
0.000000e+000
0.000000e+000
0.000000e+000
0.000000e+000
0.000000e+000
0.000000e+000
0.000000e+000
0.000000e+000
0.000000e+000
2.384825e-010
3.657856e-011
-2.334173e-010
-3.876616e-010
-2.888930e-010
5.831741e-011
4.763248e-010
6.955136e-010
5.235971e-010
-3.634096e-012
-6.111504e-010
-9.457261e-010
-8.074992e-010
-2.821465e-010
3.286140e-010
7.226133e-010
7.874050e-010
6.225299e-010
4.007226e-010
2.093879e-010
1.259413e-011
-2.542641e-010
-5.716252e-010
-8.237551e-010
-8.941789e-010
-7.660057e-010
-5.274420e-010
-2.854227e-010
-8.028374e-011
1.182755e-010
3.453652e-010
5.847640e-010
7.794888e-010
8.879831e-010
9.201258e-010
9.181619e-010
9.107665e-010
8.919237e-010
8.412174e-010
7.553500e-010
6.545360e-010
5.616840e-010
4.824387e-010
4.076795e-010
3.307622e-010
2.568826e-010
1.958537e-010
1.508751e-010
1.179522e-010
9.426900e-011
8.244183e-011
8.526984e-011
1.000203e-010
1.218615e-010
1.520558e-010
1.980212e-010
2.626347e-010
3.364683e-010
4.056688e-010
4.680485e-010
5.359970e-010
6.183997e-010
7.014530e-010
7.545419e-010
7.591792e-010
7.277452e-010
6.857067e-010
6.340856e-010
5.381693e-010
3.634316e-010
1.232583e-010
-1.181235e-010
-2.982330e-010
-4.095505e-010
-4.910369e-010
-5.628030e-010
-5.784020e-010
-4.583679e-010
-1.810305e-010
1.638204e-010
4.240271e-010
4.985702e-010
4.074980e-010
2.518930e-010
1.093321e-010
-2.487816e-011
-1.915791e-010
-3.719516e-010
-4.551385e-010
-3.217762e-010
2.477288e-011
4.085437e-010
5.797299e-010
3.985184e-010
-4.202924e-011
-4.605193e-010
-5.765655e-010
-3.089592e-010
1.625892e-010
5.184947e-010
-8.206370e-011
2.986175e-013
8.591413e-011
9.654411e-011
2.117837e-011
-7.807838e-011
-1.220170e-010
-8.104864e-011
5.419645e-012
7.076548e-011
8.220403e-011
6.302341e-011
5.689799e-011
7.285195e-011
6.956802e-011
-1.406010e-012
-1.353395e-010
-2.601618e-010
-2.888535e-010
-1.922150e-010
-2.315857e-011
1.303192e-010
2.171082e-010
2.515257e-010
2.768749e-010
3.082914e-010
3.155538e-010
2.594961e-010
1.382974e-010
-6.699566e-012
-1.288901e-010
-2.149811e-010
-2.850264e-010
-3.597050e-010
-4.341595e-010
-4.850761e-010
-4.980990e-010
-4.826289e-010
-4.597180e-010
-4.403093e-010
-4.187662e-010
-3.855873e-010
-3.414221e-010
-2.965167e-010
-2.593047e-010
-2.294710e-010
-2.024202e-010
-1.771241e-010
-1.569936e-010
-1.444725e-010
-1.382201e-010
-1.366723e-010
-1.417530e-010
-1.562626e-010
-1.782918e-010
-2.016032e-010
-2.232040e-010
-2.481022e-010
-2.829129e-010
-3.246027e-010
-3.594367e-010
-3.762293e-010
-3.788759e-010
-3.809082e-010
-3.858029e-010
-3.767714e-010
-3.317694e-010
-2.493361e-010
-1.544508e-010
-7.419504e-011
-9.525841e-012
6.223349e-011
1.534940e-010
2.393771e-010
2.724980e-010
2.285094e-010
1.338701e-010
4.337406e-011
-1.046069e-011
-4.176855e-011
-8.301179e-011
-1.361442e-010
-1.597330e-010
-1.103230e-010
3.690512e-012
1.143272e-010
1.459932e-010
8.034824e-011
-2.682359e-011
-9.241097e-011
-7.366236e-011
2.008862e-012
6.643711e-011
6.885406e-011
1.289386e-011
-5.309571e-011
-7.767927e-011
-4.417099e-011
2.120510e-011
7.127835e-011
-3.781511e-010
-5.097732e-011
3.537537e-010
5.356162e-010
3.367067e-010
-1.511214e-010
-6.337059e-010
-7.950761e-010
-5.009517e-010
1.089842e-010
7.054149e-010
9.740313e-010
7.991010e-010
3.046528e-010
-2.572092e-010
-6.705272e-010
-8.503849e-010
-8.235922e-010
-6.490485e-010
-3.645430e-010
3.695567e-012
4.042381e-010
7.527226e-010
9.677746e-010
1.014372e-009
9.127372e-010
7.096224e-010
4.449068e-010
1.428595e-010
-1.748672e-010
-4.788363e-010
-7.383521e-010
-9.355808e-010
-1.069961e-009
-1.149338e-009
-1.179679e-009
-1.164074e-009
-1.108520e-009
-1.024536e-009
-9.247791e-010
-8.174451e-010
-7.060065e-010
-5.933919e-010
-4.846740e-010
-3.854796e-010
-2.991405e-010
-2.263937e-010
-1.672946e-010
-1.224396e-010
-9.249045e-011
-7.769635e-011
-7.843147e-011
-9.543113e-011
-1.286430e-010
-1.762320e-010
-2.358348e-010
-3.069082e-010
-3.905306e-010
-4.857971e-010
-5.869911e-010
-6.856951e-010
-7.757170e-010
-8.542031e-010
-9.166479e-010
-9.520529e-010
-9.456483e-010
-8.874532e-010
-7.768986e-010
-6.183058e-010
-4.145218e-010
-1.697446e-010
9.933486e-011
3.581815e-010
5.649916e-010
6.886638e-010
7.156168e-010
6.406510e-010
4.593229e-010
1.803373e-010
-1.498153e-010
-4.416852e-010
-5.976772e-010
-5.672012e-010
-3.763573e-010
-1.064676e-010
1.561327e-010
3.522828e-010
4.440668e-010
3.983186e-010
1.999131e-010
-1.052757e-010
-3.884373e-010
-4.874226e-010
-3.157202e-010
5.057039e-011
3.931079e-010
4.870106e-010
2.616265e-010
-1.371164e-010
-4.395750e-010
-2.892255e-010
-7.004261e-011
2.290491e-010
4.127710e-010
3.302162e-010
-1.890024e-011
-4.467407e-010
-6.686069e-010
-4.924733e-010
2.279466e-011
5.767680e-010
8.227835e-010
6.121582e-010
9.608484e-011
-3.972317e-010
-6.072686e-010
-5.067738e-010
-2.657188e-010
-7.201541e-011
1.761799e-011
7.478430e-011
1.787211e-010
3.155927e-010
3.939945e-010
3.439582e-010
1.880626e-010
1.637522e-011
-9.756272e-011
-1.496794e-010
-1.827641e-010
-2.264193e-010
-2.672233e-010
-2.722952e-010
-2.300578e-010
-1.618282e-010
-9.783666e-011
-4.960364e-011
-7.478364e-012
4.041151e-011
9.280826e-011
1.386356e-010
1.705998e-010
1.918231e-010
2.099779e-010
2.282324e-010
2.435612e-010
2.524438e-010
2.558021e-010
2.576327e-010
2.600862e-010
2.614746e-010
2.593194e-010
2.541172e-010
2.487292e-010
2.440042e-010
2.364417e-010
2.216598e-010
1.998917e-010
1.760056e-010
1.525941e-010
1.243802e-010
8.269792e-011
2.689636e-011
-3.135797e-011
-7.892122e-011
-1.161287e-010
-1.559036e-010
-2.036471e-010
-2.404860e-010
-2.344534e-010
-1.732782e-010
-8.221642e-011
-1.211850e-012
5.745196e-011
1.204251e-010
2.126116e-010
3.062916e-010
3.244456e-010
2.097100e-010
-6.536902e-012
-2.127644e-010
-3.055609e-010
-2.726702e-010
-1.856921e-010
-1.113266e-010
-3.962067e-011
8.753004e-011
2.744705e-010
4.127527e-010
3.496253e-010
3.945750e-011
-3.652309e-010
-5.902121e-010
-4.441127e-010
1.230373e-011
4.815764e-010
6.342664e-010
3.526248e-010
-1.739569e-010
-5.785701e-010
1.886571e-010
-1.453249e-011
-2.178604e-010
-2.277139e-010
-3.019240e-011
2.079487e-010
2.963489e-010
1.849563e-010
-1.279280e-011
-1.460419e-010
-1.691665e-010
-1.598592e-010
-2.026135e-010
-2.674606e-010
-2.203761e-010
3.477159e-011
4.249758e-010
7.293762e-010
7.470040e-010
4.577912e-010
2.791032e-011
-3.379043e-010
-5.506135e-010
-6.588287e-010
-7.420033e-010
-8.024160e-010
-7.657483e-010
-5.734138e-010
-2.565679e-010
8.539867e-011
3.698785e-010
5.861905e-010
7.719116e-010
9.500209e-010
1.099359e-009
1.182346e-009
1.188864e-009
1.145781e-009
1.087740e-009
1.027052e-009
9.540242e-010
8.601550e-010
7.538079e-010
6.528406e-010
5.674524e-010
4.946299e-010
4.280363e-010
3.686787e-010
3.236304e-010
2.967574e-010
2.847399e-010
2.832146e-010
2.938902e-010
3.223187e-010
3.689369e-010
4.259623e-010
4.858301e-010
5.508237e-010
6.295842e-010
7.219939e-010
8.111223e-010
8.755701e-010
9.101438e-010
9.282418e-010
9.383115e-010
9.208817e-010
8.386599e-010
6.755441e-010
4.610267e-010
2.462054e-010
5.353222e-011
-1.397601e-010
-3.573583e-010
-5.653152e-010
-6.736700e-010
-6.117995e-010
-4.033861e-010
-1.558526e-010
3.242247e-011
1.502385e-010
2.512797e-010
3.569742e-010
3.995853e-010
2.827232e-010
5.258341e-012
-2.875755e-010
-3.994928e-010
-2.498294e-010
4.488933e-011
2.584225e-010
2.387155e-010
2.729226e-011
-1.858108e-010
-2.249849e-010
-6.789324e-011
1.489153e-010
2.488621e-010
1.544658e-010
-5.969638e-011
-2.304762e-010
6.371397e-010
9.195081e-011
-5.462385e-010
-7.786215e-010
-4.215995e-010
2.769821e-010
8.349508e-010
8.854474e-010
4.168436e-010
-2.594938e-010
-7.580368e-010
-8.716966e-010
-6.438645e-010
-2.511681e-010
1.560603e-010
5.099419e-010
7.686823e-010
8.580894e-010
7.027768e-010
3.160568e-010
-1.640780e-010
-5.528014e-010
-7.442194e-010
-7.635973e-010
-7.016878e-010
-6.092862e-010
-4.628795e-010
-2.248545e-010
8.239618e-011
3.753275e-010
5.784461e-010
6.836329e-010
7.378628e-010
7.815579e-010
8.093999e-010
7.904811e-010
7.147488e-010
6.095504e-010
5.122827e-010
4.359900e-010
3.664735e-010
2.881196e-010
2.045140e-010
1.322087e-010
8.038306e-011
4.272654e-011
8.623394e-012
-2.339213e-011
-4.661320e-011
-5.757629e-011
-6.112146e-011
-6.268648e-011
-5.956446e-011
-4.420887e-011
-1.555313e-011
1.801169e-011
5.011184e-011
8.784177e-011
1.457303e-010
2.265553e-010
3.132958e-010
3.860788e-010
4.458314e-010
5.129493e-010
5.969303e-010
6.718809e-010
6.923731e-010
6.375253e-010
5.321831e-010
4.154974e-010
2.907536e-010
1.197882e-010
-1.224190e-010
-3.921442e-010
-5.902131e-010
-6.397250e-010
-5.470993e-010
-3.797556e-010
-1.884188e-010
3.228167e-011
2.956484e-010
5.453024e-010
6.512331e-010
5.072469e-010
1.418238e-010
-2.721617e-010
-5.285469e-010
-5.237546e-010
-3.046765e-010
-7.321953e-012
2.386601e-010
3.589173e-010
3.285680e-010
1.603252e-010
-8.420935e-011
-2.896969e-010
-3.334829e-010
-1.728021e-010
1.013441e-010
3.095300e-010
5.642386e-010
1.474684e-010
-3.783841e-010
-6.423121e-010
-4.505782e-010
7.884445e-011
5.859546e-010
7.147783e-010
3.710765e-010
-2.045227e-010
-6.152838e-010
-6.041024e-010
-2.301697e-010
2.090082e-010
4.270336e-010
3.488565e-010
1.086636e-010
-1.109713e-010
-2.250833e-010
-2.559521e-010
-2.425592e-010
-1.757151e-010
-2.575656e-011
1.904618e-010
3.962432e-010
5.140052e-010
5.265242e-010
4.725294e-010
3.898902e-010
2.773401e-010
1.148917e-010
-9.079985e-011
-2.956193e-010
-4.537398e-010
-5.551626e-010
-6.222186e-010
-6.741950e-010
-7.045395e-010
-6.943840e-010
-6.406310e-010
-5.630752e-010
-4.847520e-010
-4.119440e-010
-3.366647e-010
-2.544552e-010
-1.735542e-010
-1.060979e-010
-5.562236e-011
-1.738148e-011
1.107488e-011
2.494785e-011
1.934877e-011
-2.707290e-012
-3.392539e-011
-7.338879e-011
-1.282833e-010
-2.020514e-010
-2.842295e-010
-3.576975e-010
-4.164912e-010
-4.705448e-010
-5.278298e-010
-5.746874e-010
-5.818967e-010
-5.337328e-010
-4.456350e-010
-3.460703e-010
-2.425144e-010
-1.152198e-010
4.895367e-011
2.222429e-010
3.469391e-010
3.845343e-010
3.471075e-010
2.738282e-010
1.829539e-010
6.199336e-011
-8.903788e-011
-2.181196e-010
-2.462441e-010
-1.419618e-010
3.556915e-011
1.783826e-010
2.160207e-010
1.567550e-010
4.936830e-011
-7.518348e-011
-2.054745e-010
-2.997243e-010
-2.694100e-010
-5.342732e-011
2.760963e-010
5.055345e-010
4.251919e-010
2.516266e-011
-4.438127e-010
-6.336754e-010
-3.748560e-010
1.663863e-010
5.968385e-010
-1.070017e-010
6.244772e-011
2.072920e-010
1.637099e-010
-4.072437e-011
-2.285570e-010
-2.576149e-010
-1.490449e-010
-3.125736e-011
2.314838e-011
7.645719e-011
2.280264e-010
4.500633e-010
5.528660e-010
3.439651e-010
-1.664088e-010
-7.252229e-010
-1.015965e-009
-8.948869e-010
-4.709781e-010
2.223801e-011
4.175308e-010
6.891434e-010
8.789820e-010
9.914647e-010
9.767811e-010
7.997504e-010
4.970475e-010
1.561370e-010
-1.516463e-010
-4.064951e-010
-6.163465e-010
-7.769623e-010
-8.662176e-010
-8.709144e-010
-8.053263e-010
-6.982695e-010
-5.680839e-010
-4.164241e-010
-2.435664e-010
-6.136123e-011
1.124981e-010
2.687022e-010
4.096286e-010
5.392366e-010
6.544579e-010
7.484690e-010
8.189732e-010
8.691893e-010
9.012927e-010
9.128903e-010
9.015532e-010
8.696955e-010
8.213808e-010
7.552800e-010
6.651396e-010
5.490455e-010
4.149407e-010
2.731276e-010
1.246776e-010
-3.724180e-011
-2.120511e-010
-3.818466e-010
-5.220089e-010
-6.206229e-010
-6.809581e-010
-7.022423e-010
-6.650685e-010
-5.456809e-010
-3.458699e-010
-1.005382e-010
1.495378e-010
3.852453e-010
5.979846e-010
7.524991e-010
7.801141e-010
6.302257e-010
3.324232e-010
-5.883741e-012
-2.752628e-010
-4.347945e-010
-5.004108e-010
-4.737027e-010
-3.135411e-010
-5.889493e-012
3.435319e-010
5.268776e-010
3.924004e-010
7.511808e-012
-3.509842e-010
-4.074832e-010
-1.250747e-010
2.506636e-010
3.951097e-010
1.826192e-010
-2.049334e-010
-4.340725e-010
-3.041002e-010
8.352842e-011
4.113723e-010
-8.717162e-010
-1.215661e-010
7.175444e-010
9.652107e-010
4.552529e-010
-3.858331e-010
-9.309770e-010
-8.482024e-010
-2.915989e-010
3.143769e-010
6.442529e-010
6.573024e-010
4.931749e-010
2.604115e-010
-3.837868e-011
-3.994385e-010
-7.019309e-010
-7.546747e-010
-4.734297e-010
7.562922e-012
4.238855e-010
5.890642e-010
5.182083e-010
3.604111e-010
2.338118e-010
1.392136e-010
1.815729e-011
-1.393013e-010
-2.652596e-010
-2.821434e-010
-1.775341e-010
-3.732954e-012
1.833563e-010
3.696656e-010
5.704204e-010
7.898730e-010
1.005991e-009
1.191370e-009
1.337825e-009
1.455993e-009
1.556883e-009
1.640683e-009
1.702579e-009
1.742969e-009
1.768434e-009
1.785219e-009
1.795332e-009
1.798648e-009
1.795855e-009
1.788373e-009
1.777339e-009
1.763997e-009
1.749683e-009
1.733678e-009
1.711965e-009
1.680430e-009
1.639151e-009
1.590657e-009
1.532666e-009
1.455549e-009
1.350732e-009
1.220458e-009
1.074261e-009
9.144410e-010
7.312877e-010
5.198318e-010
2.995978e-010
1.079577e-010
-3.159228e-011
-1.275784e-010
-1.964825e-010
-2.227594e-010
-1.603683e-010
1.041890e-011
2.320607e-010
3.949069e-010
4.255880e-010
3.436917e-010
2.191275e-010
8.036082e-011
-1.083965e-010
-3.603612e-010
-5.725303e-010
-5.626142e-010
-2.381200e-010
2.655594e-010
6.414911e-010
6.412420e-010
2.771750e-010
-1.886614e-010
-4.559767e-010
-4.058885e-010
-1.491901e-010
1.044225e-010
2.143417e-010
1.766631e-010
7.327881e-011
-1.676223e-011
-6.409775e-011
-7.925286e-011
-1.023192e-009
-2.339831e-010
6.830726e-010
1.021892e-009
5.670806e-010
-2.775410e-010
-8.440600e-010
-7.370170e-010
-1.160039e-010
4.862248e-010
6.253165e-010
2.796553e-010
-2.049292e-010
-4.569433e-010
-3.678583e-010
-9.139703e-011
1.734591e-010
3.549593e-010
4.814378e-010
5.467636e-010
4.642712e-010
1.689596e-010
-2.654852e-010
-6.477828e-010
-8.162582e-010
-7.549984e-010
-5.632164e-010
-3.291886e-010
-5.395331e-011
3.061539e-010
7.494940e-010
1.203133e-009
1.582537e-009
1.859379e-009
2.063570e-009
2.230418e-009
2.360694e-009
2.432425e-009
2.437941e-009
2.398281e-009
2.343454e-009
2.287569e-009
2.226469e-009
2.154130e-009
2.075112e-009
2.001047e-009
1.939627e-009
1.889919e-009
1.847279e-009
1.810555e-009
1.783939e-009
1.772526e-009
1.776679e-009
1.791265e-009
1.811233e-009
1.837678e-009
1.876212e-009
1.927318e-009
1.979903e-009
2.018485e-009
2.037752e-009
2.044907e-009
2.042081e-009
2.008824e-009
1.911555e-009
1.735927e-009
1.503721e-009
1.247517e-009
9.697749e-010
6.419439e-010
2.564840e-010
-1.268320e-010
-4.062551e-010
-5.205299e-010
-4.976578e-010
-4.094228e-010
-2.844191e-010
-9.105355e-011
1.787024e-010
4.272908e-010
4.926099e-010
2.974574e-010
-4.681241e-011
-3.082124e-010
-3.219811e-010
-1.173216e-010
1.324041e-010
2.674654e-010
2.446041e-010
1.114265e-010
-7.069847e-011
-2.479648e-010
-3.418312e-010
-2.582052e-010
1.988087e-011
3.499331e-010
4.889678e-010
2.896702e-010
-1.397255e-010
-4.879195e-010
-2.957830e-010
-1.371114e-010
7.791577e-011
2.085939e-010
1.674488e-010
7.949643e-012
-9.351774e-011
5.382971e-012
2.431008e-010
3.623825e-010
1.382240e-010
-3.714545e-010
-8.143198e-010
-8.193219e-010
-3.169172e-010
3.972815e-010
9.093625e-010
1.001103e-009
7.485328e-010
3.649631e-010
-3.743945e-012
-3.273785e-010
-5.922336e-010
-7.229200e-010
-6.307853e-010
-3.171386e-010
1.074852e-010
5.162367e-010
8.629060e-010
1.178643e-009
1.489560e-009
1.762605e-009
1.938243e-009
1.998922e-009
1.987654e-009
1.960599e-009
1.935342e-009
1.891495e-009
1.811912e-009
1.709942e-009
1.614955e-009
1.540984e-009
1.477347e-009
1.407577e-009
1.330161e-009
1.258061e-009
1.202171e-009
1.160418e-009
1.123671e-009
1.088965e-009
1.063731e-009
1.056826e-009
1.067725e-009
1.087199e-009
1.109188e-009
1.139362e-009
1.188275e-009
1.255664e-009
1.326053e-009
1.384700e-009
1.436234e-009
1.499824e-009
1.581225e-009
1.655054e-009
1.684519e-009
1.659694e-009
1.605248e-009
1.540705e-009
1.439288e-009
1.243648e-009
9.310916e-010
5.531590e-010
1.964007e-010
-9.298398e-011
-3.270067e-010
-5.111605e-010
-5.831890e-010
-4.509624e-010
-1.064392e-010
3.139778e-010
6.074427e-010
6.519233e-010
4.745984e-010
1.873355e-010
-1.132910e-010
-3.637198e-010
-4.834459e-010
-3.784325e-010
-4.777879e-011
3.255683e-010
4.598223e-010
2.175375e-010
-2.220295e-010
-4.746674e-010
-2.904890e-010
1.914280e-010
5.405999e-010
4.224323e-010
-8.168087e-011
-5.335308e-010
8.197096e-010
1.085591e-010
-6.580756e-010
-8.499300e-010
-3.806879e-010
3.088474e-010
7.046029e-010
6.324463e-010
2.797527e-010
-8.658618e-011
-3.500057e-010
-5.150181e-010
-5.505066e-010
-3.615231e-010
6.064499e-011
5.181569e-010
7.110467e-010
4.950708e-010
2.549780e-011
-3.706540e-010
-4.635666e-010
-2.644211e-010
6.591046e-011
4.019945e-010
7.284837e-010
1.064968e-009
1.374710e-009
1.577057e-009
1.632745e-009
1.584467e-009
1.505132e-009
1.424476e-009
1.321077e-009
1.176060e-009
1.011985e-009
8.706388e-010
7.649481e-010
6.671722e-010
5.436156e-010
3.895837e-010
2.251598e-010
6.448665e-011
-1.002670e-010
-2.836072e-010
-4.833186e-010
-6.782266e-010
-8.471720e-010
-9.844234e-010
-1.094408e-009
-1.175336e-009
-1.213622e-009
-1.196059e-009
-1.124195e-009
-1.012579e-009
-8.727321e-010
-7.034104e-010
-5.009383e-010
-2.773836e-010
-6.123233e-011
1.250660e-010
2.850775e-010
4.387021e-010
5.916798e-010
7.234964e-010
8.138000e-010
8.763536e-010
9.525950e-010
1.064237e-009
1.180983e-009
1.247756e-009
1.241430e-009
1.184302e-009
1.094344e-009
9.400361e-010
6.719433e-010
3.056825e-010
-4.758045e-011
-2.558665e-010
-2.713038e-010
-1.485700e-010
3.324482e-011
2.336385e-010
4.147753e-010
4.739085e-010
2.831458e-010
-1.523679e-010
-5.942895e-010
-7.025194e-010
-3.342241e-010
2.750560e-010
6.664315e-010
5.439809e-010
3.799226e-011
-4.117833e-010
-4.498014e-010
-1.082526e-010
2.546575e-010
3.066814e-010
4.356029e-011
-2.349838e-010
1.432018e-009
2.742691e-010
-9.839426e-010
-1.312589e-009
-5.653208e-010
5.036097e-010
9.880496e-010
6.077290e-010
-1.622332e-010
-6.258998e-010
-4.869324e-010
4.874397e-012
4.061455e-010
4.924833e-010
3.397907e-010
1.068419e-010
-1.528512e-010
-4.451289e-010
-6.812901e-010
-6.660749e-010
-2.731236e-010
3.981744e-010
1.078059e-009
1.541292e-009
1.754915e-009
1.826337e-009
1.846767e-009
1.813835e-009
1.689629e-009
1.487250e-009
1.271649e-009
1.087363e-009
9.123858e-010
6.891163e-010
3.827390e-010
-4.967349e-012
-4.700220e-010
-1.032947e-009
-1.722206e-009
-2.539825e-009
-3.454015e-009
-4.424206e-009
-5.423734e-009
-6.434237e-009
-7.425144e-009
-8.348509e-009
-9.156179e-009
-9.817129e-009
-1.031466e-008
-1.063048e-008
-1.073905e-008
-1.062081e-008
-1.027783e-008
-9.731718e-009
-9.006977e-009
-8.122393e-009
-7.103087e-009
-5.997042e-009
-4.870642e-009
-3.782902e-009
-2.767422e-009
-1.843763e-009
-1.041128e-009
-3.974502e-010
7.218233e-011
3.986554e-010
6.379787e-010
8.263301e-010
9.665364e-010
1.062716e-009
1.151120e-009
1.272408e-009
1.409488e-009
1.474879e-009
1.381662e-009
1.124374e-009
7.738036e-010
3.962641e-010
1.057621e-011
-3.521648e-010
-5.740032e-010
-5.020772e-010
-1.218583e-010
3.386493e-010
5.407831e-010
3.235359e-010
-1.317480e-010
-4.462283e-010
-3.745819e-010
-7.035263e-012
3.386929e-010
4.078169e-010
1.989056e-010
-9.106098e-011
-2.636517e-010
-2.569582e-010
-1.345792e-010
7.957201e-012
1.121433e-010
1.628906e-010
1.000233e-009
1.885623e-010
-6.663725e-010
-8.262121e-010
-2.289003e-010
4.978790e-010
6.431477e-010
7.329395e-011
-6.581798e-010
-8.395198e-010
-2.595412e-010
6.185392e-010
1.100069e-009
8.640783e-010
1.672439e-010
-4.727456e-010
-7.302823e-010
-6.257320e-010
-3.324552e-010
5.613880e-011
5.401446e-010
1.069517e-009
1.486328e-009
1.647880e-009
1.575004e-009
1.436415e-009
1.383503e-009
1.421423e-009
1.441308e-009
1.344099e-009
1.101919e-009
7.074575e-010
1.017533e-010
-8.224529e-010
-2.153153e-009
-3.912356e-009
-6.074062e-009
-8.606971e-009
-1.148412e-008
-1.465722e-008
-1.803912e-008
-2.151989e-008
-2.499488e-008
-2.837214e-008
-3.155871e-008
-3.445207e-008
-3.695172e-008
-3.897600e-008
-4.046362e-008
-4.136210e-008
-4.162345e-008
-4.121652e-008
-4.014156e-008
-3.842906e-008
-3.612654e-008
-3.329392e-008
-3.001572e-008
-2.641201e-008
-2.262752e-008
-1.880547e-008
-1.507387e-008
-1.155519e-008
-8.375110e-009
-5.642673e-009
-3.414211e-009
-1.683540e-009
-4.136290e-010
4.306287e-010
8.944364e-010
1.072703e-009
1.109373e-009
1.129870e-009
1.172198e-009
1.200090e-009
1.184331e-009
1.144980e-009
1.093323e-009
9.565252e-010
6.189599e-010
7.748479e-011
-4.635512e-010
-7.076657e-010
-5.158189e-010
-4.291771e-011
3.854983e-010
5.330635e-010
3.956801e-010
1.263013e-010
-1.236064e-010
-2.703388e-010
-2.665047e-010
-9.653794e-011
1.588706e-010
3.084095e-010
1.897216e-010
-1.403617e-010
-3.976724e-010
-3.182920e-010
6.394983e-011
4.162203e-010
-1.944780e-010
-7.277837e-011
9.167056e-011
2.238502e-010
2.780398e-010
2.036487e-010
-4.319568e-011
-3.964416e-010
-6.204495e-010
-4.558230e-010
1.012191e-010
6.885106e-010
8.343192e-010
3.887432e-010
-3.004503e-010
-6.736736e-010
-4.402590e-010
2.124499e-010
8.522963e-010
1.195577e-009
1.265889e-009
1.234399e-009
1.196916e-009
1.138057e-009
1.052330e-009
1.008904e-009
1.059159e-009
1.108975e-009
9.204737e-010
2.406269e-010
-1.092450e-009
-3.165899e-009
-6.073292e-009
-9.939629e-009
-1.486004e-008
-2.083213e-008
-2.775742e-008
-3.549514e-008
-4.389859e-008
-5.280367e-008
-6.200532e-008
-7.126350e-008
-8.033458e-008
-8.899264e-008
-9.702543e-008
-1.042240e-007
-1.103870e-007
-1.153366e-007
-1.189255e-007
-1.210339e-007
-1.215685e-007
-1.204731e-007
-1.177412e-007
-1.134173e-007
-1.075916e-007
-1.004017e-007
-9.204412e-008
-8.277557e-008
-7.289434e-008
-6.271376e-008
-5.255138e-008
-4.273110e-008
-3.356913e-008
-2.533084e-008
-1.818958e-008
-1.222869e-008
-7.478607e-009
-3.933341e-009
-1.516757e-009
-4.662029e-011
7.328618e-010
1.058133e-009
1.087479e-009
9.392490e-010
7.624797e-010
7.180601e-010
8.589151e-010
1.051191e-009
1.067202e-009
7.899006e-010
3.238141e-010
-1.006789e-010
-3.156421e-010
-2.983918e-010
-1.080122e-010
1.833390e-010
4.617956e-010
5.394365e-010
2.681167e-010
-2.554750e-010
-6.564208e-010
-5.683624e-010
-1.423697e-011
5.394906e-010
5.907778e-010
1.009372e-010
-4.427766e-010
-5.049489e-010
-4.576412e-011
4.399974e-010
-1.286150e-009
-2.504301e-010
8.378488e-010
1.084480e-009
4.535077e-010
-3.569331e-010
-6.699371e-010
-3.946642e-010
7.355483e-011
3.423928e-010
3.228508e-010
1.314608e-010
-1.258390e-010
-3.792067e-010
-4.828780e-010
-2.349255e-010
4.093057e-010
1.188748e-009
1.692496e-009
1.705135e-009
1.383824e-009
1.084894e-009
1.036700e-009
1.188077e-009
1.321681e-009
1.228200e-009
7.301408e-010
-4.214120e-010
-2.597095e-009
-6.201010e-009
-1.154442e-008
-1.881547e-008
-2.814254e-008
-3.963740e-008
-5.335117e-008
-6.919863e-008
-8.694256e-008
-1.062494e-007
-1.267482e-007
-1.480402e-007
-1.696790e-007
-1.911710e-007
-2.120108e-007
-2.317164e-007
-2.498394e-007
-2.659561e-007
-2.796671e-007
-2.906108e-007
-2.984781e-007
-3.030200e-007
-3.040518e-007
-3.014632e-007
-2.952306e-007
-2.854239e-007
-2.722135e-007
-2.558818e-007
-2.368332e-007
-2.155860e-007
-1.927435e-007
-1.689644e-007
-1.449471e-007
-1.214120e-007
-9.905241e-008
-7.846001e-008
-6.007038e-008
-4.416617e-008
-3.090872e-008
-2.033787e-008
-1.233224e-008
-6.598442e-009
-2.744928e-009
-3.932985e-010
7.815283e-010
1.111061e-009
9.870408e-010
7.951392e-010
7.648096e-010
8.960904e-010
1.051106e-009
1.108858e-009
1.022520e-009
7.700162e-010
3.406801e-010
-1.726342e-010
-5.175614e-010
-4.373231e-010
4.366573e-011
5.298141e-010
5.571951e-010
5.154597e-011
-5.432373e-010
-6.629153e-010
-1.818686e-010
4.457464e-010
6.316887e-010
2.383256e-010
-3.014025e-010
-4.477413e-010
-1.092174e-010
2.906694e-010
-1.537869e-009
-1.672227e-010
1.166033e-009
1.235407e-009
1.431525e-010
-9.217232e-010
-9.393701e-010
-4.217112e-012
9.102274e-010
9.783904e-010
2.439408e-010
-5.851824e-010
-8.822387e-010
-5.704628e-010
2.889911e-011
6.124628e-010
1.075941e-009
1.394032e-009
1.506068e-009
1.400845e-009
1.239188e-009
1.266293e-009
1.543209e-009
1.776468e-009
1.419681e-009
-9.051112e-011
-3.224397e-009
-8.443817e-009
-1.631244e-008
-2.746450e-008
-4.246166e-008
-6.169013e-008
-8.536702e-008
-1.135790e-007
-1.462593e-007
-1.831183e-007
-2.236174e-007
-2.670243e-007
-3.124999e-007
-3.591442e-007
-4.060018e-007
-4.520712e-007
-4.963479e-007
-5.378761e-007
-5.757744e-007
-6.092330e-007
-6.375084e-007
-6.599326e-007
-6.759315e-007
-6.850409e-007
-6.869175e-007
-6.813507e-007
-6.682763e-007
-6.477957e-007
-6.201998e-007
-5.859977e-007
-5.459307e-007
-5.009615e-007
-4.522402e-007
-4.010711e-007
-3.488814e-007
-2.971667e-007
-2.473868e-007
-2.008377e-007
-1.585593e-007
-1.213061e-007
-8.954466e-008
-6.342520e-008
-4.275098e-008
-2.701933e-008
-1.556021e-008
-7.684397e-009
-2.731921e-009
-2.742282e-011
1.136299e-009
1.410191e-009
1.273624e-009
1.020790e-009
8.431364e-010
8.640379e-010
1.055425e-009
1.178408e-009
9.364444e-010
2.831050e-010
-4.351177e-010
-7.273020e-010
-4.104382e-010
1.923511e-010
5.403271e-010
3.752681e-010
-6.967549e-011
-3.448358e-010
-2.332111e-010
8.347883e-011
2.659541e-010
1.700368e-010
-5.144136e-011
-1.560019e-010
-7.226536e-011
5.549130e-011
-8.778096e-010
8.552439e-011
9.113478e-010
6.982221e-010
-3.246410e-010
-1.068882e-009
-7.318362e-010
3.841742e-010
1.198165e-009
9.462974e-010
-8.845027e-011
-9.119849e-010
-8.021414e-010
8.043476e-011
9.848371e-010
1.337659e-009
1.174143e-009
9.188685e-010
9.068086e-010
1.167385e-009
1.544366e-009
1.830010e-009
1.689227e-009
5.042603e-010
-2.616663e-009
-8.657793e-009
-1.855908e-008
-3.326264e-008
-5.382724e-008
-8.140591e-008
-1.170505e-007
-1.614978e-007
-2.150775e-007
-2.777236e-007
-3.489811e-007
-4.279734e-007
-5.133996e-007
-6.036193e-007
-6.967956e-007
-7.910153e-007
-8.843519e-007
-9.749061e-007
-1.060861e-006
-1.140544e-006
-1.212461e-006
-1.275293e-006
-1.327871e-006
-1.369174e-006
-1.398327e-006
-1.414622e-006
-1.417523e-006
-1.406680e-006
-1.381942e-006
-1.343395e-006
-1.291412e-006
-1.226707e-006
-1.150381e-006
-1.063927e-006
-9.692305e-007
-8.685464e-007
-7.644675e-007
-6.598241e-007
-5.575067e-007
-4.602475e-007
-3.704331e-007
-2.899683e-007
-2.201630e-007
-1.616261e-007
-1.142249e-007
-7.718666e-008
-4.932549e-008
-2.927079e-008
-1.559506e-008
-6.874446e-009
-1.781707e-009
7.852138e-010
1.659362e-009
1.512321e-009
9.827960e-010
6.260027e-010
6.902649e-010
9.884821e-010
1.096188e-009
7.603039e-010
1.382235e-010
-3.610017e-010
-4.513581e-010
-1.807718e-010
1.807413e-010
3.905140e-010
3.651872e-010
1.534579e-010
-1.239960e-010
-3.073484e-010
-2.670784e-010
-2.294335e-011
2.223088e-010
2.435197e-010
2.380005e-011
-2.077324e-010
1.719924e-010
2.436215e-010
1.864528e-010
-1.156525e-010
-4.816784e-010
-5.453382e-010
-1.356936e-010
4.570867e-010
6.807299e-010
2.715911e-010
-3.993375e-010
-6.165945e-010
-2.024179e-011
1.001020e-009
1.664800e-009
1.551099e-009
9.831067e-010
6.667616e-010
9.958581e-010
1.701103e-009
2.054628e-009
1.242274e-009
-1.547571e-009
-7.336441e-009
-1.754576e-008
-3.395328e-008
-5.852648e-008