# vtk DataFile Version 3.0
vtk output
ASCII
DATASET STRUCTURED_POINTS
DIMENSIONS 100 100 1
SPACING 1 1 1
ORIGIN 0 0 0
POINT_DATA 10000
SCALARS SFBox_profile double
LOOKUP_TABLE default 
9.439937e-003
9.439938e-003
9.439939e-003
9.439941e-003
9.439946e-003
9.439953e-003
9.439964e-003
9.439977e-003
9.439990e-003
9.439997e-003
9.439988e-003
9.439947e-003
9.439850e-003
9.439665e-003
9.439352e-003
9.438859e-003
9.438126e-003
9.437081e-003
9.435649e-003
9.433755e-003
9.431334e-003
9.428336e-003
9.424735e-003
9.420531e-003
9.415749e-003
9.410440e-003
9.404671e-003
9.398524e-003
9.392090e-003
9.385461e-003
9.378732e-003
9.371987e-003
9.365300e-003
9.358728e-003
9.352313e-003
9.346084e-003
9.340055e-003
9.334233e-003
9.328617e-003
9.323200e-003
9.317968e-003
9.312901e-003
9.307981e-003
9.303190e-003
9.298515e-003
9.293955e-003
9.289512e-003
9.285196e-003
9.281018e-003
9.276997e-003
9.273161e-003
9.269544e-003
9.266192e-003
9.263158e-003
9.260500e-003
9.258276e-003
9.256545e-003
9.255366e-003
9.254800e-003
9.254912e-003
9.255770e-003
9.257438e-003
9.259981e-003
9.263455e-003
9.267908e-003
9.273381e-003
9.279897e-003
9.287463e-003
9.296057e-003
9.305622e-003
9.316057e-003
9.327215e-003
9.338897e-003
9.350864e-003
9.362842e-003
9.374538e-003
9.385664e-003
9.395955e-003
9.405194e-003
9.413232e-003
9.420000e-003
9.425508e-003
9.429836e-003
9.433118e-003
9.435516e-003
9.437201e-003
9.438336e-003
9.439065e-003
9.439506e-003
9.439755e-003
9.439883e-003
9.439941e-003
9.439963e-003
9.439967e-003
9.439964e-003
9.439957e-003
9.439946e-003
9.439934e-003
9.439923e-003
9.439917e-003
9.439937e-003
9.439938e-003
9.439939e-003
9.439941e-003
9.439946e-003
9.439953e-003
9.439964e-003
9.439977e-003
9.439990e-003
9.439997e-003
9.439988e-003
9.439947e-003
9.439850e-003
9.439665e-003
9.439352e-003
9.438859e-003
9.438126e-003
9.437081e-003
9.435649e-003
9.433755e-003
9.431334e-003
9.428336e-003
9.424735e-003
9.420531e-003
9.415749e-003
9.410440e-003
9.404671e-003
9.398524e-003
9.392090e-003
9.385461e-003
9.378732e-003
9.371987e-003
9.365300e-003
9.358728e-003
9.352313e-003
9.346084e-003
9.340055e-003
9.334233e-003
9.328617e-003
9.323200e-003
9.317968e-003
9.312901e-003
9.307981e-003
9.303190e-003
9.298515e-003
9.293955e-003
9.289512e-003
9.285196e-003
9.281018e-003
9.276997e-003
9.273161e-003
9.269544e-003
9.266192e-003
9.263158e-003
9.260500e-003
9.258276e-003
9.256545e-003
9.255366e-003
9.254800e-003
9.254912e-003
9.255770e-003
9.257438e-003
9.259981e-003
9.263455e-003
9.267908e-003
9.273381e-003
9.279897e-003
9.287463e-003
9.296057e-003
9.305622e-003
9.316057e-003
9.327215e-003
9.338897e-003
9.350864e-003
9.362842e-003
9.374538e-003
9.385664e-003
9.395955e-003
9.405194e-003
9.413232e-003
9.420000e-003
9.425508e-003
9.429836e-003
9.433118e-003
9.435516e-003
9.437201e-003
9.438336e-003
9.439065e-003
9.439506e-003
9.439755e-003
9.439883e-003
9.439941e-003
9.439963e-003
9.439967e-003
9.439964e-003
9.439957e-003
9.439946e-003
9.439934e-003
9.439923e-003
9.439917e-003
9.439936e-003
9.439937e-003
9.439941e-003
9.439945e-003
9.439952e-003
9.439961e-003
9.439970e-003
9.439978e-003
9.439980e-003
9.439965e-003
9.439917e-003
9.439809e-003
9.439604e-003
9.439250e-003
9.438681e-003
9.437818e-003
9.436566e-003
9.434823e-003
9.432481e-003
9.429444e-003
9.425633e-003
9.421001e-003
9.415542e-003
9.409293e-003
9.402331e-003
9.394765e-003
9.386730e-003
9.378371e-003
9.369834e-003
9.361261e-003
9.352776e-003
9.344489e-003
9.336482e-003
9.328815e-003
9.321522e-003
9.314619e-003
9.308107e-003
9.301976e-003
9.296210e-003
9.290787e-003
9.285686e-003
9.280879e-003
9.276346e-003
9.272069e-003
9.268039e-003
9.264254e-003
9.260720e-003
9.257446e-003
9.254442e-003
9.251717e-003
9.249284e-003
9.247156e-003
9.245349e-003
9.243877e-003
9.242753e-003
9.241984e-003
9.241571e-003
9.241513e-003
9.241813e-003
9.242478e-003
9.243525e-003
9.244983e-003
9.246895e-003
9.249320e-003
9.252339e-003
9.256050e-003
9.260572e-003
9.266035e-003
9.272567e-003
9.280276e-003
9.289231e-003
9.299438e-003
9.310824e-003
9.323223e-003
9.336374e-003
9.349928e-003
9.363473e-003
9.376571e-003
9.388807e-003
9.399835e-003
9.409413e-003
9.417423e-003
9.423871e-003
9.428867e-003
9.432591e-003
9.435259e-003
9.437094e-003
9.438300e-003
9.439055e-003
9.439501e-003
9.439748e-003
9.439874e-003
9.439931e-003
9.439954e-003
9.439959e-003
9.439955e-003
9.439947e-003
9.439937e-003
9.439928e-003
9.439922e-003
9.439936e-003
9.439939e-003
9.439945e-003
9.439953e-003
9.439963e-003
9.439972e-003
9.439977e-003
9.439971e-003
9.439942e-003
9.439870e-003
9.439720e-003
9.439441e-003
9.438961e-003
9.438181e-003
9.436977e-003
9.435203e-003
9.432690e-003
9.429267e-003
9.424770e-003
9.419072e-003
9.412099e-003
9.403855e-003
9.394430e-003
9.384000e-003
9.372814e-003
9.361169e-003
9.349378e-003
9.337748e-003
9.326553e-003
9.316018e-003
9.306318e-003
9.297566e-003
9.289826e-003
9.283113e-003
9.277402e-003
9.272643e-003
9.268768e-003
9.265704e-003
9.263383e-003
9.261747e-003
9.260748e-003
9.260356e-003
9.260554e-003
9.261339e-003
9.262720e-003
9.264714e-003
9.267336e-003
9.270593e-003
9.274476e-003
9.278951e-003
9.283961e-003
9.289418e-003
9.295207e-003
9.301182e-003
9.307166e-003
9.312950e-003
9.318302e-003
9.322977e-003
9.326728e-003
9.329321e-003
9.330557e-003
9.330286e-003
9.328428e-003
9.325001e-003
9.320133e-003
9.314085e-003
9.307257e-003
9.300181e-003
9.293498e-003
9.287919e-003
9.284169e-003
9.282913e-003
9.284675e-003
9.289762e-003
9.298195e-003
9.309679e-003
9.323618e-003
9.339176e-003
9.355391e-003
9.371301e-003
9.386079e-003
9.399117e-003
9.410075e-003
9.418867e-003
9.425613e-003
9.430570e-003
9.434059e-003
9.436411e-003
9.437926e-003
9.438857e-003
9.439398e-003
9.439695e-003
9.439846e-003
9.439916e-003
9.439943e-003
9.439950e-003
9.439947e-003
9.439941e-003
9.439935e-003
9.439932e-003
9.439939e-003
9.439944e-003
9.439953e-003
9.439965e-003
9.439976e-003
9.439981e-003
9.439972e-003
9.439931e-003
9.439834e-003
9.439634e-003
9.439265e-003
9.438623e-003
9.437567e-003
9.435908e-003
9.433412e-003
9.429810e-003
9.424817e-003
9.418164e-003
9.409645e-003
9.399167e-003
9.386801e-003
9.372812e-003
9.357665e-003
9.341995e-003
9.326550e-003
9.312108e-003
9.299401e-003
9.289044e-003
9.281492e-003
9.277022e-003
9.275742e-003
9.277613e-003
9.282480e-003
9.290102e-003
9.300191e-003
9.312437e-003
9.326538e-003
9.342225e-003
9.359284e-003
9.377566e-003
9.396991e-003
9.417541e-003
9.439255e-003
9.462209e-003
9.486495e-003
9.512200e-003
9.539378e-003
9.568028e-003
9.598063e-003
9.629296e-003
9.661427e-003
9.694034e-003
9.726571e-003
9.758367e-003
9.788638e-003
9.816495e-003
9.840967e-003
9.861028e-003
9.875642e-003
9.883799e-003
9.884580e-003
9.877211e-003
9.861143e-003
9.836121e-003
9.802268e-003
9.760147e-003
9.710814e-003
9.655833e-003
9.597252e-003
9.537532e-003
9.479408e-003
9.425698e-003
9.379056e-003
9.341690e-003
9.315084e-003
9.299792e-003
9.295344e-003
9.300311e-003
9.312539e-003
9.329488e-003
9.348627e-003
9.367772e-003
9.385309e-003
9.400272e-003
9.412286e-003
9.421422e-003
9.428034e-003
9.432600e-003
9.435612e-003
9.437511e-003
9.438652e-003
9.439303e-003
9.439653e-003
9.439827e-003
9.439906e-003
9.439937e-003
9.439946e-003
9.439946e-003
9.439944e-003
9.439943e-003
9.439950e-003
9.439956e-003
9.439966e-003
9.439977e-003
9.439984e-003
9.439975e-003
9.439929e-003
9.439813e-003
9.439570e-003
9.439111e-003
9.438301e-003
9.436942e-003
9.434764e-003
9.431419e-003
9.426493e-003
9.419536e-003
9.410126e-003
9.397959e-003
9.382974e-003
9.365472e-003
9.346213e-003
9.326454e-003
9.307888e-003
9.292501e-003
9.282358e-003
9.279364e-003
9.285054e-003
9.300453e-003
9.326018e-003
9.361663e-003
9.406851e-003
9.460711e-003
9.522167e-003
9.590046e-003
9.663172e-003
9.740443e-003
9.820888e-003
9.903725e-003
9.988391e-003
1.007456e-002
1.016215e-002
1.025126e-002
1.034215e-002
1.043518e-002
1.053072e-002
1.062908e-002
1.073042e-002
1.083474e-002
1.094170e-002
1.105071e-002
1.116078e-002
1.127059e-002
1.137843e-002
1.148224e-002
1.157964e-002
1.166798e-002
1.174435e-002
1.180571e-002
1.184896e-002
1.187103e-002
1.186907e-002
1.184055e-002
1.178348e-002
1.169664e-002
1.157972e-002
1.143361e-002
1.126055e-002
1.106423e-002
1.084987e-002
1.062412e-002
1.039481e-002
1.017057e-002
9.960204e-003
9.771865e-003
9.612233e-003
9.485684e-003
9.393736e-003
9.334900e-003
9.305022e-003
9.298063e-003
9.307147e-003
9.325628e-003
9.347934e-003
9.370029e-003
9.389473e-003
9.405184e-003
9.417045e-003
9.425497e-003
9.431217e-003
9.434907e-003
9.437178e-003
9.438509e-003
9.439248e-003
9.439635e-003
9.439822e-003
9.439905e-003
9.439937e-003
9.439948e-003
9.439952e-003
9.439953e-003
9.439969e-003
9.439974e-003
9.439982e-003
9.439987e-003
9.439977e-003
9.439929e-003
9.439803e-003
9.439531e-003
9.439000e-003
9.438038e-003
9.436386e-003
9.433680e-003
9.429433e-003
9.423044e-003
9.413849e-003
9.401224e-003
9.384772e-003
9.364589e-003
9.341568e-003
9.317685e-003
9.296151e-003
9.281348e-003
9.278493e-003
9.293088e-003
9.330241e-003
9.394029e-003
9.487030e-003
9.610107e-003
9.762460e-003
9.941883e-003
1.014517e-002
1.036852e-002
1.060797e-002
1.085961e-002
1.111988e-002
1.138567e-002
1.165446e-002
1.192433e-002
1.219408e-002
1.246318e-002
1.273173e-002
1.300032e-002
1.326995e-002
1.354174e-002
1.381684e-002
1.409615e-002
1.438016e-002
1.466879e-002
1.496123e-002
1.525588e-002
1.555024e-002
1.584092e-002
1.612368e-002
1.639344e-002
1.664436e-002
1.686997e-002
1.706328e-002
1.721692e-002
1.732335e-002
1.737506e-002
1.736483e-002
1.728610e-002
1.713331e-002
1.690236e-002
1.659112e-002
1.619996e-002
1.573225e-002
1.519482e-002
1.459831e-002
1.395729e-002
1.329011e-002
1.261824e-002
1.196511e-002
1.135430e-002
1.080729e-002
1.034104e-002
9.965852e-003
9.684131e-003
9.490368e-003
9.372467e-003
9.314148e-003
9.297827e-003
9.307265e-003
9.329395e-003
9.355080e-003
9.378916e-003
9.398428e-003
9.413068e-003
9.423335e-003
9.430138e-003
9.434422e-003
9.436989e-003
9.438452e-003
9.439241e-003
9.439641e-003
9.439829e-003
9.439911e-003
9.439944e-003
9.439957e-003
9.439961e-003
9.439997e-003
9.439999e-003
9.439998e-003
9.439984e-003
9.439933e-003
9.439803e-003
9.439516e-003
9.438940e-003
9.437866e-003
9.435973e-003
9.432793e-003
9.427683e-003
9.419826e-003
9.408294e-003
9.392219e-003
9.371139e-003
9.345529e-003
9.317521e-003
9.291650e-003
9.275403e-003
9.279290e-003
9.316218e-003
9.400172e-003
9.544440e-003
9.759778e-003
1.005295e-002
1.042593e-002
1.087594e-002
1.139610e-002
1.197657e-002
1.260586e-002
1.327204e-002
1.396366e-002
1.467044e-002
1.538355e-002
1.609588e-002
1.680203e-002
1.749837e-002
1.818301e-002
1.885563e-002
1.951733e-002
2.017027e-002
2.081730e-002
2.146153e-002
2.210585e-002
2.275252e-002
2.340280e-002
2.405658e-002
2.471217e-002
2.536615e-002
2.601328e-002
2.664656e-002
2.725727e-002
2.783513e-002
2.836848e-002
2.884445e-002
2.924923e-002
2.956826e-002
2.978656e-002
2.988897e-002
2.986062e-002
2.968735e-002
2.935635e-002
2.885690e-002
2.818128e-002
2.732577e-002
2.629189e-002
2.508759e-002
2.372852e-002
2.223910e-002
2.065319e-002
1.901399e-002
1.737261e-002
1.578511e-002
1.430780e-002
1.299126e-002
1.187406e-002
1.097768e-002
1.030380e-002
9.835255e-003
9.540178e-003
9.378641e-003
9.309762e-003
9.297582e-003
9.314501e-003
9.342065e-003
9.369758e-003
9.392821e-003
9.410011e-003
9.421858e-003
9.429528e-003
9.434232e-003
9.436972e-003
9.438488e-003
9.439281e-003
9.439670e-003
9.439849e-003
9.439925e-003
9.439956e-003
9.439966e-003
9.440029e-003
9.440023e-003
9.440003e-003
9.439949e-003
9.439817e-003
9.439527e-003
9.438935e-003
9.437803e-003
9.435754e-003
9.432219e-003
9.426396e-003
9.417228e-003
9.403487e-003
9.384020e-003
9.358326e-003
9.327548e-003
9.295956e-003
9.272726e-003
9.273535e-003
9.321280e-003
9.445209e-003
9.678180e-003
1.005239e-002
1.059453e-002
1.132157e-002
1.223821e-002
1.333653e-002
1.459760e-002
1.599452e-002
1.749609e-002
1.907021e-002
2.068667e-002
2.231897e-002
2.394516e-002
2.554808e-002
2.711517e-002
2.863812e-002
3.011253e-002
3.153746e-002
3.291499e-002
3.424961e-002
3.554755e-002
3.681590e-002
3.806181e-002
3.929166e-002
4.051033e-002
4.172061e-002
4.292268e-002
4.411386e-002
4.528848e-002
4.643787e-002
4.755058e-002
4.861257e-002
4.960756e-002
5.051732e-002
5.132195e-002
5.200023e-002
5.252980e-002
5.288737e-002
5.304902e-002
5.299037e-002
5.268704e-002
5.211515e-002
5.125210e-002
5.007767e-002
4.857546e-002
4.673484e-002
4.455344e-002
4.204014e-002
3.921862e-002
3.613092e-002
3.284038e-002
2.943275e-002
2.601416e-002
2.270465e-002
1.962705e-002
1.689223e-002
1.458359e-002
1.274471e-002
1.137386e-002
1.042752e-002
9.832018e-003
9.499837e-003
9.345623e-003
9.297893e-003
9.304463e-003
9.332162e-003
9.362974e-003
9.389047e-003
9.408287e-003
9.421275e-003
9.429473e-003
9.434360e-003
9.437124e-003
9.438607e-003
9.439358e-003
9.439717e-003
9.439877e-003
9.439943e-003
9.439966e-003
9.440057e-003
9.440037e-003
9.439981e-003
9.439852e-003
9.439569e-003
9.438988e-003
9.437855e-003
9.435753e-003
9.432033e-003
9.425743e-003
9.415592e-003
9.400021e-003
9.377550e-003
9.347616e-003
9.312246e-003
9.278790e-003
9.263617e-003
9.296032e-003
9.420930e-003
9.698319e-003
1.019842e-002
1.099241e-002
1.214069e-002
1.368178e-002
1.562491e-002
1.794831e-002
2.060305e-002
2.352099e-002
2.662452e-002
2.983568e-002
3.308332e-002
3.630755e-002
3.946154e-002
4.251135e-002
4.543456e-002
4.821849e-002
5.085836e-002
5.335582e-002
5.571760e-002
5.795430e-002
6.007921e-002
6.210705e-002
6.405275e-002
6.593018e-002
6.775117e-002
6.952463e-002
7.125593e-002
7.294657e-002
7.459401e-002
7.619183e-002
7.773005e-002
7.919560e-002
8.057277e-002
8.184377e-002
8.298904e-002
8.398764e-002
8.481735e-002
8.545470e-002
8.587478e-002
8.605102e-002
8.595480e-002
8.555515e-002
8.481848e-002
8.370847e-002
8.218636e-002
8.021176e-002
7.774432e-002
7.474670e-002
7.118917e-002
6.705643e-002
6.235651e-002
5.713133e-002
5.146710e-002
4.550181e-002
3.942554e-002
3.346998e-002
2.788488e-002
2.290357e-002
1.870500e-002
1.538329e-002
1.293506e-002
1.126952e-002
1.023717e-002
9.666853e-003
9.398801e-003
9.305604e-003
9.299025e-003
9.325988e-003
9.359244e-003
9.387569e-003
9.408127e-003
9.421667e-003
9.429974e-003
9.434782e-003
9.437419e-003
9.438790e-003
9.439464e-003
9.439776e-003
9.439909e-003
9.439957e-003
9.440068e-003
9.440023e-003
9.439904e-003
9.439641e-003
9.439095e-003
9.438014e-003
9.435966e-003
9.432251e-003
9.425807e-003
9.415134e-003
9.398348e-003
9.373580e-003
9.340099e-003
9.300778e-003
9.266567e-003
9.263242e-003
9.339612e-003
9.574594e-003
1.007913e-002
1.098889e-002
1.244628e-002
1.457444e-002
1.745027e-002
2.108496e-002
2.541850e-002
3.032925e-002
3.565484e-002
4.121741e-002
4.684659e-002
5.239596e-002
5.775170e-002
6.283433e-002
6.759555e-002
7.201273e-002
7.608263e-002
7.981571e-002
8.323156e-002
8.635537e-002
8.921547e-002
9.184135e-002
9.426223e-002
9.650579e-002
9.859701e-002
1.005574e-001
1.024045e-001
1.041514e-001
1.058069e-001
1.073756e-001
1.088585e-001
1.102532e-001
1.115552e-001
1.127580e-001
1.138540e-001
1.148350e-001
1.156921e-001
1.164161e-001
1.169970e-001
1.174238e-001
1.176839e-001
1.177619e-001
1.176389e-001
1.172909e-001
1.166873e-001
1.157894e-001
1.145481e-001
1.129026e-001
1.107785e-001
1.080880e-001
1.047315e-001
1.006036e-001
9.560349e-002
8.965322e-002
8.272237e-002
7.485829e-002
6.621557e-002
5.707395e-002
4.783123e-002
3.896089e-002
3.093600e-002
2.413796e-002
1.878070e-002
1.487940e-002
1.227443e-002
1.069682e-002
9.846171e-003
9.453536e-003
9.314969e-003
9.296917e-003
9.323710e-003
9.358912e-003
9.388560e-003
9.409545e-003
9.422967e-003
9.430954e-003
9.435434e-003
9.437816e-003
9.439015e-003
9.439586e-003
9.439837e-003
9.439930e-003
9.440042e-003
9.439955e-003
9.439729e-003
9.439243e-003
9.438260e-003
9.436359e-003
9.432833e-003
9.426562e-003
9.415899e-003
9.398677e-003
9.372595e-003
9.336543e-003
9.293821e-003
9.258587e-003
9.266673e-003
9.390416e-003
9.754020e-003
1.054199e-002
1.199112e-002
1.435921e-002
1.787237e-002
2.266463e-002
2.873089e-002
3.591267e-002
4.392295e-002
5.240043e-002
6.097350e-002
6.931430e-002
7.717169e-002
8.438179e-002
9.086112e-002
9.659031e-002
1.015953e-001
1.059303e-001
1.096642e-001
1.128710e-001
1.156231e-001
1.179879e-001
1.200251e-001
1.217867e-001
1.233168e-001
1.246519e-001
1.258218e-001
1.268504e-001
1.277563e-001
1.285542e-001
1.292555e-001
1.298693e-001
1.304029e-001
1.308625e-001
1.312538e-001
1.315821e-001
1.318525e-001
1.320697e-001
1.322381e-001
1.323613e-001
1.324420e-001
1.324819e-001
1.324809e-001
1.324370e-001
1.323454e-001
1.321980e-001
1.319818e-001
1.316773e-001
1.312558e-001
1.306759e-001
1.298780e-001
1.287779e-001
1.272591e-001
1.251652e-001
1.222950e-001
1.184061e-001
1.132322e-001
1.065242e-001
9.811813e-002
8.802571e-002
7.651850e-002
6.416371e-002
5.177019e-002
4.023517e-002
3.033379e-002
2.253563e-002
1.692742e-002
1.326497e-002
1.111151e-002
9.989700e-003
9.490446e-003
9.319908e-003
9.296921e-003
9.325313e-003
9.361992e-003
9.391888e-003
9.412340e-003
9.424989e-003
9.432273e-003
9.436229e-003
9.438264e-003
9.439254e-003
9.439701e-003
9.439868e-003
9.439953e-003
9.439796e-003
9.439397e-003
9.438552e-003
9.436874e-003
9.433689e-003
9.427885e-003
9.417757e-003
9.400937e-003
9.374702e-003
9.337326e-003
9.291771e-003
9.253879e-003
9.267560e-003
9.428142e-003
9.910471e-003
1.099058e-002
1.304225e-002
1.648961e-002
2.171040e-002
2.891133e-002
3.802299e-002
4.866691e-002
6.021871e-002
7.194497e-002
8.315770e-002
9.333080e-002
1.021515e-001
1.095114e-001
1.154596e-001
1.201428e-001
1.237527e-001
1.264881e-001
1.285334e-001
1.300481e-001
1.311630e-001
1.319812e-001
1.325809e-001
1.330198e-001
1.333399e-001
1.335712e-001
1.337354e-001
1.338484e-001
1.339225e-001
1.339672e-001
1.339906e-001
1.339996e-001
1.340001e-001
1.339971e-001
1.339949e-001
1.339964e-001
1.340034e-001
1.340169e-001
1.340369e-001
1.340627e-001
1.340933e-001
1.341274e-001
1.341638e-001
1.342011e-001
1.342374e-001
1.342703e-001
1.342960e-001
1.343090e-001
1.343019e-001
1.342646e-001
1.341840e-001
1.340438e-001
1.338223e-001
1.334883e-001
1.329918e-001
1.322474e-001
1.311066e-001
1.293196e-001
1.264963e-001
1.220981e-001
1.155134e-001
1.062501e-001
9.420853e-002
7.990713e-002
6.450015e-002
4.951139e-002
3.637645e-002
2.602115e-002
1.868292e-002
1.401794e-002
1.137247e-002
1.005313e-002
9.495369e-003
9.317397e-003
9.298841e-003
9.330765e-003
9.368188e-003
9.397143e-003
9.416142e-003
9.427466e-003
9.433764e-003
9.437069e-003
9.438708e-003
9.439462e-003
9.439750e-003
9.439765e-003
9.439500e-003
9.438829e-003
9.437430e-003
9.434696e-003
9.429586e-003
9.420433e-003
9.404794e-003
9.379615e-003
9.342396e-003
9.294911e-003
9.252329e-003
9.261950e-003
9.435301e-003
9.992340e-003
1.130445e-002
1.390625e-002
1.843586e-002
2.547679e-002
3.532417e-002
4.776700e-002
6.201488e-002
7.684755e-002
9.094157e-002
1.032225e-001
1.130885e-001
1.204401e-001
1.255570e-001
1.289128e-001
1.310091e-001
1.322730e-001
1.330210e-001
1.334656e-001
1.337391e-001
1.339177e-001
1.340402e-001
1.341229e-001
1.341705e-001
1.341826e-001
1.341586e-001
1.340988e-001
1.340047e-001
1.338790e-001
1.337245e-001
1.335438e-001
1.333389e-001
1.331117e-001
1.328634e-001
1.325956e-001
1.323104e-001
1.320107e-001
1.317011e-001
1.313881e-001
1.310803e-001
1.307885e-001
1.305257e-001
1.303067e-001
1.301478e-001
1.300660e-001
1.300780e-001
1.301994e-001
1.304432e-001
1.308182e-001
1.313264e-001
1.319606e-001
1.326999e-001
1.335062e-001
1.343184e-001
1.350488e-001
1.355830e-001
1.357922e-001
1.355614e-001
1.348283e-001
1.335901e-001
1.318120e-001
1.292095e-001
1.250330e-001
1.181195e-001
1.074101e-001
9.274084e-002
7.530797e-002
5.735256e-002
4.124001e-002
2.855854e-002
1.975284e-002
1.434125e-002
1.140447e-002
1.001575e-002
9.466502e-003
9.309229e-003
9.303639e-003
9.339930e-003
9.376893e-003
9.403698e-003
9.420483e-003
9.430098e-003
9.435252e-003
9.437854e-003
9.439071e-003
9.439542e-003
9.439434e-003
9.439004e-003
9.437928e-003
9.435710e-003
9.431435e-003
9.423566e-003
9.409728e-003
9.386700e-003
9.351242e-003
9.303328e-003
9.255068e-003
9.250971e-003
9.406568e-003
9.968719e-003
1.138634e-002
1.435259e-002
1.974942e-002
2.842432e-002
4.079869e-002
5.645261e-002
7.396099e-002
9.120687e-002
1.061078e-001
1.173683e-001
1.248213e-001
1.292048e-001
1.316026e-001
1.329453e-001
1.337910e-001
1.343576e-001
1.346690e-001
1.346953e-001
1.344267e-001
1.338885e-001
1.331268e-001
1.321931e-001
1.311337e-001
1.299872e-001
1.287834e-001
1.275446e-001
1.262862e-001
1.250182e-001
1.237461e-001
1.224721e-001
1.211968e-001
1.199199e-001
1.186418e-001
1.173644e-001
1.160917e-001
1.148306e-001
1.135911e-001
1.123863e-001
1.112323e-001
1.101482e-001
1.091556e-001
1.082783e-001
1.075421e-001
1.069749e-001
1.066059e-001
1.064663e-001
1.065889e-001
1.070079e-001
1.077589e-001
1.088775e-001
1.103983e-001
1.123509e-001
1.147550e-001
1.176108e-001
1.208831e-001
1.244790e-001
1.282179e-001
1.318011e-001
1.348015e-001
1.367100e-001
1.370913e-001
1.358395e-001
1.332923e-001
1.297476e-001
1.244913e-001
1.156274e-001
1.015903e-001
8.297756e-002
6.264825e-002
4.407833e-002
2.962137e-002
1.988097e-002
1.414815e-002
1.119836e-002
9.890194e-003
9.415299e-003
9.300930e-003
9.312640e-003
9.352317e-003
9.387213e-003
9.410811e-003
9.424878e-003
9.432606e-003
9.436579e-003
9.438467e-003
9.439206e-003
9.438906e-003
9.438237e-003
9.436578e-003
9.433199e-003
9.426771e-003
9.415125e-003
9.395085e-003
9.362899e-003
9.316627e-003
9.263754e-003
9.240410e-003
9.352084e-003
9.845266e-003
1.120633e-002
1.424834e-002
2.009087e-002
2.989935e-002
4.431332e-002
6.273000e-002
8.293804e-002
1.016643e-001
1.160420e-001
1.250805e-001
1.298945e-001
1.324553e-001
1.341113e-001
1.351435e-001
1.352918e-001
1.343638e-001
1.324275e-001
1.297212e-001
1.265243e-001
1.230814e-001
1.195760e-001
1.161311e-001
1.128205e-001
1.096829e-001
1.067329e-001
1.039701e-001
1.013840e-001
9.895869e-002
9.667537e-002
9.451445e-002
9.245734e-002
9.048774e-002
8.859265e-002
8.676296e-002
8.499387e-002
8.328486e-002
8.163951e-002
8.006521e-002
7.857260e-002
7.717509e-002
7.588837e-002
7.473004e-002
7.371943e-002
7.287758e-002
7.222746e-002
7.179438e-002
7.160666e-002
7.169653e-002
7.210128e-002
7.286456e-002
7.403784e-002
7.568197e-002
7.786864e-002
8.068110e-002
8.421293e-002
8.856265e-002
9.381989e-002
1.000368e-001
1.071758e-001
1.150263e-001
1.230901e-001
1.304772e-001
1.359313e-001
1.382117e-001
1.369319e-001
1.331291e-001
1.279359e-001
1.200739e-001
1.066159e-001
8.705383e-002
6.476739e-002
4.441050e-002
2.898596e-002
1.903716e-002
1.349190e-002
1.081492e-002
9.716378e-003
9.360569e-003
9.298590e-003
9.326420e-003
9.366910e-003
9.398086e-003
9.417758e-003
9.428908e-003
9.434758e-003
9.437580e-003
9.438696e-003
9.438121e-003
9.437119e-003
9.434657e-003
9.429696e-003
9.420387e-003
9.403816e-003
9.376070e-003
9.333686e-003
9.279259e-003
9.237392e-003
9.292296e-003
9.662029e-003
1.081717e-002
1.361675e-002
1.935843e-002
2.954733e-002
4.519074e-002
6.570910e-002
8.816625e-002
1.079774e-001
1.215033e-001
1.286497e-001
1.322779e-001
1.346998e-001
1.358485e-001
1.347342e-001
1.310935e-001
1.255076e-001
1.188438e-001
1.118508e-001
1.050312e-001
9.866413e-002
9.287156e-002
8.767925e-002
8.306066e-002
7.896472e-002
7.533164e-002
7.210125e-002
6.921671e-002
6.662612e-002
6.428294e-002
6.214624e-002
6.018070e-002
5.835667e-002
5.665011e-002
5.504247e-002
5.352038e-002
5.207531e-002
5.070303e-002
4.940301e-002
4.817781e-002
4.703247e-002
4.597393e-002
4.501060e-002
4.415210e-002
4.340916e-002
4.279371e-002
4.231916e-002
4.200094e-002
4.185722e-002
4.190995e-002
4.218615e-002
4.271970e-002
4.355355e-002
4.474267e-002
4.635801e-002
4.849140e-002
5.126163e-002
5.482086e-002
5.935959e-002
6.510551e-002
7.230738e-002
8.118677e-002
9.183160e-002
1.040001e-001
1.168309e-001
1.285650e-001
1.366586e-001
1.389447e-001
1.357622e-001
1.299590e-001
1.220736e-001
1.084161e-001
8.750253e-002
6.350044e-002
4.218522e-002
2.679007e-002
1.742733e-002
1.254395e-002
1.035820e-002
9.543162e-003
9.319583e-003
9.305740e-003
9.344172e-003
9.382278e-003
9.408472e-003
9.423943e-003
9.432258e-003
9.436335e-003
9.437964e-003
9.437017e-003
9.435571e-003
9.432044e-003
9.425017e-003
9.412017e-003
9.389350e-003
9.352727e-003
9.300758e-003
9.246476e-003
9.247719e-003
9.474290e-003
1.033083e-002
1.262992e-002
1.773160e-002
2.742620e-002
4.323138e-002
6.498218e-002
8.942471e-002
1.106746e-001
1.240304e-001
1.303187e-001
1.338851e-001
1.360160e-001
1.346147e-001
1.285974e-001
1.191094e-001
1.080795e-001
9.705955e-002
8.693719e-002
7.807275e-002
7.051136e-002
6.414490e-002
5.880937e-002
5.433488e-002
5.056767e-002
4.737712e-002
4.465570e-002
4.231607e-002
4.028736e-002
3.851185e-002
3.694238e-002
3.554035e-002
3.427436e-002
3.311921e-002
3.205505e-002
3.106681e-002
3.014353e-002
2.927783e-002
2.846532e-002
2.770406e-002
2.699403e-002
2.633668e-002
2.573454e-002
2.519094e-002
2.470984e-002
2.429581e-002
2.395409e-002
2.369082e-002
2.351340e-002
2.343096e-002
2.345512e-002
2.360088e-002
2.388794e-002
2.434250e-002
2.499979e-002
2.590768e-002
2.713194e-002
2.876374e-002
3.093011e-002
3.380793e-002
3.764121e-002
4.275860e-002
4.958186e-002
5.860300e-002
7.028498e-002
8.481503e-002
1.016401e-001
1.188339e-001
1.327589e-001
1.392390e-001
1.372104e-001
1.307750e-001
1.222646e-001
1.073205e-001
8.434074e-002
5.898081e-002
3.778299e-002
2.349536e-002
1.542088e-002
1.152652e-002
9.933131e-003
9.408748e-003
9.301444e-003
9.322062e-003
9.363909e-003
9.396918e-003
9.417541e-003
9.428957e-003
9.434655e-003
9.436957e-003
9.435538e-003
9.433520e-003
9.428638e-003
9.419018e-003
9.401499e-003
9.371708e-003
9.325802e-003
9.267622e-003
9.230105e-003
9.328336e-003
9.869639e-003
1.153774e-002
1.560820e-002
2.400062e-002
3.876075e-002
6.056538e-002
8.662092e-002
1.101471e-001
1.246654e-001
1.309670e-001
1.346844e-001
1.358609e-001
1.307057e-001
1.190377e-001
1.039628e-001
8.864808e-002
7.494986e-002
6.353371e-002
5.437457e-002
4.715687e-002
4.149906e-002
3.705241e-002
3.353171e-002
3.071586e-002
2.843785e-002
2.657290e-002
2.502787e-002
2.373278e-002
2.263446e-002
2.169198e-002
2.087343e-002
2.015375e-002
1.951322e-002
1.893641e-002
1.841145e-002
1.792937e-002
1.748366e-002
1.706980e-002
1.668493e-002
1.632744e-002
1.599672e-002
1.569286e-002
1.541645e-002
1.516845e-002
1.495011e-002
1.476292e-002
1.460873e-002
1.448977e-002
1.440891e-002
1.436988e-002
1.437764e-002
1.443889e-002
1.456278e-002
1.476197e-002
1.505408e-002
1.546410e-002
1.602787e-002
1.679766e-002
1.785074e-002
1.930273e-002
2.132763e-002
2.418697e-002
2.826816e-002
3.412497e-002
4.249375e-002
5.422013e-002
6.997376e-002
8.959493e-002
1.110518e-001
1.296034e-001
1.390871e-001
1.374155e-001
1.302900e-001
1.207057e-001
1.031469e-001
7.758402e-002
5.172929e-002
3.196857e-002
1.975730e-002
1.342373e-002
1.063315e-002
9.610036e-003
9.329761e-003
9.305688e-003
9.344242e-003
9.383244e-003
9.409612e-003
9.424755e-003
9.432471e-003
9.435625e-003
9.433639e-003
9.430916e-003
9.424374e-003
9.411631e-003
9.388830e-003
9.351221e-003
9.296857e-003
9.239655e-003
9.245935e-003
9.519994e-003
1.057023e-002
1.345771e-002
2.000706e-002
3.260418e-002
5.296717e-002
7.967245e-002
1.061430e-001
1.236418e-001
1.308209e-001
1.346125e-001
1.351535e-001
1.269276e-001
1.104644e-001
9.087579e-002
7.253037e-002
5.744187e-002
4.589867e-002
3.739370e-002
3.122129e-002
2.674375e-002
2.346716e-002
2.103546e-002
1.920033e-002
1.779072e-002
1.668877e-002
1.581273e-002
1.510516e-002
1.452510e-002
1.404276e-002
1.363608e-002
1.328845e-002
1.298719e-002
1.272257e-002
1.248715e-002
1.227525e-002
1.208266e-002
1.190628e-002
1.174398e-002
1.159432e-002
1.145641e-002
1.132979e-002
1.121428e-002
1.110987e-002
1.101672e-002
1.093507e-002
1.086523e-002
1.080768e-002
1.076302e-002
1.073211e-002
1.071614e-002
1.071679e-002
1.073645e-002
1.077853e-002
1.084792e-002
1.095172e-002
1.110034e-002
1.130939e-002
1.160272e-002
1.201754e-002
1.261320e-002
1.348597e-002
1.479392e-002
1.679721e-002
1.991863e-002
2.482093e-002
3.247090e-002
4.409701e-002
6.084567e-002
8.286514e-002
1.077454e-001
1.292372e-001
1.393045e-001
1.363736e-001
1.285326e-001
1.169404e-001
9.534518e-002