# vtk DataFile Version 3.0
vtk output
ASCII
DATASET STRUCTURED_POINTS
DIMENSIONS 100 100 1
SPACING 1 1 1
ORIGIN 0 0 0
POINT_DATA 10000
SCALARS SFBox_profile double
LOOKUP_TABLE default 
0.000000e+000
0.000000e+000
0.000000e+000
0.000000e+000
0.000000e+000
0.000000e+000
0.000000e+000
0.000000e+000
0.000000e+000
0.000000e+000
0.000000e+000
0.000000e+000
0.000000e+000
0.000000e+000
0.000000e+000
0.000000e+000
0.000000e+000
0.000000e+000
0.000000e+000
0.000000e+000
0.000000e+000
0.000000e+000
0.000000e+000
0.000000e+000
0.000000e+000
0.000000e+000
0.000000e+000
0.000000e+000
0.000000e+000
0.000000e+000
0.000000e+000
0.000000e+000
0.000000e+000
0.000000e+000
0.000000e+000
0.000000e+000
0.000000e+000
0.000000e+000
0.000000e+000
0.000000e+000
0.000000e+000
0.000000e+000
0.000000e+000
0.000000e+000
0.000000e+000
0.000000e+000
0.000000e+000
0.000000e+000
0.000000e+000
0.000000e+000
0.000000e+000
0.000000e+000
0.000000e+000
0.000000e+000
0.000000e+000
0.000000e+000
0.000000e+000
0.000000e+000
0.000000e+000
0.000000e+000
0.000000e+000
0.000000e+000
0.000000e+000
0.000000e+000
0.000000e+000
0.000000e+000
0.000000e+000
0.000000e+000
0.000000e+000
0.000000e+000
0.000000e+000
0.000000e+000
0.000000e+000
0.000000e+000
0.000000e+000
0.000000e+000
0.000000e+000
0.000000e+000
0.000000e+000
0.000000e+000
0.000000e+000
0.000000e+000
0.000000e+000
0.000000e+000
0.000000e+000
0.000000e+000
0.000000e+000
0.000000e+000
0.000000e+000
0.000000e+000
0.000000e+000
0.000000e+000
0.000000e+000
0.000000e+000
0.000000e+000
0.000000e+000
0.000000e+000
0.000000e+000
0.000000e+000
0.000000e+000
-5.277871e-009
-5.326986e-009
-5.145850e-009
-4.364507e-009
-2.789867e-009
-5.937267e-010
1.695303e-009
3.404096e-009
4.024628e-009
3.457288e-009
2.058168e-009
4.662550e-010
-6.960593e-010
-1.092270e-009
-7.783973e-010
-1.090746e-010
4.870367e-010
7.327586e-010
6.156548e-010
3.506285e-010
2.368163e-010
4.981389e-010
1.185612e-009
2.171505e-009
3.216621e-009
4.068367e-009
4.550735e-009
4.621842e-009
4.385285e-009
4.047841e-009
3.828499e-009
3.848002e-009
4.052265e-009
4.223185e-009
4.091719e-009
3.504342e-009
2.545721e-009
1.528958e-009
8.376680e-010
7.017900e-010
1.045406e-009
1.513429e-009
1.675515e-009
1.287402e-009
4.435827e-010
-4.815242e-010
-1.070569e-009
-1.126073e-009
-7.872896e-010
-4.256187e-010
-3.910358e-010
-7.806745e-010
-1.382562e-009
-1.825929e-009
-1.829576e-009
-1.377871e-009
-7.103417e-010
-1.424947e-010
1.509376e-010
2.410408e-010
3.735244e-010
7.804992e-010
1.509932e-009
2.386416e-009
3.120745e-009
3.485817e-009
3.440512e-009
3.129109e-009
2.772064e-009
2.530645e-009
2.431753e-009
2.386915e-009
2.274486e-009
2.021708e-009
1.638275e-009
1.195437e-009
7.794970e-010
4.541654e-010
2.470919e-010
1.536928e-010
1.443491e-010
1.701160e-010
1.733557e-010
1.094300e-010
-2.684884e-011
-1.883629e-010
-2.926355e-010
-2.665095e-010
-9.469575e-011
1.595596e-010
3.793153e-010
4.538627e-010
3.400854e-010
8.898568e-011
-1.789823e-010
-3.364496e-010
-3.150257e-010
-1.391407e-010
8.909241e-011
2.446295e-010
-2.759852e-009
-2.984465e-009
-3.160767e-009
-2.913829e-009
-2.010257e-009
-5.332733e-010
1.114600e-009
2.388773e-009
2.866012e-009
2.451661e-009
1.419933e-009
2.697212e-010
-5.208766e-010
-7.076893e-010
-3.543136e-010
2.558461e-010
8.022422e-010
1.094926e-009
1.142150e-009
1.101496e-009
1.164515e-009
1.449687e-009
1.955002e-009
2.575019e-009
3.152979e-009
3.534850e-009
3.610409e-009
3.342726e-009
2.786027e-009
2.079031e-009
1.397617e-009
8.712078e-010
5.015124e-010
1.405683e-010
-4.378617e-010
-1.398562e-009
-2.718851e-009
-4.166845e-009
-5.417107e-009
-6.244523e-009
-6.673543e-009
-6.975977e-009
-7.504615e-009
-8.462395e-009
-9.758738e-009
-1.105411e-008
-1.196999e-008
-1.232760e-008
-1.225542e-008
-1.209240e-008
-1.215230e-008
-1.250933e-008
-1.294964e-008
-1.311785e-008
-1.275451e-008
-1.186107e-008
-1.068399e-008
-9.537494e-009
-8.593555e-009
-7.783941e-009
-6.874940e-009
-5.654015e-009
-4.095200e-009
-2.392907e-009
-8.499945e-010
2.960585e-010
9.918626e-010
1.362924e-009
1.604196e-009
1.850595e-009
2.111857e-009
2.300712e-009
2.317880e-009
2.127759e-009
1.778622e-009
1.367676e-009
9.871130e-010
6.895616e-010
4.864422e-010
3.654513e-010
3.052620e-010
2.781524e-010
2.488231e-010
1.826800e-010
6.552004e-011
-7.928117e-011
-1.943186e-010
-2.177906e-010
-1.239092e-010
5.282011e-011
2.286563e-010
3.137172e-010
2.621999e-010
9.921622e-011
-9.223871e-011
-2.166056e-010
-2.171742e-010
-1.049588e-010
4.978089e-011
1.573184e-010
1.376985e-009
8.702794e-010
1.144207e-010
-5.142941e-010
-7.209406e-010
-4.425277e-010
1.322868e-010
6.803693e-010
9.271233e-010
7.900134e-010
4.050766e-010
3.077139e-011
-1.049642e-010
7.924247e-011
5.017971e-010
9.969720e-010
1.426161e-009
1.746285e-009
1.998294e-009
2.237764e-009
2.466770e-009
2.617146e-009
2.590329e-009
2.314740e-009
1.772254e-009
9.761473e-010
-7.296402e-011
-1.406803e-009
-3.060307e-009
-5.015510e-009
-7.171340e-009
-9.378766e-009
-1.152918e-008
-1.363384e-008
-1.582696e-008
-1.827507e-008
-2.104747e-008
-2.404085e-008
-2.702154e-008
-2.976630e-008
-3.220632e-008
-3.446774e-008
-3.677038e-008
-3.924885e-008
-4.182226e-008
-4.421116e-008
-4.609875e-008
-4.732789e-008
-4.799477e-008
-4.836901e-008
-4.869173e-008
-4.899147e-008
-4.904729e-008
-4.852628e-008
-4.720024e-008
-4.509196e-008
-4.245280e-008
-3.959256e-008
-3.668446e-008
-3.368055e-008
-3.039113e-008
-2.666558e-008
-2.254526e-008
-1.828542e-008
-1.423796e-008
-1.068121e-008
-7.710559e-009
-5.251488e-009
-3.168559e-009
-1.383200e-009
8.000210e-011
1.138052e-009
1.738790e-009
1.923805e-009
1.823088e-009
1.593584e-009
1.350979e-009
1.140230e-009
9.548188e-010
7.784753e-010
6.130526e-010
4.753986e-010
3.749099e-010
2.978718e-010
2.151922e-010
1.074652e-010
-1.456483e-011
-1.126103e-010
-1.462632e-010
-1.027885e-010
-9.322447e-012
8.146677e-011
1.222992e-010
9.799331e-011
3.124132e-011
-3.457971e-011
-6.309123e-011
-4.549434e-011
-2.555368e-012
3.138142e-011
5.656350e-009
4.872931e-009
3.536375e-009
2.008320e-009
6.363482e-010
-3.634943e-010
-9.426595e-010
-1.171056e-009
-1.147949e-009
-9.347541e-010
-5.479406e-010
-2.959333e-012
6.375095e-010
1.259069e-009
1.746608e-009
2.054785e-009
2.239179e-009
2.411458e-009
2.636594e-009
2.838576e-009
2.785473e-009
2.176626e-009
7.845116e-010
-1.438885e-009
-4.362940e-009
-7.787551e-009
-1.158659e-008
-1.578627e-008
-2.052401e-008
-2.591842e-008
-3.194594e-008
-3.841597e-008
-4.506553e-008
-5.170698e-008
-5.832237e-008
-6.503605e-008
-7.198586e-008
-7.918736e-008
-8.649001e-008
-9.365473e-008
-1.004912e-007
-1.069488e-007
-1.130916e-007
-1.189783e-007
-1.245422e-007
-1.295698e-007
-1.338002e-007
-1.370731e-007
-1.394119e-007
-1.409711e-007
-1.418801e-007
-1.420960e-007
-1.413768e-007
-1.394019e-007
-1.359606e-007
-1.310782e-007
-1.249927e-007
-1.180028e-007
-1.102986e-007
-1.018951e-007
-9.271473e-008
-8.275382e-008
-7.221318e-008
-6.149996e-008
-5.110128e-008
-4.141735e-008
-3.266229e-008
-2.488449e-008
-1.807101e-008
-1.224678e-008
-7.494658e-009
-3.889665e-009
-1.406678e-009
1.225658e-010
9.676569e-010
1.400886e-009
1.608130e-009
1.663544e-009
1.573311e-009
1.346349e-009
1.037726e-009
7.380535e-010
5.249874e-010
4.187350e-010
3.759447e-010
3.251194e-010
2.168731e-010
5.469011e-011
-1.113876e-010
-2.194785e-010
-2.336642e-010
-1.618519e-010
-4.687819e-011
5.893387e-011
1.185104e-010
1.216099e-010
8.138768e-011
2.248402e-011
-3.085220e-011
-6.157982e-011
8.549222e-009
7.608433e-009
5.917180e-009
3.796844e-009
1.610010e-009
-3.202503e-010
-1.755067e-009
-2.548504e-009
-2.642329e-009
-2.069819e-009
-9.710662e-010
4.033570e-010
1.731441e-009
2.710525e-009
3.167480e-009
3.124448e-009
2.763703e-009
2.287099e-009
1.734917e-009
8.693664e-010
-7.947917e-010
-3.811462e-009
-8.568346e-009
-1.513147e-008
-2.326371e-008
-3.260700e-008
-4.291405e-008
-5.418282e-008
-6.660950e-008
-8.039528e-008
-9.553845e-008
-1.117522e-007
-1.285623e-007
-1.455172e-007
-1.623717e-007
-1.791250e-007
-1.959008e-007
-2.127603e-007
-2.295792e-007
-2.460656e-007
-2.618890e-007
-2.768178e-007
-2.907645e-007
-3.037156e-007
-3.156140e-007
-3.262907e-007
-3.355000e-007
-3.430220e-007
-3.487441e-007
-3.526470e-007
-3.547013e-007
-3.547564e-007
-3.525163e-007
-3.476353e-007
-3.398737e-007
-3.292091e-007
-3.158250e-007
-2.999946e-007
-2.819491e-007
-2.618359e-007
-2.397987e-007
-2.161203e-007
-1.913207e-007
-1.661303e-007
-1.413495e-007
-1.176816e-007
-9.563695e-008
-7.555195e-008
-5.767582e-008
-4.223941e-008
-2.944053e-008
-1.935502e-008
-1.184570e-008
-6.548720e-009
-2.963350e-009
-5.990356e-010
9.053113e-010
1.753132e-009
2.053320e-009
1.916278e-009
1.510782e-009
1.045691e-009
6.971866e-010
5.386455e-010
5.240088e-010
5.356315e-010
4.646409e-010
2.743598e-010
1.316774e-011
-2.226428e-010
-3.470644e-010
-3.282185e-010
-1.973603e-010
-2.548907e-011
1.139216e-010
1.754553e-010
1.537834e-010
7.719218e-011
-9.757435e-012
-6.535611e-011
9.005952e-009
8.103495e-009
6.438969e-009
4.265937e-009
1.907618e-009
-2.892610e-010
-1.996650e-009
-2.947256e-009
-2.983718e-009
-2.112198e-009
-5.393081e-010
1.340422e-009
3.028855e-009
4.066862e-009
4.177713e-009
3.331545e-009
1.675421e-009
-6.582535e-010
-3.774442e-009
-8.141693e-009
-1.453093e-008
-2.377570e-008
-3.647058e-008
-5.277131e-008
-7.240998e-008
-9.491379e-008
-1.198932e-007
-1.472222e-007
-1.770025e-007
-2.093430e-007
-2.441027e-007
-2.807709e-007
-3.185641e-007
-3.566799e-007
-3.945468e-007
-4.319196e-007
-4.687761e-007
-5.050987e-007
-5.406955e-007
-5.751687e-007
-6.080350e-007
-6.388938e-007
-6.675231e-007
-6.938421e-007
-7.177836e-007
-7.391775e-007
-7.577259e-007
-7.730713e-007
-7.848877e-007
-7.929128e-007
-7.968994e-007
-7.965346e-007
-7.914087e-007
-7.810768e-007
-7.651829e-007
-7.435651e-007
-7.162762e-007
-6.835216e-007
-6.455825e-007
-6.028044e-007
-5.556748e-007
-5.049380e-007
-4.516558e-007
-3.971508e-007
-3.428488e-007
-2.901021e-007
-2.400816e-007
-1.937659e-007
-1.519824e-007
-1.154169e-007
-8.454683e-008
-5.952191e-008
-4.007948e-008
-2.557194e-008
-1.512068e-008
-7.829242e-009
-2.951591e-009
5.713611e-011
1.603941e-009
2.063842e-009
1.841949e-009
1.348674e-009
9.121247e-010
6.953794e-010
6.799158e-010
7.295662e-010
6.972978e-010
5.141710e-010
2.168947e-010
-8.882372e-011
-2.960406e-010
-3.520482e-010
-2.744847e-010
-1.287962e-010
1.174528e-011
9.886240e-011
1.212875e-010
9.719372e-011
5.737884e-011
2.969375e-011
6.801026e-009
6.148959e-009
4.930110e-009
3.308042e-009
1.511854e-009
-1.825612e-010
-1.481478e-009
-2.119279e-009
-1.923700e-009
-8.894714e-010
7.670656e-010
2.607145e-009
4.043610e-009
4.475025e-009
3.423080e-009
5.960433e-010
-4.175515e-009
-1.111865e-008
-2.072545e-008
-3.386170e-008
-5.168441e-008
-7.537348e-008
-1.057932e-007
-1.432521e-007
-1.874866e-007
-2.378695e-007
-2.937156e-007
-3.545025e-007
-4.198807e-007
-4.894874e-007
-5.627043e-007
-6.385355e-007
-7.157037e-007
-7.929178e-007
-8.691527e-007
-9.437811e-007
-1.016489e-006
-1.087052e-006
-1.155124e-006
-1.220169e-006
-1.281569e-006
-1.338798e-006
-1.391542e-006
-1.439673e-006
-1.483108e-006
-1.521643e-006
-1.554880e-006
-1.582269e-006
-1.603222e-006
-1.617187e-006
-1.623655e-006
-1.622099e-006
-1.611924e-006
-1.592487e-006
-1.563193e-006
-1.523596e-006
-1.473474e-006
-1.412831e-006
-1.341899e-006
-1.261161e-006
-1.171446e-006
-1.074025e-006
-9.706651e-007
-8.635549e-007
-7.551518e-007
-6.479918e-007
-5.445420e-007
-4.471133e-007
-3.577901e-007
-2.783173e-007
-2.099254e-007
-1.531474e-007
-1.077262e-007
-7.269100e-008
-4.659769e-008
-2.784274e-008
-1.492281e-008
-6.554519e-009
-1.655546e-009
7.356477e-010
1.507933e-009
1.446308e-009
1.145591e-009
9.384863e-010
8.989349e-010
9.308279e-010
8.976030e-010
7.266502e-010
4.440088e-010
1.403630e-010
-9.319066e-011
-2.135172e-010
-2.332722e-010
-1.947754e-010
-1.360459e-010
-7.307509e-011
-5.031835e-012
6.869870e-011
1.367501e-010
1.787080e-010
2.570245e-009
2.339625e-009
1.906493e-009
1.329416e-009
7.005199e-010
1.455678e-010
-1.853419e-010
-1.442203e-010
3.660116e-010
1.324045e-009
2.521137e-009
3.518121e-009
3.653321e-009
2.104828e-009
-2.022251e-009
-9.637001e-009
-2.167931e-008
-3.921514e-008
-6.355214e-008
-9.627756e-008
-1.391362e-007
-1.937433e-007
-2.612238e-007
-3.419336e-007
-4.353891e-007
-5.404368e-007
-6.555627e-007
-7.791780e-007
-9.097437e-007
-1.045712e-006
-1.185383e-006
-1.326833e-006
-1.468006e-006
-1.606956e-006
-1.742111e-006
-1.872399e-006
-1.997184e-006
-2.116041e-006
-2.228538e-006
-2.334135e-006
-2.432254e-006
-2.522435e-006
-2.604452e-006
-2.678286e-006
-2.743966e-006
-2.801365e-006
-2.850096e-006
-2.889531e-006
-2.918936e-006
-2.937588e-006
-2.944822e-006
-2.939974e-006
-2.922302e-006
-2.890949e-006
-2.844987e-006
-2.783514e-006
-2.705755e-006
-2.611144e-006
-2.499387e-006
-2.370554e-006
-2.225222e-006
-2.064629e-006
-1.890790e-006
-1.706531e-006
-1.515415e-006
-1.321604e-006
-1.129673e-006
-9.443949e-007
-7.704453e-007
-6.120199e-007
-4.723956e-007
-3.535429e-007
-2.559283e-007
-1.785960e-007
-1.195076e-007
-7.601777e-008
-4.531710e-008
-2.472683e-008
-1.182377e-008
-4.463255e-009
-7.901628e-010
7.131427e-010
1.159522e-009
1.227891e-009
1.217233e-009
1.178406e-009
1.069848e-009
8.711749e-010
6.188815e-010
3.769713e-010
1.885569e-010
5.286058e-011
-5.797449e-011
-1.617003e-010
-2.417400e-010
-2.563013e-010
-1.738719e-010
-7.499949e-012
1.792937e-010
3.019929e-010
-2.458167e-009
-2.170403e-009
-1.629023e-009
-8.943630e-010
-3.980182e-011
8.624414e-010
1.751700e-009
2.578549e-009
3.283532e-009
3.744062e-009
3.686165e-009
2.573858e-009
-4.941833e-010
-6.846369e-009
-1.823883e-008
-3.680293e-008
-6.496812e-008
-1.053835e-007
-1.608294e-007
-2.340764e-007
-3.276400e-007
-4.434276e-007
-5.823441e-007
-7.439864e-007
-9.265565e-007
-1.127048e-006
-1.341644e-006
-1.566187e-006
-1.796546e-006
-2.028819e-006
-2.259382e-006
-2.484899e-006
-2.702384e-006
-2.909350e-006
-3.103963e-006
-3.285118e-006
-3.452344e-006
-3.605590e-006
-3.744979e-006
-3.870661e-006
-3.982814e-006
-4.081744e-006
-4.167972e-006
-4.242201e-006
-4.305158e-006
-4.357383e-006
-4.399099e-006
-4.430231e-006
-4.450546e-006
-4.459813e-006
-4.457865e-006
-4.444524e-006
-4.419459e-006
-4.382029e-006
-4.331213e-006
-4.265611e-006
-4.183492e-006
-4.082852e-006
-3.961503e-006
-3.817216e-006
-3.647983e-006
-3.452368e-006
-3.229942e-006
-2.981704e-006
-2.710425e-006
-2.420846e-006
-2.119666e-006
-1.815245e-006
-1.516993e-006
-1.234432e-006
-9.761083e-007
-7.485572e-007
-5.556031e-007
-3.981734e-007
-2.746315e-007
-1.814700e-007
-1.141162e-007
-6.763644e-008
-3.723709e-008
-1.857599e-008
-7.950366e-009
-2.411786e-009
1.881076e-010
1.244381e-009
1.544794e-009
1.478178e-009
1.235524e-009
9.404435e-010
6.891650e-010
5.313940e-010
4.483279e-010
3.688856e-010
2.241933e-010
4.459230e-012
-2.236190e-010
-3.544857e-010
-3.135098e-010
-1.127590e-010
1.455535e-010
3.228013e-010
-6.917148e-009
-6.088680e-009
-4.544420e-009
-2.488019e-009
-1.806981e-010
2.091159e-009
4.038890e-009
5.379518e-009
5.818599e-009
4.987718e-009
2.314220e-009
-3.181503e-009
-1.312906e-008
-3.002211e-008
-5.732068e-008
-9.938208e-008
-1.612083e-007
-2.480421e-007
-3.648623e-007
-5.158223e-007
-7.036683e-007
-9.291866e-007
-1.190771e-006
-1.484230e-006
-1.802942e-006
-2.138397e-006
-2.481039e-006
-2.821229e-006
-3.150102e-006
-3.460152e-006
-3.745491e-006
-4.001852e-006
-4.226456e-006
-4.417872e-006
-4.575893e-006
-4.701416e-006
-4.796253e-006
-4.862870e-006
-4.904092e-006
-4.922865e-006
-4.922144e-006
-4.904893e-006
-4.874139e-006
-4.832962e-006
-4.784382e-006
-4.731202e-006
-4.675906e-006
-4.620705e-006
-4.567704e-006
-4.519096e-006
-4.477219e-006
-4.444431e-006
-4.422792e-006
-4.413673e-006
-4.417371e-006
-4.432762e-006
-4.457016e-006
-4.485352e-006
-4.510896e-006
-4.524720e-006
-4.516207e-006
-4.473802e-006
-4.386175e-006
-4.243691e-006
-4.040013e-006
-3.773570e-006
-3.448586e-006
-3.075371e-006
-2.669625e-006
-2.250740e-006
-1.839303e-006
-1.454322e-006
-1.110797e-006
-8.181983e-007
-5.801108e-007
-3.949467e-007
-2.573356e-007
-1.597182e-007
-9.377325e-008
-5.149164e-008
-2.587335e-008
-1.129201e-008
-3.584229e-009
8.221467e-011
1.490803e-009
1.713415e-009
1.402175e-009
9.709344e-010
6.636675e-010
5.623786e-010
6.032460e-010
6.402970e-010
5.440720e-010
2.850219e-010
-4.740905e-011
-3.014478e-010
-3.595118e-010
-2.136303e-010
2.760919e-011
2.047634e-010
-9.749786e-009
-8.409134e-009
-5.952354e-009
-2.772033e-009
6.525456e-010
3.819825e-009
6.225871e-009
7.333982e-009
6.495812e-009
2.813156e-009
-5.085613e-009
-1.937017e-008
-4.340021e-008
-8.207901e-008
-1.420084e-007
-2.312852e-007
-3.588421e-007
-5.333451e-007
-7.617706e-007
-1.047884e-006
-1.390896e-006
-1.784588e-006
-2.217130e-006
-2.671706e-006
-3.127913e-006
-3.563721e-006
-3.957673e-006
-4.290934e-006
-4.548843e-006
-4.721730e-006
-4.804971e-006
-4.798406e-006
-4.705429e-006
-4.532035e-006
-4.286020e-006
-3.976415e-006
-3.613073e-006
-3.206315e-006
-2.766572e-006
-2.304049e-006
-1.828483e-006
-1.349072e-006
-8.745351e-007
-4.132335e-007
2.675847e-008
4.376241e-007
8.117477e-007
1.141544e-006
1.419180e-006
1.636304e-006
1.783974e-006
1.852899e-006
1.834031e-006
1.719420e-006
1.503254e-006
1.182994e-006
7.605723e-007
2.436032e-007
-3.535431e-007
-1.009019e-006
-1.693451e-006
-2.370862e-006
-3.000800e-006
-3.541667e-006
-3.955059e-006
-4.210606e-006
-4.290544e-006
-4.193071e-006
-3.933566e-006
-3.543027e-006
-3.063699e-006
-2.542665e-006
-2.024772e-006
-1.546596e-006
-1.132742e-006
-7.950291e-007
-5.341626e-007
-3.429098e-007
-2.096266e-007
-1.212950e-007
-6.566662e-008
-3.247099e-008
-1.384788e-008
-4.229436e-009
9.196373e-011
1.493957e-009
1.485633e-009
1.013707e-009
6.180735e-010
5.062437e-010
6.279710e-010
7.922608e-010
8.099741e-010
6.063815e-010
2.529127e-010
-9.025832e-011
-2.790827e-010
-2.714698e-010
-1.432867e-010
-2.914845e-011
-1.047829e-008
-8.677367e-009
-5.461316e-009
-1.481248e-009
2.513990e-009
5.791531e-009
7.624095e-009
7.144302e-009
3.093827e-009
-6.504314e-009
-2.474966e-008
-5.635000e-008
-1.081400e-007
-1.894712e-007
-3.121917e-007
-4.898777e-007
-7.360508e-007
-1.061348e-006
-1.469973e-006
-1.956170e-006
-2.501695e-006
-3.075226e-006
-3.634189e-006
-4.128821e-006
-4.507691e-006
-4.723528e-006
-4.738267e-006
-4.526491e-006
-4.076899e-006
-3.391821e-006
-2.485169e-006
-1.379446e-006
-1.025292e-007
1.315173e-006
2.842810e-006
4.450366e-006
6.109295e-006
7.792820e-006
9.476136e-006
1.113662e-005
1.275397e-005
1.431011e-005
1.578884e-005
1.717532e-005
1.845550e-005
1.961565e-005
2.064189e-005
2.151973e-005
2.223348e-005
2.276576e-005
2.309726e-005
2.320693e-005
2.307280e-005
2.267321e-005
2.198860e-005
2.100366e-005
1.971000e-005
1.810916e-005
1.621599e-005
1.406193e-005
1.169767e-005
9.194427e-006
6.642823e-006
4.148761e-006
1.825709e-006
-2.162460e-007
-1.883461e-006
-3.111773e-006
-3.876719e-006
-4.198145e-006
-4.137246e-006
-3.785953e-006
-3.250801e-006
-2.635250e-006
-2.024900e-006
-1.478917e-006
-1.028638e-006
-6.819725e-007
-4.308190e-007
-2.586953e-007
-1.467772e-007
-7.771073e-008
-3.741509e-008
-1.545578e-008
-4.604654e-009
-8.472303e-011
1.166104e-009
1.048023e-009
6.495449e-010
4.650437e-010
5.691647e-010
7.995146e-010
9.407247e-010
8.647705e-010
5.856420e-010
2.235839e-010
-8.258822e-011
-2.557643e-010
-3.076577e-010
-3.049445e-010
-9.207547e-009
-7.012992e-009
-3.226904e-009
1.156039e-009
5.035625e-009
7.375017e-009
7.112777e-009
2.793971e-009
-8.004225e-009
-2.934832e-008
-6.765221e-008
-1.323545e-007
-2.364445e-007
-3.965224e-007
-6.318358e-007
-9.615809e-007
-1.399925e-006
-1.948865e-006
-2.590154e-006
-3.278676e-006
-3.940090e-006
-4.474774e-006
-4.768221e-006
-4.705847e-006
-4.188716e-006
-3.146608e-006
-1.545878e-006
6.087776e-007
3.278032e-006
6.395540e-006
9.877474e-006
1.363210e-005
1.756786e-005
2.159929e-005
2.565035e-005
2.965585e-005
3.356139e-005
3.732257e-005
4.090404e-005
4.427855e-005
4.742603e-005
5.033243e-005
5.298830e-005
5.538714e-005
5.752390e-005
5.939380e-005
6.099131e-005
6.230935e-005
6.333832e-005
6.406507e-005
6.447199e-005
6.453630e-005
6.422966e-005
6.351812e-005
6.236248e-005
6.071934e-005
5.854327e-005
5.579077e-005
5.242667e-005
4.843311e-005
4.382108e-005
3.864281e-005
3.300283e-005
2.706388e-005
2.104423e-005
1.520336e-005
9.815694e-006
5.135246e-006
1.357627e-006
-1.411818e-006
-3.174923e-006
-4.036948e-006
-4.181918e-006
-3.833428e-006
-3.212034e-006
-2.500843e-006
-1.826994e-006
-1.260237e-006
-8.239390e-007
-5.113289e-007
-3.007615e-007
-1.667097e-007
-8.598104e-008
-4.022221e-008
-1.616296e-008
-4.804984e-009
-3.356513e-010
8.336287e-010
7.779170e-010
5.484566e-010
5.252848e-010
6.986712e-010
9.000109e-010
9.689066e-010
8.390249e-010
5.454887e-010
1.815551e-010
-1.561031e-010
-4.023639e-010
-5.287013e-010
-6.403080e-009
-3.919531e-009
1.804232e-010
4.473826e-009
7.389243e-009
7.402852e-009
2.792387e-009
-9.095610e-009
-3.292925e-008
-7.660319e-008
-1.523587e-007
-2.775786e-007
-4.748553e-007
-7.705434e-007
-1.190521e-006
-1.751732e-006
-2.448885e-006
-3.237912e-006
-4.020827e-006
-4.638925e-006
-4.880514e-006
-4.505234e-006
-3.280847e-006
-1.023419e-006
2.369548e-006
6.901061e-006
1.247458e-005
1.890990e-005
2.596958e-005
3.338951e-005
4.090744e-005
4.828514e-005
5.532239e-005
6.186293e-005
6.779455e-005
7.304553e-005
7.757956e-005
8.139026e-005
8.449595e-005
8.693481e-005
8.876013e-005
9.003587e-005
9.083229e-005
9.122223e-005
9.127856e-005
9.107286e-005
9.067528e-005
9.015470e-005
8.957849e-005
8.901137e-005
8.851286e-005
8.813314e-005
8.790693e-005
8.784509e-005
8.792444e-005
8.807636e-005
8.817639e-005
8.803763e-005
8.741215e-005
8.600463e-005
8.350185e-005
7.961840e-005
7.415475e-005
6.705750e-005
5.846740e-005
4.873884e-005
3.841798e-005
2.817586e-005
1.870482e-005
1.060023e-005
4.258129e-006
-1.827150e-007
-2.839442e-006
-4.027556e-006
-4.166970e-006
-3.682412e-006
-2.926757e-006
-2.143262e-006
-1.465825e-006
-9.437496e-007
-5.741977e-007
-3.300652e-007
-1.783328e-007
-8.945243e-008
-4.062791e-008
-1.583893e-008
-4.566836e-009
-2.886160e-010
8.084132e-010
7.811140e-010
5.947830e-010
5.756105e-010
7.169417e-010
8.818873e-010
9.290488e-010
7.803903e-010
4.454969e-010
1.232355e-011
-3.871342e-010
-6.251984e-010
-2.585290e-009
-8.041576e-012
3.991507e-009
7.489350e-009
8.267388e-009
3.948677e-009
-8.537228e-009
-3.422673e-008
-8.191869e-008
-1.660919e-007
-3.084263e-007
-5.382043e-007
-8.903472e-007
-1.398960e-006
-2.083518e-006
-2.925524e-006
-3.837103e-006
-4.629725e-006
-4.997897e-006
-4.533947e-006
-2.782220e-006
6.739986e-007
6.113961e-006
1.359728e-005
2.292196e-005
3.363332e-005
4.508061e-005
5.650589e-005
6.714283e-005
7.630391e-005
8.344187e-005
8.817967e-005
9.031163e-005
8.978407e-005
8.666667e-005
8.112350e-005
7.338876e-005
6.374760e-005
5.252061e-005
4.005024e-005
2.668840e-005
1.278547e-005
-1.318169e-006
-1.529692e-005
-2.884018e-005
-4.164807e-005
-5.342412e-005
-6.386711e-005
-7.266451e-005
-7.948961e-005
-8.400423e-005
-8.586861e-005
-8.476035e-005
-8.040387e-005
-7.261098e-005
-6.133199e-005
-4.671397e-005
-2.915941e-005
-9.373864e-006
1.161347e-005
3.247482e-005
5.167135e-005
6.761055e-005
7.886451e-005
8.441735e-005
8.388807e-005
7.766255e-005
6.687702e-005
5.323204e-005
3.867061e-005
2.500165e-005
1.357448e-005
5.098543e-006
-3.581940e-007
-3.223308e-006
-4.192607e-006
-4.002306e-006
-3.265036e-006
-2.396719e-006
-1.622434e-006
-1.026416e-006
-6.109129e-007
-3.425077e-007
-1.800532e-007
-8.762912e-008
-3.841251e-008
-1.423086e-008
-3.630524e-009
1.796684e-010
9.975343e-010
8.061589e-010
5.288782e-010
4.814957e-010
6.427320e-010
8.356419e-010
8.692566e-010
6.458027e-010
2.124499e-010
-2.606317e-010
-5.660696e-010
1.889063e-009
4.207965e-009
7.405450e-009
8.987325e-009
5.815144e-009
-5.991227e-009
-3.207303e-008
-8.185306e-008
-1.712247e-007
-3.251841e-007
-5.792140e-007
-9.773947e-007
-1.563738e-006
-2.361526e-006
-3.335457e-006
-4.336592e-006
-5.042746e-006
-4.923249e-006
-3.265497e-006
7.103121e-007
7.653977e-006
1.784926e-005
3.100870e-005
4.616802e-005
6.172389e-005
7.562366e-005
8.566099e-005
8.979681e-005
8.642982e-005
7.456435e-005
5.385593e-005
2.454880e-005
-1.265680e-005
-5.676084e-005
-1.066038e-004
-1.609691e-004
-2.186456e-004
-2.784619e-004
-3.393059e-004
-4.001390e-004
-4.600085e-004
-5.180565e-004
-5.735209e-004
-6.257282e-004
-6.740743e-004
-7.179982e-004
-7.569493e-004
-7.903554e-004
-8.175951e-004
-8.379769e-004
-8.507295e-004
-8.550050e-004
-8.498977e-004
-8.344851e-004
-8.078941e-004
-7.694006e-004
-7.185671e-004
-6.554181e-004
-5.806462e-004
-4.958222e-004
-4.035623e-004
-3.075870e-004
-2.125976e-004
-1.239118e-004
-4.684199e-005
1.412475e-005
5.619394e-005
7.892631e-005
8.441158e-005
7.679471e-005
6.127966e-005
4.296021e-005
2.583979e-005
1.231549e-005
3.199412e-006
-1.885609e-006
-3.957781e-006
-4.173534e-006
-3.496143e-006
-2.564321e-006
-1.712295e-006
-1.061313e-006
-6.164619e-007
-3.363604e-007
-1.715674e-007
-8.057776e-008
-3.363787e-008
-1.140847e-008
-2.182640e-009
7.459947e-010
1.046931e-009
6.173989e-010
3.126089e-010
3.562778e-010
6.112246e-010
8.082134e-010
7.430006e-010
3.972234e-010
-5.899800e-011
-3.755119e-010
6.843712e-009
8.335994e-009
9.606374e-009
7.482939e-009
-2.545563e-009
-2.692997e-008
-7.583216e-008
-1.661060e-007
-3.249064e-007
-5.924885e-007
-1.021355e-006
-1.666472e-006
-2.557924e-006
-3.645575e-006
-4.711228e-006
-5.264371e-006
-4.471458e-006
-1.196941e-006
5.772041e-006
1.730272e-005
3.336929e-005
5.253949e-005
7.168817e-005
8.611997e-005
9.017887e-005
7.819940e-005
4.553938e-005
-1.059300e-005
-9.075663e-005
-1.933914e-004
-3.152902e-004
-4.522253e-004
-5.995578e-004
-7.527254e-004
-9.075615e-004
-1.060458e-003
-1.208417e-003
-1.349039e-003
-1.480496e-003
-1.601488e-003
-1.711205e-003
-1.809260e-003
-1.895621e-003
-1.970521e-003
-2.034376e-003
-2.087701e-003
-2.131037e-003
-2.164901e-003
-2.189726e-003
-2.205826e-003
-2.213334e-003
-2.212135e-003
-2.201775e-003
-2.181343e-003
-2.149345e-003
-2.103591e-003
-2.041150e-003
-1.958440e-003
-1.851567e-003
-1.716998e-003
-1.552598e-003
-1.358928e-003
-1.140483e-003
-9.063633e-004
-6.698834e-004
-4.468859e-004
-2.529952e-004
-1.004611e-004
4.575856e-006
6.348608e-005
8.440272e-005
7.940026e-005
6.096810e-005
3.919758e-005
2.039342e-005
7.201807e-006
-3.529167e-007
-3.610317e-006
-4.237971e-006
-3.617213e-006
-2.632887e-006
-1.725531e-006
-1.044095e-006
-5.901832e-007
-3.124794e-007
-1.539595e-007
-6.917663e-008
-2.700035e-008
-7.998073e-009
-7.877239e-010
1.004747e-009
8.049354e-010
3.072525e-010
1.538912e-010
3.585424e-010
6.439306e-010
7.301761e-010
5.251166e-010
1.615576e-010
-1.130666e-010
1.209588e-008
1.193667e-008
9.609970e-009
1.039360e-009
-2.041087e-008
-6.540430e-008
-1.514717e-007
-3.070670e-007
-5.756227e-007
-1.016417e-006
-1.695437e-006
-2.653739e-006
-3.835506e-006
-4.962030e-006
-5.365930e-006
-3.859737e-006
1.217206e-006
1.160499e-005
2.828951e-005
5.031143e-005
7.353341e-005
8.988179e-005
8.772280e-005
5.370545e-005
-2.430316e-005
-1.539927e-004
-3.363540e-004
-5.652512e-004
-8.285670e-004
-1.110230e-003
-1.392610e-003
-1.658866e-003
-1.894834e-003
-2.090128e-003
-2.238429e-003
-2.337198e-003
-2.387114e-003
-2.391429e-003
-2.355306e-003
-2.285151e-003
-2.187972e-003
-2.070821e-003
-1.940373e-003
-1.802681e-003
-1.663098e-003
-1.526333e-003
-1.396587e-003
-1.277743e-003
-1.173535e-003
-1.087696e-003
-1.024041e-003
-9.864654e-004
-9.788321e-004
-1.004716e-003
-1.066945e-003
-1.166878e-003
-1.303343e-003
-1.471215e-003
-1.659733e-003
-1.850934e-003
-2.019041e-003
-2.132049e-003
-2.156826e-003
-2.067931e-003
-1.857964e-003
-1.544698e-003
-1.169801e-003
-7.877185e-004
-4.496394e-004
-1.904796e-004
-2.288661e-005
6.174499e-005
8.579406e-005
7.514102e-005
5.130051e-005
2.784022e-005
1.075856e-005
9.168459e-007
-3.338414e-006
-4.249109e-006
-3.632758e-006
-2.598094e-006
-1.661059e-006
-9.772110e-007
-5.357555e-007
-2.741905e-007
-1.297187e-007
-5.518835e-008
-1.975089e-008
-4.838274e-009
1.258858e-010
9.135577e-010
4.863937e-010
1.401234e-010
1.885987e-010
4.499869e-010
6.293007e-010
5.732249e-010
3.490801e-010
1.561019e-010
1.717065e-008
1.425487e-008
6.008044e-009
-1.300864e-008
-5.275126e-008
-1.304599e-007
-2.748449e-007
-5.309550e-007
-9.628638e-007
-1.646792e-006
-2.639147e-006
-3.893676e-006