# vtk DataFile Version 3.0
vtk output
ASCII
DATASET STRUCTURED_POINTS
DIMENSIONS 100 100 1
SPACING 1 1 1
ORIGIN 0 0 0
POINT_DATA 10000
SCALARS SFBox_profile double
LOOKUP_TABLE default 
0.000000e+000
0.000000e+000
0.000000e+000
0.000000e+000
0.000000e+000
0.000000e+000
0.000000e+000
0.000000e+000
0.000000e+000
0.000000e+000
0.000000e+000
0.000000e+000
0.000000e+000
0.000000e+000
0.000000e+000
0.000000e+000
0.000000e+000
0.000000e+000
0.000000e+000
0.000000e+000
0.000000e+000
0.000000e+000
0.000000e+000
0.000000e+000
0.000000e+000
0.000000e+000
0.000000e+000
0.000000e+000
0.000000e+000
0.000000e+000
0.000000e+000
0.000000e+000
0.000000e+000
0.000000e+000
0.000000e+000
0.000000e+000
0.000000e+000
0.000000e+000
0.000000e+000
0.000000e+000
0.000000e+000
0.000000e+000
0.000000e+000
0.000000e+000
0.000000e+000
0.000000e+000
0.000000e+000
0.000000e+000
0.000000e+000
0.000000e+000
0.000000e+000
0.000000e+000
0.000000e+000
0.000000e+000
0.000000e+000
0.000000e+000
0.000000e+000
0.000000e+000
0.000000e+000
0.000000e+000
0.000000e+000
0.000000e+000
0.000000e+000
0.000000e+000
0.000000e+000
0.000000e+000
0.000000e+000
0.000000e+000
0.000000e+000
0.000000e+000
0.000000e+000
0.000000e+000
0.000000e+000
0.000000e+000
0.000000e+000
0.000000e+000
0.000000e+000
0.000000e+000
0.000000e+000
0.000000e+000
0.000000e+000
0.000000e+000
0.000000e+000
0.000000e+000
0.000000e+000
0.000000e+000
0.000000e+000
0.000000e+000
0.000000e+000
0.000000e+000
0.000000e+000
0.000000e+000
0.000000e+000
0.000000e+000
0.000000e+000
0.000000e+000
0.000000e+000
0.000000e+000
0.000000e+000
0.000000e+000
-1.634476e-007
-1.062643e-007
-2.306979e-008
4.354956e-008
6.541055e-008
4.328159e-008
1.662436e-009
-3.039194e-008
-3.762565e-008
-2.396171e-008
-3.956673e-009
1.030979e-008
1.608102e-008
1.705275e-008
1.619790e-008
1.224356e-008
2.625753e-009
-1.130294e-008
-2.305823e-008
-2.553901e-008
-1.695533e-008
-2.405280e-009
1.031175e-008
1.654739e-008
1.704565e-008
1.525940e-008
1.318491e-008
9.965517e-009
4.043700e-009
-4.097171e-009
-1.172807e-008
-1.621257e-008
-1.716358e-008
-1.619867e-008
-1.488456e-008
-1.328035e-008
-1.047676e-008
-6.153020e-009
-1.221152e-009
3.045875e-009
6.201216e-009
8.750478e-009
1.126156e-008
1.365138e-008
1.542457e-008
1.638150e-008
1.684215e-008
1.719690e-008
1.746706e-008
1.742703e-008
1.701433e-008
1.640651e-008
1.569158e-008
1.466604e-008
1.309412e-008
1.105856e-008
8.857702e-009
6.546132e-009
3.787121e-009
3.263686e-010
-3.479067e-009
-6.830997e-009
-9.249566e-009
-1.097167e-008
-1.239747e-008
-1.322095e-008
-1.241987e-008
-9.316216e-009
-4.536087e-009
3.454506e-010
4.184362e-009
7.084210e-009
9.631743e-009
1.144016e-008
1.088276e-008
6.657770e-009
-3.615568e-010
-7.131240e-009
-1.058978e-008
-9.921122e-009
-6.691657e-009
-2.880828e-009
9.175227e-010
5.120469e-009
9.179643e-009
1.061194e-008
6.769834e-009
-1.969275e-009
-1.094557e-008
-1.390127e-008
-7.928160e-009
3.528797e-009
1.259995e-008
1.275038e-008
3.879344e-009
-7.413512e-009
-1.275521e-008
-8.335594e-009
2.247576e-009
1.079948e-008
-2.751739e-008
-1.603183e-008
-2.563540e-010
1.036184e-008
1.051820e-008
2.370424e-009
-6.531705e-009
-9.082224e-009
-3.798642e-009
4.540142e-009
9.096656e-009
6.481428e-009
-8.920278e-010
-7.264580e-009
-8.375210e-009
-4.463705e-009
8.151845e-010
4.025921e-009
4.558114e-009
4.082197e-009
4.000240e-009
3.808754e-009
1.968740e-009
-1.927676e-009
-6.199740e-009
-8.391074e-009
-7.435936e-009
-4.429472e-009
-1.339689e-009
8.390508e-010
2.584076e-009
4.719069e-009
7.133110e-009
8.781231e-009
8.815708e-009
7.458532e-009
5.670302e-009
4.119541e-009
2.668592e-009
8.469908e-010
-1.395664e-009
-3.571243e-009
-5.204957e-009
-6.303610e-009
-7.204841e-009
-8.095349e-009
-8.832332e-009
-9.217102e-009
-9.278923e-009
-9.194968e-009
-9.019521e-009
-8.633612e-009
-7.963606e-009
-7.113822e-009
-6.198464e-009
-5.127047e-009
-3.699376e-009
-1.924824e-009
-1.147246e-010
1.436144e-009
2.781366e-009
4.184959e-009
5.631229e-009
6.623959e-009
6.619743e-009
5.627789e-009
4.221897e-009
2.892624e-009
1.518156e-009
-3.455030e-010
-2.648273e-009
-4.515410e-009
-4.921507e-009
-3.699694e-009
-1.746161e-009
-1.465235e-010
8.139464e-010
1.642783e-009
2.675025e-009
3.334865e-009
2.599310e-009
2.599662e-010
-2.427973e-009
-3.584804e-009
-2.352299e-009
2.539367e-010
2.171350e-009
2.054665e-009
3.467408e-010
-1.270403e-009
-1.435428e-009
-2.163679e-010
1.136723e-009
1.404817e-009
4.180326e-010
-9.323069e-010
-1.533096e-009
-9.399960e-010
3.574944e-010
1.377130e-009
1.294163e-007
8.616752e-008
2.235235e-008
-3.080033e-008
-5.185683e-008
-3.949211e-008
-9.249948e-009
1.882941e-008
3.195401e-008
2.856660e-008
1.464139e-008
-2.362776e-009
-1.690400e-008
-2.535770e-008
-2.523717e-008
-1.587115e-008
6.745265e-011
1.654529e-008
2.679797e-008
2.700475e-008
1.816191e-008
4.819485e-009
-7.998111e-009
-1.716850e-008
-2.178450e-008
-2.208239e-008
-1.853066e-008
-1.180990e-008
-3.166127e-009
5.675767e-009
1.313247e-008
1.831908e-008
2.106339e-008
2.153266e-008
1.995710e-008
1.665440e-008
1.213389e-008
7.020101e-009
1.839452e-009
-3.094839e-009
-7.608872e-009
-1.155162e-008
-1.479192e-008
-1.729654e-008
-1.915052e-008
-2.048017e-008
-2.137361e-008
-2.187820e-008
-2.203827e-008
-2.189962e-008
-2.148139e-008
-2.076974e-008
-1.974097e-008
-1.836609e-008
-1.658506e-008
-1.430790e-008
-1.147705e-008
-8.128835e-009
-4.374600e-009
-3.320541e-010
3.877749e-009
8.036404e-009
1.175999e-008
1.457834e-008
1.610260e-008
1.610473e-008
1.446068e-008
1.111852e-008
6.236546e-009
3.790602e-010
-5.496611e-009
-1.033122e-008
-1.327950e-008
-1.378914e-008
-1.153663e-008
-6.560447e-009
3.348391e-010
7.348835e-009
1.215819e-008
1.301284e-008
9.680115e-009
3.497051e-009
-3.405743e-009
-8.949888e-009
-1.146840e-008
-9.841079e-009
-4.019545e-009
4.144891e-009
1.084671e-008
1.202237e-008
6.225604e-009
-3.534361e-009
-1.106655e-008
-1.113697e-008
-3.545119e-009
6.287298e-009
1.112808e-008
7.430537e-009
-1.833843e-009
-9.410076e-009
1.776323e-007
1.137633e-007
2.204975e-008
-4.914747e-008
-6.944795e-008
-4.232289e-008
2.841375e-009
3.406375e-008
3.713034e-008
1.950833e-008
-1.361982e-009
-1.314552e-008
-1.494426e-008
-1.256235e-008
-1.009132e-008
-6.521345e-009
6.856398e-010
1.041085e-008
1.726057e-008
1.617459e-008
7.311785e-009
-3.802432e-009
-1.087708e-008
-1.161965e-008
-8.403746e-009
-4.965915e-009
-2.908861e-009
-1.241954e-009
1.381199e-009
4.640611e-009
6.828600e-009
6.719471e-009
4.771045e-009
2.486699e-009
8.957847e-010
-1.425898e-010
-1.290755e-009
-2.728786e-009
-3.952189e-009
-4.419566e-009
-4.157292e-009
-3.650963e-009
-3.276271e-009
-2.987668e-009
-2.552560e-009
-1.942132e-009
-1.386201e-009
-1.090030e-009
-1.020136e-009
-1.016142e-009
-1.037929e-009
-1.205469e-009
-1.595933e-009
-2.095344e-009
-2.518764e-009
-2.833918e-009
-3.164514e-009
-3.542054e-009
-3.741800e-009
-3.469314e-009
-2.702486e-009
-1.736719e-009
-8.219505e-010
1.617023e-010
1.511521e-009
3.148882e-009
4.405889e-009
4.544142e-009
3.496858e-009
1.936301e-009
4.981596e-010
-9.329443e-010
-2.911130e-009
-5.323833e-009
-6.841143e-009
-5.848245e-009
-2.112235e-009
2.610710e-009
5.869399e-009
6.498701e-009
5.231193e-009
3.354144e-009
1.067890e-009
-2.379533e-009
-6.781861e-009
-9.640034e-009
-7.587194e-009
1.288844e-010
9.507460e-009
1.382894e-008
8.931681e-009
-2.667317e-009
-1.283832e-008
-1.385723e-008
-4.671207e-009
7.886726e-009
1.422863e-008
9.519653e-009
-2.467856e-009
-1.229813e-008
8.237940e-008
4.717079e-008
-5.168670e-010
-3.147308e-008
-3.039390e-008
-5.361174e-009
2.014500e-008
2.587518e-008
9.416556e-009
-1.405197e-008
-2.544298e-008
-1.696658e-008
3.269834e-009
1.965984e-008
2.202980e-008
1.200899e-008
-1.143177e-009
-9.644619e-009
-1.240007e-008
-1.272364e-008
-1.266714e-008
-1.052176e-008
-3.640522e-009
7.254114e-009
1.736263e-008
2.152565e-008
1.842181e-008
1.106372e-008
3.518843e-009
-2.469807e-009
-7.744616e-009
-1.333152e-008
-1.847559e-008
-2.119864e-008
-2.038955e-008
-1.689902e-008
-1.255218e-008
-8.415138e-009
-4.253444e-009
4.973479e-010
5.640382e-009
1.027477e-008
1.373669e-008
1.618147e-008
1.818417e-008
1.998701e-008
2.133291e-008
2.196008e-008
2.200981e-008
2.182775e-008
2.149905e-008
2.077616e-008
1.946613e-008
1.770100e-008
1.569903e-008
1.336692e-008
1.035271e-008
6.547192e-009
2.367017e-009
-1.619889e-009
-5.277352e-009
-8.879513e-009
-1.241418e-008
-1.509820e-008
-1.586433e-008
-1.438451e-008
-1.140454e-008
-7.897589e-009
-4.027587e-009
7.172087e-010
6.236713e-009
1.094964e-008
1.265808e-008
1.048436e-008
5.796686e-009
9.952066e-010
-2.574281e-009
-5.256837e-009
-7.610777e-009
-8.716762e-009
-6.608937e-009
-7.488433e-010
6.178354e-009
9.613099e-009
6.903595e-009
-7.093970e-012
-5.840142e-009
-6.335974e-009
-1.802122e-009
3.371313e-009
4.706448e-009
1.458554e-009
-3.062515e-009
-4.678104e-009
-2.001593e-009
2.568246e-009
5.098169e-009
3.465243e-009
-9.935326e-010
-4.686416e-009
-7.284385e-008
-5.324886e-008
-2.197513e-008
9.147675e-009
2.959255e-008
3.366306e-008
2.160978e-008
-7.154271e-010
-2.323535e-008
-3.486893e-008
-2.876725e-008
-7.055668e-009
1.901267e-008
3.517978e-008
3.309049e-008
1.540491e-008
-6.882388e-009
-2.252273e-008
-2.678777e-008
-2.204673e-008
-1.322445e-008
-3.387719e-009
6.696752e-009
1.605588e-008
2.199952e-008
2.172870e-008
1.516624e-008
5.586024e-009
-2.874422e-009
-8.264460e-009
-1.139712e-008
-1.376786e-008
-1.542865e-008
-1.510271e-008
-1.204079e-008
-7.227530e-009
-2.568109e-009
8.556515e-010
3.432094e-009
6.027024e-009
8.730783e-009
1.081064e-008
1.171278e-008
1.174801e-008
1.167552e-008
1.184132e-008
1.197339e-008
1.176445e-008
1.137004e-008
1.118476e-008
1.129245e-008
1.138454e-008
1.122556e-008
1.096380e-008
1.082426e-008
1.062767e-008
9.866545e-009
8.301611e-009
6.267189e-009
4.207121e-009
2.026614e-009
-8.059422e-010
-4.412396e-009
-7.976920e-009
-1.032324e-008
-1.099847e-008
-1.052719e-008
-9.466857e-009
-7.453807e-009
-3.575824e-009
2.191652e-009
8.189192e-009
1.204280e-008
1.249188e-008
1.010818e-008
6.207681e-009
1.397936e-009
-4.382386e-009
-1.037429e-008
-1.408750e-008
-1.261232e-008
-5.312141e-009
4.764774e-009
1.244261e-008
1.382224e-008
8.706948e-009
2.881593e-010
-7.164193e-009
-1.053976e-008
-8.827832e-009
-3.071019e-009
3.986846e-009
8.686452e-009
8.166019e-009
2.466152e-009
-4.781263e-009
-8.442389e-009
-5.727733e-009
1.319655e-009
7.162398e-009
-1.637765e-007
-1.043743e-007
-2.000801e-008
4.418343e-008
6.153982e-008
3.720832e-008
-1.669669e-009
-2.803143e-008
-3.122812e-008
-1.775007e-008
-5.844512e-010
1.126182e-008
1.559209e-008
1.373800e-008
7.294027e-009
-1.841475e-009
-1.013840e-008
-1.326923e-008
-9.235024e-009
-4.768299e-010
7.665277e-009
1.092628e-008
8.796211e-009
3.742748e-009
-1.560230e-009
-5.936905e-009
-9.141291e-009
-1.056674e-008
-9.223480e-009
-4.957065e-009
8.451242e-010
6.152242e-009
9.843079e-009
1.216665e-008
1.373594e-008
1.442310e-008
1.349257e-008
1.066697e-008
6.694017e-009
2.708330e-009
-7.806927e-010
-4.058140e-009
-7.455298e-009
-1.072638e-008
-1.329973e-008
-1.496081e-008
-1.603173e-008
-1.687293e-008
-1.743413e-008
-1.742972e-008
-1.681040e-008
-1.583090e-008
-1.464410e-008
-1.304803e-008
-1.078226e-008
-7.957301e-009
-4.980587e-009
-2.055623e-009
1.021083e-009
4.411098e-009
7.707657e-009
1.009935e-008
1.110656e-008
1.096617e-008
1.014596e-008
8.623989e-009
5.938679e-009
2.037883e-009
-2.144432e-009
-5.208464e-009
-6.383492e-009
-5.940441e-009
-4.519307e-009
-2.340162e-009
6.249332e-010
3.773991e-009
5.608378e-009
4.756099e-009
1.343791e-009
-2.807492e-009
-5.457076e-009
-5.411591e-009
-2.879827e-009
1.139056e-009
5.292545e-009
7.737790e-009
6.416812e-009
6.204953e-010
-7.193475e-009
-1.177321e-008
-8.668060e-009
1.388428e-009
1.163426e-008
1.390160e-008
5.526666e-009
-7.560139e-009
-1.500962e-008
-1.054987e-008
2.440771e-009
1.342370e-008
-1.286254e-007
-7.169950e-008
3.739523e-009
4.996210e-008
4.471629e-008
4.512867e-009
-3.233735e-008
-3.711081e-008
-1.064505e-008
2.215389e-008
3.536318e-008
2.187099e-008
-4.930812e-009
-2.531459e-008
-2.867094e-008
-1.789932e-008
-2.517788e-009
1.029776e-008
1.861720e-008
2.263323e-008
2.136222e-008
1.333670e-008
-2.979460e-010
-1.472307e-008
-2.417596e-008
-2.578713e-008
-2.080245e-008
-1.251556e-008
-3.516159e-009
5.142931e-009
1.290993e-008
1.878703e-008
2.168593e-008
2.136117e-008
1.858495e-008
1.439291e-008
9.397082e-009
3.882489e-009
-1.715471e-009
-6.746547e-009
-1.076910e-008
-1.382865e-008
-1.620887e-008
-1.802234e-008
-1.917918e-008
-1.969248e-008
-1.982463e-008
-1.986330e-008
-1.986639e-008
-1.972993e-008
-1.943609e-008
-1.908924e-008
-1.869745e-008
-1.805671e-008
-1.693924e-008
-1.531424e-008
-1.326420e-008
-1.072171e-008
-7.455050e-009
-3.392531e-009
1.139138e-009
5.608704e-009
9.647995e-009
1.307034e-008
1.552039e-008
1.632132e-008
1.487849e-008
1.122082e-008
6.005506e-009
1.072350e-011
-6.140437e-009
-1.161579e-008
-1.499101e-008
-1.474433e-008
-1.047236e-008
-3.554434e-009
3.612919e-009
9.079078e-009
1.194810e-008
1.173612e-008
7.838580e-009
4.344873e-010
-7.960973e-009
-1.271753e-008
-1.018308e-008
-1.373484e-009
7.664595e-009
1.019796e-008
4.539415e-009
-4.168038e-009
-8.239618e-009
-4.242001e-009
3.902281e-009
8.479659e-009
5.046733e-009
-3.467363e-009
-9.378699e-009
-7.200959e-009
1.373195e-009
8.937725e-009
-7.548543e-009
8.804423e-009
2.494390e-008
2.258089e-008
-1.281911e-009
-2.999285e-008
-3.998674e-008
-2.048842e-008
1.639334e-008
4.417677e-008
4.251232e-008
1.282262e-008
-2.359046e-008
-4.264770e-008
-3.502964e-008
-1.029052e-008
1.367741e-008
2.486174e-008
2.305306e-008
1.504088e-008
6.424535e-009
-1.665954e-009
-9.698273e-009
-1.604002e-008
-1.730858e-008
-1.199215e-008
-2.706541e-009
5.643224e-009
9.755304e-009
9.836955e-009
8.076340e-009
5.949144e-009
3.298360e-009
-4.219149e-010
-4.744245e-009
-8.309554e-009
-1.009253e-008
-1.015266e-008
-9.204212e-009
-7.755469e-009
-5.831238e-009
-3.362786e-009
-5.688723e-010
2.124231e-009
4.407160e-009
6.225731e-009
7.645179e-009
8.676364e-009
9.248202e-009
9.288853e-009
8.796270e-009
7.842629e-009
6.519917e-009
4.869040e-009
2.871839e-009
5.533670e-010
-1.900517e-009
-4.182414e-009
-6.058681e-009
-7.470669e-009
-8.362005e-009
-8.450945e-009
-7.349678e-009
-5.020570e-009
-2.017147e-009
8.984464e-010
3.362732e-009
5.428037e-009
6.881400e-009
6.810593e-009
4.280986e-009
-3.960791e-010
-5.334706e-009
-8.357039e-009
-8.635220e-009
-6.857982e-009
-3.819502e-009
6.148554e-010
6.546961e-009
1.212249e-008
1.347443e-008
7.719601e-009
-3.468218e-009
-1.368173e-008
-1.612532e-008
-9.044523e-009
2.668234e-009
1.124732e-008
1.188459e-008
5.694982e-009
-2.136867e-009
-6.707579e-009
-6.417159e-009
-2.883546e-009
1.105741e-009
3.464866e-009
3.479034e-009
1.617938e-009
-8.981686e-010
-2.639593e-009
1.046418e-007
7.082313e-008
2.099815e-008
-2.094063e-008
-3.917496e-008
-3.252871e-008
-1.109666e-008
1.166485e-008
2.508696e-008
2.400502e-008
9.831570e-009
-9.437386e-009
-2.222436e-008
-2.008079e-008
-4.179505e-009
1.447606e-008
2.278685e-008
1.543926e-008
-1.524270e-009
-1.636135e-008
-2.098553e-008
-1.566264e-008
-6.025235e-009
3.091105e-009
1.052418e-008
1.671363e-008
2.057934e-008
1.954649e-008
1.245602e-008
1.561184e-009
-8.895821e-009
-1.594618e-008
-1.950705e-008
-2.103707e-008
-2.124670e-008
-1.948669e-008
-1.507950e-008
-8.639488e-009
-1.799641e-009
4.150310e-009
9.064966e-009
1.344933e-008
1.749733e-008
2.082206e-008
2.301062e-008
2.417403e-008
2.483223e-008
2.536079e-008
2.569484e-008
2.558036e-008
2.498493e-008
2.414125e-008
2.319551e-008
2.193285e-008
1.995503e-008
1.711193e-008
1.364172e-008
9.819870e-009
5.573551e-009
6.382878e-010
-4.836747e-009
-9.999460e-009
-1.381480e-008
-1.586906e-008
-1.645425e-008
-1.576601e-008
-1.327477e-008
-8.294294e-009
-1.280415e-009
5.756159e-009
1.050875e-008
1.207629e-008
1.119120e-008
8.773768e-009
4.745780e-009
-1.191459e-009
-7.676099e-009
-1.135702e-008
-9.315437e-009
-2.135623e-009
5.735108e-009
9.179217e-009
6.346547e-009
-2.222026e-010
-5.960086e-009
-7.586979e-009
-4.642045e-009
1.067854e-009
6.610782e-009
8.837028e-009
5.665821e-009
-2.023738e-009
-9.605706e-009
-1.113248e-008
-4.236447e-009
6.718431e-009
1.314121e-008
9.282567e-009
-2.255255e-009
-1.212626e-008
1.381769e-007
7.555707e-008
-5.986227e-009
-5.373677e-008
-4.563859e-008
-2.505611e-009
3.424745e-008
3.711715e-008
1.005404e-008
-2.151041e-008
-3.439635e-008
-2.348839e-008
6.878966e-011
2.112537e-008
3.035343e-008
2.597166e-008
1.096050e-008
-8.947542e-009
-2.599040e-008
-3.260376e-008
-2.562174e-008
-8.880304e-009
9.098338e-009
2.088649e-008
2.428878e-008
2.157055e-008
1.566499e-008
7.807251e-009
-1.517726e-009
-1.059358e-008
-1.655313e-008
-1.758495e-008
-1.452582e-008
-9.889065e-009
-5.493004e-009
-1.359891e-009
3.183998e-009
7.889330e-009
1.146273e-008
1.290595e-008
1.254187e-008
1.153390e-008
1.061904e-008
9.595128e-009
8.007042e-009
6.008786e-009
4.322452e-009
3.455656e-009
3.230070e-009
3.177171e-009
3.220510e-009
3.746222e-009
5.004922e-009
6.664272e-009
8.118555e-009
9.147873e-009
1.003087e-008
1.092075e-008
1.131010e-008
1.037879e-008
7.890069e-009
4.505497e-009
1.053938e-009
-2.334534e-009
-6.038921e-009
-9.842995e-009
-1.237284e-008
-1.202968e-008
-8.510407e-009
-3.134834e-009
2.426522e-009
7.435163e-009
1.176846e-008
1.452706e-008
1.369309e-008
7.840171e-009
-1.744277e-009
-1.103780e-008
-1.575397e-008
-1.405035e-008
-7.170537e-009
1.866729e-009
9.681750e-009
1.315060e-008
1.021707e-008
1.659958e-009
-7.788337e-009
-1.157323e-008
-6.468873e-009
3.652818e-009
1.007340e-008
6.772787e-009
-3.466917e-009
-1.092321e-008
-7.920770e-009
3.414583e-009
1.258045e-008
1.053155e-008
-1.412646e-009
-1.245993e-008
8.957929e-008
3.451565e-008
-3.068894e-008
-5.496738e-008
-2.409493e-008
2.959943e-008
5.756777e-008
3.684379e-008
-1.323115e-008
-5.114478e-008
-4.922899e-008
-1.359337e-008
2.595670e-008
4.260537e-008
3.114025e-008
5.747467e-009
-1.560467e-008
-2.393794e-008
-2.050708e-008
-1.059828e-008
1.358324e-009
1.196014e-008
1.761194e-008
1.562930e-008
6.766024e-009
-4.466346e-009
-1.283090e-008
-1.582422e-008
-1.422390e-008
-9.874718e-009
-3.735126e-009
3.826603e-009
1.165125e-008
1.765414e-008
2.029514e-008
1.977083e-008
1.742728e-008
1.418551e-008
9.913586e-009
4.321995e-009
-1.987374e-009
-7.736521e-009
-1.212984e-008
-1.544915e-008
-1.839129e-008
-2.107670e-008
-2.297806e-008
-2.373829e-008
-2.371461e-008
-2.353457e-008
-2.329620e-008
-2.248796e-008
-2.070699e-008
-1.818440e-008
-1.540969e-008
-1.239008e-008
-8.602349e-009
-3.771951e-009
1.536035e-009
6.335906e-009
1.013631e-008
1.313581e-008
1.542229e-008
1.628768e-008
1.471710e-008
1.058214e-008
5.053309e-009
-3.307878e-010
-4.777124e-009
-8.152832e-009
-9.975769e-009
-9.106998e-009
-4.911995e-009
1.393610e-009
7.011157e-009
9.401490e-009
7.803206e-009
3.078415e-009
-3.268479e-009
-9.273492e-009
-1.206272e-008
-8.708830e-009
9.221793e-010
1.197025e-008
1.663003e-008
1.028881e-008
-3.474228e-009
-1.459943e-008
-1.461199e-008
-4.048962e-009
7.911920e-009
1.162455e-008
5.384590e-009
-3.765903e-009
-7.271597e-009
-3.064018e-009
3.313965e-009
5.004859e-009
8.219446e-010
-4.070771e-009
2.838247e-009
-1.418938e-008
-2.899504e-008
-2.212113e-008
6.066877e-009
3.368360e-008
3.637239e-008
9.924114e-009
-2.462495e-008
-3.872131e-008
-2.111297e-008
1.260570e-008
3.403313e-008
2.643284e-008
-2.247548e-009
-2.812143e-008
-3.218159e-008
-1.414232e-008
1.096730e-008
2.715911e-008
2.851320e-008
1.904350e-008
5.492473e-009
-7.986745e-009
-1.944483e-008
-2.655880e-008
-2.659108e-008
-1.894230e-008
-6.587289e-009
5.783650e-009
1.494645e-008
2.033237e-008
2.261704e-008
2.204288e-008
1.845980e-008
1.244121e-008
5.555617e-009
-6.861403e-010
-5.809254e-009
-1.008275e-008
-1.353415e-008
-1.567476e-008
-1.621482e-008
-1.565530e-008
-1.487866e-008
-1.428456e-008
-1.362126e-008
-1.267105e-008
-1.178869e-008
-1.154901e-008
-1.202242e-008
-1.269854e-008
-1.315229e-008
-1.350847e-008
-1.405490e-008
-1.456076e-008
-1.428714e-008
-1.271995e-008
-1.004041e-008
-6.706456e-009
-2.773975e-009
2.022935e-009
7.479525e-009
1.252415e-008
1.585836e-008
1.686600e-008
1.564685e-008
1.227897e-008
6.564707e-009
-1.142898e-009
-9.106448e-009
-1.474975e-008
-1.628872e-008
-1.367303e-008
-7.921465e-009
-1.042730e-010
8.352406e-009
1.456658e-008
1.473458e-008
7.242355e-009
-4.381404e-009
-1.262362e-008
-1.157548e-008
-2.233135e-009
7.840867e-009
1.073130e-008
4.727093e-009
-4.678538e-009
-9.879641e-009
-7.379342e-009
1.567030e-010
6.897176e-009
8.498990e-009
4.636235e-009
-1.659309e-009
-6.405640e-009
-6.970976e-009
-3.289869e-009
2.264141e-009
6.263768e-009
-7.440293e-008
-4.311622e-008
-9.636712e-010
2.669485e-008
2.735400e-008
7.601593e-009
-1.478866e-008
-2.418491e-008
-1.567723e-008
4.449009e-009
2.352819e-008
2.915825e-008
1.590735e-008
-1.025003e-008
-3.365801e-008
-3.833340e-008
-1.965500e-008
1.116723e-008
3.477535e-008
3.780545e-008
2.163701e-008
-1.058684e-009
-1.746774e-008
-2.288501e-008
-2.012962e-008
-1.357423e-008
-5.199495e-009
4.343593e-009
1.305518e-008
1.763690e-008
1.621894e-008
1.015646e-008
2.700775e-009
-3.735389e-009
-8.669646e-009
-1.238740e-008
-1.457602e-008
-1.448079e-008
-1.198182e-008
-7.927902e-009
-3.346785e-009
1.311049e-009
5.995485e-009
1.045048e-008
1.415728e-008
1.684598e-008
1.873772e-008
2.013564e-008
2.097166e-008
2.095717e-008
2.006913e-008
1.861886e-008
1.679907e-008
1.439985e-008
1.114214e-008
7.159862e-009
2.938035e-009
-1.175070e-009
-5.122804e-009
-8.712979e-009
-1.128730e-008
-1.209899e-008
-1.097212e-008
-8.334199e-009
-4.596630e-009
1.232722e-010
5.382175e-009
9.767771e-009
1.144541e-008
9.606526e-009
5.135467e-009
-3.690668e-010
-5.902814e-009
-1.085185e-008
-1.360927e-008
-1.146302e-008
-3.063265e-009
8.740002e-009
1.738369e-008
1.709913e-008
7.668084e-009
-5.099750e-009
-1.365875e-008
-1.387280e-008
-6.940792e-009
2.384928e-009
8.885567e-009
9.272880e-009
3.647454e-009
-4.109670e-009
-8.135527e-009
-4.816980e-009
3.436021e-009
9.186603e-009
6.361510e-009
-3.397225e-009
-1.127278e-008
-9.324760e-009
1.441975e-009
1.142201e-008
-1.152762e-007
-4.932980e-008
2.980352e-008
6.265254e-008
3.266937e-008
-2.447821e-008
-5.659297e-008
-3.986862e-008
6.438714e-009
4.297735e-008
4.478983e-008
1.686573e-008
-1.677520e-008
-3.447618e-008
-2.965868e-008
-9.505330e-009
1.310912e-008
2.651968e-008
2.435435e-008
8.079054e-009
-1.301749e-008
-2.658989e-008
-2.509462e-008
-1.067988e-008
7.362332e-009
2.013093e-008
2.457295e-008
2.269472e-008
1.716230e-008
8.820976e-009
-1.938736e-009
-1.300186e-008
-2.094516e-008
-2.359912e-008
-2.155833e-008
-1.699573e-008
-1.147479e-008
-5.267695e-009
1.579852e-009
8.269341e-009
1.361348e-008
1.703411e-008
1.883973e-008
1.961342e-008
1.965527e-008
1.907529e-008
1.813032e-008
1.721688e-008
1.660048e-008
1.633132e-008
1.640251e-008
1.681037e-008
1.741251e-008
1.787953e-008
1.788924e-008
1.726842e-008
1.583919e-008
1.325850e-008
9.259575e-009
4.087989e-009
-1.513496e-009
-6.860450e-009
-1.165613e-008
-1.553950e-008
-1.749382e-008
-1.622701e-008
-1.143161e-008
-4.436932e-009
2.726467e-009
8.797209e-009
1.340849e-008
1.578144e-008
1.410945e-008
7.203055e-009
-3.073758e-009
-1.172621e-008
-1.385642e-008
-8.412203e-009
1.075173e-009
9.156052e-009
1.175901e-008
7.730900e-009
-1.124979e-009
-1.036148e-008
-1.411210e-008
-8.532521e-009
4.020350e-009
1.470955e-008
1.450158e-008
2.701994e-009
-1.094284e-008
-1.438286e-008
-4.801341e-009
8.189176e-009
1.184751e-008
3.142985e-009
-8.244226e-009
-1.019346e-008
-9.481865e-010
9.212426e-009
-1.099025e-007
-4.070115e-008
3.845529e-008
6.363755e-008
2.303746e-008
-3.689339e-008
-5.851872e-008
-2.577824e-008
2.630503e-008
4.938871e-008
2.674688e-008
-1.622779e-008
-4.026844e-008
-2.785387e-008
6.194363e-009
3.302252e-008
3.488089e-008
1.485463e-008
-1.158182e-008
-3.008904e-008
-3.415271e-008
-2.421341e-008
-5.027898e-009
1.578249e-008
2.982259e-008
3.189665e-008
2.307708e-008
9.403960e-009
-2.932033e-009
-1.126463e-008
-1.594453e-008
-1.749898e-008
-1.538051e-008
-9.394987e-009
-1.279142e-009
5.977666e-009
1.030782e-008
1.164485e-008
1.091541e-008
8.518262e-009
4.120659e-009
-2.356658e-009
-1.008582e-008
-1.779834e-008
-2.465004e-008
-3.046009e-008
-3.526311e-008
-3.887445e-008
-4.091604e-008
-4.111308e-008
-3.948559e-008
-3.630520e-008
-3.190312e-008
-2.648092e-008
-2.011042e-008
-1.300517e-008
-5.810519e-009
5.205601e-010
5.276309e-009
8.335291e-009
9.806502e-009
9.410075e-009
6.588208e-009
1.473179e-009
-4.470908e-009
-9.179930e-009
-1.143728e-008
-1.131300e-008
-9.107895e-009
-4.410668e-009
3.098224e-009
1.185766e-008
1.814735e-008
1.834478e-008
1.170342e-008
9.208085e-010
-9.696625e-009
-1.626548e-008
-1.615955e-008
-8.670069e-009
3.497083e-009
1.369181e-008
1.465810e-008
4.810750e-009
-8.525229e-009
-1.401266e-008
-6.487437e-009
7.337186e-009
1.445965e-008
8.001067e-009
-5.873957e-009
-1.395655e-008
-9.077873e-009
3.122600e-009
1.056386e-008
7.193547e-009
-1.646614e-009
-6.088849e-009
-2.672389e-009
2.747419e-009
-5.709462e-008
-1.988571e-008
2.018130e-008
2.845088e-008
3.461782e-009
-2.368341e-008
-2.245907e-008
5.885387e-009
3.056780e-008
2.368526e-008
-1.079485e-008
-4.048491e-008
-3.612641e-008
5.286080e-010
3.896111e-008
4.816443e-008
2.289055e-008
-1.517803e-008
-3.858115e-008
-3.556991e-008
-1.423291e-008
9.184356e-009
2.331790e-008
2.555734e-008
1.835490e-008
5.439061e-009
-8.744376e-009
-1.900378e-008
-2.144322e-008
-1.598821e-008
-6.167826e-009
3.904408e-009
1.205977e-008
1.776884e-008
2.032597e-008
1.832993e-008
1.101639e-008
-5.988436e-010
-1.439764e-008
-2.880970e-008
-4.346778e-008
-5.836296e-008
-7.284609e-008
-8.573925e-008
-9.624447e-008
-1.044297e-007
-1.107724e-007
-1.154080e-007
-1.179420e-007
-1.179219e-007
-1.153534e-007
-1.106914e-007
-1.043500e-007
-9.629104e-008
-8.618256e-008
-7.400542e-008
-6.042542e-008
-4.643768e-008
-3.266467e-008
-1.922601e-008
-6.454049e-009
4.451981e-009
1.186628e-008
1.496816e-008
1.431789e-008
1.105689e-008
5.838132e-009
-9.743267e-010
-8.066963e-009
-1.280253e-008
-1.274069e-008
-7.614798e-009
4.128187e-010
8.286106e-009
1.338146e-008
1.355254e-008
7.347866e-009
-4.113986e-009
-1.535205e-008
-1.852477e-008
-9.640574e-009
6.375964e-009
1.801089e-008
1.642649e-008
3.430997e-009
-9.909437e-009
-1.315491e-008
-5.475991e-009
4.674762e-009
8.200740e-009
3.439759e-009
-3.682506e-009
-6.335345e-009
-2.987785e-009
2.418613e-009
5.165877e-009
3.902032e-009
6.456985e-010
-2.081947e-009
-3.338872e-009
3.015919e-008
1.350598e-008
-8.936608e-009
-2.240840e-008
-1.784156e-008
1.888350e-009
2.312130e-008
2.989439e-008
1.513405e-008
-1.281935e-008
-3.427679e-008
-3.205065e-008
-5.730027e-009
2.582898e-008
3.809677e-008
2.083555e-008
-1.264027e-008
-3.593033e-008
-3.120426e-008
-3.081874e-009
2.686662e-008
3.858026e-008
2.774362e-008
4.935807e-009
-1.590328e-008
-2.719299e-008
-2.859615e-008
-2.249514e-008
-1.107580e-008
2.939106e-009
1.529679e-008
2.173719e-008
2.049515e-008
1.266842e-008
1.828486e-010
-1.599274e-008
-3.553055e-008
-5.743764e-008
-7.989204e-008
-1.014462e-007
-1.219035e-007
-1.417324e-007
-1.608629e-007
-1.783842e-007
-1.933614e-007
-2.055917e-007
-2.153632e-007
-2.226286e-007
-2.266903e-007
-2.267843e-007
-2.228453e-007
-2.155473e-007
-2.055995e-007
-1.931509e-007
-1.780124e-007
-1.603995e-007
-1.412209e-007
-1.214715e-007
-1.014597e-007
-8.091384e-008
-5.994463e-008
-3.966541e-008
-2.162482e-008
-6.761837e-009
4.722686e-009
1.245428e-008
1.538909e-008
1.277801e-008
5.587367e-009
-3.480949e-009
-1.149872e-008
-1.647390e-008
-1.698607e-008
-1.170719e-008
-7.861919e-010
1.187433e-008
1.910865e-008
1.537676e-008
2.297774e-009
-1.117358e-008
-1.536704e-008
-7.762621e-009
5.108289e-009
1.328713e-008
1.122127e-008
1.280312e-009
-8.928854e-009
-1.234229e-008
-7.034962e-009
2.809823e-009
9.831474e-009
8.784511e-009
8.145361e-010
-7.061047e-009
-7.844216e-009
-1.102300e-009
6.345820e-009
7.015284e-009
3.547770e-010
-6.619712e-009
1.161589e-007
4.971385e-008
-2.901298e-008
-6.038949e-008
-3.028859e-008
2.316226e-008
4.911420e-008
2.916490e-008
-1.252329e-008
-3.729789e-008
-2.708466e-008
4.624619e-009
2.950267e-008
2.877679e-008
4.941780e-009
-2.369664e-008
-3.709207e-008
-2.591093e-008
3.395926e-009
3.267724e-008
4.352543e-008
2.954465e-008
5.669913e-010
-2.501625e-008