# vtk DataFile Version 3.0
vtk output
ASCII
DATASET STRUCTURED_POINTS
DIMENSIONS 100 100 1
SPACING 1 1 1
ORIGIN 0 0 0
POINT_DATA 10000
SCALARS SFBox_profile double
LOOKUP_TABLE default 
0.000000e+000
0.000000e+000
0.000000e+000
0.000000e+000
0.000000e+000
0.000000e+000
0.000000e+000
0.000000e+000
0.000000e+000
0.000000e+000
0.000000e+000
0.000000e+000
0.000000e+000
0.000000e+000
0.000000e+000
0.000000e+000
0.000000e+000
0.000000e+000
0.000000e+000
0.000000e+000
0.000000e+000
0.000000e+000
0.000000e+000
0.000000e+000
0.000000e+000
0.000000e+000
0.000000e+000
0.000000e+000
0.000000e+000
0.000000e+000
0.000000e+000
0.000000e+000
0.000000e+000
0.000000e+000
0.000000e+000
0.000000e+000
0.000000e+000
0.000000e+000
0.000000e+000
0.000000e+000
0.000000e+000
0.000000e+000
0.000000e+000
0.000000e+000
0.000000e+000
0.000000e+000
0.000000e+000
0.000000e+000
0.000000e+000
0.000000e+000
0.000000e+000
0.000000e+000
0.000000e+000
0.000000e+000
0.000000e+000
0.000000e+000
0.000000e+000
0.000000e+000
0.000000e+000
0.000000e+000
0.000000e+000
0.000000e+000
0.000000e+000
0.000000e+000
0.000000e+000
0.000000e+000
0.000000e+000
0.000000e+000
0.000000e+000
0.000000e+000
0.000000e+000
0.000000e+000
0.000000e+000
0.000000e+000
0.000000e+000
0.000000e+000
0.000000e+000
0.000000e+000
0.000000e+000
0.000000e+000
0.000000e+000
0.000000e+000
0.000000e+000
0.000000e+000
0.000000e+000
0.000000e+000
0.000000e+000
0.000000e+000
0.000000e+000
0.000000e+000
0.000000e+000
0.000000e+000
0.000000e+000
0.000000e+000
0.000000e+000
0.000000e+000
0.000000e+000
0.000000e+000
0.000000e+000
0.000000e+000
-1.523803e-009
-9.191250e-010
-5.489374e-011
6.974109e-010
1.085572e-009
1.046102e-009
6.752104e-010
1.410498e-010
-3.969931e-010
-8.199279e-010
-1.039979e-009
-9.928479e-010
-6.624310e-010
-1.230060e-010
4.524954e-010
8.557373e-010
9.544787e-010
7.734067e-010
4.732326e-010
2.341935e-010
1.336583e-010
1.174342e-010
8.270101e-011
-1.114000e-011
-1.105500e-010
-1.402099e-010
-9.834572e-011
-7.111673e-011
-1.484517e-010
-3.291795e-010
-5.158905e-010
-6.057229e-010
-5.829979e-010
-5.202209e-010
-4.925924e-010
-4.999981e-010
-4.761139e-010
-3.677845e-010
-1.961205e-010
-3.690626e-011
5.360519e-011
8.785010e-011
1.239714e-010
2.002377e-010
2.957742e-010
3.542800e-010
3.428437e-010
2.857649e-010
2.405700e-010
2.406205e-010
2.615217e-010
2.461981e-010
1.654983e-010
5.254694e-011
-2.829721e-011
-4.958896e-011
-5.344066e-011
-1.080884e-010
-2.302916e-010
-3.595387e-010
-4.189218e-010
-3.999492e-010
-3.747135e-010
-4.155017e-010
-5.087566e-010
-5.634778e-010
-5.110118e-010
-3.869873e-010
-3.006783e-010
-3.211912e-010
-4.047040e-010
-4.433722e-010
-3.816621e-010
-2.711729e-010
-2.040847e-010
-2.002673e-010
-1.741166e-010
-2.026292e-011
2.699822e-010
5.806078e-010
7.576703e-010
7.239324e-010
5.167692e-010
2.306979e-010
-6.182815e-011
-3.315112e-010
-5.503417e-010
-6.525541e-010
-5.585152e-010
-2.509179e-010
1.689936e-010
5.096783e-010
5.972289e-010
3.894139e-010
1.159794e-011
-3.155378e-010
-4.108656e-010
-2.424465e-010
5.798773e-011
2.830820e-010
-6.148685e-010
-3.053919e-010
1.066620e-010
4.043120e-010
4.642724e-010
3.001204e-010
2.823057e-011
-2.126981e-010
-3.346597e-010
-3.258421e-010
-2.263216e-010
-8.506167e-011
6.524428e-011
2.027983e-010
2.992312e-010
3.188511e-010
2.433004e-010
9.871498e-011
-4.798812e-011
-1.315937e-010
-1.376142e-010
-1.118300e-010
-1.166028e-010
-1.717360e-010
-2.365289e-010
-2.518913e-010
-2.011084e-010
-1.271248e-010
-8.785427e-011
-9.590509e-011
-1.064260e-010
-6.628772e-011
2.758862e-011
1.227357e-010
1.638336e-010
1.472171e-010
1.203586e-010
1.292350e-010
1.708255e-010
1.996871e-010
1.786569e-010
1.186687e-010
6.712697e-011
5.931945e-011
8.420285e-011
9.876468e-011
7.461656e-011
2.840646e-011
4.943880e-012
3.027459e-011
8.317556e-011
1.158463e-010
1.039864e-010
7.374781e-011
7.460717e-011
1.245327e-010
1.869179e-010
2.077865e-010
1.754111e-010
1.356718e-010
1.422495e-010
1.946128e-010
2.346047e-010
2.091420e-010
1.305567e-010
6.538208e-011
6.160451e-011
9.503112e-011
9.568368e-011
2.567514e-011
-7.801673e-011
-1.431790e-010
-1.398251e-010
-1.099850e-010
-1.183981e-010
-1.793414e-010
-2.383399e-010
-2.259892e-010
-1.254229e-010
1.434407e-011
1.262048e-010
1.797807e-010
1.900946e-010
1.812023e-010
1.515132e-010
7.935569e-011
-3.978143e-011
-1.669962e-010
-2.359171e-010
-2.003406e-010
-7.298502e-011
7.771085e-011
1.709548e-010
1.646602e-010
7.839643e-011
-2.490454e-011
-8.274385e-011
-7.175719e-011
-1.728187e-011
2.949953e-011
6.518370e-010
5.056425e-010
2.433562e-010
-9.187148e-011
-4.272406e-010
-6.645253e-010
-7.086045e-010
-5.102592e-010
-1.022524e-010
3.942230e-010
8.052214e-010
9.734447e-010
8.306962e-010
4.334789e-010
-6.311551e-011
-4.826473e-010
-7.112413e-010
-7.380378e-010
-6.325855e-010
-4.842904e-010
-3.516745e-010
-2.517529e-010
-1.807707e-010
-1.344265e-010
-1.078087e-010
-8.468927e-011
-3.831902e-011
5.076984e-011
1.780791e-010
3.187653e-010
4.479373e-010
5.551276e-010
6.386442e-010
6.906925e-010
6.952380e-010
6.436370e-010
5.489640e-010
4.391030e-010
3.335004e-010
2.293348e-010
1.135472e-010
-1.282141e-011
-1.269365e-010
-2.036121e-010
-2.404731e-010
-2.594080e-010
-2.813106e-010
-3.022160e-010
-2.983899e-010
-2.551480e-010
-1.863653e-010
-1.214997e-010
-7.418703e-011
-2.840939e-011
4.132128e-011
1.385858e-010
2.387527e-010
3.152529e-010
3.680110e-010
4.209545e-010
4.915836e-010
5.680892e-010
6.202977e-010
6.311197e-010
6.121723e-010
5.873104e-010
5.656393e-010
5.359292e-010
4.865296e-010
4.242209e-010
3.685857e-010
3.294090e-010
2.943717e-010
2.401126e-010
1.516531e-010
2.838955e-011
-1.243576e-010
-2.997348e-010
-4.786075e-010
-6.171700e-010
-6.557907e-010
-5.520421e-010
-3.133765e-010
-1.382427e-012
2.956739e-010
4.992057e-010
5.617387e-010
4.706331e-010
2.479606e-010
-4.560281e-011
-3.137703e-010
-4.515623e-010
-3.950922e-010
-1.662792e-010
1.237597e-010
3.263314e-010
3.370014e-010
1.578851e-010
-1.008736e-010
-2.844562e-010
1.535284e-009
9.786516e-010
1.549105e-010
-6.170319e-010
-1.094902e-009
-1.172385e-009
-8.753610e-010
-3.184325e-010
3.406344e-010
9.285546e-010
1.276983e-009
1.259648e-009
8.496104e-010
1.624772e-010
-5.642426e-010
-1.071868e-009
-1.212321e-009
-1.021458e-009
-6.755482e-010
-3.608710e-010
-1.580180e-010
-2.839857e-011
1.018987e-010
2.513105e-010
3.717308e-010
4.160539e-010
4.024692e-010
4.030258e-010
4.700571e-010
5.817554e-010
6.648438e-010
6.671064e-010
6.013578e-010
5.192193e-010
4.515733e-010
3.833692e-010
2.841735e-010
1.517452e-010
1.757552e-011
-8.656407e-011
-1.577759e-010
-2.151080e-010
-2.710653e-010
-3.181898e-010
-3.429129e-010
-3.442677e-010
-3.336836e-010
-3.202010e-010
-3.029065e-010
-2.784535e-010
-2.494311e-010
-2.204985e-010
-1.896709e-010
-1.503531e-010
-1.029680e-010
-5.820331e-011
-2.372849e-011
8.778544e-012
5.566003e-011
1.188739e-010
1.788181e-010
2.162851e-010
2.385156e-010
2.735873e-010
3.347118e-010
3.977513e-010
4.251268e-010
4.130962e-010
4.048609e-010
4.469558e-010
5.344324e-010
6.091796e-010
6.172906e-010
5.611473e-010
4.845100e-010
4.059294e-010
2.796477e-010
3.764424e-011
-3.234053e-010
-7.010822e-010
-9.407036e-010
-9.379440e-010
-6.994813e-010
-3.177305e-010
9.949275e-011
4.711906e-010
7.314256e-010
8.059472e-010
6.324751e-010
2.251093e-010
-2.792030e-010
-6.568971e-010
-7.165931e-010
-4.249716e-010
5.463337e-011
4.493814e-010
5.400141e-010
2.951239e-010
-1.112550e-010
-4.109094e-010
1.563440e-009
8.281561e-010
-1.734449e-010
-9.439351e-010
-1.181080e-009
-8.770307e-010
-2.574534e-010
3.774993e-010
8.030087e-010
9.319188e-010
7.859997e-010
4.343137e-010
-3.906815e-011
-5.259646e-010
-8.861537e-010
-9.873155e-010
-7.850573e-010
-3.749412e-010
4.931341e-011
3.199329e-010
4.055472e-010
4.100616e-010
4.586024e-010
5.767976e-010
6.776827e-010
6.633380e-010
5.322308e-010
3.802442e-010
2.983946e-010
2.802513e-010
2.380817e-010
1.058429e-010
-8.584168e-011
-2.415209e-010
-2.984571e-010
-2.813536e-010
-2.614079e-010
-2.746253e-010
-2.911184e-010
-2.601295e-010
-1.708129e-010
-6.160559e-011
2.256845e-011
7.091715e-011
1.048484e-010
1.463718e-010
1.956184e-010
2.349388e-010
2.462213e-010
2.234389e-010
1.759630e-010
1.241610e-010
8.611133e-011
6.052529e-011
2.393084e-011
-4.596890e-011
-1.399099e-010
-2.176757e-010
-2.489272e-010
-2.514480e-010
-2.758145e-010
-3.445080e-010
-4.150693e-010
-4.191103e-010
-3.407138e-010
-2.421722e-010
-1.980966e-010
-2.074316e-010
-1.874485e-010
-6.449970e-011
1.381315e-010
3.180640e-010
4.016701e-010
4.207225e-010
4.681664e-010
5.791928e-010
6.702627e-010
6.077547e-010
3.381098e-010
-5.286884e-011
-4.064717e-010
-6.092509e-010
-6.472888e-010
-5.618768e-010
-3.780509e-010
-9.453519e-011
2.578670e-010
5.673827e-010
6.769415e-010
4.938576e-010
8.256152e-011
-3.476211e-010
-5.647532e-010
-4.626331e-010
-1.288711e-010
2.153892e-010
3.615337e-010
2.457987e-010
-1.873060e-011
-2.275981e-010
7.739850e-010
1.871319e-010
-5.188848e-010
-8.676240e-010
-6.432450e-010
1.197960e-011
7.130322e-010
1.072119e-009
9.115116e-010
3.318204e-010
-3.810818e-010
-9.294910e-010
-1.142741e-009
-1.011479e-009
-6.311877e-010
-1.257377e-010
3.894351e-010
8.053293e-010
1.024737e-009
1.003382e-009
7.947209e-010
5.359705e-010
3.593792e-010
2.956570e-010
2.621563e-010
1.542520e-010
-4.697816e-011
-2.591982e-010
-3.892907e-010
-4.306378e-010
-4.614020e-010
-5.481631e-010
-6.641171e-010
-7.128425e-010
-6.292753e-010
-4.454479e-010
-2.526025e-010
-1.078710e-010
1.118954e-011
1.629724e-010
3.673098e-010
5.824527e-010
7.492130e-010
8.461404e-010
8.993939e-010
9.475040e-010
1.003474e-009
1.047426e-009
1.048147e-009
9.913433e-010
8.939977e-010
7.942628e-010
7.206996e-010
6.642186e-010
5.836142e-010
4.489203e-010
2.816018e-010
1.413021e-010
6.273504e-011
1.084959e-011
-8.581920e-011
-2.510115e-010
-4.219400e-010
-5.102791e-010
-5.014558e-010
-4.766349e-010
-5.239065e-010
-6.353978e-010
-7.102801e-010
-6.649346e-010
-5.258818e-010
-3.974332e-010
-3.388428e-010
-2.905197e-010
-1.347677e-010
1.733695e-010
5.448185e-010
8.249687e-010
9.140657e-010
8.184346e-010
6.001025e-010
3.028709e-010
-5.668720e-011
-4.341299e-010
-7.190279e-010
-7.780271e-010
-5.537215e-010
-1.300971e-010
2.997028e-010
5.437796e-010
5.188842e-010
2.830597e-010
-1.700371e-011
-2.373461e-010
-3.062943e-010
-2.388715e-010
-1.027874e-010
3.157240e-011
1.242273e-010
1.677151e-010
-3.866863e-010
-5.273414e-010
-5.751774e-010
-3.175927e-010
2.535595e-010
9.021628e-010
1.273882e-009
1.106496e-009
3.950273e-010
-5.861758e-010
-1.416256e-009
-1.739015e-009
-1.433764e-009
-6.539548e-010
2.775499e-010
1.041715e-009
1.456593e-009
1.504705e-009
1.272481e-009
8.742200e-010
4.155883e-010
-9.238705e-012
-3.269033e-010
-5.137211e-010
-6.097810e-010
-6.836079e-010
-7.678068e-010
-8.299968e-010
-8.139637e-010
-7.083395e-010
-5.648998e-010
-4.433758e-010
-3.451618e-010
-2.135451e-010
-2.199900e-012
2.655843e-010
5.141252e-010
6.890005e-010
8.052027e-010
9.202962e-010
1.067467e-009
1.222218e-009
1.332668e-009
1.374367e-009
1.372066e-009
1.372328e-009
1.399536e-009
1.436754e-009
1.445006e-009
1.401545e-009
1.323761e-009
1.256307e-009
1.229192e-009
1.224847e-009
1.191644e-009
1.098081e-009
9.726670e-010
8.793543e-010
8.464837e-010
8.275243e-010
7.459210e-010
5.811381e-010
3.973313e-010
2.748897e-010
2.184188e-010
1.481995e-010
-1.100150e-011
-2.439994e-010
-4.610089e-010
-5.960747e-010
-6.731393e-010
-7.639520e-010
-8.882204e-010
-9.708229e-010
-9.025500e-010
-6.357307e-010
-2.173226e-010
2.577041e-010
7.042386e-010
1.054300e-009
1.229868e-009
1.144955e-009
7.621900e-010
1.557790e-010
-4.879721e-010
-9.477481e-010
-1.070103e-009
-8.322944e-010
-3.399754e-010
2.207390e-010
6.474364e-010
7.869387e-010
5.934287e-010
1.584598e-010
-3.148267e-010
-5.995675e-010
-5.594756e-010
-2.256564e-010
2.146945e-010
5.179537e-010
-1.367764e-009
-9.166474e-010
-2.017084e-010
5.455320e-010
1.086687e-009
1.236103e-009
9.240076e-010
2.345431e-010
-6.049678e-010
-1.289856e-009
-1.544685e-009
-1.237103e-009
-4.510834e-010
5.272927e-010
1.326361e-009
1.661983e-009
1.470517e-009
9.152462e-010
2.626977e-010
-2.785707e-010
-6.406001e-010
-8.592311e-010
-9.814888e-010
-1.013938e-009
-9.449932e-010
-7.898036e-010
-5.934529e-010
-3.911871e-010
-1.803588e-010
5.927175e-011
3.242702e-010
5.791479e-010
7.912530e-010
9.633595e-010
1.121649e-009
1.274160e-009
1.392831e-009
1.443297e-009
1.427588e-009
1.388393e-009
1.368619e-009
1.371277e-009
1.363367e-009
1.317874e-009
1.247746e-009
1.196427e-009
1.195854e-009
1.235337e-009
1.272982e-009
1.278625e-009
1.265116e-009
1.274500e-009
1.330792e-009
1.408549e-009
1.454560e-009
1.443954e-009
1.409664e-009
1.407873e-009
1.453463e-009
1.498600e-009
1.482719e-009
1.399289e-009
1.301760e-009
1.240305e-009
1.202878e-009
1.129281e-009
9.797107e-010
7.751917e-010
5.643459e-010
3.615890e-010
1.338328e-010
-1.505267e-010
-4.724980e-010
-7.698201e-010
-9.831387e-010
-1.079284e-009
-1.030458e-009
-7.956579e-010
-3.529817e-010
2.376549e-010
8.149051e-010
1.180049e-009
1.201457e-009
8.772265e-010
3.197838e-010
-3.015671e-010
-8.073691e-010
-1.036634e-009
-8.891415e-010
-3.906848e-010
2.676374e-010
7.826088e-010
8.907568e-010
5.338556e-010
-8.272966e-011
-5.981682e-010
-7.136239e-010
-3.793865e-010
1.736543e-010
5.819361e-010
-1.776384e-009
-8.293007e-010
4.324358e-010
1.331916e-009
1.461353e-009
8.350842e-010
-1.785076e-010
-1.081738e-009
-1.491745e-009
-1.281316e-009
-5.754065e-010
3.497975e-010
1.183866e-009
1.665590e-009
1.637806e-009
1.094900e-009
2.092642e-010
-7.114381e-010
-1.355768e-009
-1.565276e-009
-1.401752e-009
-1.064973e-009
-7.277787e-010
-4.302450e-010
-1.139672e-010
2.616955e-010
6.522720e-010
9.726593e-010
1.188513e-009
1.345154e-009
1.506114e-009
1.678859e-009
1.812641e-009
1.862820e-009
1.840778e-009
1.794288e-009
1.750291e-009
1.692236e-009
1.594869e-009
1.467625e-009
1.351311e-009
1.273886e-009
1.221521e-009
1.160659e-009
1.083799e-009
1.023221e-009
1.015691e-009
1.059745e-009
1.116302e-009
1.152546e-009
1.177869e-009
1.229107e-009
1.321750e-009
1.425058e-009
1.492348e-009
1.512317e-009
1.520474e-009
1.555995e-009
1.615027e-009
1.656616e-009
1.653463e-009
1.624400e-009
1.608740e-009
1.616492e-009
1.618969e-009
1.591007e-009
1.546937e-009
1.519081e-009
1.504114e-009
1.449197e-009
1.301424e-009
1.060221e-009
7.640887e-010
4.277682e-010
1.729432e-011
-4.887895e-010
-1.013574e-009
-1.378842e-009
-1.411557e-009
-1.067550e-009
-4.604239e-010
2.167292e-010
7.875443e-010
1.125978e-009
1.142373e-009
7.961646e-010
1.595740e-010
-5.388288e-010
-9.818321e-010
-9.401781e-010
-4.379963e-010
2.332924e-010
6.864030e-010
6.839661e-010
2.858161e-010
-2.055172e-010
-4.598635e-010
-3.423965e-010
8.960105e-012
2.995491e-010
-1.469329e-009
-3.757462e-010
9.367121e-010
1.580396e-009
1.159871e-009
-4.954378e-011
-1.322580e-009
-1.935224e-009
-1.563769e-009
-4.151920e-010
9.444030e-010
1.919264e-009
2.161945e-009
1.663702e-009
6.664742e-010
-4.905535e-010
-1.484778e-009
-2.066326e-009
-2.101488e-009
-1.622684e-009
-8.356597e-010
-2.773695e-011
5.912558e-010
9.939864e-010
1.291870e-009
1.585731e-009
1.860261e-009
2.022847e-009
2.029912e-009
1.952059e-009
1.905789e-009
1.934450e-009
1.975047e-009
1.942914e-009
1.830729e-009
1.710123e-009
1.644341e-009
1.620864e-009
1.578605e-009
1.486865e-009
1.377705e-009
1.299336e-009
1.255897e-009
1.208577e-009
1.130867e-009
1.044413e-009
9.916126e-010
9.834209e-010
9.899070e-010
9.833450e-010
9.757946e-010
1.002002e-009
1.070771e-009
1.149355e-009
1.202119e-009
1.233010e-009
1.275394e-009
1.342040e-009
1.402370e-009
1.419817e-009
1.401172e-009
1.389745e-009
1.406877e-009
1.419529e-009
1.384300e-009
1.317529e-009
1.297080e-009
1.380421e-009
1.533116e-009
1.659370e-009
1.703836e-009
1.700007e-009
1.698604e-009
1.657642e-009
1.434319e-009
9.096668e-010
1.240224e-010
-7.163225e-010
-1.364419e-009
-1.662658e-009
-1.570662e-009
-1.116201e-009
-3.721076e-010
5.021184e-010
1.232722e-009
1.515541e-009
1.195985e-009
4.072197e-010
-4.673533e-010
-1.006124e-009
-9.929066e-010
-5.247602e-010
7.903516e-011
4.896243e-010
5.546545e-010
3.460747e-010
6.215231e-011
-1.280079e-010
-1.829929e-010
-1.713508e-010
-5.342389e-010
2.111111e-010
9.641481e-010
1.030003e-009
2.415768e-010
-9.415132e-010
-1.754859e-009
-1.632185e-009
-5.587697e-010
9.289856e-010
2.068015e-009
2.298873e-009
1.543753e-009
1.904807e-010
-1.167822e-009
-2.046029e-009
-2.243118e-009
-1.823271e-009
-9.908453e-010
1.472564e-011
9.614414e-010
1.654715e-009
1.998267e-009
2.044894e-009
1.958519e-009
1.887424e-009
1.858072e-009
1.796324e-009
1.650567e-009
1.476194e-009
1.384170e-009
1.415012e-009
1.487681e-009
1.484362e-009
1.372047e-009
1.221622e-009
1.109849e-009
1.025819e-009
8.892225e-010
6.486218e-010
3.373672e-010
2.693146e-011
-2.548568e-010
-5.394127e-010
-8.576887e-010
-1.189110e-009
-1.481960e-009
-1.710293e-009
-1.889364e-009
-2.034034e-009
-2.122792e-009
-2.118648e-009
-2.016522e-009
-1.849061e-009
-1.641520e-009
-1.380226e-009
-1.043512e-009
-6.558422e-010
-2.862129e-010
1.763065e-011
2.757579e-010
5.349193e-010
7.850121e-010
9.448785e-010
9.507876e-010
8.468355e-010
7.600109e-010
7.776218e-010
8.692480e-010
9.487328e-010
1.002175e-009
1.121888e-009
1.394195e-009
1.764381e-009
2.034609e-009
2.002910e-009
1.600917e-009
9.072681e-010
6.428806e-011
-7.814462e-010
-1.461959e-009
-1.769268e-009
-1.529798e-009
-7.495599e-010
3.048042e-010
1.196665e-009
1.544859e-009
1.230741e-009
4.503513e-010
-4.067392e-010
-9.616887e-010
-1.016886e-009
-6.195708e-010
-8.908390e-012
5.138445e-010
7.263775e-010
5.732187e-010
1.671940e-010
-2.822830e-010
-5.683879e-010
7.278865e-010
7.079792e-010
4.524985e-010
-1.577596e-010
-9.256102e-010
-1.401074e-009
-1.184285e-009
-2.363999e-010
1.033246e-009
1.969488e-009
2.035265e-009
1.117200e-009
-4.012966e-010
-1.836752e-009
-2.559191e-009
-2.300726e-009
-1.244588e-009
1.388350e-010
1.375275e-009
2.191711e-009
2.540118e-009
2.498674e-009
2.183031e-009
1.728318e-009
1.289490e-009
9.938730e-010
8.707023e-010
8.453369e-010
8.244041e-010
7.841746e-010
7.600940e-010
7.520529e-010
6.667603e-010
3.770338e-010
-1.664268e-010
-9.030810e-010
-1.747311e-009
-2.686020e-009
-3.773803e-009
-5.039468e-009
-6.423392e-009
-7.819024e-009
-9.160051e-009
-1.044585e-008
-1.168532e-008
-1.284138e-008
-1.384554e-008
-1.465235e-008
-1.525540e-008
-1.564879e-008
-1.579647e-008
-1.565714e-008
-1.522815e-008
-1.454259e-008
-1.362201e-008
-1.245725e-008
-1.105532e-008
-9.492937e-009
-7.894056e-009
-6.345136e-009
-4.853377e-009
-3.409626e-009
-2.081257e-009
-1.008600e-009
-2.910006e-010
1.083335e-010
3.213611e-010
4.427905e-010
4.640785e-010
3.513834e-010
1.675066e-010
8.220640e-011
2.485004e-010
6.784252e-010
1.243065e-009
1.771652e-009
2.126003e-009
2.192467e-009
1.862379e-009
1.089607e-009
-2.118085e-012
-1.088043e-009
-1.765878e-009
-1.767633e-009
-1.109545e-009
-8.481848e-011
8.766765e-010
1.391378e-009
1.271980e-009
6.039110e-010
-2.803677e-010
-9.435808e-010
-1.061334e-009
-6.037798e-010
1.399735e-010
7.284147e-010
8.299390e-010
4.167285e-010
-2.294422e-010
-6.972745e-010
1.828624e-009
9.420451e-010
-3.405458e-010
-1.416821e-009
-1.769353e-009
-1.191402e-009
8.030105e-011
1.441651e-009
2.205703e-009
1.950836e-009
7.363008e-010
-9.274479e-010
-2.320809e-009
-2.837047e-009
-2.240124e-009
-7.572665e-010
1.033120e-009
2.476859e-009
3.149318e-009
3.017738e-009
2.368677e-009
1.576415e-009
8.990603e-010
4.325949e-010
1.877341e-010
1.561061e-010
2.950388e-010
4.879405e-010
5.669514e-010
3.902385e-010
-1.159882e-010
-9.973055e-010
-2.329624e-009
-4.207511e-009
-6.668920e-009
-9.652633e-009
-1.304712e-008
-1.677250e-008
-2.079547e-008
-2.506499e-008
-2.945812e-008
-3.380842e-008
-3.798076e-008
-4.190081e-008
-4.551308e-008
-4.873298e-008
-5.145574e-008
-5.359992e-008
-5.511974e-008
-5.597361e-008
-5.610353e-008
-5.546202e-008
-5.404870e-008
-5.190060e-008
-4.904984e-008
-4.551905e-008
-4.137698e-008
-3.678409e-008
-3.195407e-008
-2.706248e-008
-2.221216e-008
-1.750047e-008
-1.309953e-008
-9.233316e-009
-6.060657e-009
-3.595985e-009
-1.758701e-009
-4.855741e-010
2.332766e-010
4.323302e-010
2.550216e-010
-6.704611e-011
-3.174127e-010
-3.645222e-010
-1.449790e-010
3.686206e-010
1.131495e-009
1.954411e-009
2.514301e-009
2.500959e-009
1.806712e-009
6.114052e-010
-6.920929e-010
-1.662594e-009
-1.969620e-009
-1.508367e-009
-4.644545e-010
7.106118e-010
1.467304e-009
1.439233e-009
6.777861e-010
-3.477394e-010
-1.028142e-009
-9.998874e-010
-3.695802e-010
3.819030e-010
7.431979e-010
5.182245e-010
-6.317264e-011
-5.338135e-010
2.244535e-009
7.998813e-010
-1.020461e-009
-2.085567e-009
-1.791574e-009
-3.473585e-010
1.386100e-009
2.403273e-009
2.118744e-009
6.706317e-010
-1.194505e-009
-2.555654e-009
-2.790285e-009
-1.825073e-009
-8.546795e-011
1.751493e-009
3.043012e-009
3.404719e-009
2.831075e-009
1.676673e-009
4.796240e-010
-3.070253e-010
-5.182884e-010
-2.834865e-010
1.368034e-010
5.155536e-010
6.885817e-010
4.757785e-010
-3.690108e-010
-2.105148e-009
-4.914940e-009
-8.881007e-009
-1.403931e-008
-2.042063e-008
-2.802215e-008
-3.675324e-008
-4.643385e-008
-5.684955e-008
-6.779353e-008
-7.905143e-008
-9.036728e-008
-1.014523e-007
-1.120345e-007
-1.218906e-007
-1.308295e-007
-1.386620e-007
-1.452017e-007
-1.502891e-007
-1.537981e-007
-1.556183e-007
-1.556500e-007
-1.538296e-007
-1.501545e-007
-1.446695e-007
-1.374400e-007
-1.285664e-007
-1.182413e-007
-1.067798e-007
-9.456781e-008
-8.197678e-008
-6.933595e-008
-5.698311e-008
-4.530463e-008
-3.468427e-008
-2.539809e-008
-1.756766e-008
-1.121341e-008
-6.327151e-009
-2.869904e-009
-7.130803e-010
3.778360e-010
6.790602e-010
4.422055e-010
-9.036488e-011
-6.259506e-010
-8.387520e-010
-5.070768e-010
3.387159e-010
1.403773e-009
2.272617e-009
2.594626e-009
2.201354e-009
1.151357e-009
-2.549736e-010
-1.513759e-009
-2.085643e-009
-1.683486e-009
-5.043826e-010
8.133721e-010
1.549232e-009
1.351381e-009
4.519219e-010
-5.162565e-010
-9.637068e-010
-7.241519e-010
-1.081268e-010
3.795669e-010
4.269472e-010
1.163170e-010
-1.939712e-010
1.719852e-009
2.898458e-010
-1.298621e-009
-1.823295e-009
-9.046630e-010
8.073824e-010
2.124455e-009
2.122155e-009
7.265687e-010
-1.263307e-009
-2.690773e-009
-2.739300e-009
-1.372449e-009
7.234119e-010
2.591071e-009
3.513330e-009
3.281970e-009
2.158511e-009
6.663137e-010
-6.264945e-010
-1.280873e-009
-1.127582e-009
-3.415560e-010
6.212492e-010
1.218308e-009
1.010695e-009
-2.991357e-010
-2.980254e-009
-7.382392e-009
-1.390830e-008
-2.288305e-008
-3.446502e-008
-4.867487e-008
-6.547192e-008
-8.476596e-008
-1.063539e-007
-1.298714e-007
-1.548252e-007
-1.806739e-007
-2.068772e-007
-2.328934e-007
-2.581686e-007
-2.821575e-007
-3.043603e-007
-3.243389e-007
-3.417075e-007
-3.561195e-007
-3.672636e-007
-3.748641e-007
-3.786838e-007
-3.785386e-007
-3.743201e-007
-3.660041e-007
-3.536400e-007
-3.373517e-007
-3.173788e-007
-2.941340e-007
-2.682128e-007
-2.403347e-007
-2.112720e-007
-1.818276e-007
-1.528453e-007
-1.251771e-007
-9.958307e-008
-7.663210e-008
-5.668503e-008
-3.994142e-008
-2.646032e-008
-1.612352e-008
-8.618812e-009
-3.521816e-009
-4.280870e-010
9.996360e-010
1.119770e-009
4.206840e-010
-5.038897e-010
-1.122445e-009
-1.133264e-009
-5.083245e-010
5.628745e-010
1.732689e-009
2.546785e-009
2.576851e-009
1.662763e-009
1.122050e-010
-1.365111e-009
-2.036636e-009
-1.606508e-009
-4.126497e-010
7.980614e-010
1.355785e-009
1.067889e-009
2.707267e-010
-4.644693e-010
-7.328814e-010
-5.192404e-010
-1.144270e-010
1.670848e-010
2.236612e-010
1.755835e-010
5.112031e-010
-3.802038e-010
-1.114653e-009
-8.249753e-010
4.351704e-010
1.731795e-009
1.988093e-009
8.183275e-010
-1.158995e-009
-2.719443e-009
-2.830661e-009
-1.304317e-009
1.103931e-009
3.173794e-009
3.940922e-009
3.194911e-009
1.479726e-009
-3.191056e-010
-1.463460e-009
-1.629728e-009
-9.070840e-010
3.190895e-010
1.460681e-009
1.799843e-009
5.991377e-010
-2.780954e-009
-8.863160e-009
-1.816313e-008
-3.130503e-008
-4.899100e-008
-7.182349e-008
-1.001367e-007
-1.339696e-007
-1.731447e-007
-2.173125e-007
-2.659016e-007
-3.180571e-007
-3.726808e-007
-4.285692e-007
-4.845430e-007
-5.394889e-007
-5.923388e-007
-6.420655e-007
-6.877232e-007
-7.284937e-007
-7.636897e-007
-7.927163e-007
-8.150289e-007
-8.301255e-007
-8.375725e-007
-8.370416e-007
-8.283264e-007
-8.113366e-007
-7.860976e-007
-7.527936e-007
-7.118471e-007
-6.639833e-007
-6.102269e-007
-5.518503e-007
-4.903301e-007
-4.273307e-007
-3.646545e-007
-3.041062e-007
-2.473056e-007
-1.955592e-007
-1.498318e-007
-1.107499e-007
-7.854994e-008
-5.301032e-008
-3.349603e-008
-1.916394e-008
-9.198657e-009
-2.899347e-009
4.078248e-010
1.477342e-009
1.127291e-009
1.241078e-010
-8.996065e-010
-1.451405e-009
-1.207699e-009
-1.408584e-010
1.359291e-009
2.576258e-009
2.832455e-009
1.920475e-009
2.755050e-010
-1.263542e-009
-1.949981e-009
-1.550871e-009
-4.356414e-010
6.928699e-010
1.231616e-009
1.003070e-009
2.895305e-010
-4.126528e-010
-7.264764e-010
-5.838704e-010
-1.758362e-010
2.377369e-010
4.791701e-010
-7.115211e-010
-8.522035e-010
-5.913079e-010
3.418105e-010
1.479148e-009
1.903469e-009
1.036389e-009
-7.816304e-010
-2.429913e-009
-2.761966e-009
-1.397663e-009
1.008431e-009
3.171656e-009
3.953899e-009
3.014648e-009
9.600932e-010
-1.060824e-009
-2.030607e-009
-1.582869e-009
-9.216074e-011
1.608122e-009
2.576513e-009
1.921349e-009
-1.246980e-009
-7.901821e-009
-1.910739e-008
-3.599016e-008
-5.975561e-008
-9.171060e-008
-1.331634e-007
-1.851677e-007
-2.482515e-007
-3.223061e-007
-4.066509e-007
-5.001357e-007
-6.011705e-007
-7.077344e-007
-8.174852e-007
-9.279893e-007
-1.036948e-006
-1.142296e-006
-1.242178e-006
-1.334913e-006
-1.419027e-006
-1.493296e-006
-1.556742e-006
-1.608545e-006
-1.647953e-006
-1.674256e-006
-1.686826e-006
-1.685171e-006
-1.668938e-006
-1.637899e-006
-1.591962e-006
-1.531265e-006
-1.456313e-006
-1.368058e-006
-1.267925e-006
-1.157805e-006
-1.040085e-006
-9.176652e-007
-7.938651e-007
-6.721709e-007
-5.559241e-007
-4.480860e-007
-3.510973e-007
-2.667345e-007
-1.959149e-007
-1.385644e-007
-9.371638e-008
-5.985088e-008
-3.527599e-008
-1.834633e-008
-7.508246e-009
-1.316063e-009
1.498249e-009
1.981894e-009
1.042154e-009
-4.180762e-010
-1.506874e-009
-1.579203e-009
-5.359501e-010
1.098437e-009
2.451430e-009
2.788491e-009
1.918006e-009
2.893696e-010
-1.256410e-009
-1.947245e-009
-1.507955e-009
-3.085134e-010
8.763846e-010
1.359847e-009
9.606162e-010
6.164813e-011
-7.058745e-010
-8.945170e-010
-4.827766e-010
1.879675e-010
6.700533e-010
-1.334970e-009
-8.482315e-010
8.283646e-011
1.147705e-009
1.691854e-009
1.153560e-009
-3.545688e-010
-1.924638e-009
-2.416437e-009
-1.296864e-009
9.199856e-010
2.979160e-009
3.693191e-009
2.672477e-009
5.272732e-010
-1.516864e-009
-2.314861e-009
-1.418927e-009
6.841606e-010
2.788594e-009
3.440661e-009
1.313246e-009
-4.768163e-009
-1.610062e-008
-3.439741e-008
-6.185977e-008
-1.010248e-007
-1.545410e-007
-2.249501e-007
-3.144051e-007
-4.242769e-007
-5.547633e-007
-7.047134e-007
-8.717424e-007
-1.052513e-006
-1.243013e-006
-1.438792e-006
-1.635260e-006
-1.828054e-006
-2.013367e-006
-2.188081e-006
-2.349705e-006
-2.496266e-006
-2.626248e-006
-2.738580e-006
-2.832556e-006
-2.907673e-006
-2.963469e-006
-2.999461e-006
-3.015177e-006
-3.010189e-006
-2.984097e-006
-2.936470e-006
-2.866863e-006
-2.774940e-006
-2.660655e-006
-2.524393e-006
-2.367085e-006
-2.190365e-006
-1.996808e-006
-1.790136e-006
-1.575211e-006
-1.357763e-006
-1.143970e-006
-9.400122e-007
-7.516236e-007
-5.835539e-007
-4.389971e-007
-3.192183e-007
-2.235975e-007
-1.500644e-007
-9.566902e-008
-5.706201e-008
-3.086225e-008
-1.399262e-008
-3.956668e-009
1.094767e-009
2.574699e-009
1.781689e-009
5.196668e-011
-1.387100e-009
-1.732294e-009
-8.410493e-010
7.766264e-010
2.229753e-009
2.694985e-009
1.871602e-009
1.993193e-010
-1.357983e-009
-1.905847e-009
-1.214635e-009
1.327862e-010
1.176758e-009
1.270837e-009
4.971886e-010
-4.785742e-010
-9.460249e-010
-6.471083e-010
1.050845e-010
7.072000e-010
-1.278457e-009
-4.143335e-010
7.324209e-010
1.425847e-009
1.115420e-009
-1.562344e-010
-1.620749e-009
-2.191451e-009
-1.235263e-009
8.708841e-010
2.899300e-009
3.585555e-009
2.492643e-009
2.926602e-010
-1.684026e-009
-2.257029e-009
-1.043305e-009
1.337855e-009
3.468634e-009
3.538471e-009
-2.953792e-010
-9.810979e-009
-2.698110e-008
-5.444620e-008