# vtk DataFile Version 3.0
vtk output
ASCII
DATASET STRUCTURED_POINTS
DIMENSIONS 100 100 1
SPACING 1 1 1
ORIGIN 0 0 0
POINT_DATA 10000
SCALARS SFBox_profile double
LOOKUP_TABLE default 
9.439941e-003
9.439933e-003
9.439923e-003
9.439915e-003
9.439913e-003
9.439916e-003
9.439921e-003
9.439922e-003
9.439921e-003
9.439919e-003
9.439919e-003
9.439921e-003
9.439923e-003
9.439923e-003
9.439920e-003
9.439917e-003
9.439917e-003
9.439918e-003
9.439920e-003
9.439921e-003
9.439921e-003
9.439920e-003
9.439920e-003
9.439921e-003
9.439922e-003
9.439922e-003
9.439922e-003
9.439921e-003
9.439921e-003
9.439922e-003
9.439923e-003
9.439923e-003
9.439923e-003
9.439924e-003
9.439925e-003
9.439927e-003
9.439928e-003
9.439928e-003
9.439929e-003
9.439930e-003
9.439932e-003
9.439933e-003
9.439933e-003
9.439934e-003
9.439934e-003
9.439935e-003
9.439935e-003
9.439936e-003
9.439936e-003
9.439936e-003
9.439936e-003
9.439936e-003
9.439936e-003
9.439935e-003
9.439935e-003
9.439935e-003
9.439934e-003
9.439933e-003
9.439933e-003
9.439932e-003
9.439931e-003
9.439930e-003
9.439929e-003
9.439928e-003
9.439927e-003
9.439926e-003
9.439925e-003
9.439924e-003
9.439923e-003
9.439923e-003
9.439923e-003
9.439922e-003
9.439921e-003
9.439921e-003
9.439921e-003
9.439921e-003
9.439921e-003
9.439921e-003
9.439920e-003
9.439920e-003
9.439921e-003
9.439921e-003
9.439920e-003
9.439919e-003
9.439919e-003
9.439919e-003
9.439920e-003
9.439921e-003
9.439921e-003
9.439920e-003
9.439920e-003
9.439920e-003
9.439920e-003
9.439920e-003
9.439920e-003
9.439919e-003
9.439919e-003
9.439919e-003
9.439920e-003
9.439921e-003
9.439941e-003
9.439933e-003
9.439923e-003
9.439915e-003
9.439913e-003
9.439916e-003
9.439921e-003
9.439922e-003
9.439921e-003
9.439919e-003
9.439919e-003
9.439921e-003
9.439923e-003
9.439923e-003
9.439920e-003
9.439917e-003
9.439917e-003
9.439918e-003
9.439920e-003
9.439921e-003
9.439921e-003
9.439920e-003
9.439920e-003
9.439921e-003
9.439922e-003
9.439922e-003
9.439922e-003
9.439921e-003
9.439921e-003
9.439922e-003
9.439923e-003
9.439923e-003
9.439923e-003
9.439924e-003
9.439925e-003
9.439927e-003
9.439928e-003
9.439928e-003
9.439929e-003
9.439930e-003
9.439932e-003
9.439933e-003
9.439933e-003
9.439934e-003
9.439934e-003
9.439935e-003
9.439935e-003
9.439936e-003
9.439936e-003
9.439936e-003
9.439936e-003
9.439936e-003
9.439936e-003
9.439935e-003
9.439935e-003
9.439935e-003
9.439934e-003
9.439933e-003
9.439933e-003
9.439932e-003
9.439931e-003
9.439930e-003
9.439929e-003
9.439928e-003
9.439927e-003
9.439926e-003
9.439925e-003
9.439924e-003
9.439923e-003
9.439923e-003
9.439923e-003
9.439922e-003
9.439921e-003
9.439921e-003
9.439921e-003
9.439921e-003
9.439921e-003
9.439921e-003
9.439920e-003
9.439920e-003
9.439921e-003
9.439921e-003
9.439920e-003
9.439919e-003
9.439919e-003
9.439919e-003
9.439920e-003
9.439921e-003
9.439921e-003
9.439920e-003
9.439920e-003
9.439920e-003
9.439920e-003
9.439920e-003
9.439920e-003
9.439919e-003
9.439919e-003
9.439919e-003
9.439920e-003
9.439921e-003
9.439925e-003
9.439923e-003
9.439920e-003
9.439918e-003
9.439918e-003
9.439920e-003
9.439922e-003
9.439922e-003
9.439921e-003
9.439919e-003
9.439918e-003
9.439919e-003
9.439920e-003
9.439921e-003
9.439921e-003
9.439920e-003
9.439919e-003
9.439920e-003
9.439921e-003
9.439921e-003
9.439921e-003
9.439920e-003
9.439920e-003
9.439920e-003
9.439921e-003
9.439922e-003
9.439922e-003
9.439922e-003
9.439923e-003
9.439924e-003
9.439925e-003
9.439925e-003
9.439926e-003
9.439927e-003
9.439928e-003
9.439929e-003
9.439930e-003
9.439930e-003
9.439931e-003
9.439932e-003
9.439933e-003
9.439934e-003
9.439934e-003
9.439935e-003
9.439935e-003
9.439936e-003
9.439936e-003
9.439937e-003
9.439937e-003
9.439937e-003
9.439937e-003
9.439937e-003
9.439937e-003
9.439937e-003
9.439937e-003
9.439936e-003
9.439936e-003
9.439935e-003
9.439934e-003
9.439934e-003
9.439933e-003
9.439932e-003
9.439931e-003
9.439930e-003
9.439930e-003
9.439929e-003
9.439927e-003
9.439926e-003
9.439926e-003
9.439925e-003
9.439924e-003
9.439923e-003
9.439922e-003
9.439922e-003
9.439921e-003
9.439921e-003
9.439921e-003
9.439920e-003
9.439920e-003
9.439920e-003
9.439920e-003
9.439921e-003
9.439920e-003
9.439920e-003
9.439920e-003
9.439920e-003
9.439920e-003
9.439920e-003
9.439920e-003
9.439920e-003
9.439920e-003
9.439920e-003
9.439920e-003
9.439920e-003
9.439920e-003
9.439920e-003
9.439920e-003
9.439920e-003
9.439920e-003
9.439920e-003
9.439907e-003
9.439911e-003
9.439917e-003
9.439922e-003
9.439924e-003
9.439923e-003
9.439921e-003
9.439920e-003
9.439920e-003
9.439919e-003
9.439919e-003
9.439918e-003
9.439918e-003
9.439919e-003
9.439921e-003
9.439922e-003
9.439922e-003
9.439922e-003
9.439921e-003
9.439921e-003
9.439920e-003
9.439920e-003
9.439920e-003
9.439921e-003
9.439921e-003
9.439922e-003
9.439923e-003
9.439924e-003
9.439926e-003
9.439927e-003
9.439928e-003
9.439929e-003
9.439930e-003
9.439932e-003
9.439933e-003
9.439934e-003
9.439935e-003
9.439936e-003
9.439936e-003
9.439937e-003
9.439938e-003
9.439939e-003
9.439939e-003
9.439940e-003
9.439940e-003
9.439941e-003
9.439941e-003
9.439942e-003
9.439942e-003
9.439942e-003
9.439942e-003
9.439942e-003
9.439942e-003
9.439942e-003
9.439942e-003
9.439941e-003
9.439941e-003
9.439940e-003
9.439940e-003
9.439939e-003
9.439939e-003
9.439938e-003
9.439937e-003
9.439936e-003
9.439935e-003
9.439934e-003
9.439932e-003
9.439931e-003
9.439930e-003
9.439928e-003
9.439927e-003
9.439926e-003
9.439925e-003
9.439924e-003
9.439923e-003
9.439922e-003
9.439921e-003
9.439921e-003
9.439920e-003
9.439920e-003
9.439920e-003
9.439920e-003
9.439920e-003
9.439921e-003
9.439921e-003
9.439921e-003
9.439920e-003
9.439920e-003
9.439919e-003
9.439919e-003
9.439919e-003
9.439920e-003
9.439920e-003
9.439920e-003
9.439920e-003
9.439921e-003
9.439921e-003
9.439920e-003
9.439920e-003
9.439919e-003
9.439899e-003
9.439907e-003
9.439918e-003
9.439925e-003
9.439927e-003
9.439923e-003
9.439919e-003
9.439917e-003
9.439919e-003
9.439921e-003
9.439921e-003
9.439919e-003
9.439918e-003
9.439918e-003
9.439920e-003
9.439922e-003
9.439923e-003
9.439922e-003
9.439920e-003
9.439920e-003
9.439921e-003
9.439922e-003
9.439923e-003
9.439923e-003
9.439923e-003
9.439924e-003
9.439926e-003
9.439929e-003
9.439930e-003
9.439932e-003
9.439933e-003
9.439935e-003
9.439937e-003
9.439939e-003
9.439940e-003
9.439942e-003
9.439943e-003
9.439944e-003
9.439945e-003
9.439946e-003
9.439946e-003
9.439947e-003
9.439947e-003
9.439947e-003
9.439947e-003
9.439947e-003
9.439947e-003
9.439947e-003
9.439947e-003
9.439946e-003
9.439946e-003
9.439946e-003
9.439946e-003
9.439946e-003
9.439946e-003
9.439946e-003
9.439946e-003
9.439945e-003
9.439945e-003
9.439945e-003
9.439945e-003
9.439944e-003
9.439943e-003
9.439943e-003
9.439941e-003
9.439940e-003
9.439939e-003
9.439937e-003
9.439935e-003
9.439933e-003
9.439932e-003
9.439930e-003
9.439929e-003
9.439927e-003
9.439925e-003
9.439924e-003
9.439923e-003
9.439922e-003
9.439922e-003
9.439921e-003
9.439920e-003
9.439920e-003
9.439920e-003
9.439921e-003
9.439921e-003
9.439921e-003
9.439920e-003
9.439919e-003
9.439919e-003
9.439920e-003
9.439920e-003
9.439920e-003
9.439920e-003
9.439920e-003
9.439920e-003
9.439921e-003
9.439921e-003
9.439921e-003
9.439920e-003
9.439919e-003
9.439906e-003
9.439912e-003
9.439921e-003
9.439926e-003
9.439925e-003
9.439920e-003
9.439916e-003
9.439915e-003
9.439919e-003
9.439923e-003
9.439924e-003
9.439922e-003
9.439919e-003
9.439918e-003
9.439919e-003
9.439921e-003
9.439922e-003
9.439920e-003
9.439919e-003
9.439920e-003
9.439922e-003
9.439925e-003
9.439926e-003
9.439927e-003
9.439928e-003
9.439929e-003
9.439932e-003
9.439935e-003
9.439937e-003
9.439938e-003
9.439940e-003
9.439942e-003
9.439944e-003
9.439946e-003
9.439947e-003
9.439947e-003
9.439947e-003
9.439947e-003
9.439947e-003
9.439945e-003
9.439944e-003
9.439941e-003
9.439939e-003
9.439937e-003
9.439934e-003
9.439932e-003
9.439930e-003
9.439928e-003
9.439926e-003
9.439925e-003
9.439924e-003
9.439923e-003
9.439923e-003
9.439924e-003
9.439925e-003
9.439926e-003
9.439928e-003
9.439930e-003
9.439932e-003
9.439935e-003
9.439937e-003
9.439939e-003
9.439941e-003
9.439942e-003
9.439943e-003
9.439943e-003
9.439943e-003
9.439943e-003
9.439941e-003
9.439940e-003
9.439938e-003
9.439936e-003
9.439934e-003
9.439932e-003
9.439930e-003
9.439928e-003
9.439926e-003
9.439925e-003
9.439924e-003
9.439923e-003
9.439922e-003
9.439920e-003
9.439920e-003
9.439920e-003
9.439921e-003
9.439920e-003
9.439920e-003
9.439919e-003
9.439920e-003
9.439921e-003
9.439921e-003
9.439921e-003
9.439920e-003
9.439919e-003
9.439919e-003
9.439920e-003
9.439921e-003
9.439921e-003
9.439920e-003
9.439919e-003
9.439921e-003
9.439922e-003
9.439923e-003
9.439923e-003
9.439921e-003
9.439917e-003
9.439915e-003
9.439916e-003
9.439919e-003
9.439923e-003
9.439924e-003
9.439923e-003
9.439920e-003
9.439919e-003
9.439919e-003
9.439920e-003
9.439921e-003
9.439921e-003
9.439920e-003
9.439922e-003
9.439925e-003
9.439928e-003
9.439930e-003
9.439932e-003
9.439933e-003
9.439936e-003
9.439940e-003
9.439943e-003
9.439944e-003
9.439945e-003
9.439946e-003
9.439946e-003
9.439946e-003
9.439944e-003
9.439940e-003
9.439935e-003
9.439929e-003
9.439922e-003
9.439913e-003
9.439903e-003
9.439892e-003
9.439881e-003
9.439870e-003
9.439859e-003
9.439848e-003
9.439838e-003
9.439829e-003
9.439822e-003
9.439816e-003
9.439811e-003
9.439808e-003
9.439808e-003
9.439809e-003
9.439812e-003
9.439817e-003
9.439824e-003
9.439832e-003
9.439842e-003
9.439853e-003
9.439864e-003
9.439876e-003
9.439888e-003
9.439900e-003
9.439910e-003
9.439919e-003
9.439927e-003
9.439933e-003
9.439938e-003
9.439941e-003
9.439942e-003
9.439942e-003
9.439941e-003
9.439940e-003
9.439938e-003
9.439936e-003
9.439933e-003
9.439930e-003
9.439929e-003
9.439927e-003
9.439926e-003
9.439924e-003
9.439922e-003
9.439921e-003
9.439920e-003
9.439920e-003
9.439920e-003
9.439920e-003
9.439920e-003
9.439920e-003
9.439921e-003
9.439921e-003
9.439921e-003
9.439920e-003
9.439919e-003
9.439919e-003
9.439919e-003
9.439920e-003
9.439920e-003
9.439920e-003
9.439920e-003
9.439932e-003
9.439928e-003
9.439922e-003
9.439918e-003
9.439916e-003
9.439918e-003
9.439919e-003
9.439920e-003
9.439920e-003
9.439921e-003
9.439921e-003
9.439921e-003
9.439921e-003
9.439920e-003
9.439920e-003
9.439921e-003
9.439922e-003
9.439923e-003
9.439925e-003
9.439927e-003
9.439929e-003
9.439932e-003
9.439935e-003
9.439937e-003
9.439940e-003
9.439944e-003
9.439947e-003
9.439948e-003
9.439948e-003
9.439945e-003
9.439940e-003
9.439932e-003
9.439921e-003
9.439906e-003
9.439886e-003
9.439862e-003
9.439836e-003
9.439806e-003
9.439774e-003
9.439739e-003
9.439703e-003
9.439667e-003
9.439632e-003
9.439597e-003
9.439565e-003
9.439535e-003
9.439508e-003
9.439486e-003
9.439468e-003
9.439456e-003
9.439448e-003
9.439447e-003
9.439451e-003
9.439461e-003
9.439477e-003
9.439498e-003
9.439525e-003
9.439555e-003
9.439590e-003
9.439626e-003
9.439665e-003
9.439704e-003
9.439743e-003
9.439780e-003
9.439814e-003
9.439845e-003
9.439872e-003
9.439894e-003
9.439912e-003
9.439925e-003
9.439934e-003
9.439940e-003
9.439942e-003
9.439943e-003
9.439941e-003
9.439939e-003
9.439936e-003
9.439933e-003
9.439931e-003
9.439928e-003
9.439926e-003
9.439924e-003
9.439923e-003
9.439922e-003
9.439921e-003
9.439920e-003
9.439920e-003
9.439920e-003
9.439920e-003
9.439921e-003
9.439921e-003
9.439920e-003
9.439920e-003
9.439920e-003
9.439920e-003
9.439920e-003
9.439920e-003
9.439920e-003
9.439920e-003
9.439921e-003
9.439935e-003
9.439928e-003
9.439918e-003
9.439913e-003
9.439915e-003
9.439920e-003
9.439925e-003
9.439925e-003
9.439921e-003
9.439918e-003
9.439917e-003
9.439919e-003
9.439921e-003
9.439922e-003
9.439922e-003
9.439923e-003
9.439925e-003
9.439927e-003
9.439930e-003
9.439933e-003
9.439935e-003
9.439938e-003
9.439941e-003
9.439945e-003
9.439947e-003
9.439948e-003
9.439947e-003
9.439941e-003
9.439929e-003
9.439911e-003
9.439886e-003
9.439852e-003
9.439809e-003
9.439756e-003
9.439693e-003
9.439620e-003
9.439540e-003
9.439454e-003
9.439361e-003
9.439264e-003
9.439165e-003
9.439067e-003
9.438971e-003
9.438879e-003
9.438793e-003
9.438714e-003
9.438646e-003
9.438588e-003
9.438542e-003
9.438510e-003
9.438492e-003
9.438489e-003
9.438501e-003
9.438528e-003
9.438570e-003
9.438626e-003
9.438696e-003
9.438777e-003
9.438869e-003
9.438969e-003
9.439074e-003
9.439181e-003
9.439289e-003
9.439394e-003
9.439493e-003
9.439584e-003
9.439665e-003
9.439736e-003
9.439796e-003
9.439843e-003
9.439880e-003
9.439906e-003
9.439924e-003
9.439936e-003
9.439941e-003
9.439943e-003
9.439941e-003
9.439939e-003
9.439936e-003
9.439933e-003
9.439930e-003
9.439928e-003
9.439926e-003
9.439924e-003
9.439923e-003
9.439922e-003
9.439921e-003
9.439921e-003
9.439920e-003
9.439920e-003
9.439919e-003
9.439919e-003
9.439920e-003
9.439921e-003
9.439921e-003
9.439920e-003
9.439919e-003
9.439919e-003
9.439920e-003
9.439921e-003
9.439930e-003
9.439924e-003
9.439916e-003
9.439913e-003
9.439916e-003
9.439923e-003
9.439927e-003
9.439926e-003
9.439921e-003
9.439916e-003
9.439915e-003
9.439918e-003
9.439922e-003
9.439924e-003
9.439925e-003
9.439925e-003
9.439927e-003
9.439932e-003
9.439936e-003
9.439940e-003
9.439943e-003
9.439945e-003
9.439948e-003
9.439949e-003
9.439946e-003
9.439936e-003
9.439917e-003
9.439886e-003
9.439841e-003
9.439779e-003
9.439697e-003
9.439593e-003
9.439467e-003
9.439318e-003
9.439147e-003
9.438955e-003
9.438745e-003
9.438521e-003
9.438285e-003
9.438042e-003
9.437797e-003
9.437554e-003
9.437319e-003
9.437095e-003
9.436887e-003
9.436699e-003
9.436534e-003
9.436397e-003
9.436288e-003
9.436212e-003
9.436170e-003
9.436163e-003
9.436192e-003
9.436258e-003
9.436359e-003
9.436495e-003
9.436664e-003
9.436862e-003
9.437085e-003
9.437328e-003
9.437587e-003
9.437854e-003
9.438124e-003
9.438389e-003
9.438642e-003
9.438879e-003
9.439095e-003
9.439286e-003
9.439451e-003
9.439587e-003
9.439697e-003
9.439782e-003
9.439844e-003
9.439887e-003
9.439916e-003
9.439933e-003
9.439941e-003
9.439943e-003
9.439941e-003
9.439939e-003
9.439935e-003
9.439932e-003
9.439930e-003
9.439927e-003
9.439925e-003
9.439923e-003
9.439922e-003
9.439922e-003
9.439921e-003
9.439919e-003
9.439919e-003
9.439919e-003
9.439920e-003
9.439921e-003
9.439921e-003
9.439920e-003
9.439919e-003
9.439919e-003
9.439920e-003
9.439920e-003
9.439923e-003
9.439920e-003
9.439917e-003
9.439916e-003
9.439919e-003
9.439922e-003
9.439925e-003
9.439923e-003
9.439920e-003
9.439917e-003
9.439918e-003
9.439921e-003
9.439925e-003
9.439927e-003
9.439927e-003
9.439928e-003
9.439931e-003
9.439937e-003
9.439943e-003
9.439947e-003
9.439950e-003
9.439950e-003
9.439947e-003
9.439935e-003
9.439910e-003
9.439866e-003
9.439797e-003
9.439700e-003
9.439567e-003
9.439392e-003
9.439170e-003
9.438897e-003
9.438574e-003
9.438199e-003
9.437776e-003
9.437309e-003
9.436805e-003
9.436270e-003
9.435715e-003
9.435149e-003
9.434582e-003
9.434026e-003
9.433489e-003
9.432981e-003
9.432512e-003
9.432090e-003
9.431723e-003
9.431417e-003
9.431177e-003
9.431009e-003
9.430917e-003
9.430903e-003
9.430970e-003
9.431117e-003
9.431345e-003
9.431650e-003
9.432029e-003
9.432476e-003
9.432982e-003
9.433537e-003
9.434129e-003
9.434745e-003
9.435371e-003
9.435992e-003
9.436593e-003
9.437160e-003
9.437683e-003
9.438153e-003
9.438563e-003
9.438912e-003
9.439198e-003
9.439425e-003
9.439599e-003
9.439727e-003
9.439817e-003
9.439877e-003
9.439914e-003
9.439933e-003
9.439942e-003
9.439943e-003
9.439941e-003
9.439938e-003
9.439934e-003
9.439930e-003
9.439927e-003
9.439925e-003
9.439924e-003
9.439923e-003
9.439922e-003
9.439920e-003
9.439919e-003
9.439919e-003
9.439920e-003
9.439921e-003
9.439921e-003
9.439920e-003
9.439920e-003
9.439919e-003
9.439920e-003
9.439920e-003
9.439916e-003
9.439918e-003
9.439921e-003
9.439922e-003
9.439922e-003
9.439920e-003
9.439919e-003
9.439918e-003
9.439919e-003
9.439921e-003
9.439923e-003
9.439925e-003
9.439927e-003
9.439929e-003
9.439930e-003
9.439933e-003
9.439938e-003
9.439944e-003
9.439950e-003
9.439953e-003
9.439950e-003
9.439937e-003
9.439910e-003
9.439859e-003
9.439774e-003
9.439642e-003
9.439453e-003
9.439193e-003
9.438849e-003
9.438411e-003
9.437867e-003
9.437212e-003
9.436447e-003
9.435575e-003
9.434602e-003
9.433541e-003
9.432407e-003
9.431219e-003
9.429997e-003
9.428762e-003
9.427537e-003
9.426342e-003
9.425198e-003
9.424124e-003
9.423137e-003
9.422254e-003
9.421488e-003
9.420853e-003
9.420357e-003
9.420012e-003
9.419824e-003
9.419799e-003
9.419941e-003
9.420250e-003
9.420727e-003
9.421366e-003
9.422161e-003
9.423101e-003
9.424171e-003
9.425351e-003
9.426618e-003
9.427946e-003
9.429305e-003
9.430665e-003
9.431994e-003
9.433264e-003
9.434446e-003
9.435521e-003
9.436473e-003
9.437292e-003
9.437977e-003
9.438532e-003
9.438967e-003
9.439296e-003
9.439535e-003
9.439702e-003
9.439812e-003
9.439880e-003
9.439918e-003
9.439936e-003
9.439943e-003
9.439943e-003
9.439940e-003
9.439935e-003
9.439931e-003
9.439928e-003
9.439926e-003
9.439924e-003
9.439923e-003
9.439922e-003
9.439921e-003
9.439920e-003
9.439920e-003
9.439920e-003
9.439920e-003
9.439920e-003
9.439920e-003
9.439920e-003
9.439920e-003
9.439920e-003
9.439909e-003
9.439916e-003
9.439924e-003
9.439927e-003
9.439924e-003
9.439918e-003
9.439914e-003
9.439916e-003
9.439920e-003
9.439925e-003
9.439927e-003
9.439928e-003
9.439929e-003
9.439932e-003
9.439936e-003
9.439942e-003
9.439948e-003
9.439953e-003
9.439954e-003
9.439945e-003
9.439920e-003
9.439868e-003
9.439776e-003
9.439626e-003
9.439394e-003
9.439057e-003
9.438588e-003
9.437961e-003
9.437149e-003
9.436131e-003
9.434892e-003
9.433424e-003
9.431732e-003
9.429828e-003
9.427734e-003
9.425477e-003
9.423095e-003
9.420628e-003
9.418120e-003
9.415613e-003
9.413151e-003
9.410773e-003
9.408517e-003
9.406416e-003
9.404502e-003
9.402801e-003
9.401336e-003
9.400126e-003
9.399190e-003
9.398542e-003
9.398193e-003
9.398154e-003
9.398431e-003
9.399027e-003
9.399942e-003
9.401172e-003
9.402706e-003
9.404527e-003
9.406611e-003
9.408927e-003
9.411435e-003
9.414088e-003
9.416830e-003
9.419604e-003
9.422348e-003
9.425000e-003
9.427502e-003
9.429807e-003
9.431874e-003
9.433679e-003
9.435211e-003
9.436473e-003
9.437478e-003
9.438254e-003
9.438831e-003
9.439245e-003
9.439529e-003
9.439715e-003
9.439829e-003
9.439894e-003
9.439927e-003
9.439941e-003
9.439944e-003
9.439941e-003
9.439937e-003
9.439932e-003
9.439929e-003
9.439926e-003
9.439924e-003
9.439923e-003
9.439922e-003
9.439921e-003
9.439920e-003
9.439919e-003
9.439919e-003
9.439920e-003
9.439920e-003
9.439921e-003
9.439920e-003
9.439920e-003
9.439905e-003
9.439913e-003
9.439924e-003
9.439928e-003
9.439925e-003
9.439918e-003
9.439914e-003
9.439917e-003
9.439923e-003
9.439928e-003
9.439929e-003
9.439929e-003
9.439930e-003
9.439936e-003
9.439945e-003
9.439953e-003
9.439957e-003
9.439954e-003
9.439937e-003
9.439894e-003
9.439810e-003
9.439660e-003
9.439415e-003
9.439035e-003
9.438475e-003
9.437683e-003
9.436608e-003
9.435195e-003
9.433399e-003
9.431185e-003
9.428533e-003
9.425444e-003
9.421938e-003
9.418054e-003
9.413850e-003
9.409396e-003
9.404771e-003
9.400061e-003
9.395349e-003
9.390717e-003
9.386239e-003
9.381981e-003
9.378001e-003
9.374349e-003
9.371065e-003
9.368183e-003
9.365729e-003
9.363726e-003
9.362194e-003
9.361147e-003
9.360600e-003
9.360563e-003
9.361047e-003
9.362060e-003
9.363604e-003
9.365681e-003
9.368282e-003
9.371394e-003
9.374990e-003
9.379035e-003
9.383475e-003
9.388242e-003
9.393252e-003
9.398406e-003
9.403594e-003
9.408698e-003
9.413602e-003
9.418198e-003
9.422394e-003
9.426121e-003
9.429337e-003
9.432029e-003
9.434212e-003
9.435926e-003
9.437226e-003
9.438176e-003
9.438844e-003
9.439295e-003
9.439586e-003
9.439762e-003
9.439863e-003
9.439915e-003
9.439938e-003
9.439944e-003
9.439943e-003
9.439939e-003
9.439933e-003
9.439929e-003
9.439926e-003
9.439924e-003
9.439923e-003
9.439922e-003
9.439921e-003
9.439919e-003
9.439919e-003
9.439920e-003
9.439921e-003
9.439921e-003
9.439920e-003
9.439919e-003
9.439906e-003
9.439913e-003
9.439921e-003
9.439925e-003
9.439923e-003
9.439919e-003
9.439918e-003
9.439922e-003
9.439927e-003
9.439930e-003
9.439931e-003
9.439931e-003
9.439936e-003
9.439945e-003
9.439955e-003
9.439960e-003
9.439953e-003
9.439925e-003
9.439861e-003
9.439736e-003
9.439513e-003
9.439141e-003
9.438557e-003
9.437682e-003
9.436424e-003
9.434685e-003
9.432365e-003
9.429372e-003
9.425635e-003
9.421113e-003
9.415803e-003
9.409745e-003
9.403019e-003
9.395744e-003
9.388066e-003
9.380147e-003
9.372157e-003
9.364259e-003
9.356602e-003
9.349314e-003
9.342499e-003
9.336236e-003
9.330579e-003
9.325562e-003
9.321201e-003
9.317497e-003
9.314445e-003
9.312034e-003
9.310254e-003
9.309095e-003
9.308550e-003
9.308620e-003
9.309310e-003
9.310634e-003
9.312610e-003
9.315263e-003
9.318619e-003
9.322706e-003
9.327543e-003
9.333140e-003
9.339481e-003
9.346525e-003
9.354191e-003
9.362361e-003
9.370877e-003
9.379543e-003
9.388143e-003
9.396450e-003
9.404251e-003
9.411363e-003
9.417648e-003
9.423028e-003
9.427481e-003
9.431044e-003
9.433797e-003
9.435847e-003
9.437319e-003
9.438335e-003
9.439006e-003
9.439431e-003
9.439685e-003
9.439827e-003
9.439900e-003
9.439933e-003
9.439944e-003
9.439944e-003
9.439939e-003
9.439933e-003
9.439929e-003
9.439926e-003
9.439924e-003
9.439923e-003
9.439922e-003
9.439920e-003
9.439920e-003
9.439920e-003
9.439921e-003
9.439921e-003
9.439920e-003
9.439919e-003
9.439916e-003
9.439917e-003
9.439919e-003
9.439920e-003
9.439920e-003
9.439921e-003
9.439923e-003
9.439926e-003
9.439929e-003
9.439931e-003
9.439934e-003
9.439938e-003
9.439946e-003
9.439956e-003
9.439961e-003
9.439951e-003
9.439912e-003
9.439824e-003
9.439651e-003
9.439340e-003
9.438814e-003
9.437971e-003
9.436683e-003
9.434796e-003
9.432139e-003
9.428534e-003
9.423817e-003
9.417859e-003
9.410590e-003
9.402020e-003
9.392252e-003
9.381482e-003
9.369984e-003
9.358096e-003
9.346182e-003
9.334605e-003
9.323698e-003
9.313737e-003
9.304930e-003
9.297407e-003
9.291221e-003
9.286352e-003
9.282722e-003
9.280201e-003
9.278628e-003
9.277825e-003
9.277611e-003
9.277812e-003
9.278274e-003
9.278864e-003
9.279479e-003
9.280052e-003
9.280553e-003
9.280995e-003
9.281438e-003
9.281992e-003
9.282814e-003
9.284106e-003
9.286104e-003
9.289058e-003
9.293205e-003
9.298745e-003
9.305802e-003
9.314401e-003
9.324446e-003
9.335711e-003
9.347854e-003
9.360444e-003
9.373000e-003
9.385048e-003
9.396169e-003
9.406045e-003
9.414482e-003
9.421418e-003
9.426903e-003
9.431078e-003
9.434133e-003
9.436284e-003
9.437738e-003
9.438680e-003
9.439262e-003
9.439603e-003
9.439791e-003
9.439886e-003
9.439929e-003
9.439944e-003
9.439944e-003
9.439939e-003
9.439933e-003
9.439929e-003
9.439926e-003
9.439924e-003
9.439923e-003
9.439921e-003
9.439921e-003
9.439921e-003
9.439921e-003
9.439920e-003
9.439920e-003
9.439919e-003
9.439930e-003
9.439925e-003
9.439919e-003
9.439916e-003
9.439918e-003
9.439923e-003
9.439927e-003
9.439929e-003
9.439930e-003
9.439934e-003
9.439940e-003
9.439949e-003
9.439959e-003
9.439962e-003
9.439948e-003
9.439901e-003
9.439789e-003
9.439567e-003
9.439159e-003
9.438458e-003
9.437311e-003
9.435519e-003
9.432841e-003
9.428997e-003
9.423695e-003
9.416660e-003
9.407685e-003
9.396688e-003
9.383762e-003
9.369210e-003
9.353555e-003
9.337513e-003
9.321935e-003
9.307727e-003
9.295761e-003
9.286785e-003
9.281359e-003
9.279817e-003
9.282245e-003
9.288495e-003
9.298201e-003
9.310820e-003
9.325671e-003
9.341981e-003
9.358935e-003
9.375721e-003
9.391560e-003
9.405742e-003
9.417639e-003
9.426721e-003
9.432566e-003
9.434871e-003
9.433468e-003
9.428336e-003
9.419625e-003
9.407672e-003
9.393019e-003
9.376407e-003
9.358769e-003
9.341183e-003
9.324811e-003
9.310804e-003
9.300201e-003
9.293817e-003
9.292149e-003
9.295304e-003
9.302976e-003
9.314469e-003
9.328787e-003
9.344755e-003
9.361179e-003
9.376988e-003
9.391350e-003
9.403731e-003
9.413897e-003
9.421871e-003
9.427856e-003
9.432163e-003
9.435135e-003
9.437100e-003
9.438345e-003
9.439096e-003
9.439527e-003
9.439759e-003
9.439875e-003
9.439926e-003
9.439943e-003
9.439944e-003
9.439940e-003
9.439934e-003
9.439929e-003
9.439926e-003
9.439924e-003
9.439923e-003
9.439921e-003
9.439920e-003
9.439920e-003
9.439920e-003
9.439920e-003
9.439920e-003
9.439940e-003
9.439931e-003
9.439919e-003
9.439914e-003
9.439918e-003
9.439925e-003
9.439930e-003
9.439931e-003
9.439933e-003
9.439939e-003
9.439950e-003
9.439961e-003
9.439964e-003
9.439948e-003
9.439893e-003
9.439762e-003
9.439495e-003
9.438995e-003
9.438111e-003
9.436634e-003
9.434277e-003
9.430677e-003
9.425409e-003
9.418014e-003
9.408074e-003
9.395302e-003
9.379673e-003
9.361559e-003
9.341827e-003
9.321887e-003
9.303641e-003
9.289346e-003
9.281388e-003
9.282025e-003
9.293136e-003
9.316020e-003
9.351274e-003
9.398753e-003
9.457608e-003
9.526364e-003
9.603046e-003
9.685297e-003
9.770518e-003
9.855999e-003
9.939044e-003
1.001707e-002
1.008769e-002
1.014877e-002
1.019844e-002
1.023514e-002
1.025760e-002
1.026488e-002
1.025638e-002
1.023193e-002
1.019182e-002
1.013686e-002
1.006850e-002
9.988829e-003
9.900601e-003
9.807156e-003
9.712286e-003
9.620015e-003
9.534314e-003
9.458772e-003
9.396263e-003
9.348660e-003
9.316634e-003
9.299587e-003
9.295764e-003
9.302524e-003
9.316730e-003
9.335203e-003
9.355115e-003
9.374271e-003
9.391227e-003
9.405257e-003
9.416214e-003
9.424340e-003
9.430088e-003
9.433974e-003
9.436488e-003
9.438041e-003
9.438957e-003
9.439469e-003
9.439738e-003
9.439869e-003
9.439925e-003
9.439943e-003
9.439945e-003
9.439940e-003
9.439933e-003
9.439928e-003
9.439925e-003
9.439924e-003
9.439922e-003
9.439921e-003
9.439919e-003
9.439919e-003
9.439920e-003
9.439921e-003
9.439939e-003
9.439930e-003
9.439919e-003
9.439916e-003
9.439921e-003
9.439928e-003
9.439933e-003
9.439935e-003
9.439938e-003
9.439947e-003
9.439960e-003
9.439966e-003
9.439951e-003
9.439891e-003
9.439747e-003
9.439446e-003
9.438867e-003
9.437819e-003
9.436020e-003
9.433083e-003
9.428497e-003
9.421645e-003
9.411859e-003
9.398539e-003
9.381350e-003
9.360501e-003
9.337071e-003
9.313304e-003
9.292776e-003
9.280355e-003
9.281876e-003
9.303587e-003
9.351437e-003
9.430359e-003
9.543666e-003
9.692679e-003
9.876606e-003
1.009266e-002
1.033635e-002
1.060183e-002
1.088234e-002
1.117052e-002
1.145882e-002
1.173975e-002
1.200619e-002
1.225153e-002
1.246983e-002
1.265591e-002
1.280528e-002
1.291417e-002
1.297953e-002
1.299896e-002
1.297086e-002
1.289449e-002
1.277013e-002
1.259938e-002
1.238528e-002
1.213259e-002
1.184790e-002
1.153957e-002
1.121753e-002
1.089290e-002
1.057731e-002
1.028211e-002
1.001745e-002
9.791356e-003
9.608940e-003
9.471867e-003
9.378273e-003
9.323167e-003
9.299295e-003
9.298304e-003
9.311941e-003
9.333059e-003
9.356221e-003
9.377868e-003
9.396124e-003
9.410383e-003
9.420846e-003
9.428120e-003
9.432935e-003
9.435977e-003
9.437811e-003
9.438865e-003
9.439438e-003
9.439731e-003
9.439869e-003
9.439926e-003
9.439944e-003
9.439944e-003
9.439938e-003
9.439932e-003
9.439928e-003
9.439925e-003
9.439923e-003
9.439921e-003
9.439920e-003
9.439920e-003
9.439920e-003
9.439921e-003
9.439929e-003
9.439924e-003
9.439919e-003
9.439919e-003
9.439925e-003
9.439932e-003
9.439937e-003
9.439941e-003
9.439947e-003
9.439958e-003
9.439965e-003
9.439954e-003
9.439896e-003
9.439748e-003
9.439428e-003
9.438795e-003
9.437620e-003
9.435550e-003
9.432082e-003
9.426538e-003
9.418077e-003
9.405772e-003
9.388815e-003
9.366889e-003
9.340748e-003
9.312954e-003
9.288654e-003
9.276141e-003
9.286937e-003
9.335202e-003
9.436437e-003
9.605670e-003
9.855510e-003
1.019444e-002
1.062572e-002
1.114697e-002
1.175054e-002
1.242434e-002
1.315303e-002
1.391918e-002
1.470434e-002
1.548995e-002
1.625800e-002
1.699162e-002
1.767541e-002
1.829569e-002
1.884057e-002
1.929992e-002
1.966513e-002
1.992901e-002
2.008555e-002
2.012989e-002
2.005834e-002
1.986862e-002
1.956026e-002
1.913507e-002
1.859781e-002
1.795680e-002
1.722448e-002
1.641768e-002
1.555764e-002
1.466946e-002
1.378109e-002
1.292175e-002
1.211988e-002
1.140074e-002
1.078391e-002
1.028127e-002
9.895673e-003
9.620983e-003
9.443424e-003
9.344107e-003
9.302148e-003
9.297672e-003
9.314056e-003
9.339058e-003
9.364862e-003
9.387336e-003
9.404958e-003
9.417754e-003
9.426493e-003
9.432151e-003
9.435640e-003
9.437689e-003
9.438834e-003
9.439439e-003