# vtk DataFile Version 3.0
vtk output
ASCII
DATASET STRUCTURED_POINTS
DIMENSIONS 100 100 1
SPACING 1 1 1
ORIGIN 0 0 0
POINT_DATA 10000
SCALARS SFBox_profile double
LOOKUP_TABLE default 
9.439945e-003
9.439936e-003
9.439923e-003
9.439914e-003
9.439912e-003
9.439916e-003
9.439921e-003
9.439922e-003
9.439921e-003
9.439919e-003
9.439919e-003
9.439922e-003
9.439924e-003
9.439923e-003
9.439920e-003
9.439916e-003
9.439916e-003
9.439918e-003
9.439921e-003
9.439922e-003
9.439920e-003
9.439919e-003
9.439920e-003
9.439921e-003
9.439923e-003
9.439923e-003
9.439922e-003
9.439921e-003
9.439921e-003
9.439922e-003
9.439923e-003
9.439923e-003
9.439923e-003
9.439924e-003
9.439925e-003
9.439927e-003
9.439928e-003
9.439929e-003
9.439930e-003
9.439931e-003
9.439932e-003
9.439933e-003
9.439934e-003
9.439935e-003
9.439936e-003
9.439936e-003
9.439937e-003
9.439937e-003
9.439937e-003
9.439937e-003
9.439937e-003
9.439937e-003
9.439937e-003
9.439936e-003
9.439936e-003
9.439936e-003
9.439935e-003
9.439934e-003
9.439933e-003
9.439932e-003
9.439931e-003
9.439930e-003
9.439929e-003
9.439928e-003
9.439927e-003
9.439926e-003
9.439925e-003
9.439924e-003
9.439923e-003
9.439923e-003
9.439923e-003
9.439922e-003
9.439921e-003
9.439921e-003
9.439921e-003
9.439922e-003
9.439922e-003
9.439921e-003
9.439920e-003
9.439920e-003
9.439921e-003
9.439921e-003
9.439920e-003
9.439919e-003
9.439918e-003
9.439918e-003
9.439919e-003
9.439921e-003
9.439921e-003
9.439921e-003
9.439920e-003
9.439920e-003
9.439920e-003
9.439920e-003
9.439920e-003
9.439919e-003
9.439919e-003
9.439919e-003
9.439920e-003
9.439921e-003
9.439945e-003
9.439936e-003
9.439923e-003
9.439914e-003
9.439912e-003
9.439916e-003
9.439921e-003
9.439922e-003
9.439921e-003
9.439919e-003
9.439919e-003
9.439922e-003
9.439924e-003
9.439923e-003
9.439920e-003
9.439916e-003
9.439916e-003
9.439918e-003
9.439921e-003
9.439922e-003
9.439920e-003
9.439919e-003
9.439920e-003
9.439921e-003
9.439923e-003
9.439923e-003
9.439922e-003
9.439921e-003
9.439921e-003
9.439922e-003
9.439923e-003
9.439923e-003
9.439923e-003
9.439924e-003
9.439925e-003
9.439927e-003
9.439928e-003
9.439929e-003
9.439930e-003
9.439931e-003
9.439932e-003
9.439933e-003
9.439934e-003
9.439935e-003
9.439936e-003
9.439936e-003
9.439937e-003
9.439937e-003
9.439937e-003
9.439937e-003
9.439937e-003
9.439937e-003
9.439937e-003
9.439936e-003
9.439936e-003
9.439936e-003
9.439935e-003
9.439934e-003
9.439933e-003
9.439932e-003
9.439931e-003
9.439930e-003
9.439929e-003
9.439928e-003
9.439927e-003
9.439926e-003
9.439925e-003
9.439924e-003
9.439923e-003
9.439923e-003
9.439923e-003
9.439922e-003
9.439921e-003
9.439921e-003
9.439921e-003
9.439922e-003
9.439922e-003
9.439921e-003
9.439920e-003
9.439920e-003
9.439921e-003
9.439921e-003
9.439920e-003
9.439919e-003
9.439918e-003
9.439918e-003
9.439919e-003
9.439921e-003
9.439921e-003
9.439921e-003
9.439920e-003
9.439920e-003
9.439920e-003
9.439920e-003
9.439920e-003
9.439919e-003
9.439919e-003
9.439919e-003
9.439920e-003
9.439921e-003
9.439927e-003
9.439924e-003
9.439920e-003
9.439917e-003
9.439917e-003
9.439920e-003
9.439922e-003
9.439922e-003
9.439921e-003
9.439919e-003
9.439918e-003
9.439919e-003
9.439921e-003
9.439921e-003
9.439920e-003
9.439919e-003
9.439919e-003
9.439920e-003
9.439921e-003
9.439922e-003
9.439920e-003
9.439919e-003
9.439919e-003
9.439920e-003
9.439921e-003
9.439922e-003
9.439921e-003
9.439921e-003
9.439922e-003
9.439924e-003
9.439925e-003
9.439926e-003
9.439926e-003
9.439927e-003
9.439928e-003
9.439929e-003
9.439930e-003
9.439930e-003
9.439931e-003
9.439932e-003
9.439933e-003
9.439934e-003
9.439934e-003
9.439935e-003
9.439935e-003
9.439936e-003
9.439936e-003
9.439936e-003
9.439937e-003
9.439937e-003
9.439937e-003
9.439937e-003
9.439937e-003
9.439937e-003
9.439936e-003
9.439936e-003
9.439936e-003
9.439935e-003
9.439934e-003
9.439934e-003
9.439933e-003
9.439932e-003
9.439931e-003
9.439930e-003
9.439930e-003
9.439929e-003
9.439928e-003
9.439926e-003
9.439926e-003
9.439925e-003
9.439924e-003
9.439923e-003
9.439922e-003
9.439922e-003
9.439921e-003
9.439921e-003
9.439921e-003
9.439920e-003
9.439920e-003
9.439920e-003
9.439920e-003
9.439921e-003
9.439921e-003
9.439920e-003
9.439920e-003
9.439920e-003
9.439920e-003
9.439920e-003
9.439920e-003
9.439920e-003
9.439919e-003
9.439920e-003
9.439920e-003
9.439921e-003
9.439920e-003
9.439920e-003
9.439920e-003
9.439920e-003
9.439920e-003
9.439920e-003
9.439906e-003
9.439910e-003
9.439916e-003
9.439922e-003
9.439924e-003
9.439924e-003
9.439922e-003
9.439921e-003
9.439920e-003
9.439919e-003
9.439918e-003
9.439917e-003
9.439917e-003
9.439919e-003
9.439921e-003
9.439923e-003
9.439923e-003
9.439922e-003
9.439921e-003
9.439921e-003
9.439920e-003
9.439920e-003
9.439920e-003
9.439920e-003
9.439921e-003
9.439921e-003
9.439922e-003
9.439924e-003
9.439925e-003
9.439927e-003
9.439929e-003
9.439930e-003
9.439931e-003
9.439932e-003
9.439933e-003
9.439934e-003
9.439935e-003
9.439936e-003
9.439936e-003
9.439937e-003
9.439938e-003
9.439938e-003
9.439939e-003
9.439939e-003
9.439940e-003
9.439940e-003
9.439941e-003
9.439941e-003
9.439941e-003
9.439941e-003
9.439941e-003
9.439941e-003
9.439941e-003
9.439941e-003
9.439941e-003
9.439941e-003
9.439940e-003
9.439940e-003
9.439939e-003
9.439939e-003
9.439938e-003
9.439938e-003
9.439937e-003
9.439936e-003
9.439935e-003
9.439934e-003
9.439932e-003
9.439931e-003
9.439930e-003
9.439928e-003
9.439927e-003
9.439926e-003
9.439925e-003
9.439923e-003
9.439922e-003
9.439922e-003
9.439921e-003
9.439920e-003
9.439920e-003
9.439920e-003
9.439920e-003
9.439920e-003
9.439921e-003
9.439921e-003
9.439922e-003
9.439921e-003
9.439921e-003
9.439920e-003
9.439919e-003
9.439919e-003
9.439919e-003
9.439920e-003
9.439920e-003
9.439921e-003
9.439921e-003
9.439921e-003
9.439920e-003
9.439920e-003
9.439920e-003
9.439919e-003
9.439895e-003
9.439905e-003
9.439917e-003
9.439926e-003
9.439928e-003
9.439923e-003
9.439919e-003
9.439918e-003
9.439920e-003
9.439921e-003
9.439921e-003
9.439918e-003
9.439917e-003
9.439918e-003
9.439921e-003
9.439923e-003
9.439923e-003
9.439921e-003
9.439919e-003
9.439919e-003
9.439921e-003
9.439922e-003
9.439923e-003
9.439923e-003
9.439923e-003
9.439924e-003
9.439926e-003
9.439929e-003
9.439930e-003
9.439932e-003
9.439933e-003
9.439935e-003
9.439937e-003
9.439939e-003
9.439940e-003
9.439942e-003
9.439943e-003
9.439944e-003
9.439945e-003
9.439946e-003
9.439946e-003
9.439947e-003
9.439947e-003
9.439947e-003
9.439947e-003
9.439947e-003
9.439947e-003
9.439946e-003
9.439946e-003
9.439946e-003
9.439946e-003
9.439946e-003
9.439946e-003
9.439945e-003
9.439945e-003
9.439945e-003
9.439945e-003
9.439945e-003
9.439945e-003
9.439945e-003
9.439945e-003
9.439944e-003
9.439943e-003
9.439943e-003
9.439941e-003
9.439940e-003
9.439939e-003
9.439937e-003
9.439935e-003
9.439933e-003
9.439932e-003
9.439930e-003
9.439928e-003
9.439927e-003
9.439925e-003
9.439924e-003
9.439923e-003
9.439922e-003
9.439922e-003
9.439921e-003
9.439920e-003
9.439920e-003
9.439920e-003
9.439921e-003
9.439922e-003
9.439922e-003
9.439921e-003
9.439919e-003
9.439919e-003
9.439919e-003
9.439920e-003
9.439920e-003
9.439920e-003
9.439920e-003
9.439920e-003
9.439921e-003
9.439921e-003
9.439921e-003
9.439920e-003
9.439919e-003
9.439902e-003
9.439910e-003
9.439921e-003
9.439928e-003
9.439927e-003
9.439920e-003
9.439914e-003
9.439914e-003
9.439919e-003
9.439923e-003
9.439925e-003
9.439922e-003
9.439919e-003
9.439918e-003
9.439920e-003
9.439922e-003
9.439922e-003
9.439919e-003
9.439918e-003
9.439919e-003
9.439922e-003
9.439925e-003
9.439927e-003
9.439927e-003
9.439927e-003
9.439930e-003
9.439933e-003
9.439935e-003
9.439937e-003
9.439938e-003
9.439939e-003
9.439942e-003
9.439944e-003
9.439946e-003
9.439947e-003
9.439947e-003
9.439947e-003
9.439947e-003
9.439947e-003
9.439945e-003
9.439943e-003
9.439941e-003
9.439939e-003
9.439936e-003
9.439934e-003
9.439931e-003
9.439928e-003
9.439926e-003
9.439925e-003
9.439923e-003
9.439922e-003
9.439922e-003
9.439922e-003
9.439923e-003
9.439924e-003
9.439926e-003
9.439928e-003
9.439930e-003
9.439932e-003
9.439935e-003
9.439937e-003
9.439939e-003
9.439941e-003
9.439942e-003
9.439943e-003
9.439943e-003
9.439943e-003
9.439943e-003
9.439941e-003
9.439939e-003
9.439937e-003
9.439936e-003
9.439934e-003
9.439932e-003
9.439930e-003
9.439928e-003
9.439926e-003
9.439925e-003
9.439925e-003
9.439923e-003
9.439922e-003
9.439920e-003
9.439919e-003
9.439920e-003
9.439920e-003
9.439920e-003
9.439920e-003
9.439919e-003
9.439920e-003
9.439921e-003
9.439921e-003
9.439921e-003
9.439920e-003
9.439919e-003
9.439919e-003
9.439920e-003
9.439921e-003
9.439921e-003
9.439920e-003
9.439919e-003
9.439918e-003
9.439921e-003
9.439924e-003
9.439925e-003
9.439922e-003
9.439917e-003
9.439913e-003
9.439914e-003
9.439919e-003
9.439924e-003
9.439926e-003
9.439924e-003
9.439921e-003
9.439919e-003
9.439919e-003
9.439920e-003
9.439920e-003
9.439920e-003
9.439920e-003
9.439922e-003
9.439925e-003
9.439928e-003
9.439930e-003
9.439932e-003
9.439933e-003
9.439936e-003
9.439940e-003
9.439943e-003
9.439944e-003
9.439945e-003
9.439946e-003
9.439946e-003
9.439946e-003
9.439944e-003
9.439940e-003
9.439934e-003
9.439928e-003
9.439920e-003
9.439911e-003
9.439900e-003
9.439889e-003
9.439877e-003
9.439865e-003
9.439853e-003
9.439842e-003
9.439831e-003
9.439822e-003
9.439814e-003
9.439808e-003
9.439803e-003
9.439801e-003
9.439800e-003
9.439802e-003
9.439806e-003
9.439811e-003
9.439819e-003
9.439828e-003
9.439839e-003
9.439850e-003
9.439863e-003
9.439875e-003
9.439888e-003
9.439899e-003
9.439910e-003
9.439919e-003
9.439927e-003
9.439934e-003
9.439938e-003
9.439941e-003
9.439942e-003
9.439942e-003
9.439941e-003
9.439940e-003
9.439938e-003
9.439936e-003
9.439933e-003
9.439930e-003
9.439928e-003
9.439927e-003
9.439926e-003
9.439924e-003
9.439922e-003
9.439921e-003
9.439920e-003
9.439920e-003
9.439920e-003
9.439919e-003
9.439920e-003
9.439921e-003
9.439922e-003
9.439922e-003
9.439921e-003
9.439919e-003
9.439918e-003
9.439919e-003
9.439919e-003
9.439920e-003
9.439921e-003
9.439920e-003
9.439920e-003
9.439932e-003
9.439928e-003
9.439923e-003
9.439919e-003
9.439917e-003
9.439917e-003
9.439918e-003
9.439919e-003
9.439920e-003
9.439921e-003
9.439922e-003
9.439922e-003
9.439921e-003
9.439920e-003
9.439919e-003
9.439920e-003
9.439922e-003
9.439924e-003
9.439925e-003
9.439927e-003
9.439929e-003
9.439932e-003
9.439935e-003
9.439937e-003
9.439940e-003
9.439944e-003
9.439947e-003
9.439948e-003
9.439948e-003
9.439945e-003
9.439940e-003
9.439932e-003
9.439921e-003
9.439905e-003
9.439884e-003
9.439859e-003
9.439832e-003
9.439800e-003
9.439766e-003
9.439729e-003
9.439691e-003
9.439652e-003
9.439615e-003
9.439578e-003
9.439543e-003
9.439512e-003
9.439484e-003
9.439461e-003
9.439443e-003
9.439430e-003
9.439424e-003
9.439423e-003
9.439429e-003
9.439441e-003
9.439459e-003
9.439482e-003
9.439511e-003
9.439545e-003
9.439581e-003
9.439620e-003
9.439661e-003
9.439702e-003
9.439742e-003
9.439780e-003
9.439815e-003
9.439846e-003
9.439874e-003
9.439896e-003
9.439914e-003
9.439926e-003
9.439935e-003
9.439940e-003
9.439943e-003
9.439943e-003
9.439941e-003
9.439938e-003
9.439935e-003
9.439933e-003
9.439930e-003
9.439928e-003
9.439926e-003
9.439925e-003
9.439923e-003
9.439922e-003
9.439921e-003
9.439920e-003
9.439920e-003
9.439920e-003
9.439921e-003
9.439921e-003
9.439921e-003
9.439920e-003
9.439920e-003
9.439919e-003
9.439919e-003
9.439920e-003
9.439920e-003
9.439920e-003
9.439920e-003
9.439920e-003
9.439938e-003
9.439929e-003
9.439918e-003
9.439912e-003
9.439914e-003
9.439921e-003
9.439926e-003
9.439925e-003
9.439921e-003
9.439917e-003
9.439917e-003
9.439918e-003
9.439920e-003
9.439921e-003
9.439921e-003
9.439923e-003
9.439925e-003
9.439928e-003
9.439931e-003
9.439933e-003
9.439935e-003
9.439937e-003
9.439941e-003
9.439944e-003
9.439947e-003
9.439948e-003
9.439947e-003
9.439941e-003
9.439930e-003
9.439912e-003
9.439887e-003
9.439853e-003
9.439808e-003
9.439753e-003
9.439688e-003
9.439612e-003
9.439529e-003
9.439437e-003
9.439339e-003
9.439237e-003
9.439132e-003
9.439028e-003
9.438927e-003
9.438830e-003
9.438739e-003
9.438657e-003
9.438585e-003
9.438526e-003
9.438480e-003
9.438448e-003
9.438431e-003
9.438430e-003
9.438446e-003
9.438478e-003
9.438525e-003
9.438587e-003
9.438663e-003
9.438751e-003
9.438848e-003
9.438954e-003
9.439064e-003
9.439176e-003
9.439287e-003
9.439395e-003
9.439496e-003
9.439588e-003
9.439671e-003
9.439742e-003
9.439800e-003
9.439847e-003
9.439883e-003
9.439909e-003
9.439926e-003
9.439936e-003
9.439941e-003
9.439943e-003
9.439941e-003
9.439938e-003
9.439935e-003
9.439932e-003
9.439930e-003
9.439928e-003
9.439926e-003
9.439925e-003
9.439923e-003
9.439922e-003
9.439921e-003
9.439920e-003
9.439920e-003
9.439920e-003
9.439919e-003
9.439919e-003
9.439920e-003
9.439921e-003
9.439921e-003
9.439920e-003
9.439919e-003
9.439919e-003
9.439920e-003
9.439921e-003
9.439937e-003
9.439927e-003
9.439914e-003
9.439909e-003
9.439914e-003
9.439923e-003
9.439930e-003
9.439929e-003
9.439921e-003
9.439915e-003
9.439914e-003
9.439917e-003
9.439922e-003
9.439924e-003
9.439925e-003
9.439925e-003
9.439928e-003
9.439932e-003
9.439936e-003
9.439939e-003
9.439942e-003
9.439945e-003
9.439948e-003
9.439950e-003
9.439947e-003
9.439937e-003
9.439918e-003
9.439888e-003
9.439843e-003
9.439781e-003
9.439699e-003
9.439593e-003
9.439464e-003
9.439311e-003
9.439134e-003
9.438935e-003
9.438716e-003
9.438481e-003
9.438233e-003
9.437978e-003
9.437719e-003
9.437464e-003
9.437216e-003
9.436981e-003
9.436762e-003
9.436566e-003
9.436395e-003
9.436254e-003
9.436144e-003
9.436069e-003
9.436031e-003
9.436030e-003
9.436068e-003
9.436144e-003
9.436257e-003
9.436406e-003
9.436589e-003
9.436801e-003
9.437038e-003
9.437294e-003
9.437565e-003
9.437842e-003
9.438121e-003
9.438392e-003
9.438651e-003
9.438891e-003
9.439109e-003
9.439300e-003
9.439464e-003
9.439599e-003
9.439706e-003
9.439789e-003
9.439849e-003
9.439891e-003
9.439918e-003
9.439934e-003
9.439942e-003
9.439943e-003
9.439941e-003
9.439938e-003
9.439935e-003
9.439932e-003
9.439930e-003
9.439927e-003
9.439925e-003
9.439923e-003
9.439922e-003
9.439922e-003
9.439920e-003
9.439919e-003
9.439918e-003
9.439919e-003
9.439921e-003
9.439922e-003
9.439922e-003
9.439920e-003
9.439919e-003
9.439919e-003
9.439920e-003
9.439921e-003
9.439930e-003
9.439924e-003
9.439916e-003
9.439913e-003
9.439916e-003
9.439923e-003
9.439927e-003
9.439925e-003
9.439920e-003
9.439916e-003
9.439916e-003
9.439921e-003
9.439926e-003
9.439928e-003
9.439928e-003
9.439928e-003
9.439930e-003
9.439936e-003
9.439942e-003
9.439946e-003
9.439949e-003
9.439950e-003
9.439948e-003
9.439937e-003
9.439913e-003
9.439870e-003
9.439803e-003
9.439707e-003
9.439574e-003
9.439399e-003
9.439174e-003
9.438898e-003
9.438567e-003
9.438182e-003
9.437746e-003
9.437262e-003
9.436737e-003
9.436179e-003
9.435598e-003
9.435004e-003
9.434410e-003
9.433825e-003
9.433261e-003
9.432729e-003
9.432238e-003
9.431799e-003
9.431419e-003
9.431105e-003
9.430863e-003
9.430698e-003
9.430614e-003
9.430614e-003
9.430699e-003
9.430870e-003
9.431123e-003
9.431457e-003
9.431866e-003
9.432344e-003
9.432880e-003
9.433463e-003
9.434082e-003
9.434721e-003
9.435366e-003
9.436002e-003
9.436614e-003
9.437190e-003
9.437716e-003
9.438187e-003
9.438595e-003
9.438940e-003
9.439222e-003
9.439445e-003
9.439615e-003
9.439739e-003
9.439825e-003
9.439882e-003
9.439917e-003
9.439935e-003
9.439942e-003
9.439943e-003
9.439941e-003
9.439937e-003
9.439934e-003
9.439930e-003
9.439927e-003
9.439925e-003
9.439924e-003
9.439923e-003
9.439922e-003
9.439920e-003
9.439919e-003
9.439919e-003
9.439920e-003
9.439922e-003
9.439921e-003
9.439920e-003
9.439919e-003
9.439919e-003
9.439920e-003
9.439921e-003
9.439918e-003
9.439920e-003
9.439921e-003
9.439921e-003
9.439921e-003
9.439920e-003
9.439919e-003
9.439919e-003
9.439919e-003
9.439920e-003
9.439922e-003
9.439926e-003
9.439929e-003
9.439930e-003
9.439931e-003
9.439932e-003
9.439936e-003
9.439943e-003
9.439949e-003
9.439953e-003
9.439950e-003
9.439939e-003
9.439914e-003
9.439866e-003
9.439783e-003
9.439654e-003
9.439468e-003
9.439211e-003
9.438869e-003
9.438429e-003
9.437880e-003
9.437216e-003
9.436435e-003
9.435541e-003
9.434539e-003
9.433442e-003
9.432264e-003
9.431026e-003
9.429750e-003
9.428458e-003
9.427174e-003
9.425922e-003
9.424723e-003
9.423600e-003
9.422571e-003
9.421654e-003
9.420863e-003
9.420214e-003
9.419715e-003
9.419378e-003
9.419208e-003
9.419211e-003
9.419391e-003
9.419746e-003
9.420275e-003
9.420972e-003
9.421828e-003
9.422831e-003
9.423962e-003
9.425201e-003
9.426523e-003
9.427899e-003
9.429300e-003
9.430692e-003
9.432046e-003
9.433332e-003
9.434523e-003
9.435600e-003
9.436548e-003
9.437360e-003
9.438036e-003
9.438581e-003
9.439005e-003
9.439324e-003
9.439555e-003
9.439716e-003
9.439821e-003
9.439885e-003
9.439921e-003
9.439938e-003
9.439944e-003
9.439943e-003
9.439939e-003
9.439934e-003
9.439930e-003
9.439927e-003
9.439926e-003
9.439925e-003
9.439923e-003
9.439922e-003
9.439921e-003
9.439920e-003
9.439920e-003
9.439920e-003
9.439920e-003
9.439920e-003
9.439920e-003
9.439920e-003
9.439920e-003
9.439921e-003
9.439905e-003
9.439914e-003
9.439925e-003
9.439930e-003
9.439925e-003
9.439917e-003
9.439913e-003
9.439914e-003
9.439920e-003
9.439925e-003
9.439928e-003
9.439928e-003
9.439929e-003
9.439931e-003
9.439935e-003
9.439940e-003
9.439947e-003
9.439953e-003
9.439955e-003
9.439948e-003
9.439924e-003
9.439875e-003
9.439787e-003
9.439642e-003
9.439418e-003
9.439088e-003
9.438627e-003
9.438005e-003
9.437197e-003
9.436176e-003
9.434926e-003
9.433439e-003
9.431715e-003
9.429765e-003
9.427611e-003
9.425280e-003
9.422811e-003
9.420247e-003
9.417633e-003
9.415017e-003
9.412445e-003
9.409960e-003
9.407605e-003
9.405417e-003
9.403429e-003
9.401670e-003
9.400164e-003
9.398933e-003
9.397995e-003
9.397364e-003
9.397051e-003
9.397065e-003
9.397412e-003
9.398092e-003
9.399104e-003
9.400439e-003
9.402085e-003
9.404021e-003
9.406220e-003
9.408647e-003
9.411260e-003
9.414006e-003
9.416829e-003
9.419669e-003
9.422463e-003
9.425149e-003
9.427670e-003
9.429980e-003
9.432041e-003
9.433832e-003
9.435344e-003
9.436584e-003
9.437567e-003
9.438322e-003
9.438881e-003
9.439280e-003
9.439552e-003
9.439729e-003
9.439837e-003
9.439899e-003
9.439930e-003
9.439942e-003
9.439944e-003
9.439941e-003
9.439936e-003
9.439932e-003
9.439928e-003
9.439926e-003
9.439925e-003
9.439923e-003
9.439922e-003
9.439921e-003
9.439920e-003
9.439919e-003
9.439919e-003
9.439920e-003
9.439921e-003
9.439921e-003
9.439920e-003
9.439920e-003
9.439895e-003
9.439909e-003
9.439925e-003
9.439932e-003
9.439927e-003
9.439917e-003
9.439912e-003
9.439915e-003
9.439923e-003
9.439930e-003
9.439931e-003
9.439929e-003
9.439929e-003
9.439935e-003
9.439943e-003
9.439952e-003
9.439957e-003
9.439956e-003
9.439941e-003
9.439902e-003
9.439822e-003
9.439679e-003
9.439443e-003
9.439076e-003
9.438531e-003
9.437757e-003
9.436697e-003
9.435298e-003
9.433508e-003
9.431289e-003
9.428617e-003
9.425487e-003
9.421918e-003
9.417946e-003
9.413628e-003
9.409036e-003
9.404253e-003
9.399370e-003
9.394478e-003
9.389664e-003
9.385008e-003
9.380584e-003
9.376456e-003
9.372677e-003
9.369291e-003
9.366333e-003
9.363832e-003
9.361810e-003
9.360288e-003
9.359278e-003
9.358794e-003
9.358845e-003
9.359438e-003
9.360580e-003
9.362272e-003
9.364509e-003
9.367282e-003
9.370573e-003
9.374351e-003
9.378576e-003
9.383188e-003
9.388115e-003
9.393267e-003
9.398542e-003
9.403824e-003
9.408997e-003
9.413941e-003
9.418552e-003
9.422740e-003
9.426441e-003
9.429619e-003
9.432268e-003
9.434406e-003
9.436077e-003
9.437338e-003
9.438256e-003
9.438899e-003
9.439331e-003
9.439607e-003
9.439775e-003
9.439870e-003
9.439919e-003
9.439940e-003
9.439945e-003
9.439943e-003
9.439938e-003
9.439933e-003
9.439928e-003
9.439926e-003
9.439924e-003
9.439924e-003
9.439922e-003
9.439920e-003
9.439919e-003
9.439919e-003
9.439920e-003
9.439922e-003
9.439922e-003
9.439920e-003
9.439919e-003
9.439896e-003
9.439908e-003
9.439922e-003
9.439929e-003
9.439926e-003
9.439918e-003
9.439916e-003
9.439920e-003
9.439928e-003
9.439932e-003
9.439931e-003
9.439930e-003
9.439933e-003
9.439943e-003
9.439954e-003
9.439961e-003
9.439956e-003
9.439930e-003
9.439871e-003
9.439753e-003
9.439541e-003
9.439186e-003
9.438624e-003
9.437777e-003
9.436553e-003
9.434850e-003
9.432563e-003
9.429597e-003
9.425872e-003
9.421340e-003
9.415990e-003
9.409854e-003
9.403011e-003
9.395577e-003
9.387704e-003
9.379561e-003
9.371328e-003
9.363181e-003
9.355282e-003
9.347770e-003
9.340759e-003
9.334333e-003
9.328551e-003
9.323448e-003
9.319037e-003
9.315317e-003
9.312279e-003
9.309906e-003
9.308185e-003
9.307101e-003
9.306645e-003
9.306815e-003
9.307616e-003
9.309060e-003
9.311169e-003
9.313966e-003
9.317481e-003
9.321741e-003
9.326768e-003
9.332565e-003
9.339116e-003
9.346370e-003
9.354241e-003
9.362599e-003
9.371276e-003
9.380068e-003
9.388754e-003
9.397103e-003
9.404906e-003
9.411984e-003
9.418209e-003
9.423510e-003
9.427879e-003
9.431359e-003
9.434035e-003
9.436021e-003
9.437440e-003
9.438415e-003
9.439057e-003
9.439461e-003
9.439702e-003
9.439837e-003
9.439905e-003
9.439936e-003
9.439945e-003
9.439944e-003
9.439939e-003
9.439932e-003
9.439928e-003
9.439925e-003
9.439925e-003
9.439923e-003
9.439922e-003
9.439920e-003
9.439919e-003
9.439920e-003
9.439922e-003
9.439921e-003
9.439920e-003
9.439918e-003
9.439912e-003
9.439915e-003
9.439919e-003
9.439921e-003
9.439921e-003
9.439920e-003
9.439922e-003
9.439926e-003
9.439930e-003
9.439933e-003
9.439933e-003
9.439936e-003
9.439944e-003
9.439955e-003
9.439962e-003
9.439955e-003
9.439919e-003
9.439837e-003
9.439674e-003
9.439381e-003
9.438881e-003
9.438074e-003
9.436832e-003
9.435004e-003
9.432414e-003
9.428880e-003
9.424228e-003
9.418318e-003
9.411067e-003
9.402471e-003
9.392622e-003
9.381709e-003
9.370011e-003
9.357876e-003
9.345690e-003
9.333842e-003
9.322695e-003
9.312554e-003
9.303650e-003
9.296126e-003
9.290040e-003
9.285366e-003
9.282007e-003
9.279814e-003
9.278597e-003
9.278151e-003
9.278269e-003
9.278755e-003
9.279434e-003
9.280163e-003
9.280832e-003
9.281373e-003
9.281764e-003
9.282030e-003
9.282252e-003
9.282561e-003
9.283140e-003
9.284219e-003
9.286055e-003
9.288917e-003
9.293055e-003
9.298666e-003
9.305867e-003
9.314662e-003
9.324928e-003
9.336410e-003
9.348738e-003
9.361458e-003
9.374078e-003
9.386121e-003
9.397178e-003
9.406943e-003
9.415244e-003
9.422034e-003
9.427380e-003
9.431431e-003
9.434384e-003
9.436455e-003
9.437849e-003
9.438748e-003
9.439302e-003
9.439625e-003
9.439802e-003
9.439892e-003
9.439932e-003
9.439945e-003
9.439944e-003
9.439939e-003
9.439932e-003
9.439928e-003
9.439926e-003
9.439925e-003
9.439923e-003
9.439921e-003
9.439920e-003
9.439920e-003
9.439921e-003
9.439921e-003
9.439920e-003
9.439919e-003
9.439934e-003
9.439927e-003
9.439919e-003
9.439915e-003
9.439916e-003
9.439922e-003
9.439927e-003
9.439930e-003
9.439931e-003
9.439933e-003
9.439938e-003
9.439947e-003
9.439958e-003
9.439963e-003
9.439953e-003
9.439909e-003
9.439805e-003
9.439597e-003
9.439213e-003
9.438549e-003
9.437455e-003
9.435736e-003
9.433152e-003
9.429422e-003
9.424247e-003
9.417340e-003
9.408475e-003
9.397547e-003
9.384623e-003
9.369989e-003
9.354159e-003
9.337862e-003
9.321986e-003
9.307497e-003
9.295343e-003
9.286354e-003
9.281170e-003
9.280183e-003
9.283514e-003
9.291010e-003
9.302269e-003
9.316677e-003
9.333457e-003
9.351729e-003
9.370566e-003
9.389047e-003
9.406304e-003
9.421547e-003
9.434093e-003
9.443380e-003
9.448974e-003
9.450585e-003
9.448080e-003
9.441496e-003
9.431062e-003
9.417211e-003
9.400589e-003
9.382052e-003
9.362640e-003
9.343528e-003
9.325951e-003
9.311103e-003
9.300028e-003
9.293510e-003
9.291981e-003
9.295457e-003
9.303535e-003
9.315428e-003
9.330066e-003
9.346231e-003
9.362715e-003
9.378462e-003
9.392671e-003
9.404845e-003
9.414787e-003
9.422547e-003
9.428347e-003
9.432503e-003
9.435360e-003
9.437243e-003
9.438431e-003
9.439146e-003
9.439553e-003
9.439772e-003
9.439881e-003
9.439929e-003
9.439944e-003
9.439944e-003
9.439939e-003
9.439933e-003
9.439929e-003
9.439926e-003
9.439924e-003
9.439923e-003
9.439921e-003
9.439920e-003
9.439920e-003
9.439920e-003
9.439920e-003
9.439921e-003
9.439949e-003
9.439935e-003
9.439919e-003
9.439911e-003
9.439915e-003
9.439925e-003
9.439931e-003
9.439932e-003
9.439932e-003
9.439936e-003
9.439947e-003
9.439960e-003
9.439966e-003
9.439953e-003
9.439903e-003
9.439781e-003
9.439532e-003
9.439062e-003
9.438228e-003
9.436825e-003
9.434572e-003
9.431112e-003
9.426019e-003
9.418831e-003
9.409108e-003
9.396534e-003
9.381042e-003
9.362953e-003
9.343095e-003
9.322867e-003
9.304205e-003
9.289458e-003
9.281171e-003
9.281813e-003
9.293498e-003
9.317755e-003
9.355362e-003
9.406282e-003
9.469674e-003
9.543965e-003
9.626976e-003
9.716068e-003
9.808306e-003
9.900624e-003
9.989978e-003
1.007348e-002
1.014847e-002
1.021262e-002
1.026392e-002
1.030073e-002
1.032179e-002
1.032619e-002
1.031348e-002
1.028364e-002
1.023719e-002
1.017525e-002
1.009959e-002
1.001263e-002
9.917482e-003
9.817808e-003
9.717674e-003
9.621298e-003
9.532741e-003
9.455566e-003
9.392514e-003
9.345226e-003
9.314090e-003
9.298209e-003
9.295564e-003
9.303313e-003
9.318209e-003
9.337044e-003
9.357029e-003
9.376046e-003
9.392738e-003
9.406458e-003
9.417113e-003
9.424980e-003
9.430521e-003
9.434255e-003
9.436661e-003
9.438143e-003
9.439014e-003
9.439499e-003
9.439753e-003
9.439876e-003
9.439928e-003
9.439944e-003
9.439945e-003
9.439939e-003
9.439933e-003
9.439928e-003
9.439925e-003
9.439924e-003
9.439922e-003
9.439920e-003
9.439919e-003
9.439919e-003
9.439920e-003
9.439922e-003
9.439948e-003
9.439934e-003
9.439918e-003
9.439912e-003
9.439919e-003
9.439930e-003
9.439935e-003
9.439935e-003
9.439936e-003
9.439944e-003
9.439958e-003
9.439967e-003
9.439956e-003
9.439901e-003
9.439768e-003
9.439488e-003
9.438946e-003
9.437959e-003
9.436256e-003
9.433458e-003
9.429065e-003
9.422466e-003
9.412985e-003
9.399997e-003
9.383113e-003
9.362461e-003
9.339016e-003
9.314926e-003
9.293722e-003
9.280321e-003
9.280760e-003
9.301654e-003
9.349472e-003
9.429764e-003
9.546474e-003
9.701466e-003
9.894308e-003
1.012233e-002
1.038085e-002
1.066360e-002
1.096310e-002
1.127115e-002
1.157924e-002
1.187894e-002
1.216225e-002
1.242181e-002
1.265110e-002
1.284449e-002
1.299723e-002
1.310543e-002
1.316606e-002
1.317690e-002
1.313665e-002
1.304499e-002
1.290282e-002
1.271238e-002
1.247754e-002
1.220392e-002
1.189900e-002
1.157203e-002
1.123374e-002
1.089586e-002
1.057041e-002
1.026885e-002
1.000112e-002
9.774767e-003
9.594189e-003
9.460251e-003
9.370296e-003
9.318673e-003
9.297676e-003
9.298732e-003
9.313582e-003
9.335213e-003
9.358393e-003
9.379772e-003
9.397642e-003
9.411508e-003
9.421630e-003
9.428639e-003
9.433263e-003
9.436174e-003
9.437925e-003
9.438926e-003
9.439470e-003
9.439746e-003
9.439875e-003
9.439929e-003
9.439945e-003
9.439944e-003
9.439937e-003
9.439931e-003
9.439927e-003
9.439925e-003
9.439924e-003
9.439922e-003
9.439919e-003
9.439919e-003
9.439920e-003
9.439922e-003
9.439934e-003
9.439925e-003
9.439917e-003
9.439916e-003
9.439925e-003
9.439934e-003
9.439939e-003
9.439940e-003
9.439944e-003
9.439955e-003
9.439966e-003
9.439959e-003
9.439907e-003
9.439769e-003
9.439471e-003
9.438881e-003
9.437778e-003
9.435823e-003
9.432530e-003
9.427236e-003
9.419113e-003
9.407227e-003
9.390734e-003
9.369224e-003
9.343295e-003
9.315289e-003
9.290111e-003
9.275874e-003
9.284108e-003
9.329296e-003
9.427660e-003
9.595368e-003
9.846473e-003
1.019102e-002
1.063370e-002
1.117318e-002
1.180231e-002
1.250883e-002
1.327652e-002
1.408649e-002
1.491839e-002
1.575149e-002
1.656559e-002
1.734173e-002
1.806271e-002
1.871342e-002
1.928093e-002
1.975437e-002
2.012480e-002
2.038492e-002
2.052892e-002
2.055232e-002
2.045211e-002
2.022688e-002
1.987727e-002
1.940646e-002
1.882079e-002
1.813036e-002
1.734950e-002
1.649705e-002
1.559611e-002
1.467344e-002
1.375823e-002
1.288034e-002
1.206817e-002
1.134619e-002
1.073261e-002
1.023744e-002
9.861565e-003
9.597002e-003
9.428558e-003
9.336482e-003
9.299597e-003
9.298186e-003
9.316054e-003
9.341477e-003
9.367102e-003
9.389142e-003
9.406284e-003
9.418663e-003
9.427081e-003
9.432513e-003
9.435851e-003
9.437807e-003
9.438896e-003
9.439470e-003