# vtk DataFile Version 3.0
vtk output
ASCII
DATASET STRUCTURED_POINTS
DIMENSIONS 100 100 1
SPACING 1 1 1
ORIGIN 0 0 0
POINT_DATA 10000
SCALARS SFBox_profile double
LOOKUP_TABLE default 
0.000000e+000
0.000000e+000
0.000000e+000
0.000000e+000
0.000000e+000
0.000000e+000
0.000000e+000
0.000000e+000
0.000000e+000
0.000000e+000
0.000000e+000
0.000000e+000
0.000000e+000
0.000000e+000
0.000000e+000
0.000000e+000
0.000000e+000
0.000000e+000
0.000000e+000
0.000000e+000
0.000000e+000
0.000000e+000
0.000000e+000
0.000000e+000
0.000000e+000
0.000000e+000
0.000000e+000
0.000000e+000
0.000000e+000
0.000000e+000
0.000000e+000
0.000000e+000
0.000000e+000
0.000000e+000
0.000000e+000
0.000000e+000
0.000000e+000
0.000000e+000
0.000000e+000
0.000000e+000
0.000000e+000
0.000000e+000
0.000000e+000
0.000000e+000
0.000000e+000
0.000000e+000
0.000000e+000
0.000000e+000
0.000000e+000
0.000000e+000
0.000000e+000
0.000000e+000
0.000000e+000
0.000000e+000
0.000000e+000
0.000000e+000
0.000000e+000
0.000000e+000
0.000000e+000
0.000000e+000
0.000000e+000
0.000000e+000
0.000000e+000
0.000000e+000
0.000000e+000
0.000000e+000
0.000000e+000
0.000000e+000
0.000000e+000
0.000000e+000
0.000000e+000
0.000000e+000
0.000000e+000
0.000000e+000
0.000000e+000
0.000000e+000
0.000000e+000
0.000000e+000
0.000000e+000
0.000000e+000
0.000000e+000
0.000000e+000
0.000000e+000
0.000000e+000
0.000000e+000
0.000000e+000
0.000000e+000
0.000000e+000
0.000000e+000
0.000000e+000
0.000000e+000
0.000000e+000
0.000000e+000
0.000000e+000
0.000000e+000
0.000000e+000
0.000000e+000
0.000000e+000
0.000000e+000
0.000000e+000
-6.721456e-009
-2.049693e-009
4.025692e-009
7.613953e-009
6.354156e-009
7.462853e-010
-6.065893e-009
-1.003096e-008
-8.545487e-009
-2.065753e-009
6.051310e-009
1.145750e-008
1.132559e-008
5.896630e-009
-1.873577e-009
-8.229498e-009
-1.074662e-008
-9.315221e-009
-5.553738e-009
-1.363374e-009
2.198037e-009
5.024794e-009
7.286401e-009
8.773776e-009
8.884065e-009
7.172416e-009
3.879376e-009
-7.937982e-011
-3.645103e-009
-6.198892e-009
-7.736554e-009
-8.581563e-009
-8.970165e-009
-8.877667e-009
-8.166945e-009
-6.839897e-009
-5.128062e-009
-3.359334e-009
-1.755795e-009
-3.512542e-010
9.272474e-010
2.124168e-009
3.198319e-009
4.072452e-009
4.713154e-009
5.155262e-009
5.459592e-009
5.659927e-009
5.752103e-009
5.722263e-009
5.571425e-009
5.308321e-009
4.927071e-009
4.404776e-009
3.726587e-009
2.906998e-009
1.975485e-009
9.380912e-010
-2.354568e-010
-1.567556e-009
-3.004300e-009
-4.397372e-009
-5.572205e-009
-6.426296e-009
-6.953350e-009
-7.152910e-009
-6.913575e-009
-6.016065e-009
-4.305233e-009
-1.901508e-009
7.560823e-010
3.113576e-009
4.794186e-009
5.714175e-009
5.916816e-009
5.314660e-009
3.662803e-009
8.835860e-010
-2.518248e-009
-5.398808e-009
-6.488522e-009
-5.189959e-009
-2.057952e-009
1.455003e-009
3.843001e-009
4.370630e-009
3.305019e-009
1.485469e-009
-3.209949e-010
-1.742499e-009
-2.651354e-009
-2.858315e-009
-2.083422e-009
-2.985024e-010
1.911410e-009
3.432687e-009
3.259111e-009
1.259950e-009
-1.551487e-009
-3.555646e-009
-3.415190e-010
-2.826784e-010
-4.498254e-011
3.718874e-010
7.083367e-010
6.122978e-010
-8.180052e-012
-7.920140e-010
-1.133173e-009
-6.724392e-010
3.383687e-010
1.155158e-009
1.105878e-009
1.602972e-010
-9.840337e-010
-1.411484e-009
-7.058361e-010
7.037106e-010
1.853283e-009
1.960058e-009
9.685444e-010
-4.842871e-010
-1.603095e-009
-1.994599e-009
-1.816771e-009
-1.473895e-009
-1.195852e-009
-8.815738e-010
-2.938167e-010
6.334162e-010
1.679320e-009
2.498886e-009
2.885392e-009
2.888713e-009
2.710236e-009
2.504771e-009
2.277783e-009
1.944682e-009
1.460612e-009
8.848803e-010
3.330989e-010
-1.161545e-010
-4.649454e-010
-7.613449e-010
-1.036694e-009
-1.279152e-009
-1.457478e-009
-1.557167e-009
-1.589093e-009
-1.569619e-009
-1.502318e-009
-1.381877e-009
-1.209631e-009
-9.957545e-010
-7.433955e-010
-4.376113e-010
-6.091133e-011
3.755551e-010
8.219269e-010
1.221174e-009
1.555033e-009
1.850860e-009
2.129741e-009
2.343743e-009
2.377291e-009
2.133071e-009
1.630278e-009
1.012012e-009
4.373565e-010
-4.448499e-011
-5.046176e-010
-1.002303e-009
-1.438646e-009
-1.567401e-009
-1.195527e-009
-4.062989e-010
4.213182e-010
8.578071e-010
7.432919e-010
3.005606e-010
-6.947964e-011
-1.310998e-010
1.505753e-011
8.419162e-011
-7.274832e-011
-2.995255e-010
-2.901420e-010
7.419605e-011
5.408482e-010
6.616921e-010
2.012444e-010
-5.881867e-010
-1.101124e-009
-8.518047e-010
9.438668e-011
1.104882e-009
1.427227e-009
7.668877e-010
-4.586670e-010
-1.402218e-009
7.054737e-009
1.912041e-009
-4.499718e-009
-7.824668e-009
-5.885710e-009
1.252967e-010
6.531248e-009
9.477447e-009
7.205320e-009
9.485864e-010
-5.963018e-009
-1.009197e-008
-9.693208e-009
-5.330111e-009
8.218096e-010
6.307689e-009
9.471285e-009
9.793085e-009
7.612582e-009
3.687975e-009
-1.067782e-009
-5.668011e-009
-9.143493e-009
-1.075798e-008
-1.025029e-008
-7.908655e-009
-4.397919e-009
-4.575221e-010
3.328607e-009
6.584472e-009
9.073607e-009
1.063827e-008
1.121160e-008
1.086051e-008
9.780885e-009
8.223827e-009
6.406745e-009
4.474740e-009
2.524010e-009
6.423873e-010
-1.079946e-009
-2.573735e-009
-3.814377e-009
-4.818123e-009
-5.615092e-009
-6.225705e-009
-6.657614e-009
-6.916416e-009
-7.012838e-009
-6.959197e-009
-6.762655e-009
-6.423688e-009
-5.938643e-009
-5.299768e-009
-4.492754e-009
-3.499836e-009
-2.312854e-009
-9.471933e-010
5.574931e-010
2.150639e-009
3.780150e-009
5.380173e-009
6.843594e-009
8.010596e-009
8.697086e-009
8.750445e-009
8.091218e-009
6.714242e-009
4.669915e-009
2.072588e-009
-8.489453e-010
-3.708014e-009
-5.997539e-009
-7.228650e-009
-7.102544e-009
-5.614257e-009
-3.046146e-009
1.013308e-010
3.173261e-009
5.424411e-009
6.165047e-009
5.032769e-009
2.281546e-009
-1.144231e-009
-3.919148e-009
-4.943842e-009
-3.910084e-009
-1.457566e-009
1.192296e-009
2.892349e-009
3.107851e-009
2.048819e-009
4.056855e-010
-1.069134e-009
-1.873510e-009
-1.855602e-009
-1.156777e-009
-1.013869e-010
9.131757e-010
1.527050e-009
8.949223e-009
2.760460e-009
-5.155802e-009
-9.633035e-009
-7.803168e-009
-6.993237e-010
7.415603e-009
1.161201e-008
9.249184e-009
1.543108e-009
-7.213516e-009
-1.226524e-008
-1.116058e-008
-4.943494e-009
2.841810e-009
8.470860e-009
1.005254e-008
8.040225e-009
4.252060e-009
4.163070e-010
-2.657318e-009
-4.922949e-009
-6.448138e-009
-7.010786e-009
-6.264233e-009
-4.186271e-009
-1.301056e-009
1.554917e-009
3.703115e-009
4.926653e-009
5.405466e-009
5.420364e-009
5.117766e-009
4.498955e-009
3.561931e-009
2.411502e-009
1.234638e-009
1.905898e-010
-6.660081e-010
-1.368306e-009
-1.964587e-009
-2.466909e-009
-2.857163e-009
-3.124859e-009
-3.289828e-009
-3.390824e-009
-3.458430e-009
-3.500648e-009
-3.510938e-009
-3.485318e-009
-3.430153e-009
-3.354181e-009
-3.254939e-009
-3.114255e-009
-2.908242e-009
-2.622343e-009
-2.255646e-009
-1.808329e-009
-1.265646e-009
-6.003787e-010
1.994364e-010
1.099700e-009
2.019755e-009
2.869347e-009
3.586945e-009
4.132003e-009
4.429825e-009
4.332512e-009
3.667781e-009
2.369933e-009
5.893073e-010
-1.332744e-009
-3.021875e-009
-4.224463e-009
-4.813176e-009
-4.658879e-009
-3.557762e-009
-1.389278e-009
1.557808e-009
4.405373e-009
5.950233e-009
5.330202e-009
2.652819e-009
-9.241710e-010
-3.798827e-009
-4.823390e-009
-3.868371e-009
-1.702468e-009
6.184444e-010
2.327247e-009
3.107148e-009
2.904384e-009
1.755745e-009
-1.257802e-010
-2.147694e-009
-3.383409e-009
-3.039825e-009
-1.073922e-009
1.573602e-009
3.437458e-009
2.939247e-009
1.350308e-009
-9.848302e-010
-2.840584e-009
-3.081998e-009
-1.361631e-009
1.433231e-009
3.525107e-009
3.387785e-009
9.397839e-010
-2.200960e-009
-3.774540e-009
-2.559319e-009
6.227923e-010
3.432169e-009
3.726759e-009
1.153139e-009
-2.614425e-009
-5.128860e-009
-4.890266e-009
-2.216195e-009
1.269562e-009
3.935885e-009
5.126438e-009
5.169568e-009
4.664562e-009
3.824595e-009
2.428418e-009
2.743010e-010
-2.405606e-009
-4.978709e-009
-6.820153e-009
-7.690980e-009
-7.772208e-009
-7.395151e-009
-6.759097e-009
-5.869382e-009
-4.679861e-009
-3.248190e-009
-1.750801e-009
-3.726916e-010
7.998596e-010
1.787180e-009
2.641401e-009
3.376134e-009
3.960998e-009
4.365505e-009
4.594595e-009
4.680569e-009
4.648006e-009
4.492926e-009
4.196045e-009
3.750648e-009
3.171399e-009
2.474161e-009
1.652445e-009
6.842020e-010
-4.291742e-010
-1.629747e-009
-2.816769e-009
-3.901396e-009
-4.845206e-009
-5.630416e-009
-6.181714e-009
-6.329348e-009
-5.885481e-009
-4.795125e-009
-3.224227e-009
-1.480419e-009
1.785614e-010
1.660795e-009
2.947512e-009
3.880691e-009
4.090959e-009
3.234235e-009
1.390720e-009
-7.577064e-010
-2.236447e-009
-2.412834e-009
-1.448867e-009
-1.610883e-010
6.216475e-010
6.555625e-010
3.233173e-010
1.275178e-010
1.607084e-010
8.321411e-011
-3.834068e-010
-9.852684e-010
-1.040432e-009
-1.074667e-010
1.404074e-009
2.347967e-009
1.724817e-009
-3.680801e-010
-2.591927e-009
-3.277332e-009
-1.733000e-009
1.110513e-009
3.302702e-009
-6.979212e-009
-1.532802e-009
4.882353e-009
7.571475e-009
4.819841e-009
-1.273877e-009
-6.622227e-009
-8.041652e-009
-5.093449e-009
1.783184e-010
4.991933e-009
7.514174e-009
7.370387e-009
5.065854e-009
1.253505e-009
-3.395966e-009
-7.833516e-009
-1.051009e-008
-9.980834e-009
-5.902508e-009
4.508933e-010
6.725673e-009
1.076869e-008
1.170698e-008
1.007679e-008
7.066533e-009
3.614043e-009
6.532540e-011
-3.517589e-009
-6.888279e-009
-9.505212e-009
-1.084817e-008
-1.079954e-008
-9.710500e-009
-8.116048e-009
-6.386737e-009
-4.611275e-009
-2.743678e-009
-8.102560e-010
1.030477e-009
2.595459e-009
3.810564e-009
4.735244e-009
5.475379e-009
6.086908e-009
6.557720e-009
6.860922e-009
7.006551e-009
7.038241e-009
6.990016e-009
6.857734e-009
6.614485e-009
6.245838e-009
5.759328e-009
5.156117e-009
4.401356e-009
3.437411e-009
2.237129e-009
8.426097e-010
-6.593659e-010
-2.206010e-009
-3.791003e-009
-5.403617e-009
-6.918609e-009
-8.058145e-009
-8.501371e-009
-8.070480e-009
-6.823046e-009
-4.954183e-009
-2.611408e-009
1.558966e-010
3.209821e-009
6.070439e-009
7.911847e-009
7.946912e-009
5.964780e-009
2.575945e-009
-1.078087e-009
-3.935795e-009
-5.456149e-009
-5.588966e-009
-4.453560e-009
-2.177828e-009
8.816274e-010
3.829519e-009
5.359587e-009
4.492972e-009
1.439612e-009
-2.215318e-009
-4.369097e-009
-3.801740e-009
-1.066138e-009
1.879677e-009
3.079922e-009
1.971401e-009
-3.045118e-010
-1.882510e-009
-1.647634e-009
-3.969701e-011
1.413554e-009
-1.306938e-008
-3.754310e-009
7.633367e-009
1.322518e-008
9.603892e-009
-4.030450e-010
-1.007634e-008
-1.341955e-008
-8.842086e-009
3.619216e-010
8.649649e-009
1.184198e-008
9.242153e-009
3.212004e-009
-2.929184e-009
-6.889784e-009
-8.053712e-009
-6.899446e-009
-4.166722e-009
-5.519232e-010
3.111073e-009
5.766743e-009
6.513631e-009
5.176556e-009
2.497954e-009
-3.076848e-010
-2.293444e-009
-3.213615e-009
-3.368039e-009
-3.115971e-009
-2.551694e-009
-1.582678e-009
-2.234968e-010
1.252483e-009
2.456571e-009
3.155547e-009
3.396679e-009
3.391164e-009
3.301104e-009
3.137402e-009
2.830870e-009
2.364426e-009
1.822626e-009
1.326808e-009
9.430627e-010
6.579931e-010
4.305738e-010
2.511853e-010
1.474835e-010
1.453107e-010
2.392185e-010
4.057609e-010
6.366711e-010
9.450350e-010
1.333287e-009
1.762115e-009
2.164152e-009
2.493916e-009
2.755404e-009
2.963943e-009
3.074606e-009
2.963163e-009
2.505867e-009
1.696952e-009
6.834435e-010
-3.338278e-010
-1.239418e-009
-2.027525e-009
-2.667394e-009
-2.955280e-009
-2.557051e-009
-1.275282e-009
6.747831e-010
2.660004e-009
3.950966e-009
4.118737e-009
3.183281e-009
1.445135e-009
-7.473613e-010
-3.011683e-009
-4.755881e-009
-5.161153e-009
-3.593813e-009
-2.530448e-010
3.540510e-009
5.874258e-009
5.397240e-009
2.291123e-009
-1.728058e-009
-4.461309e-009
-4.600077e-009
-2.448690e-009
4.571355e-010
2.460740e-009
2.781659e-009
1.762709e-009
3.576929e-010
-6.309274e-010
-9.940479e-010
-1.012438e-009
-9.704244e-009
-3.342062e-009
4.654901e-009
8.997874e-009
7.123705e-009
6.405149e-010
-5.918176e-009
-8.202313e-009
-4.949717e-009
1.286072e-009
6.065227e-009
6.234282e-009
2.039604e-009
-3.285418e-009
-6.000487e-009
-4.451330e-009
8.626207e-011
4.669279e-009
6.817372e-009
5.854674e-009
2.738496e-009
-1.051166e-009
-4.448488e-009
-6.957016e-009
-8.286182e-009
-8.108244e-009
-6.231568e-009
-2.923950e-009
1.049342e-009
4.778753e-009
7.649223e-009
9.499393e-009
1.044034e-008
1.058583e-008
9.960334e-009
8.608627e-009
6.719616e-009
4.601320e-009
2.532188e-009
6.434481e-010
-1.064315e-009
-2.614638e-009
-3.979327e-009
-5.096061e-009
-5.934289e-009
-6.525654e-009
-6.931097e-009
-7.189434e-009
-7.302429e-009
-7.259987e-009
-7.064480e-009
-6.723847e-009
-6.229058e-009
-5.552301e-009
-4.673782e-009
-3.603928e-009
-2.369679e-009
-9.793419e-010
5.830675e-010
2.308951e-009
4.103093e-009
5.780293e-009
7.139345e-009
8.045288e-009
8.431919e-009
8.224073e-009
7.286827e-009
5.504482e-009
2.955781e-009
1.974096e-011
-2.721875e-009
-4.731085e-009
-5.704318e-009
-5.567302e-009
-4.359754e-009
-2.224519e-009
4.296700e-010
2.807586e-009
3.947374e-009
3.290071e-009
1.187710e-009
-1.156694e-009
-2.408950e-009
-1.984902e-009
-3.971277e-010
1.201749e-009
1.872562e-009
1.437871e-009
3.686406e-010
-7.288676e-010
-1.484543e-009
-1.741325e-009
-1.372270e-009
-3.103156e-010
1.180629e-009
2.371375e-009
2.414323e-009
1.020270e-009
-1.131259e-009
-2.725091e-009
1.948645e-009
-1.513070e-010
-2.347600e-009
-2.776295e-009
-1.163704e-009
1.246036e-009
2.958125e-009
3.351142e-009
2.693117e-009
1.344638e-009
-7.476624e-010
-3.614675e-009
-6.418566e-009
-7.354595e-009
-4.802669e-009
1.096125e-009
7.910782e-009
1.215585e-008
1.148986e-008
6.199217e-009
-1.132910e-009
-7.389777e-009
-1.067978e-008
-1.088904e-008
-8.982218e-009
-5.962906e-009
-2.391438e-009
1.403004e-009
4.943597e-009
7.579969e-009
8.824886e-009
8.660133e-009
7.495206e-009
5.845179e-009
4.044597e-009
2.212624e-009
4.042268e-010
-1.266733e-009
-2.651328e-009
-3.669627e-009
-4.359766e-009
-4.824492e-009
-5.144426e-009
-5.345025e-009
-5.429572e-009
-5.421617e-009
-5.368710e-009
-5.314381e-009
-5.277353e-009
-5.256465e-009
-5.245056e-009
-5.233701e-009
-5.204180e-009
-5.131415e-009
-4.994793e-009
-4.779794e-009
-4.459611e-009
-3.977483e-009
-3.261863e-009
-2.273106e-009
-1.036803e-009
3.754113e-010
1.895908e-009
3.471890e-009
5.002105e-009
6.260681e-009
6.916378e-009
6.676789e-009
5.449903e-009
3.377974e-009
7.287807e-010
-2.203919e-009
-5.044634e-009
-7.193123e-009
-7.857487e-009
-6.434738e-009
-3.046310e-009
1.243173e-009
4.841061e-009
6.468638e-009
5.814035e-009
3.519537e-009
6.136938e-010
-2.044180e-009
-3.878012e-009
-4.409877e-009
-3.275077e-009
-6.446634e-010
2.382713e-009
4.093580e-009
3.275896e-009
3.284808e-010
-2.729688e-009
-3.642247e-009
-1.709603e-009
1.533333e-009
3.467628e-009
2.517975e-009
-5.184774e-010
-3.112549e-009
1.416651e-008
3.707668e-009
-8.597029e-009
-1.387685e-008
-9.143559e-009
1.419744e-009
1.031172e-008
1.223969e-008
7.154477e-009
-8.520599e-010
-7.097826e-009
-9.208396e-009
-7.545665e-009
-3.756012e-009
6.894648e-010
4.781319e-009
7.486959e-009
7.652966e-009
4.756779e-009
-2.390597e-010
-5.018931e-009
-7.227185e-009
-5.976646e-009
-2.315308e-009
1.673886e-009
4.306373e-009
5.108023e-009
4.562229e-009
3.307407e-009
1.613743e-009
-5.158531e-010
-2.945987e-009
-5.233624e-009
-6.848446e-009
-7.519321e-009
-7.355442e-009
-6.668217e-009
-5.711245e-009
-4.576312e-009
-3.277477e-009
-1.875063e-009
-5.009466e-010
7.140984e-010
1.712874e-009
2.512397e-009
3.149995e-009
3.637748e-009
3.960229e-009
4.099772e-009
4.055991e-009
3.845093e-009
3.486300e-009
2.987628e-009
2.339665e-009
1.523999e-009
5.368390e-010
-5.872625e-010
-1.776062e-009
-2.950407e-009
-4.053420e-009
-5.036010e-009
-5.802313e-009
-6.180085e-009
-5.980309e-009
-5.122236e-009
-3.710907e-009
-1.979993e-009
-1.537041e-010
1.610944e-009
3.117653e-009
3.991340e-009
3.750008e-009
2.160318e-009
-3.857347e-010
-2.875236e-009
-4.187550e-009
-3.767333e-009
-1.912693e-009
5.339021e-010
2.748921e-009
4.207554e-009
4.536121e-009
3.347613e-009
5.228248e-010
-3.194709e-009
-6.034509e-009
-6.058948e-009
-2.676104e-009
2.452869e-009
6.175014e-009
6.008558e-009
2.090248e-009
-2.771163e-009
-5.156362e-009
-3.639063e-009
1.843125e-010
3.096945e-009
2.927499e-009
2.526161e-010
-2.261227e-009
1.799018e-008
5.278911e-009
-9.724294e-009
-1.626423e-008
-1.074911e-008
1.563129e-009
1.130975e-008
1.212956e-008
4.751483e-009
-4.523683e-009
-9.101922e-009
-6.747652e-009
-3.273649e-010
5.186114e-009
6.513157e-009
3.739329e-009
-7.747773e-010
-4.599824e-009
-6.541328e-009
-6.441603e-009
-4.408728e-009
-6.004637e-010
4.320704e-009
8.876205e-009
1.127715e-008
1.047678e-008
6.843670e-009
1.848486e-009
-2.931363e-009
-6.628163e-009
-9.152967e-009
-1.069857e-008
-1.129247e-008
-1.079393e-008
-9.195530e-009
-6.818923e-009
-4.187570e-009
-1.727500e-009
4.089106e-010
2.272369e-009
3.927662e-009
5.346777e-009
6.452260e-009
7.218852e-009
7.712703e-009
8.040541e-009
8.274647e-009
8.425365e-009
8.471500e-009
8.405235e-009
8.247144e-009
8.022624e-009
7.726496e-009
7.310289e-009
6.706557e-009
5.871521e-009
4.806166e-009
3.531660e-009
2.042871e-009
3.000796e-010
-1.706622e-009
-3.865548e-009
-5.921837e-009
-7.572902e-009
-8.603444e-009
-8.921376e-009
-8.454377e-009
-7.045977e-009
-4.542130e-009
-1.074649e-009
2.714782e-009
5.806106e-009
7.292390e-009
6.869747e-009
4.922301e-009
2.173008e-009
-7.115034e-010
-3.182554e-009
-4.615740e-009
-4.330930e-009
-2.101828e-009
1.229243e-009
3.815775e-009
3.890085e-009
1.190647e-009
-2.526473e-009
-4.578393e-009
-3.365488e-009
3.124230e-010
3.796672e-009
4.602022e-009
2.303499e-009
-1.241433e-009
-3.451120e-009
-3.020870e-009
-7.541042e-010
1.329617e-009
1.736615e-009
6.142842e-010
-6.036255e-010
9.813330e-009
3.083674e-009
-4.748630e-009
-7.916682e-009
-4.697639e-009
1.618685e-009
5.562259e-009
3.892492e-009
-1.836235e-009
-6.565449e-009
-5.855844e-009
4.617868e-010
8.037315e-009
1.131008e-008
7.669647e-009
-7.908224e-010
-9.060021e-009
-1.279956e-008
-1.085892e-008
-5.151858e-009
1.339911e-009
6.456929e-009
9.366133e-009
9.968278e-009
8.323784e-009
4.724411e-009
5.179392e-011
-4.285967e-009
-7.003351e-009
-7.626109e-009
-6.597099e-009
-4.755840e-009
-2.718149e-009
-6.744411e-010
1.364778e-009
3.261359e-009
4.719262e-009
5.506346e-009
5.646245e-009
5.379359e-009
4.958634e-009
4.494028e-009
3.968812e-009
3.362806e-009
2.734789e-009
2.194339e-009
1.817359e-009
1.601912e-009
1.500840e-009
1.486388e-009
1.578950e-009
1.816831e-009
2.203562e-009
2.688464e-009
3.200614e-009
3.699857e-009
4.185678e-009
4.644036e-009
4.982408e-009
5.032426e-009
4.641747e-009
3.777393e-009
2.532728e-009
1.024371e-009
-6.989362e-010
-2.598331e-009
-4.460418e-009
-5.793201e-009
-5.992901e-009
-4.720103e-009
-2.178348e-009
9.623140e-010
3.919401e-009
6.082687e-009
7.001603e-009
6.252469e-009
3.573306e-009
-6.535668e-010
-5.045246e-009
-7.606550e-009
-6.895357e-009
-3.157434e-009
1.592198e-009
4.795005e-009
5.012049e-009
2.737405e-009
-2.076196e-010
-2.082088e-009
-2.262715e-009
-1.251098e-009
3.833601e-011
9.313530e-010
1.159803e-009
7.284675e-010
-1.501242e-010
-1.018726e-009
-1.302894e-009
-7.050598e-010
4.546220e-010
1.373362e-009
-5.729901e-009
-1.525381e-009
3.485916e-009
5.895818e-009
4.549614e-009
7.221651e-010
-3.359496e-009
-5.969254e-009
-6.251902e-009
-3.935541e-009
6.166562e-010
5.896857e-009
9.265373e-009
8.279024e-009
2.671314e-009
-4.804886e-009
-9.829136e-009
-9.422288e-009
-4.033892e-009
2.883142e-009
7.387619e-009
7.566082e-009
4.212752e-009
-4.120309e-010
-4.322510e-009
-6.632187e-009
-7.245225e-009
-6.231369e-009
-3.663553e-009
9.135102e-011
4.193189e-009
7.620661e-009
9.702223e-009
1.038332e-008
1.002446e-008
8.994162e-009
7.454808e-009
5.461786e-009
3.163801e-009
8.471257e-010
-1.208816e-009
-2.887834e-009
-4.244459e-009
-5.378833e-009
-6.321955e-009
-7.033413e-009
-7.481419e-009
-7.700380e-009
-7.766139e-009
-7.725246e-009
-7.557795e-009
-7.209135e-009
-6.650386e-009
-5.899499e-009
-4.980618e-009
-3.870738e-009
-2.503574e-009
-8.431617e-010
1.041280e-009
2.982197e-009
4.803090e-009
6.392234e-009
7.665675e-009
8.451328e-009
8.446928e-009
7.365270e-009
5.185024e-009
2.277587e-009
-7.320502e-010
-3.250152e-009
-4.876218e-009
-5.335960e-009
-4.391714e-009
-2.010122e-009
1.259471e-009
4.142928e-009
5.142722e-009
3.511265e-009
-5.757493e-011
-3.697447e-009
-5.502462e-009
-4.668675e-009
-1.804510e-009
1.658023e-009
4.297582e-009
5.166405e-009
3.889870e-009
7.939241e-010
-2.884163e-009
-5.208469e-009
-4.583623e-009
-1.108358e-009
3.026141e-009
4.882066e-009
3.080646e-009
-8.959255e-010
-3.775273e-009
-3.229233e-009
9.316320e-011
3.127455e-009
-1.883061e-008
-5.243357e-009
1.035015e-008
1.652530e-008
1.032802e-008
-1.888600e-009
-1.067369e-008
-1.085584e-008
-4.275781e-009
3.204771e-009
6.792727e-009
5.573313e-009
1.674562e-009
-2.247298e-009
-4.586484e-009
-4.710625e-009
-2.421988e-009
1.873451e-009
6.588045e-009
9.172097e-009
7.573000e-009
1.869199e-009
-5.463297e-009
-1.104943e-008
-1.268728e-008
-1.036976e-008
-5.690307e-009
-4.647765e-010
4.188434e-009
7.825070e-009
1.019322e-008
1.100643e-008
1.015223e-008
7.952504e-009
5.086666e-009
2.220668e-009
-2.971453e-010
-2.425799e-009
-4.206241e-009
-5.597315e-009
-6.512488e-009
-6.952748e-009
-7.054056e-009
-6.999049e-009
-6.899706e-009
-6.771272e-009
-6.601569e-009
-6.421248e-009
-6.298593e-009
-6.277973e-009
-6.340646e-009
-6.431589e-009
-6.515779e-009
-6.593930e-009
-6.656471e-009
-6.630439e-009
-6.388245e-009
-5.820043e-009
-4.893574e-009
-3.632200e-009
-2.038598e-009
-7.249770e-011
2.251821e-009
4.724489e-009
6.915252e-009
8.331179e-009
8.631773e-009
7.707709e-009
5.592212e-009
2.396069e-009
-1.550459e-009
-5.457514e-009
-8.105245e-009
-8.370657e-009
-5.981078e-009
-1.869493e-009
2.255850e-009
4.844128e-009
5.219251e-009
3.632887e-009
8.765580e-010
-2.017774e-009
-3.853559e-009
-3.534781e-009
-8.166591e-010
2.968030e-009
5.237826e-009
3.896194e-009
-6.877012e-010
-5.377122e-009
-6.442555e-009
-2.707438e-009
3.121440e-009
6.443780e-009
4.619576e-009
-6.800713e-010
-4.862118e-009
-4.438642e-009
-1.010558e-010
3.973559e-009
-2.123692e-008
-5.350270e-009
1.221061e-008
1.780165e-008
8.868125e-009
-5.438543e-009
-1.297565e-008
-8.635061e-009
2.511386e-009
1.059318e-008
9.378957e-009
5.970693e-010
-8.608302e-009
-1.185698e-008
-7.848728e-009
4.381008e-012
7.064019e-009
1.051569e-008
9.960438e-009
6.289732e-009
7.182270e-010
-5.239383e-009
-9.608656e-009
-1.055687e-008
-7.555365e-009
-1.966859e-009
3.681556e-009
7.225199e-009
7.945328e-009
6.472474e-009
3.883239e-009
9.321374e-010
-2.042503e-009
-4.778428e-009
-6.877885e-009
-7.960956e-009
-7.941111e-009
-7.079398e-009
-5.767234e-009
-4.277516e-009
-2.707730e-009
-1.098588e-009
4.537167e-010
1.812017e-009
2.889704e-009
3.694997e-009
4.282518e-009
4.678722e-009
4.864311e-009
4.816893e-009
4.547943e-009
4.086599e-009
3.436929e-009
2.570281e-009
1.469721e-009
1.751338e-010
-1.227349e-009
-2.658098e-009
-4.064481e-009
-5.365724e-009
-6.379303e-009
-6.835248e-009
-6.505184e-009
-5.338123e-009
-3.470524e-009
-1.118742e-009
1.484396e-009
3.990854e-009
5.795279e-009
6.127412e-009
4.487329e-009
1.140860e-009
-2.795404e-009
-5.856225e-009
-6.961592e-009
-5.823478e-009
-2.839459e-009
1.183530e-009
5.092597e-009
7.381229e-009
6.649216e-009
2.657945e-009
-2.834228e-009
-6.621074e-009
-6.147594e-009
-1.684478e-009
3.472801e-009
5.395987e-009
2.737160e-009
-2.054386e-009
-4.777285e-009
-3.124270e-009
1.306992e-009
4.491727e-009
3.630006e-009
-3.560471e-010
-3.752412e-009
-3.516061e-009
-4.942820e-011
3.260464e-009
-1.164543e-008
-1.847361e-009
8.152281e-009
9.568266e-009
1.863625e-009
-7.338207e-009
-9.338360e-009
-2.060519e-009
8.254049e-009
1.257726e-008
6.850654e-009
-4.709928e-009
-1.331267e-008
-1.277608e-008
-4.053450e-009
6.251583e-009
1.141844e-008
9.262165e-009
2.559202e-009
-4.056045e-009
-7.443290e-009
-7.056881e-009
-3.937559e-009
6.023498e-010
5.352412e-009
8.951154e-009
9.995358e-009
7.780032e-009
2.939183e-009
-2.791258e-009
-7.587610e-009
-1.047145e-008
-1.146081e-008
-1.103881e-008
-9.592544e-009
-7.297098e-009
-4.347646e-009
-1.130805e-009
1.884933e-009
4.391852e-009
6.348561e-009
7.870187e-009
9.055632e-009
9.925098e-009
1.048128e-008
1.077880e-008
1.091512e-008
1.096948e-008
1.096891e-008
1.090916e-008
1.078660e-008
1.059605e-008
1.030630e-008
9.857950e-009
9.193548e-009
8.279176e-009
7.083382e-009
5.543678e-009
3.586649e-009
1.213635e-009
-1.426664e-009
-4.065922e-009
-6.422885e-009
-8.263253e-009
-9.335514e-009
-9.285773e-009
-7.751245e-009
-4.676559e-009
-6.078707e-010
3.368507e-009
6.095960e-009
6.883031e-009
5.695451e-009
2.972146e-009
-5.755588e-010
-3.920308e-009
-5.686595e-009
-4.646209e-009
-7.485431e-010
4.178152e-009
7.093875e-009
5.771286e-009
7.102237e-010
-4.851026e-009
-7.184337e-009
-4.893665e-009
5.856535e-011
4.015332e-009
4.532222e-009
2.052791e-009
-9.100769e-010
-2.106718e-009
-1.248099e-009
2.350125e-010
8.119350e-010
2.039805e-010
-6.520821e-010
-7.353690e-010
4.252948e-011
8.519425e-010
4.001907e-009
2.597867e-009
9.648560e-012
-3.097052e-009
-5.306476e-009
-4.908967e-009
-1.212827e-009
4.216005e-009
7.853091e-009
6.558477e-009
4.329401e-010
-6.471187e-009
-8.853545e-009
-4.470349e-009
3.647192e-009
9.281960e-009
7.902534e-009
2.388499e-010
-8.399734e-009
-1.228371e-008
-9.281682e-009
-1.674536e-009
6.222524e-009
1.110407e-008
1.200565e-008
9.642995e-009
5.177671e-009
-3.062578e-010
-5.621682e-009
-9.415047e-009
-1.065270e-008
-9.226794e-009
-6.004212e-009
-2.216974e-009
1.251099e-009
4.104643e-009
6.367720e-009
8.028982e-009
8.966613e-009
9.123817e-009
8.652108e-009
7.847332e-009
6.967172e-009
6.124995e-009
5.333395e-009
4.605921e-009
3.999579e-009
3.580958e-009
3.382370e-009
3.398641e-009
3.610136e-009
3.994961e-009
4.525568e-009
5.170540e-009
5.902456e-009
6.685107e-009
7.432920e-009
7.986011e-009
8.150476e-009
7.783367e-009
6.834342e-009
5.294585e-009
3.130304e-009
3.384442e-010
-2.859279e-009
-5.870777e-009
-7.859466e-009
-8.132931e-009
-6.503792e-009
-3.335132e-009
6.896096e-010
4.751436e-009
7.856769e-009
8.837483e-009
6.812362e-009
2.046936e-009
-3.558031e-009
-7.167346e-009
-6.774177e-009
-2.747728e-009
2.231325e-009
4.995753e-009
4.086773e-009
5.887819e-010
-2.922127e-009
-4.275068e-009
-2.939701e-009
3.638146e-011
2.904365e-009
4.129766e-009
3.029604e-009
1.443571e-010
-2.840391e-009
-3.950685e-009
-2.333664e-009
8.524259e-010
3.121007e-009
2.661671e-009
-2.457956e-011
-2.482168e-009
1.700763e-008
4.828618e-009
-8.770789e-009
-1.363429e-008
-7.902774e-009
2.062764e-009
8.156063e-009
6.950927e-009
1.015193e-009
-4.540578e-009
-6.192030e-009
-3.565031e-009
1.485234e-009
6.318776e-009
8.386272e-009
6.011631e-009
-4.649366e-010
-8.057076e-009
-1.233679e-008
-1.028867e-008
-2.685570e-009
6.188301e-009
1.144142e-008
1.076715e-008
5.455349e-009
-1.176163e-009
-6.202332e-009
-8.389813e-009
-7.889974e-009
-5.311618e-009
-1.265715e-009
3.484342e-009
7.884642e-009
1.089963e-008
1.202751e-008
1.148727e-008
9.901777e-009
7.815808e-009
5.480088e-009
2.982825e-009
4.652441e-010
-1.837842e-009
-3.730302e-009
-5.172548e-009
-6.257352e-009
-7.092583e-009
-7.718541e-009
-8.117297e-009
-8.267592e-009
-8.177280e-009
-7.875153e-009
-7.385846e-009
-6.708825e-009
-5.807683e-009
-4.619583e-009
-3.095144e-009
-1.249946e-009
8.219589e-010
2.995535e-009
5.168881e-009
7.236060e-009
8.975264e-009
9.982512e-009
9.792577e-009
8.156210e-009
5.251241e-009
1.635206e-009
-1.993460e-009
-4.961840e-009
-6.592022e-009
-6.196494e-009
-3.419817e-009
1.154775e-009
5.743872e-009
8.030601e-009
6.571558e-009
1.919465e-009
-3.538358e-009
-7.016763e-009
-6.971797e-009
-3.788892e-009
7.203918e-010
4.362572e-009
5.467088e-009
3.516587e-009
-4.437755e-010
-3.977908e-009
-4.523035e-009
-1.374928e-009
3.221733e-009
5.404929e-009
2.932726e-009
-2.443757e-009
-6.074818e-009
-4.503659e-009
1.112671e-009
5.757953e-009
5.133568e-009
-2.009133e-010
-5.236108e-009
2.144055e-008
3.626200e-009
-1.459108e-008
-1.769072e-008
-5.075016e-009
1.028194e-008
1.470727e-008
5.615120e-009
-7.820374e-009
-1.403040e-008
-8.875325e-009
2.366052e-009
1.088263e-008
1.155596e-008
5.527627e-009
-2.406186e-009
-7.819541e-009
-8.713912e-009
-5.331916e-009
6.306948e-010
6.486912e-009
9.237431e-009
7.012722e-009
5.048455e-010
-7.066052e-009
-1.183112e-008
-1.163819e-008