# vtk DataFile Version 3.0
vtk output
ASCII
DATASET STRUCTURED_POINTS
DIMENSIONS 100 100 1
SPACING 1 1 1
ORIGIN 0 0 0
POINT_DATA 10000
SCALARS SFBox_profile double
LOOKUP_TABLE default 
0.000000e+000
0.000000e+000
0.000000e+000
0.000000e+000
0.000000e+000
0.000000e+000
0.000000e+000
0.000000e+000
0.000000e+000
0.000000e+000
0.000000e+000
0.000000e+000
0.000000e+000
0.000000e+000
0.000000e+000
0.000000e+000
0.000000e+000
0.000000e+000
0.000000e+000
0.000000e+000
0.000000e+000
0.000000e+000
0.000000e+000
0.000000e+000
0.000000e+000
0.000000e+000
0.000000e+000
0.000000e+000
0.000000e+000
0.000000e+000
0.000000e+000
0.000000e+000
0.000000e+000
0.000000e+000
0.000000e+000
0.000000e+000
0.000000e+000
0.000000e+000
0.000000e+000
0.000000e+000
0.000000e+000
0.000000e+000
0.000000e+000
0.000000e+000
0.000000e+000
0.000000e+000
0.000000e+000
0.000000e+000
0.000000e+000
0.000000e+000
0.000000e+000
0.000000e+000
0.000000e+000
0.000000e+000
0.000000e+000
0.000000e+000
0.000000e+000
0.000000e+000
0.000000e+000
0.000000e+000
0.000000e+000
0.000000e+000
0.000000e+000
0.000000e+000
0.000000e+000
0.000000e+000
0.000000e+000
0.000000e+000
0.000000e+000
0.000000e+000
0.000000e+000
0.000000e+000
0.000000e+000
0.000000e+000
0.000000e+000
0.000000e+000
0.000000e+000
0.000000e+000
0.000000e+000
0.000000e+000
0.000000e+000
0.000000e+000
0.000000e+000
0.000000e+000
0.000000e+000
0.000000e+000
0.000000e+000
0.000000e+000
0.000000e+000
0.000000e+000
0.000000e+000
0.000000e+000
0.000000e+000
0.000000e+000
0.000000e+000
0.000000e+000
0.000000e+000
0.000000e+000
0.000000e+000
0.000000e+000
1.321360e-008
4.659525e-009
-6.157037e-009
-1.203704e-008
-9.869741e-009
-2.185149e-009
5.459280e-009
8.757259e-009
7.156182e-009
3.052660e-009
-9.272437e-010
-3.823325e-009
-5.941614e-009
-7.175890e-009
-6.283811e-009
-2.134065e-009
4.391524e-009
1.010946e-008
1.160315e-008
7.912258e-009
1.296357e-009
-4.672059e-009
-7.839870e-009
-8.502464e-009
-8.089428e-009
-7.243971e-009
-5.378496e-009
-1.905102e-009
2.535791e-009
6.337169e-009
8.322403e-009
8.655312e-009
8.329317e-009
7.970057e-009
7.338280e-009
5.935446e-009
3.818323e-009
1.639469e-009
-2.339068e-011
-1.177062e-009
-2.213701e-009
-3.354185e-009
-4.423446e-009
-5.134236e-009
-5.444833e-009
-5.570175e-009
-5.713447e-009
-5.877982e-009
-5.933198e-009
-5.786259e-009
-5.455798e-009
-5.021710e-009
-4.545627e-009
-4.020949e-009
-3.362115e-009
-2.456644e-009
-1.277925e-009
4.646003e-011
1.330116e-009
2.518846e-009
3.730109e-009
5.026839e-009
6.170940e-009
6.711879e-009
6.387094e-009
5.370357e-009
4.022813e-009
2.428196e-009
3.428491e-010
-2.279016e-009
-4.806855e-009
-6.197517e-009
-5.848189e-009
-4.111584e-009
-1.868770e-009
3.295232e-010
2.498664e-009
4.553688e-009
5.664992e-009
4.674034e-009
1.366958e-009
-2.773440e-009
-5.373536e-009
-4.969606e-009
-2.134103e-009
1.115072e-009
2.978823e-009
3.027623e-009
1.965740e-009
6.056266e-010
-7.296595e-010
-1.913552e-009
-2.499106e-009
-1.849421e-009
9.110911e-011
2.289857e-009
3.159690e-009
1.850717e-009
-8.640584e-010
-3.032077e-009
1.443956e-009
1.235472e-010
-1.265419e-009
-1.440064e-009
-2.105152e-010
1.340339e-009
1.774723e-009
5.544318e-010
-1.431929e-009
-2.549617e-009
-1.767428e-009
4.624291e-010
2.558273e-009
3.090750e-009
1.865814e-009
-1.123041e-010
-1.654759e-009
-2.335829e-009
-2.495126e-009
-2.462687e-009
-1.990632e-009
-5.754362e-010
1.718165e-009
3.945224e-009
4.940705e-009
4.301077e-009
2.649187e-009
9.326835e-010
-4.413786e-010
-1.722827e-009
-3.187292e-009
-4.592932e-009
-5.362274e-009
-5.211462e-009
-4.446358e-009
-3.605099e-009
-2.915634e-009
-2.194025e-009
-1.221557e-009
-8.602403e-011
9.032052e-010
1.558685e-009
1.977338e-009
2.367206e-009
2.795722e-009
3.152936e-009
3.318188e-009
3.297816e-009
3.194898e-009
3.089648e-009
2.973607e-009
2.777158e-009
2.435651e-009
1.940331e-009
1.349070e-009
7.415711e-010
1.393389e-010
-5.257167e-010
-1.324969e-009
-2.198135e-009
-2.941567e-009
-3.376207e-009
-3.512824e-009
-3.490486e-009
-3.335789e-009
-2.856404e-009
-1.858898e-009
-4.644000e-010
8.842343e-010
1.786444e-009
2.206772e-009
2.361091e-009
2.311825e-009
1.814758e-009
6.710962e-010
-8.202895e-010
-1.915423e-009
-2.028588e-009
-1.261981e-009
-2.776528e-010
3.436513e-010
5.521182e-010
6.443486e-010
7.532411e-010
6.636847e-010
1.604901e-010
-5.544772e-010
-9.319717e-010
-6.106901e-010
1.638324e-010
7.203115e-010
5.878301e-010
-6.058661e-011
-5.870393e-010
-5.038347e-010
7.768398e-011
5.798703e-010
5.204179e-010
-3.899949e-011
-5.661610e-010
-1.124535e-008
-4.413758e-009
4.525135e-009
1.002336e-008
9.313663e-009
3.669124e-009
-3.161393e-009
-7.688048e-009
-8.431348e-009
-5.836406e-009
-1.190059e-009
4.107566e-009
8.493198e-009
1.015528e-008
7.725046e-009
1.477436e-009
-6.173975e-009
-1.174012e-008
-1.270438e-008
-8.963153e-009
-2.555170e-009
3.906905e-009
8.677980e-009
1.119437e-008
1.150191e-008
9.737205e-009
6.172685e-009
1.494172e-009
-3.257727e-009
-7.141892e-009
-9.711795e-009
-1.099229e-008
-1.117367e-008
-1.040670e-008
-8.847402e-009
-6.761715e-009
-4.482942e-009
-2.263638e-009
-2.081098e-010
1.652739e-009
3.266903e-009
4.566910e-009
5.541449e-009
6.256765e-009
6.793628e-009
7.180088e-009
7.397339e-009
7.438163e-009
7.338767e-009
7.147874e-009
6.874560e-009
6.476184e-009
5.898277e-009
5.121491e-009
4.165583e-009
3.049328e-009
1.757029e-009
2.596226e-010
-1.423214e-009
-3.187462e-009
-4.878100e-009
-6.349927e-009
-7.477861e-009
-8.109481e-009
-8.045592e-009
-7.116688e-009
-5.301358e-009
-2.768751e-009
1.795798e-010
3.165565e-009
5.715364e-009
7.256043e-009
7.274987e-009
5.609037e-009
2.622421e-009
-9.070326e-010
-4.083372e-009
-6.108821e-009
-6.360556e-009
-4.539320e-009
-1.009578e-009
2.968477e-009
5.600452e-009
5.551570e-009
2.897229e-009
-8.163530e-010
-3.562049e-009
-4.114661e-009
-2.641250e-009
-2.850331e-010
1.716655e-009
2.631430e-009
2.300191e-009
9.717300e-010
-7.826844e-010
-2.137837e-009
-2.319255e-009
-1.118741e-009
8.040766e-010
2.237986e-009
-1.355758e-008
-4.509212e-009
6.678649e-009
1.228093e-008
9.337643e-009
1.125423e-009
-6.140844e-009
-8.238841e-009
-5.449520e-009
-1.100987e-009
1.880341e-009
3.053115e-009
3.625844e-009
4.188615e-009
3.738439e-009
1.045348e-009
-3.307221e-009
-6.694356e-009
-6.567094e-009
-2.844974e-009
1.894299e-009
4.656109e-009
4.456450e-009
2.635918e-009
1.070246e-009
3.669067e-010
-1.838922e-010
-1.252230e-009
-2.477403e-009
-2.899085e-009
-2.102884e-009
-6.703325e-010
4.879382e-010
1.024975e-009
1.280749e-009
1.666680e-009
2.148414e-009
2.377683e-009
2.175251e-009
1.731776e-009
1.352288e-009
1.131494e-009
9.409012e-010
6.640670e-010
3.475837e-010
1.169689e-010
2.007345e-011
2.567619e-012
6.349555e-012
3.572991e-011
1.221039e-010
2.684762e-010
4.563889e-010
6.817229e-010
9.447568e-010
1.209124e-009
1.411020e-009
1.525589e-009
1.589312e-009
1.618763e-009
1.527510e-009
1.187095e-009
5.961867e-010
-6.122598e-011
-5.849665e-010
-9.626667e-010
-1.317145e-009
-1.620068e-009
-1.557670e-009
-8.203654e-010
4.541399e-010
1.647126e-009
2.173200e-009
1.987100e-009
1.466741e-009
8.137520e-010
-2.183869e-010
-1.806602e-009
-3.344267e-009
-3.572577e-009
-1.726472e-009
1.421916e-009
3.875026e-009
3.989846e-009
1.850171e-009
-9.009780e-010
-2.539413e-009
-2.546987e-009
-1.572672e-009
-4.245046e-010
6.386807e-010
1.641288e-009
2.248525e-009
1.773328e-009
-1.000380e-011
-2.189235e-009
-3.141270e-009
-1.891537e-009
8.499119e-010
3.074255e-009
-4.198208e-009
-2.784043e-010
3.784077e-009
4.179302e-009
4.544921e-010
-4.066742e-009
-5.171667e-009
-1.475655e-009
4.238407e-009
7.260379e-009
4.886817e-009
-1.334579e-009
-6.955059e-009
-8.282371e-009
-5.065648e-009
-7.050917e-012
4.014740e-009
6.097984e-009
6.952767e-009
6.978914e-009
5.316007e-009
1.023657e-009
-5.095641e-009
-1.036218e-008
-1.218901e-008
-1.014899e-008
-6.006100e-009
-1.836766e-009
1.643404e-009
4.922695e-009
8.287795e-009
1.102240e-008
1.207421e-008
1.121794e-008
9.279788e-009
7.254081e-009
5.433297e-009
3.485806e-009
1.188508e-009
-1.160241e-009
-3.060425e-009
-4.344461e-009
-5.260038e-009
-6.094526e-009
-6.864386e-009
-7.398290e-009
-7.609768e-009
-7.591890e-009
-7.477564e-009
-7.299492e-009
-7.006073e-009
-6.546507e-009
-5.892553e-009
-5.016589e-009
-3.912386e-009
-2.631639e-009
-1.238995e-009
2.830450e-010
2.014449e-009
3.919870e-009
5.727417e-009
7.078254e-009
7.815579e-009
8.035418e-009
7.785679e-009
6.805351e-009
4.742779e-009
1.700129e-009
-1.563881e-009
-4.126974e-009
-5.586611e-009
-6.122037e-009
-5.875219e-009
-4.517478e-009
-1.718703e-009
1.943932e-009
4.856310e-009
5.483363e-009
3.706592e-009
9.393017e-010
-1.154003e-009
-1.980329e-009
-2.048431e-009
-1.908540e-009
-1.414018e-009
-1.809863e-010
1.451689e-009
2.328247e-009
1.565199e-009
-3.572606e-010
-1.829791e-009
-1.587395e-009
5.336547e-011
1.484284e-009
1.358328e-009
-1.317895e-010
-1.487133e-009
-1.379578e-009
7.975089e-011
1.479142e-009
7.703543e-009
3.880062e-009
-1.708044e-009
-6.342888e-009
-7.922976e-009
-5.731706e-009
-5.888889e-010
5.396828e-009
9.421120e-009
9.084870e-009
3.835793e-009
-4.145866e-009
-1.069308e-008
-1.205799e-008
-7.419293e-009
5.470111e-010
7.610956e-009
1.082362e-008
9.894453e-009
6.316140e-009
1.633226e-009
-3.267555e-009
-7.563056e-009
-9.962582e-009
-9.339985e-009
-5.906056e-009
-1.380385e-009
2.287672e-009
4.358521e-009
5.401975e-009
6.130408e-009
6.444816e-009
5.741672e-009
3.911988e-009
1.699214e-009
3.348864e-012
-9.604136e-010
-1.657998e-009
-2.510926e-009
-3.395660e-009
-3.899754e-009
-3.889355e-009
-3.657322e-009
-3.552647e-009
-3.621910e-009
-3.669349e-009
-3.564197e-009
-3.381628e-009
-3.269126e-009
-3.277445e-009
-3.352454e-009
-3.422201e-009
-3.436471e-009
-3.359877e-009
-3.191999e-009
-2.982482e-009
-2.755704e-009
-2.406292e-009
-1.746974e-009
-7.236313e-010
4.634248e-010
1.543299e-009
2.470071e-009
3.413479e-009
4.381917e-009
4.953088e-009
4.552182e-009
3.040744e-009
9.104937e-010
-1.190606e-009
-3.014344e-009
-4.618393e-009
-5.744806e-009
-5.581886e-009
-3.443231e-009
2.785917e-010
4.023770e-009
6.091062e-009
5.782987e-009
3.594265e-009
5.138579e-010
-2.576740e-009
-4.848000e-009
-5.339994e-009
-3.420440e-009
3.321798e-010
3.941091e-009
5.189985e-009
3.325577e-009
-2.683969e-010
-3.130801e-009
-3.596577e-009
-1.867001e-009
4.839340e-010
1.902146e-009
1.878958e-009
9.384240e-010
-8.771439e-011
-7.206596e-010
-9.570687e-010
1.189751e-008
3.913510e-009
-5.811691e-009
-1.046414e-008
-7.719202e-009
-7.676947e-010
4.992429e-009
6.319549e-009
3.870968e-009
4.797854e-010
-1.721622e-009
-2.504479e-009
-2.518924e-009
-1.887213e-009
-2.463053e-010
2.052477e-009
3.449416e-009
2.391768e-009
-9.339680e-010
-4.372479e-009
-5.506156e-009
-3.599316e-009
1.049701e-010
3.744228e-009
6.208001e-009
7.269128e-009
6.894878e-009
4.946957e-009
1.606967e-009
-2.279053e-009
-5.616436e-009
-7.825403e-009
-9.042057e-009
-9.584576e-009
-9.434637e-009
-8.370704e-009
-6.473018e-009
-4.260055e-009
-2.264058e-009
-6.006148e-010
9.491127e-010
2.513641e-009
3.925478e-009
4.938965e-009
5.526790e-009
5.879855e-009
6.166290e-009
6.377151e-009
6.403200e-009
6.184148e-009
5.748186e-009
5.153745e-009
4.439263e-009
3.606316e-009
2.607031e-009
1.364231e-009
-1.363205e-010
-1.761798e-009
-3.294824e-009
-4.611185e-009
-5.741247e-009
-6.688425e-009
-7.221739e-009
-6.966605e-009
-5.761836e-009
-3.864148e-009
-1.727385e-009
3.672144e-010
2.338884e-009
3.970108e-009
4.731821e-009
4.145416e-009
2.336289e-009
1.021153e-010
-1.635076e-009
-2.393819e-009
-2.169757e-009
-1.140074e-009
3.920334e-010
1.767337e-009
2.055766e-009
7.820811e-010
-1.354507e-009
-2.754244e-009
-2.215629e-009
-5.837768e-011
2.108229e-009
2.778923e-009
1.730285e-009
-6.763766e-011
-1.473540e-009
-1.973067e-009
-1.635945e-009
-6.781016e-010
6.535016e-010
1.848546e-009
2.149980e-009
1.120571e-009
-7.590466e-010
-2.236188e-009
6.256027e-009
1.875019e-010
-5.942077e-009
-6.225041e-009
-2.442283e-010
6.568046e-009
7.820532e-009
1.901205e-009
-6.531855e-009
-1.056295e-008
-6.871686e-009
1.750280e-009
9.150993e-009
1.092935e-008
7.212846e-009
1.198334e-009
-4.212480e-009
-8.063700e-009
-1.028253e-008
-1.011476e-008
-6.426492e-009
4.880632e-010
8.044831e-009
1.285346e-008
1.316933e-008
9.837378e-009
5.011444e-009
2.876865e-010
-3.875896e-009
-7.394155e-009
-9.832083e-009
-1.063088e-008
-9.764483e-009
-7.849973e-009
-5.597935e-009
-3.331893e-009
-1.079062e-009
1.066338e-009
2.857229e-009
4.134679e-009
4.992086e-009
5.631810e-009
6.133217e-009
6.433837e-009
6.500226e-009
6.430415e-009
6.368067e-009
6.366053e-009
6.367584e-009
6.297752e-009
6.141952e-009
5.940202e-009
5.725851e-009
5.469278e-009
5.070820e-009
4.419004e-009
3.475526e-009
2.297258e-009
9.537504e-010
-5.625853e-010
-2.290939e-009
-4.141255e-009
-5.821075e-009
-6.974779e-009
-7.380300e-009
-6.959413e-009
-5.630744e-009
-3.301029e-009
-1.201518e-010
3.300755e-009
6.068987e-009
7.474119e-009
7.243048e-009
5.393724e-009
2.097320e-009
-2.054158e-009
-5.719742e-009
-7.199902e-009
-5.622472e-009
-1.860540e-009
1.932505e-009
3.917177e-009
3.774646e-009
2.425873e-009
8.258414e-010
-6.965489e-010
-1.996683e-009
-2.519429e-009
-1.640852e-009
3.528834e-010
2.026495e-009
1.952892e-009
1.933135e-010
-1.585047e-009
-1.674529e-009
-3.505402e-011
1.646508e-009
1.652226e-009
-3.450968e-011
-1.721195e-009
-2.792919e-009
-3.201406e-009
-2.230600e-009
1.348404e-009
6.131617e-009
8.442085e-009
5.243850e-009
-2.703952e-009
-1.044700e-008
-1.216501e-008
-5.872941e-009
4.540605e-009
1.204651e-008
1.189607e-008
5.069343e-009
-3.152623e-009
-7.836847e-009
-7.803471e-009
-5.071431e-009
-1.874923e-009
1.148312e-009
4.088038e-009
6.121491e-009
5.650025e-009
2.154162e-009
-2.658766e-009
-6.031607e-009
-6.453817e-009
-4.596249e-009
-2.104374e-009
1.183824e-010
2.262273e-009
4.619900e-009
6.775723e-009
7.938831e-009
7.807089e-009
6.821409e-009
5.607827e-009
4.396860e-009
3.060287e-009
1.538145e-009
3.635758e-011
-1.186081e-009
-2.076939e-009
-2.764426e-009
-3.339310e-009
-3.750586e-009
-3.910357e-009
-3.826980e-009
-3.590425e-009
-3.251596e-009
-2.763773e-009
-2.056081e-009
-1.137695e-009
-9.970689e-011
9.821029e-010
2.107381e-009
3.279745e-009
4.388038e-009
5.211546e-009
5.572830e-009
5.449014e-009
4.883503e-009
3.826389e-009
2.186067e-009
1.105639e-010
-1.866753e-009
-3.111643e-009
-3.353490e-009
-2.773908e-009
-1.617243e-009
8.999484e-011
2.205582e-009
3.928842e-009
3.993888e-009
1.783009e-009
-1.742043e-009
-4.500886e-009
-4.902841e-009
-3.012055e-009
-1.539466e-010
2.377089e-009
3.976865e-009
4.312462e-009
2.917493e-009
-2.230151e-010
-3.767747e-009
-5.364229e-009
-3.534266e-009
6.600028e-010
4.142952e-009
4.367929e-009
1.506774e-009
-1.835146e-009
-3.046865e-009
-1.706109e-009
4.301425e-010
1.360064e-009
6.788193e-010
-3.524149e-010
-7.683980e-009
-2.928202e-009
3.011035e-009
6.247827e-009
5.356382e-009
1.797316e-009
-1.837563e-009
-3.767359e-009
-3.572068e-009
-1.638780e-009
1.203298e-009
3.495222e-009
3.418483e-009
2.192915e-010
-4.371020e-009
-6.742906e-009
-4.265006e-009
2.119659e-009
8.334330e-009
1.045420e-008
7.650007e-009
2.075885e-009
-3.618256e-009
-8.161526e-009
-1.126336e-008
-1.228561e-008
-1.019985e-008
-4.954388e-009
1.709699e-009
7.314811e-009
1.050770e-008
1.167175e-008
1.181581e-008
1.126412e-008
9.630607e-009
6.787401e-009
3.407720e-009
4.325936e-010
-1.761630e-009
-3.472673e-009
-5.067214e-009
-6.504295e-009
-7.499684e-009
-7.972292e-009
-8.158504e-009
-8.320283e-009
-8.485695e-009
-8.526302e-009
-8.394474e-009
-8.182759e-009
-7.966356e-009
-7.683501e-009
-7.216540e-009
-6.534703e-009
-5.682313e-009
-4.637229e-009
-3.270212e-009
-1.501755e-009
5.461923e-010
2.634395e-009
4.629882e-009
6.532294e-009
8.206494e-009
9.181449e-009
8.892061e-009
7.183516e-009
4.474252e-009
1.345094e-009
-1.903841e-009
-5.084441e-009
-7.549842e-009
-8.154010e-009
-6.152709e-009
-2.183105e-009
1.900460e-009
4.351144e-009
4.672961e-009
3.482896e-009
1.560649e-009
-5.946314e-010
-2.351186e-009
-2.723550e-009
-1.181382e-009
1.320259e-009
2.679263e-009
1.518192e-009
-1.274042e-009
-3.181160e-009
-2.429338e-009
3.239496e-010
2.698397e-009
2.864529e-009
1.042584e-009
-1.057021e-009
-1.949119e-009
-1.455607e-009
-3.994043e-010
3.818150e-010
6.446224e-010
6.335802e-010
-6.437371e-009
1.999658e-010
6.666693e-009
6.474768e-009
-4.397800e-010
-7.730323e-009
-8.560432e-009
-1.814745e-009
7.071372e-009
1.109054e-008
7.511023e-009
-6.318721e-010
-7.920868e-009
-1.081874e-008
-9.002959e-009
-3.884436e-009
2.861495e-009
9.208122e-009
1.247452e-008
1.054495e-008
3.876474e-009
-4.183417e-009
-9.666207e-009
-1.074166e-008
-8.305249e-009
-4.282811e-009
6.334729e-011
4.148478e-009
7.171558e-009
8.056938e-009
6.450448e-009
3.320793e-009
1.923938e-010
-2.137237e-009
-3.901077e-009
-5.506761e-009
-6.758256e-009
-7.102272e-009
-6.417495e-009
-5.243159e-009
-4.201002e-009
-3.411189e-009
-2.595066e-009
-1.606347e-009
-6.601680e-010
-4.428911e-011
2.175328e-010
3.145462e-010
3.544809e-010
2.537623e-010
-8.669494e-011
-6.219669e-010
-1.243872e-009
-1.940713e-009
-2.766278e-009
-3.659613e-009
-4.407752e-009
-4.842064e-009
-4.987202e-009
-4.910297e-009
-4.462371e-009
-3.333205e-009
-1.452043e-009
7.613624e-010
2.679264e-009
3.966164e-009
4.638286e-009
4.607094e-009
3.419263e-009
7.505085e-010
-2.824814e-009
-5.818427e-009
-6.801149e-009
-5.394385e-009
-2.292721e-009
1.451122e-009
4.851386e-009
6.813693e-009
6.195303e-009
2.718003e-009
-2.112529e-009
-5.542673e-009
-5.592184e-009
-2.694152e-009
7.876705e-010
2.681537e-009
2.576506e-009
1.466928e-009
3.393829e-010
-5.335011e-010
-1.132534e-009
-1.171738e-009
-4.293587e-010
6.210631e-010
1.011710e-009
3.203986e-010
-7.198026e-010
-9.434714e-010
-7.397728e-011
9.217848e-010
-2.363897e-009
2.525203e-009
6.333598e-009
3.702703e-009
-4.409034e-009
-1.100549e-008
-9.328267e-009
5.425717e-010
1.109358e-008
1.372153e-008
6.304634e-009
-5.061175e-009
-1.165771e-008
-9.549206e-009
-1.941262e-009
4.860558e-009
7.029719e-009
5.016775e-009
1.215475e-009
-2.678058e-009
-5.814807e-009
-7.002989e-009
-4.835872e-009
6.308671e-010
7.011929e-009
1.107670e-008
1.115645e-008
7.938854e-009
3.161723e-009
-1.933367e-009
-6.774713e-009
-1.073450e-008
-1.295553e-008
-1.302801e-008
-1.145195e-008
-9.146889e-009
-6.626832e-009
-3.862082e-009
-8.469218e-010
2.018579e-009
4.240604e-009
5.740285e-009
6.849865e-009
7.845747e-009
8.663775e-009
9.111222e-009
9.200478e-009
9.141844e-009
9.067925e-009
8.907113e-009
8.543886e-009
7.980805e-009
7.265979e-009
6.340283e-009
5.076142e-009
3.459727e-009
1.622051e-009
-3.483689e-010
-2.510727e-009
-4.872663e-009
-7.128202e-009
-8.741152e-009
-9.338026e-009
-8.914551e-009
-7.589736e-009
-5.305232e-009
-2.005523e-009
1.846763e-009
5.154115e-009
6.795829e-009
6.366898e-009
4.269692e-009
1.245354e-009
-1.898160e-009
-4.125625e-009
-4.279708e-009
-1.957680e-009
1.618864e-009
4.066619e-009
3.658739e-009
7.990848e-010
-2.401453e-009
-3.965863e-009
-3.374294e-009
-1.317607e-009
1.240448e-009
3.385898e-009
4.061357e-009
2.453251e-009
-9.245624e-010
-3.888774e-009
-4.090940e-009
-1.264837e-009
2.222771e-009
3.445393e-009
1.674284e-009
-1.028283e-009
-2.009757e-009
-7.019317e-010
1.010083e-009
1.084944e-009
1.744606e-009
1.744442e-009
-2.008203e-011
-2.914817e-009
-4.549161e-009
-2.784501e-009
1.745714e-009
5.319724e-009
4.179526e-009
-1.442506e-009
-6.595772e-009
-5.799502e-009
1.432038e-009
9.409453e-009
1.112722e-008
4.591459e-009
-5.592462e-009
-1.260820e-008
-1.298620e-008
-8.063890e-009
-1.157268e-009
5.449946e-009
1.071414e-008
1.344792e-008
1.220862e-008
6.861923e-009
-4.787976e-010
-6.726760e-009
-1.002993e-008
-1.055035e-008
-9.356676e-009
-7.117334e-009
-4.017859e-009
-4.522611e-010
2.788034e-009
5.082938e-009
6.431788e-009
7.185880e-009
7.521216e-009
7.364354e-009
6.737208e-009
5.925483e-009
5.233305e-009
4.713825e-009
4.248113e-009
3.809069e-009
3.521732e-009
3.482822e-009
3.644336e-009
3.914393e-009
4.280188e-009
4.757063e-009
5.271630e-009
5.688704e-009
5.937641e-009
6.010926e-009
5.812850e-009
5.113371e-009
3.743717e-009
1.796031e-009
-4.560992e-010
-2.792306e-009
-5.053341e-009
-6.879526e-009
-7.616957e-009
-6.689195e-009
-4.086150e-009
-4.039644e-010
3.535547e-009
6.903304e-009
8.716663e-009
7.924476e-009
4.206191e-009
-1.170521e-009
-5.676472e-009
-7.175669e-009
-5.429516e-009
-1.975852e-009
1.302450e-009
3.283795e-009
3.563806e-009
2.106550e-009
-4.630069e-010
-2.516550e-009
-2.305621e-009
2.276013e-010
2.829576e-009
2.829687e-009
-7.408919e-011
-3.235546e-009
-3.605789e-009
-8.190094e-010
2.466732e-009
3.289685e-009
1.248010e-009
-1.371395e-009
-2.077195e-009
-5.854984e-010
1.162331e-009
3.465024e-009
-7.741497e-010
-4.579367e-009
-3.770728e-009
1.225806e-009
5.952830e-009
6.231515e-009
1.745880e-009
-4.246509e-009
-7.971931e-009
-7.564169e-009
-3.247448e-009
3.391975e-009
9.561305e-009
1.162235e-008
7.158671e-009
-2.262671e-009
-1.095759e-008
-1.306334e-008
-7.374678e-009
1.745742e-009
8.323079e-009
9.458127e-009
6.314961e-009
1.511160e-009
-3.348081e-009
-7.560327e-009
-1.001866e-008
-9.266858e-009
-5.016563e-009
1.062820e-009
6.531778e-009
1.001329e-008
1.166077e-008
1.211894e-008
1.155035e-008
9.789259e-009
7.028870e-009
3.941997e-009
1.142237e-009
-1.220230e-009
-3.275923e-009
-5.055547e-009
-6.434222e-009
-7.352021e-009
-7.915305e-009
-8.259532e-009
-8.414627e-009
-8.343528e-009
-8.037880e-009
-7.517079e-009
-6.773634e-009
-5.777686e-009
-4.517845e-009
-2.990840e-009
-1.172920e-009
9.280403e-010
3.179933e-009
5.342684e-009
7.191983e-009
8.555985e-009
9.193417e-009
8.746594e-009
6.978973e-009
4.087661e-009
6.808238e-010
-2.572994e-009
-5.139556e-009
-6.429954e-009
-5.723616e-009
-2.741401e-009
1.555244e-009
5.063205e-009
5.874901e-009
3.686421e-009
-1.306508e-010
-3.705412e-009
-5.694581e-009
-5.372585e-009
-2.532809e-009
1.971833e-009
5.802225e-009
6.279924e-009
2.779785e-009
-2.150074e-009
-4.739992e-009
-3.424952e-009
-1.504878e-010
1.862583e-009
1.367197e-009
-1.550660e-010
-6.678578e-010
1.426757e-010
9.578819e-010
6.794197e-010
-3.760816e-010
-1.079949e-009
-7.959623e-010
1.295618e-010
8.814661e-010
5.486111e-009
-1.956798e-009
-8.466223e-009
-6.493280e-009
3.015638e-009
1.136435e-008
1.048480e-008
7.216628e-010
-9.570825e-009
-1.197344e-008
-5.423527e-009
3.836731e-009
8.675529e-009
6.807134e-009
9.885685e-010
-4.599103e-009
-7.133481e-009
-5.451019e-009
1.647389e-010
7.376049e-009
1.194358e-008
1.024496e-008
2.442477e-009
-7.213967e-009
-1.368459e-008
-1.473680e-008
-1.142631e-008
-5.857846e-009
6.256358e-010
7.134549e-009
1.225097e-008
1.436753e-008
1.305044e-008
9.517983e-009
5.510101e-009
1.912530e-009
-1.360628e-009
-4.457564e-009
-7.021221e-009
-8.570382e-009
-9.106501e-009
-9.100136e-009
-8.974191e-009
-8.795388e-009
-8.459682e-009
-7.995723e-009
-7.587493e-009
-7.377654e-009
-7.353140e-009
-7.419298e-009
-7.519702e-009
-7.660168e-009
-7.841728e-009
-7.988446e-009
-7.941717e-009
-7.536217e-009
-6.689826e-009
-5.397212e-009
-3.623404e-009
-1.270234e-009
1.645734e-009
4.766714e-009
7.448073e-009
9.112462e-009
9.486968e-009
8.432824e-009
5.719653e-009
1.319118e-009
-3.928099e-009
-8.202421e-009
-9.683201e-009
-7.833983e-009
-3.701905e-009
9.580923e-010
4.620990e-009
6.169440e-009
4.884048e-009
1.094938e-009
-3.122850e-009
-4.797661e-009
-2.520967e-009
1.863593e-009
4.607770e-009
3.486231e-009
-2.263329e-010
-3.285273e-009
-3.655695e-009
-1.889112e-009
2.538180e-010
1.699717e-009
2.314521e-009
2.024865e-009
6.628814e-010
-1.230022e-009
-2.258768e-009
-1.491855e-009
2.911936e-010
1.283702e-009
6.948151e-010
-3.694387e-010
5.969292e-009
-6.719201e-010
-6.917715e-009
-6.173363e-009
1.145438e-009
7.782671e-009
6.794801e-009
-1.122092e-009
-7.868997e-009
-6.133617e-009
2.750800e-009
9.802006e-009
7.469849e-009
-2.751740e-009
-1.200502e-008
-1.268558e-008
-4.771743e-009
5.657001e-009
1.242903e-008
1.311504e-008
8.472289e-009
5.480202e-010
-7.813174e-009
-1.302911e-008
-1.236326e-008
-6.152345e-009
2.097108e-009
8.351982e-009
1.075853e-008
9.832719e-009
6.733017e-009
2.134105e-009
-3.304825e-009
-8.277020e-009
-1.135147e-008
-1.208817e-008
-1.123040e-008
-9.738317e-009
-7.918107e-009
-5.598273e-009
-2.853570e-009
-2.152958e-010
1.818351e-009
3.226987e-009
4.316359e-009
5.260926e-009
5.939335e-009
6.176246e-009
5.995539e-009
5.570824e-009
4.992113e-009
4.166141e-009
2.957468e-009
1.377260e-009
-4.127617e-010
-2.273121e-009
-4.194044e-009
-6.159166e-009
-7.911370e-009
-8.956589e-009
-8.886912e-009
-7.666695e-009
-5.520821e-009
-2.608522e-009
9.606569e-010
4.656308e-009
7.267070e-009
7.480803e-009
4.920895e-009
5.546182e-010
-3.943601e-009
-7.077871e-009
-7.806087e-009
-5.507738e-009
-4.898735e-010
5.255952e-009
8.521638e-009
7.105012e-009
1.935329e-009
-3.367947e-009
-5.459916e-009
-3.868793e-009
-7.427819e-010
1.525251e-009
2.041891e-009
1.200841e-009
-2.657246e-010
-1.524622e-009
-1.567384e-009
6.340261e-011
2.255057e-009
2.809516e-009
6.867095e-010
-2.406727e-009
-3.405693e-009
-1.173348e-009
2.029126e-009
2.860370e-009
5.818291e-010
-2.102602e-009
2.575600e-009
1.240550e-009
-5.956647e-010
-1.676980e-009
-1.395377e-009
-7.268510e-010
-1.236920e-009
-2.607578e-009
-2.044322e-009
2.457066e-009
8.257531e-009
9.167622e-009
1.879473e-009
-9.059626e-009
-1.430033e-008
-8.624613e-009
3.589580e-009
1.237362e-008
1.134642e-008
2.588315e-009
-6.732961e-009
-1.101606e-008
-9.268255e-009
-3.400978e-009
4.231020e-009
1.124186e-008
1.489663e-008
1.319581e-008
6.616824e-009
-1.908057e-009
-9.150322e-009
-1.357508e-008
-1.528584e-008
-1.471775e-008
-1.204199e-008
-7.703327e-009
-2.812892e-009
1.444993e-009
4.646592e-009
7.110215e-009
9.146533e-009
1.061747e-008
1.127483e-008
1.126253e-008
1.106030e-008
1.099579e-008
1.099809e-008
1.085992e-008
1.059284e-008
1.040967e-008
1.041133e-008
1.042294e-008
1.018229e-008
9.607208e-009
8.780055e-009
7.680800e-009
6.056388e-009
3.656052e-009
5.693353e-010
-2.771380e-009
-5.932011e-009
-8.677907e-009
-1.072296e-008
-1.140797e-008
-9.937883e-009
-6.130509e-009
-8.650284e-010
4.321815e-009
8.022525e-009
9.306027e-009
7.650164e-009
3.216582e-009
-2.462684e-009
-6.547699e-009
-6.554326e-009
-2.490088e-009
2.802694e-009
5.780223e-009
4.846327e-009
1.104315e-009
-2.981428e-009
-5.252658e-009
-4.633546e-009
-1.396717e-009
2.648627e-009
4.789801e-009
3.389456e-009
-3.160879e-010
-2.970410e-009
-2.304994e-009
4.903122e-010
2.085637e-009
7.348707e-010
-1.807090e-009
-2.378618e-009
-8.420754e-011
2.651459e-009
2.779472e-009
4.216044e-012
-2.856879e-009
-4.307736e-009
1.484249e-009
6.373550e-009
4.862715e-009
-1.728360e-009
-7.199683e-009
-6.976998e-009
-1.896590e-009
3.772322e-009
6.502949e-009
5.322474e-009
1.091503e-009
-4.079990e-009
-6.807994e-009
-4.028614e-009
3.560260e-009
1.018006e-008
9.125876e-009
-5.740713e-010
-1.215718e-008
-1.669896e-008
-1.086029e-008
9.359906e-010
1.126465e-008
1.560772e-008
1.388238e-008
8.081274e-009
1.943128e-010
-7.700716e-009
-1.303402e-008
-1.383518e-008
-1.025299e-008
-4.398339e-009
1.449031e-009
6.212883e-009
9.752907e-009
1.192605e-008
1.242466e-008
1.134896e-008
9.405106e-009
7.335538e-009
5.365777e-009
3.368365e-009
1.395107e-009
-2.058780e-010
-1.184428e-009
-1.670731e-009
-1.948166e-009
-2.060347e-009
-1.791186e-009
-1.005162e-009
1.478515e-010
1.432503e-009
2.823847e-009
4.462646e-009
6.316224e-009
8.013569e-009
9.096518e-009
9.352160e-009
8.774096e-009
7.246181e-009
4.499856e-009
5.593962e-010
-3.841645e-009
-7.466938e-009
-9.234398e-009
-8.606930e-009
-5.502227e-009
-3.055957e-010
5.670469e-009
1.002385e-008
1.034837e-008
6.098219e-009
-5.866224e-010
-6.174005e-009
-8.060342e-009
-5.904480e-009
-1.316653e-009
3.165425e-009
5.075126e-009
3.225640e-009
-1.077008e-009
-4.337717e-009
-3.572160e-009
6.635374e-010
4.417035e-009
4.173314e-009
4.432533e-010
-2.961271e-009
-3.121502e-009
-8.141729e-010
1.026293e-009
8.548760e-010
-2.197838e-010
-3.953051e-010
5.636942e-010
1.373071e-009
9.602029e-010
-4.107659e-010
-1.571143e-009
-9.958849e-009
5.682310e-011
9.406162e-009
8.785952e-009
-4.212910e-010
-8.251074e-009
-6.923633e-009
1.331696e-009
7.343093e-009
4.954204e-009
-3.058425e-009
-8.664535e-009
-6.741229e-009
9.868655e-010
8.717140e-009
1.146678e-008
7.553660e-009
-1.310769e-009
-1.056249e-008
-1.437851e-008
-9.332842e-009
2.098859e-009
1.237846e-008
1.458355e-008
7.824391e-009
-2.830100e-009
-1.122363e-008