# vtk DataFile Version 3.0
vtk output
ASCII
DATASET STRUCTURED_POINTS
DIMENSIONS 100 100 1
SPACING 1 1 1
ORIGIN 0 0 0
POINT_DATA 10000
SCALARS SFBox_profile double
LOOKUP_TABLE default 
0.000000e+000
0.000000e+000
0.000000e+000
0.000000e+000
0.000000e+000
0.000000e+000
0.000000e+000
0.000000e+000
0.000000e+000
0.000000e+000
0.000000e+000
0.000000e+000
0.000000e+000
0.000000e+000
0.000000e+000
0.000000e+000
0.000000e+000
0.000000e+000
0.000000e+000
0.000000e+000
0.000000e+000
0.000000e+000
0.000000e+000
0.000000e+000
0.000000e+000
0.000000e+000
0.000000e+000
0.000000e+000
0.000000e+000
0.000000e+000
0.000000e+000
0.000000e+000
0.000000e+000
0.000000e+000
0.000000e+000
0.000000e+000
0.000000e+000
0.000000e+000
0.000000e+000
0.000000e+000
0.000000e+000
0.000000e+000
0.000000e+000
0.000000e+000
0.000000e+000
0.000000e+000
0.000000e+000
0.000000e+000
0.000000e+000
0.000000e+000
0.000000e+000
0.000000e+000
0.000000e+000
0.000000e+000
0.000000e+000
0.000000e+000
0.000000e+000
0.000000e+000
0.000000e+000
0.000000e+000
0.000000e+000
0.000000e+000
0.000000e+000
0.000000e+000
0.000000e+000
0.000000e+000
0.000000e+000
0.000000e+000
0.000000e+000
0.000000e+000
0.000000e+000
0.000000e+000
0.000000e+000
0.000000e+000
0.000000e+000
0.000000e+000
0.000000e+000
0.000000e+000
0.000000e+000
0.000000e+000
0.000000e+000
0.000000e+000
0.000000e+000
0.000000e+000
0.000000e+000
0.000000e+000
0.000000e+000
0.000000e+000
0.000000e+000
0.000000e+000
0.000000e+000
0.000000e+000
0.000000e+000
0.000000e+000
0.000000e+000
0.000000e+000
0.000000e+000
0.000000e+000
0.000000e+000
0.000000e+000
5.134961e-009
2.375604e-009
-1.096298e-009
-3.363693e-009
-3.403153e-009
-1.484048e-009
1.105035e-009
2.859195e-009
2.918750e-009
1.478990e-009
-4.708960e-010
-1.855941e-009
-2.162069e-009
-1.599139e-009
-7.495722e-010
-5.619589e-011
4.267144e-010
8.773275e-010
1.372256e-009
1.727420e-009
1.655888e-009
1.060874e-009
1.608018e-010
-6.733543e-010
-1.200883e-009
-1.444731e-009
-1.574902e-009
-1.691254e-009
-1.730753e-009
-1.568857e-009
-1.179961e-009
-6.806873e-010
-2.238852e-010
1.305697e-010
4.350295e-010
7.617336e-010
1.111896e-009
1.419680e-009
1.630378e-009
1.757107e-009
1.858078e-009
1.970315e-009
2.077366e-009
2.140680e-009
2.150925e-009
2.139447e-009
2.141699e-009
2.159323e-009
2.164652e-009
2.139175e-009
2.098417e-009
2.073586e-009
2.072637e-009
2.068593e-009
2.030999e-009
1.963612e-009
1.900806e-009
1.862766e-009
1.821929e-009
1.725463e-009
1.553276e-009
1.342858e-009
1.144450e-009
9.534981e-010
7.039207e-010
3.422507e-010
-9.596191e-011
-5.014080e-010
-7.925455e-010
-9.912186e-010
-1.177000e-009
-1.361291e-009
-1.427230e-009
-1.223548e-009
-7.290802e-010
-1.101529e-010
4.051057e-010
7.126973e-010
8.807798e-010
1.005889e-009
1.039684e-009
7.970773e-010
1.695544e-010
-6.661541e-010
-1.282479e-009
-1.294699e-009
-6.718699e-010
2.131551e-010
8.471346e-010
9.332444e-010
5.542555e-010
4.088991e-011
-3.046637e-010
-3.906174e-010
-3.098381e-010
-1.896988e-010
-8.162432e-011
2.868656e-011
1.457732e-010
2.283279e-010
5.905079e-010
3.239491e-010
-4.303999e-011
-3.290430e-010
-3.912633e-010
-2.062847e-010
9.482922e-011
2.951597e-010
2.432714e-010
-2.080957e-011
-2.791776e-010
-3.006553e-010
-3.359599e-011
3.374759e-010
5.308067e-010
3.916483e-010
1.102807e-011
-3.611719e-010
-5.250918e-010
-4.721560e-010
-3.419431e-010
-2.569052e-010
-2.061794e-010
-8.537628e-011
1.656229e-010
4.789052e-010
7.132752e-010
7.828069e-010
7.233565e-010
6.361110e-010
5.786429e-010
5.198706e-010
3.956340e-010
1.924476e-010
-3.339672e-011
-2.140671e-010
-3.344950e-010
-4.338743e-010
-5.513653e-010
-6.817725e-010
-7.873108e-010
-8.444639e-010
-8.693690e-010
-8.960782e-010
-9.376326e-010
-9.757473e-010
-9.877059e-010
-9.756954e-010
-9.639075e-010
-9.688716e-010
-9.800003e-010
-9.738942e-010
-9.445990e-010
-9.121887e-010
-8.978465e-010
-8.950617e-010
-8.735312e-010
-8.139663e-010
-7.324888e-010
-6.620820e-010
-6.096254e-010
-5.407043e-010
-4.159929e-010
-2.406888e-010
-6.666044e-011
6.166415e-011
1.573174e-010
2.735883e-010
4.320776e-010
5.781916e-010
6.234015e-010
5.357008e-010
3.775563e-010
2.427613e-010
1.581181e-010
6.227277e-011
-1.079416e-010
-3.172831e-010
-4.366387e-010
-3.616057e-010
-1.264762e-010
1.095054e-010
1.979163e-010
1.266732e-010
1.308636e-011
-2.229286e-011
3.020057e-011
7.854259e-011
4.153189e-011
-5.874716e-011
-1.199558e-010
-7.000692e-011
5.212239e-011
1.293993e-010
8.116565e-011
-5.465569e-011
-1.530670e-010
-1.181968e-010
2.565463e-011
1.538253e-010
-4.588510e-009
-2.038564e-009
1.103628e-009
3.056141e-009
2.965867e-009
1.199550e-009
-1.039203e-009
-2.495236e-009
-2.548283e-009
-1.416225e-009
1.550815e-010
1.417838e-009
1.990472e-009
1.889758e-009
1.328106e-009
5.122190e-010
-4.075796e-010
-1.275178e-009
-1.891315e-009
-2.076466e-009
-1.777443e-009
-1.106104e-009
-2.683668e-010
5.503969e-010
1.247019e-009
1.780311e-009
2.122001e-009
2.242285e-009
2.135547e-009
1.841542e-009
1.428933e-009
9.575736e-010
4.597261e-010
-4.609486e-011
-5.340132e-010
-9.714315e-010
-1.338771e-009
-1.640962e-009
-1.895114e-009
-2.109230e-009
-2.277017e-009
-2.392628e-009
-2.464840e-009
-2.512573e-009
-2.548066e-009
-2.569059e-009
-2.569037e-009
-2.551586e-009
-2.530387e-009
-2.515178e-009
-2.501982e-009
-2.480271e-009
-2.447851e-009
-2.414047e-009
-2.386498e-009
-2.358164e-009
-2.311688e-009
-2.236390e-009
-2.136289e-009
-2.017992e-009
-1.873124e-009
-1.678631e-009
-1.416937e-009
-1.092520e-009
-7.246611e-010
-3.260560e-010
1.037799e-010
5.588069e-010
1.003275e-009
1.375401e-009
1.617186e-009
1.697802e-009
1.606884e-009
1.334639e-009
8.758514e-010
2.649812e-010
-3.963674e-010
-9.610912e-010
-1.298823e-009
-1.345198e-009
-1.101272e-009
-6.071188e-010
5.743250e-011
7.379727e-010
1.199865e-009
1.216628e-009
7.260500e-010
-6.988945e-011
-7.763927e-010
-1.033559e-009
-7.450279e-010
-1.343781e-010
4.150643e-010
6.152775e-010
4.380587e-010
8.645294e-011
-1.800796e-010
-2.256596e-010
-1.019770e-010
2.684724e-011
-5.910264e-009
-2.691497e-009
1.298178e-009
3.806152e-009
3.719969e-009
1.486665e-009
-1.323379e-009
-3.040877e-009
-2.872124e-009
-1.233497e-009
7.012655e-010
1.854718e-009
1.877146e-009
1.163271e-009
3.628364e-010
-1.457634e-010
-4.077416e-010
-6.438767e-010
-9.214068e-010
-1.071693e-009
-8.913884e-010
-3.826188e-010
2.187953e-010
6.388459e-010
7.758492e-010
7.293671e-010
6.529669e-010
6.022710e-010
5.212367e-010
3.463571e-010
9.643170e-011
-1.420133e-010
-2.986781e-010
-3.738960e-010
-4.151467e-010
-4.568845e-010
-4.924009e-010
-4.969247e-010
-4.637225e-010
-4.116003e-010
-3.632763e-010
-3.249556e-010
-2.879690e-010
-2.444584e-010
-1.969142e-010
-1.539873e-010
-1.213488e-010
-9.818744e-011
-8.059243e-011
-6.642385e-011
-5.735976e-011
-5.739492e-011
-6.904835e-011
-9.013530e-011
-1.149878e-010
-1.406767e-010
-1.718224e-010
-2.161335e-010
-2.729410e-010
-3.285374e-010
-3.676470e-010
-3.900355e-010
-4.097850e-010
-4.323503e-010
-4.352407e-010
-3.817048e-010
-2.597817e-010
-1.018439e-010
4.591822e-011
1.747730e-010
3.208123e-010
5.067091e-010
6.789616e-010
7.243362e-010
5.687579e-010
2.597019e-010
-6.616659e-011
-3.070942e-010
-4.766087e-010
-6.403313e-010
-7.727649e-010
-7.104426e-010
-2.959101e-010
4.045361e-010
1.043210e-009
1.203300e-009
7.291664e-010
-1.160719e-010
-8.215796e-010
-9.955363e-010
-6.251569e-010
-3.245195e-011
4.029057e-010
5.037066e-010
3.466520e-010
1.215307e-010
-3.664769e-011
-1.057555e-010
-1.255667e-010
-1.303466e-010
-2.131391e-009
-1.046532e-009
3.356737e-010
1.247925e-009
1.250750e-009
4.593970e-010
-5.203655e-010
-9.813114e-010
-6.101484e-010
2.704797e-010
9.330621e-010
8.067779e-010
-6.573220e-011
-1.055069e-009
-1.440499e-009
-9.610116e-010
3.235902e-011
9.174031e-010
1.299525e-009
1.230021e-009
1.006779e-009
8.157335e-010
5.786852e-010
1.179188e-010
-5.816611e-010
-1.301705e-009
-1.769222e-009
-1.881148e-009
-1.748047e-009
-1.540865e-009
-1.322728e-009
-1.032080e-009
-6.014692e-010
-6.127077e-011
4.787176e-010
9.301061e-010
1.290682e-009
1.613877e-009
1.933413e-009
2.229361e-009
2.460789e-009
2.615701e-009
2.721672e-009
2.813659e-009
2.900862e-009
2.966914e-009
2.996517e-009
2.995888e-009
2.986571e-009
2.982680e-009
2.977468e-009
2.953188e-009
2.902923e-009
2.839856e-009
2.782021e-009
2.727811e-009
2.651014e-009
2.525275e-009
2.352761e-009
2.160948e-009
1.964934e-009
1.737709e-009
1.430788e-009
1.031273e-009
5.900655e-010
1.788314e-010
-1.827913e-010
-5.405474e-010
-9.292393e-010
-1.287548e-009
-1.474586e-009
-1.393042e-009
-1.091879e-009
-7.248193e-010
-3.972105e-010
-7.303919e-011
3.378555e-010
7.984805e-010
1.086742e-009
9.664379e-010
4.383899e-010
-1.950783e-010
-5.512830e-010
-4.802960e-010
-1.695649e-010
5.860260e-011
5.009463e-011
-7.530802e-011
-9.991384e-011
3.914479e-011
1.891988e-010
1.648835e-010
-3.389431e-011
-2.077548e-010
-1.643558e-010
7.247215e-011
2.729996e-010
2.267750e-010
-4.309774e-011
-2.936962e-010
3.666089e-009
1.532314e-009
-1.002812e-009
-2.448187e-009
-2.242118e-009
-8.515012e-010
7.498938e-010
1.763687e-009
1.920646e-009
1.379212e-009
4.282137e-010
-6.761313e-010
-1.662122e-009
-2.180583e-009
-1.927704e-009
-8.973815e-010
5.033456e-010
1.656991e-009
2.128652e-009
1.915212e-009
1.341630e-009
7.305046e-010
1.711305e-010
-4.204149e-010
-1.071269e-009
-1.629074e-009
-1.874847e-009
-1.730712e-009
-1.329731e-009
-8.816582e-010
-4.898465e-010
-1.079501e-010
3.445000e-010
8.562691e-010
1.324157e-009
1.659186e-009
1.869026e-009
2.031604e-009
2.203966e-009
2.371960e-009
2.485349e-009
2.525057e-009
2.524815e-009
2.531772e-009
2.558382e-009
2.578608e-009
2.565953e-009
2.526447e-009
2.491218e-009
2.480741e-009
2.482753e-009
2.468395e-009
2.427729e-009
2.383381e-009
2.364641e-009
2.369955e-009
2.362755e-009
2.310193e-009
2.221961e-009
2.139257e-009
2.079159e-009
1.998416e-009
1.827893e-009
1.547330e-009
1.212511e-009
8.925439e-010
5.836935e-010
2.085809e-010
-2.807118e-010
-8.069036e-010
-1.200742e-009
-1.344452e-009
-1.270081e-009
-1.095095e-009
-8.642213e-010
-4.893298e-010
1.199619e-010
8.670919e-010
1.445882e-009
1.547507e-009
1.110594e-009
3.694901e-010
-3.395399e-010
-8.099422e-010
-1.014733e-009
-9.775324e-010
-6.685017e-010
-7.741033e-011
6.253252e-010
1.074972e-009
9.482944e-010
2.672164e-010
-5.367256e-010
-9.145851e-010
-6.301413e-010
4.495000e-011
5.551282e-010
5.216180e-010
4.629366e-011
-3.996010e-010
6.663309e-009
2.869812e-009
-1.648420e-009
-4.205926e-009
-3.754999e-009
-1.181279e-009
1.574141e-009
2.887777e-009
2.367610e-009
7.903663e-010
-6.961281e-010
-1.389420e-009
-1.293780e-009
-8.099528e-010
-2.852490e-010
1.638224e-010
5.205488e-010
7.024944e-010
5.899286e-010
1.914255e-010
-2.857558e-010
-5.737546e-010
-5.535951e-010
-3.161260e-010
-2.510083e-011
2.514563e-010
5.608726e-010
9.423322e-010
1.326357e-009
1.578614e-009
1.629927e-009
1.537804e-009
1.414060e-009
1.309281e-009
1.183751e-009
9.839338e-010
7.241971e-010
4.803602e-010
3.120646e-010
2.086298e-010
1.154315e-010
1.693318e-012
-1.097628e-010
-1.777485e-010
-1.947029e-010
-1.949133e-010
-2.143053e-010
-2.517661e-010
-2.757140e-010
-2.653364e-010
-2.371040e-010
-2.258027e-010
-2.425348e-010
-2.595106e-010
-2.412418e-010
-1.867245e-010
-1.310048e-010
-1.001316e-010
-7.160692e-011
7.809963e-012
1.611546e-010
3.486279e-010
5.086327e-010
6.295604e-010
7.635665e-010
9.556162e-010
1.166603e-009
1.288641e-009
1.247384e-009
1.076760e-009
8.741621e-010
6.846875e-010
4.556568e-010
1.259659e-010
-2.505103e-010
-5.030627e-010
-4.866712e-010
-2.211311e-010
1.244552e-010
3.793217e-010
4.826807e-010
4.493879e-010
2.699159e-010
-9.096746e-011
-5.684424e-010
-9.125715e-010
-8.154389e-010
-1.948389e-010
6.371390e-010
1.137481e-009
9.405005e-010
1.683525e-010
-6.405426e-010
-9.406560e-010
-5.886177e-010
7.753908e-011
5.336119e-010
4.818954e-010
5.402539e-011
-3.333557e-010
4.341180e-009
1.835744e-009
-1.100701e-009
-2.644203e-009
-2.123008e-009
-2.730687e-010
1.395941e-009
1.703166e-009
5.956247e-010
-9.180369e-010
-1.611009e-009
-9.773039e-010
4.608392e-010
1.656405e-009
1.865293e-009
1.106058e-009
-3.945949e-011
-9.809654e-010
-1.493172e-009
-1.658002e-009
-1.578660e-009
-1.225679e-009
-5.398777e-010
3.940532e-010
1.335987e-009
2.052805e-009
2.466565e-009
2.639937e-009
2.649036e-009
2.503927e-009
2.189135e-009
1.743119e-009
1.264116e-009
8.374309e-010
4.777721e-010
1.528949e-010
-1.495296e-010
-3.966756e-010
-5.516438e-010
-6.226002e-010
-6.576422e-010
-6.942158e-010
-7.258519e-010
-7.233835e-010
-6.804870e-010
-6.272798e-010
-5.979040e-010
-5.936896e-010
-5.865212e-010
-5.570991e-010
-5.210199e-010
-5.110406e-010
-5.371383e-010
-5.733648e-010
-5.886133e-010
-5.842834e-010
-5.910837e-010
-6.258956e-010
-6.608877e-010
-6.460744e-010
-5.614747e-010
-4.344575e-010
-2.969516e-010
-1.335864e-010
1.103995e-010
4.632282e-010
8.801476e-010
1.276016e-009
1.599171e-009
1.853250e-009
2.037385e-009
2.084669e-009
1.891932e-009
1.422758e-009
7.658698e-010
7.617123e-011
-5.307742e-010
-1.001265e-009
-1.266712e-009
-1.200243e-009
-7.199488e-010
4.073107e-011
7.122609e-010
9.189039e-010
5.852474e-010
1.826066e-011
-3.439982e-010
-2.959043e-010
-1.339056e-012
2.082353e-010
1.549006e-010
-5.843474e-011
-2.028851e-010
-1.636021e-010
-1.873416e-011
8.380034e-011
8.288513e-011
2.975046e-011
-5.781412e-012
-1.157118e-011
-1.470066e-009
-6.863030e-010
2.694838e-010
9.161680e-010
1.089221e-009
8.492836e-010
2.790454e-010
-5.495145e-010
-1.409950e-009
-1.836413e-009
-1.368049e-009
4.768787e-012
1.635986e-009
2.567316e-009
2.214313e-009
8.149653e-010
-7.651680e-010
-1.697617e-009
-1.737073e-009
-1.216142e-009
-6.006545e-010
-8.992840e-011
3.957332e-010
9.436103e-010
1.453801e-009
1.721373e-009
1.656791e-009
1.377411e-009
1.085823e-009
8.937161e-010
7.785132e-010
6.817053e-010
6.061786e-010
6.062004e-010
7.094881e-010
8.797149e-010
1.057338e-009
1.216541e-009
1.369411e-009
1.525217e-009
1.665455e-009
1.764275e-009
1.820934e-009
1.859207e-009
1.896300e-009
1.923626e-009
1.923645e-009
1.898709e-009
1.873044e-009
1.865221e-009
1.867134e-009
1.856929e-009
1.828923e-009
1.801015e-009
1.788993e-009
1.780997e-009
1.746887e-009
1.672274e-009
1.573098e-009
1.470226e-009
1.357220e-009
1.207056e-009
1.013664e-009
8.143013e-010
6.588086e-010
5.622515e-010
5.050392e-010
4.838717e-010
5.414650e-010
7.196810e-010
9.823791e-010
1.210953e-009
1.297177e-009
1.229322e-009
1.059936e-009
7.912496e-010
3.407804e-010
-3.263775e-010
-1.030805e-009
-1.406223e-009
-1.168942e-009
-3.934810e-010
4.962982e-010
1.041043e-009
1.070967e-009
7.424057e-010
3.008248e-010
-1.348641e-010
-5.420669e-010
-8.201775e-010
-7.604213e-010
-2.632863e-010
4.352447e-010
8.482809e-010
6.397495e-010
-2.979346e-011
-5.947997e-010
-5.801336e-010
-4.241323e-011
4.805617e-010
-6.205739e-009
-2.580401e-009
1.581655e-009
3.730144e-009
3.136372e-009
9.051862e-010
-1.198695e-009
-2.059169e-009
-1.685072e-009
-7.504167e-010
1.345839e-010
7.380744e-010
1.025808e-009
9.214142e-010
3.683719e-010
-4.264798e-010
-9.666610e-010
-8.098693e-010
2.797704e-011
1.042249e-009
1.645474e-009
1.620397e-009
1.197548e-009
7.401742e-010
4.048768e-010
1.082673e-010
-2.420146e-010
-5.616577e-010
-6.528016e-010
-4.106660e-010
7.497099e-011
6.196199e-010
1.108737e-009
1.547013e-009
1.971956e-009
2.361065e-009
2.638290e-009
2.750322e-009
2.711096e-009
2.571462e-009
2.365155e-009
2.096078e-009
1.767532e-009
1.404740e-009
1.043172e-009
7.051935e-010
3.978760e-010
1.300772e-010
-7.909323e-011
-2.118834e-010
-2.643647e-010
-2.405966e-010
-1.382352e-010
5.054744e-011
3.213758e-010
6.486531e-010
1.000951e-009
1.360804e-009
1.718679e-009
2.046300e-009
2.289374e-009
2.399967e-009
2.372908e-009
2.235543e-009
1.998437e-009
1.635715e-009
1.136754e-009
5.739374e-010
8.924078e-011
-2.098454e-010
-3.314602e-010
-3.511436e-010
-2.836992e-010
-4.471163e-011
4.173511e-010
9.576974e-010
1.262282e-009
1.096167e-009
5.360030e-010
-7.128578e-011
-3.996043e-010
-3.869681e-010
-1.930306e-010
3.510070e-011
2.839117e-010
5.453456e-010
6.485985e-010
3.461815e-010
-3.639914e-010
-1.052416e-009
-1.121870e-009
-3.643738e-010
7.323017e-010
1.310863e-009
8.802837e-010
-2.102738e-010
-1.038889e-009
-9.158700e-010
4.714535e-014
8.478028e-010
-6.345369e-009
-2.342479e-009
2.043168e-009
3.874105e-009
2.530925e-009
-2.933048e-010
-2.201225e-009
-1.955207e-009
-1.736856e-010
1.490471e-009
1.798804e-009
7.560420e-010
-6.994399e-010
-1.621396e-009
-1.686985e-009
-1.120644e-009
-2.479319e-010
7.521891e-010
1.732808e-009
2.414959e-009
2.490446e-009
1.909140e-009
9.955070e-010
2.201684e-010
-1.517067e-010
-1.814453e-010
-6.501144e-011
1.166939e-010
4.309383e-010
9.191472e-010
1.456661e-009
1.813736e-009
1.832850e-009
1.517085e-009
9.524011e-010
1.801661e-010
-8.327769e-010
-2.117079e-009
-3.628450e-009
-5.263026e-009
-6.928158e-009
-8.581811e-009
-1.020859e-008
-1.177741e-008
-1.323297e-008
-1.451999e-008
-1.560343e-008
-1.646473e-008
-1.708785e-008
-1.745376e-008
-1.754296e-008
-1.733743e-008
-1.682395e-008
-1.600398e-008
-1.490218e-008
-1.355831e-008
-1.200775e-008
-1.027813e-008
-8.415190e-009
-6.507717e-009
-4.669848e-009
-2.988138e-009
-1.495117e-009
-2.095194e-010
8.037010e-010
1.442768e-009
1.661328e-009
1.541856e-009
1.247843e-009
8.928592e-010
4.820126e-010
1.005598e-011
-3.987649e-010
-5.059073e-010
-1.601562e-010
5.191869e-010
1.195375e-009
1.567922e-009
1.562962e-009
1.276868e-009
7.913801e-010
1.269716e-010
-6.026629e-010
-1.080146e-009
-9.657065e-010
-2.623508e-010
5.441457e-010
8.224133e-010
3.586357e-010
-4.077528e-010
-7.575137e-010
-3.542672e-010
4.343479e-010
8.737867e-010
5.439534e-010
-2.734709e-010
-8.541079e-010
-6.865639e-010
7.411772e-011
7.521153e-010
-2.083234e-009
-3.329104e-010
1.345114e-009
1.524992e-009
1.401304e-010
-1.544236e-009
-1.993314e-009
-6.826561e-010
1.443614e-009
2.730713e-009
2.159686e-009
1.447739e-010
-1.866844e-009
-2.582439e-009
-1.780990e-009
-2.493188e-010
1.028832e-009
1.597893e-009
1.601401e-009
1.364288e-009
1.051549e-009
7.037386e-010
4.422989e-010
4.909593e-010
9.668445e-010
1.714600e-009
2.399737e-009
2.755437e-009
2.706811e-009
2.266807e-009
1.370828e-009
-1.393634e-010
-2.379200e-009
-5.311252e-009
-8.787842e-009
-1.267990e-008
-1.693782e-008
-2.153310e-008
-2.637379e-008
-3.129958e-008
-3.615217e-008
-4.083202e-008
-4.528507e-008
-4.945093e-008
-5.323768e-008
-5.654288e-008
-5.928704e-008
-6.142292e-008
-6.291934e-008
-6.374148e-008
-6.384437e-008
-6.318249e-008
-6.172970e-008
-5.949741e-008
-5.653448e-008
-5.290556e-008
-4.867129e-008
-4.390107e-008
-3.871241e-008
-3.328790e-008
-2.783350e-008
-2.251179e-008
-1.742692e-008
-1.268374e-008
-8.444828e-009
-4.894357e-009
-2.128131e-009
-9.651913e-011
1.317726e-009
2.169504e-009
2.433659e-009
2.138273e-009
1.491389e-009
8.272770e-010
4.052383e-010
2.770337e-010
3.586591e-010
5.862670e-010
9.336697e-010
1.271206e-009
1.302785e-009
7.720844e-010
-2.136830e-010
-1.122488e-009
-1.365695e-009
-7.978577e-010
1.407123e-010
7.958044e-010
8.304062e-010
4.201831e-010
-1.336127e-011
-2.040808e-010
-1.861507e-010
-1.276076e-010
-1.126552e-010
-1.036564e-010
-5.160015e-011
2.648163e-011
8.330651e-011
1.044510e-010
3.217111e-009
1.664886e-009
-2.425866e-010
-1.540677e-009
-1.874178e-009
-1.394521e-009
-4.217128e-010
7.047471e-010
1.551395e-009
1.635067e-009
7.737622e-010
-5.717065e-010
-1.462575e-009
-1.186703e-009
9.958617e-011
1.447466e-009
1.896564e-009
1.246964e-009
1.282412e-010
-6.171010e-010
-5.859425e-010
6.414954e-011
9.701998e-010
1.902717e-009
2.758822e-009
3.349956e-009
3.324403e-009
2.326918e-009
1.832463e-010
-3.108140e-009
-7.535066e-009
-1.316749e-008
-2.008540e-008
-2.825152e-008
-3.749123e-008
-4.759001e-008
-5.837907e-008
-6.971588e-008
-8.140791e-008
-9.318813e-008
-1.047725e-007
-1.159290e-007
-1.264844e-007
-1.362778e-007
-1.451244e-007
-1.528279e-007
-1.592188e-007
-1.641749e-007
-1.676064e-007
-1.694272e-007
-1.695423e-007
-1.678642e-007
-1.643477e-007
-1.590151e-007
-1.519514e-007
-1.432762e-007
-1.331308e-007
-1.217057e-007
-1.092850e-007
-9.624741e-008
-8.299982e-008
-6.990051e-008
-5.724892e-008
-4.534151e-008
-3.450163e-008
-2.501276e-008
-1.701045e-008
-1.046194e-008
-5.272823e-009
-1.401905e-009
1.155612e-009
2.494291e-009
2.865610e-009
2.587243e-009
1.906128e-009
9.983251e-010
1.013600e-010
-4.398833e-010
-3.662871e-010
2.234283e-010
8.563952e-010
1.031562e-009
6.281746e-010
-2.610475e-011
-4.814780e-010
-5.328156e-010
-2.777453e-010
9.428685e-011
4.600372e-010
7.044527e-010
6.394583e-010
1.440050e-010
-5.767074e-010
-9.951573e-010
-6.888309e-010
1.802133e-010
8.948464e-010
8.106198e-010
-5.696146e-013
-7.740396e-010
5.972422e-009
2.098494e-009
-1.973417e-009
-3.452210e-009
-2.059052e-009
3.652281e-010
1.749251e-009
1.396086e-009
8.787086e-011
-9.837912e-010
-1.217294e-009
-7.278705e-010
1.294061e-010
1.093056e-009
1.905297e-009
2.180037e-009
1.624065e-009
4.374995e-010
-6.406732e-010
-8.374265e-010
3.714613e-011
1.456849e-009
2.620902e-009
2.982296e-009
2.365179e-009
6.792876e-010
-2.355215e-009
-7.173407e-009
-1.413399e-008
-2.339642e-008
-3.501518e-008
-4.907728e-008
-6.568918e-008
-8.483679e-008
-1.062952e-007
-1.296825e-007
-1.545734e-007
-1.805424e-007
-2.071225e-007
-2.337725e-007
-2.599196e-007
-2.850396e-007
-3.086928e-007
-3.304943e-007
-3.500698e-007
-3.670513e-007
-3.811097e-007
-3.919804e-007
-3.994515e-007
-4.033312e-007
-4.034314e-007
-3.995912e-007
-3.917250e-007
-3.798561e-007
-3.641145e-007
-3.447145e-007
-3.219581e-007
-2.962804e-007
-2.682933e-007
-2.387656e-007
-2.085335e-007
-1.784135e-007
-1.491830e-007
-1.216002e-007
-9.637232e-008
-7.403979e-008
-5.487023e-008
-3.887424e-008
-2.592820e-008
-1.586402e-008
-8.439390e-009
-3.277744e-009
7.313765e-011
1.976563e-009
2.633835e-009
2.234756e-009
1.183439e-009
1.033378e-010
-4.591812e-010
-3.565317e-010
1.488167e-010
6.815945e-010
1.024249e-009
1.110330e-009
8.782709e-010
2.943280e-010
-4.389739e-010
-8.409453e-010
-5.233867e-010
3.230750e-010
9.319252e-010
6.329802e-010
-4.095604e-010
-1.223843e-009
-9.354377e-010
3.048917e-010
1.365284e-009
1.199972e-009
-9.339204e-011
-1.316696e-009
4.987347e-009
9.328487e-010
-2.896133e-009
-3.395064e-009
-7.198502e-010
2.355633e-009
3.117222e-009
1.162380e-009
-1.611830e-009
-2.935147e-009
-2.050771e-009
2.395186e-011
1.724432e-009
2.247753e-009
1.828547e-009
1.115111e-009
5.525249e-010
3.222932e-010
5.698609e-010
1.396522e-009
2.570178e-009
3.385372e-009
2.951807e-009
6.461536e-010
-3.760475e-009
-1.041686e-008
-1.977279e-008
-3.261797e-008
-4.978508e-008
-7.186301e-008
-9.916706e-008
-1.318672e-007
-1.700248e-007
-2.134657e-007
-2.616518e-007
-3.137125e-007
-3.686054e-007
-4.252497e-007
-4.825515e-007
-5.393839e-007
-5.946209e-007
-6.472254e-007
-6.963130e-007
-7.411382e-007
-7.810381e-007
-8.154008e-007
-8.436781e-007
-8.654066e-007
-8.801963e-007
-8.876951e-007
-8.875701e-007
-8.795373e-007
-8.634228e-007
-8.392096e-007
-8.070485e-007
-7.672566e-007
-7.203522e-007
-6.671261e-007
-6.086912e-007
-5.464502e-007
-4.819948e-007
-4.170116e-007
-3.532365e-007
-2.924029e-007
-2.361045e-007
-1.855955e-007
-1.416541e-007
-1.045992e-007
-7.438996e-008
-5.067027e-008
-3.274170e-008
-1.961389e-008
-1.024069e-008
-3.811908e-009
1.647521e-010
2.071195e-009
2.435072e-009
1.937296e-009
1.178038e-009
5.012520e-010
7.506303e-011
5.366016e-011
5.171719e-010
1.221128e-009
1.564438e-009
1.037434e-009
-1.947685e-010
-1.254511e-009
-1.277927e-009
-2.693975e-010
8.223701e-010
9.836934e-010
1.315641e-010
-8.021295e-010
-8.189612e-010
1.198172e-010
1.045902e-009
9.730599e-010
-8.653067e-011
-1.118155e-009
1.685076e-009
-5.634227e-010
-2.324919e-009
-1.734389e-009
7.267260e-010
2.807820e-009
2.602046e-009
2.706142e-010
-2.159636e-009
-2.665893e-009
-9.884800e-010
1.305090e-009
2.366058e-009
1.663190e-009
2.074549e-010
-5.669562e-010
-2.198846e-011
1.429096e-009
2.940931e-009
3.852819e-009
3.722565e-009
2.004251e-009
-2.089274e-009
-9.411178e-009
-2.074129e-008
-3.695433e-008
-5.930557e-008
-8.943435e-008
-1.289853e-007
-1.791577e-007
-2.405202e-007
-3.130930e-007
-3.964402e-007
-4.896176e-007
-5.910860e-007
-6.987854e-007
-8.103846e-007
-9.235397e-007
-1.036020e-006
-1.145726e-006
-1.250715e-006
-1.349283e-006
-1.440027e-006
-1.521825e-006
-1.593754e-006
-1.655011e-006
-1.704891e-006
-1.742786e-006
-1.768169e-006
-1.780545e-006
-1.779432e-006
-1.764385e-006
-1.735072e-006
-1.691331e-006
-1.633206e-006
-1.560982e-006
-1.475266e-006
-1.377110e-006
-1.268098e-006
-1.150341e-006
-1.026410e-006
-8.992743e-007
-7.722258e-007
-6.487329e-007
-5.321501e-007
-4.253685e-007
-3.305657e-007
-2.491251e-007
-1.816271e-007
-1.278035e-007
-8.651272e-008
-5.592127e-008
-3.393236e-008
-1.863635e-008
-8.495377e-009
-2.245439e-009
1.218573e-009
2.778355e-009
2.988164e-009
2.204018e-009
9.129564e-010
-1.402633e-010
-3.132198e-010
3.820929e-010
1.188139e-009
1.232865e-009
3.489771e-010
-7.468570e-010
-1.133812e-009
-5.565473e-010
3.791792e-010
8.390300e-010
5.405564e-010
-8.159855e-011
-4.015022e-010
-2.161997e-010
1.490172e-010
2.594555e-010
2.530091e-011
-2.556255e-010
-1.667408e-009
-1.155443e-009
-3.372057e-010
5.531029e-010
1.178818e-009
1.164032e-009
3.901099e-010
-6.933901e-010
-1.202824e-009
-5.256885e-010
9.827373e-010
2.120052e-009
1.865559e-009
4.000419e-010
-9.396628e-010
-8.152318e-010
9.284948e-010
3.135770e-009
4.250052e-009
3.245330e-009
-2.981118e-010
-6.863086e-009
-1.762123e-008
-3.449629e-008
-5.985952e-008
-9.632038e-008
-1.467091e-007
-2.139439e-007
-3.005668e-007
-4.081445e-007
-5.369151e-007
-6.858116e-007
-8.526605e-007
-1.034336e-006
-1.226888e-006
-1.425798e-006
-1.626417e-006
-1.824396e-006
-2.015939e-006
-2.197858e-006
-2.367554e-006
-2.523018e-006
-2.662822e-006
-2.786023e-006
-2.892012e-006
-2.980356e-006
-3.050726e-006
-3.102852e-006
-3.136481e-006
-3.151312e-006
-3.146947e-006
-3.122899e-006
-3.078641e-006
-3.013662e-006
-2.927503e-006
-2.819830e-006
-2.690576e-006
-2.540155e-006
-2.369658e-006
-2.181016e-006
-1.977114e-006
-1.761896e-006
-1.540391e-006
-1.318508e-006
-1.102584e-006
-8.987724e-007
-7.124868e-007
-5.479758e-007
-4.079760e-007
-2.934273e-007
-2.034028e-007
-1.354245e-007
-8.610586e-008
-5.179877e-008
-2.897665e-008
-1.441254e-008
-5.400370e-009
-5.302351e-011
2.624549e-009
3.133585e-009
2.109650e-009
5.911480e-010
-3.643451e-010
-3.205258e-010
3.343655e-010
8.552149e-010
8.103057e-010
3.321531e-010
-1.625403e-010
-3.714101e-010
-2.453997e-010
9.731674e-011
4.499812e-010
5.534215e-010
2.372825e-010
-3.579438e-010
-7.697414e-010
-5.829395e-010
1.218523e-010
7.572787e-010
-3.725588e-009
-7.025069e-010
2.103915e-009
2.464853e-009
6.276528e-010
-1.443109e-009
-2.059265e-009
-1.052419e-009
5.778372e-010
1.780552e-009
2.111697e-009
1.649692e-009
7.375971e-010
-5.910910e-011
-4.763873e-011
1.117825e-009
2.880089e-009
3.792383e-009
2.217068e-009
-3.005282e-009
-1.270453e-008
-2.830051e-008
-5.265288e-008
-9.012033e-008
-1.459116e-007
-2.253378e-007
-3.333276e-007
-4.740180e-007
-6.501102e-007
-8.620747e-007
-1.107636e-006
-1.381842e-006
-1.677628e-006
-1.986550e-006
-2.299528e-006
-2.607620e-006
-2.902800e-006
-3.178598e-006
-3.430412e-006
-3.655440e-006
-3.852429e-006
-4.021369e-006
-4.163203e-006
-4.279516e-006
-4.372218e-006
-4.443282e-006
-4.494593e-006
-4.527862e-006
-4.544560e-006
-4.545811e-006
-4.532284e-006
-4.504108e-006
-4.460810e-006
-4.401244e-006
-4.323531e-006
-4.225073e-006
-4.102715e-006
-3.953066e-006
-3.772966e-006
-3.560084e-006
-3.313623e-006
-3.035081e-006
-2.728837e-006
-2.402299e-006
-2.065490e-006
-1.730129e-006
-1.408407e-006
-1.111635e-006
-8.488859e-007
-6.259053e-007
-4.446405e-007
-3.035703e-007
-1.986206e-007
-1.241847e-007
-7.393674e-008
-4.151380e-008
-2.125426e-008
-8.879931e-009
-1.718119e-009
1.736790e-009
2.573303e-009
1.916624e-009
8.434477e-010
7.621920e-011
-1.192720e-010
2.015411e-010
7.785907e-010
1.177304e-009
9.658190e-010
1.169421e-010
-7.710349e-010
-8.941599e-010
-7.513646e-011
8.901914e-010
9.390341e-010
-1.066462e-010
-1.222137e-009
-1.188546e-009
7.703469e-011
1.349872e-009
-4.358536e-009
9.232321e-012
3.657704e-009
3.280927e-009
-2.113001e-010
-3.210997e-009
-3.102178e-009
-4.290647e-010
2.188137e-009
2.775739e-009
1.540394e-009
1.235612e-010
-1.333819e-010
9.003148e-010
2.489818e-009
3.717245e-009
3.657544e-009
1.141523e-009
-5.388152e-009
-1.789858e-008
-3.910020e-008