# vtk DataFile Version 3.0
vtk output
ASCII
DATASET STRUCTURED_POINTS
DIMENSIONS 100 100 1
SPACING 1 1 1
ORIGIN 0 0 0
POINT_DATA 10000
SCALARS SFBox_profile double
LOOKUP_TABLE default 
9.439919e-003
9.439920e-003
9.439920e-003
9.439921e-003
9.439921e-003
9.439920e-003
9.439919e-003
9.439919e-003
9.439920e-003
9.439920e-003
9.439920e-003
9.439920e-003
9.439920e-003
9.439920e-003
9.439920e-003
9.439920e-003
9.439920e-003
9.439920e-003
9.439919e-003
9.439920e-003
9.439920e-003
9.439920e-003
9.439920e-003
9.439920e-003
9.439920e-003
9.439920e-003
9.439921e-003
9.439920e-003
9.439920e-003
9.439920e-003
9.439920e-003
9.439920e-003
9.439920e-003
9.439920e-003
9.439920e-003
9.439920e-003
9.439921e-003
9.439921e-003
9.439921e-003
9.439921e-003
9.439921e-003
9.439921e-003
9.439922e-003
9.439922e-003
9.439922e-003
9.439922e-003
9.439922e-003
9.439922e-003
9.439923e-003
9.439923e-003
9.439923e-003
9.439923e-003
9.439923e-003
9.439923e-003
9.439923e-003
9.439922e-003
9.439922e-003
9.439922e-003
9.439922e-003
9.439922e-003
9.439922e-003
9.439921e-003
9.439921e-003
9.439921e-003
9.439921e-003
9.439921e-003
9.439920e-003
9.439920e-003
9.439920e-003
9.439920e-003
9.439920e-003
9.439920e-003
9.439920e-003
9.439920e-003
9.439920e-003
9.439920e-003
9.439920e-003
9.439920e-003
9.439920e-003
9.439920e-003
9.439920e-003
9.439920e-003
9.439920e-003
9.439920e-003
9.439920e-003
9.439920e-003
9.439920e-003
9.439920e-003
9.439920e-003
9.439920e-003
9.439920e-003
9.439920e-003
9.439920e-003
9.439920e-003
9.439920e-003
9.439920e-003
9.439920e-003
9.439920e-003
9.439920e-003
9.439920e-003
9.439919e-003
9.439920e-003
9.439920e-003
9.439921e-003
9.439921e-003
9.439920e-003
9.439919e-003
9.439919e-003
9.439920e-003
9.439920e-003
9.439920e-003
9.439920e-003
9.439920e-003
9.439920e-003
9.439920e-003
9.439920e-003
9.439920e-003
9.439920e-003
9.439919e-003
9.439920e-003
9.439920e-003
9.439920e-003
9.439920e-003
9.439920e-003
9.439920e-003
9.439920e-003
9.439921e-003
9.439920e-003
9.439920e-003
9.439920e-003
9.439920e-003
9.439920e-003
9.439920e-003
9.439920e-003
9.439920e-003
9.439920e-003
9.439921e-003
9.439921e-003
9.439921e-003
9.439921e-003
9.439921e-003
9.439921e-003
9.439922e-003
9.439922e-003
9.439922e-003
9.439922e-003
9.439922e-003
9.439922e-003
9.439923e-003
9.439923e-003
9.439923e-003
9.439923e-003
9.439923e-003
9.439923e-003
9.439923e-003
9.439922e-003
9.439922e-003
9.439922e-003
9.439922e-003
9.439922e-003
9.439922e-003
9.439921e-003
9.439921e-003
9.439921e-003
9.439921e-003
9.439921e-003
9.439920e-003
9.439920e-003
9.439920e-003
9.439920e-003
9.439920e-003
9.439920e-003
9.439920e-003
9.439920e-003
9.439920e-003
9.439920e-003
9.439920e-003
9.439920e-003
9.439920e-003
9.439920e-003
9.439920e-003
9.439920e-003
9.439920e-003
9.439920e-003
9.439920e-003
9.439920e-003
9.439920e-003
9.439920e-003
9.439920e-003
9.439920e-003
9.439920e-003
9.439920e-003
9.439920e-003
9.439920e-003
9.439920e-003
9.439920e-003
9.439920e-003
9.439920e-003
9.439920e-003
9.439920e-003
9.439920e-003
9.439920e-003
9.439920e-003
9.439920e-003
9.439920e-003
9.439920e-003
9.439920e-003
9.439920e-003
9.439920e-003
9.439920e-003
9.439920e-003
9.439920e-003
9.439920e-003
9.439920e-003
9.439920e-003
9.439920e-003
9.439920e-003
9.439920e-003
9.439920e-003
9.439920e-003
9.439920e-003
9.439920e-003
9.439920e-003
9.439920e-003
9.439920e-003
9.439920e-003
9.439920e-003
9.439920e-003
9.439920e-003
9.439920e-003
9.439921e-003
9.439921e-003
9.439921e-003
9.439921e-003
9.439922e-003
9.439922e-003
9.439922e-003
9.439922e-003
9.439922e-003
9.439923e-003
9.439923e-003
9.439923e-003
9.439923e-003
9.439924e-003
9.439924e-003
9.439924e-003
9.439924e-003
9.439924e-003
9.439924e-003
9.439924e-003
9.439924e-003
9.439924e-003
9.439924e-003
9.439924e-003
9.439924e-003
9.439924e-003
9.439924e-003
9.439924e-003
9.439923e-003
9.439923e-003
9.439923e-003
9.439923e-003
9.439923e-003
9.439922e-003
9.439922e-003
9.439922e-003
9.439922e-003
9.439921e-003
9.439921e-003
9.439921e-003
9.439921e-003
9.439920e-003
9.439920e-003
9.439920e-003
9.439920e-003
9.439920e-003
9.439920e-003
9.439920e-003
9.439920e-003
9.439920e-003
9.439920e-003
9.439920e-003
9.439920e-003
9.439920e-003
9.439920e-003
9.439920e-003
9.439920e-003
9.439920e-003
9.439920e-003
9.439920e-003
9.439920e-003
9.439920e-003
9.439920e-003
9.439920e-003
9.439920e-003
9.439920e-003
9.439920e-003
9.439920e-003
9.439920e-003
9.439920e-003
9.439921e-003
9.439920e-003
9.439920e-003
9.439919e-003
9.439919e-003
9.439920e-003
9.439920e-003
9.439921e-003
9.439920e-003
9.439920e-003
9.439920e-003
9.439920e-003
9.439920e-003
9.439920e-003
9.439920e-003
9.439920e-003
9.439920e-003
9.439921e-003
9.439921e-003
9.439920e-003
9.439920e-003
9.439920e-003
9.439920e-003
9.439920e-003
9.439920e-003
9.439920e-003
9.439920e-003
9.439920e-003
9.439921e-003
9.439921e-003
9.439921e-003
9.439922e-003
9.439922e-003
9.439923e-003
9.439923e-003
9.439924e-003
9.439924e-003
9.439924e-003
9.439925e-003
9.439925e-003
9.439925e-003
9.439926e-003
9.439926e-003
9.439926e-003
9.439927e-003
9.439927e-003
9.439927e-003
9.439927e-003
9.439927e-003
9.439928e-003
9.439928e-003
9.439928e-003
9.439928e-003
9.439927e-003
9.439927e-003
9.439927e-003
9.439927e-003
9.439927e-003
9.439926e-003
9.439926e-003
9.439926e-003
9.439925e-003
9.439925e-003
9.439924e-003
9.439924e-003
9.439923e-003
9.439923e-003
9.439923e-003
9.439922e-003
9.439922e-003
9.439921e-003
9.439921e-003
9.439921e-003
9.439920e-003
9.439920e-003
9.439920e-003
9.439920e-003
9.439920e-003
9.439920e-003
9.439920e-003
9.439920e-003
9.439920e-003
9.439920e-003
9.439920e-003
9.439920e-003
9.439920e-003
9.439920e-003
9.439920e-003
9.439920e-003
9.439920e-003
9.439920e-003
9.439920e-003
9.439920e-003
9.439920e-003
9.439920e-003
9.439920e-003
9.439920e-003
9.439920e-003
9.439920e-003
9.439920e-003
9.439921e-003
9.439920e-003
9.439919e-003
9.439919e-003
9.439919e-003
9.439920e-003
9.439921e-003
9.439921e-003
9.439920e-003
9.439920e-003
9.439920e-003
9.439920e-003
9.439920e-003
9.439920e-003
9.439920e-003
9.439920e-003
9.439920e-003
9.439920e-003
9.439920e-003
9.439920e-003
9.439920e-003
9.439920e-003
9.439920e-003
9.439920e-003
9.439921e-003
9.439921e-003
9.439921e-003
9.439921e-003
9.439922e-003
9.439922e-003
9.439923e-003
9.439923e-003
9.439924e-003
9.439924e-003
9.439925e-003
9.439926e-003
9.439926e-003
9.439927e-003
9.439928e-003
9.439928e-003
9.439929e-003
9.439930e-003
9.439930e-003
9.439931e-003
9.439932e-003
9.439932e-003
9.439932e-003
9.439933e-003
9.439933e-003
9.439933e-003
9.439933e-003
9.439933e-003
9.439933e-003
9.439933e-003
9.439933e-003
9.439932e-003
9.439932e-003
9.439931e-003
9.439931e-003
9.439930e-003
9.439930e-003
9.439929e-003
9.439928e-003
9.439927e-003
9.439926e-003
9.439926e-003
9.439925e-003
9.439924e-003
9.439924e-003
9.439923e-003
9.439922e-003
9.439922e-003
9.439922e-003
9.439921e-003
9.439921e-003
9.439921e-003
9.439920e-003
9.439920e-003
9.439920e-003
9.439920e-003
9.439920e-003
9.439920e-003
9.439920e-003
9.439920e-003
9.439920e-003
9.439920e-003
9.439920e-003
9.439920e-003
9.439920e-003
9.439920e-003
9.439920e-003
9.439920e-003
9.439920e-003
9.439920e-003
9.439920e-003
9.439920e-003
9.439920e-003
9.439920e-003
9.439920e-003
9.439920e-003
9.439920e-003
9.439920e-003
9.439920e-003
9.439920e-003
9.439920e-003
9.439920e-003
9.439920e-003
9.439920e-003
9.439920e-003
9.439920e-003
9.439920e-003
9.439920e-003
9.439921e-003
9.439920e-003
9.439920e-003
9.439920e-003
9.439920e-003
9.439920e-003
9.439920e-003
9.439920e-003
9.439920e-003
9.439920e-003
9.439921e-003
9.439921e-003
9.439922e-003
9.439922e-003
9.439923e-003
9.439923e-003
9.439924e-003
9.439924e-003
9.439925e-003
9.439926e-003
9.439927e-003
9.439928e-003
9.439929e-003
9.439930e-003
9.439931e-003
9.439932e-003
9.439933e-003
9.439934e-003
9.439935e-003
9.439936e-003
9.439937e-003
9.439938e-003
9.439939e-003
9.439939e-003
9.439940e-003
9.439940e-003
9.439941e-003
9.439941e-003
9.439941e-003
9.439941e-003
9.439941e-003
9.439940e-003
9.439940e-003
9.439940e-003
9.439939e-003
9.439938e-003
9.439938e-003
9.439937e-003
9.439936e-003
9.439935e-003
9.439934e-003
9.439932e-003
9.439931e-003
9.439930e-003
9.439929e-003
9.439928e-003
9.439926e-003
9.439925e-003
9.439925e-003
9.439924e-003
9.439923e-003
9.439922e-003
9.439922e-003
9.439922e-003
9.439921e-003
9.439921e-003
9.439921e-003
9.439920e-003
9.439920e-003
9.439920e-003
9.439920e-003
9.439920e-003
9.439920e-003
9.439920e-003
9.439920e-003
9.439920e-003
9.439920e-003
9.439920e-003
9.439920e-003
9.439920e-003
9.439920e-003
9.439920e-003
9.439920e-003
9.439920e-003
9.439920e-003
9.439920e-003
9.439920e-003
9.439920e-003
9.439919e-003
9.439920e-003
9.439920e-003
9.439921e-003
9.439921e-003
9.439920e-003
9.439920e-003
9.439920e-003
9.439920e-003
9.439920e-003
9.439920e-003
9.439920e-003
9.439921e-003
9.439920e-003
9.439920e-003
9.439920e-003
9.439920e-003
9.439920e-003
9.439920e-003
9.439920e-003
9.439921e-003
9.439921e-003
9.439922e-003
9.439922e-003
9.439923e-003
9.439924e-003
9.439924e-003
9.439925e-003
9.439927e-003
9.439928e-003
9.439929e-003
9.439931e-003
9.439933e-003
9.439934e-003
9.439936e-003
9.439938e-003
9.439939e-003
9.439940e-003
9.439942e-003
9.439943e-003
9.439944e-003
9.439945e-003
9.439945e-003
9.439946e-003
9.439946e-003
9.439947e-003
9.439947e-003
9.439947e-003
9.439947e-003
9.439947e-003
9.439947e-003
9.439946e-003
9.439946e-003
9.439946e-003
9.439946e-003
9.439945e-003
9.439945e-003
9.439945e-003
9.439944e-003
9.439943e-003
9.439943e-003
9.439942e-003
9.439941e-003
9.439940e-003
9.439938e-003
9.439937e-003
9.439935e-003
9.439933e-003
9.439932e-003
9.439930e-003
9.439929e-003
9.439927e-003
9.439926e-003
9.439924e-003
9.439924e-003
9.439923e-003
9.439922e-003
9.439922e-003
9.439921e-003
9.439921e-003
9.439920e-003
9.439920e-003
9.439920e-003
9.439920e-003
9.439920e-003
9.439920e-003
9.439920e-003
9.439920e-003
9.439920e-003
9.439920e-003
9.439920e-003
9.439920e-003
9.439920e-003
9.439920e-003
9.439920e-003
9.439920e-003
9.439920e-003
9.439920e-003
9.439920e-003
9.439920e-003
9.439919e-003
9.439920e-003
9.439921e-003
9.439921e-003
9.439920e-003
9.439920e-003
9.439920e-003
9.439920e-003
9.439920e-003
9.439920e-003
9.439920e-003
9.439920e-003
9.439920e-003
9.439920e-003
9.439920e-003
9.439920e-003
9.439920e-003
9.439921e-003
9.439921e-003
9.439921e-003
9.439922e-003
9.439922e-003
9.439923e-003
9.439924e-003
9.439925e-003
9.439926e-003
9.439928e-003
9.439930e-003
9.439932e-003
9.439934e-003
9.439936e-003
9.439938e-003
9.439941e-003
9.439943e-003
9.439944e-003
9.439946e-003
9.439947e-003
9.439947e-003
9.439947e-003
9.439947e-003
9.439947e-003
9.439946e-003
9.439945e-003
9.439944e-003
9.439942e-003
9.439941e-003
9.439939e-003
9.439938e-003
9.439936e-003
9.439935e-003
9.439934e-003
9.439934e-003
9.439934e-003
9.439934e-003
9.439934e-003
9.439935e-003
9.439936e-003
9.439937e-003
9.439939e-003
9.439940e-003
9.439941e-003
9.439942e-003
9.439943e-003
9.439943e-003
9.439943e-003
9.439943e-003
9.439942e-003
9.439940e-003
9.439939e-003
9.439937e-003
9.439934e-003
9.439932e-003
9.439930e-003
9.439928e-003
9.439926e-003
9.439925e-003
9.439923e-003
9.439923e-003
9.439922e-003
9.439921e-003
9.439921e-003
9.439921e-003
9.439920e-003
9.439920e-003
9.439920e-003
9.439920e-003
9.439920e-003
9.439920e-003
9.439920e-003
9.439920e-003
9.439920e-003
9.439920e-003
9.439920e-003
9.439920e-003
9.439920e-003
9.439920e-003
9.439920e-003
9.439920e-003
9.439920e-003
9.439920e-003
9.439920e-003
9.439920e-003
9.439920e-003
9.439920e-003
9.439920e-003
9.439919e-003
9.439920e-003
9.439920e-003
9.439921e-003
9.439921e-003
9.439920e-003
9.439920e-003
9.439919e-003
9.439920e-003
9.439920e-003
9.439920e-003
9.439921e-003
9.439921e-003
9.439922e-003
9.439922e-003
9.439923e-003
9.439924e-003
9.439925e-003
9.439927e-003
9.439929e-003
9.439931e-003
9.439934e-003
9.439936e-003
9.439939e-003
9.439942e-003
9.439944e-003
9.439946e-003
9.439947e-003
9.439947e-003
9.439946e-003
9.439945e-003
9.439942e-003
9.439938e-003
9.439933e-003
9.439928e-003
9.439922e-003
9.439915e-003
9.439907e-003
9.439900e-003
9.439892e-003
9.439885e-003
9.439878e-003
9.439872e-003
9.439867e-003
9.439863e-003
9.439860e-003
9.439858e-003
9.439858e-003
9.439860e-003
9.439863e-003
9.439867e-003
9.439873e-003
9.439880e-003
9.439888e-003
9.439896e-003
9.439905e-003
9.439913e-003
9.439920e-003
9.439927e-003
9.439933e-003
9.439937e-003
9.439940e-003
9.439942e-003
9.439943e-003
9.439942e-003
9.439941e-003
9.439939e-003
9.439936e-003
9.439934e-003
9.439931e-003
9.439929e-003
9.439926e-003
9.439925e-003
9.439923e-003
9.439923e-003
9.439922e-003
9.439921e-003
9.439921e-003
9.439921e-003
9.439920e-003
9.439920e-003
9.439920e-003
9.439920e-003
9.439920e-003
9.439920e-003
9.439920e-003
9.439920e-003
9.439920e-003
9.439920e-003
9.439920e-003
9.439920e-003
9.439920e-003
9.439920e-003
9.439920e-003
9.439920e-003
9.439921e-003
9.439920e-003
9.439920e-003
9.439920e-003
9.439920e-003
9.439920e-003
9.439920e-003
9.439920e-003
9.439921e-003
9.439920e-003
9.439920e-003
9.439920e-003
9.439920e-003
9.439920e-003
9.439921e-003
9.439921e-003
9.439921e-003
9.439922e-003
9.439923e-003
9.439924e-003
9.439925e-003
9.439927e-003
9.439930e-003
9.439932e-003
9.439936e-003
9.439939e-003
9.439942e-003
9.439945e-003
9.439946e-003
9.439947e-003
9.439947e-003
9.439944e-003
9.439939e-003
9.439932e-003
9.439922e-003
9.439909e-003
9.439893e-003
9.439875e-003
9.439855e-003
9.439832e-003
9.439808e-003
9.439783e-003
9.439758e-003
9.439733e-003
9.439708e-003
9.439685e-003
9.439664e-003
9.439645e-003
9.439629e-003
9.439617e-003
9.439609e-003
9.439605e-003
9.439606e-003
9.439611e-003
9.439622e-003
9.439637e-003
9.439656e-003
9.439679e-003
9.439705e-003
9.439733e-003
9.439762e-003
9.439791e-003
9.439819e-003
9.439846e-003
9.439870e-003
9.439891e-003
9.439908e-003
9.439921e-003
9.439931e-003
9.439938e-003
9.439941e-003
9.439942e-003
9.439942e-003
9.439940e-003
9.439937e-003
9.439935e-003
9.439932e-003
9.439929e-003
9.439927e-003
9.439925e-003
9.439923e-003
9.439922e-003
9.439921e-003
9.439921e-003
9.439921e-003
9.439920e-003
9.439920e-003
9.439920e-003
9.439920e-003
9.439920e-003
9.439920e-003
9.439920e-003
9.439920e-003
9.439920e-003
9.439920e-003
9.439920e-003
9.439920e-003
9.439920e-003
9.439920e-003
9.439920e-003
9.439921e-003
9.439920e-003
9.439920e-003
9.439919e-003
9.439920e-003
9.439920e-003
9.439920e-003
9.439920e-003
9.439920e-003
9.439920e-003
9.439920e-003
9.439920e-003
9.439920e-003
9.439921e-003
9.439921e-003
9.439922e-003
9.439922e-003
9.439923e-003
9.439924e-003
9.439927e-003
9.439929e-003
9.439933e-003
9.439936e-003
9.439940e-003
9.439944e-003
9.439947e-003
9.439948e-003
9.439948e-003
9.439944e-003
9.439937e-003
9.439925e-003
9.439907e-003
9.439883e-003
9.439852e-003
9.439814e-003
9.439769e-003
9.439718e-003
9.439659e-003
9.439596e-003
9.439529e-003
9.439458e-003
9.439387e-003
9.439314e-003
9.439244e-003
9.439176e-003
9.439112e-003
9.439054e-003
9.439004e-003
9.438962e-003
9.438930e-003
9.438909e-003
9.438900e-003
9.438904e-003
9.438920e-003
9.438949e-003
9.438991e-003
9.439044e-003
9.439108e-003
9.439180e-003
9.439258e-003
9.439341e-003
9.439425e-003
9.439508e-003
9.439587e-003
9.439661e-003
9.439727e-003
9.439784e-003
9.439831e-003
9.439869e-003
9.439898e-003
9.439918e-003
9.439931e-003
9.439939e-003
9.439942e-003
9.439943e-003
9.439941e-003
9.439938e-003
9.439935e-003
9.439931e-003
9.439928e-003
9.439926e-003
9.439924e-003
9.439922e-003
9.439922e-003
9.439921e-003
9.439921e-003
9.439921e-003
9.439920e-003
9.439920e-003
9.439920e-003
9.439920e-003
9.439920e-003
9.439920e-003
9.439920e-003
9.439920e-003
9.439920e-003
9.439920e-003
9.439920e-003
9.439920e-003
9.439920e-003
9.439921e-003
9.439920e-003
9.439919e-003
9.439920e-003
9.439920e-003
9.439921e-003
9.439921e-003
9.439920e-003
9.439919e-003
9.439919e-003
9.439920e-003
9.439921e-003
9.439921e-003
9.439922e-003
9.439922e-003
9.439923e-003
9.439924e-003
9.439926e-003
9.439928e-003
9.439932e-003
9.439936e-003
9.439940e-003
9.439944e-003
9.439947e-003
9.439949e-003
9.439947e-003
9.439941e-003
9.439928e-003
9.439907e-003
9.439874e-003
9.439829e-003
9.439768e-003
9.439691e-003
9.439597e-003
9.439485e-003
9.439357e-003
9.439213e-003
9.439055e-003
9.438886e-003
9.438709e-003
9.438526e-003
9.438342e-003
9.438159e-003
9.437980e-003
9.437811e-003
9.437653e-003
9.437511e-003
9.437388e-003
9.437286e-003
9.437209e-003
9.437159e-003
9.437139e-003
9.437149e-003
9.437191e-003
9.437264e-003
9.437368e-003
9.437501e-003
9.437660e-003
9.437841e-003
9.438039e-003
9.438249e-003
9.438464e-003
9.438679e-003
9.438887e-003
9.439083e-003
9.439262e-003
9.439420e-003
9.439556e-003
9.439668e-003
9.439757e-003
9.439824e-003
9.439873e-003
9.439906e-003
9.439926e-003
9.439938e-003
9.439942e-003
9.439942e-003
9.439940e-003
9.439937e-003
9.439934e-003
9.439930e-003
9.439927e-003
9.439925e-003
9.439923e-003
9.439922e-003
9.439921e-003
9.439921e-003
9.439921e-003
9.439921e-003
9.439920e-003
9.439920e-003
9.439920e-003
9.439920e-003
9.439920e-003
9.439920e-003
9.439920e-003
9.439920e-003
9.439920e-003
9.439920e-003
9.439920e-003
9.439920e-003
9.439920e-003
9.439920e-003
9.439920e-003
9.439920e-003
9.439921e-003
9.439920e-003
9.439920e-003
9.439919e-003
9.439920e-003
9.439920e-003
9.439921e-003
9.439922e-003
9.439922e-003
9.439923e-003
9.439925e-003
9.439927e-003
9.439931e-003
9.439935e-003
9.439939e-003
9.439944e-003
9.439948e-003
9.439950e-003
9.439948e-003
9.439940e-003
9.439922e-003
9.439891e-003
9.439841e-003
9.439768e-003
9.439667e-003
9.439533e-003
9.439363e-003
9.439154e-003
9.438905e-003
9.438617e-003
9.438291e-003
9.437931e-003
9.437542e-003
9.437131e-003
9.436703e-003
9.436268e-003
9.435832e-003
9.435402e-003
9.434988e-003
9.434595e-003
9.434233e-003
9.433908e-003
9.433627e-003
9.433397e-003
9.433224e-003
9.433113e-003
9.433069e-003
9.433094e-003
9.433192e-003
9.433361e-003
9.433601e-003
9.433908e-003
9.434275e-003
9.434695e-003
9.435157e-003
9.435649e-003
9.436159e-003
9.436671e-003
9.437172e-003
9.437649e-003
9.438090e-003
9.438486e-003
9.438831e-003
9.439122e-003
9.439359e-003
9.439546e-003
9.439686e-003
9.439787e-003
9.439856e-003
9.439900e-003
9.439925e-003
9.439938e-003
9.439943e-003
9.439942e-003
9.439939e-003
9.439936e-003
9.439932e-003
9.439929e-003
9.439926e-003
9.439924e-003
9.439922e-003
9.439921e-003
9.439921e-003
9.439921e-003
9.439920e-003
9.439920e-003
9.439920e-003
9.439920e-003
9.439920e-003
9.439920e-003
9.439920e-003
9.439920e-003
9.439920e-003
9.439920e-003
9.439920e-003
9.439920e-003
9.439920e-003
9.439920e-003
9.439920e-003
9.439920e-003
9.439920e-003
9.439920e-003
9.439920e-003
9.439920e-003
9.439921e-003
9.439921e-003
9.439922e-003
9.439922e-003
9.439923e-003
9.439925e-003
9.439928e-003
9.439933e-003
9.439938e-003
9.439943e-003
9.439947e-003
9.439951e-003
9.439950e-003
9.439942e-003
9.439923e-003
9.439885e-003
9.439821e-003
9.439722e-003
9.439577e-003
9.439376e-003
9.439107e-003
9.438763e-003
9.438335e-003
9.437821e-003
9.437219e-003
9.436532e-003
9.435767e-003
9.434933e-003
9.434043e-003
9.433111e-003
9.432152e-003
9.431183e-003
9.430221e-003
9.429280e-003
9.428379e-003
9.427532e-003
9.426754e-003
9.426060e-003
9.425463e-003
9.424976e-003
9.424612e-003
9.424380e-003
9.424290e-003
9.424349e-003
9.424560e-003
9.424924e-003
9.425439e-003
9.426098e-003
9.426891e-003
9.427800e-003
9.428806e-003
9.429885e-003
9.431009e-003
9.432148e-003
9.433273e-003
9.434354e-003
9.435365e-003
9.436284e-003
9.437096e-003
9.437791e-003
9.438368e-003
9.438831e-003
9.439189e-003
9.439456e-003
9.439645e-003
9.439774e-003
9.439856e-003
9.439904e-003
9.439930e-003
9.439941e-003
9.439943e-003
9.439941e-003
9.439938e-003
9.439934e-003
9.439930e-003
9.439926e-003
9.439924e-003
9.439922e-003
9.439922e-003
9.439921e-003
9.439921e-003
9.439920e-003
9.439920e-003
9.439920e-003
9.439920e-003
9.439920e-003
9.439920e-003
9.439920e-003
9.439920e-003
9.439920e-003
9.439920e-003
9.439920e-003
9.439920e-003
9.439921e-003
9.439920e-003
9.439920e-003
9.439919e-003
9.439920e-003
9.439920e-003
9.439921e-003
9.439921e-003
9.439922e-003
9.439922e-003
9.439924e-003
9.439926e-003
9.439929e-003
9.439934e-003
9.439940e-003
9.439945e-003
9.439950e-003
9.439952e-003
9.439947e-003
9.439931e-003
9.439894e-003
9.439825e-003
9.439709e-003
9.439530e-003
9.439266e-003
9.438896e-003
9.438397e-003
9.437749e-003
9.436934e-003
9.435941e-003
9.434765e-003
9.433409e-003
9.431883e-003
9.430204e-003
9.428396e-003
9.426489e-003
9.424513e-003
9.422502e-003
9.420489e-003
9.418509e-003
9.416592e-003
9.414769e-003
9.413069e-003
9.411520e-003
9.410147e-003
9.408973e-003
9.408023e-003
9.407316e-003
9.406871e-003
9.406705e-003
9.406829e-003
9.407252e-003
9.407976e-003
9.408999e-003
9.410311e-003
9.411894e-003
9.413720e-003
9.415753e-003
9.417951e-003
9.420261e-003
9.422626e-003
9.424985e-003
9.427277e-003
9.429447e-003
9.431445e-003
9.433232e-003
9.434786e-003
9.436094e-003
9.437160e-003
9.438001e-003
9.438640e-003
9.439107e-003
9.439434e-003
9.439652e-003
9.439791e-003
9.439872e-003
9.439916e-003
9.439936e-003
9.439943e-003
9.439943e-003
9.439939e-003
9.439935e-003
9.439930e-003
9.439927e-003
9.439924e-003
9.439923e-003
9.439922e-003
9.439921e-003
9.439921e-003
9.439920e-003
9.439920e-003
9.439920e-003
9.439920e-003
9.439920e-003
9.439920e-003
9.439920e-003
9.439920e-003
9.439920e-003
9.439919e-003
9.439920e-003
9.439921e-003
9.439920e-003
9.439920e-003
9.439919e-003
9.439920e-003
9.439921e-003
9.439922e-003
9.439922e-003
9.439922e-003
9.439924e-003
9.439927e-003
9.439931e-003
9.439936e-003
9.439942e-003
9.439948e-003
9.439952e-003
9.439952e-003
9.439942e-003
9.439912e-003
9.439850e-003
9.439737e-003
9.439547e-003
9.439248e-003
9.438803e-003
9.438169e-003
9.437302e-003
9.436158e-003
9.434699e-003
9.432897e-003
9.430736e-003
9.428215e-003
9.425351e-003
9.422174e-003
9.418732e-003
9.415080e-003
9.411281e-003
9.407401e-003
9.403509e-003
9.399667e-003
9.395936e-003
9.392373e-003
9.389028e-003
9.385946e-003
9.383170e-003
9.380736e-003
9.378680e-003
9.377034e-003
9.375825e-003
9.375079e-003
9.374820e-003
9.375066e-003
9.375833e-003
9.377126e-003
9.378948e-003
9.381289e-003
9.384129e-003
9.387433e-003
9.391151e-003
9.395218e-003
9.399550e-003
9.404050e-003
9.408607e-003
9.413108e-003
9.417437e-003
9.421487e-003
9.425172e-003
9.428424e-003
9.431208e-003
9.433514e-003
9.435361e-003
9.436790e-003
9.437856e-003
9.438620e-003
9.439145e-003
9.439490e-003
9.439705e-003
9.439831e-003
9.439898e-003
9.439930e-003
9.439942e-003
9.439943e-003
9.439940e-003
9.439935e-003
9.439931e-003
9.439927e-003
9.439925e-003
9.439923e-003
9.439921e-003
9.439921e-003
9.439921e-003
9.439920e-003
9.439920e-003
9.439920e-003
9.439920e-003
9.439920e-003
9.439920e-003
9.439920e-003
9.439920e-003
9.439919e-003
9.439920e-003
9.439921e-003
9.439920e-003
9.439920e-003
9.439920e-003
9.439920e-003
9.439921e-003
9.439922e-003
9.439923e-003
9.439924e-003
9.439927e-003
9.439931e-003
9.439937e-003
9.439944e-003
9.439950e-003
9.439954e-003
9.439951e-003
9.439934e-003
9.439889e-003
9.439796e-003
9.439624e-003
9.439333e-003
9.438869e-003
9.438166e-003
9.437148e-003
9.435731e-003
9.433831e-003
9.431369e-003
9.428285e-003
9.424540e-003
9.420128e-003
9.415078e-003
9.409450e-003
9.403338e-003
9.396854e-003
9.390127e-003
9.383291e-003
9.376475e-003
9.369801e-003
9.363376e-003
9.357292e-003
9.351628e-003
9.346446e-003
9.341795e-003
9.337712e-003
9.334228e-003
9.331362e-003
9.329133e-003
9.327554e-003
9.326639e-003
9.326401e-003
9.326855e-003
9.328020e-003
9.329913e-003
9.332554e-003
9.335958e-003
9.340134e-003
9.345076e-003
9.350758e-003
9.357127e-003
9.364097e-003
9.371544e-003
9.379309e-003
9.387198e-003
9.395002e-003
9.402504e-003
9.409502e-003
9.415828e-003
9.421361e-003
9.426040e-003
9.429860e-003
9.432869e-003
9.435153e-003
9.436823e-003
9.437995e-003
9.438786e-003
9.439294e-003
9.439605e-003
9.439783e-003
9.439878e-003
9.439923e-003
9.439940e-003
9.439944e-003
9.439941e-003
9.439936e-003
9.439932e-003
9.439928e-003
9.439924e-003
9.439922e-003
9.439921e-003
9.439921e-003
9.439921e-003
9.439920e-003
9.439920e-003
9.439920e-003
9.439920e-003
9.439920e-003
9.439920e-003
9.439920e-003
9.439920e-003
9.439920e-003
9.439920e-003
9.439920e-003
9.439920e-003
9.439921e-003
9.439921e-003
9.439922e-003
9.439923e-003
9.439924e-003
9.439927e-003
9.439931e-003
9.439938e-003
9.439945e-003
9.439951e-003
9.439955e-003
9.439950e-003
9.439926e-003
9.439863e-003
9.439734e-003
9.439492e-003
9.439077e-003
9.438402e-003
9.437360e-003
9.435821e-003
9.433638e-003
9.430656e-003
9.426732e-003
9.421748e-003
9.415632e-003
9.408377e-003
9.400049e-003
9.390788e-003
9.380800e-003
9.370337e-003
9.359680e-003
9.349108e-003
9.338884e-003
9.329232e-003
9.320332e-003
9.312317e-003
9.305269e-003
9.299227e-003
9.294193e-003
9.290133e-003
9.286987e-003
9.284674e-003
9.283097e-003
9.282156e-003
9.281749e-003
9.281790e-003
9.282209e-003
9.282965e-003
9.284054e-003
9.285513e-003
9.287421e-003
9.289901e-003
9.293104e-003
9.297203e-003
9.302367e-003
9.308734e-003
9.316387e-003
9.325322e-003
9.335433e-003
9.346499e-003
9.358196e-003
9.370117e-003
9.381823e-003
9.392883e-003
9.402935e-003
9.411717e-003
9.419091e-003
9.425043e-003
9.429659e-003
9.433101e-003
9.435566e-003
9.437260e-003
9.438376e-003
9.439079e-003
9.439499e-003
9.439736e-003
9.439859e-003
9.439917e-003
9.439939e-003
9.439944e-003
9.439941e-003
9.439936e-003
9.439931e-003
9.439927e-003
9.439924e-003
9.439922e-003
9.439921e-003
9.439921e-003
9.439920e-003
9.439920e-003
9.439920e-003
9.439920e-003
9.439920e-003
9.439920e-003
9.439920e-003
9.439921e-003
9.439920e-003
9.439919e-003
9.439920e-003
9.439921e-003
9.439921e-003
9.439922e-003
9.439922e-003
9.439924e-003
9.439927e-003
9.439932e-003
9.439938e-003
9.439945e-003
9.439952e-003
9.439956e-003
9.439949e-003
9.439918e-003
9.439839e-003
9.439672e-003
9.439356e-003
9.438799e-003
9.437876e-003
9.436421e-003
9.434225e-003
9.431046e-003
9.426624e-003
9.420710e-003
9.413105e-003
9.403702e-003
9.392531e-003
9.379785e-003
9.365829e-003
9.351182e-003
9.336471e-003
9.322368e-003
9.309528e-003
9.298520e-003
9.289789e-003
9.283623e-003
9.280154e-003
9.279360e-003
9.281093e-003
9.285089e-003
9.290997e-003
9.298392e-003
9.306788e-003
9.315660e-003
9.324455e-003
9.332621e-003
9.339630e-003
9.345005e-003
9.348355e-003
9.349404e-003
9.348024e-003
9.344263e-003
9.338364e-003
9.330774e-003
9.322132e-003
9.313243e-003
9.305019e-003
9.298405e-003
9.294284e-003
9.293373e-003
9.296124e-003
9.302647e-003
9.312673e-003
9.325576e-003
9.340453e-003
9.356254e-003
9.371930e-003
9.386576e-003
9.399532e-003
9.410424e-003
9.419152e-003
9.425833e-003
9.430727e-003
9.434162e-003
9.436470e-003
9.437956e-003
9.438868e-003
9.439401e-003
9.439694e-003
9.439844e-003
9.439912e-003
9.439938e-003
9.439944e-003
9.439941e-003
9.439936e-003
9.439931e-003
9.439927e-003
9.439924e-003
9.439922e-003
9.439921e-003
9.439921e-003
9.439921e-003
9.439920e-003
9.439920e-003
9.439920e-003
9.439920e-003
9.439920e-003
9.439921e-003
9.439920e-003
9.439919e-003
9.439920e-003
9.439921e-003
9.439922e-003
9.439922e-003
9.439924e-003
9.439927e-003
9.439932e-003
9.439938e-003
9.439945e-003
9.439952e-003
9.439956e-003
9.439949e-003
9.439913e-003
9.439820e-003
9.439619e-003
9.439230e-003
9.438530e-003
9.437342e-003
9.435423e-003
9.432461e-003
9.428081e-003
9.421874e-003
9.413442e-003
9.402484e-003
9.388891e-003
9.372855e-003
9.354950e-003
9.336168e-003
9.317888e-003
9.301764e-003
9.289553e-003
9.282926e-003
9.283282e-003
9.291604e-003
9.308384e-003
9.333610e-003
9.366803e-003
9.407092e-003
9.453302e-003
9.504025e-003
9.557685e-003
9.612576e-003
9.666893e-003
9.718769e-003
9.766309e-003
9.807648e-003
9.841009e-003
9.864783e-003
9.877617e-003
9.878501e-003
9.866872e-003
9.842703e-003
9.806581e-003
9.759766e-003
9.704195e-003
9.642445e-003
9.577616e-003
9.513154e-003
9.452585e-003
9.399211e-003
9.355764e-003
9.324092e-003
9.304926e-003
9.297794e-003
9.301125e-003
9.312529e-003
9.329203e-003
9.348374e-003
9.367672e-003
9.385368e-003
9.400441e-003
9.412501e-003
9.421636e-003
9.428215e-003
9.432737e-003
9.435708e-003
9.437573e-003
9.438690e-003
9.439326e-003
9.439666e-003
9.439835e-003
9.439911e-003
9.439938e-003