# vtk DataFile Version 3.0
vtk output
ASCII
DATASET STRUCTURED_POINTS
DIMENSIONS 100 100 1
SPACING 1 1 1
ORIGIN 0 0 0
POINT_DATA 10000
SCALARS SFBox_profile double
LOOKUP_TABLE default 
9.439921e-003
9.439921e-003
9.439921e-003
9.439922e-003
9.439922e-003
9.439923e-003
9.439925e-003
9.439927e-003
9.439930e-003
9.439934e-003
9.439939e-003
9.439946e-003
9.439953e-003
9.439960e-003
9.439968e-003
9.439975e-003
9.439979e-003
9.439978e-003
9.439970e-003
9.439953e-003
9.439922e-003
9.439876e-003
9.439811e-003
9.439724e-003
9.439615e-003
9.439481e-003
9.439322e-003
9.439140e-003
9.438935e-003
9.438710e-003
9.438468e-003
9.438210e-003
9.437941e-003
9.437663e-003
9.437379e-003
9.437093e-003
9.436807e-003
9.436523e-003
9.436243e-003
9.435970e-003
9.435704e-003
9.435447e-003
9.435200e-003
9.434964e-003
9.434739e-003
9.434526e-003
9.434327e-003
9.434142e-003
9.433972e-003
9.433819e-003
9.433686e-003
9.433574e-003
9.433487e-003
9.433429e-003
9.433403e-003
9.433414e-003
9.433465e-003
9.433561e-003
9.433704e-003
9.433898e-003
9.434143e-003
9.434438e-003
9.434782e-003
9.435168e-003
9.435591e-003
9.436040e-003
9.436506e-003
9.436976e-003
9.437436e-003
9.437876e-003
9.438284e-003
9.438651e-003
9.438971e-003
9.439240e-003
9.439459e-003
9.439629e-003
9.439756e-003
9.439845e-003
9.439904e-003
9.439939e-003
9.439956e-003
9.439962e-003
9.439961e-003
9.439956e-003
9.439950e-003
9.439943e-003
9.439937e-003
9.439932e-003
9.439928e-003
9.439925e-003
9.439923e-003
9.439922e-003
9.439921e-003
9.439921e-003
9.439920e-003
9.439920e-003
9.439920e-003
9.439920e-003
9.439920e-003
9.439920e-003
9.439921e-003
9.439921e-003
9.439921e-003
9.439922e-003
9.439922e-003
9.439923e-003
9.439925e-003
9.439927e-003
9.439930e-003
9.439934e-003
9.439939e-003
9.439946e-003
9.439953e-003
9.439960e-003
9.439968e-003
9.439975e-003
9.439979e-003
9.439978e-003
9.439970e-003
9.439953e-003
9.439922e-003
9.439876e-003
9.439811e-003
9.439724e-003
9.439615e-003
9.439481e-003
9.439322e-003
9.439140e-003
9.438935e-003
9.438710e-003
9.438468e-003
9.438210e-003
9.437941e-003
9.437663e-003
9.437379e-003
9.437093e-003
9.436807e-003
9.436523e-003
9.436243e-003
9.435970e-003
9.435704e-003
9.435447e-003
9.435200e-003
9.434964e-003
9.434739e-003
9.434526e-003
9.434327e-003
9.434142e-003
9.433972e-003
9.433819e-003
9.433686e-003
9.433574e-003
9.433487e-003
9.433429e-003
9.433403e-003
9.433414e-003
9.433465e-003
9.433561e-003
9.433704e-003
9.433898e-003
9.434143e-003
9.434438e-003
9.434782e-003
9.435168e-003
9.435591e-003
9.436040e-003
9.436506e-003
9.436976e-003
9.437436e-003
9.437876e-003
9.438284e-003
9.438651e-003
9.438971e-003
9.439240e-003
9.439459e-003
9.439629e-003
9.439756e-003
9.439845e-003
9.439904e-003
9.439939e-003
9.439956e-003
9.439962e-003
9.439961e-003
9.439956e-003
9.439950e-003
9.439943e-003
9.439937e-003
9.439932e-003
9.439928e-003
9.439925e-003
9.439923e-003
9.439922e-003
9.439921e-003
9.439921e-003
9.439920e-003
9.439920e-003
9.439920e-003
9.439920e-003
9.439920e-003
9.439920e-003
9.439921e-003
9.439921e-003
9.439921e-003
9.439922e-003
9.439923e-003
9.439925e-003
9.439927e-003
9.439929e-003
9.439933e-003
9.439938e-003
9.439944e-003
9.439950e-003
9.439957e-003
9.439963e-003
9.439966e-003
9.439965e-003
9.439956e-003
9.439936e-003
9.439901e-003
9.439844e-003
9.439762e-003
9.439648e-003
9.439500e-003
9.439312e-003
9.439083e-003
9.438811e-003
9.438498e-003
9.438145e-003
9.437755e-003
9.437333e-003
9.436885e-003
9.436414e-003
9.435928e-003
9.435431e-003
9.434928e-003
9.434426e-003
9.433927e-003
9.433435e-003
9.432954e-003
9.432486e-003
9.432034e-003
9.431599e-003
9.431183e-003
9.430787e-003
9.430411e-003
9.430058e-003
9.429728e-003
9.429422e-003
9.429143e-003
9.428893e-003
9.428675e-003
9.428495e-003
9.428355e-003
9.428263e-003
9.428225e-003
9.428247e-003
9.428336e-003
9.428498e-003
9.428740e-003
9.429066e-003
9.429477e-003
9.429974e-003
9.430554e-003
9.431209e-003
9.431929e-003
9.432699e-003
9.433503e-003
9.434320e-003
9.435129e-003
9.435909e-003
9.436642e-003
9.437311e-003
9.437903e-003
9.438411e-003
9.438833e-003
9.439171e-003
9.439432e-003
9.439624e-003
9.439759e-003
9.439849e-003
9.439904e-003
9.439935e-003
9.439949e-003
9.439952e-003
9.439950e-003
9.439945e-003
9.439940e-003
9.439934e-003
9.439930e-003
9.439927e-003
9.439924e-003
9.439923e-003
9.439922e-003
9.439921e-003
9.439920e-003
9.439920e-003
9.439920e-003
9.439920e-003
9.439920e-003
9.439920e-003
9.439921e-003
9.439921e-003
9.439922e-003
9.439923e-003
9.439925e-003
9.439927e-003
9.439930e-003
9.439934e-003
9.439939e-003
9.439945e-003
9.439951e-003
9.439957e-003
9.439960e-003
9.439959e-003
9.439948e-003
9.439923e-003
9.439877e-003
9.439800e-003
9.439685e-003
9.439520e-003
9.439294e-003
9.438999e-003
9.438625e-003
9.438168e-003
9.437623e-003
9.436991e-003
9.436275e-003
9.435481e-003
9.434617e-003
9.433696e-003
9.432727e-003
9.431723e-003
9.430696e-003
9.429657e-003
9.428616e-003
9.427584e-003
9.426567e-003
9.425573e-003
9.424607e-003
9.423674e-003
9.422777e-003
9.421919e-003
9.421102e-003
9.420329e-003
9.419599e-003
9.418915e-003
9.418279e-003
9.417693e-003
9.417160e-003
9.416686e-003
9.416275e-003
9.415935e-003
9.415677e-003
9.415509e-003
9.415444e-003
9.415495e-003
9.415674e-003
9.415995e-003
9.416469e-003
9.417105e-003
9.417908e-003
9.418881e-003
9.420019e-003
9.421311e-003
9.422739e-003
9.424278e-003
9.425897e-003
9.427558e-003
9.429220e-003
9.430843e-003
9.432385e-003
9.433811e-003
9.435093e-003
9.436212e-003
9.437158e-003
9.437932e-003
9.438544e-003
9.439009e-003
9.439350e-003
9.439588e-003
9.439747e-003
9.439846e-003
9.439903e-003
9.439932e-003
9.439944e-003
9.439946e-003
9.439944e-003
9.439939e-003
9.439934e-003
9.439930e-003
9.439927e-003
9.439924e-003
9.439923e-003
9.439921e-003
9.439921e-003
9.439920e-003
9.439920e-003
9.439920e-003
9.439920e-003
9.439920e-003
9.439922e-003
9.439922e-003
9.439923e-003
9.439925e-003
9.439928e-003
9.439931e-003
9.439936e-003
9.439941e-003
9.439948e-003
9.439954e-003
9.439959e-003
9.439959e-003
9.439951e-003
9.439926e-003
9.439876e-003
9.439788e-003
9.439647e-003
9.439434e-003
9.439127e-003
9.438707e-003
9.438151e-003
9.437440e-003
9.436561e-003
9.435503e-003
9.434265e-003
9.432850e-003
9.431270e-003
9.429542e-003
9.427687e-003
9.425730e-003
9.423696e-003
9.421613e-003
9.419504e-003
9.417392e-003
9.415297e-003
9.413238e-003
9.411227e-003
9.409278e-003
9.407398e-003
9.405596e-003
9.403876e-003
9.402242e-003
9.400696e-003
9.399240e-003
9.397874e-003
9.396602e-003
9.395424e-003
9.394345e-003
9.393370e-003
9.392507e-003
9.391766e-003
9.391159e-003
9.390702e-003
9.390415e-003
9.390317e-003
9.390431e-003
9.390782e-003
9.391393e-003
9.392285e-003
9.393478e-003
9.394986e-003
9.396814e-003
9.398961e-003
9.401413e-003
9.404144e-003
9.407112e-003
9.410266e-003
9.413539e-003
9.416855e-003
9.420134e-003
9.423293e-003
9.426258e-003
9.428962e-003
9.431357e-003
9.433415e-003
9.435127e-003
9.436505e-003
9.437575e-003
9.438375e-003
9.438952e-003
9.439349e-003
9.439609e-003
9.439772e-003
9.439866e-003
9.439915e-003
9.439937e-003
9.439944e-003
9.439943e-003
9.439939e-003
9.439935e-003
9.439930e-003
9.439927e-003
9.439924e-003
9.439922e-003
9.439921e-003
9.439921e-003
9.439920e-003
9.439920e-003
9.439920e-003
9.439920e-003
9.439923e-003
9.439924e-003
9.439926e-003
9.439928e-003
9.439932e-003
9.439937e-003
9.439944e-003
9.439951e-003
9.439958e-003
9.439961e-003
9.439958e-003
9.439940e-003
9.439897e-003
9.439812e-003
9.439665e-003
9.439427e-003
9.439066e-003
9.438541e-003
9.437811e-003
9.436831e-003
9.435563e-003
9.433972e-003
9.432036e-003
9.429743e-003
9.427101e-003
9.424127e-003
9.420855e-003
9.417330e-003
9.413602e-003
9.409725e-003
9.405757e-003
9.401748e-003
9.397747e-003
9.393796e-003
9.389931e-003
9.386180e-003
9.382566e-003
9.379105e-003
9.375808e-003
9.372683e-003
9.369733e-003
9.366960e-003
9.364363e-003
9.361940e-003
9.359691e-003
9.357615e-003
9.355713e-003
9.353988e-003
9.352447e-003
9.351101e-003
9.349961e-003
9.349048e-003
9.348382e-003
9.347992e-003
9.347907e-003
9.348160e-003
9.348789e-003
9.349829e-003
9.351319e-003
9.353291e-003
9.355775e-003
9.358793e-003
9.362357e-003
9.366463e-003
9.371090e-003
9.376193e-003
9.381705e-003
9.387531e-003
9.393552e-003
9.399626e-003
9.405602e-003
9.411324e-003
9.416650e-003
9.421460e-003
9.425670e-003
9.429237e-003
9.432157e-003
9.434465e-003
9.436225e-003
9.437517e-003
9.438428e-003
9.439044e-003
9.439441e-003
9.439684e-003
9.439824e-003
9.439897e-003
9.439931e-003
9.439943e-003
9.439944e-003
9.439940e-003
9.439935e-003
9.439930e-003
9.439927e-003
9.439924e-003
9.439922e-003
9.439921e-003
9.439921e-003
9.439920e-003
9.439920e-003
9.439920e-003
9.439926e-003
9.439927e-003
9.439930e-003
9.439934e-003
9.439939e-003
9.439946e-003
9.439954e-003
9.439961e-003
9.439963e-003
9.439955e-003
9.439926e-003
9.439859e-003
9.439730e-003
9.439504e-003
9.439135e-003
9.438565e-003
9.437725e-003
9.436535e-003
9.434914e-003
9.432782e-003
9.430069e-003
9.426724e-003
9.422724e-003
9.418075e-003
9.412814e-003
9.407012e-003
9.400760e-003
9.394167e-003
9.387351e-003
9.380429e-003
9.373510e-003
9.366691e-003
9.360055e-003
9.353667e-003
9.347578e-003
9.341822e-003
9.336421e-003
9.331384e-003
9.326712e-003
9.322398e-003
9.318430e-003
9.314795e-003
9.311477e-003
9.308461e-003
9.305735e-003
9.303288e-003
9.301113e-003
9.299206e-003
9.297568e-003
9.296203e-003
9.295118e-003
9.294327e-003
9.293842e-003
9.293684e-003
9.293875e-003
9.294440e-003
9.295411e-003
9.296823e-003
9.298716e-003
9.301139e-003
9.304147e-003
9.307800e-003
9.312161e-003
9.317294e-003
9.323249e-003
9.330056e-003
9.337708e-003
9.346149e-003
9.355261e-003
9.364859e-003
9.374700e-003
9.384499e-003
9.393953e-003
9.402775e-003
9.410728e-003
9.417644e-003
9.423441e-003
9.428122e-003
9.431761e-003
9.434484e-003
9.436441e-003
9.437793e-003
9.438687e-003
9.439251e-003
9.439590e-003
9.439780e-003
9.439879e-003
9.439925e-003
9.439941e-003
9.439944e-003
9.439940e-003
9.439935e-003
9.439930e-003
9.439927e-003
9.439924e-003
9.439922e-003
9.439921e-003
9.439921e-003
9.439920e-003
9.439920e-003
9.439930e-003
9.439932e-003
9.439936e-003
9.439942e-003
9.439949e-003
9.439957e-003
9.439964e-003
9.439965e-003
9.439952e-003
9.439910e-003
9.439816e-003
9.439634e-003
9.439310e-003
9.438775e-003
9.437933e-003
9.436667e-003
9.434843e-003
9.432311e-003
9.428926e-003
9.424555e-003
9.419103e-003
9.412526e-003
9.404845e-003
9.396152e-003
9.386608e-003
9.376426e-003
9.365857e-003
9.355164e-003
9.344603e-003
9.334404e-003
9.324759e-003
9.315818e-003
9.307685e-003
9.300425e-003
9.294064e-003
9.288598e-003
9.283997e-003
9.280212e-003
9.277180e-003
9.274827e-003
9.273079e-003
9.271864e-003
9.271115e-003
9.270773e-003
9.270789e-003
9.271119e-003
9.271729e-003
9.272587e-003
9.273661e-003
9.274918e-003
9.276320e-003
9.277820e-003
9.279366e-003
9.280893e-003
9.282335e-003
9.283619e-003
9.284681e-003
9.285467e-003
9.285953e-003
9.286156e-003
9.286149e-003
9.286075e-003
9.286153e-003
9.286682e-003
9.288021e-003
9.290557e-003
9.294663e-003
9.300634e-003
9.308629e-003
9.318622e-003
9.330377e-003
9.343455e-003
9.357265e-003
9.371139e-003
9.384420e-003
9.396550e-003
9.407136e-003
9.415970e-003
9.423029e-003
9.428434e-003
9.432403e-003
9.435198e-003
9.437086e-003
9.438305e-003
9.439057e-003
9.439498e-003
9.439741e-003
9.439864e-003
9.439920e-003
9.439940e-003
9.439944e-003
9.439940e-003
9.439935e-003
9.439930e-003
9.439926e-003
9.439924e-003
9.439922e-003
9.439921e-003
9.439921e-003
9.439920e-003
9.439938e-003
9.439940e-003
9.439945e-003
9.439953e-003
9.439961e-003
9.439968e-003
9.439968e-003
9.439950e-003
9.439895e-003
9.439773e-003
9.439533e-003
9.439100e-003
9.438369e-003
9.437197e-003
9.435399e-003
9.432755e-003
9.429017e-003
9.423933e-003
9.417276e-003
9.408887e-003
9.398717e-003
9.386859e-003
9.373571e-003
9.359268e-003
9.344499e-003
9.329888e-003
9.316082e-003
9.303683e-003
9.293205e-003
9.285036e-003
9.279427e-003
9.276496e-003
9.276244e-003
9.278577e-003
9.283326e-003
9.290268e-003
9.299145e-003
9.309672e-003
9.321555e-003
9.334505e-003
9.348247e-003
9.362537e-003
9.377160e-003
9.391938e-003
9.406726e-003
9.421399e-003
9.435846e-003
9.449953e-003
9.463588e-003
9.476588e-003
9.488749e-003
9.499809e-003
9.509452e-003
9.517300e-003
9.522925e-003
9.525866e-003
9.525652e-003
9.521845e-003
9.514085e-003
9.502156e-003
9.486050e-003
9.466036e-003
9.442712e-003
9.417040e-003
9.390330e-003
9.364171e-003
9.340303e-003
9.320430e-003
9.306005e-003
9.298014e-003
9.296822e-003
9.302098e-003
9.312865e-003
9.327657e-003
9.344761e-003
9.362484e-003
9.379386e-003
9.394436e-003
9.407055e-003
9.417079e-003
9.424655e-003
9.430119e-003
9.433887e-003
9.436373e-003
9.437940e-003
9.438883e-003
9.439422e-003
9.439711e-003
9.439854e-003
9.439918e-003
9.439940e-003
9.439944e-003
9.439940e-003
9.439935e-003
9.439930e-003
9.439926e-003
9.439924e-003
9.439922e-003
9.439921e-003
9.439921e-003
9.439948e-003
9.439952e-003
9.439958e-003
9.439966e-003
9.439972e-003
9.439971e-003
9.439950e-003
9.439884e-003
9.439736e-003
9.439439e-003
9.438895e-003
9.437955e-003
9.436415e-003
9.434001e-003
9.430376e-003
9.425150e-003
9.417919e-003
9.408327e-003
9.396148e-003
9.381390e-003
9.364393e-003
9.345885e-003
9.326992e-003
9.309174e-003
9.294091e-003
9.283437e-003
9.278756e-003
9.281293e-003
9.291893e-003
9.310966e-003
9.338498e-003
9.374124e-003
9.417204e-003
9.466917e-003
9.522329e-003
9.582454e-003
9.646286e-003
9.712836e-003
9.781151e-003
9.850350e-003
9.919644e-003
9.988355e-003
1.005593e-002
1.012191e-002
1.018597e-002
1.024780e-002
1.030714e-002
1.036369e-002
1.041707e-002
1.046678e-002
1.051214e-002
1.055231e-002
1.058620e-002
1.061253e-002
1.062980e-002
1.063639e-002
1.063059e-002
1.061073e-002
1.057534e-002
1.052330e-002
1.045408e-002
1.036797e-002
1.026628e-002
1.015147e-002
1.002724e-002
9.898427e-003
9.770665e-003
9.649958e-003
9.542027e-003
9.451633e-003
9.381957e-003
9.334186e-003
9.307404e-003
9.298828e-003
9.304368e-003
9.319362e-003
9.339324e-003
9.360534e-003
9.380353e-003
9.397263e-003
9.410693e-003
9.420732e-003
9.427846e-003
9.432647e-003
9.435739e-003
9.437640e-003
9.438754e-003
9.439373e-003
9.439696e-003
9.439851e-003
9.439918e-003
9.439940e-003
9.439943e-003
9.439939e-003
9.439934e-003
9.439929e-003
9.439925e-003
9.439923e-003
9.439922e-003
9.439921e-003
9.439963e-003
9.439967e-003
9.439973e-003
9.439979e-003
9.439977e-003
9.439953e-003
9.439880e-003
9.439711e-003
9.439367e-003
9.438721e-003
9.437581e-003
9.435667e-003
9.432600e-003
9.427893e-003
9.420968e-003
9.411221e-003
9.398129e-003
9.381433e-003
9.361370e-003
9.338921e-003
9.316007e-003
9.295562e-003
9.281409e-003
9.277946e-003
9.289683e-003
9.320719e-003
9.374280e-003
9.452393e-003
9.555757e-003
9.683786e-003
9.834809e-003
1.000635e-002
1.019546e-002
1.039892e-002
1.061352e-002
1.083615e-002
1.106385e-002
1.129388e-002
1.152376e-002
1.175127e-002
1.197454e-002
1.219202e-002
1.240253e-002
1.260518e-002
1.279933e-002
1.298447e-002
1.316011e-002
1.332565e-002
1.348023e-002
1.362266e-002
1.375124e-002
1.386373e-002
1.395729e-002
1.402848e-002
1.407327e-002
1.408716e-002
1.406536e-002
1.400304e-002
1.389569e-002
1.373954e-002
1.353215e-002
1.327297e-002
1.296401e-002
1.261034e-002
1.222042e-002
1.180616e-002
1.138236e-002
1.096581e-002
1.057371e-002
1.022194e-002
9.923072e-003
9.684894e-003
9.509454e-003
9.393091e-003
9.327427e-003
9.301110e-003
9.301889e-003
9.318504e-003
9.341976e-003
9.366134e-003
9.387453e-003
9.404472e-003
9.417072e-003
9.425845e-003
9.431635e-003
9.435271e-003
9.437448e-003
9.438689e-003
9.439359e-003
9.439698e-003
9.439856e-003
9.439921e-003
9.439941e-003
9.439943e-003
9.439938e-003
9.439933e-003
9.439928e-003
9.439925e-003
9.439923e-003
9.439922e-003
9.439982e-003
9.439985e-003
9.439989e-003
9.439986e-003
9.439961e-003
9.439884e-003
9.439704e-003
9.439328e-003
9.438604e-003
9.437295e-003
9.435046e-003
9.431356e-003
9.425561e-003
9.416856e-003
9.404383e-003
9.387429e-003
9.365777e-003
9.340207e-003
9.313105e-003
9.289024e-003
9.275006e-003
9.280450e-003
9.316426e-003
9.394516e-003
9.525387e-003
9.717428e-003
9.975742e-003
1.030166e-002
1.069285e-002
1.114380e-002
1.164675e-002
1.219255e-002
1.277159e-002
1.337446e-002
1.399239e-002
1.461744e-002
1.524257e-002
1.586161e-002
1.646924e-002
1.706103e-002
1.763338e-002
1.818360e-002
1.870980e-002
1.921079e-002
1.968585e-002
2.013455e-002
2.055643e-002
2.095067e-002
2.131585e-002
2.164968e-002
2.194872e-002
2.220825e-002
2.242215e-002
2.258285e-002
2.268139e-002
2.270761e-002
2.265041e-002
2.249828e-002
2.223990e-002
2.186508e-002
2.136586e-002
2.073784e-002
1.998170e-002
1.910463e-002
1.812163e-002
1.705617e-002
1.594000e-002
1.481172e-002
1.371405e-002
1.268983e-002
1.177732e-002
1.100547e-002
1.039024e-002
9.932891e-003
9.620772e-003
9.430613e-003
9.333423e-003
9.299707e-003
9.303707e-003
9.325839e-003
9.353195e-003
9.378622e-003
9.399102e-003
9.414119e-003
9.424379e-003
9.430993e-003
9.435040e-003
9.437396e-003
9.438700e-003
9.439383e-003
9.439718e-003
9.439868e-003
9.439926e-003
9.439942e-003
9.439942e-003
9.439937e-003
9.439932e-003
9.439927e-003
9.439925e-003
9.439923e-003
9.440004e-003
9.440004e-003
9.439999e-003
9.439974e-003
9.439898e-003
9.439716e-003
9.439327e-003
9.438560e-003
9.437139e-003
9.434636e-003
9.430427e-003
9.423659e-003
9.413267e-003
9.398094e-003
9.377212e-003
9.350544e-003
9.319866e-003
9.290148e-003
9.270991e-003
9.277701e-003
9.331422e-003
9.457899e-003
9.684844e-003
1.003834e-002
1.053913e-002
1.119963e-002
1.202240e-002
1.300012e-002
1.411712e-002
1.535160e-002
1.667842e-002
1.807156e-002
1.950616e-002
2.095985e-002
2.241336e-002
2.385057e-002
2.525829e-002
2.662582e-002
2.794475e-002
2.920866e-002
3.041300e-002
3.155500e-002
3.263337e-002
3.364805e-002
3.459977e-002
3.548955e-002
3.631815e-002
3.708555e-002
3.779039e-002
3.842951e-002
3.899759e-002
3.948681e-002
3.988664e-002
4.018378e-002
4.036214e-002
4.040305e-002
4.028561e-002
3.998729e-002
3.948482e-002
3.875548e-002
3.777885e-002
3.653904e-002
3.502755e-002
3.324645e-002
3.121174e-002
2.895632e-002
2.653184e-002
2.400855e-002
2.147242e-002
1.901885e-002
1.674336e-002
1.473012e-002
1.304059e-002
1.170496e-002
1.071902e-002
1.004763e-002
9.633919e-003
9.411640e-003
9.316991e-003
9.297074e-003
9.313664e-003
9.342786e-003
9.371721e-003
9.395230e-003
9.412262e-003
9.423657e-003
9.430818e-003
9.435080e-003
9.437491e-003
9.438785e-003
9.439441e-003
9.439751e-003
9.439883e-003
9.439931e-003
9.439943e-003
9.439941e-003
9.439935e-003
9.439930e-003
9.439927e-003
9.439925e-003
9.440025e-003
9.440018e-003
9.439993e-003
9.439922e-003
9.439747e-003
9.439366e-003
9.438596e-003
9.437134e-003
9.434492e-003
9.429940e-003
9.422438e-003
9.410647e-003
9.393074e-003
9.368536e-003
9.337163e-003
9.302184e-003
9.272588e-003
9.266348e-003
9.313350e-003
9.456661e-003
9.750813e-003
1.025649e-002
1.103222e-002
1.212506e-002
1.356248e-002
1.534774e-002
1.745968e-002
1.985636e-002
2.248147e-002
2.527161e-002
2.816304e-002
3.109689e-002
3.402250e-002
3.689889e-002
3.969453e-002
4.238638e-002
4.495824e-002
4.739940e-002
4.970341e-002
5.186730e-002
5.389096e-002
5.577669e-002
5.752868e-002
5.915239e-002
6.065390e-002
6.203909e-002
6.331294e-002
6.447875e-002
6.553747e-002
6.648714e-002
6.732240e-002
6.803412e-002
6.860914e-002
6.903006e-002
6.927516e-002
6.931839e-002
6.912947e-002
6.867417e-002
6.791486e-002
6.681144e-002
6.532291e-002
6.340979e-002
6.103770e-002
5.818231e-002
5.483566e-002
5.101367e-002
4.676379e-002
4.217156e-002
3.736354e-002
3.250421e-002
2.778455e-002
2.340165e-002
1.953183e-002
1.630314e-002
1.377496e-002
1.193180e-002
1.069352e-002
9.938591e-003
9.532277e-003
9.351100e-003
9.297837e-003
9.305899e-003
9.335742e-003
9.367487e-003
9.393341e-003
9.411758e-003
9.423784e-003
9.431136e-003
9.435386e-003
9.437718e-003
9.438930e-003
9.439523e-003
9.439791e-003
9.439901e-003
9.439937e-003
9.439943e-003
9.439939e-003
9.439934e-003
9.439930e-003
9.439927e-003
9.440040e-003
9.440018e-003
9.439953e-003
9.439794e-003
9.439439e-003
9.438706e-003
9.437278e-003
9.434634e-003
9.429960e-003
9.422062e-003
9.409340e-003
9.389941e-003
9.362357e-003
9.326871e-003
9.288390e-003
9.261128e-003
9.274955e-003
9.382127e-003
9.661698e-003
1.021825e-002
1.117246e-002
1.264369e-002
1.472812e-002
1.747862e-002
2.089229e-002
2.490938e-002
2.942317e-002
3.429714e-002
3.938423e-002
4.454379e-002
4.965366e-002
5.461658e-002
5.936165e-002
6.384231e-002
6.803228e-002
7.192075e-002
7.550800e-002
7.880168e-002
8.181423e-002
8.456106e-002
8.705934e-002
8.932716e-002
9.138280e-002
9.324404e-002
9.492753e-002
9.644814e-002
9.781841e-002
9.904799e-002
1.001433e-001
1.011071e-001
1.019385e-001
1.026322e-001
1.031792e-001
1.035655e-001
1.037727e-001
1.037772e-001
1.035496e-001
1.030543e-001
1.022482e-001
1.010805e-001
9.949166e-002
9.741389e-002
9.477224e-002
9.148813e-002
8.748588e-002
8.270340e-002
7.710763e-002
7.071436e-002
6.360970e-002
5.596770e-002
4.805585e-002
4.021996e-002
3.284369e-002
2.628723e-002
2.082045e-002
1.657303e-002
1.352008e-002
1.150782e-002
1.030710e-002
9.673068e-003
9.391510e-003
9.302361e-003
9.302006e-003
9.332465e-003
9.366357e-003
9.393673e-003
9.412676e-003
9.424739e-003
9.431898e-003
9.435910e-003
9.438041e-003
9.439111e-003
9.439615e-003
9.439834e-003
9.439917e-003
9.439941e-003
9.439942e-003
9.439938e-003
9.439933e-003
9.439930e-003
9.440036e-003
9.439986e-003
9.439849e-003
9.439534e-003
9.438870e-003
9.437545e-003
9.435032e-003
9.430475e-003
9.422575e-003
9.409514e-003
9.389089e-003
9.359374e-003
9.320570e-003
9.278996e-003
9.254358e-003
9.290733e-003
9.469846e-003
9.922227e-003
1.082914e-002
1.240824e-002
1.488016e-002
1.842165e-002
2.311855e-002
2.893545e-002
3.571338e-002
4.319650e-002
5.107750e-002
5.904667e-002
6.683157e-002
7.422061e-002
8.107057e-002
8.730179e-002
9.288637e-002
9.783423e-002
1.021800e-001
1.059726e-001
1.092672e-001
1.121204e-001
1.145866e-001
1.167160e-001
1.185541e-001
1.201410e-001
1.215117e-001
1.226962e-001
1.237198e-001
1.246037e-001
1.253651e-001
1.260177e-001
1.265720e-001
1.270357e-001
1.274137e-001
1.277084e-001
1.279198e-001
1.280454e-001
1.280795e-001
1.280131e-001
1.278327e-001
1.275189e-001
1.270447e-001
1.263730e-001
1.254531e-001
1.242170e-001
1.225748e-001
1.204105e-001
1.175789e-001
1.139073e-001
1.092046e-001
1.032851e-001
9.600879e-002
8.733901e-002
7.740457e-002
6.654549e-002
5.531311e-002
4.440272e-002
3.452128e-002
2.622944e-002
1.981977e-002
1.528144e-002
1.235840e-002
1.066379e-002
9.796885e-003
9.423142e-003
9.305963e-003
9.301152e-003
9.333065e-003
9.368437e-003
9.396179e-003
9.414883e-003
9.426382e-003
9.432989e-003
9.436573e-003
9.438413e-003
9.439305e-003
9.439707e-003
9.439872e-003
9.439929e-003
9.439943e-003
9.439942e-003
9.439937e-003
9.439934e-003
9.439995e-003
9.439896e-003
9.439635e-003
9.439063e-003
9.437895e-003
9.435623e-003
9.431400e-003
9.423886e-003
9.411128e-003
9.390616e-003
9.359932e-003
9.318813e-003
9.274126e-003
9.249822e-003
9.303616e-003
9.549743e-003
1.018194e-002
1.148420e-002
1.381304e-002
1.754011e-002
2.295952e-002
3.018657e-002
3.908869e-002
4.928307e-002
6.020700e-002
7.123388e-002
8.179093e-002
9.144212e-002
9.992190e-002
1.071265e-001
1.130793e-001
1.178863e-001
1.216960e-001
1.246691e-001
1.269599e-001
1.287067e-001
1.300283e-001
1.310229e-001
1.317694e-001
1.323294e-001
1.327497e-001
1.330654e-001
1.333024e-001
1.334797e-001
1.336112e-001
1.337074e-001
1.337761e-001
1.338232e-001
1.338535e-001
1.338704e-001
1.338767e-001
1.338746e-001
1.338653e-001
1.338493e-001
1.338261e-001
1.337942e-001
1.337502e-001
1.336888e-001
1.336021e-001
1.334778e-001
1.332984e-001
1.330381e-001
1.326584e-001
1.321018e-001
1.312798e-001
1.300561e-001
1.282240e-001
1.254843e-001
1.214416e-001
1.156426e-001
1.076803e-001
9.735838e-002
8.487202e-002
7.091021e-002
5.658731e-002
4.318268e-002
3.178405e-002
2.300257e-002
1.688952e-002
1.305933e-002
1.091651e-002
9.865232e-003
9.433138e-003
9.305616e-003
9.303012e-003
9.337505e-003
9.373506e-003
9.400535e-003
9.418075e-003
9.428482e-003
9.434260e-003
9.437289e-003
9.438789e-003
9.439487e-003
9.439787e-003
9.439903e-003
9.439938e-003
9.439944e-003
9.439941e-003
9.439939e-003
9.439890e-003
9.439712e-003
9.439253e-003
9.438273e-003
9.436319e-003
9.432595e-003
9.425798e-003
9.413938e-003
9.394302e-003
9.363967e-003
9.321817e-003
9.273991e-003
9.245906e-003
9.304520e-003
9.592402e-003
1.036790e-002
1.203335e-002
1.512089e-002
2.020566e-002
2.774011e-002
3.785274e-002
5.020136e-002
6.397338e-002
7.806035e-002
9.133831e-002
1.029312e-001
1.123581e-001
1.195380e-001
1.246899e-001
1.281952e-001
1.304736e-001
1.319003e-001
1.327689e-001
1.332892e-001
1.336018e-001
1.337962e-001
1.339259e-001
1.340197e-001
1.340907e-001
1.341429e-001
1.341761e-001
1.341895e-001
1.341828e-001
1.341575e-001
1.341161e-001
1.340623e-001
1.340000e-001
1.339337e-001
1.338680e-001
1.338073e-001
1.337566e-001
1.337206e-001
1.337047e-001
1.337143e-001
1.337549e-001
1.338316e-001
1.339486e-001
1.341075e-001
1.343062e-001
1.345358e-001
1.347786e-001
1.350047e-001
1.351704e-001
1.352197e-001
1.350901e-001
1.347237e-001
1.340746e-001
1.330959e-001
1.316811e-001
1.295554e-001
1.261588e-001
1.206321e-001
1.120464e-001
9.989486e-002
8.459209e-002
6.759061e-002
5.094306e-002
3.654426e-002
2.550701e-002
1.798758e-002
1.343276e-002
1.099217e-002
9.855269e-003
9.417391e-003
9.301776e-003
9.308044e-003
9.345579e-003
9.381026e-003
9.406197e-003
9.421839e-003
9.430773e-003
9.435557e-003
9.437976e-003
9.439129e-003
9.439642e-003
9.439851e-003
9.439925e-003
9.439944e-003
9.439945e-003
9.439944e-003
9.439686e-003
9.439384e-003
9.438621e-003
9.437025e-003
9.433899e-003
9.428047e-003
9.417552e-003
9.399646e-003
9.370996e-003
9.329408e-003
9.279047e-003
9.243223e-003
9.290549e-003
9.579611e-003
1.041957e-002
1.232578e-002
1.602355e-002
2.233762e-002
3.192946e-002
4.493330e-002
6.066304e-002
7.761284e-002
9.385196e-002
1.076597e-001
1.180681e-001
1.250369e-001
1.292241e-001
1.315523e-001
1.328360e-001
1.336094e-001
1.341284e-001
1.344623e-001
1.345993e-001
1.345195e-001
1.342245e-001
1.337377e-001
1.330935e-001
1.323285e-001
1.314767e-001
1.305672e-001
1.296250e-001
1.286708e-001
1.277218e-001
1.267917e-001
1.258915e-001
1.250298e-001
1.242135e-001
1.234490e-001
1.227428e-001
1.221022e-001
1.215361e-001
1.210558e-001
1.206754e-001
1.204121e-001
1.202865e-001
1.203225e-001
1.205472e-001
1.209894e-001
1.216788e-001
1.226425e-001
1.239007e-001
1.254596e-001
1.273007e-001
1.293669e-001
1.315457e-001
1.336525e-001
1.354239e-001
1.365397e-001
1.367000e-001
1.357621e-001
1.338344e-001
1.310791e-001
1.271375e-001
1.207160e-001
1.101390e-001
9.476544e-002
7.596135e-002
5.661298e-002
3.965029e-002
2.680462e-002
1.831032e-002
1.337754e-002
1.086826e-002
9.770686e-003
9.382676e-003
9.298074e-003
9.317041e-003
9.356760e-003
9.390189e-003
9.412499e-003
9.425737e-003
9.433004e-003
9.436753e-003
9.438576e-003
9.439410e-003
9.439763e-003
9.439897e-003
9.439940e-003
9.439949e-003
9.439949e-003
9.439335e-003
9.438851e-003
9.437642e-003
9.435154e-003
9.430355e-003
9.421514e-003
9.405966e-003
9.380179e-003
9.340926e-003
9.289657e-003
9.244431e-003
9.266962e-003
9.514025e-003
1.031693e-002
1.227151e-002
1.628014e-002
2.344290e-002
3.469833e-002
5.023570e-002
6.894789e-002
8.839473e-002
1.055920e-001
1.183381e-001
1.262014e-001
1.303833e-001
1.326050e-001
1.340208e-001
1.349289e-001
1.351597e-001
1.345410e-001
1.330821e-001
1.309351e-001
1.283050e-001
1.253880e-001
1.223445e-001
1.192928e-001
1.163134e-001
1.134576e-001
1.107553e-001
1.082220e-001
1.058637e-001
1.036799e-001
1.016657e-001
9.981376e-002
9.811520e-002
9.656109e-002
9.514332e-002
9.385563e-002
9.269441e-002
9.165942e-002
9.075432e-002
8.998725e-002
8.937126e-002
8.892475e-002
8.867201e-002
8.864369e-002
8.887746e-002
8.941869e-002
9.032103e-002
9.164680e-002
9.346655e-002
9.585709e-002
9.889655e-002
1.026540e-001
1.071706e-001
1.124267e-001
1.182906e-001
1.244467e-001
1.303212e-001
1.350611e-001
1.376912e-001
1.375723e-001
1.349809e-001
1.308937e-001
1.253055e-001
1.160951e-001
1.010606e-001
8.093827e-002
5.941195e-002
4.054301e-002
2.661426e-002
1.777892e-002
1.291031e-002
1.058279e-002
9.639777e-003
9.343019e-003