# vtk DataFile Version 3.0
vtk output
ASCII
DATASET STRUCTURED_POINTS
DIMENSIONS 100 100 1
SPACING 1 1 1
ORIGIN 0 0 0
POINT_DATA 10000
SCALARS SFBox_profile double
LOOKUP_TABLE default 
9.439927e-003
9.439925e-003
9.439922e-003
9.439919e-003
9.439917e-003
9.439917e-003
9.439918e-003
9.439920e-003
9.439922e-003
9.439923e-003
9.439923e-003
9.439922e-003
9.439922e-003
9.439924e-003
9.439925e-003
9.439927e-003
9.439929e-003
9.439930e-003
9.439932e-003
9.439936e-003
9.439940e-003
9.439945e-003
9.439949e-003
9.439953e-003
9.439957e-003
9.439961e-003
9.439965e-003
9.439968e-003
9.439970e-003
9.439972e-003
9.439973e-003
9.439973e-003
9.439973e-003
9.439973e-003
9.439972e-003
9.439971e-003
9.439969e-003
9.439967e-003
9.439965e-003
9.439963e-003
9.439960e-003
9.439958e-003
9.439955e-003
9.439952e-003
9.439949e-003
9.439947e-003
9.439945e-003
9.439943e-003
9.439941e-003
9.439939e-003
9.439939e-003
9.439938e-003
9.439939e-003
9.439939e-003
9.439940e-003
9.439942e-003
9.439944e-003
9.439947e-003
9.439950e-003
9.439953e-003
9.439956e-003
9.439959e-003
9.439961e-003
9.439963e-003
9.439964e-003
9.439964e-003
9.439962e-003
9.439961e-003
9.439958e-003
9.439955e-003
9.439951e-003
9.439946e-003
9.439941e-003
9.439937e-003
9.439934e-003
9.439931e-003
9.439928e-003
9.439925e-003
9.439923e-003
9.439923e-003
9.439923e-003
9.439922e-003
9.439922e-003
9.439921e-003
9.439920e-003
9.439920e-003
9.439920e-003
9.439920e-003
9.439919e-003
9.439919e-003
9.439920e-003
9.439920e-003
9.439921e-003
9.439921e-003
9.439920e-003
9.439919e-003
9.439919e-003
9.439919e-003
9.439920e-003
9.439921e-003
9.439927e-003
9.439925e-003
9.439922e-003
9.439919e-003
9.439917e-003
9.439917e-003
9.439918e-003
9.439920e-003
9.439922e-003
9.439923e-003
9.439923e-003
9.439922e-003
9.439922e-003
9.439924e-003
9.439925e-003
9.439927e-003
9.439929e-003
9.439930e-003
9.439932e-003
9.439936e-003
9.439940e-003
9.439945e-003
9.439949e-003
9.439953e-003
9.439957e-003
9.439961e-003
9.439965e-003
9.439968e-003
9.439970e-003
9.439972e-003
9.439973e-003
9.439973e-003
9.439973e-003
9.439973e-003
9.439972e-003
9.439971e-003
9.439969e-003
9.439967e-003
9.439965e-003
9.439963e-003
9.439960e-003
9.439958e-003
9.439955e-003
9.439952e-003
9.439949e-003
9.439947e-003
9.439945e-003
9.439943e-003
9.439941e-003
9.439939e-003
9.439939e-003
9.439938e-003
9.439939e-003
9.439939e-003
9.439940e-003
9.439942e-003
9.439944e-003
9.439947e-003
9.439950e-003
9.439953e-003
9.439956e-003
9.439959e-003
9.439961e-003
9.439963e-003
9.439964e-003
9.439964e-003
9.439962e-003
9.439961e-003
9.439958e-003
9.439955e-003
9.439951e-003
9.439946e-003
9.439941e-003
9.439937e-003
9.439934e-003
9.439931e-003
9.439928e-003
9.439925e-003
9.439923e-003
9.439923e-003
9.439923e-003
9.439922e-003
9.439922e-003
9.439921e-003
9.439920e-003
9.439920e-003
9.439920e-003
9.439920e-003
9.439919e-003
9.439919e-003
9.439920e-003
9.439920e-003
9.439921e-003
9.439921e-003
9.439920e-003
9.439919e-003
9.439919e-003
9.439919e-003
9.439920e-003
9.439921e-003
9.439921e-003
9.439921e-003
9.439920e-003
9.439920e-003
9.439920e-003
9.439920e-003
9.439920e-003
9.439921e-003
9.439921e-003
9.439922e-003
9.439922e-003
9.439922e-003
9.439923e-003
9.439925e-003
9.439928e-003
9.439930e-003
9.439933e-003
9.439936e-003
9.439939e-003
9.439942e-003
9.439946e-003
9.439949e-003
9.439952e-003
9.439954e-003
9.439956e-003
9.439957e-003
9.439957e-003
9.439955e-003
9.439953e-003
9.439949e-003
9.439945e-003
9.439939e-003
9.439932e-003
9.439925e-003
9.439916e-003
9.439908e-003
9.439898e-003
9.439888e-003
9.439879e-003
9.439869e-003
9.439859e-003
9.439850e-003
9.439841e-003
9.439832e-003
9.439825e-003
9.439818e-003
9.439812e-003
9.439806e-003
9.439802e-003
9.439799e-003
9.439798e-003
9.439799e-003
9.439801e-003
9.439805e-003
9.439811e-003
9.439819e-003
9.439828e-003
9.439840e-003
9.439852e-003
9.439865e-003
9.439878e-003
9.439892e-003
9.439905e-003
9.439917e-003
9.439927e-003
9.439935e-003
9.439942e-003
9.439946e-003
9.439949e-003
9.439950e-003
9.439949e-003
9.439947e-003
9.439944e-003
9.439941e-003
9.439938e-003
9.439935e-003
9.439931e-003
9.439928e-003
9.439926e-003
9.439924e-003
9.439923e-003
9.439922e-003
9.439921e-003
9.439921e-003
9.439920e-003
9.439920e-003
9.439920e-003
9.439920e-003
9.439920e-003
9.439920e-003
9.439920e-003
9.439920e-003
9.439920e-003
9.439920e-003
9.439920e-003
9.439920e-003
9.439919e-003
9.439920e-003
9.439920e-003
9.439921e-003
9.439914e-003
9.439915e-003
9.439918e-003
9.439921e-003
9.439923e-003
9.439923e-003
9.439922e-003
9.439921e-003
9.439921e-003
9.439921e-003
9.439922e-003
9.439924e-003
9.439926e-003
9.439929e-003
9.439932e-003
9.439936e-003
9.439940e-003
9.439944e-003
9.439947e-003
9.439950e-003
9.439952e-003
9.439952e-003
9.439950e-003
9.439947e-003
9.439940e-003
9.439932e-003
9.439920e-003
9.439905e-003
9.439888e-003
9.439867e-003
9.439844e-003
9.439819e-003
9.439791e-003
9.439762e-003
9.439731e-003
9.439699e-003
9.439667e-003
9.439635e-003
9.439603e-003
9.439571e-003
9.439541e-003
9.439513e-003
9.439485e-003
9.439460e-003
9.439437e-003
9.439417e-003
9.439399e-003
9.439385e-003
9.439375e-003
9.439368e-003
9.439367e-003
9.439370e-003
9.439378e-003
9.439392e-003
9.439411e-003
9.439436e-003
9.439467e-003
9.439502e-003
9.439541e-003
9.439584e-003
9.439628e-003
9.439674e-003
9.439719e-003
9.439762e-003
9.439801e-003
9.439836e-003
9.439867e-003
9.439892e-003
9.439912e-003
9.439926e-003
9.439936e-003
9.439941e-003
9.439944e-003
9.439944e-003
9.439943e-003
9.439940e-003
9.439937e-003
9.439934e-003
9.439931e-003
9.439928e-003
9.439925e-003
9.439923e-003
9.439922e-003
9.439921e-003
9.439920e-003
9.439921e-003
9.439921e-003
9.439921e-003
9.439921e-003
9.439920e-003
9.439920e-003
9.439919e-003
9.439919e-003
9.439920e-003
9.439920e-003
9.439920e-003
9.439921e-003
9.439920e-003
9.439920e-003
9.439919e-003
9.439912e-003
9.439914e-003
9.439918e-003
9.439921e-003
9.439924e-003
9.439924e-003
9.439923e-003
9.439922e-003
9.439922e-003
9.439923e-003
9.439925e-003
9.439929e-003
9.439932e-003
9.439936e-003
9.439939e-003
9.439943e-003
9.439947e-003
9.439951e-003
9.439952e-003
9.439951e-003
9.439946e-003
9.439936e-003
9.439921e-003
9.439900e-003
9.439872e-003
9.439836e-003
9.439792e-003
9.439740e-003
9.439681e-003
9.439615e-003
9.439543e-003
9.439465e-003
9.439383e-003
9.439297e-003
9.439209e-003
9.439120e-003
9.439031e-003
9.438943e-003
9.438856e-003
9.438772e-003
9.438692e-003
9.438616e-003
9.438545e-003
9.438480e-003
9.438420e-003
9.438368e-003
9.438324e-003
9.438289e-003
9.438263e-003
9.438249e-003
9.438245e-003
9.438255e-003
9.438278e-003
9.438316e-003
9.438368e-003
9.438435e-003
9.438516e-003
9.438611e-003
9.438717e-003
9.438832e-003
9.438954e-003
9.439080e-003
9.439205e-003
9.439327e-003
9.439442e-003
9.439547e-003
9.439641e-003
9.439721e-003
9.439787e-003
9.439840e-003
9.439879e-003
9.439908e-003
9.439926e-003
9.439937e-003
9.439942e-003
9.439943e-003
9.439942e-003
9.439939e-003
9.439936e-003
9.439932e-003
9.439928e-003
9.439925e-003
9.439923e-003
9.439922e-003
9.439922e-003
9.439921e-003
9.439921e-003
9.439921e-003
9.439921e-003
9.439921e-003
9.439920e-003
9.439919e-003
9.439919e-003
9.439919e-003
9.439920e-003
9.439921e-003
9.439921e-003
9.439921e-003
9.439920e-003
9.439919e-003
9.439917e-003
9.439918e-003
9.439919e-003
9.439921e-003
9.439922e-003
9.439923e-003
9.439923e-003
9.439924e-003
9.439925e-003
9.439928e-003
9.439932e-003
9.439936e-003
9.439941e-003
9.439945e-003
9.439948e-003
9.439950e-003
9.439951e-003
9.439948e-003
9.439940e-003
9.439923e-003
9.439896e-003
9.439857e-003
9.439803e-003
9.439734e-003
9.439646e-003
9.439539e-003
9.439413e-003
9.439267e-003
9.439105e-003
9.438927e-003
9.438735e-003
9.438532e-003
9.438319e-003
9.438101e-003
9.437880e-003
9.437658e-003
9.437437e-003
9.437220e-003
9.437009e-003
9.436806e-003
9.436613e-003
9.436431e-003
9.436261e-003
9.436106e-003
9.435966e-003
9.435844e-003
9.435741e-003
9.435659e-003
9.435601e-003
9.435568e-003
9.435562e-003
9.435587e-003
9.435645e-003
9.435736e-003
9.435862e-003
9.436024e-003
9.436220e-003
9.436449e-003
9.436706e-003
9.436988e-003
9.437288e-003
9.437598e-003
9.437911e-003
9.438219e-003
9.438513e-003
9.438786e-003
9.439033e-003
9.439249e-003
9.439432e-003
9.439581e-003
9.439699e-003
9.439788e-003
9.439851e-003
9.439894e-003
9.439920e-003
9.439934e-003
9.439941e-003
9.439943e-003
9.439941e-003
9.439938e-003
9.439934e-003
9.439930e-003
9.439927e-003
9.439926e-003
9.439924e-003
9.439922e-003
9.439921e-003
9.439920e-003
9.439921e-003
9.439921e-003
9.439921e-003
9.439920e-003
9.439919e-003
9.439919e-003
9.439920e-003
9.439921e-003
9.439921e-003
9.439921e-003
9.439920e-003
9.439919e-003
9.439926e-003
9.439924e-003
9.439922e-003
9.439921e-003
9.439921e-003
9.439922e-003
9.439924e-003
9.439927e-003
9.439931e-003
9.439935e-003
9.439940e-003
9.439946e-003
9.439950e-003
9.439953e-003
9.439953e-003
9.439949e-003
9.439937e-003
9.439913e-003
9.439874e-003
9.439814e-003
9.439727e-003
9.439609e-003
9.439455e-003
9.439262e-003
9.439027e-003
9.438747e-003
9.438423e-003
9.438059e-003
9.437657e-003
9.437222e-003
9.436759e-003
9.436273e-003
9.435772e-003
9.435261e-003
9.434747e-003
9.434236e-003
9.433731e-003
9.433239e-003
9.432762e-003
9.432306e-003
9.431873e-003
9.431467e-003
9.431091e-003
9.430748e-003
9.430441e-003
9.430174e-003
9.429949e-003
9.429772e-003
9.429646e-003
9.429576e-003
9.429568e-003
9.429627e-003
9.429756e-003
9.429961e-003
9.430244e-003
9.430606e-003
9.431045e-003
9.431558e-003
9.432138e-003
9.432775e-003
9.433458e-003
9.434169e-003
9.434891e-003
9.435607e-003
9.436298e-003
9.436949e-003
9.437543e-003
9.438071e-003
9.438525e-003
9.438904e-003
9.439209e-003
9.439447e-003
9.439624e-003
9.439750e-003
9.439835e-003
9.439888e-003
9.439920e-003
9.439936e-003
9.439942e-003
9.439943e-003
9.439940e-003
9.439936e-003
9.439933e-003
9.439930e-003
9.439927e-003
9.439924e-003
9.439921e-003
9.439920e-003
9.439920e-003
9.439921e-003
9.439921e-003
9.439921e-003
9.439920e-003
9.439920e-003
9.439920e-003
9.439920e-003
9.439920e-003
9.439920e-003
9.439920e-003
9.439920e-003
9.439930e-003
9.439928e-003
9.439924e-003
9.439922e-003
9.439921e-003
9.439923e-003
9.439928e-003
9.439933e-003
9.439938e-003
9.439944e-003
9.439949e-003
9.439954e-003
9.439956e-003
9.439954e-003
9.439942e-003
9.439915e-003
9.439866e-003
9.439787e-003
9.439667e-003
9.439495e-003
9.439260e-003
9.438951e-003
9.438559e-003
9.438078e-003
9.437503e-003
9.436833e-003
9.436071e-003
9.435224e-003
9.434301e-003
9.433313e-003
9.432273e-003
9.431195e-003
9.430091e-003
9.428976e-003
9.427863e-003
9.426762e-003
9.425684e-003
9.424639e-003
9.423634e-003
9.422677e-003
9.421775e-003
9.420932e-003
9.420155e-003
9.419449e-003
9.418820e-003
9.418274e-003
9.417818e-003
9.417460e-003
9.417208e-003
9.417072e-003
9.417062e-003
9.417189e-003
9.417461e-003
9.417888e-003
9.418476e-003
9.419228e-003
9.420143e-003
9.421215e-003
9.422432e-003
9.423777e-003
9.425225e-003
9.426745e-003
9.428303e-003
9.429860e-003
9.431378e-003
9.432821e-003
9.434155e-003
9.435355e-003
9.436403e-003
9.437291e-003
9.438019e-003
9.438597e-003
9.439039e-003
9.439363e-003
9.439591e-003
9.439743e-003
9.439840e-003
9.439897e-003
9.439927e-003
9.439940e-003
9.439943e-003
9.439942e-003
9.439938e-003
9.439934e-003
9.439930e-003
9.439926e-003
9.439923e-003
9.439921e-003
9.439921e-003
9.439921e-003
9.439921e-003
9.439921e-003
9.439921e-003
9.439920e-003
9.439920e-003
9.439919e-003
9.439919e-003
9.439920e-003
9.439920e-003
9.439921e-003
9.439928e-003
9.439927e-003
9.439925e-003
9.439924e-003
9.439925e-003
9.439929e-003
9.439935e-003
9.439941e-003
9.439948e-003
9.439953e-003
9.439957e-003
9.439956e-003
9.439948e-003
9.439924e-003
9.439875e-003
9.439788e-003
9.439645e-003
9.439428e-003
9.439115e-003
9.438684e-003
9.438110e-003
9.437372e-003
9.436455e-003
9.435346e-003
9.434042e-003
9.432546e-003
9.430868e-003
9.429026e-003
9.427044e-003
9.424947e-003
9.422764e-003
9.420524e-003
9.418257e-003
9.415989e-003
9.413746e-003
9.411548e-003
9.409414e-003
9.407362e-003
9.405405e-003
9.403555e-003
9.401822e-003
9.400214e-003
9.398741e-003
9.397411e-003
9.396233e-003
9.395216e-003
9.394372e-003
9.393715e-003
9.393260e-003
9.393022e-003
9.393021e-003
9.393274e-003
9.393801e-003
9.394618e-003
9.395740e-003
9.397173e-003
9.398922e-003
9.400979e-003
9.403328e-003
9.405941e-003
9.408777e-003
9.411783e-003
9.414897e-003
9.418045e-003
9.421154e-003
9.424145e-003
9.426949e-003
9.429506e-003
9.431771e-003
9.433718e-003
9.435341e-003
9.436648e-003
9.437667e-003
9.438431e-003
9.438982e-003
9.439364e-003
9.439616e-003
9.439774e-003
9.439865e-003
9.439914e-003
9.439936e-003
9.439943e-003
9.439943e-003
9.439939e-003
9.439935e-003
9.439930e-003
9.439927e-003
9.439924e-003
9.439922e-003
9.439921e-003
9.439921e-003
9.439921e-003
9.439921e-003
9.439921e-003
9.439920e-003
9.439919e-003
9.439919e-003
9.439919e-003
9.439920e-003
9.439921e-003
9.439923e-003
9.439924e-003
9.439926e-003
9.439929e-003
9.439933e-003
9.439938e-003
9.439945e-003
9.439952e-003
9.439958e-003
9.439961e-003
9.439956e-003
9.439939e-003
9.439897e-003
9.439815e-003
9.439671e-003
9.439436e-003
9.439073e-003
9.438544e-003
9.437802e-003
9.436803e-003
9.435501e-003
9.433858e-003
9.431847e-003
9.429455e-003
9.426684e-003
9.423553e-003
9.420096e-003
9.416358e-003
9.412394e-003
9.408264e-003
9.404029e-003
9.399750e-003
9.395483e-003
9.391276e-003
9.387173e-003
9.383209e-003
9.379415e-003
9.375813e-003
9.372421e-003
9.369253e-003
9.366321e-003
9.363631e-003
9.361194e-003
9.359018e-003
9.357112e-003
9.355487e-003
9.354158e-003
9.353142e-003
9.352460e-003
9.352135e-003
9.352192e-003
9.352661e-003
9.353570e-003
9.354948e-003
9.356822e-003
9.359213e-003
9.362136e-003
9.365594e-003
9.369578e-003
9.374062e-003
9.378997e-003
9.384313e-003
9.389917e-003
9.395690e-003
9.401501e-003
9.407204e-003
9.412655e-003
9.417721e-003
9.422293e-003
9.426295e-003
9.429688e-003
9.432469e-003
9.434672e-003
9.436355e-003
9.437594e-003
9.438471e-003
9.439066e-003
9.439452e-003
9.439688e-003
9.439824e-003
9.439896e-003
9.439930e-003
9.439941e-003
9.439943e-003
9.439939e-003
9.439935e-003
9.439931e-003
9.439928e-003
9.439925e-003
9.439922e-003
9.439921e-003
9.439920e-003
9.439921e-003
9.439921e-003
9.439921e-003
9.439920e-003
9.439919e-003
9.439919e-003
9.439920e-003
9.439921e-003
9.439919e-003
9.439923e-003
9.439929e-003
9.439935e-003
9.439942e-003
9.439949e-003
9.439956e-003
9.439962e-003
9.439964e-003
9.439956e-003
9.439928e-003
9.439864e-003
9.439739e-003
9.439518e-003
9.439155e-003
9.438589e-003
9.437749e-003
9.436553e-003
9.434912e-003
9.432742e-003
9.429965e-003
9.426523e-003
9.422384e-003
9.417550e-003
9.412059e-003
9.405979e-003
9.399408e-003
9.392463e-003
9.385272e-003
9.377963e-003
9.370661e-003
9.363476e-003
9.356503e-003
9.349820e-003
9.343486e-003
9.337544e-003
9.332020e-003
9.326930e-003
9.322279e-003
9.318061e-003
9.314272e-003
9.310901e-003
9.307939e-003
9.305379e-003
9.303216e-003
9.301447e-003
9.300074e-003
9.299103e-003
9.298543e-003
9.298406e-003
9.298712e-003
9.299483e-003
9.300747e-003
9.302538e-003
9.304898e-003
9.307873e-003
9.311514e-003
9.315876e-003
9.321008e-003
9.326948e-003
9.333710e-003
9.341274e-003
9.349571e-003
9.358475e-003
9.367804e-003
9.377323e-003
9.386760e-003
9.395835e-003
9.404284e-003
9.411889e-003
9.418500e-003
9.424044e-003
9.428526e-003
9.432018e-003
9.434638e-003
9.436528e-003
9.437838e-003
9.438707e-003
9.439259e-003
9.439591e-003
9.439780e-003
9.439878e-003
9.439924e-003
9.439940e-003
9.439943e-003
9.439940e-003
9.439937e-003
9.439932e-003
9.439928e-003
9.439924e-003
9.439921e-003
9.439920e-003
9.439920e-003
9.439921e-003
9.439921e-003
9.439920e-003
9.439920e-003
9.439919e-003
9.439920e-003
9.439920e-003
9.439924e-003
9.439929e-003
9.439936e-003
9.439945e-003
9.439953e-003
9.439960e-003
9.439965e-003
9.439966e-003
9.439954e-003
9.439916e-003
9.439827e-003
9.439652e-003
9.439338e-003
9.438813e-003
9.437983e-003
9.436728e-003
9.434907e-003
9.432365e-003
9.428946e-003
9.424506e-003
9.418938e-003
9.412186e-003
9.404263e-003
9.395261e-003
9.385346e-003
9.374745e-003
9.363729e-003
9.352589e-003
9.341608e-003
9.331048e-003
9.321128e-003
9.312021e-003
9.303846e-003
9.296676e-003
9.290539e-003
9.285425e-003
9.281290e-003
9.278070e-003
9.275682e-003
9.274034e-003
9.273033e-003
9.272587e-003
9.272612e-003
9.273028e-003
9.273760e-003
9.274738e-003
9.275892e-003
9.277154e-003
9.278453e-003
9.279721e-003
9.280890e-003
9.281903e-003
9.282721e-003
9.283332e-003
9.283765e-003
9.284101e-003
9.284486e-003
9.285135e-003
9.286327e-003
9.288388e-003
9.291663e-003
9.296467e-003
9.303039e-003
9.311485e-003
9.321740e-003
9.333552e-003
9.346495e-003
9.360014e-003
9.373489e-003
9.386321e-003
9.398007e-003
9.408191e-003
9.416692e-003
9.423493e-003
9.428714e-003
9.432559e-003
9.435277e-003
9.437120e-003
9.438316e-003
9.439059e-003
9.439496e-003
9.439739e-003
9.439863e-003
9.439919e-003
9.439939e-003
9.439943e-003
9.439941e-003
9.439937e-003
9.439931e-003
9.439927e-003
9.439923e-003
9.439921e-003
9.439921e-003
9.439921e-003
9.439921e-003
9.439921e-003
9.439920e-003
9.439920e-003
9.439920e-003
9.439920e-003
9.439937e-003
9.439941e-003
9.439948e-003
9.439956e-003
9.439964e-003
9.439970e-003
9.439968e-003
9.439952e-003
9.439903e-003
9.439789e-003
9.439561e-003
9.439144e-003
9.438434e-003
9.437286e-003
9.435516e-003
9.432897e-003
9.429172e-003
9.424074e-003
9.417360e-003
9.408852e-003
9.398483e-003
9.386338e-003
9.372677e-003
9.357940e-003
9.342715e-003
9.327689e-003
9.313581e-003
9.301075e-003
9.290757e-003
9.283083e-003
9.278350e-003
9.276699e-003
9.278131e-003
9.282523e-003
9.289656e-003
9.299232e-003
9.310903e-003
9.324285e-003
9.338978e-003
9.354589e-003
9.370739e-003
9.387079e-003
9.403281e-003
9.419042e-003
9.434069e-003
9.448068e-003
9.460733e-003
9.471736e-003
9.480720e-003
9.487302e-003
9.491087e-003
9.491686e-003
9.488754e-003
9.482028e-003
9.471387e-003
9.456911e-003
9.438931e-003
9.418083e-003
9.395320e-003
9.371891e-003
9.349270e-003
9.329030e-003
9.312675e-003
9.301449e-003
9.296159e-003
9.297043e-003
9.303725e-003
9.315261e-003
9.330291e-003
9.347245e-003
9.364587e-003
9.381014e-003
9.395597e-003
9.407820e-003
9.417543e-003
9.424912e-003
9.430244e-003
9.433936e-003
9.436383e-003
9.437935e-003
9.438875e-003
9.439415e-003
9.439706e-003
9.439851e-003
9.439915e-003
9.439939e-003
9.439943e-003
9.439941e-003
9.439935e-003
9.439930e-003
9.439926e-003
9.439923e-003
9.439922e-003
9.439921e-003
9.439921e-003
9.439921e-003
9.439921e-003
9.439920e-003
9.439920e-003
9.439919e-003
9.439955e-003
9.439957e-003
9.439962e-003
9.439969e-003
9.439975e-003
9.439974e-003
9.439954e-003
9.439894e-003
9.439756e-003
9.439476e-003
9.438956e-003
9.438049e-003
9.436553e-003
9.434193e-003
9.430628e-003
9.425457e-003
9.418258e-003
9.408647e-003
9.396372e-003
9.381416e-003
9.364106e-003
9.345191e-003
9.325863e-003
9.307694e-003
9.292513e-003
9.282216e-003
9.278569e-003
9.283028e-003
9.296612e-003
9.319850e-003
9.352778e-003
9.395003e-003
9.445784e-003
9.504123e-003
9.568847e-003
9.638674e-003
9.712270e-003
9.788295e-003
9.865447e-003
9.942499e-003
1.001832e-002
1.009189e-002
1.016228e-002
1.022861e-002
1.029006e-002
1.034575e-002
1.039475e-002
1.043604e-002
1.046845e-002
1.049072e-002
1.050147e-002
1.049930e-002
1.048290e-002
1.045113e-002
1.040324e-002
1.033903e-002
1.025907e-002
1.016486e-002
1.005895e-002
9.944986e-003
9.827534e-003
9.711824e-003
9.603295e-003
9.507035e-003
9.427188e-003
9.366439e-003
9.325675e-003
9.303912e-003
9.298531e-003
9.305770e-003
9.321380e-003
9.341287e-003
9.362115e-003
9.381464e-003
9.397955e-003
9.411069e-003
9.420902e-003
9.427897e-003
9.432640e-003
9.435711e-003
9.437611e-003
9.438731e-003
9.439357e-003
9.439686e-003
9.439846e-003
9.439915e-003
9.439939e-003
9.439943e-003
9.439939e-003
9.439935e-003
9.439930e-003
9.439927e-003
9.439924e-003
9.439921e-003
9.439920e-003
9.439920e-003
9.439921e-003
9.439921e-003
9.439920e-003
9.439920e-003
9.439972e-003
9.439974e-003
9.439977e-003
9.439981e-003
9.439980e-003
9.439960e-003
9.439894e-003
9.439738e-003
9.439413e-003
9.438799e-003
9.437706e-003
9.435861e-003
9.432884e-003
9.428285e-003
9.421478e-003
9.411836e-003
9.398799e-003
9.382064e-003
9.361823e-003
9.339041e-003
9.315686e-003
9.294835e-003
9.280583e-003
9.277740e-003
9.291334e-003
9.326048e-003
9.385678e-003
9.472734e-003
9.588244e-003
9.731761e-003
9.901546e-003
1.009485e-002
1.030825e-002
1.053790e-002
1.077983e-002
1.103004e-002
1.128464e-002
1.153994e-002
1.179254e-002
1.203932e-002
1.227756e-002
1.250482e-002
1.271896e-002
1.291801e-002
1.310003e-002
1.326300e-002
1.340467e-002
1.352246e-002
1.361342e-002
1.367417e-002
1.370102e-002
1.369005e-002
1.363739e-002
1.353951e-002
1.339363e-002
1.319829e-002
1.295382e-002
1.266292e-002
1.233111e-002
1.196694e-002
1.158194e-002
1.119007e-002
1.080681e-002
1.044776e-002
1.012707e-002
9.855791e-003
9.640562e-003
9.482880e-003
9.379155e-003
9.321617e-003
9.299870e-003
9.302736e-003
9.319937e-003
9.343252e-003
9.367001e-003
9.387922e-003
9.404652e-003
9.417083e-003
9.425779e-003
9.431548e-003
9.435193e-003
9.437390e-003
9.438650e-003
9.439335e-003
9.439685e-003
9.439850e-003
9.439918e-003
9.439940e-003
9.439943e-003
9.439939e-003
9.439934e-003
9.439930e-003
9.439926e-003
9.439922e-003
9.439920e-003
9.439920e-003
9.439921e-003
9.439921e-003
9.439920e-003
9.439920e-003
9.439990e-003
9.439991e-003
9.439992e-003
9.439988e-003
9.439968e-003
9.439901e-003
9.439737e-003
9.439385e-003
9.438700e-003
9.437452e-003
9.435297e-003
9.431738e-003
9.426115e-003
9.417612e-003
9.405347e-003
9.388556e-003
9.366948e-003
9.341219e-003
9.313706e-003
9.289017e-003
9.274450e-003
9.279945e-003
9.317456e-003
9.399755e-003
9.538901e-003
9.744704e-003
1.002351e-002
1.037753e-002
1.080483e-002
1.129978e-002
1.185395e-002
1.245711e-002
1.309817e-002
1.376594e-002
1.444967e-002
1.513928e-002
1.582558e-002
1.650030e-002
1.715615e-002
1.778684e-002
1.838704e-002
1.895225e-002
1.947864e-002
1.996273e-002
2.040109e-002
2.079001e-002
2.112515e-002
2.140135e-002
2.161241e-002
2.175107e-002
2.180906e-002
2.177737e-002
2.164666e-002
2.140788e-002
2.105314e-002
2.057676e-002
1.997653e-002
1.925507e-002
1.842109e-002
1.749042e-002
1.648645e-002
1.543972e-002
1.438646e-002
1.336603e-002
1.241730e-002
1.157455e-002
1.086335e-002
1.029742e-002
9.877253e-003
9.590885e-003
9.416856e-003
9.328575e-003
9.298984e-003
9.304371e-003
9.326600e-003
9.353628e-003
9.378714e-003
9.398977e-003
9.413905e-003
9.424160e-003
9.430810e-003
9.434905e-003
9.437306e-003
9.438646e-003
9.439353e-003
9.439703e-003
9.439861e-003
9.439923e-003
9.439941e-003
9.439942e-003
9.439938e-003
9.439933e-003
9.439928e-003
9.439923e-003
9.439921e-003
9.439921e-003
9.439921e-003
9.439921e-003
9.439920e-003
9.439920e-003
9.440010e-003
9.440009e-003
9.440003e-003
9.439981e-003
9.439915e-003
9.439750e-003
9.439391e-003
9.438671e-003
9.437325e-003
9.434940e-003
9.430906e-003
9.424380e-003
9.414292e-003
9.399457e-003
9.378877e-003
9.352353e-003
9.321491e-003
9.291105e-003
9.270779e-003
9.276138e-003
9.329213e-003
9.457376e-003
9.690731e-003
1.005834e-002
1.058410e-002
1.128333e-002
1.216068e-002
1.320982e-002
1.441478e-002
1.575231e-002
1.719475e-002
1.871284e-002
2.027800e-002
2.186384e-002
2.344690e-002
2.500696e-002
2.652685e-002
2.799226e-002
2.939153e-002
3.071536e-002
3.195656e-002
3.310964e-002
3.417025e-002
3.513464e-002
3.599894e-002
3.675849e-002
3.740729e-002
3.793742e-002
3.833878e-002
3.859886e-002
3.870280e-002
3.863366e-002
3.837295e-002
3.790156e-002
3.720104e-002
3.625528e-002
3.505283e-002
3.358944e-002
3.187111e-002
2.991688e-002
2.776136e-002
2.545590e-002
2.306812e-002
2.067879e-002
1.837609e-002
1.624705e-002
1.436749e-002
1.279209e-002
1.154696e-002
1.062714e-002
9.999770e-003
9.612354e-003
9.403813e-003
9.315132e-003
9.297090e-003
9.313832e-003
9.342638e-003
9.371305e-003
9.394713e-003
9.411776e-003
9.423265e-003
9.430534e-003
9.434891e-003
9.437375e-003
9.438720e-003
9.439408e-003
9.439735e-003
9.439876e-003
9.439928e-003
9.439942e-003
9.439941e-003
9.439936e-003
9.439931e-003
9.439926e-003
9.439923e-003
9.439922e-003
9.439922e-003
9.439921e-003
9.439920e-003
9.439920e-003
9.440031e-003
9.440025e-003
9.440003e-003
9.439939e-003
9.439781e-003
9.439430e-003
9.438713e-003
9.437338e-003
9.434837e-003
9.430500e-003
9.423309e-003
9.411931e-003
9.394846e-003
9.370776e-003
9.339655e-003
9.304391e-003
9.273570e-003
9.264864e-003
9.308306e-003
9.448057e-003
9.741168e-003
1.025250e-002
1.104620e-002
1.217565e-002
1.367422e-002
1.554956e-002
1.778241e-002
2.032996e-002
2.313235e-002
2.612063e-002
2.922419e-002
3.237678e-002
3.552039e-002
3.860700e-002
4.159863e-002
4.446643e-002
4.718921e-002
4.975214e-002
5.214546e-002
5.436357e-002
5.640403e-002
5.826665e-002
5.995251e-002
6.146285e-002
6.279812e-002
6.395693e-002
6.493520e-002
6.572549e-002
6.631644e-002
6.669244e-002
6.683345e-002
6.671502e-002
6.630867e-002
6.558243e-002
6.450202e-002
6.303254e-002
6.114107e-002
5.880032e-002
5.599339e-002
5.271969e-002
4.900159e-002
4.489103e-002
4.047462e-002
3.587554e-002
3.124974e-002
2.677499e-002
2.263217e-002
1.898128e-002
1.593714e-002
1.355173e-002
1.180897e-002
1.063407e-002
9.914359e-003
9.524680e-003
9.349672e-003
9.297749e-003
9.305535e-003
9.334927e-003
9.366477e-003
9.392384e-003
9.410985e-003
9.423224e-003
9.430763e-003
9.435155e-003
9.437585e-003
9.438858e-003
9.439487e-003
9.439775e-003
9.439893e-003
9.439934e-003
9.439943e-003
9.439940e-003
9.439934e-003
9.439929e-003
9.439925e-003
9.439923e-003
9.439922e-003
9.439921e-003
9.439920e-003
9.439920e-003
9.440048e-003
9.440029e-003
9.439972e-003
9.439828e-003
9.439503e-003
9.438822e-003
9.437487e-003
9.434999e-003
9.430573e-003
9.423046e-003
9.410839e-003
9.392080e-003
9.365150e-003
9.330042e-003
9.291113e-003
9.261738e-003
9.270830e-003
9.370083e-003
9.639269e-003
1.018605e-002
1.113737e-002
1.262195e-002
1.474726e-002
1.757708e-002
2.111641e-002
2.530830e-002
3.004293e-002
3.517528e-002
4.054613e-002
4.600106e-002
5.140440e-002
5.664694e-002
6.164804e-002
6.635364e-002
7.073205e-002
7.476893e-002
7.846253e-002
8.181983e-002
8.485347e-002
8.757956e-002
9.001592e-002
9.218072e-002
9.409126e-002
9.576294e-002
9.720834e-002
9.843645e-002
9.945205e-002
1.002552e-001
1.008407e-001
1.011978e-001
1.013097e-001
1.011530e-001
1.006973e-001
9.990426e-002
9.872776e-002
9.711322e-002
9.499852e-002
9.231579e-002
8.899535e-002
8.497249e-002
8.019789e-002
7.465215e-002
6.836361e-002
6.142689e-002
5.401712e-002
4.639261e-002
3.887912e-002
3.183202e-002
2.558091e-002
2.037031e-002
1.631585e-002
1.339196e-002
1.145499e-002
1.029129e-002
9.671408e-003
9.392905e-003
9.302905e-003
9.301212e-003
9.330934e-003
9.364717e-003
9.392279e-003
9.411641e-003
9.424041e-003
9.431460e-003
9.435653e-003
9.437900e-003
9.439039e-003
9.439581e-003
9.439819e-003
9.439911e-003
9.439939e-003
9.439942e-003
9.439938e-003
9.439932e-003
9.439928e-003
9.439924e-003
9.439922e-003
9.439921e-003
9.439920e-003
9.439920e-003
9.440047e-003
9.440005e-003
9.439883e-003
9.439597e-003
9.438984e-003
9.437751e-003
9.435398e-003
9.431106e-003
9.423619e-003
9.411156e-003
9.391511e-003
9.362642e-003
9.324375e-003
9.282210e-003
9.254391e-003
9.282923e-003
9.447399e-003
9.877488e-003
1.075691e-002
1.231107e-002
1.477449e-002
1.834222e-002
2.311859e-002
2.908122e-002
3.607393e-002
4.383174e-002
5.202810e-002
6.032848e-002
6.843520e-002
7.611526e-002
8.321010e-002
8.963124e-002
9.534768e-002
1.003706e-001
1.047389e-001
1.085079e-001
1.117398e-001
1.144983e-001
1.168438e-001
1.188321e-001
1.205124e-001
1.219273e-001
1.231130e-001
1.240995e-001
1.249110e-001
1.255666e-001
1.260805e-001
1.264621e-001
1.267164e-001
1.268441e-001
1.268404e-001
1.266949e-001
1.263905e-001
1.259011e-001
1.251898e-001
1.242058e-001
1.228810e-001
1.211258e-001
1.188263e-001
1.158423e-001
1.120108e-001
1.071568e-001
1.011177e-001
9.378201e-002
8.514116e-002
7.534336e-002
6.472974e-002
5.382897e-002
4.329236e-002
3.377326e-002
2.578587e-002
1.959710e-002
1.519502e-002
1.234066e-002
1.067126e-002
9.807620e-003
9.429544e-003
9.307612e-003
9.299925e-003
9.330784e-003
9.366189e-003
9.394404e-003
9.413648e-003
9.425594e-003
9.432520e-003
9.436311e-003