# vtk DataFile Version 3.0
vtk output
ASCII
DATASET STRUCTURED_POINTS
DIMENSIONS 100 100 1
SPACING 1 1 1
ORIGIN 0 0 0
POINT_DATA 10000
SCALARS SFBox_profile double
LOOKUP_TABLE default 
0.000000e+000
0.000000e+000
0.000000e+000
0.000000e+000
0.000000e+000
0.000000e+000
0.000000e+000
0.000000e+000
0.000000e+000
0.000000e+000
0.000000e+000
0.000000e+000
0.000000e+000
0.000000e+000
0.000000e+000
0.000000e+000
0.000000e+000
0.000000e+000
0.000000e+000
0.000000e+000
0.000000e+000
0.000000e+000
0.000000e+000
0.000000e+000
0.000000e+000
0.000000e+000
0.000000e+000
0.000000e+000
0.000000e+000
0.000000e+000
0.000000e+000
0.000000e+000
0.000000e+000
0.000000e+000
0.000000e+000
0.000000e+000
0.000000e+000
0.000000e+000
0.000000e+000
0.000000e+000
0.000000e+000
0.000000e+000
0.000000e+000
0.000000e+000
0.000000e+000
0.000000e+000
0.000000e+000
0.000000e+000
0.000000e+000
0.000000e+000
0.000000e+000
0.000000e+000
0.000000e+000
0.000000e+000
0.000000e+000
0.000000e+000
0.000000e+000
0.000000e+000
0.000000e+000
0.000000e+000
0.000000e+000
0.000000e+000
0.000000e+000
0.000000e+000
0.000000e+000
0.000000e+000
0.000000e+000
0.000000e+000
0.000000e+000
0.000000e+000
0.000000e+000
0.000000e+000
0.000000e+000
0.000000e+000
0.000000e+000
0.000000e+000
0.000000e+000
0.000000e+000
0.000000e+000
0.000000e+000
0.000000e+000
0.000000e+000
0.000000e+000
0.000000e+000
0.000000e+000
0.000000e+000
0.000000e+000
0.000000e+000
0.000000e+000
0.000000e+000
0.000000e+000
0.000000e+000
0.000000e+000
0.000000e+000
0.000000e+000
0.000000e+000
0.000000e+000
0.000000e+000
0.000000e+000
0.000000e+000
7.759098e-010
4.971576e-010
9.998330e-011
-2.535428e-010
-4.977970e-010
-6.478720e-010
-7.008259e-010
-5.728193e-010
-1.608237e-010
5.090030e-010
1.190017e-009
1.501850e-009
1.169710e-009
2.437692e-010
-8.844724e-010
-1.702981e-009
-1.882578e-009
-1.442158e-009
-6.697881e-010
1.105416e-010
7.293463e-010
1.187824e-009
1.534546e-009
1.748352e-009
1.737899e-009
1.438505e-009
8.951991e-010
2.478804e-010
-3.615565e-010
-8.689285e-010
-1.288150e-009
-1.649679e-009
-1.947680e-009
-2.143529e-009
-2.209278e-009
-2.158943e-009
-2.037481e-009
-1.884732e-009
-1.712872e-009
-1.515228e-009
-1.290210e-009
-1.053073e-009
-8.263668e-010
-6.233444e-010
-4.428064e-010
-2.785671e-010
-1.311133e-010
-8.941066e-012
8.008342e-011
1.363579e-010
1.664962e-010
1.744028e-010
1.560432e-010
1.042644e-010
1.839031e-011
-9.286731e-011
-2.197453e-010
-3.621697e-010
-5.293618e-010
-7.260612e-010
-9.396314e-010
-1.144456e-009
-1.321941e-009
-1.474254e-009
-1.612674e-009
-1.729019e-009
-1.782319e-009
-1.722190e-009
-1.530835e-009
-1.239488e-009
-8.969878e-010
-5.211326e-010
-8.979728e-011
4.081740e-010
9.104679e-010
1.280637e-009
1.388423e-009
1.205206e-009
8.233292e-010
3.775423e-010
-5.408706e-011
-4.681236e-010
-8.545226e-010
-1.109447e-009
-1.057031e-009
-5.937479e-010
1.632769e-010
8.746788e-010
1.163944e-009
8.678749e-010
1.622986e-010
-5.400625e-010
-8.513750e-010
-6.460416e-010
-1.157041e-010
3.793450e-010
5.472452e-010
3.330527e-010
-7.457313e-011
-3.826336e-010
3.786312e-010
1.103633e-010
-2.071912e-010
-3.422715e-010
-2.173411e-010
5.070110e-011
2.556718e-010
2.616957e-010
9.228802e-011
-1.113394e-010
-2.149058e-010
-1.887847e-010
-1.025552e-010
-3.631568e-011
-4.805174e-013
6.023198e-011
1.886463e-010
3.456331e-010
4.227411e-010
3.294423e-010
7.430638e-011
-2.352095e-010
-4.727560e-010
-5.789475e-010
-5.799889e-010
-5.343226e-010
-4.679891e-010
-3.600974e-010
-1.823962e-010
5.609439e-011
3.060914e-010
5.154493e-010
6.657820e-010
7.737198e-010
8.619316e-010
9.333806e-010
9.728564e-010
9.683249e-010
9.263373e-010
8.666422e-010
8.049518e-010
7.431590e-010
6.751586e-010
5.991025e-010
5.221531e-010
4.542059e-010
3.992450e-010
3.541022e-010
3.149660e-010
2.834253e-010
2.651757e-010
2.633518e-010
2.746783e-010
2.932763e-010
3.178648e-010
3.535122e-010
4.048889e-010
4.682305e-010
5.320905e-010
5.876295e-010
6.371707e-010
6.895631e-010
7.452134e-010
7.874827e-010
7.929525e-010
7.523721e-010
6.792191e-010
5.934942e-010
4.963902e-010
3.658034e-010
1.831346e-010
-3.404289e-011
-2.309930e-010
-3.541087e-010
-3.927370e-010
-3.803347e-010
-3.514293e-010
-3.000809e-010
-1.884612e-010
-2.410378e-012
2.035830e-010
3.267692e-010
2.941121e-010
1.289662e-010
-5.852057e-011
-1.538344e-010
-1.225662e-010
-2.497746e-011
4.634218e-011
4.506154e-011
-2.494732e-012
-3.727140e-011
-2.741169e-011
8.752568e-012
3.078621e-011
1.986087e-011
-6.470302e-012
-1.830491e-011
-6.454413e-012
1.063058e-011
-2.197019e-010
-3.317328e-010
-4.000366e-010
-2.495144e-010
1.712650e-010
7.110785e-010
1.064877e-009
9.452512e-010
2.830121e-010
-6.794197e-010
-1.485864e-009
-1.712927e-009
-1.211878e-009
-1.880399e-010
9.276293e-010
1.716640e-009
1.960111e-009
1.675033e-009
1.022440e-009
1.897774e-010
-6.684381e-010
-1.426173e-009
-1.969147e-009
-2.207461e-009
-2.109265e-009
-1.716781e-009
-1.123423e-009
-4.299136e-010
2.858941e-010
9.701328e-010
1.579338e-009
2.074839e-009
2.430961e-009
2.644218e-009
2.730518e-009
2.712332e-009
2.608368e-009
2.433523e-009
2.204592e-009
1.942287e-009
1.666583e-009
1.391103e-009
1.122873e-009
8.670078e-010
6.304685e-010
4.210130e-010
2.436120e-010
9.921216e-011
-1.268185e-011
-9.096995e-011
-1.331326e-010
-1.380422e-010
-1.074661e-010
-4.405790e-011
5.169689e-011
1.813921e-010
3.449899e-010
5.377809e-010
7.519748e-010
9.812185e-010
1.222036e-009
1.469204e-009
1.709613e-009
1.922057e-009
2.084103e-009
2.178509e-009
2.191684e-009
2.106796e-009
1.902706e-009
1.565056e-009
1.101572e-009
5.467440e-010
-4.834946e-011
-6.284722e-010
-1.134375e-009
-1.494297e-009
-1.628053e-009
-1.477696e-009
-1.049447e-009
-4.315632e-010
2.319055e-010
7.931659e-010
1.139451e-009
1.200629e-009
9.476684e-010
4.141271e-010
-2.652115e-010
-8.515874e-010
-1.084806e-009
-8.313131e-010
-1.998083e-010
4.811455e-010
8.409360e-010
6.960051e-010
1.715670e-010
-3.780054e-010
-6.032596e-010
-3.894768e-010
7.562009e-011
4.411944e-010
-7.411289e-010
-4.783827e-010
-1.089432e-010
2.184381e-010
4.569391e-010
6.277642e-010
7.083558e-010
5.838086e-010
1.439175e-010
-5.484913e-010
-1.192264e-009
-1.392828e-009
-9.374795e-010
1.592281e-011
1.005423e-009
1.552356e-009
1.453898e-009
8.653630e-010
1.355478e-010
-4.465207e-010
-7.912978e-010
-9.611356e-010
-1.028948e-009
-9.917771e-010
-8.016903e-010
-4.525574e-010
-2.053702e-011
3.792788e-010
6.690216e-010
8.428234e-010
9.382159e-010
9.848131e-010
9.818719e-010
9.160754e-010
7.897428e-010
6.275951e-010
4.596789e-010
3.023679e-010
1.557813e-010
1.527779e-011
-1.181162e-010
-2.378093e-010
-3.384926e-010
-4.205044e-010
-4.879254e-010
-5.440760e-010
-5.894388e-010
-6.230298e-010
-6.447018e-010
-6.560198e-010
-6.593957e-010
-6.564756e-010
-6.469495e-010
-6.287506e-010
-5.998673e-010
-5.603369e-010
-5.119586e-010
-4.551418e-010
-3.861314e-010
-2.988977e-010
-1.912265e-010
-6.838716e-011
6.138488e-011
1.958849e-010
3.408271e-010
4.985510e-010
6.535615e-010
7.731188e-010
8.276598e-010
8.117983e-010
7.406881e-010
6.217662e-010
4.343999e-010
1.496943e-010
-2.191242e-010
-5.875073e-010
-8.339399e-010
-8.784925e-010
-7.339087e-010
-4.772982e-010
-1.716589e-010
1.748743e-010
5.592590e-010
8.940441e-010
9.930879e-010
6.912236e-010
1.924041e-011
-7.296816e-010
-1.141065e-009
-9.533734e-010
-2.609104e-010
5.232163e-010
9.325374e-010
7.532095e-010
1.530222e-010
-4.495776e-010
-6.731119e-010
-4.157678e-010
1.007296e-010
4.979868e-010
-9.481214e-010
-2.671586e-010
5.266184e-010
8.456976e-010
5.168538e-010
-1.412015e-010
-6.173947e-010
-6.116661e-010
-2.168421e-010
2.309794e-010
4.597325e-010
4.452904e-010
3.379433e-010
2.473477e-010
1.195470e-010
-1.746174e-010
-6.430961e-010
-1.081483e-009
-1.194524e-009
-8.270518e-010
-9.450469e-011
7.003542e-010
1.280872e-009
1.551174e-009
1.579657e-009
1.465922e-009
1.236566e-009
8.566979e-010
3.157649e-010
-3.175880e-010
-9.263644e-010
-1.421477e-009
-1.784939e-009
-2.047207e-009
-2.234659e-009
-2.343046e-009
-2.354318e-009
-2.267834e-009
-2.110000e-009
-1.916497e-009
-1.709984e-009
-1.495234e-009
-1.271414e-009
-1.044842e-009
-8.296491e-010
-6.389651e-010
-4.777844e-010
-3.442884e-010
-2.366746e-010
-1.579005e-010
-1.140798e-010
-1.088477e-010
-1.397345e-010
-2.005378e-010
-2.876357e-010
-4.034694e-010
-5.522535e-010
-7.311459e-010
-9.266697e-010
-1.122347e-009
-1.310683e-009
-1.494697e-009
-1.673346e-009
-1.824893e-009
-1.909803e-009
-1.896341e-009
-1.784014e-009
-1.596296e-009
-1.346049e-009
-1.013327e-009
-5.701704e-010
-3.638832e-011
4.936473e-010
8.945692e-010
1.092812e-009
1.107378e-009
1.003268e-009
8.065613e-010
4.811701e-010
7.752709e-012
-5.130654e-010
-8.604912e-010
-8.358455e-010
-4.376837e-010
9.721372e-011
4.476586e-010
4.398892e-010
1.628941e-010
-1.267715e-010
-2.198377e-010
-1.021022e-010
7.597080e-011
1.541291e-010
9.145138e-011
-3.124644e-011
-1.079987e-010
-9.711403e-011
-3.083965e-011
3.634314e-011
7.306449e-011
-7.032480e-010
6.857250e-011
9.077701e-010
1.070071e-009
3.356701e-010
-8.310331e-010
-1.621854e-009
-1.461865e-009
-4.013829e-010
9.441597e-010
1.829271e-009
1.846411e-009
1.100239e-009
2.421181e-011
-9.486729e-010
-1.587751e-009
-1.840093e-009
-1.700735e-009
-1.158141e-009
-2.640752e-010
7.842140e-010
1.680825e-009
2.166684e-009
2.171030e-009
1.814238e-009
1.281119e-009
6.898611e-010
6.611831e-011
-5.855732e-010
-1.211234e-009
-1.714325e-009
-2.022569e-009
-2.137126e-009
-2.115742e-009
-2.015108e-009
-1.853447e-009
-1.622598e-009
-1.324287e-009
-9.872516e-010
-6.510839e-010
-3.396901e-010
-5.311407e-011
2.179798e-010
4.742841e-010
7.045758e-010
8.967430e-010
1.048592e-009
1.167235e-009
1.259479e-009
1.324310e-009
1.354922e-009
1.347258e-009
1.305355e-009
1.237283e-009
1.145615e-009
1.023184e-009
8.603529e-010
6.572714e-010
4.269674e-010
1.833542e-010
-7.383166e-011
-3.577981e-010
-6.735243e-010
-9.977789e-010
-1.285688e-009
-1.501984e-009
-1.643500e-009
-1.723175e-009
-1.728541e-009
-1.604170e-009
-1.290126e-009
-7.870980e-010
-1.803396e-010
4.098032e-010
9.035803e-010
1.282114e-009
1.529364e-009
1.567791e-009
1.281982e-009
6.358865e-010
-2.235184e-010
-9.946590e-010
-1.384982e-009
-1.282554e-009
-7.981025e-010
-1.613517e-010
4.172830e-010
8.044385e-010
9.175280e-010
7.066309e-010
2.072048e-010
-3.919129e-010
-7.846789e-010
-7.265317e-010
-2.362180e-010
3.672560e-010
6.678166e-010
4.615515e-010
-7.667900e-011
-5.197605e-010
-1.238349e-011
2.622639e-010
5.282216e-010
4.662826e-010
-3.187060e-011
-7.374176e-010
-1.189344e-009
-9.994754e-010
-1.601436e-010
8.886662e-010
1.521211e-009
1.347106e-009
4.772862e-010
-5.680913e-010
-1.227710e-009
-1.248894e-009
-7.686223e-010
-1.210044e-010
4.192194e-010
7.481861e-010
8.702269e-010
7.932390e-010
5.092472e-010
5.568575e-011
-4.447444e-010
-8.330326e-010
-1.009515e-009
-9.805537e-010
-8.163951e-010
-5.735436e-010
-2.615543e-010
1.254477e-010
5.628500e-010
9.912664e-010
1.355068e-009
1.637872e-009
1.858675e-009
2.038969e-009
2.179173e-009
2.265721e-009
2.294173e-009
2.279965e-009
2.246933e-009
2.209060e-009
2.165272e-009
2.110103e-009
2.046185e-009
1.985120e-009
1.937557e-009
1.904616e-009
1.880011e-009
1.859849e-009
1.848680e-009
1.854540e-009
1.878180e-009
1.909055e-009
1.934011e-009
1.949823e-009
1.964221e-009
1.981549e-009
1.988086e-009
1.955963e-009
1.865188e-009
1.720170e-009
1.539369e-009
1.327029e-009
1.061209e-009
7.188895e-010
3.159183e-010
-8.398961e-011
-4.077221e-010
-6.207261e-010
-7.311409e-010
-7.456868e-010
-6.341459e-010
-3.573636e-010
5.892759e-011
4.863064e-010
7.494276e-010
7.374646e-010
4.707571e-010
6.678914e-011
-3.454006e-010
-6.681718e-010
-8.103090e-010
-6.695036e-010
-2.009391e-010
4.646045e-010
9.965804e-010
1.034378e-009
4.670534e-010
-4.101896e-010
-1.041413e-009
-9.939368e-010
-2.947827e-010
5.610853e-010
9.628750e-010
6.375260e-010
-1.451261e-010
-7.779713e-010
8.952018e-010
2.491640e-010
-4.848391e-010
-7.592305e-010
-4.564086e-010
9.888924e-011
4.806233e-010
5.053596e-010
2.856167e-010
1.718077e-011
-2.282643e-010
-4.904267e-010
-7.437744e-010
-7.991140e-010
-4.339727e-010
3.589668e-010
1.263988e-009
1.810765e-009
1.689454e-009
9.454182e-010
-9.346594e-011
-1.060424e-009
-1.743053e-009
-2.098285e-009
-2.147676e-009
-1.897560e-009
-1.354120e-009
-5.797905e-010
2.977925e-010
1.142543e-009
1.872284e-009
2.467509e-009
2.932163e-009
3.258925e-009
3.433163e-009
3.458976e-009
3.369261e-009
3.207226e-009
3.001745e-009
2.762597e-009
2.495625e-009
2.216400e-009
1.947003e-009
1.702457e-009
1.484117e-009
1.286989e-009
1.111296e-009
9.650756e-010
8.562187e-010
7.844910e-010
7.431883e-010
7.282396e-010
7.437119e-010
7.968671e-010
8.884137e-010
1.009937e-009
1.152547e-009
1.316828e-009
1.510874e-009
1.736438e-009
1.978620e-009
2.212574e-009
2.420740e-009
2.599081e-009
2.741717e-009
2.820688e-009
2.788269e-009
2.605570e-009
2.268344e-009
1.800664e-009
1.225800e-009
5.559935e-010
-1.762999e-010
-8.785377e-010
-1.407108e-009
-1.637048e-009
-1.533541e-009
-1.156398e-009
-6.012358e-010
4.531283e-011
6.796291e-010
1.130273e-009
1.190041e-009
7.644747e-010
1.960848e-011
-6.452954e-010
-8.424934e-010
-4.858787e-010
1.261367e-010
5.305373e-010
4.545760e-010
1.364578e-011
-4.058850e-010
-4.688179e-010
-1.472909e-010
2.840534e-010
4.838840e-010
3.078256e-010
-9.775931e-011
-4.212510e-010
1.537198e-009
1.472396e-010
-1.376270e-009
-1.762359e-009
-7.122508e-010
9.499456e-010
1.995349e-009
1.732156e-009
4.279239e-010
-1.027452e-009
-1.830721e-009
-1.740853e-009
-1.029642e-009
-1.080611e-010
7.603675e-010
1.453983e-009
1.837826e-009
1.724398e-009
1.026994e-009
-7.297811e-011
-1.159046e-009
-1.819895e-009
-1.890289e-009
-1.491116e-009
-8.675270e-010
-2.002346e-010
4.511996e-010
1.074289e-009
1.620636e-009
2.007644e-009
2.183612e-009
2.170239e-009
2.037760e-009
1.847817e-009
1.624884e-009
1.373500e-009
1.107643e-009
8.559109e-010
6.428418e-010
4.734535e-010
3.381809e-010
2.286295e-010
1.447715e-010
8.851766e-011
5.543196e-011
3.579386e-011
2.248116e-011
1.491023e-011
1.456631e-011
1.882362e-011
2.144936e-011
1.901891e-011
1.461086e-011
1.364656e-011
1.719526e-011
2.194523e-011
2.771453e-011
4.285479e-011
7.934730e-011
1.425980e-010
2.293721e-010
3.381414e-010
4.786498e-010
6.649260e-010
8.955986e-010
1.144649e-009
1.377002e-009
1.571922e-009
1.722111e-009
1.803813e-009
1.755925e-009
1.508042e-009
1.044044e-009
4.368546e-010
-1.898437e-010
-7.362744e-010
-1.152679e-009
-1.386852e-009
-1.330330e-009
-8.685490e-010
-3.077284e-011
9.064920e-010
1.513030e-009
1.473404e-009
8.207753e-010
-7.327801e-011
-7.541165e-010
-9.699353e-010
-7.642632e-010
-3.485334e-010
7.873144e-011
4.015031e-010
5.451945e-010
4.502990e-010
1.325030e-010
-2.497897e-010
-4.509163e-010
-3.210775e-010
4.367154e-011
3.518705e-010
1.370780e-009
6.200025e-011
-1.355313e-009
-1.658546e-009
-5.658175e-010
1.082595e-009
2.020105e-009
1.545188e-009
2.599026e-011
-1.441576e-009
-1.894153e-009
-1.169722e-009
1.022317e-010
1.078713e-009
1.306260e-009
8.884306e-010
2.112557e-010
-4.143876e-010
-8.705073e-010
-1.110149e-009
-1.035850e-009
-5.508981e-010
2.896755e-010
1.229532e-009
1.947411e-009
2.257237e-009
2.187223e-009
1.887227e-009
1.481316e-009
1.007997e-009
4.722346e-010
-8.213537e-011
-5.672680e-010
-9.080320e-010
-1.089147e-009
-1.145371e-009
-1.116073e-009
-1.016445e-009
-8.469992e-010
-6.178925e-010
-3.561815e-010
-9.161954e-011
1.587227e-010
3.908457e-010
6.035840e-010
7.920170e-010
9.499549e-010
1.074713e-009
1.166992e-009
1.227338e-009
1.255029e-009
1.250315e-009
1.215316e-009
1.151139e-009
1.055531e-009
9.258777e-010
7.646423e-010
5.791315e-010
3.741398e-010
1.475456e-010
-1.015216e-010
-3.582368e-010
-5.899960e-010
-7.642271e-010
-8.676805e-010
-9.013003e-010
-8.526140e-010
-6.818978e-010
-3.521217e-010
1.180735e-010
6.375533e-010
1.091717e-009
1.411743e-009
1.586313e-009
1.601472e-009
1.390387e-009
8.829990e-010
1.333173e-010
-6.141650e-010
-1.030884e-009
-9.273229e-010
-3.997008e-010
2.385732e-010
6.767354e-010
7.769142e-010
5.702826e-010
1.518584e-010
-3.662905e-010
-8.055682e-010
-9.101051e-010
-5.003410e-010
2.968069e-010
1.003131e-009
1.083611e-009
3.985212e-010
-5.952996e-010
-1.144137e-009
-8.029074e-010
1.672742e-010
9.841857e-010
2.095257e-010
-2.611654e-011
-2.717904e-010
-2.805668e-010
7.426625e-012
3.715933e-010
4.516533e-010
6.654730e-011
-5.497192e-010
-8.579915e-010
-4.504385e-010
5.405608e-010
1.454213e-009
1.578126e-009
7.056935e-010
-6.993832e-010
-1.855791e-009
-2.208418e-009
-1.713604e-009
-7.058744e-010
4.316656e-010
1.467524e-009
2.286754e-009
2.776201e-009
2.816830e-009
2.388839e-009
1.642226e-009
8.281434e-010
1.492200e-010
-3.283436e-010
-6.358507e-010
-8.055554e-010
-8.255355e-010
-6.754785e-010
-3.805166e-010
-1.487831e-011
3.441000e-010
6.574475e-010
9.228679e-010
1.144021e-009
1.310412e-009
1.405336e-009
1.424871e-009
1.383851e-009
1.305095e-009
1.206535e-009
1.098443e-009
9.887333e-010
8.874278e-010
8.063157e-010
7.562626e-010
7.447141e-010
7.733519e-010
8.366820e-010
9.243026e-010
1.026520e-009
1.136827e-009
1.245734e-009
1.331608e-009
1.362348e-009
1.312478e-009
1.179933e-009
9.816915e-010
7.303914e-010
4.216111e-010
5.551733e-011
-3.252095e-010
-6.292600e-010
-7.637842e-010
-6.935618e-010
-4.478487e-010
-6.667683e-011
4.434154e-010
1.074121e-009
1.726497e-009
2.181212e-009
2.202213e-009
1.706526e-009
8.437182e-010
-9.403973e-011
-8.413836e-010
-1.250363e-009
-1.258303e-009
-8.466203e-010
-1.013441e-010
6.890815e-010
1.090560e-009
8.074134e-010
-1.296236e-011
-7.853229e-010
-9.016533e-010
-2.500779e-010
6.379889e-010
1.001522e-009
5.022590e-010
-4.587689e-010
-1.064750e-009
-7.841458e-010
1.611965e-010
9.773631e-010
-1.444530e-009
-1.695557e-010
1.209764e-009
1.560212e-009
6.809398e-010
-6.767313e-010
-1.537455e-009
-1.442534e-009
-6.129844e-010
4.191050e-010
1.225969e-009
1.594145e-009
1.415045e-009
6.534169e-010
-5.153797e-010
-1.618274e-009
-2.075323e-009
-1.586382e-009
-3.721286e-010
9.702192e-010
1.875807e-009
2.131650e-009
1.876542e-009
1.371170e-009
8.017111e-010
2.649285e-010
-1.443700e-010
-3.036109e-010
-1.345426e-010
3.202584e-010
9.154097e-010
1.498231e-009
1.982200e-009
2.337554e-009
2.535460e-009
2.521277e-009
2.242278e-009
1.688528e-009
8.984045e-010
-7.223858e-011
-1.179714e-009
-2.393508e-009
-3.677875e-009
-4.980898e-009
-6.242626e-009
-7.410714e-009
-8.447279e-009
-9.323827e-009
-1.001305e-008
-1.048600e-008
-1.071599e-008
-1.068550e-008
-1.039172e-008
-9.846653e-009
-9.071062e-009
-8.087498e-009
-6.921378e-009
-5.612101e-009
-4.222540e-009
-2.831780e-009
-1.512611e-009
-3.159200e-010
7.192818e-010
1.542130e-009
2.087525e-009
2.310954e-009
2.229487e-009
1.920626e-009
1.474033e-009
9.504799e-010
4.003367e-010
-8.032052e-011
-3.395011e-010
-2.508719e-010
1.756751e-010
7.695642e-010
1.296204e-009
1.580619e-009
1.542669e-009
1.149895e-009
4.078257e-010
-5.471645e-010
-1.365352e-009
-1.597110e-009
-1.013775e-009
1.207956e-010
1.133383e-009
1.397134e-009
8.077340e-010
-1.396449e-010
-7.554515e-010
-6.950831e-010
-1.743884e-010
2.891553e-010
3.405738e-010
4.455175e-011
-2.472968e-010
-2.485974e-010
1.844726e-011
2.791151e-010
-2.549232e-009
-3.052770e-010
2.082917e-009
2.595525e-009
9.427264e-010
-1.382814e-009
-2.514773e-009
-1.739536e-009
1.245493e-010
1.615532e-009
1.833766e-009
9.405807e-010
-2.609664e-010
-1.063271e-009
-1.226495e-009
-8.494580e-010
-1.021208e-010
8.400829e-010
1.699256e-009
2.102596e-009
1.799287e-009
8.886272e-010
-1.977707e-010
-9.705733e-010
-1.168887e-009
-8.269734e-010
-1.296682e-010
7.503654e-010
1.686652e-009
2.536297e-009
3.106942e-009
3.209178e-009
2.732451e-009
1.660442e-009
2.117779e-011
-2.162246e-009
-4.870550e-009
-8.054264e-009
-1.161741e-008
-1.543886e-008
-1.940520e-008
-2.342148e-008
-2.739737e-008
-3.123244e-008
-3.481914e-008
-3.805816e-008
-4.086889e-008
-4.318673e-008
-4.495345e-008
-4.611222e-008
-4.661240e-008
-4.642025e-008
-4.552749e-008
-4.395094e-008
-4.172467e-008
-3.889371e-008
-3.551884e-008
-3.169029e-008
-2.753423e-008
-2.319920e-008
-1.883041e-008
-1.455711e-008
-1.050505e-008
-6.813990e-009
-3.627381e-009
-1.051840e-009
8.737054e-010
2.162479e-009
2.835838e-009
2.911335e-009
2.451370e-009
1.621032e-009
6.747307e-010
-1.371868e-010
-6.560931e-010
-8.164294e-010
-5.923126e-010
6.488729e-014
8.093548e-010
1.489374e-009
1.630353e-009
1.054900e-009
2.797981e-011
-8.615967e-010
-1.105516e-009
-6.372615e-010
1.560988e-010
7.567761e-010
8.698327e-010
5.328755e-010
-1.635453e-011
-5.133657e-010
-7.464064e-010
-5.916017e-010
-9.032854e-011
4.893594e-010
7.585764e-010
4.912703e-010
-1.444916e-010
-6.685731e-010
-2.199437e-009
-2.720912e-010
1.720542e-009
2.029737e-009
5.181923e-010
-1.345083e-009
-1.879615e-009
-6.742462e-010
1.135401e-009
1.944046e-009
1.070928e-009
-7.486331e-010
-2.089554e-009
-2.017108e-009
-6.869877e-010
9.971788e-010
2.170989e-009
2.504004e-009
2.132417e-009
1.333007e-009
3.486785e-010
-5.593094e-010
-1.062154e-009
-8.915739e-010
-4.442626e-011
1.164701e-009
2.273510e-009
2.902800e-009
2.848268e-009
2.004927e-009
2.605491e-010
-2.517878e-009
-6.417103e-009
-1.142866e-008
-1.747224e-008
-2.445135e-008
-3.227441e-008
-4.082883e-008
-4.995230e-008
-5.943947e-008
-6.907478e-008
-7.865571e-008
-8.798937e-008
-9.687836e-008
-1.051190e-007
-1.125158e-007
-1.188963e-007
-1.241137e-007
-1.280387e-007
-1.305540e-007
-1.315601e-007
-1.309893e-007
-1.288175e-007
-1.250657e-007
-1.197935e-007
-1.130967e-007
-1.051165e-007
-9.605301e-008
-8.616472e-008
-7.574600e-008
-6.509707e-008
-5.451049e-008
-4.427688e-008
-3.468393e-008
-2.598576e-008
-1.835893e-008
-1.188996e-008
-6.612164e-009
-2.550465e-009
2.844154e-010
1.951878e-009
2.617397e-009
2.513567e-009
1.866971e-009
8.875361e-010
-1.593002e-010
-9.112987e-010
-1.026017e-009
-4.154898e-010
6.176680e-010
1.521173e-009
1.836668e-009
1.466580e-009
6.608741e-010
-2.035871e-010
-8.157280e-010
-9.801498e-010
-6.276689e-010
9.858937e-011
7.804406e-010
9.039976e-010
2.784482e-010
-6.722151e-010
-1.142836e-009
-6.349745e-010
5.087667e-010
1.310134e-009
1.012715e-009
-1.844598e-010
-1.252707e-009
-3.621580e-010
-3.895445e-012
2.825703e-010
1.391877e-010
-3.229309e-010
-5.705548e-010
-1.513707e-010
7.788808e-010
1.445197e-009
1.079686e-009
-3.211018e-010
-1.834565e-009
-2.285728e-009
-1.211801e-009
7.371529e-010
2.315982e-009
2.642953e-009
1.769300e-009
4.632026e-010
-4.591362e-010
-6.213251e-010
-9.078359e-011
8.887336e-010
2.064687e-009
3.131158e-009
3.653020e-009
3.137621e-009
1.206859e-009
-2.315790e-009
-7.487125e-009
-1.438829e-008
-2.317480e-008
-3.400082e-008
-4.691929e-008
-6.185673e-008
-7.865799e-008
-9.712575e-008
-1.170113e-007
-1.379847e-007
-1.596349e-007
-1.815079e-007
-2.031493e-007
-2.241200e-007
-2.439894e-007
-2.623322e-007
-2.787422e-007
-2.928513e-007
-3.043388e-007
-3.129256e-007
-3.183697e-007
-3.204720e-007
-3.190948e-007
-3.141775e-007
-3.057435e-007
-2.939004e-007
-2.788462e-007
-2.608865e-007
-2.404474e-007
-2.180667e-007
-1.943611e-007
-1.699883e-007
-1.456245e-007
-1.219473e-007
-9.959625e-008
-7.910477e-008
-6.083937e-008
-4.499414e-008
-3.163818e-008
-2.075859e-008
-1.225404e-008
-5.910726e-009
-1.435401e-009
1.444289e-009
2.909942e-009
3.116375e-009
2.352692e-009
1.124910e-009
2.913394e-011
-5.064346e-010
-3.880996e-010
1.942650e-010
9.345749e-010
1.513850e-009
1.621742e-009
1.049216e-009
-8.902803e-011
-1.225580e-009
-1.603387e-009
-8.773204e-010
4.630101e-010
1.366148e-009
1.089094e-009
-9.764862e-011
-1.099010e-009
-9.894588e-010
1.041702e-010
1.108175e-009
1.032875e-009
-6.167603e-011
-1.119460e-009
1.965660e-009
3.298331e-010
-1.440502e-009
-1.927017e-009
-9.206380e-010
6.313191e-010
1.581761e-009
1.445257e-009
5.143951e-010
-5.786240e-010
-1.282835e-009
-1.273445e-009
-4.920311e-010
7.579622e-010
1.815359e-009
1.991195e-009
1.096836e-009
-3.007903e-010
-1.215354e-009
-9.385457e-010
4.856268e-010
2.366777e-009
3.859941e-009
4.356362e-009
3.502244e-009
9.892584e-010
-3.581141e-009
-1.064927e-008
-2.059965e-008
-3.376524e-008
-5.050994e-008
-7.124984e-008
-9.634720e-008
-1.259598e-007
-1.599691e-007
-1.980163e-007
-2.395724e-007
-2.839708e-007
-3.304061e-007
-3.779501e-007
-4.256098e-007
-4.723980e-007
-5.173747e-007
-5.596540e-007
-5.984006e-007
-6.328395e-007
-6.622752e-007
-6.861006e-007
-7.037925e-007
-7.149045e-007
-7.190732e-007
-7.160392e-007
-7.056696e-007
-6.879744e-007
-6.631202e-007
-6.314541e-007
-5.935349e-007
-5.501541e-007
-5.023259e-007
-4.512503e-007
-3.982699e-007
-3.448294e-007
-2.924192e-007
-2.424733e-007
-1.962363e-007
-1.546541e-007
-1.183368e-007
-8.757697e-008
-6.236266e-008
-4.236784e-008
-2.698328e-008
-1.545594e-008
-7.096549e-009
-1.409746e-009
1.956764e-009
3.375853e-009
3.340156e-009
2.410252e-009
1.109238e-009
-1.009712e-010
-7.923669e-010
-6.608166e-010
2.289861e-010
1.297583e-009
1.718108e-009
1.042907e-009
-3.313966e-010
-1.383314e-009
-1.297186e-009
-1.890287e-010
9.757956e-010
1.238427e-009
4.868290e-010
-5.056834e-010
-8.528478e-010
-3.714049e-010
3.329681e-010
5.367786e-010
1.188848e-010
-3.812375e-010
3.383712e-009
4.355211e-010
-2.546572e-009
-2.955451e-009
-7.661721e-010
1.772585e-009
2.426510e-009
9.118653e-010
-1.182828e-009
-2.058612e-009
-1.196179e-009
5.421171e-010
1.905770e-009
2.207680e-009
1.525399e-009
3.569653e-010
-7.126955e-010
-1.138505e-009
-5.398515e-010
1.047631e-009
3.000852e-009
4.285764e-009
3.908995e-009
1.253728e-009
-3.991067e-009
-1.219512e-008
-2.407923e-008
-4.070908e-008
-6.328264e-008
-9.293853e-008
-1.306776e-007
-1.773080e-007
-2.333178e-007
-2.987101e-007
-3.729237e-007
-4.548914e-007
-5.431776e-007
-6.360981e-007
-7.317947e-007
-8.283039e-007
-9.236533e-007
-1.015965e-006
-1.103523e-006
-1.184786e-006
-1.258382e-006
-1.323090e-006
-1.377848e-006
-1.421744e-006
-1.454001e-006
-1.473955e-006
-1.481060e-006
-1.474903e-006
-1.455234e-006
-1.421991e-006
-1.375337e-006
-1.315708e-006
-1.243879e-006
-1.161012e-006
-1.068674e-006
-9.688272e-007
-8.638060e-007
-7.562691e-007
-6.491000e-007
-5.452234e-007
-4.473704e-007
-3.578653e-007
-2.784827e-007
-2.103565e-007
-1.538989e-007
-1.087528e-007
-7.386570e-008
-4.773606e-008
-2.874459e-008
-1.540344e-008
-6.440556e-009
-7.982355e-010
2.339950e-009
3.520419e-009
3.130386e-009
1.669798e-009
-5.463768e-011
-1.107720e-009
-9.459413e-010
1.671559e-010
1.315272e-009
1.624180e-009
9.292381e-010
-1.619449e-010
-8.336209e-010
-7.155096e-010
-7.479298e-011
5.179610e-010
6.621385e-010
3.458185e-010
-1.578424e-010
-5.240909e-010
-5.546973e-010
-2.516721e-010
1.977242e-010
5.212524e-010
3.038086e-009
1.790140e-010
-2.502106e-009
-2.438789e-009
4.328002e-011
2.293923e-009
2.086893e-009
-2.764458e-010
-2.448544e-009
-2.387126e-009
-1.796578e-010
2.264874e-009
3.074843e-009
1.936719e-009
4.584593e-011
-1.107846e-009
-8.285678e-010
6.090538e-010
2.438839e-009
3.841872e-009
4.032470e-009
2.193019e-009
-2.501554e-009
-1.084080e-008
-2.372913e-008
-4.251520e-008
-6.921284e-008
-1.063665e-007
-1.566188e-007
-2.222547e-007
-3.049148e-007
-4.054544e-007
-5.238292e-007
-6.589887e-007
-8.088703e-007
-9.705667e-007
-1.140616e-006
-1.315296e-006
-1.490855e-006
-1.663677e-006
-1.830437e-006
-1.988219e-006
-2.134582e-006
-2.267545e-006
-2.385527e-006
-2.487274e-006
-2.571796e-006
-2.638304e-006
-2.686155e-006
-2.714792e-006
-2.723721e-006
-2.712500e-006
-2.680758e-006
-2.628216e-006
-2.554736e-006
-2.460408e-006
-2.345663e-006
-2.211407e-006
-2.059140e-006
-1.891071e-006
-1.710216e-006
-1.520443e-006
-1.326390e-006
-1.133227e-006
-9.462905e-007
-7.706710e-007
-6.108121e-007
-4.701366e-007
-3.507152e-007
-2.530718e-007
-1.762408e-007
-1.180931e-007
-7.579142e-008
-4.619823e-008
-2.619296e-008
-1.298306e-008
-4.435456e-009
7.403463e-010
3.174639e-009
3.346784e-009
2.045874e-009
3.864213e-010
-6.302113e-010
-5.978687e-010
1.942608e-010
1.085474e-009
1.486084e-009
1.152781e-009
2.547311e-010
-7.019353e-010
-1.108053e-009
-6.525311e-010
3.436255e-010
1.053182e-009
8.062692e-010
-2.378438e-010
-1.131771e-009
-9.947719e-010
1.010067e-010
1.142262e-009
1.151737e-009
-2.513265e-010
-1.327652e-009
-7.734647e-010
8.631202e-010
1.773245e-009
8.254728e-010
-1.187063e-009
-2.283016e-009
-1.260913e-009
1.090615e-009
2.733467e-009
2.305160e-009
3.477943e-010
-1.257440e-009
-9.833138e-010
1.131260e-009
3.676686e-009
4.988304e-009
4.007473e-009
2.390523e-010
-6.893114e-009
-1.861960e-008
-3.702055e-008