# vtk DataFile Version 3.0
vtk output
ASCII
DATASET STRUCTURED_POINTS
DIMENSIONS 100 100 1
SPACING 1 1 1
ORIGIN 0 0 0
POINT_DATA 10000
SCALARS SFBox_profile double
LOOKUP_TABLE default 
9.439920e-003
9.439920e-003
9.439920e-003
9.439920e-003
9.439920e-003
9.439920e-003
9.439920e-003
9.439920e-003
9.439920e-003
9.439920e-003
9.439920e-003
9.439920e-003
9.439920e-003
9.439920e-003
9.439920e-003
9.439920e-003
9.439920e-003
9.439920e-003
9.439921e-003
9.439921e-003
9.439921e-003
9.439922e-003
9.439922e-003
9.439923e-003
9.439923e-003
9.439924e-003
9.439925e-003
9.439926e-003
9.439927e-003
9.439928e-003
9.439929e-003
9.439930e-003
9.439931e-003
9.439932e-003
9.439933e-003
9.439934e-003
9.439935e-003
9.439936e-003
9.439937e-003
9.439938e-003
9.439939e-003
9.439939e-003
9.439940e-003
9.439940e-003
9.439941e-003
9.439941e-003
9.439941e-003
9.439941e-003
9.439941e-003
9.439941e-003
9.439941e-003
9.439940e-003
9.439939e-003
9.439939e-003
9.439938e-003
9.439937e-003
9.439936e-003
9.439935e-003
9.439934e-003
9.439932e-003
9.439931e-003
9.439930e-003
9.439929e-003
9.439927e-003
9.439926e-003
9.439925e-003
9.439924e-003
9.439923e-003
9.439923e-003
9.439922e-003
9.439922e-003
9.439921e-003
9.439921e-003
9.439921e-003
9.439920e-003
9.439920e-003
9.439920e-003
9.439920e-003
9.439920e-003
9.439920e-003
9.439920e-003
9.439920e-003
9.439920e-003
9.439920e-003
9.439920e-003
9.439920e-003
9.439920e-003
9.439920e-003
9.439920e-003
9.439920e-003
9.439920e-003
9.439920e-003
9.439920e-003
9.439920e-003
9.439920e-003
9.439920e-003
9.439920e-003
9.439920e-003
9.439920e-003
9.439920e-003
9.439920e-003
9.439920e-003
9.439920e-003
9.439920e-003
9.439920e-003
9.439920e-003
9.439920e-003
9.439920e-003
9.439920e-003
9.439920e-003
9.439920e-003
9.439920e-003
9.439920e-003
9.439920e-003
9.439920e-003
9.439920e-003
9.439920e-003
9.439920e-003
9.439921e-003
9.439921e-003
9.439921e-003
9.439922e-003
9.439922e-003
9.439923e-003
9.439923e-003
9.439924e-003
9.439925e-003
9.439926e-003
9.439927e-003
9.439928e-003
9.439929e-003
9.439930e-003
9.439931e-003
9.439932e-003
9.439933e-003
9.439934e-003
9.439935e-003
9.439936e-003
9.439937e-003
9.439938e-003
9.439939e-003
9.439939e-003
9.439940e-003
9.439940e-003
9.439941e-003
9.439941e-003
9.439941e-003
9.439941e-003
9.439941e-003
9.439941e-003
9.439941e-003
9.439940e-003
9.439939e-003
9.439939e-003
9.439938e-003
9.439937e-003
9.439936e-003
9.439935e-003
9.439934e-003
9.439932e-003
9.439931e-003
9.439930e-003
9.439929e-003
9.439927e-003
9.439926e-003
9.439925e-003
9.439924e-003
9.439923e-003
9.439923e-003
9.439922e-003
9.439922e-003
9.439921e-003
9.439921e-003
9.439921e-003
9.439920e-003
9.439920e-003
9.439920e-003
9.439920e-003
9.439920e-003
9.439920e-003
9.439920e-003
9.439920e-003
9.439920e-003
9.439920e-003
9.439920e-003
9.439920e-003
9.439920e-003
9.439920e-003
9.439920e-003
9.439920e-003
9.439920e-003
9.439920e-003
9.439920e-003
9.439920e-003
9.439920e-003
9.439920e-003
9.439920e-003
9.439920e-003
9.439920e-003
9.439920e-003
9.439920e-003
9.439920e-003
9.439920e-003
9.439920e-003
9.439920e-003
9.439920e-003
9.439920e-003
9.439920e-003
9.439920e-003
9.439920e-003
9.439920e-003
9.439920e-003
9.439920e-003
9.439920e-003
9.439920e-003
9.439920e-003
9.439921e-003
9.439921e-003
9.439921e-003
9.439922e-003
9.439922e-003
9.439923e-003
9.439923e-003
9.439924e-003
9.439925e-003
9.439926e-003
9.439927e-003
9.439928e-003
9.439929e-003
9.439931e-003
9.439932e-003
9.439933e-003
9.439935e-003
9.439936e-003
9.439937e-003
9.439938e-003
9.439939e-003
9.439940e-003
9.439941e-003
9.439942e-003
9.439943e-003
9.439944e-003
9.439944e-003
9.439945e-003
9.439945e-003
9.439945e-003
9.439945e-003
9.439945e-003
9.439945e-003
9.439945e-003
9.439945e-003
9.439944e-003
9.439943e-003
9.439943e-003
9.439942e-003
9.439941e-003
9.439940e-003
9.439939e-003
9.439937e-003
9.439936e-003
9.439934e-003
9.439933e-003
9.439932e-003
9.439930e-003
9.439929e-003
9.439927e-003
9.439926e-003
9.439925e-003
9.439924e-003
9.439923e-003
9.439922e-003
9.439922e-003
9.439921e-003
9.439921e-003
9.439921e-003
9.439920e-003
9.439920e-003
9.439920e-003
9.439920e-003
9.439920e-003
9.439920e-003
9.439920e-003
9.439920e-003
9.439920e-003
9.439920e-003
9.439920e-003
9.439920e-003
9.439920e-003
9.439920e-003
9.439920e-003
9.439920e-003
9.439920e-003
9.439920e-003
9.439920e-003
9.439920e-003
9.439920e-003
9.439920e-003
9.439920e-003
9.439920e-003
9.439920e-003
9.439920e-003
9.439920e-003
9.439920e-003
9.439920e-003
9.439920e-003
9.439920e-003
9.439920e-003
9.439920e-003
9.439920e-003
9.439920e-003
9.439920e-003
9.439920e-003
9.439920e-003
9.439920e-003
9.439921e-003
9.439921e-003
9.439921e-003
9.439922e-003
9.439922e-003
9.439923e-003
9.439924e-003
9.439925e-003
9.439926e-003
9.439927e-003
9.439929e-003
9.439930e-003
9.439932e-003
9.439933e-003
9.439935e-003
9.439937e-003
9.439938e-003
9.439940e-003
9.439941e-003
9.439943e-003
9.439944e-003
9.439945e-003
9.439946e-003
9.439947e-003
9.439948e-003
9.439948e-003
9.439948e-003
9.439949e-003
9.439949e-003
9.439949e-003
9.439949e-003
9.439949e-003
9.439949e-003
9.439948e-003
9.439948e-003
9.439948e-003
9.439948e-003
9.439947e-003
9.439947e-003
9.439947e-003
9.439946e-003
9.439945e-003
9.439945e-003
9.439944e-003
9.439943e-003
9.439942e-003
9.439940e-003
9.439939e-003
9.439937e-003
9.439935e-003
9.439934e-003
9.439932e-003
9.439930e-003
9.439928e-003
9.439927e-003
9.439926e-003
9.439924e-003
9.439923e-003
9.439923e-003
9.439922e-003
9.439921e-003
9.439921e-003
9.439921e-003
9.439920e-003
9.439920e-003
9.439920e-003
9.439920e-003
9.439920e-003
9.439920e-003
9.439920e-003
9.439920e-003
9.439920e-003
9.439920e-003
9.439920e-003
9.439920e-003
9.439920e-003
9.439920e-003
9.439920e-003
9.439920e-003
9.439920e-003
9.439920e-003
9.439920e-003
9.439920e-003
9.439920e-003
9.439920e-003
9.439920e-003
9.439920e-003
9.439920e-003
9.439920e-003
9.439920e-003
9.439920e-003
9.439920e-003
9.439920e-003
9.439920e-003
9.439920e-003
9.439920e-003
9.439920e-003
9.439920e-003
9.439920e-003
9.439921e-003
9.439921e-003
9.439922e-003
9.439923e-003
9.439923e-003
9.439924e-003
9.439926e-003
9.439927e-003
9.439929e-003
9.439931e-003
9.439933e-003
9.439935e-003
9.439937e-003
9.439939e-003
9.439941e-003
9.439943e-003
9.439945e-003
9.439946e-003
9.439947e-003
9.439948e-003
9.439948e-003
9.439948e-003
9.439948e-003
9.439947e-003
9.439946e-003
9.439945e-003
9.439944e-003
9.439943e-003
9.439941e-003
9.439940e-003
9.439938e-003
9.439937e-003
9.439936e-003
9.439935e-003
9.439934e-003
9.439934e-003
9.439934e-003
9.439934e-003
9.439934e-003
9.439935e-003
9.439937e-003
9.439938e-003
9.439939e-003
9.439941e-003
9.439942e-003
9.439943e-003
9.439943e-003
9.439943e-003
9.439943e-003
9.439943e-003
9.439941e-003
9.439940e-003
9.439938e-003
9.439936e-003
9.439934e-003
9.439932e-003
9.439930e-003
9.439928e-003
9.439926e-003
9.439925e-003
9.439924e-003
9.439923e-003
9.439922e-003
9.439921e-003
9.439921e-003
9.439921e-003
9.439920e-003
9.439920e-003
9.439920e-003
9.439920e-003
9.439920e-003
9.439920e-003
9.439920e-003
9.439920e-003
9.439920e-003
9.439920e-003
9.439920e-003
9.439920e-003
9.439920e-003
9.439920e-003
9.439920e-003
9.439920e-003
9.439920e-003
9.439920e-003
9.439920e-003
9.439920e-003
9.439920e-003
9.439920e-003
9.439920e-003
9.439920e-003
9.439920e-003
9.439920e-003
9.439920e-003
9.439920e-003
9.439920e-003
9.439920e-003
9.439920e-003
9.439920e-003
9.439921e-003
9.439921e-003
9.439922e-003
9.439923e-003
9.439924e-003
9.439925e-003
9.439926e-003
9.439928e-003
9.439930e-003
9.439933e-003
9.439935e-003
9.439938e-003
9.439940e-003
9.439943e-003
9.439945e-003
9.439947e-003
9.439948e-003
9.439948e-003
9.439947e-003
9.439946e-003
9.439944e-003
9.439940e-003
9.439936e-003
9.439931e-003
9.439925e-003
9.439919e-003
9.439912e-003
9.439905e-003
9.439897e-003
9.439890e-003
9.439883e-003
9.439876e-003
9.439870e-003
9.439864e-003
9.439860e-003
9.439856e-003
9.439854e-003
9.439854e-003
9.439855e-003
9.439857e-003
9.439861e-003
9.439867e-003
9.439873e-003
9.439881e-003
9.439889e-003
9.439898e-003
9.439906e-003
9.439914e-003
9.439922e-003
9.439928e-003
9.439934e-003
9.439938e-003
9.439941e-003
9.439942e-003
9.439942e-003
9.439942e-003
9.439940e-003
9.439938e-003
9.439936e-003
9.439933e-003
9.439931e-003
9.439928e-003
9.439926e-003
9.439925e-003
9.439923e-003
9.439922e-003
9.439922e-003
9.439921e-003
9.439921e-003
9.439920e-003
9.439920e-003
9.439920e-003
9.439920e-003
9.439920e-003
9.439920e-003
9.439920e-003
9.439920e-003
9.439920e-003
9.439920e-003
9.439920e-003
9.439920e-003
9.439920e-003
9.439920e-003
9.439920e-003
9.439920e-003
9.439920e-003
9.439920e-003
9.439920e-003
9.439920e-003
9.439920e-003
9.439920e-003
9.439920e-003
9.439920e-003
9.439920e-003
9.439920e-003
9.439920e-003
9.439920e-003
9.439920e-003
9.439921e-003
9.439921e-003
9.439922e-003
9.439922e-003
9.439924e-003
9.439925e-003
9.439927e-003
9.439929e-003
9.439931e-003
9.439934e-003
9.439937e-003
9.439940e-003
9.439944e-003
9.439946e-003
9.439948e-003
9.439949e-003
9.439948e-003
9.439945e-003
9.439941e-003
9.439934e-003
9.439925e-003
9.439913e-003
9.439898e-003
9.439882e-003
9.439863e-003
9.439842e-003
9.439820e-003
9.439796e-003
9.439771e-003
9.439747e-003
9.439722e-003
9.439698e-003
9.439674e-003
9.439653e-003
9.439634e-003
9.439618e-003
9.439605e-003
9.439595e-003
9.439590e-003
9.439589e-003
9.439594e-003
9.439602e-003
9.439616e-003
9.439633e-003
9.439655e-003
9.439680e-003
9.439708e-003
9.439737e-003
9.439767e-003
9.439797e-003
9.439825e-003
9.439852e-003
9.439875e-003
9.439895e-003
9.439912e-003
9.439924e-003
9.439933e-003
9.439939e-003
9.439942e-003
9.439942e-003
9.439941e-003
9.439939e-003
9.439937e-003
9.439934e-003
9.439931e-003
9.439928e-003
9.439926e-003
9.439924e-003
9.439923e-003
9.439922e-003
9.439921e-003
9.439921e-003
9.439921e-003
9.439920e-003
9.439920e-003
9.439920e-003
9.439920e-003
9.439920e-003
9.439920e-003
9.439920e-003
9.439920e-003
9.439920e-003
9.439920e-003
9.439920e-003
9.439920e-003
9.439920e-003
9.439920e-003
9.439920e-003
9.439920e-003
9.439920e-003
9.439920e-003
9.439920e-003
9.439920e-003
9.439920e-003
9.439920e-003
9.439920e-003
9.439920e-003
9.439920e-003
9.439920e-003
9.439921e-003
9.439921e-003
9.439922e-003
9.439923e-003
9.439925e-003
9.439927e-003
9.439929e-003
9.439932e-003
9.439935e-003
9.439939e-003
9.439942e-003
9.439946e-003
9.439948e-003
9.439950e-003
9.439949e-003
9.439945e-003
9.439937e-003
9.439925e-003
9.439908e-003
9.439884e-003
9.439855e-003
9.439819e-003
9.439777e-003
9.439728e-003
9.439674e-003
9.439615e-003
9.439552e-003
9.439486e-003
9.439417e-003
9.439347e-003
9.439277e-003
9.439208e-003
9.439142e-003
9.439079e-003
9.439022e-003
9.438971e-003
9.438928e-003
9.438894e-003
9.438871e-003
9.438858e-003
9.438858e-003
9.438870e-003
9.438895e-003
9.438932e-003
9.438981e-003
9.439041e-003
9.439110e-003
9.439187e-003
9.439270e-003
9.439355e-003
9.439441e-003
9.439524e-003
9.439603e-003
9.439676e-003
9.439740e-003
9.439795e-003
9.439841e-003
9.439876e-003
9.439903e-003
9.439922e-003
9.439934e-003
9.439940e-003
9.439942e-003
9.439942e-003
9.439940e-003
9.439937e-003
9.439934e-003
9.439931e-003
9.439928e-003
9.439926e-003
9.439924e-003
9.439923e-003
9.439922e-003
9.439921e-003
9.439921e-003
9.439920e-003
9.439920e-003
9.439920e-003
9.439920e-003
9.439920e-003
9.439920e-003
9.439920e-003
9.439920e-003
9.439920e-003
9.439920e-003
9.439920e-003
9.439920e-003
9.439920e-003
9.439920e-003
9.439920e-003
9.439920e-003
9.439920e-003
9.439920e-003
9.439920e-003
9.439920e-003
9.439920e-003
9.439920e-003
9.439920e-003
9.439921e-003
9.439921e-003
9.439922e-003
9.439923e-003
9.439924e-003
9.439926e-003
9.439929e-003
9.439932e-003
9.439935e-003
9.439939e-003
9.439943e-003
9.439947e-003
9.439950e-003
9.439951e-003
9.439948e-003
9.439940e-003
9.439925e-003
9.439902e-003
9.439868e-003
9.439822e-003
9.439762e-003
9.439687e-003
9.439597e-003
9.439491e-003
9.439370e-003
9.439236e-003
9.439088e-003
9.438930e-003
9.438763e-003
9.438590e-003
9.438413e-003
9.438235e-003
9.438058e-003
9.437886e-003
9.437722e-003
9.437568e-003
9.437428e-003
9.437305e-003
9.437201e-003
9.437120e-003
9.437064e-003
9.437035e-003
9.437036e-003
9.437067e-003
9.437129e-003
9.437222e-003
9.437344e-003
9.437493e-003
9.437667e-003
9.437860e-003
9.438067e-003
9.438284e-003
9.438504e-003
9.438721e-003
9.438929e-003
9.439122e-003
9.439298e-003
9.439451e-003
9.439582e-003
9.439689e-003
9.439773e-003
9.439836e-003
9.439881e-003
9.439911e-003
9.439929e-003
9.439939e-003
9.439942e-003
9.439942e-003
9.439940e-003
9.439936e-003
9.439933e-003
9.439929e-003
9.439927e-003
9.439925e-003
9.439923e-003
9.439922e-003
9.439921e-003
9.439921e-003
9.439920e-003
9.439920e-003
9.439920e-003
9.439920e-003
9.439920e-003
9.439920e-003
9.439920e-003
9.439920e-003
9.439920e-003
9.439920e-003
9.439920e-003
9.439920e-003
9.439920e-003
9.439920e-003
9.439920e-003
9.439920e-003
9.439920e-003
9.439920e-003
9.439920e-003
9.439920e-003
9.439920e-003
9.439921e-003
9.439921e-003
9.439922e-003
9.439923e-003
9.439925e-003
9.439928e-003
9.439931e-003
9.439934e-003
9.439939e-003
9.439943e-003
9.439948e-003
9.439952e-003
9.439952e-003
9.439948e-003
9.439937e-003
9.439915e-003
9.439879e-003
9.439824e-003
9.439746e-003
9.439642e-003
9.439507e-003
9.439339e-003
9.439135e-003
9.438897e-003
9.438623e-003
9.438315e-003
9.437978e-003
9.437613e-003
9.437227e-003
9.436824e-003
9.436410e-003
9.435991e-003
9.435573e-003
9.435162e-003
9.434764e-003
9.434386e-003
9.434034e-003
9.433716e-003
9.433436e-003
9.433203e-003
9.433021e-003
9.432896e-003
9.432834e-003
9.432838e-003
9.432911e-003
9.433055e-003
9.433268e-003
9.433549e-003
9.433893e-003
9.434293e-003
9.434740e-003
9.435225e-003
9.435734e-003
9.436254e-003
9.436771e-003
9.437273e-003
9.437745e-003
9.438178e-003
9.438564e-003
9.438897e-003
9.439177e-003
9.439402e-003
9.439578e-003
9.439710e-003
9.439803e-003
9.439867e-003
9.439906e-003
9.439929e-003
9.439940e-003
9.439943e-003
9.439942e-003
9.439939e-003
9.439935e-003
9.439931e-003
9.439928e-003
9.439925e-003
9.439924e-003
9.439922e-003
9.439921e-003
9.439921e-003
9.439920e-003
9.439920e-003
9.439920e-003
9.439920e-003
9.439920e-003
9.439920e-003
9.439920e-003
9.439920e-003
9.439920e-003
9.439920e-003
9.439920e-003
9.439920e-003
9.439920e-003
9.439920e-003
9.439920e-003
9.439920e-003
9.439920e-003
9.439920e-003
9.439921e-003
9.439921e-003
9.439922e-003
9.439923e-003
9.439924e-003
9.439926e-003
9.439929e-003
9.439933e-003
9.439937e-003
9.439942e-003
9.439948e-003
9.439952e-003
9.439954e-003
9.439951e-003
9.439938e-003
9.439912e-003
9.439864e-003
9.439789e-003
9.439677e-003
9.439519e-003
9.439306e-003
9.439030e-003
9.438684e-003
9.438262e-003
9.437762e-003
9.437185e-003
9.436532e-003
9.435810e-003
9.435026e-003
9.434191e-003
9.433314e-003
9.432408e-003
9.431485e-003
9.430559e-003
9.429642e-003
9.428746e-003
9.427886e-003
9.427073e-003
9.426321e-003
9.425643e-003
9.425052e-003
9.424559e-003
9.424178e-003
9.423919e-003
9.423793e-003
9.423806e-003
9.423965e-003
9.424273e-003
9.424730e-003
9.425332e-003
9.426071e-003
9.426933e-003
9.427902e-003
9.428957e-003
9.430073e-003
9.431222e-003
9.432375e-003
9.433501e-003
9.434575e-003
9.435570e-003
9.436468e-003
9.437255e-003
9.437924e-003
9.438475e-003
9.438914e-003
9.439251e-003
9.439499e-003
9.439675e-003
9.439793e-003
9.439867e-003
9.439910e-003
9.439933e-003
9.439942e-003
9.439943e-003
9.439941e-003
9.439937e-003
9.439932e-003
9.439929e-003
9.439926e-003
9.439924e-003
9.439922e-003
9.439921e-003
9.439921e-003
9.439920e-003
9.439920e-003
9.439920e-003
9.439920e-003
9.439920e-003
9.439920e-003
9.439920e-003
9.439920e-003
9.439920e-003
9.439920e-003
9.439920e-003
9.439920e-003
9.439920e-003
9.439920e-003
9.439920e-003
9.439920e-003
9.439921e-003
9.439921e-003
9.439922e-003
9.439923e-003
9.439925e-003
9.439927e-003
9.439930e-003
9.439935e-003
9.439940e-003
9.439946e-003
9.439952e-003
9.439956e-003
9.439955e-003
9.439944e-003
9.439918e-003
9.439867e-003
9.439778e-003
9.439639e-003
9.439431e-003
9.439137e-003
9.438736e-003
9.438212e-003
9.437547e-003
9.436729e-003
9.435749e-003
9.434607e-003
9.433305e-003
9.431853e-003
9.430267e-003
9.428566e-003
9.426772e-003
9.424909e-003
9.423005e-003
9.421085e-003
9.419175e-003
9.417300e-003
9.415485e-003
9.413755e-003
9.412133e-003
9.410643e-003
9.409309e-003
9.408152e-003
9.407196e-003
9.406460e-003
9.405965e-003
9.405729e-003
9.405766e-003
9.406087e-003
9.406700e-003
9.407605e-003
9.408797e-003
9.410264e-003
9.411986e-003
9.413932e-003
9.416065e-003
9.418340e-003
9.420704e-003
9.423100e-003
9.425468e-003
9.427749e-003
9.429890e-003
9.431847e-003
9.433585e-003
9.435083e-003
9.436337e-003
9.437352e-003
9.438146e-003
9.438745e-003
9.439180e-003
9.439483e-003
9.439683e-003
9.439809e-003
9.439882e-003
9.439921e-003
9.439938e-003
9.439943e-003
9.439942e-003
9.439938e-003
9.439934e-003
9.439930e-003
9.439926e-003
9.439924e-003
9.439923e-003
9.439922e-003
9.439921e-003
9.439920e-003
9.439920e-003
9.439920e-003
9.439920e-003
9.439920e-003
9.439920e-003
9.439920e-003
9.439920e-003
9.439920e-003
9.439920e-003
9.439920e-003
9.439920e-003
9.439920e-003
9.439921e-003
9.439921e-003
9.439921e-003
9.439922e-003
9.439923e-003
9.439925e-003
9.439928e-003
9.439932e-003
9.439937e-003
9.439943e-003
9.439949e-003
9.439955e-003
9.439958e-003
9.439953e-003
9.439932e-003
9.439886e-003
9.439798e-003
9.439649e-003
9.439412e-003
9.439056e-003
9.438545e-003
9.437842e-003
9.436909e-003
9.435709e-003
9.434215e-003
9.432407e-003
9.430275e-003
9.427826e-003
9.425075e-003
9.422053e-003
9.418797e-003
9.415353e-003
9.411772e-003
9.408107e-003
9.404409e-003
9.400729e-003
9.397117e-003
9.393617e-003
9.390272e-003
9.387122e-003
9.384204e-003
9.381555e-003
9.379209e-003
9.377198e-003
9.375553e-003
9.374305e-003
9.373482e-003
9.373108e-003
9.373207e-003
9.373797e-003
9.374891e-003
9.376496e-003
9.378610e-003
9.381222e-003
9.384307e-003
9.387829e-003
9.391732e-003
9.395948e-003
9.400391e-003
9.404961e-003
9.409549e-003
9.414041e-003
9.418327e-003
9.422308e-003
9.425901e-003
9.429050e-003
9.431727e-003
9.433929e-003
9.435681e-003
9.437028e-003
9.438025e-003
9.438736e-003
9.439221e-003
9.439537e-003
9.439733e-003
9.439846e-003
9.439906e-003
9.439933e-003
9.439943e-003
9.439943e-003
9.439939e-003
9.439935e-003
9.439930e-003
9.439927e-003
9.439924e-003
9.439923e-003
9.439922e-003
9.439921e-003
9.439920e-003
9.439920e-003
9.439920e-003
9.439920e-003
9.439920e-003
9.439920e-003
9.439920e-003
9.439920e-003
9.439920e-003
9.439920e-003
9.439920e-003
9.439920e-003
9.439922e-003
9.439922e-003
9.439923e-003
9.439924e-003
9.439926e-003
9.439929e-003
9.439933e-003
9.439939e-003
9.439946e-003
9.439953e-003
9.439959e-003
9.439960e-003
9.439949e-003
9.439915e-003
9.439842e-003
9.439706e-003
9.439473e-003
9.439098e-003
9.438528e-003
9.437698e-003
9.436538e-003
9.434972e-003
9.432932e-003
9.430356e-003
9.427202e-003
9.423449e-003
9.419104e-003
9.414201e-003
9.408799e-003
9.402978e-003
9.396835e-003
9.390476e-003
9.384006e-003
9.377531e-003
9.371149e-003
9.364946e-003
9.359002e-003
9.353382e-003
9.348145e-003
9.343338e-003
9.339000e-003
9.335165e-003
9.331859e-003
9.329104e-003
9.326921e-003
9.325324e-003
9.324332e-003
9.323961e-003
9.324229e-003
9.325155e-003
9.326763e-003
9.329074e-003
9.332110e-003
9.335889e-003
9.340417e-003
9.345685e-003
9.351663e-003
9.358291e-003
9.365473e-003
9.373077e-003
9.380937e-003
9.388858e-003
9.396630e-003
9.404041e-003
9.410901e-003
9.417055e-003
9.422399e-003
9.426885e-003
9.430523e-003
9.433370e-003
9.435518e-003
9.437078e-003
9.438167e-003
9.438895e-003
9.439361e-003
9.439643e-003
9.439804e-003
9.439888e-003
9.439928e-003
9.439942e-003
9.439943e-003
9.439940e-003
9.439935e-003
9.439931e-003
9.439927e-003
9.439924e-003
9.439923e-003
9.439921e-003
9.439921e-003
9.439920e-003
9.439920e-003
9.439920e-003
9.439920e-003
9.439920e-003
9.439920e-003
9.439920e-003
9.439920e-003
9.439920e-003
9.439920e-003
9.439920e-003
9.439923e-003
9.439924e-003
9.439925e-003
9.439927e-003
9.439930e-003
9.439934e-003
9.439941e-003
9.439948e-003
9.439956e-003
9.439962e-003
9.439960e-003
9.439943e-003
9.439895e-003
9.439791e-003
9.439595e-003
9.439255e-003
9.438701e-003
9.437844e-003
9.436573e-003
9.434765e-003
9.432284e-003
9.429002e-003
9.424803e-003
9.419605e-003
9.413374e-003
9.406130e-003
9.397954e-003
9.388984e-003
9.379406e-003
9.369436e-003
9.359307e-003
9.349250e-003
9.339477e-003
9.330177e-003
9.321502e-003
9.313572e-003
9.306471e-003
9.300250e-003
9.294931e-003
9.290511e-003
9.286959e-003
9.284225e-003
9.282238e-003
9.280916e-003
9.280168e-003
9.279901e-003
9.280031e-003
9.280488e-003
9.281224e-003
9.282223e-003
9.283506e-003
9.285137e-003
9.287219e-003
9.289896e-003
9.293335e-003
9.297717e-003
9.303207e-003
9.309931e-003
9.317948e-003
9.327228e-003
9.337630e-003
9.348906e-003
9.360710e-003
9.372625e-003
9.384215e-003
9.395068e-003
9.404846e-003
9.413319e-003
9.420381e-003
9.426039e-003
9.430398e-003
9.433627e-003
9.435926e-003
9.437496e-003
9.438524e-003
9.439167e-003
9.439548e-003
9.439762e-003
9.439872e-003
9.439922e-003
9.439941e-003
9.439944e-003
9.439940e-003
9.439935e-003
9.439930e-003
9.439927e-003
9.439924e-003
9.439922e-003
9.439921e-003
9.439921e-003
9.439920e-003
9.439920e-003
9.439920e-003
9.439920e-003
9.439920e-003
9.439920e-003
9.439920e-003
9.439920e-003
9.439920e-003
9.439920e-003
9.439925e-003
9.439926e-003
9.439928e-003
9.439931e-003
9.439936e-003
9.439942e-003
9.439950e-003
9.439959e-003
9.439964e-003
9.439962e-003
9.439938e-003
9.439874e-003
9.439736e-003
9.439473e-003
9.439010e-003
9.438240e-003
9.437024e-003
9.435187e-003
9.432523e-003
9.428804e-003
9.423804e-003
9.417328e-003
9.409240e-003
9.399505e-003
9.388213e-003
9.375589e-003
9.361996e-003
9.347902e-003
9.333847e-003
9.320391e-003
9.308070e-003
9.297353e-003
9.288610e-003
9.282104e-003
9.277980e-003
9.276276e-003
9.276933e-003
9.279805e-003
9.284674e-003
9.291249e-003
9.299176e-003
9.308042e-003
9.317384e-003
9.326704e-003
9.335486e-003
9.343220e-003
9.349429e-003
9.353697e-003
9.355706e-003
9.355260e-003
9.352323e-003
9.347038e-003
9.339745e-003
9.330979e-003
9.321459e-003
9.312040e-003
9.303658e-003
9.297243e-003
9.293626e-003
9.293441e-003
9.297030e-003
9.304384e-003
9.315128e-003
9.328551e-003
9.343704e-003
9.359532e-003
9.375019e-003
9.389318e-003
9.401837e-003
9.412266e-003
9.420556e-003
9.426857e-003
9.431442e-003
9.434639e-003
9.436776e-003
9.438143e-003
9.438977e-003
9.439461e-003
9.439725e-003
9.439858e-003
9.439918e-003
9.439940e-003
9.439944e-003
9.439940e-003
9.439935e-003
9.439930e-003
9.439926e-003
9.439924e-003
9.439922e-003
9.439921e-003
9.439921e-003
9.439920e-003
9.439920e-003
9.439920e-003
9.439920e-003
9.439920e-003
9.439920e-003
9.439920e-003
9.439920e-003
9.439920e-003
9.439928e-003
9.439929e-003
9.439932e-003
9.439937e-003
9.439944e-003
9.439952e-003
9.439961e-003
9.439967e-003
9.439963e-003
9.439935e-003
9.439857e-003
9.439687e-003
9.439356e-003
9.438761e-003
9.437752e-003
9.436124e-003
9.433612e-003
9.429895e-003
9.424611e-003
9.417397e-003
9.407941e-003
9.396065e-003
9.381801e-003
9.365469e-003
9.347720e-003
9.329539e-003
9.312179e-003
9.297062e-003
9.285643e-003
9.279270e-003
9.279061e-003
9.285820e-003
9.299993e-003
9.321667e-003
9.350594e-003
9.386244e-003
9.427854e-003
9.474471e-003
9.524984e-003
9.578132e-003
9.632513e-003
9.686590e-003
9.738713e-003
9.787147e-003
9.830126e-003
9.865914e-003
9.892877e-003
9.909571e-003
9.914831e-003
9.907871e-003
9.888377e-003
9.856597e-003
9.813405e-003
9.760343e-003
9.699606e-003
9.633972e-003
9.566664e-003
9.501146e-003
9.440851e-003
9.388872e-003
9.347637e-003
9.318629e-003
9.302201e-003
9.297547e-003
9.302850e-003
9.315588e-003
9.332951e-003
9.352254e-003
9.371276e-003
9.388452e-003
9.402909e-003
9.414366e-003
9.422973e-003
9.429129e-003
9.433335e-003
9.436081e-003
9.437796e-003
9.438817e-003
9.439393e-003
9.439700e-003
9.439851e-003
9.439917e-003
9.439940e-003
9.439944e-003
9.439940e-003
9.439934e-003
9.439930e-003
9.439926e-003
9.439923e-003
9.439922e-003
9.439921e-003
9.439921e-003
9.439920e-003
9.439920e-003
9.439920e-003
9.439920e-003
9.439920e-003
9.439920e-003
9.439920e-003
9.439920e-003
9.439933e-003
9.439935e-003
9.439939e-003
9.439946e-003
9.439954e-003
9.439963e-003
9.439970e-003
9.439966e-003
9.439935e-003
9.439847e-003
9.439650e-003
9.439259e-003
9.438539e-003
9.437289e-003
9.435227e-003
9.431975e-003
9.427060e-003
9.419939e-003
9.410065e-003
9.396992e-003
9.380540e-003
9.360994e-003
9.339302e-003
9.317219e-003
9.297339e-003
9.282975e-003
9.277893e-003
9.285944e-003
9.310654e-003
9.354859e-003
9.420451e-003
9.508241e-003
9.617964e-003
9.748374e-003
9.897420e-003
1.006244e-002
1.024033e-002
1.042768e-002
1.062083e-002
1.081590e-002
1.100877e-002
1.119508e-002
1.137024e-002
1.152954e-002
1.166818e-002
1.178149e-002
1.186504e-002
1.191486e-002
1.192764e-002
1.190101e-002
1.183372e-002
1.172596e-002
1.157950e-002
1.139792e-002
1.118666e-002
1.095292e-002
1.070551e-002
1.045438e-002
1.021004e-002
9.982732e-003
9.781543e-003
9.613429e-003
9.482452e-003
9.389344e-003
9.331553e-003
9.303823e-003
9.299180e-003
9.310115e-003
9.329693e-003
9.352332e-003
9.374168e-003
9.393000e-003
9.407963e-003
9.419096e-003
9.426926e-003
9.432161e-003
9.435500e-003
9.437531e-003
9.438709e-003
9.439357e-003
9.439691e-003
9.439851e-003
9.439918e-003
9.439940e-003
9.439943e-003
9.439939e-003
9.439934e-003
9.439929e-003
9.439925e-003
9.439923e-003
9.439922e-003
9.439921e-003
9.439920e-003
9.439920e-003
9.439920e-003
9.439920e-003
9.439920e-003
9.439920e-003
9.439920e-003
9.439920e-003
9.439939e-003
9.439942e-003
9.439948e-003
9.439957e-003
9.439966e-003
9.439973e-003
9.439970e-003
9.439939e-003
9.439846e-003
9.439633e-003
9.439197e-003
9.438374e-003
9.436912e-003
9.434440e-003
9.430448e-003
9.424282e-003
9.415173e-003
9.402339e-003
9.385192e-003
9.363666e-003
9.338661e-003
9.312553e-003
9.289611e-003
9.276194e-003
9.280561e-003
9.312263e-003
9.381178e-003
9.496388e-003
9.665128e-003
9.891995e-003
1.017855e-002
1.052332e-002
1.092213e-002
1.136860e-002
1.185484e-002
1.237199e-002
1.291074e-002
1.346159e-002
1.401499e-002
1.456132e-002
1.509075e-002
1.559320e-002
1.605831e-002
1.647552e-002
1.683422e-002
1.712405e-002
1.733513e-002
1.745848e-002
1.748637e-002
1.741283e-002
1.723416e-002
1.694946e-002
1.656123e-002
1.607588e-002
1.550410e-002
1.486110e-002
1.416644e-002
1.344359e-002
1.271878e-002
1.201947e-002
1.137211e-002
1.079961e-002
1.031880e-002
9.938515e-003
9.658724e-003
9.471059e-003
9.360745e-003
9.309462e-003
9.298447e-003
9.311101e-003
9.334594e-003
9.360325e-003
9.383464e-003
9.401992e-003
9.415655e-003
9.425098e-003
9.431273e-003
9.435113e-003
9.437389e-003
9.438672e-003
9.439357e-003
9.439700e-003
9.439858e-003
9.439922e-003
9.439941e-003
9.439943e-003
9.439938e-003
9.439932e-003
9.439928e-003
9.439925e-003
9.439923e-003
9.439921e-003
9.439921e-003
9.439920e-003
9.439920e-003
9.439920e-003
9.439920e-003
9.439920e-003
9.439920e-003
9.439920e-003
9.439949e-003
9.439953e-003
9.439960e-003
9.439969e-003
9.439977e-003
9.439976e-003
9.439947e-003
9.439856e-003
9.439639e-003
9.439181e-003
9.438293e-003
9.436673e-003
9.433865e-003
9.429220e-003
9.421877e-003
9.410800e-003
9.394935e-003
9.373549e-003
9.346857e-003
9.316950e-003
9.288956e-003
9.272177e-003
9.280810e-003
9.333818e-003
9.453696e-003
9.664202e-003
9.987451e-003
1.044102e-002
1.103569e-002
1.177425e-002
1.265148e-002
1.365508e-002
1.476735e-002
1.596700e-002
1.723098e-002
1.853596e-002
1.985935e-002
2.117979e-002
2.247718e-002
2.373236e-002
2.492669e-002
2.604168e-002
2.705879e-002
2.795939e-002
2.872491e-002
2.933712e-002
2.977847e-002
3.003258e-002
3.008475e-002
2.992261e-002
2.953702e-002
2.892296e-002
2.808081e-002
2.701750e-002
2.574789e-002
2.429587e-002
2.269525e-002
2.098993e-002
1.923318e-002
1.748532e-002
1.580990e-002
1.426807e-002
1.291201e-002
1.177861e-002
1.088478e-002
1.022596e-002
9.778367e-003
9.504524e-003
9.360740e-003
9.304447e-003
9.299718e-003
9.320018e-003
9.348296e-003
9.375291e-003
9.397129e-003
9.413078e-003
9.423892e-003
9.430798e-003
9.434981e-003
9.437391e-003
9.438711e-003
9.439395e-003
9.439725e-003
9.439872e-003
9.439927e-003
9.439942e-003