# vtk DataFile Version 3.0
vtk output
ASCII
DATASET STRUCTURED_POINTS
DIMENSIONS 100 100 1
SPACING 1 1 1
ORIGIN 0 0 0
POINT_DATA 10000
SCALARS SFBox_profile double
LOOKUP_TABLE default 
9.439924e-003
9.439922e-003
9.439920e-003
9.439918e-003
9.439918e-003
9.439919e-003
9.439920e-003
9.439921e-003
9.439922e-003
9.439921e-003
9.439920e-003
9.439919e-003
9.439919e-003
9.439919e-003
9.439920e-003
9.439920e-003
9.439920e-003
9.439920e-003
9.439920e-003
9.439921e-003
9.439921e-003
9.439921e-003
9.439920e-003
9.439920e-003
9.439920e-003
9.439920e-003
9.439920e-003
9.439920e-003
9.439920e-003
9.439921e-003
9.439921e-003
9.439922e-003
9.439922e-003
9.439923e-003
9.439924e-003
9.439924e-003
9.439925e-003
9.439926e-003
9.439926e-003
9.439927e-003
9.439927e-003
9.439928e-003
9.439929e-003
9.439929e-003
9.439930e-003
9.439930e-003
9.439930e-003
9.439930e-003
9.439931e-003
9.439931e-003
9.439931e-003
9.439931e-003
9.439931e-003
9.439931e-003
9.439931e-003
9.439930e-003
9.439930e-003
9.439930e-003
9.439929e-003
9.439929e-003
9.439928e-003
9.439928e-003
9.439927e-003
9.439926e-003
9.439925e-003
9.439925e-003
9.439924e-003
9.439924e-003
9.439923e-003
9.439922e-003
9.439921e-003
9.439921e-003
9.439921e-003
9.439921e-003
9.439920e-003
9.439920e-003
9.439920e-003
9.439920e-003
9.439920e-003
9.439921e-003
9.439921e-003
9.439920e-003
9.439920e-003
9.439920e-003
9.439920e-003
9.439920e-003
9.439920e-003
9.439919e-003
9.439919e-003
9.439920e-003
9.439920e-003
9.439921e-003
9.439921e-003
9.439920e-003
9.439920e-003
9.439919e-003
9.439919e-003
9.439920e-003
9.439920e-003
9.439921e-003
9.439924e-003
9.439922e-003
9.439920e-003
9.439918e-003
9.439918e-003
9.439919e-003
9.439920e-003
9.439921e-003
9.439922e-003
9.439921e-003
9.439920e-003
9.439919e-003
9.439919e-003
9.439919e-003
9.439920e-003
9.439920e-003
9.439920e-003
9.439920e-003
9.439920e-003
9.439921e-003
9.439921e-003
9.439921e-003
9.439920e-003
9.439920e-003
9.439920e-003
9.439920e-003
9.439920e-003
9.439920e-003
9.439920e-003
9.439921e-003
9.439921e-003
9.439922e-003
9.439922e-003
9.439923e-003
9.439924e-003
9.439924e-003
9.439925e-003
9.439926e-003
9.439926e-003
9.439927e-003
9.439927e-003
9.439928e-003
9.439929e-003
9.439929e-003
9.439930e-003
9.439930e-003
9.439930e-003
9.439930e-003
9.439931e-003
9.439931e-003
9.439931e-003
9.439931e-003
9.439931e-003
9.439931e-003
9.439931e-003
9.439930e-003
9.439930e-003
9.439930e-003
9.439929e-003
9.439929e-003
9.439928e-003
9.439928e-003
9.439927e-003
9.439926e-003
9.439925e-003
9.439925e-003
9.439924e-003
9.439924e-003
9.439923e-003
9.439922e-003
9.439921e-003
9.439921e-003
9.439921e-003
9.439921e-003
9.439920e-003
9.439920e-003
9.439920e-003
9.439920e-003
9.439920e-003
9.439921e-003
9.439921e-003
9.439920e-003
9.439920e-003
9.439920e-003
9.439920e-003
9.439920e-003
9.439920e-003
9.439919e-003
9.439919e-003
9.439920e-003
9.439920e-003
9.439921e-003
9.439921e-003
9.439920e-003
9.439920e-003
9.439919e-003
9.439919e-003
9.439920e-003
9.439920e-003
9.439921e-003
9.439921e-003
9.439921e-003
9.439920e-003
9.439920e-003
9.439920e-003
9.439920e-003
9.439920e-003
9.439920e-003
9.439920e-003
9.439920e-003
9.439920e-003
9.439920e-003
9.439920e-003
9.439920e-003
9.439920e-003
9.439920e-003
9.439920e-003
9.439920e-003
9.439920e-003
9.439920e-003
9.439920e-003
9.439920e-003
9.439920e-003
9.439920e-003
9.439921e-003
9.439921e-003
9.439922e-003
9.439922e-003
9.439922e-003
9.439923e-003
9.439923e-003
9.439924e-003
9.439924e-003
9.439925e-003
9.439926e-003
9.439926e-003
9.439927e-003
9.439928e-003
9.439928e-003
9.439929e-003
9.439930e-003
9.439930e-003
9.439931e-003
9.439931e-003
9.439932e-003
9.439932e-003
9.439933e-003
9.439933e-003
9.439933e-003
9.439933e-003
9.439934e-003
9.439934e-003
9.439933e-003
9.439933e-003
9.439933e-003
9.439933e-003
9.439932e-003
9.439932e-003
9.439931e-003
9.439931e-003
9.439930e-003
9.439930e-003
9.439929e-003
9.439928e-003
9.439927e-003
9.439927e-003
9.439926e-003
9.439925e-003
9.439924e-003
9.439924e-003
9.439923e-003
9.439923e-003
9.439922e-003
9.439922e-003
9.439921e-003
9.439921e-003
9.439921e-003
9.439920e-003
9.439920e-003
9.439920e-003
9.439920e-003
9.439920e-003
9.439920e-003
9.439920e-003
9.439920e-003
9.439920e-003
9.439920e-003
9.439920e-003
9.439920e-003
9.439920e-003
9.439920e-003
9.439920e-003
9.439920e-003
9.439920e-003
9.439920e-003
9.439920e-003
9.439920e-003
9.439920e-003
9.439920e-003
9.439920e-003
9.439917e-003
9.439918e-003
9.439920e-003
9.439921e-003
9.439922e-003
9.439921e-003
9.439920e-003
9.439919e-003
9.439919e-003
9.439919e-003
9.439920e-003
9.439920e-003
9.439921e-003
9.439921e-003
9.439921e-003
9.439920e-003
9.439920e-003
9.439920e-003
9.439919e-003
9.439919e-003
9.439919e-003
9.439920e-003
9.439920e-003
9.439921e-003
9.439922e-003
9.439922e-003
9.439923e-003
9.439924e-003
9.439925e-003
9.439926e-003
9.439926e-003
9.439927e-003
9.439928e-003
9.439929e-003
9.439930e-003
9.439931e-003
9.439932e-003
9.439932e-003
9.439933e-003
9.439934e-003
9.439935e-003
9.439936e-003
9.439936e-003
9.439937e-003
9.439938e-003
9.439938e-003
9.439939e-003
9.439939e-003
9.439939e-003
9.439939e-003
9.439940e-003
9.439940e-003
9.439939e-003
9.439939e-003
9.439939e-003
9.439939e-003
9.439938e-003
9.439938e-003
9.439937e-003
9.439936e-003
9.439935e-003
9.439935e-003
9.439934e-003
9.439933e-003
9.439932e-003
9.439931e-003
9.439930e-003
9.439929e-003
9.439928e-003
9.439927e-003
9.439926e-003
9.439925e-003
9.439924e-003
9.439924e-003
9.439923e-003
9.439922e-003
9.439922e-003
9.439921e-003
9.439921e-003
9.439920e-003
9.439920e-003
9.439920e-003
9.439920e-003
9.439920e-003
9.439920e-003
9.439920e-003
9.439920e-003
9.439920e-003
9.439920e-003
9.439920e-003
9.439920e-003
9.439920e-003
9.439919e-003
9.439920e-003
9.439920e-003
9.439920e-003
9.439921e-003
9.439920e-003
9.439920e-003
9.439920e-003
9.439915e-003
9.439917e-003
9.439920e-003
9.439922e-003
9.439922e-003
9.439921e-003
9.439920e-003
9.439919e-003
9.439918e-003
9.439919e-003
9.439920e-003
9.439921e-003
9.439921e-003
9.439921e-003
9.439920e-003
9.439920e-003
9.439920e-003
9.439920e-003
9.439920e-003
9.439920e-003
9.439920e-003
9.439921e-003
9.439922e-003
9.439922e-003
9.439923e-003
9.439924e-003
9.439925e-003
9.439926e-003
9.439928e-003
9.439929e-003
9.439930e-003
9.439932e-003
9.439933e-003
9.439935e-003
9.439936e-003
9.439938e-003
9.439939e-003
9.439940e-003
9.439941e-003
9.439942e-003
9.439943e-003
9.439944e-003
9.439945e-003
9.439945e-003
9.439946e-003
9.439946e-003
9.439946e-003
9.439947e-003
9.439947e-003
9.439947e-003
9.439947e-003
9.439947e-003
9.439946e-003
9.439946e-003
9.439946e-003
9.439946e-003
9.439945e-003
9.439945e-003
9.439944e-003
9.439943e-003
9.439943e-003
9.439942e-003
9.439941e-003
9.439940e-003
9.439939e-003
9.439937e-003
9.439936e-003
9.439934e-003
9.439933e-003
9.439931e-003
9.439930e-003
9.439929e-003
9.439927e-003
9.439926e-003
9.439925e-003
9.439924e-003
9.439923e-003
9.439922e-003
9.439921e-003
9.439921e-003
9.439920e-003
9.439920e-003
9.439920e-003
9.439920e-003
9.439920e-003
9.439920e-003
9.439920e-003
9.439920e-003
9.439921e-003
9.439920e-003
9.439920e-003
9.439919e-003
9.439919e-003
9.439919e-003
9.439920e-003
9.439921e-003
9.439921e-003
9.439920e-003
9.439920e-003
9.439919e-003
9.439917e-003
9.439918e-003
9.439920e-003
9.439921e-003
9.439921e-003
9.439921e-003
9.439920e-003
9.439919e-003
9.439919e-003
9.439920e-003
9.439920e-003
9.439921e-003
9.439920e-003
9.439920e-003
9.439919e-003
9.439920e-003
9.439921e-003
9.439921e-003
9.439921e-003
9.439922e-003
9.439922e-003
9.439923e-003
9.439924e-003
9.439925e-003
9.439926e-003
9.439927e-003
9.439928e-003
9.439930e-003
9.439932e-003
9.439934e-003
9.439936e-003
9.439938e-003
9.439940e-003
9.439942e-003
9.439944e-003
9.439945e-003
9.439946e-003
9.439947e-003
9.439947e-003
9.439948e-003
9.439948e-003
9.439948e-003
9.439947e-003
9.439946e-003
9.439946e-003
9.439945e-003
9.439944e-003
9.439943e-003
9.439942e-003
9.439942e-003
9.439941e-003
9.439941e-003
9.439940e-003
9.439940e-003
9.439940e-003
9.439941e-003
9.439941e-003
9.439941e-003
9.439942e-003
9.439943e-003
9.439943e-003
9.439944e-003
9.439944e-003
9.439944e-003
9.439944e-003
9.439943e-003
9.439942e-003
9.439941e-003
9.439939e-003
9.439937e-003
9.439935e-003
9.439933e-003
9.439931e-003
9.439929e-003
9.439927e-003
9.439926e-003
9.439925e-003
9.439924e-003
9.439923e-003
9.439922e-003
9.439921e-003
9.439921e-003
9.439921e-003
9.439921e-003
9.439920e-003
9.439920e-003
9.439920e-003
9.439920e-003
9.439920e-003
9.439920e-003
9.439920e-003
9.439920e-003
9.439920e-003
9.439920e-003
9.439920e-003
9.439920e-003
9.439920e-003
9.439920e-003
9.439920e-003
9.439920e-003
9.439921e-003
9.439921e-003
9.439920e-003
9.439919e-003
9.439919e-003
9.439920e-003
9.439920e-003
9.439920e-003
9.439921e-003
9.439921e-003
9.439921e-003
9.439920e-003
9.439920e-003
9.439919e-003
9.439919e-003
9.439920e-003
9.439921e-003
9.439922e-003
9.439923e-003
9.439923e-003
9.439924e-003
9.439925e-003
9.439927e-003
9.439929e-003
9.439930e-003
9.439932e-003
9.439934e-003
9.439937e-003
9.439939e-003
9.439942e-003
9.439944e-003
9.439945e-003
9.439946e-003
9.439947e-003
9.439946e-003
9.439945e-003
9.439943e-003
9.439940e-003
9.439937e-003
9.439933e-003
9.439928e-003
9.439923e-003
9.439918e-003
9.439913e-003
9.439907e-003
9.439902e-003
9.439898e-003
9.439893e-003
9.439890e-003
9.439886e-003
9.439884e-003
9.439883e-003
9.439882e-003
9.439883e-003
9.439884e-003
9.439887e-003
9.439890e-003
9.439895e-003
9.439900e-003
9.439905e-003
9.439911e-003
9.439917e-003
9.439923e-003
9.439928e-003
9.439933e-003
9.439937e-003
9.439940e-003
9.439942e-003
9.439942e-003
9.439942e-003
9.439941e-003
9.439940e-003
9.439937e-003
9.439935e-003
9.439932e-003
9.439930e-003
9.439929e-003
9.439927e-003
9.439925e-003
9.439924e-003
9.439923e-003
9.439923e-003
9.439922e-003
9.439921e-003
9.439920e-003
9.439920e-003
9.439919e-003
9.439920e-003
9.439920e-003
9.439920e-003
9.439920e-003
9.439920e-003
9.439920e-003
9.439920e-003
9.439920e-003
9.439920e-003
9.439920e-003
9.439920e-003
9.439920e-003
9.439920e-003
9.439924e-003
9.439922e-003
9.439920e-003
9.439918e-003
9.439918e-003
9.439919e-003
9.439920e-003
9.439921e-003
9.439921e-003
9.439921e-003
9.439920e-003
9.439920e-003
9.439920e-003
9.439920e-003
9.439920e-003
9.439921e-003
9.439922e-003
9.439923e-003
9.439924e-003
9.439925e-003
9.439927e-003
9.439929e-003
9.439932e-003
9.439934e-003
9.439937e-003
9.439940e-003
9.439943e-003
9.439945e-003
9.439947e-003
9.439947e-003
9.439946e-003
9.439943e-003
9.439938e-003
9.439932e-003
9.439922e-003
9.439911e-003
9.439898e-003
9.439882e-003
9.439866e-003
9.439848e-003
9.439829e-003
9.439810e-003
9.439791e-003
9.439772e-003
9.439754e-003
9.439736e-003
9.439721e-003
9.439707e-003
9.439695e-003
9.439685e-003
9.439678e-003
9.439674e-003
9.439674e-003
9.439676e-003
9.439682e-003
9.439691e-003
9.439704e-003
9.439719e-003
9.439738e-003
9.439758e-003
9.439780e-003
9.439802e-003
9.439825e-003
9.439847e-003
9.439868e-003
9.439887e-003
9.439903e-003
9.439916e-003
9.439927e-003
9.439935e-003
9.439940e-003
9.439942e-003
9.439942e-003
9.439941e-003
9.439939e-003
9.439937e-003
9.439934e-003
9.439931e-003
9.439929e-003
9.439927e-003
9.439925e-003
9.439924e-003
9.439923e-003
9.439922e-003
9.439921e-003
9.439920e-003
9.439920e-003
9.439920e-003
9.439920e-003
9.439920e-003
9.439920e-003
9.439920e-003
9.439921e-003
9.439920e-003
9.439920e-003
9.439919e-003
9.439919e-003
9.439920e-003
9.439920e-003
9.439921e-003
9.439924e-003
9.439922e-003
9.439920e-003
9.439918e-003
9.439918e-003
9.439919e-003
9.439920e-003
9.439921e-003
9.439921e-003
9.439920e-003
9.439920e-003
9.439920e-003
9.439921e-003
9.439921e-003
9.439922e-003
9.439922e-003
9.439923e-003
9.439924e-003
9.439926e-003
9.439928e-003
9.439931e-003
9.439934e-003
9.439938e-003
9.439942e-003
9.439945e-003
9.439948e-003
9.439949e-003
9.439947e-003
9.439943e-003
9.439934e-003
9.439921e-003
9.439903e-003
9.439879e-003
9.439850e-003
9.439815e-003
9.439774e-003
9.439729e-003
9.439679e-003
9.439626e-003
9.439571e-003
9.439515e-003
9.439458e-003
9.439403e-003
9.439348e-003
9.439297e-003
9.439248e-003
9.439205e-003
9.439166e-003
9.439134e-003
9.439108e-003
9.439090e-003
9.439081e-003
9.439080e-003
9.439088e-003
9.439105e-003
9.439132e-003
9.439168e-003
9.439212e-003
9.439264e-003
9.439322e-003
9.439385e-003
9.439451e-003
9.439519e-003
9.439585e-003
9.439650e-003
9.439710e-003
9.439763e-003
9.439810e-003
9.439850e-003
9.439882e-003
9.439906e-003
9.439923e-003
9.439934e-003
9.439940e-003
9.439943e-003
9.439943e-003
9.439941e-003
9.439937e-003
9.439934e-003
9.439931e-003
9.439928e-003
9.439926e-003
9.439924e-003
9.439923e-003
9.439922e-003
9.439922e-003
9.439921e-003
9.439921e-003
9.439920e-003
9.439920e-003
9.439920e-003
9.439920e-003
9.439921e-003
9.439920e-003
9.439920e-003
9.439919e-003
9.439919e-003
9.439920e-003
9.439920e-003
9.439921e-003
9.439921e-003
9.439920e-003
9.439920e-003
9.439919e-003
9.439920e-003
9.439920e-003
9.439921e-003
9.439920e-003
9.439920e-003
9.439919e-003
9.439919e-003
9.439920e-003
9.439922e-003
9.439923e-003
9.439924e-003
9.439925e-003
9.439926e-003
9.439928e-003
9.439931e-003
9.439934e-003
9.439938e-003
9.439942e-003
9.439946e-003
9.439949e-003
9.439949e-003
9.439945e-003
9.439936e-003
9.439920e-003
9.439895e-003
9.439859e-003
9.439811e-003
9.439749e-003
9.439673e-003
9.439584e-003
9.439481e-003
9.439365e-003
9.439239e-003
9.439103e-003
9.438962e-003
9.438815e-003
9.438668e-003
9.438521e-003
9.438377e-003
9.438239e-003
9.438108e-003
9.437987e-003
9.437878e-003
9.437783e-003
9.437703e-003
9.437641e-003
9.437597e-003
9.437575e-003
9.437574e-003
9.437595e-003
9.437640e-003
9.437708e-003
9.437799e-003
9.437911e-003
9.438043e-003
9.438191e-003
9.438353e-003
9.438524e-003
9.438700e-003
9.438876e-003
9.439047e-003
9.439209e-003
9.439358e-003
9.439491e-003
9.439606e-003
9.439702e-003
9.439779e-003
9.439838e-003
9.439881e-003
9.439910e-003
9.439929e-003
9.439939e-003
9.439942e-003
9.439942e-003
9.439940e-003
9.439937e-003
9.439933e-003
9.439930e-003
9.439927e-003
9.439925e-003
9.439924e-003
9.439923e-003
9.439922e-003
9.439921e-003
9.439921e-003
9.439920e-003
9.439920e-003
9.439920e-003
9.439920e-003
9.439920e-003
9.439920e-003
9.439920e-003
9.439920e-003
9.439920e-003
9.439920e-003
9.439920e-003
9.439917e-003
9.439918e-003
9.439920e-003
9.439921e-003
9.439921e-003
9.439921e-003
9.439920e-003
9.439920e-003
9.439920e-003
9.439919e-003
9.439920e-003
9.439921e-003
9.439922e-003
9.439924e-003
9.439926e-003
9.439927e-003
9.439930e-003
9.439933e-003
9.439938e-003
9.439943e-003
9.439947e-003
9.439950e-003
9.439950e-003
9.439945e-003
9.439932e-003
9.439907e-003
9.439867e-003
9.439808e-003
9.439726e-003
9.439616e-003
9.439477e-003
9.439306e-003
9.439101e-003
9.438865e-003
9.438598e-003
9.438304e-003
9.437987e-003
9.437651e-003
9.437304e-003
9.436949e-003
9.436594e-003
9.436243e-003
9.435903e-003
9.435577e-003
9.435272e-003
9.434991e-003
9.434739e-003
9.434519e-003
9.434337e-003
9.434195e-003
9.434097e-003
9.434046e-003
9.434046e-003
9.434098e-003
9.434203e-003
9.434362e-003
9.434574e-003
9.434837e-003
9.435145e-003
9.435495e-003
9.435877e-003
9.436284e-003
9.436706e-003
9.437131e-003
9.437548e-003
9.437948e-003
9.438321e-003
9.438658e-003
9.438954e-003
9.439207e-003
9.439414e-003
9.439579e-003
9.439705e-003
9.439797e-003
9.439861e-003
9.439902e-003
9.439926e-003
9.439938e-003
9.439943e-003
9.439943e-003
9.439940e-003
9.439936e-003
9.439932e-003
9.439928e-003
9.439926e-003
9.439924e-003
9.439923e-003
9.439922e-003
9.439921e-003
9.439920e-003
9.439920e-003
9.439920e-003
9.439920e-003
9.439920e-003
9.439920e-003
9.439920e-003
9.439920e-003
9.439920e-003
9.439920e-003
9.439920e-003
9.439916e-003
9.439918e-003
9.439920e-003
9.439922e-003
9.439922e-003
9.439921e-003
9.439920e-003
9.439920e-003
9.439920e-003
9.439921e-003
9.439921e-003
9.439922e-003
9.439923e-003
9.439925e-003
9.439928e-003
9.439931e-003
9.439936e-003
9.439941e-003
9.439947e-003
9.439951e-003
9.439953e-003
9.439948e-003
9.439933e-003
9.439902e-003
9.439851e-003
9.439769e-003
9.439649e-003
9.439481e-003
9.439257e-003
9.438970e-003
9.438613e-003
9.438185e-003
9.437683e-003
9.437111e-003
9.436475e-003
9.435783e-003
9.435045e-003
9.434274e-003
9.433481e-003
9.432680e-003
9.431884e-003
9.431104e-003
9.430351e-003
9.429636e-003
9.428969e-003
9.428359e-003
9.427814e-003
9.427342e-003
9.426950e-003
9.426648e-003
9.426441e-003
9.426336e-003
9.426338e-003
9.426453e-003
9.426683e-003
9.427030e-003
9.427491e-003
9.428062e-003
9.428737e-003
9.429503e-003
9.430347e-003
9.431250e-003
9.432192e-003
9.433150e-003
9.434099e-003
9.435016e-003
9.435879e-003
9.436671e-003
9.437376e-003
9.437985e-003
9.438496e-003
9.438910e-003
9.439235e-003
9.439479e-003
9.439656e-003
9.439777e-003
9.439856e-003
9.439903e-003
9.439929e-003
9.439941e-003
9.439944e-003
9.439942e-003
9.439938e-003
9.439934e-003
9.439930e-003
9.439927e-003
9.439924e-003
9.439923e-003
9.439922e-003
9.439921e-003
9.439921e-003
9.439920e-003
9.439920e-003
9.439920e-003
9.439920e-003
9.439920e-003
9.439921e-003
9.439920e-003
9.439920e-003
9.439919e-003
9.439917e-003
9.439919e-003
9.439921e-003
9.439921e-003
9.439921e-003
9.439920e-003
9.439919e-003
9.439920e-003
9.439921e-003
9.439923e-003
9.439924e-003
9.439924e-003
9.439926e-003
9.439928e-003
9.439933e-003
9.439938e-003
9.439944e-003
9.439950e-003
9.439953e-003
9.439951e-003
9.439939e-003
9.439909e-003
9.439853e-003
9.439757e-003
9.439607e-003
9.439385e-003
9.439072e-003
9.438650e-003
9.438102e-003
9.437412e-003
9.436573e-003
9.435578e-003
9.434432e-003
9.433143e-003
9.431727e-003
9.430205e-003
9.428600e-003
9.426939e-003
9.425249e-003
9.423558e-003
9.421891e-003
9.420271e-003
9.418721e-003
9.417259e-003
9.415904e-003
9.414671e-003
9.413576e-003
9.412634e-003
9.411857e-003
9.411260e-003
9.410854e-003
9.410653e-003
9.410665e-003
9.410901e-003
9.411367e-003
9.412066e-003
9.412997e-003
9.414153e-003
9.415522e-003
9.417086e-003
9.418818e-003
9.420685e-003
9.422648e-003
9.424661e-003
9.426677e-003
9.428645e-003
9.430519e-003
9.432257e-003
9.433824e-003
9.435199e-003
9.436367e-003
9.437331e-003
9.438099e-003
9.438690e-003
9.439128e-003
9.439439e-003
9.439650e-003
9.439786e-003
9.439869e-003
9.439914e-003
9.439936e-003
9.439943e-003
9.439943e-003
9.439940e-003
9.439935e-003
9.439931e-003
9.439927e-003
9.439924e-003
9.439923e-003
9.439922e-003
9.439922e-003
9.439921e-003
9.439920e-003
9.439920e-003
9.439920e-003
9.439920e-003
9.439921e-003
9.439920e-003
9.439920e-003
9.439919e-003
9.439920e-003
9.439920e-003
9.439921e-003
9.439921e-003
9.439920e-003
9.439919e-003
9.439919e-003
9.439920e-003
9.439922e-003
9.439924e-003
9.439926e-003
9.439927e-003
9.439930e-003
9.439934e-003
9.439940e-003
9.439947e-003
9.439953e-003
9.439954e-003
9.439947e-003
9.439924e-003
9.439873e-003
9.439778e-003
9.439618e-003
9.439364e-003
9.438984e-003
9.438443e-003
9.437701e-003
9.436722e-003
9.435472e-003
9.433927e-003
9.432074e-003
9.429913e-003
9.427459e-003
9.424737e-003
9.421789e-003
9.418662e-003
9.415409e-003
9.412087e-003
9.408749e-003
9.405449e-003
9.402234e-003
9.399146e-003
9.396222e-003
9.393493e-003
9.390988e-003
9.388731e-003
9.386744e-003
9.385049e-003
9.383664e-003
9.382609e-003
9.381904e-003
9.381565e-003
9.381610e-003
9.382055e-003
9.382911e-003
9.384187e-003
9.385886e-003
9.388004e-003
9.390525e-003
9.393424e-003
9.396665e-003
9.400195e-003
9.403949e-003
9.407849e-003
9.411805e-003
9.415724e-003
9.419511e-003
9.423075e-003
9.426339e-003
9.429243e-003
9.431752e-003
9.433852e-003
9.435554e-003
9.436887e-003
9.437893e-003
9.438624e-003
9.439135e-003
9.439476e-003
9.439692e-003
9.439821e-003
9.439893e-003
9.439927e-003
9.439941e-003
9.439944e-003
9.439941e-003
9.439936e-003
9.439931e-003
9.439927e-003
9.439925e-003
9.439924e-003
9.439923e-003
9.439922e-003
9.439921e-003
9.439920e-003
9.439920e-003
9.439920e-003
9.439920e-003
9.439920e-003
9.439920e-003
9.439920e-003
9.439922e-003
9.439921e-003
9.439920e-003
9.439920e-003
9.439920e-003
9.439920e-003
9.439920e-003
9.439921e-003
9.439923e-003
9.439925e-003
9.439928e-003
9.439931e-003
9.439936e-003
9.439942e-003
9.439950e-003
9.439955e-003
9.439955e-003
9.439942e-003
9.439905e-003
9.439826e-003
9.439680e-003
9.439431e-003
9.439033e-003
9.438427e-003
9.437548e-003
9.436322e-003
9.434676e-003
9.432542e-003
9.429866e-003
9.426614e-003
9.422780e-003
9.418386e-003
9.413484e-003
9.408150e-003
9.402482e-003
9.396588e-003
9.390579e-003
9.384567e-003
9.378651e-003
9.372920e-003
9.367448e-003
9.362298e-003
9.357516e-003
9.353141e-003
9.349202e-003
9.345720e-003
9.342713e-003
9.340197e-003
9.338184e-003
9.336689e-003
9.335726e-003
9.335310e-003
9.335459e-003
9.336193e-003
9.337531e-003
9.339493e-003
9.342098e-003
9.345359e-003
9.349278e-003
9.353848e-003
9.359042e-003
9.364810e-003
9.371078e-003
9.377740e-003
9.384664e-003
9.391690e-003
9.398644e-003
9.405345e-003
9.411624e-003
9.417333e-003
9.422366e-003
9.426662e-003
9.430206e-003
9.433031e-003
9.435203e-003
9.436812e-003
9.437959e-003
9.438744e-003
9.439258e-003
9.439577e-003
9.439765e-003
9.439867e-003
9.439918e-003
9.439939e-003
9.439944e-003
9.439942e-003
9.439937e-003
9.439932e-003
9.439928e-003
9.439925e-003
9.439924e-003
9.439922e-003
9.439921e-003
9.439920e-003
9.439920e-003
9.439920e-003
9.439920e-003
9.439920e-003
9.439920e-003
9.439920e-003
9.439922e-003
9.439921e-003
9.439920e-003
9.439919e-003
9.439920e-003
9.439921e-003
9.439922e-003
9.439923e-003
9.439924e-003
9.439927e-003
9.439931e-003
9.439937e-003
9.439944e-003
9.439952e-003
9.439957e-003
9.439955e-003
9.439936e-003
9.439884e-003
9.439773e-003
9.439565e-003
9.439205e-003
9.438620e-003
9.437713e-003
9.436370e-003
9.434462e-003
9.431853e-003
9.428414e-003
9.424039e-003
9.418660e-003
9.412263e-003
9.404896e-003
9.396669e-003
9.387749e-003
9.378345e-003
9.368688e-003
9.359013e-003
9.349539e-003
9.340456e-003
9.331918e-003
9.324038e-003
9.316890e-003
9.310515e-003
9.304927e-003
9.300117e-003
9.296061e-003
9.292725e-003
9.290064e-003
9.288032e-003
9.286579e-003
9.285658e-003
9.285230e-003
9.285262e-003
9.285737e-003
9.286654e-003
9.288032e-003
9.289914e-003
9.292364e-003
9.295465e-003
9.299315e-003
9.304015e-003
9.309662e-003
9.316326e-003
9.324037e-003
9.332764e-003
9.342401e-003
9.352762e-003
9.363579e-003
9.374526e-003
9.385243e-003
9.395379e-003
9.404628e-003
9.412763e-003
9.419656e-003
9.425280e-003
9.429696e-003
9.433033e-003
9.435458e-003
9.437151e-003
9.438284e-003
9.439009e-003
9.439451e-003
9.439706e-003
9.439843e-003
9.439910e-003
9.439937e-003
9.439944e-003
9.439942e-003
9.439937e-003
9.439932e-003
9.439928e-003
9.439925e-003
9.439923e-003
9.439922e-003
9.439921e-003
9.439921e-003
9.439920e-003
9.439920e-003
9.439920e-003
9.439920e-003
9.439920e-003
9.439922e-003
9.439920e-003
9.439919e-003
9.439919e-003
9.439921e-003
9.439923e-003
9.439924e-003
9.439925e-003
9.439927e-003
9.439931e-003
9.439937e-003
9.439945e-003
9.439953e-003
9.439958e-003
9.439954e-003
9.439929e-003
9.439862e-003
9.439718e-003
9.439443e-003
9.438957e-003
9.438149e-003
9.436870e-003
9.434936e-003
9.432132e-003
9.428225e-003
9.422989e-003
9.416237e-003
9.407857e-003
9.397849e-003
9.386348e-003
9.373636e-003
9.360121e-003
9.346305e-003
9.332732e-003
9.319937e-003
9.308391e-003
9.298464e-003
9.290408e-003
9.284344e-003
9.280281e-003
9.278127e-003
9.277720e-003
9.278844e-003
9.281252e-003
9.284675e-003
9.288833e-003
9.293435e-003
9.298186e-003
9.302792e-003
9.306967e-003
9.310446e-003
9.312997e-003
9.314437e-003
9.314650e-003
9.313605e-003
9.311370e-003
9.308125e-003
9.304167e-003
9.299907e-003
9.295856e-003
9.292596e-003
9.290736e-003
9.290853e-003
9.293421e-003
9.298741e-003
9.306875e-003
9.317614e-003
9.330481e-003
9.344783e-003
9.359700e-003
9.374396e-003
9.388131e-003
9.400345e-003
9.410704e-003
9.419098e-003
9.425609e-003
9.430447e-003
9.433894e-003
9.436249e-003
9.437790e-003
9.438754e-003
9.439329e-003
9.439652e-003
9.439821e-003
9.439902e-003
9.439935e-003
9.439944e-003
9.439943e-003
9.439937e-003
9.439932e-003
9.439927e-003
9.439924e-003
9.439923e-003
9.439922e-003
9.439922e-003
9.439921e-003
9.439920e-003
9.439920e-003
9.439920e-003
9.439920e-003
9.439921e-003
9.439920e-003
9.439919e-003
9.439919e-003
9.439921e-003
9.439924e-003
9.439926e-003
9.439928e-003
9.439931e-003
9.439937e-003
9.439945e-003
9.439954e-003
9.439960e-003
9.439954e-003
9.439925e-003
9.439845e-003
9.439670e-003
9.439329e-003
9.438712e-003
9.437661e-003
9.435961e-003
9.433331e-003
9.429435e-003
9.423901e-003
9.416361e-003
9.406519e-003
9.394233e-003
9.379601e-003
9.363038e-003
9.345301e-003
9.327468e-003
9.310851e-003
9.296857e-003
9.286831e-003
9.281904e-003
9.282885e-003
9.290191e-003
9.303838e-003
9.323478e-003
9.348468e-003
9.377955e-003
9.410957e-003
9.446430e-003
9.483319e-003
9.520570e-003
9.557143e-003
9.592006e-003
9.624129e-003
9.652492e-003
9.676100e-003
9.694006e-003
9.705356e-003
9.709432e-003
9.705713e-003
9.693928e-003
9.674122e-003
9.646705e-003
9.612496e-003
9.572745e-003
9.529125e-003
9.483686e-003
9.438754e-003
9.396777e-003
9.360114e-003
9.330781e-003
9.310207e-003
9.299031e-003
9.297007e-003
9.303037e-003
9.315356e-003
9.331815e-003
9.350217e-003
9.368623e-003
9.385563e-003
9.400123e-003
9.411919e-003
9.420981e-003
9.427612e-003
9.432244e-003
9.435339e-003
9.437317e-003
9.438525e-003
9.439226e-003
9.439610e-003
9.439806e-003
9.439898e-003
9.439934e-003
9.439944e-003
9.439942e-003
9.439937e-003
9.439931e-003
9.439927e-003
9.439924e-003
9.439923e-003
9.439922e-003
9.439921e-003
9.439920e-003
9.439920e-003
9.439920e-003
9.439920e-003
9.439921e-003
9.439920e-003
9.439920e-003
9.439920e-003
9.439922e-003
9.439925e-003
9.439928e-003
9.439931e-003
9.439937e-003
9.439945e-003
9.439954e-003
9.439961e-003
9.439957e-003
9.439925e-003
9.439836e-003
9.439638e-003
9.439240e-003
9.438503e-003
9.437215e-003
9.435079e-003
9.431697e-003
9.426575e-003
9.419151e-003
9.408870e-003
9.395310e-003
9.378362e-003
9.358444e-003
9.336700e-003
9.315125e-003
9.296546e-003
9.284424e-003
9.282509e-003
9.294386e-003
9.323034e-003
9.370462e-003
9.437507e-003
9.523790e-003
9.627822e-003
9.747223e-003
9.878988e-003
1.001977e-002
1.016612e-002
1.031463e-002
1.046209e-002
1.060541e-002
1.074166e-002
1.086801e-002
1.098166e-002
1.107983e-002
1.115981e-002
1.121897e-002
1.125489e-002
1.126543e-002
1.124894e-002
1.120437e-002
1.113145e-002
1.103088e-002
1.090447e-002
1.075527e-002
1.058764e-002
1.040723e-002
1.022081e-002
1.003595e-002
9.860494e-003
9.701879e-003
9.566341e-003
9.458189e-003
9.379276e-003
9.328809e-003
9.303592e-003
9.298654e-003
9.308135e-003
9.326217e-003
9.347903e-003
9.369479e-003
9.388626e-003
9.404256e-003
9.416187e-003
9.424788e-003
9.430679e-003
9.434527e-003
9.436925e-003
9.438352e-003
9.439158e-003
9.439588e-003
9.439802e-003
9.439898e-003
9.439935e-003
9.439944e-003
9.439942e-003
9.439936e-003
9.439930e-003
9.439927e-003
9.439924e-003
9.439923e-003
9.439921e-003
9.439920e-003
9.439920e-003
9.439920e-003
9.439920e-003
9.439921e-003
9.439921e-003
9.439922e-003
9.439922e-003
9.439923e-003
9.439926e-003
9.439930e-003
9.439936e-003
9.439944e-003
9.439954e-003
9.439961e-003
9.439959e-003
9.439929e-003
9.439838e-003
9.439627e-003
9.439192e-003
9.438361e-003
9.436872e-003
9.434337e-003
9.430221e-003
9.423840e-003
9.414398e-003
9.401106e-003
9.383416e-003
9.361389e-003
9.336190e-003
9.310608e-003
9.289465e-003
9.279712e-003
9.290075e-003
9.330228e-003
9.409619e-003
9.536199e-003
9.715339e-003
9.949139e-003
1.023625e-002
1.057214e-002
1.094973e-002
1.136019e-002
1.179375e-002
1.224049e-002
1.269087e-002
1.313607e-002
1.356811e-002
1.397976e-002
1.436433e-002
1.471550e-002
1.502708e-002
1.529297e-002
1.550707e-002
1.566342e-002
1.575634e-002
1.578069e-002
1.573214e-002
1.560755e-002
1.540538e-002
1.512608e-002
1.477261e-002
1.435083e-002
1.386987e-002
1.334237e-002
1.278440e-002
1.221500e-002
1.165519e-002
1.112639e-002
1.064845e-002
1.023743e-002
9.903736e-003
9.650861e-003
9.475249e-003
9.367297e-003
9.313335e-003
9.298107e-003
9.307146e-003
9.328509e-003
9.353620e-003
9.377235e-003
9.396823e-003
9.411715e-003
9.422295e-003
9.429394e-003
9.433921e-003
9.436671e-003
9.438263e-003
9.439137e-003
9.439590e-003