# vtk DataFile Version 3.0
vtk output
ASCII
DATASET STRUCTURED_POINTS
DIMENSIONS 100 100 1
SPACING 1 1 1
ORIGIN 0 0 0
POINT_DATA 10000
SCALARS SFBox_profile double
LOOKUP_TABLE default 
0.000000e+000
0.000000e+000
0.000000e+000
0.000000e+000
0.000000e+000
0.000000e+000
0.000000e+000
0.000000e+000
0.000000e+000
0.000000e+000
0.000000e+000
0.000000e+000
0.000000e+000
0.000000e+000
0.000000e+000
0.000000e+000
0.000000e+000
0.000000e+000
0.000000e+000
0.000000e+000
0.000000e+000
0.000000e+000
0.000000e+000
0.000000e+000
0.000000e+000
0.000000e+000
0.000000e+000
0.000000e+000
0.000000e+000
0.000000e+000
0.000000e+000
0.000000e+000
0.000000e+000
0.000000e+000
0.000000e+000
0.000000e+000
0.000000e+000
0.000000e+000
0.000000e+000
0.000000e+000
0.000000e+000
0.000000e+000
0.000000e+000
0.000000e+000
0.000000e+000
0.000000e+000
0.000000e+000
0.000000e+000
0.000000e+000
0.000000e+000
0.000000e+000
0.000000e+000
0.000000e+000
0.000000e+000
0.000000e+000
0.000000e+000
0.000000e+000
0.000000e+000
0.000000e+000
0.000000e+000
0.000000e+000
0.000000e+000
0.000000e+000
0.000000e+000
0.000000e+000
0.000000e+000
0.000000e+000
0.000000e+000
0.000000e+000
0.000000e+000
0.000000e+000
0.000000e+000
0.000000e+000
0.000000e+000
0.000000e+000
0.000000e+000
0.000000e+000
0.000000e+000
0.000000e+000
0.000000e+000
0.000000e+000
0.000000e+000
0.000000e+000
0.000000e+000
0.000000e+000
0.000000e+000
0.000000e+000
0.000000e+000
0.000000e+000
0.000000e+000
0.000000e+000
0.000000e+000
0.000000e+000
0.000000e+000
0.000000e+000
0.000000e+000
0.000000e+000
0.000000e+000
0.000000e+000
0.000000e+000
2.192277e-010
3.045915e-010
4.848211e-010
7.778593e-010
1.207213e-009
1.795754e-009
2.553885e-009
3.459134e-009
4.423891e-009
5.248468e-009
5.558216e-009
4.726506e-009
1.789984e-009
-4.631859e-009
-1.639532e-008
-3.584826e-008
-6.578232e-008
-1.093069e-007
-1.696422e-007
-2.498447e-007
-3.524989e-007
-4.794199e-007
-6.314186e-007
-8.081719e-007
-1.008222e-006
-1.229102e-006
-1.467558e-006
-1.719841e-006
-1.981999e-006
-2.250159e-006
-2.520750e-006
-2.790662e-006
-3.057345e-006
-3.318838e-006
-3.573750e-006
-3.821201e-006
-4.060730e-006
-4.292197e-006
-4.515678e-006
-4.731371e-006
-4.939510e-006
-5.140303e-006
-5.333883e-006
-5.520280e-006
-5.699401e-006
-5.871032e-006
-6.034835e-006
-6.190363e-006
-6.337069e-006
-6.474312e-006
-6.601370e-006
-6.717441e-006
-6.821643e-006
-6.913017e-006
-6.990518e-006
-7.053017e-006
-7.099289e-006
-7.128012e-006
-7.137756e-006
-7.126973e-006
-7.093985e-006
-7.036967e-006
-6.953941e-006
-6.842769e-006
-6.701176e-006
-6.526812e-006
-6.317369e-006
-6.070792e-006
-5.785570e-006
-5.461130e-006
-5.098283e-006
-4.699688e-006
-4.270224e-006
-3.817198e-006
-3.350269e-006
-2.881033e-006
-2.422246e-006
-1.986740e-006
-1.586187e-006
-1.229910e-006
-9.239773e-007
-6.707683e-007
-4.690804e-007
-3.147228e-007
-2.014344e-007
-1.219061e-007
-6.871192e-008
-3.501678e-008
-1.501074e-008
-4.087070e-009
1.178267e-009
3.173863e-009
3.460016e-009
2.984608e-009
2.275303e-009
1.592768e-009
1.042237e-009
6.483374e-010
4.014407e-010
2.840077e-010
3.694424e-010
4.714274e-010
6.847812e-010
1.025889e-009
1.512233e-009
2.150663e-009
2.916429e-009
3.718690e-009
4.348022e-009
4.402470e-009
3.191613e-009
-3.766752e-010
-7.914530e-009
-2.165643e-008
-4.451623e-008
-8.006492e-008
-1.323971e-007
-2.058664e-007
-3.046947e-007
-4.324908e-007
-5.917522e-007
-7.834420e-007
-1.006733e-006
-1.258976e-006
-1.535914e-006
-1.832077e-006
-2.141305e-006
-2.457279e-006
-2.774001e-006
-3.086152e-006
-3.389326e-006
-3.680127e-006
-3.956166e-006
-4.215970e-006
-4.458835e-006
-4.684640e-006
-4.893666e-006
-5.086412e-006
-5.263456e-006
-5.425356e-006
-5.572592e-006
-5.705553e-006
-5.824550e-006
-5.929852e-006
-6.021724e-006
-6.100462e-006
-6.166430e-006
-6.220069e-006
-6.261909e-006
-6.292566e-006
-6.312734e-006
-6.323175e-006
-6.324722e-006
-6.318268e-006
-6.304777e-006
-6.285280e-006
-6.260874e-006
-6.232696e-006
-6.201882e-006
-6.169479e-006
-6.136317e-006
-6.102831e-006
-6.068830e-006
-6.033233e-006
-5.993796e-006
-5.946880e-006
-5.887309e-006
-5.808411e-006
-5.702294e-006
-5.560409e-006
-5.374420e-006
-5.137321e-006
-4.844701e-006
-4.495952e-006
-4.095218e-006
-3.651805e-006
-3.179843e-006
-2.697126e-006
-2.223186e-006
-1.776924e-006
-1.374268e-006
-1.026347e-006
-7.385933e-007
-5.108807e-007
-3.385425e-007
-2.139036e-007
-1.278979e-007
-7.143645e-008
-3.635415e-008
-1.591173e-008
-4.933395e-009
3.028900e-010
2.308140e-009
2.668290e-009
2.314701e-009
1.748477e-009
1.209027e-009
7.905367e-010
5.163810e-010
3.829633e-010
6.896271e-010
8.245816e-010
1.102074e-009
1.531515e-009
2.110544e-009
2.799439e-009
3.477494e-009
3.874110e-009
3.467518e-009
1.346861e-009
-3.960191e-009
-1.468114e-008
-3.398540e-008
-6.611823e-008
-1.164200e-007
-1.911604e-007
-2.971254e-007
-4.409277e-007
-6.280809e-007
-8.619627e-007
-1.142878e-006
-1.467460e-006
-1.828599e-006
-2.215954e-006
-2.616974e-006
-3.018188e-006
-3.406532e-006
-3.770449e-006
-4.100646e-006
-4.390441e-006
-4.635769e-006
-4.834916e-006
-4.988093e-006
-5.096931e-006
-5.163952e-006
-5.192076e-006
-5.184202e-006
-5.142899e-006
-5.070238e-006
-4.967753e-006
-4.836536e-006
-4.677407e-006
-4.491148e-006
-4.278724e-006
-4.041482e-006
-3.781294e-006
-3.500633e-006
-3.202597e-006
-2.890874e-006
-2.569693e-006
-2.243762e-006
-1.918222e-006
-1.598623e-006
-1.290930e-006
-1.001548e-006
-7.373595e-007
-5.057419e-007
-3.145381e-007
-1.719512e-007
-8.632139e-008
-6.575688e-008
-1.175909e-007
-2.476561e-007
-4.593888e-007
-7.528098e-007
-1.123471e-006
-1.561502e-006
-2.050941e-006
-2.569545e-006
-3.089297e-006
-3.577763e-006
-4.000403e-006
-4.323757e-006
-4.519271e-006
-4.567283e-006
-4.460458e-006
-4.205883e-006
-3.825085e-006
-3.351618e-006
-2.826405e-006
-2.291716e-006
-1.785116e-006
-1.334805e-006
-9.573185e-007
-6.577940e-007
-4.322333e-007
-2.707495e-007
-1.607870e-007
-8.964579e-008
-4.606884e-008
-2.097616e-008
-7.580625e-009
-1.138990e-009
1.458212e-009
2.121101e-009
1.943030e-009
1.500115e-009
1.065332e-009
7.497816e-010
5.887088e-010
1.216541e-009
1.398684e-009
1.763212e-009
2.297706e-009
2.947369e-009
3.560794e-009
3.800307e-009
3.004310e-009
-9.372661e-012
-7.203125e-009
-2.163138e-008
-4.776980e-008
-9.179373e-008
-1.616987e-007
-2.671189e-007
-4.186809e-007
-6.267637e-007
-8.996511e-007
-1.241277e-006
-1.649022e-006
-2.112180e-006
-2.611687e-006
-3.121400e-006
-3.610753e-006
-4.048246e-006
-4.404979e-006
-4.657529e-006
-4.789706e-006
-4.793077e-006
-4.666436e-006
-4.414550e-006
-4.046543e-006
-3.574217e-006
-3.010500e-006
-2.368133e-006
-1.658652e-006
-8.917133e-007
-7.476301e-008
7.869413e-007
1.689998e-006
2.632291e-006
3.612289e-006
4.628319e-006
5.677924e-006
6.757379e-006
7.861391e-006
8.983005e-006
1.011366e-005
1.124334e-005
1.236084e-005
1.345389e-005
1.450937e-005
1.551332e-005
1.645095e-005
1.730649e-005
1.806309e-005
1.870268e-005
1.920587e-005
1.955207e-005
1.971973e-005
1.968689e-005
1.943207e-005
1.893556e-005
1.818110e-005
1.715803e-005
1.586378e-005
1.430661e-005
1.250830e-005
1.050648e-005
8.356064e-006
6.129111e-006
3.912579e-006
1.803296e-006
-9.994005e-008
-1.706677e-006
-2.946257e-006
-3.778341e-006
-4.200026e-006
-4.247276e-006
-3.989471e-006
-3.517673e-006
-2.929195e-006
-2.312325e-006
-1.734979e-006
-1.239574e-006
-8.441664e-007
-5.479573e-007
-3.384839e-007
-1.981834e-007
-1.091106e-007
-5.561591e-008
-2.540182e-008
-9.548596e-009
-2.015689e-009
1.033220e-009
1.882286e-009
1.800502e-009
1.439193e-009
1.101913e-009
9.131396e-010
1.997033e-009
2.233065e-009
2.684734e-009
3.284253e-009
3.855238e-009
4.003356e-009
2.939606e-009
-7.846196e-010
-9.646096e-009
-2.762021e-008
-6.071765e-008
-1.174966e-007
-2.093812e-007
-3.505207e-007
-5.568304e-007
-8.438330e-007
-1.223076e-006
-1.697338e-006
-2.255520e-006
-2.868747e-006
-3.489359e-006
-4.053882e-006
-4.489814e-006
-4.724838e-006
-4.696272e-006
-4.358593e-006
-3.687653e-006
-2.681193e-006
-1.356237e-006
2.554969e-007
2.112967e-006
4.170973e-006
6.384536e-006
8.712203e-006
1.111826e-005
1.357388e-005
1.605742e-005
1.855391e-005
2.105401e-005
2.355248e-005
2.604651e-005
2.853404e-005
3.101230e-005
3.347665e-005
3.591996e-005
3.833236e-005
4.070140e-005
4.301250e-005
4.524952e-005
4.739529e-005
4.943213e-005
5.134207e-005
5.310702e-005
5.470860e-005
5.612793e-005
5.734522e-005
5.833929e-005
5.908713e-005
5.956336e-005
5.973983e-005
5.958525e-005
5.906506e-005
5.814162e-005
5.677496e-005
5.492450e-005
5.255195e-005
4.962598e-005
4.612884e-005
4.206486e-005
3.747021e-005
3.242235e-005
2.704677e-005
2.151805e-005
1.605257e-005
1.089117e-005
6.272635e-006
2.401395e-006
-5.840644e-007
-2.634364e-006
-3.796870e-006
-4.204335e-006
-4.046471e-006
-3.532094e-006
-2.852454e-006
-2.155288e-006
-1.534474e-006
-1.034067e-006
-6.611908e-007
-4.012012e-007
-2.303909e-007
-1.243340e-007
-6.214574e-008
-2.788554e-008
-1.036084e-008
-2.243001e-009
9.668520e-010
1.858353e-009
1.823543e-009
1.554811e-009
1.363672e-009
3.074286e-009
3.351815e-009
3.838275e-009
4.342996e-009
4.433502e-009
3.225176e-009
-9.519320e-010
-1.104118e-008
-3.191858e-008
-7.119794e-008
-1.400766e-007
-2.539824e-007
-4.325832e-007
-6.984683e-007
-1.073608e-006
-1.572788e-006
-2.193967e-006
-2.907051e-006
-3.644454e-006
-4.297840e-006
-4.724504e-006
-4.763892e-006
-4.260994e-006
-3.090719e-006
-1.177089e-006
1.497062e-006
4.891061e-006
8.916250e-006
1.345120e-005
1.835837e-005
2.349908e-005
2.874510e-005
3.398627e-005
3.913430e-005
4.412348e-005
4.890896e-005
5.346332e-005
5.777234e-005
6.183061e-005
6.563747e-005
6.919372e-005
7.249927e-005
7.555191e-005
7.834700e-005
8.087812e-005
8.313819e-005
8.512103e-005
8.682284e-005
8.824353e-005
8.938766e-005
9.026501e-005
9.089076e-005
9.128542e-005
9.147455e-005
9.148832e-005
9.136090e-005
9.112952e-005
9.083293e-005
9.050910e-005
9.019163e-005
8.990480e-005
8.965695e-005
8.943245e-005
8.918273e-005
8.881792e-005
8.820076e-005
8.714586e-005
8.542743e-005
8.279833e-005
7.902185e-005
7.391449e-005
6.739437e-005
5.952542e-005
5.054538e-005
4.086569e-005
3.103532e-005
2.166871e-005
1.334901e-005
6.528487e-006
1.453012e-006
-1.867938e-006
-3.638275e-006
-4.207300e-006
-3.979199e-006
-3.328330e-006
-2.542733e-006
-1.804630e-006
-1.201810e-006
-7.553162e-007
-4.489594e-007
-2.519860e-007
-1.326777e-007
-6.457284e-008
-2.811058e-008
-1.002081e-008
-1.914577e-009
1.179232e-009
2.022569e-009
2.046490e-009
1.928109e-009
4.463600e-009
4.729917e-009
5.093502e-009
5.115259e-009
3.862258e-009
-4.793251e-010
-1.120535e-008
-3.395183e-008
-7.781060e-008
-1.566010e-007
-2.899977e-007
-5.038678e-007
-8.286496e-007
-1.293995e-006
-1.917652e-006
-2.687513e-006
-3.538784e-006
-4.332817e-006
-4.847976e-006
-4.792362e-006
-3.841869e-006
-1.697063e-006
1.855915e-006
6.897597e-006
1.335357e-005
2.100297e-005
2.951258e-005
3.848607e-005
4.751571e-005
5.622589e-005
6.430262e-005
7.150812e-005
7.768300e-005
8.273916e-005
8.664686e-005
8.941831e-005
9.109070e-005
9.171085e-005
9.132342e-005
8.996386e-005
8.765607e-005
8.441434e-005
8.024828e-005
7.516966e-005
6.919946e-005
6.237448e-005
5.475228e-005
4.641431e-005
3.746709e-005
2.804185e-005
1.829316e-005
8.397387e-006
-1.448611e-006
-1.102807e-005
-2.010423e-005
-2.841996e-005
-3.569790e-005
-4.164223e-005
-4.594352e-005
-4.828820e-005
-4.837422e-005
-4.593428e-005
-4.076746e-005
-3.277886e-005
-2.202532e-005
-8.762570e-006
6.513999e-006
2.304598e-005
3.981956e-005
5.561707e-005
6.912111e-005
7.907024e-005
8.445096e-005
8.469415e-005
7.982890e-005
7.054097e-005
5.809693e-005
4.413163e-005
3.034244e-005
1.816995e-005
8.557887e-006
1.858313e-006
-2.111494e-006
-3.899998e-006
-4.206440e-006
-3.691109e-006
-2.857922e-006
-2.019993e-006
-1.326700e-006
-8.176371e-007
-4.748811e-007
-2.597557e-007
-1.329396e-007
-6.263891e-008
-2.616655e-008
-8.679092e-009
-1.128051e-009
1.655252e-009
2.431278e-009
2.550647e-009
6.113943e-009
6.240938e-009
6.132940e-009
4.883279e-009
6.398706e-010
-1.007714e-008
-3.341213e-008
-7.960633e-008
-1.647557e-007
-3.125661e-007
-5.552639e-007
-9.319118e-007
-1.481087e-006
-2.223756e-006
-3.132856e-006
-4.090916e-006
-4.846756e-006
-4.992999e-006
-3.989314e-006
-1.245255e-006
3.747074e-006
1.126411e-005
2.123122e-005
3.317129e-005
4.623863e-005
5.933225e-005
7.125765e-005
8.089288e-005
8.732019e-005
8.990179e-005
8.829739e-005
8.243623e-005
7.246219e-005
5.866833e-005
4.143121e-005
2.115109e-005
-1.797121e-006
-2.709831e-005
-5.451414e-005
-8.388248e-005
-1.151022e-004
-1.481077e-004
-1.828393e-004
-2.192142e-004
-2.571025e-004
-2.963113e-004
-3.365762e-004
-3.775624e-004
-4.188702e-004
-4.600452e-004
-5.005884e-004
-5.399645e-004
-5.776072e-004
-6.129192e-004
-6.452689e-004
-6.739839e-004
-6.983439e-004
-7.175745e-004
-7.308460e-004
-7.372804e-004
-7.359678e-004
-7.260005e-004
-7.065250e-004
-6.768198e-004
-6.364002e-004
-5.851530e-004
-5.234929e-004
-4.525266e-004
-3.741945e-004
-2.913464e-004
-2.076997e-004
-1.276300e-004
-5.576091e-005
3.639262e-006
4.737938e-005
7.402551e-005
8.430314e-005
8.100613e-005
6.837023e-005
5.110839e-005
3.342209e-005
1.828158e-005
7.167521e-006
2.472947e-007
-3.189547e-006
-4.229112e-006
-3.926405e-006
-3.076281e-006
-2.158297e-006
-1.393509e-006
-8.397451e-007
-4.752832e-007
-2.526324e-007
-1.251987e-007
-5.675284e-008
-2.242608e-008
-6.555775e-009
4.882641e-011
2.423835e-009
3.096937e-009
7.852572e-009
7.583487e-009
6.335880e-009
2.373787e-009
-7.753682e-009
-3.036430e-008
-7.634592e-008
-1.634006e-007
-3.185287e-007
-5.797851e-007
-9.950039e-007
-1.612938e-006
-2.459573e-006
-3.491664e-006
-4.525643e-006
-5.157283e-006
-4.712210e-006
-2.283422e-006
3.100669e-006
1.218163e-005
2.511501e-005
4.116452e-005
5.856118e-005
7.460872e-005
8.604977e-005
8.959437e-005
8.245793e-005
6.277051e-005
2.976374e-005
-1.627862e-005
-7.424187e-005
-1.424741e-004
-2.190691e-004
-3.020952e-004
-3.897618e-004
-4.805278e-004
-5.731602e-004
-6.667469e-004
-7.606664e-004
-8.545248e-004
-9.480733e-004
-1.041120e-003
-1.133451e-003
-1.224773e-003
-1.314681e-003
-1.402657e-003
-1.488083e-003
-1.570279e-003
-1.648545e-003
-1.722203e-003
-1.790626e-003
-1.853264e-003
-1.909647e-003
-1.959384e-003
-2.002149e-003
-2.037655e-003
-2.065630e-003
-2.085776e-003
-2.097727e-003
-2.100988e-003
-2.094864e-003
-2.078374e-003
-2.050161e-003
-2.008410e-003
-1.950812e-003
-1.874632e-003
-1.776929e-003
-1.655010e-003
-1.507145e-003
-1.333489e-003
-1.137052e-003
-9.243948e-004
-7.056916e-004
-4.938743e-004
-3.028164e-004
-1.448498e-004
-2.817434e-005
4.508795e-005
7.934738e-005
8.401898e-005
7.061062e-005
4.976785e-005
2.924438e-005
1.324723e-005
2.972044e-006
-2.308876e-006
-4.135317e-006
-4.049002e-006
-3.186715e-006
-2.206197e-006
-1.394146e-006
-8.187037e-007
-4.502281e-007
-2.318140e-007
-1.107370e-007
-4.786441e-008
-1.744197e-008
-3.894105e-009
1.526635e-009
3.307332e-009
9.312965e-009
8.187660e-009
4.635490e-009
-4.475258e-009
-2.524069e-008
-6.857938e-008
-1.528774e-007
-3.072075e-007
-5.741575e-007
-1.009597e-006
-1.673424e-006
-2.600454e-006
-3.736901e-006
-4.833190e-006
-5.309248e-006
-4.156029e-006
1.577193e-008
8.666039e-006
2.271602e-005
4.173603e-005
6.317291e-005
8.194237e-005
9.072674e-005
8.110274e-005
4.520564e-005
-2.254875e-005
-1.242658e-004
-2.583151e-004
-4.199403e-004
-6.023395e-004
-7.978188e-004
-9.987655e-004
-1.198338e-003
-1.390869e-003
-1.572029e-003
-1.738794e-003
-1.889282e-003
-2.022481e-003
-2.137956e-003
-2.235566e-003
-2.315253e-003
-2.376931e-003
-2.420454e-003
-2.445683e-003
-2.452596e-003
-2.441420e-003
-2.412748e-003
-2.367624e-003
-2.307563e-003
-2.234530e-003
-2.150875e-003
-2.059252e-003
-1.962540e-003
-1.863781e-003
-1.766148e-003
-1.672932e-003
-1.587543e-003
-1.513513e-003
-1.454478e-003
-1.414113e-003
-1.396004e-003
-1.403403e-003
-1.438846e-003
-1.503575e-003
-1.596729e-003
-1.714293e-003
-1.847890e-003
-1.983679e-003
-2.101870e-003
-2.177677e-003
-2.184552e-003
-2.100078e-003
-1.913588e-003
-1.632841e-003
-1.286008e-003
-9.163128e-004
-5.705449e-004
-2.866836e-004
-8.560640e-005
3.154777e-005
8.002948e-005
8.323378e-005
6.408027e-005
3.951456e-005
1.889461e-005
5.383130e-006
-1.580049e-006
-4.041737e-006
-4.083693e-006
-3.186425e-006
-2.159444e-006
-1.328699e-006
-7.575628e-007
-4.034784e-007
-2.004627e-007
-9.171435e-008
-3.722641e-008
-1.184391e-008
-1.055215e-009
2.739802e-009
9.851284e-009
7.109504e-009
-6.358132e-010
-1.875433e-008
-5.751347e-008
-1.349276e-007
-2.805796e-007
-5.395982e-007
-9.740816e-007
-1.655126e-006
-2.631387e-006
-3.851820e-006
-5.021062e-006
-5.395979e-006
-3.608140e-006
2.298763e-006
1.436749e-005
3.358869e-005
5.819544e-005
8.183920e-005
9.249179e-005
7.324475e-005
5.553636e-006
-1.257250e-004
-3.270773e-004
-5.933354e-004
-9.079637e-004
-1.245770e-003
-1.577195e-003
-1.873372e-003
-2.110639e-003
-2.273304e-003
-2.354328e-003
-2.354350e-003
-2.279700e-003
-2.140021e-003
-1.946048e-003
-1.707930e-003
-1.434308e-003
-1.132090e-003
-8.067297e-004
-4.627777e-004
-1.044578e-004
2.638702e-004
6.374606e-004
1.011164e-003
1.379604e-003
1.737479e-003
2.079893e-003
2.402641e-003
2.702388e-003
2.976716e-003
3.224072e-003
3.443608e-003
3.634989e-003
3.798165e-003
3.933141e-003
4.039746e-003
4.117380e-003
4.164737e-003
4.179460e-003
4.157716e-003
4.093691e-003
3.979011e-003
3.802223e-003
3.548569e-003
3.200549e-003
2.740077e-003
2.153317e-003
1.439123e-003
6.208439e-004
-2.417548e-004
-1.048007e-003
-1.670210e-003
-1.993199e-003
-1.969512e-003
-1.654119e-003
-1.182292e-003
-7.022451e-004
-3.174886e-004
-6.936611e-005
5.249918e-005
8.636405e-005
7.416841e-005
4.731421e-005
2.289978e-005
6.819695e-006
-1.281977e-006
-4.031159e-006
-4.043076e-006
-3.075987e-006
-2.022679e-006
-1.205384e-006
-6.647267e-007
-3.416328e-007
-1.629479e-007
-7.066306e-008
-2.618506e-008
-6.502092e-009
7.075856e-010
8.463430e-009
2.930361e-009
-1.188377e-008
-4.477407e-008
-1.122790e-007
-2.427929e-007
-4.815292e-007
-8.939463e-007
-1.560756e-006
-2.548555e-006
-3.826759e-006
-5.093751e-006
-5.501362e-006
-3.367059e-006
3.854327e-006
1.888413e-005
4.275168e-005
7.160509e-005
9.285008e-005
8.252813e-005
7.269565e-006
-1.670762e-004
-4.609178e-004
-8.656390e-004
-1.335325e-003
-1.788429e-003
-2.123693e-003
-2.250840e-003
-2.121021e-003
-1.738699e-003
-1.151319e-003
-4.279148e-004
3.606004e-004
1.153904e-003
1.907762e-003
2.594577e-003
3.200896e-003
3.723493e-003
4.165343e-003
4.532317e-003
4.830949e-003
5.067231e-003
5.246216e-003
5.372143e-003
5.448825e-003
5.480102e-003
5.470190e-003
5.423875e-003
5.346524e-003
5.243948e-003
5.122194e-003
4.987310e-003
4.845178e-003
4.701395e-003
4.561256e-003
4.429792e-003
4.311865e-003
4.212273e-003
4.135859e-003
4.087575e-003
4.072482e-003
4.095631e-003
4.161734e-003
4.274522e-003
4.435567e-003
4.642306e-003
4.884912e-003
5.141687e-003
5.372977e-003
5.514428e-003
5.472416e-003
5.128166e-003
4.362961e-003
3.120345e-003
1.503256e-003
-1.596511e-004
-1.404730e-003
-1.908944e-003
-1.720270e-003
-1.174239e-003
-6.090753e-004
-2.039883e-004
1.013719e-005
8.255931e-005
7.964462e-005
5.150865e-005
2.440114e-005
6.874685e-006
-1.528763e-006
-4.107035e-006
-3.917374e-006
-2.859075e-006
-1.809403e-006
-1.039273e-006
-5.522296e-007
-2.726623e-007
-1.239055e-007
-5.011413e-008
-1.645443e-008
-3.779048e-009
3.722001e-009
-6.312770e-009
-3.232977e-008
-8.813227e-008
-1.992326e-007
-4.083335e-007
-7.806287e-007
-1.402870e-006
-2.360381e-006
-3.658790e-006
-5.038746e-006
-5.643335e-006
-3.602907e-006
4.140640e-006
2.108050e-005
4.852066e-005
8.038354e-005
9.603424e-005
5.469793e-005
-1.005749e-004
-4.222235e-004
-9.192889e-004
-1.513285e-003
-2.013311e-003
-2.151719e-003
-1.718675e-003
-7.069145e-004
6.776632e-004
2.139350e-003
3.430897e-003
4.418200e-003
5.070006e-003
5.417046e-003
5.515749e-003
5.426579e-003
5.203673e-003
4.890864e-003
4.521089e-003
4.117594e-003
3.696013e-003
3.266624e-003
2.836370e-003
2.410403e-003
1.993098e-003
1.588571e-003
1.200815e-003
8.335723e-004
4.901023e-004
1.729425e-004
-1.162448e-004
-3.767088e-004
-6.085328e-004
-8.124703e-004
-9.897335e-004
-1.141769e-003
-1.270041e-003
-1.375834e-003
-1.460065e-003
-1.523096e-003
-1.564507e-003
-1.582814e-003
-1.575069e-003
-1.536317e-003
-1.458839e-003
-1.331177e-003
-1.136979e-003
-8.538779e-004
-4.530017e-004
9.966380e-005
8.377912e-004
1.781456e-003
2.911131e-003
4.124559e-003
5.181837e-003
5.678492e-003
5.147541e-003
3.396992e-003
9.421720e-004
-1.079281e-003
-1.845004e-003
-1.546306e-003
-8.823970e-004
-3.315362e-004
-2.842928e-005
7.794511e-005
8.132220e-005
5.162883e-005
2.308473e-005
5.536731e-006
-2.219552e-006
-4.192159e-006
-3.683393e-006
-2.546892e-006
-1.541411e-006
-8.497677e-007
-4.333291e-007
-2.043576e-007
-8.764753e-008
-3.305123e-008
-1.205342e-008
-6.241939e-009
-2.313325e-008
-6.597734e-008
-1.555671e-007
-3.295934e-007
-6.491217e-007
-1.201737e-006
-2.087637e-006
-3.355965e-006
-4.830917e-006
-5.756088e-006
-4.267156e-006
3.006025e-006
2.035012e-005
4.989077e-005
8.435240e-005
9.547176e-005
2.327035e-005
-2.181452e-004
-6.980682e-004
-1.376814e-003
-1.989168e-003
-2.015983e-003
-9.883539e-004
9.810574e-004
3.166356e-003
4.805930e-003
5.560079e-003
5.500038e-003
4.883186e-003
3.974803e-003
2.973077e-003
2.001058e-003
1.123835e-003
3.681835e-004
-2.623049e-004
-7.767861e-004
-1.190224e-003
-1.518993e-003
-1.778371e-003
-1.981374e-003
-2.138483e-003
-2.257875e-003
-2.345875e-003
-2.407469e-003
-2.446744e-003
-2.467233e-003
-2.472130e-003
-2.464410e-003
-2.446861e-003
-2.422088e-003
-2.392489e-003
-2.360247e-003
-2.327328e-003
-2.295504e-003
-2.266389e-003
-2.241484e-003
-2.222232e-003
-2.210062e-003
-2.206431e-003
-2.212846e-003
-2.230852e-003
-2.261961e-003
-2.307482e-003
-2.368158e-003
-2.443470e-003
-2.530353e-003
-2.620882e-003
-2.698228e-003
-2.729869e-003
-2.657060e-003
-2.381239e-003
-1.754747e-003
-6.003122e-004
1.190422e-003
3.429793e-003
5.355181e-003
5.710602e-003
3.755396e-003
6.034895e-004
-1.489069e-003
-1.732257e-003
-1.068222e-003
-4.095360e-004
-4.469936e-005
7.765518e-005
7.976920e-005
4.767543e-005
1.923813e-005
3.192505e-006
-3.084452e-006
-4.172001e-006
-3.325961e-006
-2.162815e-006
-1.246418e-006
-6.571709e-007
-3.201775e-007
-1.434879e-007
-5.890694e-008
-2.579944e-008
-2.368645e-008
-5.050451e-008
-1.174189e-007
-2.545171e-007
-5.150625e-007
-9.815820e-007
-1.761259e-006
-2.942597e-006
-4.453090e-006
-5.724570e-006
-5.108086e-006
7.623777e-007
1.679672e-005
4.654247e-005
8.367333e-005
9.590191e-005
6.563380e-006
-3.015240e-004
-9.154226e-004
-1.707868e-003
-2.083366e-003
-1.076815e-003
1.518073e-003
4.323421e-003
5.717740e-003
5.324287e-003
3.798959e-003
1.961327e-003
3.338297e-004
-8.854960e-004
-1.697456e-003
-2.183973e-003
-2.439095e-003
-2.540943e-003
-2.546181e-003
-2.493177e-003
-2.406887e-003
-2.303073e-003
-2.191395e-003
-2.077573e-003
-1.964860e-003
-1.855031e-003
-1.749026e-003
-1.647361e-003
-1.550356e-003
-1.458267e-003
-1.371325e-003
-1.289754e-003
-1.213750e-003
-1.143475e-003
-1.079044e-003
-1.020530e-003
-9.679699e-004
-9.213916e-004
-8.808356e-004
-8.463867e-004
-8.182078e-004
-7.965758e-004
-7.819239e-004
-7.748909e-004
-7.763835e-004
-7.876564e-004
-8.104192e-004
-8.469769e-004
-9.004112e-004
-9.748071e-004
-1.075508e-003
-1.209340e-003
-1.384618e-003
-1.610451e-003
-1.894135e-003
-2.233919e-003
-2.601549e-003
-2.905313e-003
-2.926240e-003
-2.255244e-003
-3.879825e-004
2.687244e-003
5.498665e-003
5.484301e-003
2.235370e-003
-9.783578e-004
-1.779004e-003
-1.134644e-003
-4.124074e-004
-3.073737e-005
8.190549e-005
7.452167e-005
4.010292e-005
1.369550e-005
4.899661e-007
-3.803187e-006
-3.956338e-006
-2.856607e-006
-1.742156e-006
-9.535683e-007
-4.793574e-007
-2.227070e-007
-9.700376e-008
-4.700956e-008
-5.111613e-008
-9.165070e-008
-1.914540e-007
-3.923502e-007
-7.661675e-007
-1.417281e-006
-2.459805e-006
-3.917759e-006
-5.450162e-006
-5.786932e-006
-1.926233e-006
1.123781e-005
3.887329e-005
7.794971e-005
9.830814e-005
1.527831e-005
-3.168978e-004
-1.015987e-003
-1.875498e-003
-1.902401e-003
2.770365e-004
3.905177e-003
5.893951e-003
4.859074e-003
2.194548e-003
-3.001350e-004
-1.862363e-003
-2.555625e-003
-2.696393e-003
-2.557285e-003
-2.306198e-003
-2.030050e-003
-1.767941e-003
-1.534285e-003
-1.331932e-003
-1.158859e-003
-1.011341e-003
-8.853716e-004
-7.772425e-004
-6.837589e-004
-6.022831e-004
-5.307042e-004
-4.673753e-004
-4.110361e-004
-3.607338e-004
-3.157480e-004
-2.755260e-004
-2.396293e-004
-2.076936e-004
-1.794020e-004
-1.544684e-004
-1.326305e-004
-1.136488e-004
-9.730939e-005
-8.343005e-005
-7.186686e-005
-6.252252e-005
-5.535623e-005
-5.039651e-005
-4.775904e-005
-4.767274e-005
-5.051859e-005
-5.688830e-005
-6.767305e-005
-8.419851e-005
-1.084311e-004
-1.432952e-004
-1.931621e-004
-2.645983e-004
-3.674771e-004
-5.165054e-004
-7.329355e-004
-1.045268e-003
-1.484959e-003
-2.065910e-003
-2.720753e-003
-3.147864e-003
-2.587717e-003
-1.700301e-005
4.088793e-003
6.017513e-003
3.158173e-003
-7.303433e-004
-1.776694e-003
-1.076112e-003
-3.394457e-004
6.473946e-006
8.585862e-005
6.477073e-005
3.000187e-005
7.645507e-006
-1.891893e-006
-4.136689e-006
-3.523535e-006
-2.317158e-006
-1.325722e-006
-6.883971e-007
-3.302330e-007
-1.504868e-007
-7.788317e-008
-9.104434e-008
-1.497162e-007
-2.925262e-007
-5.753043e-007
-1.090156e-006
-1.958668e-006
-3.274057e-006
-4.906300e-006
-6.031820e-006
-4.301919e-006
4.994178e-006
2.815137e-005
6.666886e-005
9.873019e-005
4.510964e-005
-2.564836e-004
-9.745006e-004
-1.910845e-003
-1.771466e-003
1.238229e-003
5.225376e-003
5.605311e-003
2.400171e-003
-9.119996e-004
-2.543117e-003
-2.812101e-003
-2.467343e-003
-1.969968e-003
-1.508603e-003
-1.134797e-003
-8.477122e-004
-6.316007e-004
-4.695554e-004
-3.475320e-004
-2.548710e-004
-1.837715e-004
-1.285937e-004
-8.526204e-005
-5.081983e-005
-2.311323e-005
-5.704016e-007
1.795572e-005
3.330217e-005
4.608152e-005
5.674658e-005
6.563882e-005
7.302407e-005
7.911772e-005
8.410177e-005
8.813548e-005
9.136152e-005
9.390904e-005
9.589509e-005
9.742516e-005
9.859346e-005
9.948321e-005
1.001669e-004
1.007066e-004
1.011529e-004
1.015438e-004
1.019007e-004
1.022206e-004
1.024631e-004
1.025269e-004
1.022099e-004
1.011400e-004
9.865498e-005
9.358886e-005
8.388634e-005
6.590471e-005
3.315821e-005
-2.587938e-005
-1.313992e-004
-3.175126e-004
-6.375506e-004
-1.161420e-003
-1.938421e-003
-2.852319e-003
-3.239676e-003
-1.514763e-003
3.031996e-003
6.068217e-003
3.204232e-003
-9.290709e-004
-1.731613e-003
-8.984827e-004
-2.147883e-004
4.897046e-005
8.336295e-005
5.079275e-005
1.909876e-005
2.288264e-006
-3.473967e-006
-4.007133e-006
-2.925800e-006
-1.767247e-006
-9.507375e-007
-4.701783e-007
-2.223681e-007
-1.206643e-007
-1.456768e-007
-2.273414e-007
-4.240401e-007
-8.072873e-007
-1.488846e-006
-2.595464e-006
-4.152215e-006
-5.745554e-006
-5.802386e-006
-5.360155e-007
1.644693e-005
5.056770e-005
9.159933e-005
7.901796e-005
-1.430373e-004
-7.957998e-004
-1.815488e-003
-1.894947e-003
1.337925e-003
5.621443e-003
4.893527e-003
5.152604e-004
-2.390935e-003
-2.879091e-003
-2.301299e-003
-1.575963e-003
-9.985890e-004
-5.999732e-004
-3.403657e-004
-1.752668e-004
-7.104411e-005
-5.240979e-006
3.640283e-005
6.277143e-005
7.938183e-005
8.968046e-005
9.584514e-005
9.927158e-005
1.008666e-004
1.012256e-004
1.007426e-004
9.967965e-005
9.821272e-005
9.646234e-005
9.451413e-005
9.243247e-005
9.026908e-005
8.806817e-005
8.586920e-005
8.370816e-005
8.161810e-005
7.962939e-005
7.777000e-005
7.606606e-005
7.454267e-005
7.322509e-005
7.214011e-005
7.131770e-005
7.079287e-005
7.060768e-005
7.081347e-005
7.147325e-005
7.266421e-005
7.447990e-005
7.703144e-005
8.044568e-005
8.485550e-005
9.037047e-005
9.700031e-005
1.044681e-004
1.117739e-004
1.162111e-004
1.112402e-004
8.215418e-005
-1.952659e-006
-2.005542e-004
-6.128458e-004
-1.360612e-003
-2.453305e-003
-3.314189e-003
-1.971888e-003
2.974925e-003
6.032887e-003
2.374056e-003
-1.421040e-003
-1.559274e-003
-6.312516e-004
-7.989078e-005
7.794352e-005
7.153903e-005
3.463160e-005
9.304944e-006
-1.541814e-006
-4.103821e-006
-3.495115e-006
-2.259728e-006
-1.265283e-006
-6.451066e-007
-3.151695e-007
-1.774304e-007
-2.165563e-007
-3.262042e-007
-5.876685e-007
-1.088786e-006
-1.957042e-006
-3.303200e-006
-5.016440e-006
-6.237169e-006
-4.362249e-006
6.045189e-006
3.231349e-005
7.468961e-005