# vtk DataFile Version 3.0
vtk output
ASCII
DATASET STRUCTURED_POINTS
DIMENSIONS 100 100 1
SPACING 1 1 1
ORIGIN 0 0 0
POINT_DATA 10000
SCALARS SFBox_profile double
LOOKUP_TABLE default 
0.000000e+000
0.000000e+000
0.000000e+000
0.000000e+000
0.000000e+000
0.000000e+000
0.000000e+000
0.000000e+000
0.000000e+000
0.000000e+000
0.000000e+000
0.000000e+000
0.000000e+000
0.000000e+000
0.000000e+000
0.000000e+000
0.000000e+000
0.000000e+000
0.000000e+000
0.000000e+000
0.000000e+000
0.000000e+000
0.000000e+000
0.000000e+000
0.000000e+000
0.000000e+000
0.000000e+000
0.000000e+000
0.000000e+000
0.000000e+000
0.000000e+000
0.000000e+000
0.000000e+000
0.000000e+000
0.000000e+000
0.000000e+000
0.000000e+000
0.000000e+000
0.000000e+000
0.000000e+000
0.000000e+000
0.000000e+000
0.000000e+000
0.000000e+000
0.000000e+000
0.000000e+000
0.000000e+000
0.000000e+000
0.000000e+000
0.000000e+000
0.000000e+000
0.000000e+000
0.000000e+000
0.000000e+000
0.000000e+000
0.000000e+000
0.000000e+000
0.000000e+000
0.000000e+000
0.000000e+000
0.000000e+000
0.000000e+000
0.000000e+000
0.000000e+000
0.000000e+000
0.000000e+000
0.000000e+000
0.000000e+000
0.000000e+000
0.000000e+000
0.000000e+000
0.000000e+000
0.000000e+000
0.000000e+000
0.000000e+000
0.000000e+000
0.000000e+000
0.000000e+000
0.000000e+000
0.000000e+000
0.000000e+000
0.000000e+000
0.000000e+000
0.000000e+000
0.000000e+000
0.000000e+000
0.000000e+000
0.000000e+000
0.000000e+000
0.000000e+000
0.000000e+000
0.000000e+000
0.000000e+000
0.000000e+000
0.000000e+000
0.000000e+000
0.000000e+000
0.000000e+000
0.000000e+000
0.000000e+000
-4.398931e-009
-1.945681e-009
1.248143e-009
3.349925e-009
3.359252e-009
1.528454e-009
-9.381068e-010
-2.669379e-009
-2.897092e-009
-1.765425e-009
-6.625433e-011
1.341339e-009
2.005670e-009
1.973405e-009
1.537725e-009
9.230821e-010
1.710765e-010
-7.323371e-010
-1.669931e-009
-2.358001e-009
-2.507373e-009
-2.031672e-009
-1.113216e-009
-7.337762e-011
8.320711e-010
1.522570e-009
2.043030e-009
2.436812e-009
2.672780e-009
2.680357e-009
2.434544e-009
1.996142e-009
1.472154e-009
9.436763e-010
4.311229e-010
-8.115827e-011
-5.980615e-010
-1.093789e-009
-1.531007e-009
-1.891184e-009
-2.183938e-009
-2.430665e-009
-2.643240e-009
-2.818281e-009
-2.948089e-009
-3.033724e-009
-3.087287e-009
-3.123263e-009
-3.148521e-009
-3.160073e-009
-3.151771e-009
-3.123401e-009
-3.083553e-009
-3.042821e-009
-3.003012e-009
-2.953348e-009
-2.879486e-009
-2.777774e-009
-2.658806e-009
-2.532918e-009
-2.390588e-009
-2.200986e-009
-1.936170e-009
-1.598893e-009
-1.221861e-009
-8.331947e-010
-4.231207e-010
4.584392e-011
5.854307e-010
1.137363e-009
1.592372e-009
1.865034e-009
1.952198e-009
1.909556e-009
1.764124e-009
1.457694e-009
8.985048e-010
8.977656e-011
-7.896366e-010
-1.451348e-009
-1.675545e-009
-1.452120e-009
-9.598753e-010
-4.070921e-010
1.124075e-010
6.117036e-010
1.070985e-009
1.327188e-009
1.140120e-009
4.138129e-010
-6.171818e-010
-1.434028e-009
-1.533725e-009
-7.871202e-010
4.163841e-010
1.371991e-009
1.496356e-009
7.093149e-010
-5.005343e-010
-1.377984e-009
-9.497101e-010
-4.074665e-010
2.886171e-010
7.200421e-010
6.641119e-010
2.054784e-010
-3.321130e-010
-5.978119e-010
-4.397671e-010
3.007687e-012
4.073894e-010
4.970975e-010
2.310770e-010
-1.861920e-010
-4.708046e-010
-4.651949e-010
-2.247079e-010
6.622895e-011
2.573289e-010
3.304614e-010
3.630343e-010
4.144896e-010
4.542359e-010
3.947711e-010
1.862645e-010
-1.254051e-010
-4.305232e-010
-6.402032e-010
-7.417471e-010
-7.805675e-010
-7.986683e-010
-7.943792e-010
-7.360919e-010
-6.053343e-010
-4.210520e-010
-2.242005e-010
-4.416174e-011
1.179447e-010
2.770059e-010
4.407099e-010
5.998769e-010
7.384022e-010
8.487512e-010
9.367862e-010
1.013434e-009
1.083647e-009
1.143410e-009
1.185967e-009
1.209892e-009
1.221148e-009
1.227636e-009
1.231674e-009
1.227768e-009
1.208347e-009
1.172311e-009
1.127346e-009
1.082063e-009
1.034923e-009
9.725274e-010
8.817740e-010
7.647012e-010
6.386484e-010
5.181031e-010
3.963227e-010
2.496184e-010
6.493404e-011
-1.369122e-010
-3.110318e-010
-4.267539e-010
-4.952632e-010
-5.527101e-010
-6.112001e-010
-6.302040e-010
-5.469833e-010
-3.438045e-010
-8.423734e-011
1.259391e-010
2.226567e-010
2.311394e-010
2.272260e-010
2.493728e-010
2.526678e-010
1.580285e-010
-4.742234e-011
-2.618243e-010
-3.325953e-010
-1.864446e-010
9.074229e-011
3.034748e-010
2.931152e-010
6.287631e-011
-2.209569e-010
-3.524475e-010
-2.367588e-010
4.494276e-011
2.982453e-010
3.528830e-010
1.754890e-010
-1.144449e-010
-3.275702e-010
3.271712e-009
1.450449e-009
-9.167245e-010
-2.482965e-009
-2.532258e-009
-1.249923e-009
5.338829e-010
1.895473e-009
2.295498e-009
1.734311e-009
5.899799e-010
-6.645531e-010
-1.660333e-009
-2.179018e-009
-2.118590e-009
-1.478273e-009
-3.862502e-010
8.887247e-010
2.002052e-009
2.660789e-009
2.733442e-009
2.270129e-009
1.433856e-009
4.079318e-010
-6.561133e-010
-1.639174e-009
-2.439674e-009
-2.977526e-009
-3.215220e-009
-3.168862e-009
-2.892392e-009
-2.447079e-009
-1.881672e-009
-1.234122e-009
-5.429914e-010
1.494456e-010
8.065319e-010
1.407635e-009
1.947958e-009
2.428645e-009
2.847937e-009
3.201254e-009
3.487588e-009
3.713586e-009
3.890602e-009
4.028093e-009
4.130097e-009
4.197652e-009
4.233688e-009
4.244859e-009
4.238396e-009
4.217479e-009
4.180204e-009
4.123488e-009
4.047754e-009
3.956838e-009
3.852406e-009
3.728576e-009
3.573183e-009
3.375322e-009
3.131170e-009
2.841085e-009
2.500848e-009
2.098119e-009
1.620932e-009
1.071476e-009
4.707552e-010
-1.511765e-010
-7.676793e-010
-1.354294e-009
-1.873186e-009
-2.262493e-009
-2.449269e-009
-2.381058e-009
-2.049807e-009
-1.488994e-009
-7.549626e-010
7.861147e-011
9.030701e-010
1.561829e-009
1.881563e-009
1.750391e-009
1.193098e-009
3.809145e-010
-4.391495e-010
-1.045614e-009
-1.306551e-009
-1.184058e-009
-7.160913e-010
-2.016611e-011
6.894173e-010
1.130782e-009
1.071782e-009
4.895358e-010
-3.502242e-010
-9.948601e-010
-1.063159e-009
-5.003041e-010
3.581466e-010
9.815420e-010
5.006636e-009
2.164891e-009
-1.480014e-009
-3.787418e-009
-3.670975e-009
-1.541384e-009
1.149418e-009
2.888795e-009
2.955933e-009
1.656386e-009
-9.008036e-011
-1.418022e-009
-1.959241e-009
-1.836535e-009
-1.353201e-009
-7.068059e-010
5.622909e-011
8.919616e-010
1.628856e-009
2.009877e-009
1.866105e-009
1.250711e-009
4.086877e-010
-3.843129e-010
-9.714410e-010
-1.342381e-009
-1.552144e-009
-1.630682e-009
-1.563146e-009
-1.334494e-009
-9.736709e-010
-5.495651e-010
-1.295833e-010
2.540008e-010
6.019927e-010
9.225045e-010
1.211911e-009
1.457574e-009
1.651951e-009
1.799749e-009
1.912345e-009
1.998330e-009
2.060449e-009
2.099632e-009
2.119350e-009
2.125377e-009
2.122662e-009
2.113710e-009
2.099767e-009
2.082350e-009
2.062973e-009
2.042144e-009
2.019847e-009
1.997202e-009
1.976558e-009
1.958895e-009
1.941485e-009
1.919557e-009
1.890858e-009
1.857013e-009
1.817988e-009
1.764859e-009
1.680878e-009
1.553050e-009
1.382644e-009
1.180395e-009
9.482942e-010
6.690948e-010
3.220773e-010
-8.450203e-011
-4.986312e-010
-8.503539e-010
-1.097752e-009
-1.243507e-009
-1.297699e-009
-1.224694e-009
-9.437988e-010
-4.080120e-010
3.021736e-010
9.704020e-010
1.355975e-009
1.343841e-009
1.003153e-009
5.037956e-010
-2.267028e-011
-5.358375e-010
-1.003408e-009
-1.286985e-009
-1.157215e-009
-4.821567e-010
5.580673e-010
1.454701e-009
1.642984e-009
9.062132e-010
-3.967430e-010
-1.494414e-009
-1.686900e-009
-8.265784e-010
5.525799e-010
1.568058e-009
2.934476e-009
1.190332e-009
-9.861855e-010
-2.232631e-009
-1.920172e-009
-4.489112e-010
1.102251e-009
1.723561e-009
1.121104e-009
-1.586253e-010
-1.178393e-009
-1.283390e-009
-5.081354e-010
5.435487e-010
1.194733e-009
1.154095e-009
6.084714e-010
-4.520136e-011
-5.403666e-010
-8.646063e-010
-1.121027e-009
-1.321864e-009
-1.332290e-009
-1.000675e-009
-3.239009e-010
5.199511e-010
1.293471e-009
1.851943e-009
2.192674e-009
2.384151e-009
2.467448e-009
2.424900e-009
2.225324e-009
1.880319e-009
1.451124e-009
1.007572e-009
5.870168e-010
1.904109e-010
-1.912249e-010
-5.532490e-010
-8.778004e-010
-1.150170e-009
-1.370108e-009
-1.548194e-009
-1.694763e-009
-1.813579e-009
-1.903908e-009
-1.965773e-009
-2.002632e-009
-2.020517e-009
-2.025575e-009
-2.021430e-009
-2.007308e-009
-1.978806e-009
-1.932279e-009
-1.869411e-009
-1.795769e-009
-1.712137e-009
-1.607150e-009
-1.462092e-009
-1.266779e-009
-1.030110e-009
-7.700544e-010
-4.899862e-010
-1.690098e-010
2.150723e-010
6.477380e-010
1.067217e-009
1.402283e-009
1.625439e-009
1.761826e-009
1.834813e-009
1.803495e-009
1.572139e-009
1.085120e-009
4.218009e-010
-2.158740e-010
-6.343907e-010
-7.839714e-010
-7.647647e-010
-6.940274e-010
-5.724931e-010
-3.006656e-010
1.569359e-010
6.318985e-010
8.133952e-010
5.007946e-010
-1.690930e-010
-7.525393e-010
-8.085650e-010
-2.537898e-010
5.362921e-010
9.842652e-010
7.394326e-010
-5.143015e-011
-8.402146e-010
-1.069043e-009
-5.683632e-010
3.236085e-010
9.982628e-010
-1.363921e-009
-6.851265e-010
2.408654e-010
9.665201e-010
1.226318e-009
9.733694e-010
3.045276e-010
-5.950783e-010
-1.438966e-009
-1.847401e-009
-1.488706e-009
-3.231703e-010
1.246031e-009
2.504046e-009
2.814001e-009
2.003786e-009
4.580606e-010
-1.151114e-009
-2.274945e-009
-2.728686e-009
-2.628195e-009
-2.155466e-009
-1.397113e-009
-3.749300e-010
8.226987e-010
1.983963e-009
2.862942e-009
3.324624e-009
3.404196e-009
3.235215e-009
2.929183e-009
2.518928e-009
1.996477e-009
1.381451e-009
7.423166e-010
1.573311e-010
-3.347045e-010
-7.436417e-010
-1.096414e-009
-1.403288e-009
-1.653178e-009
-1.833563e-009
-1.948373e-009
-2.016678e-009
-2.058201e-009
-2.082310e-009
-2.088911e-009
-2.076576e-009
-2.048930e-009
-2.014941e-009
-1.984412e-009
-1.962265e-009
-1.945728e-009
-1.927551e-009
-1.904171e-009
-1.881370e-009
-1.869260e-009
-1.868277e-009
-1.860385e-009
-1.818622e-009
-1.729028e-009
-1.600971e-009
-1.449292e-009
-1.263376e-009
-1.000138e-009
-6.186006e-010
-1.263889e-010
4.140797e-010
9.348512e-010
1.417601e-009
1.887154e-009
2.337435e-009
2.667103e-009
2.710414e-009
2.357252e-009
1.654159e-009
7.820663e-010
-7.287338e-011
-8.238697e-010
-1.453989e-009
-1.892024e-009
-1.953439e-009
-1.456362e-009
-4.364193e-010
7.501884e-010
1.577038e-009
1.669817e-009
1.052167e-009
1.186450e-010
-6.367175e-010
-9.178576e-010
-7.400930e-010
-3.258382e-010
8.312219e-011
3.434482e-010
4.149192e-010
3.157467e-010
9.930431e-011
-1.444544e-010
-3.055825e-010
-4.696925e-009
-1.994349e-009
1.401773e-009
3.459102e-009
3.274880e-009
1.373834e-009
-9.006807e-010
-2.340074e-009
-2.486906e-009
-1.620896e-009
-3.338959e-010
8.698864e-010
1.695518e-009
1.979127e-009
1.636466e-009
7.353071e-010
-4.248492e-010
-1.389776e-009
-1.786073e-009
-1.534007e-009
-8.561712e-010
-8.440797e-011
5.564678e-010
1.014992e-009
1.320931e-009
1.471146e-009
1.416684e-009
1.141501e-009
7.243874e-010
3.072768e-010
2.589104e-012
-1.662129e-010
-2.406784e-010
-2.587301e-010
-2.158522e-010
-8.579987e-011
1.351395e-010
4.124485e-010
6.984464e-010
9.662596e-010
1.218185e-009
1.466403e-009
1.711167e-009
1.937742e-009
2.129984e-009
2.283364e-009
2.405471e-009
2.506481e-009
2.589912e-009
2.650947e-009
2.682275e-009
2.682027e-009
2.656993e-009
2.617200e-009
2.565205e-009
2.490389e-009
2.376596e-009
2.218336e-009
2.028540e-009
1.825995e-009
1.613005e-009
1.369570e-009
1.076899e-009
7.490232e-010
4.352849e-010
1.837579e-010
2.101655e-012
-1.368489e-010
-2.439695e-010
-2.740527e-010
-1.529620e-010
1.429945e-010
5.363109e-010
8.879355e-010
1.094594e-009
1.143444e-009
1.066877e-009
8.558109e-010
4.474088e-010
-1.741933e-010
-8.637551e-010
-1.330613e-009
-1.312488e-009
-7.721398e-010
5.720100e-011
8.176913e-010
1.232706e-009
1.207919e-009
7.924061e-010
1.059301e-010
-6.653986e-010
-1.238193e-009
-1.293919e-009
-6.829626e-010
3.698628e-010
1.287166e-009
1.469439e-009
7.342085e-010
-4.881190e-010
-1.404278e-009
-4.705977e-009
-1.767260e-009
1.759315e-009
3.555075e-009
2.774661e-009
3.662787e-010
-1.823424e-009
-2.410977e-009
-1.314905e-009
4.267476e-010
1.564618e-009
1.504326e-009
5.322937e-010
-6.072966e-010
-1.310697e-009
-1.405964e-009
-1.033959e-009
-3.794293e-010
4.503200e-010
1.347221e-009
2.102277e-009
2.450643e-009
2.235878e-009
1.525177e-009
5.609022e-010
-3.979147e-010
-1.196040e-009
-1.781042e-009
-2.129335e-009
-2.202085e-009
-1.971420e-009
-1.467589e-009
-7.810570e-010
-1.357650e-011
7.703049e-010
1.547098e-009
2.302380e-009
3.005809e-009
3.618643e-009
4.118898e-009
4.513009e-009
4.822795e-009
5.064209e-009
5.239440e-009
5.346290e-009
5.391191e-009
5.391958e-009
5.369121e-009
5.335420e-009
5.292977e-009
5.239741e-009
5.178697e-009
5.120923e-009
5.078561e-009
5.053250e-009
5.031666e-009
4.994558e-009
4.931403e-009
4.844040e-009
4.732368e-009
4.576533e-009
4.338575e-009
3.987615e-009
3.523832e-009
2.972950e-009
2.355185e-009
1.666469e-009
9.014138e-010
9.874985e-011
-6.443052e-010
-1.215105e-009
-1.547319e-009
-1.636065e-009
-1.493213e-009
-1.105965e-009
-4.672393e-010
3.395090e-010
1.102317e-009
1.564846e-009
1.582494e-009
1.210354e-009
6.396871e-010
5.357289e-011
-4.470219e-010
-7.879622e-010
-8.460133e-010
-5.029421e-010
1.752946e-010
8.329616e-010
9.877584e-010
4.111114e-010
-5.904257e-010
-1.301808e-009
-1.117128e-009
-5.852843e-011
1.157824e-009
1.621905e-009
9.334772e-010
-4.533402e-010
-1.542853e-009
-1.523134e-009
-2.646249e-010
1.062042e-009
1.339857e-009
3.505455e-010
-1.086407e-009
-1.753204e-009
-9.813800e-010
8.030276e-010
2.359623e-009
2.535269e-009
1.100639e-009
-1.106792e-009
-2.804392e-009
-3.130841e-009
-2.102541e-009
-4.049223e-010
1.188089e-009
2.254045e-009
2.751285e-009
2.777295e-009
2.378728e-009
1.577503e-009
5.047611e-010
-5.616812e-010
-1.321322e-009
-1.614964e-009
-1.475222e-009
-1.039164e-009
-4.294372e-010
2.885832e-010
1.068418e-009
1.837797e-009
2.505344e-009
3.003718e-009
3.315876e-009
3.459436e-009
3.453342e-009
3.303583e-009
3.015543e-009
2.610354e-009
2.123929e-009
1.591341e-009
1.035105e-009
4.684881e-010
-9.282526e-011
-6.248056e-010
-1.100632e-009
-1.500738e-009
-1.816529e-009
-2.044289e-009
-2.176022e-009
-2.197273e-009
-2.095114e-009
-1.868719e-009
-1.531192e-009
-1.100083e-009
-5.873789e-010
-2.322500e-012
6.337532e-010
1.277879e-009
1.876027e-009
2.385720e-009
2.785087e-009
3.055824e-009
3.160971e-009
3.051439e-009
2.704759e-009
2.156377e-009
1.483692e-009
7.565553e-010
1.518568e-011
-6.887445e-010
-1.233998e-009
-1.443502e-009
-1.194518e-009
-5.346872e-010
3.186418e-010
1.110117e-009
1.682007e-009
1.978519e-009
1.937965e-009
1.441538e-009
4.424099e-010
-8.237354e-010
-1.807070e-009
-1.938072e-009
-1.073820e-009
2.931741e-010
1.310891e-009
1.366208e-009
5.357904e-010
-4.874825e-010
-9.410302e-010
-5.701378e-010
2.207427e-010
7.394784e-010
5.762463e-010
-8.923275e-011
-6.693966e-010
2.544442e-009
1.304639e-009
-3.593933e-010
-1.617663e-009
-2.016031e-009
-1.539151e-009
-4.458488e-010
8.747870e-010
1.938706e-009
2.237288e-009
1.480090e-009
-1.095017e-010
-1.760947e-009
-2.555182e-009
-2.028688e-009
-5.067714e-010
1.126955e-009
2.045698e-009
1.982916e-009
1.260535e-009
4.137835e-010
-2.021888e-010
-5.148024e-010
-5.687119e-010
-3.488981e-010
2.170285e-010
1.123758e-009
2.203884e-009
3.195533e-009
3.888808e-009
4.207896e-009
4.172747e-009
3.809362e-009
3.107334e-009
2.048998e-009
6.556876e-010
-1.006048e-009
-2.858530e-009
-4.845018e-009
-6.929847e-009
-9.077152e-009
-1.123767e-008
-1.335616e-008
-1.538633e-008
-1.729490e-008
-1.905292e-008
-2.062676e-008
-2.197942e-008
-2.307900e-008
-2.390338e-008
-2.443581e-008
-2.465763e-008
-2.454807e-008
-2.409292e-008
-2.329297e-008
-2.216245e-008
-2.071994e-008
-1.898474e-008
-1.698676e-008
-1.477992e-008
-1.244047e-008
-1.004641e-008
-7.658885e-009
-5.329410e-009
-3.127049e-009
-1.149253e-009
5.083210e-010
1.798137e-009
2.728248e-009
3.312773e-009
3.520221e-009
3.294912e-009
2.652164e-009
1.750714e-009
8.459711e-010
1.477058e-010
-2.794948e-010
-4.689938e-010
-4.210662e-010
-6.500820e-011
6.014017e-010
1.334966e-009
1.675716e-009
1.252919e-009
1.384689e-010
-1.095954e-009
-1.732875e-009
-1.415369e-009
-3.923999e-010
6.881331e-010
1.244365e-009
1.102871e-009
4.977960e-010
-1.808367e-010
-6.357946e-010
-7.500698e-010
-5.473295e-010
-1.380678e-010
3.064059e-010
5.942328e-010
4.856661e-009
1.797534e-009
-1.786765e-009
-3.509885e-009
-2.676634e-009
-4.040136e-010
1.532304e-009
2.040155e-009
1.229128e-009
-4.556951e-011
-9.765153e-010
-1.234005e-009
-8.753952e-010
-8.350789e-011
9.147391e-010
1.768840e-009
2.033516e-009
1.428049e-009
1.173070e-010
-1.297092e-009
-2.129605e-009
-2.025039e-009
-1.097394e-009
2.709173e-010
1.731029e-009
3.098335e-009
4.265613e-009
5.071369e-009
5.293473e-009
4.761883e-009
3.451135e-009
1.453793e-009
-1.125288e-009
-4.240903e-009
-7.888742e-009
-1.204074e-008
-1.661303e-008
-2.149155e-008
-2.657531e-008
-3.178945e-008
-3.706443e-008
-4.231355e-008
-4.743414e-008
-5.232617e-008
-5.690494e-008
-6.109703e-008
-6.482970e-008
-6.802793e-008
-7.062069e-008
-7.254669e-008
-7.375289e-008
-7.419088e-008
-7.382012e-008
-7.261787e-008
-7.058589e-008
-6.774675e-008
-6.413695e-008
-5.981079e-008
-5.485634e-008
-4.940531e-008
-4.361841e-008
-3.765375e-008
-3.164963e-008
-2.574074e-008
-2.008486e-008
-1.485516e-008
-1.018777e-008
-6.135100e-009
-2.686119e-009
1.533105e-010
2.305766e-009
3.667844e-009
4.222614e-009
4.097598e-009
3.494633e-009
2.566148e-009
1.390525e-009
9.354668e-011
-1.027568e-009
-1.571213e-009
-1.300161e-009
-3.819333e-010
6.549819e-010
1.255389e-009
1.188890e-009
6.308300e-010
-4.851518e-011
-5.471223e-010
-7.235039e-010
-5.374429e-010
-2.326944e-011
6.283274e-010
1.034027e-009
8.137105e-010
-5.391303e-011
-1.059896e-009
-1.451756e-009
-8.328570e-010
4.365103e-010
1.448131e-009
4.245833e-009
1.008253e-009
-2.451752e-009
-3.424891e-009
-1.491126e-009
1.459426e-009
2.971533e-009
1.981727e-009
-5.520223e-010
-2.645432e-009
-2.888494e-009
-1.328540e-009
8.767336e-010
2.482304e-009
2.917659e-009
2.328474e-009
1.163296e-009
-1.624671e-010
-1.299254e-009
-1.885493e-009
-1.620149e-009
-4.740972e-010
1.203114e-009
2.840595e-009
3.947824e-009
4.296819e-009
3.859624e-009
2.622406e-009
4.833529e-010
-2.693734e-009
-6.974850e-009
-1.233232e-008
-1.871528e-008
-2.611807e-008
-3.456762e-008
-4.405097e-008
-5.446442e-008
-6.562929e-008
-7.734434e-008
-8.941731e-008
-1.016562e-007
-1.138485e-007
-1.257610e-007
-1.371618e-007
-1.478412e-007
-1.576127e-007
-1.663021e-007
-1.737402e-007
-1.797662e-007
-1.842330e-007
-1.870097e-007
-1.879822e-007
-1.870614e-007
-1.841959e-007
-1.793796e-007
-1.726504e-007
-1.640893e-007
-1.538340e-007
-1.421006e-007
-1.291887e-007
-1.154556e-007
-1.012742e-007
-8.701289e-008
-7.304613e-008
-5.976235e-008
-4.752369e-008
-3.658716e-008
-2.705585e-008
-1.891626e-008
-1.213121e-008
-6.690912e-009
-2.568900e-009
3.530399e-010
2.275395e-009
3.366677e-009
3.669451e-009
3.165194e-009
1.970967e-009
4.684718e-010
-8.019018e-010
-1.419757e-009
-1.291322e-009
-6.154119e-010
3.058018e-010
1.189183e-009
1.747138e-009
1.678927e-009
8.498326e-010
-4.442022e-010
-1.469884e-009
-1.503910e-009
-4.576530e-010
9.079438e-010
1.502549e-009
8.120214e-010
-6.044846e-010
-1.536464e-009
-1.156600e-009
2.366593e-010
1.455731e-009
1.478336e-009
-2.978974e-010
-1.889590e-009
-1.646487e-009
3.613138e-010
2.445131e-009
2.760331e-009
8.746421e-010
-1.860627e-009
-3.407142e-009
-2.650190e-009
-1.940821e-010
2.229631e-009
3.135152e-009
2.272472e-009
5.470371e-010
-8.462681e-010
-1.234165e-009
-6.452778e-010
5.346138e-010
1.932842e-009
3.263582e-009
4.204730e-009
4.356168e-009
3.371959e-009
1.101935e-009
-2.440676e-009
-7.263301e-009
-1.354191e-008
-2.159918e-008
-3.176381e-008
-4.426020e-008
-5.920391e-008
-7.664753e-008
-9.658518e-008
-1.188996e-007
-1.433158e-007
-1.694173e-007
-1.967134e-007
-2.246982e-007
-2.528685e-007
-2.807166e-007
-3.077327e-007
-3.334277e-007
-3.573563e-007
-3.791214e-007
-3.983622e-007
-4.147411e-007
-4.279412e-007
-4.376698e-007
-4.436616e-007
-4.456855e-007
-4.435577e-007
-4.371597e-007
-4.264513e-007
-4.114792e-007
-3.923896e-007
-3.694564e-007
-3.431101e-007
-3.139429e-007
-2.826761e-007
-2.501144e-007
-2.171186e-007
-1.845958e-007
-1.534652e-007
-1.245670e-007
-9.854635e-008
-7.578762e-008
-5.644210e-008
-4.049664e-008
-2.779823e-008
-1.802149e-008
-1.067000e-008
-5.196052e-009
-1.189211e-009
1.528961e-009
3.004928e-009
3.354085e-009
2.860536e-009
1.892099e-009
7.633903e-010
-2.730103e-010
-9.255477e-010
-8.720073e-010
-8.966511e-012
1.259920e-009
2.090477e-009
1.754116e-009
2.922637e-010
-1.361312e-009
-2.032062e-009
-1.252874e-009
3.194193e-010
1.431896e-009
1.279277e-009
1.520770e-010
-8.777738e-010
-9.355804e-010
-9.861340e-011
7.392105e-010
-1.679645e-009
-1.122423e-009
-2.016404e-010
8.077401e-010
1.529770e-009
1.566641e-009
7.433618e-010
-6.155859e-010
-1.696544e-009
-1.676893e-009
-4.053518e-010
1.319303e-009
2.245043e-009
1.631990e-009
-1.133713e-010
-1.705551e-009
-1.937564e-009
-5.239497e-010
1.820186e-009
3.998657e-009
5.225020e-009
5.239652e-009
4.045268e-009
1.557382e-009
-2.505803e-009
-8.522505e-009
-1.688944e-008
-2.808616e-008
-4.277276e-008
-6.175420e-008
-8.579388e-008
-1.154147e-007
-1.508169e-007
-1.919085e-007
-2.383541e-007
-2.895818e-007
-3.447761e-007
-4.029175e-007
-4.628755e-007
-5.235077e-007
-5.837164e-007
-6.424641e-007
-6.987779e-007
-7.517646e-007
-8.006274e-007
-8.446655e-007
-8.832563e-007
-9.158324e-007
-9.418678e-007
-9.608732e-007
-9.723981e-007
-9.760409e-007
-9.714662e-007
-9.584301e-007
-9.368038e-007
-9.066001e-007
-8.680109e-007
-8.214586e-007
-7.676420e-007
-7.075512e-007
-6.424460e-007
-5.738207e-007
-5.033745e-007
-4.329703e-007
-3.645384e-007
-2.999124e-007
-2.406514e-007
-1.879281e-007
-1.424986e-007
-1.046974e-007
-7.439928e-008
-5.099087e-008
-3.345694e-008
-2.061799e-008
-1.140057e-008
-4.967719e-009
-6.716549e-010
2.027234e-009
3.528143e-009
3.999172e-009
3.439365e-009
1.974672e-009
1.483483e-010
-1.162435e-009
-1.273733e-009
-2.541457e-010
1.039344e-009
1.583216e-009
9.814184e-010
-2.524257e-010
-1.162664e-009
-1.139226e-009
-3.436688e-010
5.334367e-010
8.879097e-010
6.296901e-010
1.181548e-010
-2.353017e-010
-2.996508e-010
-2.332379e-010
-3.770610e-009
-1.036304e-009
1.905826e-009
2.847938e-009
1.489902e-009
-7.130432e-010
-2.006825e-009
-1.670328e-009
-2.251674e-010
1.287766e-009
2.085871e-009
1.904827e-009
8.769346e-010
-5.756227e-010
-1.759515e-009
-1.896023e-009
-5.785910e-010
1.819314e-009
4.223652e-009
5.453375e-009
4.843394e-009
2.365193e-009
-1.815797e-009
-7.916665e-009
-1.678549e-008
-2.974357e-008
-4.829463e-008
-7.396456e-008
-1.082713e-007
-1.526489e-007
-2.082309e-007
-2.755933e-007
-3.546190e-007
-4.445385e-007
-5.440602e-007
-6.514892e-007
-7.648135e-007
-8.818079e-007
-1.000180e-006
-1.117723e-006
-1.232421e-006
-1.342489e-006
-1.446363e-006
-1.542692e-006
-1.630328e-006
-1.708305e-006
-1.775799e-006
-1.832085e-006
-1.876503e-006
-1.908429e-006
-1.927275e-006
-1.932486e-006
-1.923562e-006
-1.900077e-006
-1.861717e-006
-1.808329e-006
-1.739987e-006
-1.657088e-006
-1.560428e-006
-1.451268e-006
-1.331357e-006
-1.202955e-006
-1.068844e-006
-9.322671e-007
-7.967780e-007
-6.659777e-007
-5.432326e-007
-4.314398e-007
-3.328483e-007
-2.488886e-007
-1.800134e-007
-1.256482e-007
-8.435719e-008
-5.419167e-008
-3.303877e-008
-1.881352e-008
-9.535732e-009
-3.472228e-009
5.928012e-010
3.164087e-009
4.201779e-009
3.649709e-009
1.936379e-009
2.264574e-012
-1.191501e-009
-1.238099e-009
-4.447962e-010
5.099568e-010
1.066018e-009
1.028142e-009
5.125385e-010
-1.955083e-010
-7.315113e-010
-7.647438e-010
-2.150586e-010
5.789191e-010
1.008244e-009
6.668782e-010
-2.429733e-010
-1.011568e-009
-4.281322e-009
-3.755970e-010
3.404149e-009
3.727037e-009
6.521392e-010
-2.864864e-009
-3.830453e-009
-1.693789e-009
1.577277e-009
3.475256e-009
2.966298e-009
9.108344e-010
-1.029834e-009
-1.707842e-009
-9.672000e-010
6.980418e-010
2.622359e-009
4.134279e-009
4.536743e-009
3.194921e-009
-3.017900e-010
-6.212676e-009
-1.508735e-008
-2.829420e-008
-4.820426e-008
-7.788865e-008
-1.205842e-007
-1.792717e-007
-2.564647e-007
-3.540525e-007
-4.730472e-007
-6.132925e-007
-7.733206e-007
-9.504676e-007
-1.141179e-006
-1.341353e-006
-1.546641e-006
-1.752701e-006
-1.955453e-006
-2.151298e-006
-2.337248e-006
-2.510949e-006
-2.670616e-006
-2.814938e-006
-2.942993e-006
-3.054162e-006
-3.148048e-006
-3.224382e-006
-3.282949e-006
-3.323527e-006
-3.345844e-006
-3.349553e-006
-3.334213e-006
-3.299287e-006
-3.244145e-006
-3.168123e-006
-3.070606e-006
-2.951165e-006
-2.809716e-006
-2.646682e-006
-2.463188e-006
-2.261276e-006
-2.044099e-006
-1.816005e-006
-1.582422e-006
-1.349553e-006
-1.123934e-006
-9.119254e-007
-7.191591e-007
-5.499591e-007
-4.068615e-007
-2.904211e-007
-1.994096e-007
-1.312884e-007
-8.269641e-008
-4.979478e-008
-2.856035e-008
-1.521053e-008
-6.743573e-009
-1.299011e-009
1.951463e-009
3.325504e-009
3.166332e-009
2.037904e-009
5.931745e-010
-6.025086e-010
-1.127855e-009
-7.591243e-010
3.487326e-010
1.531257e-009
1.888175e-009
9.745576e-010
-6.605965e-010
-1.751725e-009
-1.368259e-009
1.730256e-010
1.492571e-009
1.386518e-009
-2.250779e-011
-1.376000e-009
-3.404450e-009
2.218930e-010
3.465865e-009
3.166449e-009
-2.460677e-010
-3.480894e-009
-3.607845e-009
-6.514436e-010
2.692628e-009
3.661172e-009
1.790239e-009
-9.777550e-010
-2.205981e-009
-9.513718e-010
1.811935e-009
4.299544e-009
5.247367e-009
4.334809e-009
1.665147e-009
-2.970395e-009
-1.048502e-008
-2.259538e-008
-4.194189e-008
-7.227915e-008
-1.184594e-007
-1.859855e-007
-2.802508e-007
-4.057882e-007
-5.657226e-007
-7.613698e-007
-9.918728e-007
-1.253935e-006
-1.541859e-006
-1.848017e-006
-2.163662e-006
-2.479822e-006
-2.788067e-006
-3.081075e-006
-3.353011e-006
-3.599733e-006
-3.818789e-006
-4.009239e-006
-4.171339e-006
-4.306215e-006
-4.415575e-006
-4.501493e-006
-4.566233e-006
-4.612094e-006
-4.641278e-006
-4.655770e-006
-4.657222e-006
-4.646840e-006
-4.625247e-006
-4.592347e-006
-4.547198e-006
-4.487946e-006
-4.411843e-006
-4.315352e-006
-4.194389e-006
-4.044686e-006
-3.862360e-006
-3.644653e-006
-3.390770e-006
-3.102603e-006
-2.785177e-006
-2.446664e-006
-2.097929e-006
-1.751590e-006
-1.420642e-006
-1.116820e-006
-8.491223e-007
-6.228904e-007
-4.396889e-007
-2.978173e-007
-1.930968e-007
-1.196754e-007
-7.084065e-008
-3.990499e-008
-2.104774e-008
-9.831103e-009
-3.235907e-009
6.153523e-010
2.742639e-009
3.516001e-009
2.976723e-009
1.361144e-009
-5.051056e-010
-1.440133e-009
-7.676084e-010
9.501717e-010
2.185411e-009
1.721737e-009
-1.702334e-010
-1.869686e-009
-1.873371e-009
-2.388467e-010
1.444180e-009
1.590603e-009
1.666069e-010
-1.306983e-009
-1.518239e-009
4.086751e-010
1.936259e-009
1.363477e-009
-7.481819e-010
-2.228394e-009
-1.501783e-009
8.372032e-010
2.587666e-009
2.067177e-009
-2.568761e-010
-2.162353e-009
-1.672974e-009
1.217631e-009
4.593507e-009
6.194518e-009
4.942524e-009
1.078410e-009
-5.044536e-009
-1.439156e-008
-2.991541e-008
-5.639791e-008
-1.000384e-007
-1.681954e-007
-2.691258e-007
-4.113169e-007
-6.022771e-007
-8.470514e-007
-1.146868e-006
-1.498176e-006
-1.892219e-006
-2.315276e-006
-2.749717e-006
-3.175828e-006
-3.574065e-006
-3.927201e-006
-4.221920e-006
-4.449679e-006
-4.606892e-006
-4.694572e-006
-4.717590e-006
-4.683695e-006
-4.602482e-006
-4.484487e-006
-4.340525e-006
-4.181267e-006
-4.017000e-006
-3.857479e-006
-3.711801e-006
-3.588275e-006
-3.494217e-006
-3.435664e-006
-3.416977e-006
-3.440363e-006
-3.505338e-006
-3.608229e-006
-3.741764e-006
-3.894849e-006
-4.052633e-006
-4.197013e-006
-4.307748e-006
-4.364255e-006
-4.347988e-006
-4.245088e-006
-4.048864e-006
-3.761603e-006
-3.395213e-006
-2.970287e-006
-2.513496e-006
-2.053680e-006
-1.617588e-006
-1.226337e-006
-8.934017e-007
-6.243025e-007
-4.176164e-007
-2.667941e-007
-1.623051e-007
-9.369456e-008
-5.114373e-008
-2.629233e-008
-1.245920e-008
-4.689892e-009
1.003119e-010
3.115391e-009
4.259440e-009
3.318805e-009
1.001820e-009
-1.066166e-009
-1.462966e-009
-1.660148e-010
1.412011e-009
1.714136e-009
4.791198e-010
-1.066477e-009
-1.456415e-009
-4.267471e-010
8.853235e-010
1.151015e-009
2.023522e-010
-8.562365e-010
9.956716e-010
3.031743e-010
-5.667596e-010
-1.048819e-009
-8.018673e-010
1.233821e-010
1.247628e-009
1.830971e-009
1.317615e-009
-1.239108e-010
-1.453243e-009
-1.369142e-009
6.190509e-010
3.554317e-009
5.500292e-009
4.778094e-009
7.996548e-010