# vtk DataFile Version 3.0
vtk output
ASCII
DATASET STRUCTURED_POINTS
DIMENSIONS 100 100 1
SPACING 1 1 1
ORIGIN 0 0 0
POINT_DATA 10000
SCALARS SFBox_profile double
LOOKUP_TABLE default 
0.000000e+000
0.000000e+000
0.000000e+000
0.000000e+000
0.000000e+000
0.000000e+000
0.000000e+000
0.000000e+000
0.000000e+000
0.000000e+000
0.000000e+000
0.000000e+000
0.000000e+000
0.000000e+000
0.000000e+000
0.000000e+000
0.000000e+000
0.000000e+000
0.000000e+000
0.000000e+000
0.000000e+000
0.000000e+000
0.000000e+000
0.000000e+000
0.000000e+000
0.000000e+000
0.000000e+000
0.000000e+000
0.000000e+000
0.000000e+000
0.000000e+000
0.000000e+000
0.000000e+000
0.000000e+000
0.000000e+000
0.000000e+000
0.000000e+000
0.000000e+000
0.000000e+000
0.000000e+000
0.000000e+000
0.000000e+000
0.000000e+000
0.000000e+000
0.000000e+000
0.000000e+000
0.000000e+000
0.000000e+000
0.000000e+000
0.000000e+000
0.000000e+000
0.000000e+000
0.000000e+000
0.000000e+000
0.000000e+000
0.000000e+000
0.000000e+000
0.000000e+000
0.000000e+000
0.000000e+000
0.000000e+000
0.000000e+000
0.000000e+000
0.000000e+000
0.000000e+000
0.000000e+000
0.000000e+000
0.000000e+000
0.000000e+000
0.000000e+000
0.000000e+000
0.000000e+000
0.000000e+000
0.000000e+000
0.000000e+000
0.000000e+000
0.000000e+000
0.000000e+000
0.000000e+000
0.000000e+000
0.000000e+000
0.000000e+000
0.000000e+000
0.000000e+000
0.000000e+000
0.000000e+000
0.000000e+000
0.000000e+000
0.000000e+000
0.000000e+000
0.000000e+000
0.000000e+000
0.000000e+000
0.000000e+000
0.000000e+000
0.000000e+000
0.000000e+000
0.000000e+000
0.000000e+000
0.000000e+000
3.578616e-010
3.780556e-010
4.238252e-010
5.064185e-010
6.434381e-010
8.584484e-010
1.178584e-009
1.628966e-009
2.222832e-009
2.946537e-009
3.739014e-009
4.465979e-009
4.890173e-009
4.640367e-009
3.183470e-009
-1.943352e-010
-6.390685e-009
-1.646803e-008
-3.160843e-008
-5.304210e-008
-8.195478e-008
-1.193843e-007
-1.661201e-007
-2.226214e-007
-2.889654e-007
-3.648342e-007
-4.495396e-007
-5.420819e-007
-6.412301e-007
-7.456132e-007
-8.538085e-007
-9.644198e-007
-1.076138e-006
-1.187783e-006
-1.298327e-006
-1.406907e-006
-1.512818e-006
-1.615506e-006
-1.714556e-006
-1.809673e-006
-1.900668e-006
-1.987444e-006
-2.069981e-006
-2.148314e-006
-2.222521e-006
-2.292695e-006
-2.358924e-006
-2.421267e-006
-2.479724e-006
-2.534216e-006
-2.584559e-006
-2.630446e-006
-2.671431e-006
-2.706918e-006
-2.736152e-006
-2.758224e-006
-2.772077e-006
-2.776526e-006
-2.770285e-006
-2.752009e-006
-2.720348e-006
-2.674013e-006
-2.611860e-006
-2.532982e-006
-2.436815e-006
-2.323243e-006
-2.192708e-006
-2.046297e-006
-1.885818e-006
-1.713825e-006
-1.533596e-006
-1.349039e-006
-1.164513e-006
-9.845843e-007
-8.137108e-007
-6.559034e-007
-5.144039e-007
-3.914312e-007
-2.880381e-007
-2.041057e-007
-1.384728e-007
-8.917466e-008
-5.374135e-008
-2.950510e-008
-1.386736e-008
-4.495789e-009
5.604124e-010
2.830842e-009
3.442712e-009
3.176218e-009
2.535892e-009
1.822193e-009
1.193836e-009
7.168982e-010
4.008123e-010
2.234305e-010
1.479955e-010
1.345350e-010
1.475041e-010
1.608057e-010
3.363993e-010
3.735303e-010
4.528583e-010
5.848633e-010
7.854770e-010
1.074573e-009
1.471274e-009
1.984253e-009
2.595270e-009
3.234594e-009
3.747769e-009
3.854571e-009
3.102963e-009
8.234351e-010
-3.908208e-009
-1.228939e-008
-2.577971e-008
-4.605122e-008
-7.489554e-008
-1.140914e-007
-1.652447e-007
-2.296223e-007
-3.080052e-007
-4.005856e-007
-5.069257e-007
-6.259842e-007
-7.562043e-007
-8.956454e-007
-1.042137e-006
-1.193433e-006
-1.347346e-006
-1.501851e-006
-1.655157e-006
-1.805745e-006
-1.952377e-006
-2.094091e-006
-2.230179e-006
-2.360161e-006
-2.483748e-006
-2.600814e-006
-2.711362e-006
-2.815498e-006
-2.913394e-006
-3.005274e-006
-3.091378e-006
-3.171943e-006
-3.247174e-006
-3.317222e-006
-3.382162e-006
-3.441967e-006
-3.496494e-006
-3.545467e-006
-3.588464e-006
-3.624909e-006
-3.654070e-006
-3.675058e-006
-3.686838e-006
-3.688238e-006
-3.677967e-006
-3.654645e-006
-3.616836e-006
-3.563089e-006
-3.491998e-006
-3.402271e-006
-3.292814e-006
-3.162842e-006
-3.011999e-006
-2.840505e-006
-2.649318e-006
-2.440277e-006
-2.216237e-006
-1.981112e-006
-1.739832e-006
-1.498140e-006
-1.262249e-006
-1.038363e-006
-8.321260e-007
-6.480898e-007
-4.892923e-007
-3.570363e-007
-2.509054e-007
-1.690063e-007
-1.083726e-007
-6.544022e-008
-3.650124e-008
-1.806792e-008
-7.113375e-009
-1.187549e-009
1.569241e-009
2.483014e-009
2.440046e-009
1.991312e-009
1.449494e-009
9.692602e-010
6.081391e-010
3.694657e-010
2.307818e-010
1.614685e-010
1.329666e-010
1.242189e-010
3.263966e-010
3.968246e-010
5.419971e-010
7.703050e-010
1.092665e-009
1.517613e-009
2.040220e-009
2.621553e-009
3.155463e-009
3.420261e-009
3.014728e-009
1.280999e-009
-2.778616e-009
-1.057844e-008
-2.400204e-008
-4.540924e-008
-7.757583e-008
-1.235503e-007
-1.864238e-007
-2.690291e-007
-3.736043e-007
-5.014772e-007
-6.528279e-007
-8.265821e-007
-1.020456e-006
-1.231148e-006
-1.454634e-006
-1.686517e-006
-1.922377e-006
-2.158058e-006
-2.389887e-006
-2.614797e-006
-2.830372e-006
-3.034838e-006
-3.227007e-006
-3.406208e-006
-3.572209e-006
-3.725135e-006
-3.865392e-006
-3.993582e-006
-4.110436e-006
-4.216747e-006
-4.313315e-006
-4.400900e-006
-4.480194e-006
-4.551793e-006
-4.616184e-006
-4.673743e-006
-4.724732e-006
-4.769303e-006
-4.807508e-006
-4.839309e-006
-4.864586e-006
-4.883148e-006
-4.894743e-006
-4.899064e-006
-4.895741e-006
-4.884337e-006
-4.864322e-006
-4.835034e-006
-4.795629e-006
-4.745019e-006
-4.681798e-006
-4.604182e-006
-4.509972e-006
-4.396558e-006
-4.261015e-006
-4.100316e-006
-3.911670e-006
-3.693019e-006
-3.443618e-006
-3.164633e-006
-2.859625e-006
-2.534773e-006
-2.198709e-006
-1.861903e-006
-1.535655e-006
-1.230821e-006
-9.565385e-007
-7.192114e-007
-5.219595e-007
-3.646374e-007
-2.443517e-007
-1.563012e-007
-9.471342e-008
-5.368139e-008
-2.777995e-008
-1.242832e-008
-4.026036e-009
7.721523e-011
1.711528e-009
2.059434e-009
1.830464e-009
1.413519e-009
9.966409e-010
6.532012e-010
3.987909e-010
2.253357e-010
1.191868e-010
6.915194e-011
3.896859e-010
5.083775e-010
7.483169e-010
1.112595e-009
1.598953e-009
2.186484e-009
2.809862e-009
3.315198e-009
3.391684e-009
2.475052e-009
-3.769983e-010
-6.630124e-009
-1.842228e-008
-3.868733e-008
-7.121325e-008
-1.205874e-007
-1.919830e-007
-2.907583e-007
-4.218724e-007
-5.891775e-007
-7.947017e-007
-1.038072e-006
-1.316222e-006
-1.623484e-006
-1.952044e-006
-2.292698e-006
-2.635742e-006
-2.971840e-006
-3.292731e-006
-3.591701e-006
-3.863796e-006
-4.105811e-006
-4.316121e-006
-4.494429e-006
-4.641497e-006
-4.758895e-006
-4.848783e-006
-4.913723e-006
-4.956507e-006
-4.979999e-006
-4.986988e-006
-4.980067e-006
-4.961537e-006
-4.933347e-006
-4.897079e-006
-4.853963e-006
-4.804933e-006
-4.750697e-006
-4.691840e-006
-4.628916e-006
-4.562557e-006
-4.493571e-006
-4.423023e-006
-4.352308e-006
-4.283198e-006
-4.217855e-006
-4.158812e-006
-4.108887e-006
-4.071049e-006
-4.048201e-006
-4.042876e-006
-4.056860e-006
-4.090735e-006
-4.143373e-006
-4.211429e-006
-4.288915e-006
-4.366955e-006
-4.433868e-006
-4.475699e-006
-4.477294e-006
-4.423917e-006
-4.303278e-006
-4.107688e-006
-3.835937e-006
-3.494414e-006
-3.097099e-006
-2.664205e-006
-2.219612e-006
-1.787556e-006
-1.389280e-006
-1.040414e-006
-7.496304e-007
-5.187337e-007
-3.439213e-007
-2.176846e-007
-1.307779e-007
-7.383821e-008
-3.846611e-008
-1.777425e-008
-6.520806e-009
-9.754789e-010
1.349480e-009
2.006212e-009
1.895676e-009
1.499676e-009
1.052105e-009
6.540682e-010
3.437807e-010
1.339720e-010
2.862491e-011
6.091896e-010
7.881472e-010
1.144054e-009
1.666497e-009
2.320660e-009
3.015467e-009
3.546958e-009
3.506479e-009
2.143854e-009
-1.820042e-009
-1.042751e-008
-2.674559e-008
-5.511365e-008
-1.013095e-007
-1.725409e-007
-2.771527e-007
-4.239490e-007
-6.210805e-007
-8.745633e-007
-1.186648e-006
-1.554406e-006
-1.968942e-006
-2.415552e-006
-2.874891e-006
-3.324959e-006
-3.743475e-006
-4.110177e-006
-4.408624e-006
-4.627266e-006
-4.759748e-006
-4.804546e-006
-4.764159e-006
-4.644115e-006
-4.451979e-006
-4.196521e-006
-3.887076e-006
-3.533090e-006
-3.143790e-006
-2.727926e-006
-2.293538e-006
-1.847758e-006
-1.396651e-006
-9.451210e-007
-4.969028e-007
-5.464883e-008
3.798944e-007
8.056341e-007
1.221824e-006
1.627727e-006
2.022269e-006
2.403708e-006
2.769334e-006
3.115212e-006
3.435980e-006
3.724726e-006
3.972938e-006
4.170569e-006
4.306237e-006
4.367578e-006
4.341797e-006
4.216434e-006
3.980369e-006
3.625081e-006
3.146135e-006
2.544828e-006
1.829865e-006
1.018817e-006
1.390401e-007
-7.723443e-007
-1.669795e-006
-2.502306e-006
-3.218009e-006
-3.770067e-006
-4.123108e-006
-4.258982e-006
-4.180494e-006
-3.911908e-006
-3.495662e-006
-2.985675e-006
-2.438653e-006
-1.905455e-006
-1.424592e-006
-1.019183e-006
-6.974984e-007
-4.561379e-007
-2.843640e-007
-1.682203e-007
-9.362534e-008
-4.822583e-008
-2.219085e-008
-8.282403e-009
-1.524435e-009
1.288611e-009
2.091376e-009
1.975251e-009
1.514397e-009
9.910861e-010
5.369727e-010
2.123371e-010
4.475419e-011
1.077384e-009
1.322260e-009
1.798275e-009
2.462131e-009
3.203717e-009
3.776524e-009
3.680317e-009
1.978473e-009
-2.965239e-009
-1.383562e-008
-3.478475e-008
-7.186940e-008
-1.334062e-007
-2.300808e-007
-3.745841e-007
-5.805114e-007
-8.603071e-007
-1.222242e-006
-1.666790e-006
-2.183213e-006
-2.747467e-006
-3.322402e-006
-3.860660e-006
-4.309870e-006
-4.619010e-006
-4.744517e-006
-4.654921e-006
-4.333290e-006
-3.777362e-006
-2.997779e-006
-2.015108e-006
-8.564219e-007
4.479134e-007
1.866843e-006
3.370448e-006
4.931057e-006
6.523811e-006
8.126890e-006
9.721581e-006
1.129230e-005
1.282658e-005
1.431500e-005
1.575107e-005
1.713091e-005
1.845286e-005
1.971689e-005
2.092395e-005
2.207523e-005
2.317141e-005
2.421192e-005
2.519429e-005
2.611357e-005
2.696186e-005
2.772796e-005
2.839717e-005
2.895119e-005
2.936819e-005
2.962310e-005
2.968806e-005
2.953317e-005
2.912754e-005
2.844078e-005
2.744500e-005
2.611740e-005
2.444361e-005
2.242156e-005
2.006598e-005
1.741266e-005
1.452210e-005
1.148114e-005
8.401478e-006
5.413852e-006
2.657309e-006
2.640527e-007
-1.658101e-006
-3.042260e-006
-3.873908e-006
-4.193719e-006
-4.090014e-006
-3.682014e-006
-3.097990e-006
-2.454066e-006
-1.839023e-006
-1.308035e-006
-8.849063e-007
-5.698469e-007
-3.489545e-007
-2.024725e-007
-1.104421e-007
-5.573243e-008
-2.511577e-008
-9.172642e-009
-1.644937e-009
1.365595e-009
2.139086e-009
1.928498e-009
1.382233e-009
8.188436e-010
3.890244e-010
1.612286e-010
1.880558e-009
2.183579e-009
2.747929e-009
3.455761e-009
4.034471e-009
3.915251e-009
2.002910e-009
-3.671067e-009
-1.643273e-008
-4.158350e-008
-8.709937e-008
-1.642769e-007
-2.880693e-007
-4.766954e-007
-7.499448e-007
-1.125558e-006
-1.613344e-006
-2.207472e-006
-2.878588e-006
-3.568430e-006
-4.189773e-006
-4.633275e-006
-4.780571e-006
-4.520767e-006
-3.766311e-006
-2.464627e-006
-6.033198e-007
1.791256e-006
4.660749e-006
7.924684e-006
1.149112e-005
1.526616e-005
1.916117e-005
2.309733e-005
2.700788e-005
3.083859e-005
3.454723e-005
3.810240e-005
4.148227e-005
4.467322e-005
4.766858e-005
5.046747e-005
5.307356e-005
5.549395e-005
5.773798e-005
5.981609e-005
6.173873e-005
6.351535e-005
6.515355e-005
6.665834e-005
6.803161e-005
6.927180e-005
7.037373e-005
7.132849e-005
7.212346e-005
7.274235e-005
7.316502e-005
7.336732e-005
7.332060e-005
7.299101e-005
7.233866e-005
7.131670e-005
6.987083e-005
6.793966e-005
6.545687e-005
6.235590e-005
5.857826e-005
5.408573e-005
4.887622e-005
4.300132e-005
3.658189e-005
2.981629e-005
2.297562e-005
1.638193e-005
1.036990e-005
5.237579e-006
1.197385e-006
-1.660087e-006
-3.378575e-006
-4.120463e-006
-4.126620e-006
-3.663710e-006
-2.974507e-006
-2.244286e-006
-1.588962e-006
-1.062097e-006
-6.725090e-007
-4.036544e-007
-2.290635e-007
-1.219751e-007
-5.995414e-008
-2.621084e-008
-9.185584e-009
-1.455866e-009
1.450538e-009
2.068525e-009
1.751820e-009
1.183239e-009
6.889990e-010
4.149799e-010
3.077326e-009
3.403683e-009
3.953567e-009
4.452312e-009
4.299030e-009
2.295583e-009
-3.782697e-009
-1.781562e-008
-4.618541e-008
-9.880334e-008
-1.901589e-007
-3.400304e-007
-5.731767e-007
-9.169171e-007
-1.395179e-006
-2.017799e-006
-2.765220e-006
-3.571434e-006
-4.311089e-006
-4.798076e-006
-4.800755e-006
-4.073484e-006
-2.397707e-006
3.780973e-007
4.310109e-006
9.349025e-006
1.534879e-005
2.209012e-005
2.931209e-005
3.674454e-005
4.413523e-005
5.126837e-005
5.797385e-005
6.412864e-005
6.965335e-005
7.450628e-005
7.867700e-005
8.217999e-005
8.504869e-005
8.732987e-005
8.907845e-005
9.035279e-005
9.121074e-005
9.170666e-005
9.188938e-005
9.180130e-005
9.147832e-005
9.095068e-005
9.024438e-005
8.938314e-005
8.839068e-005
8.729318e-005
8.612169e-005
8.491428e-005
8.371769e-005
8.258794e-005
8.158975e-005
8.079410e-005
8.027352e-005
8.009464e-005
8.030767e-005
8.093289e-005
8.194458e-005
8.325400e-005
8.469376e-005
8.600796e-005
8.685317e-005
8.681674e-005
8.545763e-005
8.237112e-005
7.727167e-005
7.007843e-005
6.097985e-005
5.045243e-005
3.921653e-005
2.812936e-005
1.803529e-005
9.611075e-006
3.250248e-006
-9.816227e-007
-3.313007e-006
-4.169623e-006
-4.049599e-006
-3.410962e-006
-2.600561e-006
-1.833108e-006
-1.209170e-006
-7.514728e-007
-4.411603e-007
-2.442262e-007
-1.265528e-007
-6.032545e-008
-2.541198e-008
-8.425396e-009
-1.063588e-009
1.506832e-009
1.933854e-009
1.583028e-009
1.115650e-009
8.275490e-010
4.668740e-009
4.932616e-009
5.233989e-009
4.990347e-009
2.976630e-009
-3.168036e-009
-1.770326e-008
-4.787132e-008
-1.052940e-007
-2.075274e-007
-3.793237e-007
-6.526113e-007
-1.063380e-006
-1.642717e-006
-2.398963e-006
-3.289813e-006
-4.188390e-006
-4.854910e-006
-4.931012e-006
-3.971602e-006
-1.517159e-006
2.807461e-006
9.194355e-006
1.758345e-005
2.764299e-005
3.880417e-005
5.034032e-005
6.146946e-005
7.145492e-005
7.968429e-005
8.571546e-005
8.928867e-005
9.031112e-005
8.882577e-005
8.497579e-005
7.897305e-005
7.107327e-005
6.155712e-005
5.071477e-005
3.883212e-005
2.617822e-005
1.299461e-005
-5.124336e-007
-1.417573e-005
-2.786682e-005
-4.149158e-005
-5.498264e-005
-6.828930e-005
-8.136597e-005
-9.415998e-005
-1.065993e-004
-1.185810e-004
-1.299609e-004
-1.405445e-004
-1.500812e-004
-1.582612e-004
-1.647163e-004
-1.690267e-004
-1.707340e-004
-1.693633e-004
-1.644546e-004
-1.556061e-004
-1.425304e-004
-1.251226e-004
-1.035372e-004
-7.826700e-005
-5.020927e-005
-2.069732e-005
8.529625e-006
3.544612e-005
5.796406e-005
7.424680e-005
8.306034e-005
8.407114e-005
7.798621e-005
6.646135e-005
5.177720e-005
3.636609e-005
2.232373e-005
1.105177e-005
3.127947e-006
-1.600549e-006
-3.773339e-006
-4.223217e-006
-3.729663e-006
-2.875944e-006
-2.014840e-006
-1.308512e-006
-7.962881e-007
-4.561515e-007
-2.457399e-007
-1.235487e-007
-5.688498e-008
-2.293076e-008
-7.056587e-009
-5.132945e-010
1.609386e-009
1.900069e-009
1.635916e-009
1.396013e-009
6.556753e-009
6.582545e-009
6.174755e-009
4.182900e-009
-1.740501e-009
-1.599613e-008
-4.632987e-008
-1.056005e-007
-2.139047e-007
-4.005643e-007
-7.047044e-007
-1.171769e-006
-1.841367e-006
-2.720332e-006
-3.736559e-006
-4.677636e-006
-5.134048e-006
-4.482696e-006
-1.948674e-006
3.237847e-006
1.161227e-005
2.323382e-005
3.750969e-005
5.314865e-005
6.827685e-005
8.069972e-005
8.823778e-005
8.904671e-005
8.185039e-005
6.604688e-005
4.168588e-005
9.349010e-006
-3.001827e-005
-7.527497e-005
-1.252191e-004
-1.786760e-004
-2.345469e-004
-2.918318e-004
-3.496419e-004
-4.072097e-004
-4.638980e-004
-5.192063e-004
-5.727706e-004
-6.243544e-004
-6.738316e-004
-7.211612e-004
-7.663577e-004
-8.094585e-004
-8.504917e-004
-8.894452e-004
-9.262390e-004
-9.607011e-004
-9.925485e-004
-1.021372e-003
-1.046625e-003
-1.067620e-003
-1.083528e-003
-1.093381e-003
-1.096086e-003
-1.090443e-003
-1.075175e-003
-1.048977e-003
-1.010593e-003
-9.589277e-004
-8.932112e-004
-8.132254e-004
-7.195835e-004
-6.140349e-004
-4.997264e-004
-3.813129e-004
-2.647924e-004
-1.569694e-004
-6.453550e-005
7.111620e-006
5.503713e-005
7.952932e-005
8.406710e-005
7.439408e-005
5.704549e-005
3.787140e-005
2.100318e-005
8.525363e-006
7.699190e-007
-3.061146e-006
-4.225030e-006
-3.926528e-006
-3.051023e-006
-2.115588e-006
-1.347913e-006
-8.008461e-007
-4.465033e-007
-2.334717e-007
-1.135310e-007
-5.024563e-008
-1.917600e-008
-5.245686e-009
2.215432e-010
1.904460e-009
2.161277e-009
2.082725e-009
8.488623e-009
7.953104e-009
6.009164e-009
5.155015e-010
-1.279181e-008
-4.171847e-008
-9.968958e-008
-2.084384e-007
-4.008419e-007
-7.224624e-007
-1.228371e-006
-1.968531e-006
-2.951339e-006
-4.074848e-006
-5.026336e-006
-5.178793e-006
-3.550051e-006
1.089401e-006
9.900295e-006
2.346860e-005
4.122621e-005
6.099079e-005
7.883010e-005
8.941945e-005
8.687562e-005
6.583238e-005
2.245917e-005
-4.488003e-005
-1.355037e-004
-2.467682e-004
-3.746951e-004
-5.146575e-004
-6.619736e-004
-8.123300e-004
-9.620180e-004
-1.108018e-003
-1.247984e-003
-1.380189e-003
-1.503455e-003
-1.617090e-003
-1.720819e-003
-1.814717e-003
-1.899124e-003
-1.974567e-003
-2.041678e-003
-2.101123e-003
-2.153548e-003
-2.199537e-003
-2.239585e-003
-2.274095e-003
-2.303374e-003
-2.327655e-003
-2.347111e-003
-2.361883e-003
-2.372103e-003
-2.377902e-003
-2.379410e-003
-2.376726e-003
-2.369852e-003
-2.358586e-003
-2.342366e-003
-2.320066e-003
-2.289756e-003
-2.248472e-003
-2.192053e-003
-2.115175e-003
-2.011731e-003
-1.875731e-003
-1.702823e-003
-1.492300e-003
-1.249085e-003
-9.847963e-004
-7.170224e-004
-4.664892e-004
-2.528093e-004
-9.009001e-005
1.631811e-005
7.077113e-005
8.519708e-005
7.475082e-005
5.348259e-005
3.151506e-005
1.425842e-005
3.260204e-006
-2.293478e-006
-4.150526e-006
-4.018722e-006
-3.117547e-006
-2.125592e-006
-1.322599e-006
-7.646437e-007
-4.137689e-007
-2.093896e-007
-9.809266e-008
-4.141540e-008
-1.464031e-008
-3.129086e-009
1.203187e-009
2.523848e-009
2.802817e-009
9.987757e-009
8.340484e-009
3.477945e-009
-8.382864e-009
-3.462082e-008
-8.845307e-008
-1.920795e-007
-3.803768e-007
-7.037146e-007
-1.226007e-006
-2.009416e-006
-3.070448e-006
-4.288202e-006
-5.256372e-006
-5.111885e-006
-2.444778e-006
4.540732e-006
1.745070e-005
3.667023e-005
6.005424e-005
8.176590e-005
9.188817e-005
7.746823e-005
2.502157e-005
-7.612471e-005
-2.307407e-004
-4.361948e-004
-6.829252e-004
-9.562501e-004
-1.238813e-003
-1.513158e-003
-1.763969e-003
-1.979549e-003
-2.152375e-003
-2.278881e-003
-2.358829e-003
-2.394552e-003
-2.390231e-003
-2.351222e-003
-2.283456e-003
-2.192894e-003
-2.085095e-003
-1.964907e-003
-1.836308e-003
-1.702378e-003
-1.565376e-003
-1.426889e-003
-1.288025e-003
-1.149605e-003
-1.012364e-003
-8.771296e-004
-7.449741e-004
-6.173472e-004
-4.961746e-004
-3.839280e-004
-2.836628e-004
-1.990249e-004
-1.342265e-004
-9.398785e-005
-8.343358e-005
-1.079183e-004
-1.727339e-004
-2.826186e-004
-4.409490e-004
-6.484648e-004
-9.013849e-004
-1.188902e-003
-1.490418e-003
-1.773612e-003
-1.995446e-003
-2.108721e-003
-2.075358e-003
-1.883026e-003
-1.556325e-003
-1.153215e-003
-7.458115e-004
-3.965336e-004
-1.423988e-004
9.222476e-006
7.528401e-005
8.477093e-005
6.630160e-005
4.069527e-005
1.912586e-005
5.206587e-006
-1.769223e-006
-4.099846e-006
-4.025043e-006
-3.073808e-006
-2.044170e-006
-1.235939e-006
-6.928572e-007
-3.627882e-007
-1.770544e-007
-7.943964e-008
-3.154780e-008
-9.798986e-009
-8.187450e-010
2.447851e-009
3.408747e-009
1.027675e-008
6.639440e-009
-3.314608e-009
-2.595982e-008
-7.350079e-008
-1.673318e-007
-3.424299e-007
-6.515670e-007
-1.165470e-006
-1.959301e-006
-3.066060e-006
-4.367493e-006
-5.398479e-006
-5.090522e-006
-1.594498e-006
7.529542e-006
2.439369e-005
4.889874e-005
7.604796e-005
9.327392e-005
7.946150e-005
7.763985e-006
-1.473194e-004
-3.999693e-004
-7.442962e-004
-1.150953e-003
-1.569469e-003
-1.936859e-003
-2.192237e-003
-2.292188e-003
-2.219892e-003
-1.984732e-003
-1.614543e-003
-1.145591e-003
-6.145474e-004
-5.390341e-005
5.098463e-004
1.056504e-003
1.571806e-003
2.046774e-003
2.476890e-003
2.861158e-003
3.201127e-003
3.499983e-003
3.761775e-003
3.990815e-003
4.191265e-003
4.366874e-003
4.520850e-003
4.655823e-003
4.773865e-003
4.876565e-003
4.965106e-003
5.040367e-003
5.103007e-003
5.153516e-003
5.192233e-003
5.219277e-003
5.234374e-003
5.236555e-003
5.223661e-003
5.191636e-003
5.133541e-003
5.038283e-003
4.889092e-003
4.662050e-003
4.325396e-003
3.841298e-003
3.172994e-003
2.300934e-003
1.249011e-003
1.127422e-004
-9.333977e-004
-1.678327e-003
-1.970260e-003
-1.811195e-003
-1.360694e-003
-8.333669e-004
-3.896478e-004
-9.876114e-005
4.497439e-005
8.621749e-005
7.474283e-005
4.699694e-005
2.205829e-005
6.055417e-006
-1.697400e-006
-4.122327e-006
-3.948758e-006
-2.921701e-006
-1.879593e-006
-1.098866e-006
-5.952306e-007
-3.005585e-007
-1.407751e-007
-5.988470e-008
-2.170761e-008
-5.057535e-009
1.518662e-009
3.672176e-009
8.205319e-009
1.256298e-009
-1.701669e-008
-5.689176e-008
-1.376977e-007
-2.925316e-007
-5.736804e-007
-1.055380e-006
-1.824444e-006
-2.937209e-006
-4.304600e-006
-5.461301e-006
-5.220781e-006
-1.368059e-006
9.199283e-006
2.922443e-005
5.808542e-005
8.692351e-005
9.318065e-005
3.837391e-005
-1.251779e-004
-4.358069e-004
-8.943551e-004
-1.438601e-003
-1.933062e-003
-2.193052e-003
-2.058699e-003
-1.477547e-003
-5.282520e-004
6.257558e-004
1.808264e-003
2.883759e-003
3.776413e-003
4.462091e-003
4.949645e-003
5.263875e-003
5.434614e-003
5.491232e-003
5.460321e-003
5.364869e-003
5.224033e-003
5.053193e-003
4.864199e-003
4.665777e-003
4.464029e-003
4.262988e-003
4.065162e-003
3.872029e-003
3.684469e-003
3.503111e-003
3.328620e-003
3.161904e-003
3.004265e-003
2.857519e-003
2.724062e-003
2.606927e-003
2.509825e-003
2.437182e-003
2.394187e-003
2.386838e-003
2.421995e-003
2.507378e-003
2.651438e-003
2.862876e-003
3.149500e-003
3.515770e-003
3.958133e-003
4.456909e-003
4.963752e-003
5.385627e-003
5.571682e-003
5.320377e-003
4.438072e-003
2.878136e-003
9.173228e-004
-8.325112e-004
-1.775675e-003
-1.797394e-003
-1.277011e-003
-6.699308e-004
-2.259600e-004
6.467568e-006
8.286183e-005
7.883046e-005
4.953905e-005
2.241612e-005
5.562191e-006
-2.104103e-006
-4.189041e-006
-3.775287e-006
-2.668345e-006
-1.648776e-006
-9.280446e-007
-4.840525e-007
-2.347107e-007
-1.046951e-007
-4.140692e-008
-1.273839e-008
-8.459040e-010
3.265089e-009
2.202754e-009
-9.940489e-009
-4.107395e-008
-1.070905e-007
-2.373216e-007
-4.806052e-007
-9.104951e-007
-1.621442e-006
-2.695020e-006
-4.093447e-006
-5.417692e-006
-5.493808e-006
-1.909107e-006
9.018422e-006
3.085540e-005
6.294508e-005
9.272646e-005
8.589800e-005
-1.846125e-005
-2.944164e-004
-7.858922e-004
-1.433479e-003
-2.002329e-003
-2.089083e-003
-1.342276e-003
2.091614e-004
2.116628e-003
3.825554e-003
4.984670e-003
5.514941e-003
5.513150e-003
5.138380e-003
4.542515e-003
3.842493e-003
3.117290e-003
2.415351e-003
1.763853e-003
1.176182e-003
6.570055e-004
2.055069e-004
-1.825085e-004
-5.131616e-004
-7.934521e-004
-1.030512e-003
-1.231101e-003
-1.401310e-003
-1.546411e-003
-1.670822e-003
-1.778150e-003
-1.871263e-003
-1.952400e-003
-2.023270e-003
-2.085162e-003
-2.139038e-003
-2.185601e-003
-2.225346e-003
-2.258572e-003
-2.285347e-003
-2.305419e-003
-2.318026e-003
-2.321596e-003
-2.313249e-003
-2.288027e-003
-2.237707e-003
-2.149046e-003
-2.001289e-003
-1.763016e-003
-1.389011e-003
-8.194284e-004
1.348271e-005
1.161579e-003
2.607162e-003
4.172059e-003
5.417875e-003
5.665662e-003
4.364458e-003
1.800879e-003
-6.727215e-004
-1.788494e-003
-1.589102e-003
-9.065980e-004
-3.307762e-004
-2.180097e-005
8.034660e-005
7.925169e-005
4.803817e-005
2.012993e-005
3.876786e-006
-2.821803e-006
-4.209937e-006
-3.486256e-006
-2.330491e-006
-1.375885e-006
-7.429373e-007
-3.717267e-007
-1.720307e-007
-7.208006e-008
-2.543636e-008
-5.415022e-009
1.743908e-009
-9.721084e-009
-2.960097e-008
-7.965484e-008
-1.834814e-007
-3.837137e-007
-7.488073e-007
-1.374720e-006
-2.363679e-006
-3.738581e-006
-5.219365e-006
-5.783965e-006
-3.062951e-006
6.977509e-006
2.886241e-005
6.289693e-005
9.477098e-005
8.003900e-005
-6.617508e-005
-4.481692e-004
-1.104347e-003
-1.841749e-003
-2.076812e-003
-1.052524e-003
1.278720e-003
3.848797e-003
5.436139e-003
5.624100e-003
4.739119e-003
3.336667e-003
1.861276e-003
5.624070e-004
-4.661976e-004
-1.223426e-003
-1.750333e-003
-2.098853e-003
-2.316487e-003
-2.441176e-003
-2.501259e-003
-2.517234e-003
-2.503725e-003
-2.471109e-003
-2.426699e-003
-2.375593e-003
-2.321279e-003
-2.266084e-003
-2.211507e-003
-2.158475e-003
-2.107544e-003
-2.059043e-003
-2.013190e-003
-1.970176e-003
-1.930228e-003
-1.893656e-003
-1.860888e-003
-1.832496e-003
-1.809221e-003
-1.791993e-003
-1.781957e-003
-1.780497e-003
-1.789274e-003
-1.810261e-003
-1.845776e-003
-1.898486e-003
-1.971329e-003
-2.067250e-003
-2.188521e-003
-2.335199e-003
-2.501914e-003
-2.671495e-003
-2.803139e-003
-2.812593e-003
-2.545509e-003
-1.762309e-003
-1.978554e-004
2.186161e-003
4.731623e-003
5.890111e-003
4.332725e-003
9.875497e-004
-1.405926e-003
-1.729285e-003
-1.043818e-003
-3.773777e-004
-2.563079e-005
8.178446e-005
7.614712e-005
4.268015e-005
1.570933e-005
1.488008e-006
-3.565758e-006
-4.084724e-006
-3.079520e-006
-1.936906e-006
-1.088963e-006
-5.622873e-007
-2.685727e-007
-1.174338e-007
-4.505335e-008
-1.314645e-008
-1.458180e-009
-2.990311e-008
-6.077688e-008
-1.374154e-007
-2.934886e-007
-5.882622e-007
-1.112261e-006
-1.978502e-006
-3.264306e-006
-4.830578e-006
-5.912203e-006
-4.437267e-006
3.609137e-006
2.358595e-005
5.779193e-005
9.355649e-005
8.204730e-005
-8.129162e-005
-5.343364e-004
-1.313026e-003
-2.041351e-003
-1.653237e-003
7.774594e-004
4.093103e-003
5.822613e-003
5.081318e-003
2.893974e-003
5.993589e-004
-1.096147e-003
-2.086182e-003
-2.534067e-003
-2.642130e-003
-2.565210e-003
-2.401334e-003
-2.206164e-003
-2.008717e-003
-1.822722e-003
-1.653685e-003
-1.502953e-003
-1.369910e-003
-1.253107e-003
-1.150815e-003
-1.061280e-003
-9.828358e-004
-9.139572e-004
-8.532782e-004
-7.996013e-004
-7.518984e-004
-7.093074e-004
-6.711270e-004
-6.368084e-004
-6.059469e-004
-5.782734e-004
-5.536456e-004
-5.320421e-004
-5.135585e-004
-4.984082e-004
-4.869292e-004
-4.796008e-004
-4.770723e-004
-4.802096e-004
-4.901684e-004
-5.085009e-004
-5.373143e-004
-5.794976e-004
-6.390398e-004
-7.214604e-004
-8.343516e-004
-9.879556e-004
-1.195482e-003
-1.472271e-003
-1.831425e-003
-2.270110e-003
-2.734279e-003
-3.042987e-003
-2.773372e-003
-1.249907e-003
1.877367e-003
5.223879e-003
5.657188e-003
2.338428e-003
-1.019779e-003
-1.761477e-003
-1.060223e-003
-3.502644e-004
-3.174960e-006
8.532711e-005
6.892621e-005
3.418979e-005
1.013108e-005
-9.531595e-007
-4.058204e-006
-3.756683e-006
-2.580975e-006
-1.525230e-006
-8.149462e-007
-4.009496e-007
-1.814585e-007
-7.373678e-008
-2.516206e-008
-7.025005e-009
-6.086781e-008
-1.066912e-007
-2.190859e-007
-4.442136e-007
-8.606692e-007
-1.580167e-006
-2.716107e-006
-4.257887e-006
-5.737428e-006
-5.570209e-006
-1.874778e-007
1.611607e-005
4.801988e-005
8.785077e-005
9.100162e-005
-5.531239e-005
-5.226142e-004
-1.376398e-003
-2.104095e-003
-1.146721e-003
2.397202e-003
5.645490e-003
5.306458e-003
2.287373e-003
-6.764966e-004
-2.302356e-003
-2.769650e-003
-2.622841e-003
-2.251799e-003
-1.849737e-003
-1.490969e-003
-1.194284e-003
-9.567652e-004
-7.689078e-004
-6.205765e-004
-5.030002e-004
-4.091826e-004
-3.337473e-004
-2.726237e-004
-2.227342e-004
-1.817350e-004
-1.478196e-004
-1.195782e-004
-9.589914e-005
-7.589946e-005
-5.887652e-005
-4.427205e-005
-3.164523e-005
-2.065157e-005
-1.102609e-005
-2.569658e-006
4.862158e-006
1.136803e-005
1.700776e-005
2.180704e-005
2.575986e-005
2.882789e-005
3.093614e-005
3.196332e-005
3.172455e-005
2.994279e-005
2.620263e-005
1.987624e-005
1.000486e-005
-4.891814e-006
-2.712307e-005
-6.032464e-005
-1.102616e-004
-1.861045e-004
-3.023724e-004
-4.815835e-004
-7.568805e-004
-1.171257e-003
-1.762459e-003
-2.503806e-003
-3.137733e-003
-2.868929e-003
-4.170733e-004
3.950251e-003
6.021735e-003
2.905189e-003
-9.590537e-004
-1.742325e-003
-9.546734e-004
-2.588316e-004
3.410699e-005
8.566995e-005
5.728877e-005
2.394022e-005
4.580549e-006
-2.865350e-006
-4.137384e-006
-3.239332e-006
-2.040666e-006
-1.133938e-006
-5.747720e-007
-2.680507e-007
-1.137335e-007
-4.269177e-008
-1.573267e-008
-1.050823e-007
-1.704001e-007
-3.289009e-007
-6.413769e-007
-1.206891e-006
-2.151798e-006
-3.556837e-006
-5.222617e-006
-6.121135e-006
-3.469262e-006