# vtk DataFile Version 3.0
vtk output
ASCII
DATASET STRUCTURED_POINTS
DIMENSIONS 100 100 1
SPACING 1 1 1
ORIGIN 0 0 0
POINT_DATA 10000
SCALARS SFBox_profile double
LOOKUP_TABLE default 
0.000000e+000
0.000000e+000
0.000000e+000
0.000000e+000
0.000000e+000
0.000000e+000
0.000000e+000
0.000000e+000
0.000000e+000
0.000000e+000
0.000000e+000
0.000000e+000
0.000000e+000
0.000000e+000
0.000000e+000
0.000000e+000
0.000000e+000
0.000000e+000
0.000000e+000
0.000000e+000
0.000000e+000
0.000000e+000
0.000000e+000
0.000000e+000
0.000000e+000
0.000000e+000
0.000000e+000
0.000000e+000
0.000000e+000
0.000000e+000
0.000000e+000
0.000000e+000
0.000000e+000
0.000000e+000
0.000000e+000
0.000000e+000
0.000000e+000
0.000000e+000
0.000000e+000
0.000000e+000
0.000000e+000
0.000000e+000
0.000000e+000
0.000000e+000
0.000000e+000
0.000000e+000
0.000000e+000
0.000000e+000
0.000000e+000
0.000000e+000
0.000000e+000
0.000000e+000
0.000000e+000
0.000000e+000
0.000000e+000
0.000000e+000
0.000000e+000
0.000000e+000
0.000000e+000
0.000000e+000
0.000000e+000
0.000000e+000
0.000000e+000
0.000000e+000
0.000000e+000
0.000000e+000
0.000000e+000
0.000000e+000
0.000000e+000
0.000000e+000
0.000000e+000
0.000000e+000
0.000000e+000
0.000000e+000
0.000000e+000
0.000000e+000
0.000000e+000
0.000000e+000
0.000000e+000
0.000000e+000
0.000000e+000
0.000000e+000
0.000000e+000
0.000000e+000
0.000000e+000
0.000000e+000
0.000000e+000
0.000000e+000
0.000000e+000
0.000000e+000
0.000000e+000
0.000000e+000
0.000000e+000
0.000000e+000
0.000000e+000
0.000000e+000
0.000000e+000
0.000000e+000
0.000000e+000
0.000000e+000
-3.545415e-009
-2.412079e-009
-7.424002e-010
7.062723e-010
1.441895e-009
1.326991e-009
4.793435e-010
-7.282959e-010
-1.641901e-009
-1.601962e-009
-5.041384e-010
9.230059e-010
1.611380e-009
1.095969e-009
-3.404107e-011
-7.029630e-010
-3.852659e-010
4.551127e-010
9.307877e-010
6.335415e-010
-7.351419e-011
-5.639307e-010
-5.970023e-010
-4.358735e-010
-4.475996e-010
-7.076023e-010
-9.773834e-010
-9.611075e-010
-5.453058e-010
1.335838e-010
7.816045e-010
1.146550e-009
1.224306e-009
1.284105e-009
1.606214e-009
2.142883e-009
2.504547e-009
2.373197e-009
1.905686e-009
1.608241e-009
1.763172e-009
2.082835e-009
2.051764e-009
1.574265e-009
1.120841e-009
1.159748e-009
1.569243e-009
1.782665e-009
1.503657e-009
1.090222e-009
1.108649e-009
1.613447e-009
2.068960e-009
2.017624e-009
1.647934e-009
1.541642e-009
1.923885e-009
2.367313e-009
2.317845e-009
1.770323e-009
1.248348e-009
1.134487e-009
1.207379e-009
9.575094e-010
2.638603e-010
-4.239545e-010
-6.152512e-010
-3.527674e-010
-1.328237e-010
-2.928926e-010
-6.240715e-010
-6.586698e-010
-2.546874e-010
2.320892e-010
3.712609e-010
1.511497e-010
-3.485570e-011
1.303771e-010
5.088946e-010
6.549754e-010
3.071240e-010
-3.191056e-010
-7.351010e-010
-6.433408e-010
-1.851407e-010
2.418804e-010
3.686610e-010
2.499326e-010
1.161265e-010
8.689780e-011
6.481099e-011
-9.426914e-011
-3.470383e-010
-4.498210e-010
-2.098911e-010
2.598021e-010
5.798500e-010
4.433431e-010
-6.778624e-011
-5.218290e-010
-2.110426e-010
-1.040886e-010
-2.800906e-011
-4.211039e-011
-2.801660e-011
1.202371e-010
2.832622e-010
2.242681e-010
-7.531223e-011
-3.098895e-010
-1.816255e-010
2.056867e-010
4.093937e-010
1.466266e-010
-3.541728e-010
-5.862529e-010
-3.213836e-010
1.576671e-010
3.992828e-010
2.737144e-010
5.654130e-011
7.303050e-011
3.616911e-010
7.060171e-010
9.047145e-010
9.331003e-010
8.816238e-010
8.387169e-010
8.560666e-010
9.448385e-010
1.039296e-009
1.010239e-009
8.042590e-010
5.694065e-010
5.483075e-010
7.929889e-010
1.054420e-009
1.051618e-009
8.329450e-010
7.543036e-010
1.045416e-009
1.491250e-009
1.664344e-009
1.452876e-009
1.215492e-009
1.337576e-009
1.735028e-009
1.946412e-009
1.713409e-009
1.312804e-009
1.207933e-009
1.459494e-009
1.650594e-009
1.423614e-009
9.410168e-010
6.817617e-010
8.382434e-010
1.084770e-009
1.004407e-009
6.207740e-010
3.610156e-010
5.105658e-010
8.574042e-010
9.643119e-010
7.094608e-010
4.168099e-010
4.337762e-010
7.001928e-010
8.359905e-010
6.148676e-010
2.308527e-010
4.930431e-011
1.698461e-010
3.297580e-010
2.378082e-010
-8.030131e-011
-3.233113e-010
-2.654550e-010
1.440849e-012
1.905914e-010
1.370735e-010
-5.045502e-011
-1.415849e-010
-4.160412e-011
1.253252e-010
1.700599e-010
4.361423e-011
-1.202227e-010
-1.526099e-010
-2.504910e-011
1.247597e-010
1.371000e-010
-3.633509e-012
-1.496968e-010
-1.403778e-010
2.808301e-011
1.896354e-010
1.735607e-010
-1.754122e-011
-2.029833e-010
3.347439e-009
2.388493e-009
7.924502e-010
-7.968242e-010
-1.626415e-009
-1.293743e-009
-9.885874e-011
1.112269e-009
1.561086e-009
1.081529e-009
1.332796e-010
-6.519573e-010
-9.257079e-010
-7.335378e-010
-3.383763e-010
-1.091047e-011
8.758555e-011
-3.537940e-011
-1.967591e-010
-1.518814e-010
2.012149e-010
7.230227e-010
1.178665e-009
1.483000e-009
1.749514e-009
2.078002e-009
2.359787e-009
2.372791e-009
2.059768e-009
1.625115e-009
1.309932e-009
1.129805e-009
9.147559e-010
5.895816e-010
3.104728e-010
2.708312e-010
4.433704e-010
6.165095e-010
6.797347e-010
7.648484e-010
1.042049e-009
1.447959e-009
1.729471e-009
1.762206e-009
1.717112e-009
1.837299e-009
2.109587e-009
2.268056e-009
2.133226e-009
1.843375e-009
1.673193e-009
1.678818e-009
1.635583e-009
1.346051e-009
9.098716e-010
6.043155e-010
5.398858e-010
5.440258e-010
4.163949e-010
2.117937e-010
1.806352e-010
4.498639e-010
8.571678e-010
1.140435e-009
1.228455e-009
1.270287e-009
1.394210e-009
1.524520e-009
1.482663e-009
1.221973e-009
8.896415e-010
6.509219e-010
5.106659e-010
3.467541e-010
8.793947e-011
-1.966326e-010
-3.876236e-010
-4.438859e-010
-4.060068e-010
-3.007295e-010
-1.017629e-010
1.912032e-010
4.692566e-010
5.602299e-010
3.777734e-010
1.524469e-011
-3.177767e-010
-4.507572e-010
-3.529085e-010
-1.128750e-010
1.445387e-010
3.177790e-010
3.448629e-010
2.133538e-010
-2.003577e-011
-2.337241e-010
-3.010915e-010
-1.785281e-010
5.123407e-011
2.282941e-010
3.710529e-009
2.711274e-009
1.016506e-009
-7.552310e-010
-1.833507e-009
-1.702391e-009
-4.991569e-010
9.778196e-010
1.762402e-009
1.381927e-009
1.752982e-010
-9.792318e-010
-1.310911e-009
-6.912323e-010
3.236269e-010
9.527571e-010
7.980900e-010
1.309633e-010
-3.738105e-010
-2.370719e-010
4.202993e-010
1.043179e-009
1.215169e-009
1.058591e-009
1.049167e-009
1.455740e-009
2.028071e-009
2.278687e-009
2.031512e-009
1.610545e-009
1.466772e-009
1.689764e-009
1.959532e-009
1.955484e-009
1.715892e-009
1.546369e-009
1.637774e-009
1.869787e-009
1.998008e-009
1.947622e-009
1.855602e-009
1.860014e-009
1.935775e-009
1.964334e-009
1.903569e-009
1.826288e-009
1.805627e-009
1.823951e-009
1.816794e-009
1.766086e-009
1.710461e-009
1.679126e-009
1.657882e-009
1.626318e-009
1.592341e-009
1.567616e-009
1.533583e-009
1.466480e-009
1.389640e-009
1.363484e-009
1.410147e-009
1.477161e-009
1.501965e-009
1.492859e-009
1.505809e-009
1.540266e-009
1.505441e-009
1.325794e-009
1.056170e-009
8.397548e-010
7.410819e-010
6.663832e-010
4.887357e-010
2.278548e-010
4.452471e-011
3.701551e-011
9.420267e-011
1.376704e-011
-2.333164e-010
-4.174556e-010
-2.810568e-010
1.547328e-010
5.605085e-010
6.014650e-010
2.565503e-010
-1.799748e-010
-3.980419e-010
-3.407983e-010
-1.775057e-010
-6.142134e-011
2.473227e-011
1.725772e-010
3.516606e-010
3.804111e-010
1.256154e-010
-2.924037e-010
-5.451960e-010
-3.870901e-010
8.851384e-011
4.979579e-010
2.948394e-010
4.146212e-010
4.402526e-010
1.752994e-010
-3.141073e-010
-6.898224e-010
-6.178993e-010
-1.035458e-010
4.438257e-010
5.353453e-010
6.522904e-011
-5.279052e-010
-6.118909e-010
4.918744e-011
1.020888e-009
1.548339e-009
1.245113e-009
4.677117e-010
-1.294027e-011
2.521104e-010
9.661444e-010
1.402649e-009
1.142982e-009
4.848199e-010
1.133356e-010
3.961604e-010
1.044286e-009
1.470429e-009
1.426693e-009
1.229511e-009
1.360731e-009
1.915847e-009
2.503304e-009
2.670580e-009
2.361796e-009
1.920306e-009
1.679886e-009
1.619910e-009
1.439931e-009
9.257112e-010
1.871634e-010
-4.675838e-010
-8.511143e-010
-1.057882e-009
-1.318643e-009
-1.729287e-009
-2.146179e-009
-2.344448e-009
-2.256699e-009
-2.033805e-009
-1.866200e-009
-1.765522e-009
-1.554013e-009
-1.080906e-009
-4.221378e-010
1.756101e-010
5.553458e-010
8.119686e-010
1.152701e-009
1.611919e-009
1.970322e-009
1.997227e-009
1.734779e-009
1.468666e-009
1.401047e-009
1.417969e-009
1.246710e-009
8.220225e-010
4.069274e-010
3.008349e-010
4.798332e-010
6.163356e-010
4.718523e-010
1.923645e-010
1.369674e-010
4.300279e-010
7.721487e-010
7.516750e-010
3.087814e-010
-1.827588e-010
-3.141828e-010
-7.087587e-011
1.837943e-010
1.332579e-010
-1.485184e-010
-3.104047e-010
-1.434510e-010
1.783953e-010
2.999382e-010
8.906567e-011
-2.137001e-010
-2.636515e-010
2.720185e-012
2.905412e-010
2.635225e-010
-8.545944e-011
-4.086270e-010
-3.562847e-010
5.607279e-011
4.483357e-010
-3.963674e-009
-2.557956e-009
-4.742688e-010
1.214559e-009
1.701936e-009
9.464473e-010
-3.213379e-010
-1.156676e-009
-1.105795e-009
-4.581006e-010
1.565935e-010
3.967807e-010
4.342192e-010
6.069041e-010
9.533409e-010
1.173770e-009
1.038484e-009
7.340434e-010
7.121119e-010
1.188109e-009
1.853729e-009
2.144458e-009
1.795575e-009
1.104515e-009
6.308684e-010
6.532308e-010
9.351001e-010
1.008090e-009
6.489019e-010
5.909160e-011
-4.057956e-010
-6.464050e-010
-9.387482e-010
-1.652457e-009
-2.871252e-009
-4.308313e-009
-5.598351e-009
-6.659160e-009
-7.744091e-009
-9.129534e-009
-1.077072e-008
-1.230364e-008
-1.340448e-008
-1.411953e-008
-1.479193e-008
-1.565202e-008
-1.652817e-008
-1.701719e-008
-1.692975e-008
-1.649391e-008
-1.606911e-008
-1.570347e-008
-1.506925e-008
-1.386724e-008
-1.221675e-008
-1.055021e-008
-9.130715e-009
-7.783474e-009
-6.181298e-009
-4.337233e-009
-2.684262e-009
-1.619907e-009
-1.061534e-009
-5.621464e-010
1.456017e-010
8.400483e-010
1.114271e-009
9.158721e-010
6.524877e-010
7.267032e-010
1.067361e-009
1.231445e-009
9.559967e-010
4.944122e-010
3.337369e-010
6.299896e-010
1.024410e-009
1.043288e-009
6.072389e-010
7.738627e-011
-1.742919e-010
-1.487469e-010
-1.337993e-010
-2.952690e-010
-4.524406e-010
-3.011218e-010
1.844343e-010
6.444000e-010
6.613424e-010
1.829329e-010
-4.045513e-010
-6.301177e-010
-3.642659e-010
9.493048e-011
3.352147e-010
2.143627e-010
-5.443209e-011
-1.650857e-010
-3.552405e-011
1.417123e-010
-5.088648e-009
-3.514059e-009
-9.994624e-010
1.349466e-009
2.430796e-009
1.824403e-009
1.571639e-010
-1.294963e-009
-1.556256e-009
-6.506676e-010
5.627373e-010
1.209295e-009
1.074296e-009
5.804785e-010
2.584132e-010
3.177448e-010
6.563016e-010
1.116842e-009
1.629409e-009
2.143859e-009
2.540300e-009
2.674832e-009
2.495859e-009
2.072349e-009
1.497248e-009
7.742019e-010
-2.062335e-010
-1.596912e-009
-3.494899e-009
-5.876471e-009
-8.610184e-009
-1.155675e-008
-1.468717e-008
-1.809161e-008
-2.183011e-008
-2.576687e-008
-2.960558e-008
-3.314256e-008
-3.646559e-008
-3.982747e-008
-4.329184e-008
-4.656671e-008
-4.926952e-008
-5.134539e-008
-5.312340e-008
-5.489716e-008
-5.651210e-008
-5.747982e-008
-5.751426e-008
-5.684420e-008
-5.590204e-008
-5.475699e-008
-5.299922e-008
-5.023755e-008
-4.660339e-008
-4.263089e-008
-3.865778e-008
-3.449891e-008
-2.980825e-008
-2.467649e-008
-1.970371e-008
-1.543738e-008
-1.186124e-008
-8.559323e-009
-5.339727e-009
-2.536863e-009
-6.231016e-010
3.776654e-010
9.462318e-010
1.532357e-009
2.088620e-009
2.228168e-009
1.786810e-009
1.096956e-009
6.616253e-010
6.429157e-010
7.639024e-010
6.914839e-010
4.094275e-010
1.627330e-010
1.055274e-010
1.160445e-010
-1.152516e-011
-2.660283e-010
-3.933680e-010
-1.825030e-010
2.681358e-010
6.056397e-010
5.425504e-010
1.154048e-010
-3.577653e-010
-5.534907e-010
-3.867408e-010
-3.022204e-011
2.603258e-010
3.371523e-010
2.227009e-010
3.634442e-011
-1.157363e-010
-1.918474e-010
-1.607886e-009
-1.395504e-009
-7.632899e-010
2.533281e-010
1.122667e-009
1.210149e-009
4.532131e-010
-4.642211e-010
-7.033969e-010
-4.423804e-011
9.420223e-010
1.457030e-009
1.181570e-009
4.789292e-010
1.457969e-011
2.176324e-010
1.016834e-009
1.958030e-009
2.539574e-009
2.528395e-009
2.058325e-009
1.429437e-009
7.455766e-010
-2.877568e-010
-2.181551e-009
-5.255094e-009
-9.427683e-009
-1.443263e-008
-2.018739e-008
-2.686666e-008
-3.459703e-008
-4.317304e-008
-5.216882e-008
-6.130633e-008
-7.060527e-008
-8.012926e-008
-8.968381e-008
-9.888915e-008
-1.075406e-007
-1.157606e-007
-1.237096e-007
-1.312254e-007
-1.378903e-007
-1.434655e-007
-1.481184e-007
-1.521097e-007
-1.553220e-007
-1.572580e-007
-1.575489e-007
-1.563320e-007
-1.539986e-007
-1.506173e-007
-1.457822e-007
-1.391033e-007
-1.307338e-007
-1.212650e-007
-1.111253e-007
-1.002531e-007
-8.845787e-008
-7.600223e-008
-6.365046e-008
-5.211138e-008
-4.156437e-008
-3.183455e-008
-2.295102e-008
-1.535418e-008
-9.490589e-009
-5.317694e-009
-2.337618e-009
-1.011171e-010
1.443829e-009
2.144400e-009
2.070312e-009
1.617743e-009
1.190670e-009
8.941850e-010
6.098162e-010
3.008921e-010
1.214976e-010
2.027665e-010
4.307561e-010
5.317787e-010
3.697644e-010
8.767221e-011
-7.133633e-011
-3.264245e-011
6.639175e-011
7.366025e-011
-6.614396e-012
-6.276161e-011
-4.310423e-011
-1.095681e-011
-3.137215e-011
-6.121965e-011
-1.356095e-012
1.516652e-010
2.564610e-010
1.646655e-010
-1.000368e-010
-3.319515e-010
3.964985e-009
2.201220e-009
-4.804517e-011
-1.338005e-009
-1.196904e-009
-2.687467e-010
4.992569e-010
7.029169e-010
6.035564e-010
6.246418e-010
8.736497e-010
1.127362e-009
1.160322e-009
1.021689e-009
1.015720e-009
1.425662e-009
2.197051e-009
2.834399e-009
2.656767e-009
1.274399e-009
-1.137189e-009
-4.114310e-009
-7.555910e-009
-1.209172e-008
-1.870492e-008
-2.793368e-008
-3.949249e-008
-5.272830e-008
-6.738136e-008
-8.376714e-008
-1.021913e-007
-1.223326e-007
-1.433524e-007
-1.645843e-007
-1.859540e-007
-2.076443e-007
-2.294765e-007
-2.508038e-007
-2.710220e-007
-2.900098e-007
-3.079380e-007
-3.247313e-007
-3.399037e-007
-3.529589e-007
-3.637897e-007
-3.725307e-007
-3.790797e-007
-3.829511e-007
-3.836712e-007
-3.811818e-007
-3.757089e-007
-3.672791e-007
-3.555540e-007
-3.402343e-007
-3.215256e-007
-3.000707e-007
-2.764533e-007
-2.509302e-007
-2.237301e-007
-1.955014e-007
-1.673032e-007
-1.401322e-007
-1.145693e-007
-9.093536e-008
-6.966517e-008
-5.134769e-008
-3.635910e-008
-2.456977e-008
-1.550202e-008
-8.725738e-009
-4.002791e-009
-1.072825e-009
5.374503e-010
1.365275e-009
1.711835e-009
1.611428e-009
1.126294e-009
5.657495e-010
3.103945e-010
4.475721e-010
6.934324e-010
7.240112e-010
5.183756e-010
3.064774e-010
2.230479e-010
1.355431e-010
-1.301513e-010
-4.749437e-010
-5.632966e-010
-2.107397e-010
3.391765e-010
6.104691e-010
3.761480e-010
-1.053861e-010
-3.641781e-010
-2.032001e-010
1.282079e-010
2.388728e-010
2.555155e-011
-2.398122e-010
7.106388e-009
4.318466e-009
4.967145e-010
-2.170318e-009
-2.571793e-009
-1.194948e-009
5.632707e-010
1.532456e-009
1.445912e-009
8.365375e-010
4.529900e-010
7.002712e-010
1.446435e-009
2.245601e-009
2.743003e-009
2.880137e-009
2.685513e-009
1.873581e-009
-2.544779e-010
-4.411601e-009
-1.085459e-008
-1.945849e-008
-3.034992e-008
-4.436767e-008
-6.269466e-008
-8.594469e-008
-1.137005e-007
-1.450531e-007
-1.795358e-007
-2.173656e-007
-2.587277e-007
-3.029944e-007
-3.488419e-007
-3.951299e-007
-4.414886e-007
-4.879475e-007
-5.341281e-007
-5.790189e-007
-6.215753e-007
-6.613558e-007
-6.984163e-007
-7.326593e-007
-7.634840e-007
-7.901264e-007
-8.121729e-007
-8.295662e-007
-8.421534e-007
-8.494144e-007
-8.507136e-007
-8.456953e-007
-8.342943e-007
-8.164102e-007
-7.917582e-007
-7.601452e-007
-7.218188e-007
-6.774520e-007
-6.278359e-007
-5.737352e-007
-5.160975e-007
-4.562886e-007
-3.959841e-007
-3.368135e-007
-2.801631e-007
-2.272830e-007
-1.793920e-007
-1.374921e-007
-1.020510e-007
-7.295419e-008
-4.979459e-008
-3.212876e-008
-1.939586e-008
-1.070353e-008
-4.918163e-009
-1.099744e-009
1.191860e-009
2.102530e-009
1.957987e-009
1.406989e-009
1.040816e-009
9.668505e-010
8.851893e-010
5.843577e-010
2.411489e-010
1.634284e-010
3.324161e-010
3.654546e-010
-1.213747e-011
-5.614239e-010
-7.246128e-010
-2.432082e-010
5.020231e-010
8.380110e-010
4.732196e-010
-2.221034e-010
-6.112637e-010
-4.214967e-010
4.566270e-011
2.953390e-010
1.622708e-010
-7.678788e-011
5.068318e-009
3.151214e-009
4.657775e-010
-1.485809e-009
-1.819974e-009
-7.298293e-010
7.992269e-010
1.721120e-009
1.604665e-009
8.588195e-010
3.810588e-010
8.433905e-010
2.123188e-009
3.354013e-009
3.572025e-009
2.339942e-009
-2.970723e-010
-4.477375e-009
-1.106554e-008
-2.145869e-008
-3.690699e-008
-5.816609e-008
-8.584829e-008
-1.209103e-007
-1.644982e-007
-2.171865e-007
-2.784867e-007
-3.472529e-007
-4.225387e-007
-5.038859e-007
-5.907229e-007
-6.816617e-007
-7.746330e-007
-8.677699e-007
-9.600289e-007
-1.050865e-006
-1.139432e-006
-1.224323e-006
-1.304140e-006
-1.378150e-006
-1.446217e-006
-1.508144e-006
-1.563235e-006
-1.610570e-006
-1.649517e-006
-1.679824e-006
-1.701225e-006
-1.713106e-006
-1.714636e-006
-1.705115e-006
-1.684091e-006
-1.651206e-006
-1.606097e-006
-1.548546e-006
-1.478692e-006
-1.397080e-006
-1.304585e-006
-1.202464e-006
-1.092509e-006
-9.770690e-007
-8.588422e-007
-7.406380e-007
-6.253316e-007
-5.158795e-007
-4.150893e-007
-3.251363e-007
-2.472242e-007
-1.817068e-007
-1.284594e-007
-8.700480e-008
-5.627383e-008
-3.445600e-008
-1.937973e-008
-9.215084e-009
-2.827806e-009
5.313982e-010
1.747107e-009
1.895502e-009
1.783875e-009
1.597455e-009
1.148052e-009
4.479195e-010
-9.422959e-011
-9.082294e-011
3.327275e-010
6.189927e-010
3.814531e-010
-1.651588e-010
-4.499785e-010
-1.849222e-010
3.247060e-010
5.248100e-010
2.038409e-010
-3.127004e-010
-5.325246e-010
-2.963423e-010
1.107500e-010
2.990193e-010
1.696940e-010
-3.433641e-011
-8.016111e-010
-4.189921e-010
6.798831e-011
3.733219e-010
4.753291e-010
6.029238e-010
9.335565e-010
1.337028e-009
1.502393e-009
1.361935e-009
1.304442e-009
1.800780e-009
2.719051e-009
3.058706e-009
1.460162e-009
-3.030076e-009
-1.082280e-008
-2.250222e-008
-3.963835e-008
-6.478935e-008
-1.006709e-007
-1.493504e-007
-2.121726e-007
-2.901764e-007
-3.842147e-007
-4.944891e-007
-6.200571e-007
-7.589669e-007
-9.088996e-007
-1.067590e-006
-1.232625e-006
-1.401080e-006
-1.569671e-006
-1.735450e-006
-1.896332e-006
-2.050900e-006
-2.197795e-006
-2.335475e-006
-2.462592e-006
-2.578459e-006
-2.682966e-006
-2.776010e-006
-2.857113e-006
-2.925588e-006
-2.980943e-006
-3.022968e-006
-3.051421e-006
-3.065741e-006
-3.065089e-006
-3.048591e-006
-3.015466e-006
-2.964993e-006
-2.896474e-006
-2.809291e-006
-2.702979e-006
-2.577310e-006
-2.432477e-006
-2.269412e-006
-2.090011e-006
-1.897098e-006
-1.694237e-006
-1.485685e-006
-1.276513e-006
-1.072500e-006
-8.795039e-007
-7.025568e-007
-5.452755e-007
-4.098807e-007
-2.974487e-007
-2.078785e-007
-1.396162e-007
-8.969943e-008
-5.446394e-008
-3.049952e-008
-1.511740e-008
-6.123474e-009
-1.446519e-009
7.834968e-010
1.803315e-009
2.055097e-009
1.610148e-009
7.502033e-010
6.057360e-011
-2.459977e-011
3.709917e-010
7.241729e-010
6.627657e-010
2.906001e-010
-2.536726e-011
-8.936450e-011
-2.579316e-011
-4.336157e-011
-1.626509e-010
-2.254451e-010
-1.187176e-010
8.455528e-011
2.113226e-010
1.669702e-010
9.354814e-012
-1.218179e-010
-6.182399e-009
-3.598617e-009
-1.014955e-010
2.264160e-009
2.583549e-009
1.552725e-009
6.326848e-010
7.401693e-010
1.664818e-009
2.590880e-009
2.982354e-009
2.813634e-009
1.946008e-009
-5.803264e-010
-6.543860e-009
-1.794217e-008
-3.664367e-008
-6.481240e-008
-1.056317e-007
-1.633864e-007
-2.425896e-007
-3.468177e-007
-4.781267e-007
-6.371968e-007
-8.236005e-007
-1.035676e-006
-1.270176e-006
-1.522271e-006
-1.786114e-006
-2.055622e-006
-2.324959e-006
-2.588705e-006
-2.842010e-006
-3.080925e-006
-3.302686e-006
-3.505646e-006
-3.688925e-006
-3.852128e-006
-3.995350e-006
-4.119252e-006
-4.224909e-006
-4.313427e-006
-4.385689e-006
-4.442412e-006
-4.484342e-006
-4.512280e-006
-4.526900e-006
-4.528584e-006
-4.517402e-006
-4.493139e-006
-4.455277e-006
-4.402931e-006
-4.334818e-006
-4.249180e-006
-4.143665e-006
-4.015355e-006
-3.861165e-006
-3.678524e-006
-3.465952e-006
-3.223372e-006
-2.952375e-006
-2.656741e-006
-2.342985e-006
-2.020311e-006
-1.699604e-006
-1.391892e-006
-1.107036e-006
-8.529685e-007
-6.352117e-007
-4.563520e-007
-3.156989e-007
-2.096596e-007
-1.329062e-007
-7.970962e-008
-4.471490e-008
-2.307793e-008
-1.049003e-008
-3.478975e-009
2.434346e-010
1.870821e-009
2.066964e-009
1.492510e-009
8.415312e-010
5.255523e-010
5.128793e-010
5.533590e-010
5.054679e-010
3.995555e-010
2.658719e-010
5.149382e-011
-2.419353e-010
-4.390401e-010
-3.336314e-010
4.178590e-011
3.822557e-010
4.062254e-010
1.459565e-010
-1.175632e-010
-1.876121e-010
-1.370411e-010
-7.271928e-009
-4.022558e-009
3.226363e-010
3.117931e-009
3.188126e-009
1.514628e-009
1.754620e-010
5.453716e-010
2.304085e-009
3.942613e-009
4.036627e-009
1.935140e-009
-2.767017e-009
-1.135955e-008
-2.665901e-008
-5.275463e-008
-9.442274e-008
-1.569428e-007
-2.463119e-007
-3.691478e-007
-5.317287e-007
-7.384521e-007
-9.905624e-007
-1.285730e-006
-1.618334e-006
-1.979916e-006
-2.359563e-006
-2.744488e-006
-3.121128e-006
-3.476678e-006
-3.800466e-006
-4.084668e-006
-4.324301e-006
-4.516906e-006
-4.662288e-006
-4.762327e-006
-4.820666e-006
-4.842173e-006
-4.832348e-006
-4.796878e-006
-4.741382e-006
-4.671276e-006
-4.591710e-006
-4.507559e-006
-4.423433e-006
-4.343688e-006
-4.272435e-006
-4.213562e-006
-4.170611e-006
-4.146456e-006
-4.142863e-006
-4.160122e-006
-4.196736e-006
-4.248961e-006
-4.310196e-006
-4.370644e-006
-4.417701e-006
-4.437015e-006
-4.413810e-006
-4.334275e-006
-4.187311e-006
-3.966731e-006
-3.673372e-006
-3.316053e-006
-2.910826e-006
-2.478817e-006
-2.043444e-006
-1.627493e-006
-1.250274e-006
-9.252129e-007
-6.586182e-007
-4.501199e-007
-2.944666e-007
-1.836770e-007
-1.087130e-007
-6.057477e-008
-3.116287e-008
-1.401085e-008
-4.588700e-009
2.221068e-011
1.772684e-009
2.067121e-009
1.799425e-009
1.338365e-009
7.727793e-010
2.532329e-010
3.335066e-011
1.788158e-010
3.890366e-010
2.767877e-010
-1.607382e-010
-4.773217e-010
-2.748566e-010
2.944968e-010
6.472275e-010
4.128035e-010
-1.448849e-010
-4.376672e-010
-2.323193e-010
1.099717e-010
-3.586594e-009
-1.563395e-009
1.080168e-009
2.630248e-009
2.384188e-009
1.144459e-009
4.761035e-010
1.328627e-009
3.146861e-009
4.138424e-009
2.296474e-009
-3.928649e-009
-1.608260e-008
-3.700500e-008
-7.193407e-008
-1.286102e-007
-2.164663e-007
-3.455931e-007
-5.258988e-007
-7.661574e-007
-1.072348e-006
-1.445257e-006
-1.878201e-006
-2.356051e-006
-2.856108e-006
-3.350420e-006
-3.808660e-006
-4.201008e-006
-4.500956e-006
-4.687997e-006
-4.749622e-006
-4.681909e-006
-4.488529e-006
-4.178915e-006
-3.766624e-006
-3.268273e-006
-2.702644e-006
-2.089483e-006
-1.448141e-006
-7.966303e-007
-1.513971e-007
4.724268e-007
1.060718e-006
1.600204e-006
2.078361e-006
2.483174e-006
2.802784e-006
3.025235e-006
3.138696e-006
3.132276e-006
2.997162e-006
2.727735e-006
2.322703e-006
1.786615e-006
1.131741e-006
3.796733e-007
-4.381723e-007
-1.281375e-006
-2.102453e-006
-2.849960e-006
-3.473149e-006
-3.928156e-006
-4.184599e-006
-4.230791e-006
-4.076125e-006
-3.750085e-006
-3.297981e-006
-2.773927e-006
-2.232200e-006
-1.719015e-006
-1.266973e-006
-8.934309e-007
-6.023015e-007
-3.876692e-007
-2.377121e-007
-1.382107e-007
-7.537791e-008
-3.769689e-008
-1.650715e-008
-5.595500e-009
-5.478544e-010
1.559103e-009
2.253026e-009
2.047506e-009
1.187628e-009
1.998440e-010
-2.608159e-010
-1.751384e-012
4.842822e-010
5.456982e-010
9.623312e-011
-3.130920e-010
-1.775716e-010
3.311501e-010
5.550153e-010
1.472602e-010
-4.796155e-010
-6.128064e-010
-7.900664e-011
5.307889e-010
2.152188e-009
1.884380e-009
1.538729e-009
1.317549e-009
1.313363e-009
1.572472e-009
2.161742e-009
2.969347e-009
3.272168e-009
1.424785e-009
-5.095760e-009
-1.956124e-008
-4.634931e-008
-9.198698e-008
-1.663087e-007
-2.827500e-007
-4.571888e-007
-7.055308e-007
-1.040597e-006
-1.468567e-006
-1.984906e-006
-2.570138e-006
-3.186916e-006
-3.780405e-006
-4.283087e-006
-4.623103e-006
-4.733658e-006
-4.561071e-006
-4.070261e-006
-3.247581e-006
-2.101041e-006
-6.577960e-007
1.040684e-006
2.944333e-006
4.999364e-006
7.151536e-006
9.348404e-006
1.154134e-005
1.368723e-005
1.574927e-005
1.769634e-005
1.950173e-005
2.114191e-005
2.259552e-005
2.384250e-005
2.486312e-005
2.563694e-005
2.614206e-005
2.635520e-005
2.625262e-005
2.581183e-005
2.501341e-005
2.384329e-005
2.229598e-005
2.037894e-005
1.811735e-005
1.555811e-005
1.277249e-005
9.856684e-006
6.929357e-006
4.124713e-006
1.580310e-006
-5.790366e-007
-2.258365e-006
-3.407140e-006
-4.027836e-006
-4.175704e-006
-3.948457e-006
-3.467585e-006
-2.856215e-006
-2.219745e-006
-1.634029e-006
-1.142429e-006
-7.599280e-007
-4.811790e-007
-2.895004e-007
-1.645785e-007
-8.749855e-008
-4.284829e-008
-1.882807e-008
-6.787197e-009
-9.867241e-010
1.650757e-009
2.352325e-009
1.734963e-009
6.405502e-010
-1.270227e-012
1.523937e-010
6.237808e-010
7.101668e-010
2.686813e-010
-1.934559e-010
-1.865849e-010
1.599116e-010
2.805088e-010
-9.821420e-011
-5.793585e-010
-5.413171e-010
1.079123e-010
7.635768e-010
6.534339e-009
4.216991e-009
1.384509e-009
1.005721e-010
1.034266e-009
3.120425e-009
4.595954e-009
4.144193e-009
8.934004e-010
-6.779097e-009
-2.263476e-008
-5.330057e-008
-1.084779e-007
-2.013390e-007
-3.492015e-007
-5.733932e-007
-8.967242e-007
-1.337710e-006
-1.901991e-006
-2.572415e-006
-3.299890e-006
-3.997745e-006
-4.542827e-006
-4.785793e-006
-4.570310e-006
-3.757012e-006
-2.245618e-006
1.059848e-008
3.000437e-006
6.659353e-006
1.088029e-005
1.552811e-005
2.045527e-005
2.551606e-005
3.057705e-005
3.552316e-005
4.026029e-005
4.471606e-005
4.883901e-005
5.259603e-005
5.596828e-005
5.894685e-005
6.152913e-005
6.371590e-005
6.550897e-005
6.690891e-005
6.791288e-005
6.851275e-005
6.869353e-005
6.843237e-005
6.769806e-005
6.645068e-005
6.464209e-005
6.221852e-005
5.912670e-005
5.532370e-005
5.079021e-005
4.554646e-005
3.966908e-005
3.330495e-005
2.667576e-005
2.006808e-005
1.380638e-005
8.211725e-006
3.553138e-006
2.602930e-009
-2.393922e-006
-3.720119e-006
-4.165079e-006
-3.978107e-006
-3.416589e-006
-2.701903e-006
-1.993520e-006
-1.383695e-006
-9.081855e-007
-5.649134e-007
-3.326494e-007
-1.846575e-007
-9.602726e-008
-4.633158e-008
-2.013961e-008
-6.936052e-009
-5.896445e-010
1.917739e-009
2.155281e-009
1.390282e-009
7.095106e-010
5.786087e-010
7.238691e-010
6.451287e-010
2.315658e-010
-1.699589e-010
-2.259614e-010
-1.762291e-011
9.019391e-011
-8.621985e-011
-3.243552e-010
-2.697891e-010
1.244359e-010
5.098155e-010
7.913656e-009
4.740647e-009
1.053854e-009
-1.743476e-010
1.786801e-009
4.880187e-009
5.920703e-009
2.528950e-009
-6.801985e-009
-2.485213e-008
-5.844667e-008
-1.200540e-007
-2.278552e-007
-4.051983e-007
-6.798120e-007
-1.081135e-006
-1.632637e-006
-2.336916e-006
-3.154700e-006
-3.983236e-006
-4.642590e-006
-4.878636e-006
-4.387966e-006
-2.863341e-006
-5.053423e-008
4.198009e-006
9.887848e-006
1.687484e-005
2.488512e-005
3.355521e-005
4.248082e-005
5.126414e-005
5.955217e-005
6.706280e-005
7.359724e-005
7.904101e-005
8.335678e-005
8.657263e-005
8.876788e-005
9.005757e-005
9.057785e-005
9.047440e-005
8.989504e-005
8.898546e-005
8.788684e-005
8.673417e-005
8.565426e-005
8.476209e-005
8.415449e-005
8.390091e-005
8.403125e-005
8.452103e-005
8.527522e-005
8.611444e-005
8.676875e-005
8.688435e-005
8.604854e-005
8.383728e-005
7.988543e-005
7.397090e-005
6.609403e-005
5.652778e-005
4.581699e-005
3.471527e-005
2.406528e-005
1.464723e-005
7.035780e-006
1.507122e-006
-1.979193e-006
-3.724356e-006
-4.182846e-006
-3.840928e-006
-3.117745e-006
-2.311422e-006
-1.592410e-006
-1.029459e-006
-6.274951e-007
-3.609620e-007
-1.955670e-007
-9.925438e-008
-4.646494e-008
-1.909237e-008
-5.736091e-009
7.351554e-011
1.913820e-009
1.933022e-009
1.438145e-009
1.012082e-009
7.045852e-010
4.034540e-010
1.076347e-010
-8.240556e-011
-1.149410e-010
-4.280139e-011
4.937785e-011
1.123407e-010
1.236510e-010
6.838226e-011
-3.607845e-011
-1.223731e-010
6.860005e-009
4.248888e-009
1.414600e-009
9.248384e-010
3.092710e-009
5.403327e-009
4.007994e-009
-4.599246e-009
-2.392792e-008
-6.032224e-008
-1.266130e-007
-2.443817e-007
-4.438712e-007
-7.617561e-007
-1.236086e-006
-1.894929e-006
-2.733544e-006
-3.677945e-006
-4.541698e-006
-4.993850e-006
-4.561501e-006
-2.684433e-006
1.178543e-006