# vtk DataFile Version 3.0
vtk output
ASCII
DATASET STRUCTURED_POINTS
DIMENSIONS 100 100 1
SPACING 1 1 1
ORIGIN 0 0 0
POINT_DATA 10000
SCALARS SFBox_profile double
LOOKUP_TABLE default 
9.439919e-003
9.439919e-003
9.439920e-003
9.439921e-003
9.439921e-003
9.439920e-003
9.439920e-003
9.439920e-003
9.439920e-003
9.439920e-003
9.439920e-003
9.439920e-003
9.439920e-003
9.439920e-003
9.439920e-003
9.439920e-003
9.439920e-003
9.439920e-003
9.439920e-003
9.439920e-003
9.439920e-003
9.439920e-003
9.439920e-003
9.439920e-003
9.439920e-003
9.439921e-003
9.439921e-003
9.439921e-003
9.439922e-003
9.439922e-003
9.439922e-003
9.439922e-003
9.439923e-003
9.439923e-003
9.439924e-003
9.439924e-003
9.439924e-003
9.439925e-003
9.439925e-003
9.439926e-003
9.439926e-003
9.439927e-003
9.439927e-003
9.439927e-003
9.439928e-003
9.439928e-003
9.439928e-003
9.439929e-003
9.439929e-003
9.439929e-003
9.439929e-003
9.439929e-003
9.439929e-003
9.439929e-003
9.439929e-003
9.439929e-003
9.439928e-003
9.439928e-003
9.439928e-003
9.439927e-003
9.439927e-003
9.439926e-003
9.439926e-003
9.439925e-003
9.439925e-003
9.439924e-003
9.439924e-003
9.439923e-003
9.439923e-003
9.439922e-003
9.439922e-003
9.439922e-003
9.439921e-003
9.439921e-003
9.439921e-003
9.439921e-003
9.439920e-003
9.439920e-003
9.439920e-003
9.439920e-003
9.439920e-003
9.439920e-003
9.439920e-003
9.439920e-003
9.439920e-003
9.439920e-003
9.439920e-003
9.439920e-003
9.439920e-003
9.439920e-003
9.439920e-003
9.439920e-003
9.439920e-003
9.439920e-003
9.439920e-003
9.439920e-003
9.439920e-003
9.439920e-003
9.439920e-003
9.439920e-003
9.439919e-003
9.439919e-003
9.439920e-003
9.439921e-003
9.439921e-003
9.439920e-003
9.439920e-003
9.439920e-003
9.439920e-003
9.439920e-003
9.439920e-003
9.439920e-003
9.439920e-003
9.439920e-003
9.439920e-003
9.439920e-003
9.439920e-003
9.439920e-003
9.439920e-003
9.439920e-003
9.439920e-003
9.439920e-003
9.439920e-003
9.439920e-003
9.439920e-003
9.439921e-003
9.439921e-003
9.439921e-003
9.439922e-003
9.439922e-003
9.439922e-003
9.439922e-003
9.439923e-003
9.439923e-003
9.439924e-003
9.439924e-003
9.439924e-003
9.439925e-003
9.439925e-003
9.439926e-003
9.439926e-003
9.439927e-003
9.439927e-003
9.439927e-003
9.439928e-003
9.439928e-003
9.439928e-003
9.439929e-003
9.439929e-003
9.439929e-003
9.439929e-003
9.439929e-003
9.439929e-003
9.439929e-003
9.439929e-003
9.439929e-003
9.439928e-003
9.439928e-003
9.439928e-003
9.439927e-003
9.439927e-003
9.439926e-003
9.439926e-003
9.439925e-003
9.439925e-003
9.439924e-003
9.439924e-003
9.439923e-003
9.439923e-003
9.439922e-003
9.439922e-003
9.439922e-003
9.439921e-003
9.439921e-003
9.439921e-003
9.439921e-003
9.439920e-003
9.439920e-003
9.439920e-003
9.439920e-003
9.439920e-003
9.439920e-003
9.439920e-003
9.439920e-003
9.439920e-003
9.439920e-003
9.439920e-003
9.439920e-003
9.439920e-003
9.439920e-003
9.439920e-003
9.439920e-003
9.439920e-003
9.439920e-003
9.439920e-003
9.439920e-003
9.439920e-003
9.439920e-003
9.439920e-003
9.439920e-003
9.439920e-003
9.439920e-003
9.439920e-003
9.439920e-003
9.439920e-003
9.439920e-003
9.439920e-003
9.439920e-003
9.439920e-003
9.439920e-003
9.439920e-003
9.439920e-003
9.439920e-003
9.439920e-003
9.439920e-003
9.439920e-003
9.439920e-003
9.439920e-003
9.439920e-003
9.439920e-003
9.439920e-003
9.439920e-003
9.439920e-003
9.439921e-003
9.439921e-003
9.439921e-003
9.439921e-003
9.439921e-003
9.439922e-003
9.439922e-003
9.439923e-003
9.439923e-003
9.439924e-003
9.439925e-003
9.439925e-003
9.439926e-003
9.439927e-003
9.439927e-003
9.439928e-003
9.439929e-003
9.439929e-003
9.439930e-003
9.439931e-003
9.439931e-003
9.439932e-003
9.439932e-003
9.439933e-003
9.439933e-003
9.439933e-003
9.439933e-003
9.439933e-003
9.439933e-003
9.439933e-003
9.439933e-003
9.439933e-003
9.439933e-003
9.439932e-003
9.439932e-003
9.439931e-003
9.439931e-003
9.439930e-003
9.439930e-003
9.439929e-003
9.439928e-003
9.439927e-003
9.439926e-003
9.439926e-003
9.439925e-003
9.439924e-003
9.439923e-003
9.439923e-003
9.439922e-003
9.439922e-003
9.439921e-003
9.439921e-003
9.439921e-003
9.439921e-003
9.439920e-003
9.439920e-003
9.439920e-003
9.439920e-003
9.439920e-003
9.439920e-003
9.439920e-003
9.439920e-003
9.439920e-003
9.439920e-003
9.439920e-003
9.439920e-003
9.439920e-003
9.439920e-003
9.439920e-003
9.439920e-003
9.439920e-003
9.439920e-003
9.439920e-003
9.439920e-003
9.439920e-003
9.439920e-003
9.439920e-003
9.439921e-003
9.439921e-003
9.439920e-003
9.439920e-003
9.439919e-003
9.439920e-003
9.439920e-003
9.439920e-003
9.439920e-003
9.439920e-003
9.439920e-003
9.439920e-003
9.439920e-003
9.439920e-003
9.439920e-003
9.439920e-003
9.439920e-003
9.439920e-003
9.439921e-003
9.439921e-003
9.439921e-003
9.439921e-003
9.439921e-003
9.439921e-003
9.439921e-003
9.439922e-003
9.439922e-003
9.439922e-003
9.439923e-003
9.439924e-003
9.439925e-003
9.439926e-003
9.439927e-003
9.439928e-003
9.439929e-003
9.439930e-003
9.439931e-003
9.439932e-003
9.439934e-003
9.439935e-003
9.439935e-003
9.439936e-003
9.439937e-003
9.439938e-003
9.439939e-003
9.439939e-003
9.439939e-003
9.439940e-003
9.439940e-003
9.439940e-003
9.439940e-003
9.439940e-003
9.439940e-003
9.439940e-003
9.439940e-003
9.439939e-003
9.439939e-003
9.439938e-003
9.439938e-003
9.439937e-003
9.439936e-003
9.439935e-003
9.439934e-003
9.439933e-003
9.439932e-003
9.439931e-003
9.439930e-003
9.439928e-003
9.439927e-003
9.439926e-003
9.439925e-003
9.439924e-003
9.439923e-003
9.439922e-003
9.439922e-003
9.439921e-003
9.439921e-003
9.439921e-003
9.439921e-003
9.439921e-003
9.439921e-003
9.439921e-003
9.439920e-003
9.439920e-003
9.439920e-003
9.439920e-003
9.439920e-003
9.439920e-003
9.439920e-003
9.439920e-003
9.439920e-003
9.439920e-003
9.439920e-003
9.439920e-003
9.439920e-003
9.439920e-003
9.439920e-003
9.439920e-003
9.439920e-003
9.439920e-003
9.439922e-003
9.439921e-003
9.439920e-003
9.439919e-003
9.439919e-003
9.439920e-003
9.439920e-003
9.439920e-003
9.439920e-003
9.439920e-003
9.439920e-003
9.439920e-003
9.439920e-003
9.439920e-003
9.439920e-003
9.439920e-003
9.439920e-003
9.439920e-003
9.439921e-003
9.439921e-003
9.439921e-003
9.439921e-003
9.439922e-003
9.439922e-003
9.439923e-003
9.439924e-003
9.439924e-003
9.439926e-003
9.439927e-003
9.439928e-003
9.439930e-003
9.439931e-003
9.439933e-003
9.439934e-003
9.439936e-003
9.439937e-003
9.439938e-003
9.439940e-003
9.439941e-003
9.439942e-003
9.439943e-003
9.439944e-003
9.439944e-003
9.439945e-003
9.439946e-003
9.439946e-003
9.439946e-003
9.439946e-003
9.439947e-003
9.439947e-003
9.439947e-003
9.439946e-003
9.439946e-003
9.439946e-003
9.439946e-003
9.439945e-003
9.439945e-003
9.439945e-003
9.439944e-003
9.439943e-003
9.439943e-003
9.439942e-003
9.439941e-003
9.439940e-003
9.439938e-003
9.439937e-003
9.439936e-003
9.439934e-003
9.439932e-003
9.439931e-003
9.439929e-003
9.439928e-003
9.439926e-003
9.439925e-003
9.439924e-003
9.439923e-003
9.439922e-003
9.439922e-003
9.439921e-003
9.439921e-003
9.439921e-003
9.439921e-003
9.439920e-003
9.439920e-003
9.439920e-003
9.439920e-003
9.439920e-003
9.439920e-003
9.439920e-003
9.439920e-003
9.439920e-003
9.439920e-003
9.439920e-003
9.439920e-003
9.439920e-003
9.439920e-003
9.439920e-003
9.439920e-003
9.439920e-003
9.439920e-003
9.439921e-003
9.439920e-003
9.439920e-003
9.439920e-003
9.439920e-003
9.439920e-003
9.439920e-003
9.439920e-003
9.439920e-003
9.439920e-003
9.439920e-003
9.439920e-003
9.439920e-003
9.439920e-003
9.439920e-003
9.439920e-003
9.439920e-003
9.439921e-003
9.439921e-003
9.439921e-003
9.439921e-003
9.439922e-003
9.439923e-003
9.439924e-003
9.439926e-003
9.439927e-003
9.439929e-003
9.439931e-003
9.439933e-003
9.439935e-003
9.439937e-003
9.439939e-003
9.439940e-003
9.439942e-003
9.439943e-003
9.439945e-003
9.439945e-003
9.439946e-003
9.439947e-003
9.439947e-003
9.439947e-003
9.439947e-003
9.439946e-003
9.439946e-003
9.439945e-003
9.439945e-003
9.439944e-003
9.439943e-003
9.439943e-003
9.439942e-003
9.439942e-003
9.439941e-003
9.439941e-003
9.439941e-003
9.439941e-003
9.439941e-003
9.439941e-003
9.439942e-003
9.439942e-003
9.439942e-003
9.439943e-003
9.439943e-003
9.439943e-003
9.439943e-003
9.439943e-003
9.439942e-003
9.439942e-003
9.439940e-003
9.439939e-003
9.439937e-003
9.439935e-003
9.439934e-003
9.439932e-003
9.439930e-003
9.439928e-003
9.439926e-003
9.439925e-003
9.439924e-003
9.439922e-003
9.439922e-003
9.439921e-003
9.439921e-003
9.439920e-003
9.439920e-003
9.439920e-003
9.439920e-003
9.439920e-003
9.439920e-003
9.439920e-003
9.439920e-003
9.439920e-003
9.439920e-003
9.439920e-003
9.439920e-003
9.439920e-003
9.439920e-003
9.439920e-003
9.439920e-003
9.439920e-003
9.439920e-003
9.439920e-003
9.439920e-003
9.439920e-003
9.439920e-003
9.439920e-003
9.439920e-003
9.439920e-003
9.439920e-003
9.439920e-003
9.439919e-003
9.439920e-003
9.439920e-003
9.439920e-003
9.439921e-003
9.439921e-003
9.439921e-003
9.439921e-003
9.439921e-003
9.439921e-003
9.439922e-003
9.439923e-003
9.439924e-003
9.439926e-003
9.439928e-003
9.439930e-003
9.439933e-003
9.439935e-003
9.439938e-003
9.439940e-003
9.439942e-003
9.439944e-003
9.439946e-003
9.439946e-003
9.439947e-003
9.439946e-003
9.439945e-003
9.439944e-003
9.439941e-003
9.439938e-003
9.439934e-003
9.439930e-003
9.439926e-003
9.439922e-003
9.439917e-003
9.439913e-003
9.439908e-003
9.439904e-003
9.439901e-003
9.439897e-003
9.439895e-003
9.439893e-003
9.439892e-003
9.439891e-003
9.439891e-003
9.439893e-003
9.439895e-003
9.439898e-003
9.439901e-003
9.439906e-003
9.439910e-003
9.439915e-003
9.439921e-003
9.439926e-003
9.439930e-003
9.439934e-003
9.439938e-003
9.439940e-003
9.439942e-003
9.439942e-003
9.439942e-003
9.439941e-003
9.439940e-003
9.439938e-003
9.439935e-003
9.439933e-003
9.439931e-003
9.439929e-003
9.439927e-003
9.439925e-003
9.439923e-003
9.439922e-003
9.439921e-003
9.439921e-003
9.439921e-003
9.439920e-003
9.439920e-003
9.439920e-003
9.439920e-003
9.439920e-003
9.439920e-003
9.439920e-003
9.439920e-003
9.439920e-003
9.439920e-003
9.439920e-003
9.439920e-003
9.439920e-003
9.439920e-003
9.439920e-003
9.439920e-003
9.439919e-003
9.439919e-003
9.439920e-003
9.439921e-003
9.439921e-003
9.439920e-003
9.439920e-003
9.439920e-003
9.439920e-003
9.439920e-003
9.439920e-003
9.439920e-003
9.439920e-003
9.439921e-003
9.439921e-003
9.439921e-003
9.439921e-003
9.439922e-003
9.439923e-003
9.439925e-003
9.439927e-003
9.439929e-003
9.439931e-003
9.439934e-003
9.439937e-003
9.439940e-003
9.439942e-003
9.439945e-003
9.439946e-003
9.439947e-003
9.439946e-003
9.439944e-003
9.439940e-003
9.439934e-003
9.439926e-003
9.439916e-003
9.439904e-003
9.439890e-003
9.439875e-003
9.439859e-003
9.439843e-003
9.439826e-003
9.439809e-003
9.439792e-003
9.439776e-003
9.439761e-003
9.439747e-003
9.439735e-003
9.439724e-003
9.439716e-003
9.439710e-003
9.439706e-003
9.439706e-003
9.439708e-003
9.439713e-003
9.439721e-003
9.439732e-003
9.439745e-003
9.439761e-003
9.439779e-003
9.439798e-003
9.439818e-003
9.439838e-003
9.439858e-003
9.439877e-003
9.439893e-003
9.439908e-003
9.439920e-003
9.439929e-003
9.439936e-003
9.439940e-003
9.439942e-003
9.439942e-003
9.439941e-003
9.439939e-003
9.439936e-003
9.439934e-003
9.439931e-003
9.439929e-003
9.439927e-003
9.439925e-003
9.439923e-003
9.439922e-003
9.439921e-003
9.439921e-003
9.439921e-003
9.439920e-003
9.439920e-003
9.439920e-003
9.439920e-003
9.439920e-003
9.439920e-003
9.439920e-003
9.439920e-003
9.439920e-003
9.439920e-003
9.439920e-003
9.439920e-003
9.439920e-003
9.439920e-003
9.439919e-003
9.439920e-003
9.439920e-003
9.439921e-003
9.439920e-003
9.439920e-003
9.439920e-003
9.439920e-003
9.439920e-003
9.439920e-003
9.439920e-003
9.439920e-003
9.439920e-003
9.439921e-003
9.439921e-003
9.439922e-003
9.439923e-003
9.439924e-003
9.439926e-003
9.439929e-003
9.439932e-003
9.439935e-003
9.439938e-003
9.439941e-003
9.439944e-003
9.439947e-003
9.439948e-003
9.439946e-003
9.439942e-003
9.439935e-003
9.439924e-003
9.439907e-003
9.439886e-003
9.439859e-003
9.439827e-003
9.439790e-003
9.439749e-003
9.439704e-003
9.439656e-003
9.439606e-003
9.439555e-003
9.439504e-003
9.439454e-003
9.439405e-003
9.439359e-003
9.439316e-003
9.439277e-003
9.439243e-003
9.439214e-003
9.439191e-003
9.439175e-003
9.439166e-003
9.439165e-003
9.439172e-003
9.439187e-003
9.439211e-003
9.439242e-003
9.439282e-003
9.439328e-003
9.439380e-003
9.439437e-003
9.439497e-003
9.439558e-003
9.439618e-003
9.439677e-003
9.439731e-003
9.439780e-003
9.439823e-003
9.439859e-003
9.439888e-003
9.439909e-003
9.439925e-003
9.439935e-003
9.439940e-003
9.439942e-003
9.439942e-003
9.439940e-003
9.439937e-003
9.439934e-003
9.439931e-003
9.439928e-003
9.439926e-003
9.439924e-003
9.439923e-003
9.439922e-003
9.439921e-003
9.439920e-003
9.439920e-003
9.439920e-003
9.439920e-003
9.439920e-003
9.439920e-003
9.439920e-003
9.439920e-003
9.439920e-003
9.439920e-003
9.439920e-003
9.439920e-003
9.439920e-003
9.439920e-003
9.439920e-003
9.439920e-003
9.439920e-003
9.439920e-003
9.439920e-003
9.439919e-003
9.439919e-003
9.439920e-003
9.439920e-003
9.439921e-003
9.439921e-003
9.439921e-003
9.439921e-003
9.439921e-003
9.439922e-003
9.439924e-003
9.439926e-003
9.439928e-003
9.439931e-003
9.439935e-003
9.439938e-003
9.439942e-003
9.439946e-003
9.439948e-003
9.439949e-003
9.439946e-003
9.439938e-003
9.439923e-003
9.439900e-003
9.439867e-003
9.439823e-003
9.439766e-003
9.439696e-003
9.439614e-003
9.439518e-003
9.439411e-003
9.439294e-003
9.439170e-003
9.439039e-003
9.438905e-003
9.438769e-003
9.438635e-003
9.438504e-003
9.438378e-003
9.438260e-003
9.438151e-003
9.438053e-003
9.437968e-003
9.437896e-003
9.437840e-003
9.437801e-003
9.437780e-003
9.437779e-003
9.437798e-003
9.437837e-003
9.437898e-003
9.437979e-003
9.438079e-003
9.438198e-003
9.438333e-003
9.438480e-003
9.438636e-003
9.438797e-003
9.438959e-003
9.439117e-003
9.439266e-003
9.439404e-003
9.439527e-003
9.439633e-003
9.439722e-003
9.439793e-003
9.439847e-003
9.439887e-003
9.439913e-003
9.439930e-003
9.439939e-003
9.439942e-003
9.439942e-003
9.439940e-003
9.439937e-003
9.439933e-003
9.439930e-003
9.439927e-003
9.439925e-003
9.439923e-003
9.439922e-003
9.439921e-003
9.439920e-003
9.439920e-003
9.439920e-003
9.439920e-003
9.439920e-003
9.439920e-003
9.439920e-003
9.439920e-003
9.439920e-003
9.439920e-003
9.439920e-003
9.439920e-003
9.439920e-003
9.439920e-003
9.439920e-003
9.439920e-003
9.439920e-003
9.439920e-003
9.439920e-003
9.439920e-003
9.439920e-003
9.439920e-003
9.439921e-003
9.439921e-003
9.439921e-003
9.439922e-003
9.439923e-003
9.439925e-003
9.439927e-003
9.439930e-003
9.439933e-003
9.439937e-003
9.439942e-003
9.439946e-003
9.439949e-003
9.439950e-003
9.439945e-003
9.439934e-003
9.439912e-003
9.439876e-003
9.439822e-003
9.439745e-003
9.439644e-003
9.439514e-003
9.439354e-003
9.439163e-003
9.438942e-003
9.438693e-003
9.438419e-003
9.438123e-003
9.437811e-003
9.437489e-003
9.437161e-003
9.436833e-003
9.436510e-003
9.436198e-003
9.435901e-003
9.435623e-003
9.435368e-003
9.435139e-003
9.434941e-003
9.434776e-003
9.434648e-003
9.434559e-003
9.434513e-003
9.434512e-003
9.434557e-003
9.434651e-003
9.434794e-003
9.434984e-003
9.435222e-003
9.435502e-003
9.435821e-003
9.436171e-003
9.436545e-003
9.436934e-003
9.437327e-003
9.437715e-003
9.438086e-003
9.438433e-003
9.438747e-003
9.439024e-003
9.439259e-003
9.439453e-003
9.439607e-003
9.439725e-003
9.439810e-003
9.439869e-003
9.439906e-003
9.439928e-003
9.439939e-003
9.439943e-003
9.439942e-003
9.439939e-003
9.439935e-003
9.439932e-003
9.439929e-003
9.439926e-003
9.439924e-003
9.439922e-003
9.439921e-003
9.439921e-003
9.439921e-003
9.439920e-003
9.439920e-003
9.439920e-003
9.439920e-003
9.439920e-003
9.439920e-003
9.439920e-003
9.439920e-003
9.439920e-003
9.439920e-003
9.439921e-003
9.439920e-003
9.439920e-003
9.439920e-003
9.439920e-003
9.439920e-003
9.439920e-003
9.439920e-003
9.439920e-003
9.439920e-003
9.439921e-003
9.439922e-003
9.439923e-003
9.439925e-003
9.439928e-003
9.439932e-003
9.439936e-003
9.439941e-003
9.439945e-003
9.439949e-003
9.439951e-003
9.439947e-003
9.439935e-003
9.439908e-003
9.439860e-003
9.439785e-003
9.439673e-003
9.439517e-003
9.439308e-003
9.439039e-003
9.438704e-003
9.438301e-003
9.437830e-003
9.437293e-003
9.436697e-003
9.436048e-003
9.435357e-003
9.434636e-003
9.433897e-003
9.433152e-003
9.432413e-003
9.431691e-003
9.430997e-003
9.430340e-003
9.429729e-003
9.429172e-003
9.428675e-003
9.428246e-003
9.427890e-003
9.427615e-003
9.427426e-003
9.427330e-003
9.427330e-003
9.427431e-003
9.427638e-003
9.427950e-003
9.428368e-003
9.428889e-003
9.429506e-003
9.430210e-003
9.430987e-003
9.431823e-003
9.432696e-003
9.433587e-003
9.434472e-003
9.435328e-003
9.436136e-003
9.436878e-003
9.437539e-003
9.438111e-003
9.438590e-003
9.438979e-003
9.439284e-003
9.439513e-003
9.439678e-003
9.439791e-003
9.439864e-003
9.439908e-003
9.439931e-003
9.439941e-003
9.439943e-003
9.439941e-003
9.439937e-003
9.439933e-003
9.439930e-003
9.439927e-003
9.439925e-003
9.439923e-003
9.439922e-003
9.439921e-003
9.439920e-003
9.439920e-003
9.439920e-003
9.439920e-003
9.439920e-003
9.439920e-003
9.439920e-003
9.439920e-003
9.439920e-003
9.439920e-003
9.439921e-003
9.439920e-003
9.439919e-003
9.439919e-003
9.439920e-003
9.439921e-003
9.439921e-003
9.439921e-003
9.439920e-003
9.439921e-003
9.439922e-003
9.439924e-003
9.439926e-003
9.439929e-003
9.439933e-003
9.439938e-003
9.439944e-003
9.439949e-003
9.439952e-003
9.439951e-003
9.439940e-003
9.439914e-003
9.439862e-003
9.439773e-003
9.439633e-003
9.439426e-003
9.439132e-003
9.438736e-003
9.438220e-003
9.437570e-003
9.436778e-003
9.435841e-003
9.434759e-003
9.433544e-003
9.432210e-003
9.430776e-003
9.429266e-003
9.427706e-003
9.426122e-003
9.424539e-003
9.422983e-003
9.421475e-003
9.420036e-003
9.418683e-003
9.417433e-003
9.416299e-003
9.415294e-003
9.414430e-003
9.413719e-003
9.413171e-003
9.412798e-003
9.412610e-003
9.412617e-003
9.412828e-003
9.413249e-003
9.413885e-003
9.414736e-003
9.415798e-003
9.417060e-003
9.418507e-003
9.420114e-003
9.421853e-003
9.423685e-003
9.425568e-003
9.427458e-003
9.429306e-003
9.431068e-003
9.432704e-003
9.434181e-003
9.435476e-003
9.436579e-003
9.437487e-003
9.438211e-003
9.438768e-003
9.439181e-003
9.439473e-003
9.439672e-003
9.439799e-003
9.439875e-003
9.439917e-003
9.439936e-003
9.439943e-003
9.439943e-003
9.439939e-003
9.439935e-003
9.439931e-003
9.439928e-003
9.439925e-003
9.439923e-003
9.439922e-003
9.439921e-003
9.439920e-003
9.439920e-003
9.439920e-003
9.439920e-003
9.439920e-003
9.439920e-003
9.439920e-003
9.439920e-003
9.439920e-003
9.439921e-003
9.439920e-003
9.439919e-003
9.439919e-003
9.439920e-003
9.439921e-003
9.439921e-003
9.439921e-003
9.439921e-003
9.439922e-003
9.439924e-003
9.439927e-003
9.439930e-003
9.439935e-003
9.439940e-003
9.439946e-003
9.439952e-003
9.439954e-003
9.439949e-003
9.439928e-003
9.439882e-003
9.439794e-003
9.439644e-003
9.439406e-003
9.439049e-003
9.438539e-003
9.437839e-003
9.436914e-003
9.435732e-003
9.434271e-003
9.432517e-003
9.430470e-003
9.428144e-003
9.425565e-003
9.422772e-003
9.419811e-003
9.416733e-003
9.413592e-003
9.410441e-003
9.407331e-003
9.404306e-003
9.401407e-003
9.398668e-003
9.396118e-003
9.393782e-003
9.391682e-003
9.389836e-003
9.388262e-003
9.386976e-003
9.385995e-003
9.385335e-003
9.385014e-003
9.385047e-003
9.385450e-003
9.386235e-003
9.387412e-003
9.388986e-003
9.390954e-003
9.393304e-003
9.396016e-003
9.399054e-003
9.402371e-003
9.405905e-003
9.409583e-003
9.413319e-003
9.417024e-003
9.420606e-003
9.423979e-003
9.427070e-003
9.429822e-003
9.432198e-003
9.434188e-003
9.435799e-003
9.437060e-003
9.438012e-003
9.438703e-003
9.439186e-003
9.439507e-003
9.439711e-003
9.439832e-003
9.439898e-003
9.439930e-003
9.439942e-003
9.439943e-003
9.439940e-003
9.439936e-003
9.439931e-003
9.439928e-003
9.439925e-003
9.439923e-003
9.439922e-003
9.439921e-003
9.439920e-003
9.439920e-003
9.439920e-003
9.439920e-003
9.439920e-003
9.439920e-003
9.439920e-003
9.439920e-003
9.439920e-003
9.439920e-003
9.439920e-003
9.439920e-003
9.439920e-003
9.439921e-003
9.439921e-003
9.439921e-003
9.439922e-003
9.439924e-003
9.439927e-003
9.439931e-003
9.439936e-003
9.439942e-003
9.439948e-003
9.439954e-003
9.439954e-003
9.439944e-003
9.439911e-003
9.439839e-003
9.439703e-003
9.439469e-003
9.439095e-003
9.438524e-003
9.437694e-003
9.436534e-003
9.434975e-003
9.432952e-003
9.430411e-003
9.427320e-003
9.423673e-003
9.419489e-003
9.414818e-003
9.409733e-003
9.404326e-003
9.398702e-003
9.392968e-003
9.387230e-003
9.381586e-003
9.376121e-003
9.370906e-003
9.365999e-003
9.361447e-003
9.357283e-003
9.353533e-003
9.350218e-003
9.347352e-003
9.344949e-003
9.343022e-003
9.341584e-003
9.340649e-003
9.340234e-003
9.340357e-003
9.341038e-003
9.342298e-003
9.344158e-003
9.346634e-003
9.349741e-003
9.353481e-003
9.357845e-003
9.362808e-003
9.368320e-003
9.374310e-003
9.380676e-003
9.387290e-003
9.393999e-003
9.400637e-003
9.407030e-003
9.413016e-003
9.418456e-003
9.423250e-003
9.427338e-003
9.430709e-003
9.433394e-003
9.435457e-003
9.436984e-003
9.438072e-003
9.438815e-003
9.439300e-003
9.439602e-003
9.439779e-003
9.439875e-003
9.439921e-003
9.439940e-003
9.439944e-003
9.439941e-003
9.439936e-003
9.439932e-003
9.439928e-003
9.439925e-003
9.439923e-003
9.439922e-003
9.439921e-003
9.439920e-003
9.439920e-003
9.439920e-003
9.439920e-003
9.439920e-003
9.439920e-003
9.439920e-003
9.439919e-003
9.439920e-003
9.439920e-003
9.439921e-003
9.439920e-003
9.439920e-003
9.439921e-003
9.439922e-003
9.439924e-003
9.439927e-003
9.439932e-003
9.439937e-003
9.439943e-003
9.439950e-003
9.439956e-003
9.439955e-003
9.439938e-003
9.439891e-003
9.439789e-003
9.439594e-003
9.439256e-003
9.438704e-003
9.437848e-003
9.436577e-003
9.434769e-003
9.432291e-003
9.429021e-003
9.424855e-003
9.419724e-003
9.413612e-003
9.406561e-003
9.398674e-003
9.390106e-003
9.381054e-003
9.371739e-003
9.362383e-003
9.353197e-003
9.344364e-003
9.336033e-003
9.328313e-003
9.321275e-003
9.314961e-003
9.309382e-003
9.304534e-003
9.300395e-003
9.296937e-003
9.294126e-003
9.291927e-003
9.290303e-003
9.289222e-003
9.288657e-003
9.288588e-003
9.289007e-003
9.289917e-003
9.291338e-003
9.293308e-003
9.295878e-003
9.299117e-003
9.303106e-003
9.307928e-003
9.313658e-003
9.320351e-003
9.328025e-003
9.336642e-003
9.346094e-003
9.356199e-003
9.366701e-003
9.377287e-003
9.387619e-003
9.397366e-003
9.406240e-003
9.414031e-003
9.420623e-003
9.425993e-003
9.430206e-003
9.433385e-003
9.435692e-003
9.437301e-003
9.438376e-003
9.439064e-003
9.439483e-003
9.439723e-003
9.439851e-003
9.439913e-003
9.439938e-003
9.439944e-003
9.439942e-003
9.439937e-003
9.439932e-003
9.439928e-003
9.439925e-003
9.439923e-003
9.439922e-003
9.439921e-003
9.439920e-003
9.439920e-003
9.439920e-003
9.439920e-003
9.439920e-003
9.439920e-003
9.439919e-003
9.439920e-003
9.439921e-003
9.439921e-003
9.439921e-003
9.439921e-003
9.439922e-003
9.439924e-003
9.439928e-003
9.439932e-003
9.439937e-003
9.439944e-003
9.439952e-003
9.439957e-003
9.439955e-003
9.439933e-003
9.439871e-003
9.439737e-003
9.439479e-003
9.439022e-003
9.438258e-003
9.437048e-003
9.435214e-003
9.432551e-003
9.428833e-003
9.423841e-003
9.417390e-003
9.409366e-003
9.399759e-003
9.388686e-003
9.376404e-003
9.363289e-003
9.349810e-003
9.336478e-003
9.323797e-003
9.312212e-003
9.302078e-003
9.293635e-003
9.287002e-003
9.282191e-003
9.279116e-003
9.277627e-003
9.277524e-003
9.278585e-003
9.280573e-003
9.283252e-003
9.286384e-003
9.289736e-003
9.293082e-003
9.296201e-003
9.298892e-003
9.300972e-003
9.302296e-003
9.302766e-003
9.302346e-003
9.301078e-003
9.299093e-003
9.296623e-003
9.293999e-003
9.291646e-003
9.290058e-003
9.289763e-003
9.291268e-003
9.294993e-003
9.301200e-003
9.309936e-003
9.320996e-003
9.333929e-003
9.348085e-003
9.362698e-003
9.376991e-003
9.390280e-003
9.402052e-003
9.412006e-003
9.420054e-003
9.426284e-003
9.430907e-003
9.434196e-003
9.436439e-003
9.437905e-003
9.438821e-003
9.439366e-003
9.439671e-003
9.439831e-003
9.439906e-003
9.439936e-003
9.439944e-003
9.439942e-003
9.439937e-003
9.439932e-003
9.439928e-003
9.439925e-003
9.439923e-003
9.439921e-003
9.439920e-003
9.439920e-003
9.439920e-003
9.439920e-003
9.439920e-003
9.439920e-003
9.439919e-003
9.439920e-003
9.439921e-003
9.439921e-003
9.439921e-003
9.439922e-003
9.439924e-003
9.439927e-003
9.439932e-003
9.439937e-003
9.439944e-003
9.439952e-003
9.439958e-003
9.439955e-003
9.439930e-003
9.439856e-003
9.439693e-003
9.439372e-003
9.438790e-003
9.437796e-003
9.436184e-003
9.433686e-003
9.429978e-003
9.424700e-003
9.417493e-003
9.408061e-003
9.396249e-003
9.382126e-003
9.366057e-003
9.348729e-003
9.331134e-003
9.314487e-003
9.300099e-003
9.289230e-003
9.282944e-003
9.282001e-003
9.286796e-003
9.297347e-003
9.313324e-003
9.334119e-003
9.358922e-003
9.386808e-003
9.416806e-003
9.447951e-003
9.479315e-003
9.510012e-003
9.539196e-003
9.566048e-003
9.589769e-003
9.609581e-003
9.624738e-003
9.634547e-003
9.638405e-003
9.635839e-003
9.626565e-003
9.610540e-003
9.588021e-003
9.559619e-003
9.526333e-003
9.489560e-003
9.451071e-003
9.412922e-003
9.377319e-003
9.346413e-003
9.322062e-003
9.305589e-003
9.297589e-003
9.297833e-003
9.305305e-003
9.318365e-003
9.335024e-003
9.353252e-003
9.371262e-003
9.387711e-003
9.401777e-003
9.413131e-003
9.421831e-003
9.428182e-003
9.432612e-003
9.435567e-003
9.437453e-003
9.438601e-003
9.439267e-003
9.439631e-003
9.439817e-003
9.439903e-003
9.439936e-003
9.439944e-003
9.439941e-003
9.439936e-003
9.439931e-003
9.439927e-003
9.439924e-003
9.439922e-003
9.439921e-003
9.439921e-003
9.439921e-003
9.439920e-003
9.439920e-003
9.439920e-003
9.439919e-003
9.439920e-003
9.439921e-003
9.439922e-003
9.439922e-003
9.439924e-003
9.439927e-003
9.439931e-003
9.439937e-003
9.439945e-003
9.439953e-003
9.439959e-003
9.439956e-003
9.439929e-003
9.439848e-003
9.439662e-003
9.439288e-003
9.438591e-003
9.437372e-003
9.435344e-003
9.432127e-003
9.427243e-003
9.420149e-003
9.410298e-003
9.397261e-003
9.380896e-003
9.361544e-003
9.340226e-003
9.318758e-003
9.299742e-003
9.286390e-003
9.282194e-003
9.290508e-003
9.314127e-003
9.354940e-003
9.413732e-003
9.490137e-003
9.582739e-003
9.689267e-003
9.806858e-003
9.932322e-003
1.006238e-002
1.019387e-002
1.032380e-002
1.044946e-002
1.056836e-002
1.067814e-002
1.077660e-002
1.086155e-002
1.093085e-002
1.098241e-002
1.101420e-002
1.102440e-002
1.101147e-002
1.097432e-002
1.091245e-002
1.082616e-002
1.071673e-002
1.058656e-002
1.043932e-002
1.027991e-002
1.011439e-002
9.949663e-003
9.792989e-003
9.651294e-003
9.530430e-003
9.434465e-003
9.365168e-003
9.321837e-003
9.301517e-003
9.299598e-003
9.310643e-003
9.329267e-003
9.350857e-003
9.372006e-003
9.390610e-003
9.405715e-003
9.417202e-003
9.425461e-003
9.431106e-003
9.434786e-003
9.437076e-003
9.438435e-003
9.439202e-003
9.439611e-003
9.439813e-003
9.439903e-003
9.439936e-003
9.439943e-003
9.439941e-003
9.439936e-003
9.439931e-003
9.439927e-003
9.439924e-003
9.439922e-003
9.439921e-003
9.439921e-003
9.439920e-003
9.439920e-003
9.439920e-003
9.439920e-003
9.439921e-003
9.439921e-003
9.439922e-003
9.439923e-003
9.439926e-003
9.439930e-003
9.439936e-003
9.439944e-003
9.439953e-003
9.439960e-003
9.439958e-003
9.439932e-003
9.439849e-003
9.439652e-003
9.439242e-003
9.438456e-003
9.437043e-003
9.434634e-003
9.430714e-003
9.424621e-003
9.415582e-003
9.402818e-003
9.385758e-003
9.364387e-003
9.339706e-003
9.314226e-003
9.292361e-003
9.280535e-003
9.286865e-003
9.320398e-003
9.390008e-003
9.503193e-003
9.665038e-003
9.877541e-003
1.013943e-002
1.044640e-002
1.079170e-002
1.116689e-002
1.156264e-002
1.196943e-002
1.237818e-002
1.278057e-002
1.316922e-002
1.353770e-002
1.388031e-002
1.419185e-002
1.446745e-002
1.470229e-002
1.489157e-002
1.503047e-002
1.511420e-002
1.513824e-002
1.509851e-002
1.499176e-002
1.481595e-002
1.457072e-002
1.425788e-002
1.388192e-002
1.345048e-002
1.297464e-002
1.246893e-002
1.195090e-002
1.144017e-002
1.095689e-002
1.051979e-002
1.014410e-002
9.839693e-003
9.609943e-003
9.451572e-003
9.355623e-003
9.309328e-003
9.298453e-003
9.309529e-003
9.331482e-003
9.356399e-003
9.379490e-003
9.398493e-003
9.412871e-003
9.423051e-003
9.429865e-003
9.434201e-003
9.436830e-003
9.438349e-003
9.439182e-003
9.439612e-003