# vtk DataFile Version 3.0
vtk output
ASCII
DATASET STRUCTURED_POINTS
DIMENSIONS 100 100 1
SPACING 1 1 1
ORIGIN 0 0 0
POINT_DATA 10000
SCALARS SFBox_profile double
LOOKUP_TABLE default 
0.000000e+000
0.000000e+000
0.000000e+000
0.000000e+000
0.000000e+000
0.000000e+000
0.000000e+000
0.000000e+000
0.000000e+000
0.000000e+000
0.000000e+000
0.000000e+000
0.000000e+000
0.000000e+000
0.000000e+000
0.000000e+000
0.000000e+000
0.000000e+000
0.000000e+000
0.000000e+000
0.000000e+000
0.000000e+000
0.000000e+000
0.000000e+000
0.000000e+000
0.000000e+000
0.000000e+000
0.000000e+000
0.000000e+000
0.000000e+000
0.000000e+000
0.000000e+000
0.000000e+000
0.000000e+000
0.000000e+000
0.000000e+000
0.000000e+000
0.000000e+000
0.000000e+000
0.000000e+000
0.000000e+000
0.000000e+000
0.000000e+000
0.000000e+000
0.000000e+000
0.000000e+000
0.000000e+000
0.000000e+000
0.000000e+000
0.000000e+000
0.000000e+000
0.000000e+000
0.000000e+000
0.000000e+000
0.000000e+000
0.000000e+000
0.000000e+000
0.000000e+000
0.000000e+000
0.000000e+000
0.000000e+000
0.000000e+000
0.000000e+000
0.000000e+000
0.000000e+000
0.000000e+000
0.000000e+000
0.000000e+000
0.000000e+000
0.000000e+000
0.000000e+000
0.000000e+000
0.000000e+000
0.000000e+000
0.000000e+000
0.000000e+000
0.000000e+000
0.000000e+000
0.000000e+000
0.000000e+000
0.000000e+000
0.000000e+000
0.000000e+000
0.000000e+000
0.000000e+000
0.000000e+000
0.000000e+000
0.000000e+000
0.000000e+000
0.000000e+000
0.000000e+000
0.000000e+000
0.000000e+000
0.000000e+000
0.000000e+000
0.000000e+000
0.000000e+000
0.000000e+000
0.000000e+000
0.000000e+000
-2.445086e-011
-6.034816e-011
-1.728957e-010
-3.382754e-010
-3.977293e-010
-1.418289e-010
4.790085e-010
1.193216e-009
1.483138e-009
9.200180e-010
-4.497575e-010
-1.984211e-009
-2.763865e-009
-2.191115e-009
-4.484649e-010
1.560985e-009
2.796033e-009
2.765833e-009
1.795009e-009
6.642301e-010
-5.766506e-011
-4.140645e-010
-8.630218e-010
-1.698588e-009
-2.658647e-009
-3.104899e-009
-2.607727e-009
-1.371463e-009
-8.371774e-011
6.714171e-010
8.758751e-010
9.864129e-010
1.410725e-009
2.088321e-009
2.581621e-009
2.550171e-009
2.101232e-009
1.665652e-009
1.556267e-009
1.683918e-009
1.710713e-009
1.443117e-009
1.029678e-009
7.703087e-010
7.778298e-010
8.753948e-010
8.248880e-010
6.046083e-010
4.161116e-010
4.284019e-010
5.730014e-010
6.335477e-010
5.180379e-010
3.821539e-010
4.482385e-010
7.304696e-010
9.994511e-010
1.045143e-009
9.383928e-010
9.721536e-010
1.323782e-009
1.814813e-009
2.059577e-009
1.863932e-009
1.437495e-009
1.166021e-009
1.172362e-009
1.147227e-009
6.609796e-010
-3.500943e-010
-1.437898e-009
-2.013650e-009
-1.874902e-009
-1.356533e-009
-9.548837e-010
-8.143797e-010
-6.073451e-010
6.484486e-011
1.156017e-009
2.078315e-009
2.152947e-009
1.205569e-009
-2.396689e-010
-1.343849e-009
-1.574068e-009
-1.035278e-009
-2.754296e-010
2.085516e-010
3.180832e-010
2.959117e-010
3.883169e-010
5.725575e-010
5.908832e-010
2.326356e-010
-4.107842e-010
-9.546445e-010
-9.950569e-010
-4.288529e-010
4.353223e-010
1.066231e-009
3.731832e-011
1.029896e-010
1.428529e-010
6.652381e-011
-1.232987e-010
-3.106279e-010
-3.423967e-010
-1.514466e-010
1.693184e-010
4.136856e-010
4.120605e-010
1.727346e-010
-1.111041e-010
-2.153207e-010
-8.312544e-011
1.090528e-010
9.808556e-011
-2.160107e-010
-6.404265e-010
-8.201536e-010
-5.381437e-010
7.872107e-011
6.487728e-010
8.558954e-010
7.117417e-010
5.122588e-010
5.283496e-010
7.314788e-010
8.257698e-010
5.553931e-010
-2.231683e-011
-5.758973e-010
-8.123649e-010
-7.457742e-010
-6.524192e-010
-7.694936e-010
-1.055907e-009
-1.257531e-009
-1.191254e-009
-9.364961e-010
-7.370962e-010
-7.364921e-010
-8.413832e-010
-8.518775e-010
-6.959016e-010
-5.005521e-010
-4.319118e-010
-5.011349e-010
-5.631208e-010
-5.003503e-010
-3.668681e-010
-3.199221e-010
-4.236309e-010
-5.641706e-010
-5.839724e-010
-4.780070e-010
-4.129943e-010
-5.342277e-010
-7.804296e-010
-9.312307e-010
-8.482353e-010
-6.384953e-010
-5.429633e-010
-6.605933e-010
-8.154220e-010
-7.287265e-010
-3.224552e-010
1.751960e-010
4.468803e-010
4.029497e-010
2.618563e-010
3.055218e-010
5.662063e-010
7.762447e-010
6.384818e-010
1.423437e-010
-3.966352e-010
-6.152926e-010
-4.252396e-010
-7.090989e-011
1.175094e-010
2.583072e-011
-1.709731e-010
-2.107682e-010
-8.302349e-012
2.694656e-010
3.703975e-010
1.941553e-010
-1.199727e-010
-3.203746e-010
-2.583281e-010
-2.558293e-012
2.314216e-010
2.620588e-010
7.933580e-011
-1.617762e-010
-2.714329e-010
-1.695154e-010
6.160082e-011
2.457592e-010
1.803247e-011
1.579909e-010
3.567774e-010
4.627135e-010
3.019717e-010
-2.001536e-010
-8.931565e-010
-1.397707e-009
-1.294157e-009
-4.188126e-010
9.416093e-010
2.136832e-009
2.509404e-009
1.795982e-009
2.926749e-010
-1.333876e-009
-2.446744e-009
-2.759249e-009
-2.371882e-009
-1.563842e-009
-5.598130e-010
5.367797e-010
1.644098e-009
2.594166e-009
3.155716e-009
3.169956e-009
2.660276e-009
1.809423e-009
8.347971e-010
-1.173193e-010
-9.805205e-010
-1.713694e-009
-2.269001e-009
-2.615592e-009
-2.772602e-009
-2.796591e-009
-2.733094e-009
-2.591171e-009
-2.370489e-009
-2.101968e-009
-1.844673e-009
-1.638219e-009
-1.469522e-009
-1.298250e-009
-1.112637e-009
-9.476081e-010
-8.423118e-010
-7.899007e-010
-7.437696e-010
-6.748751e-010
-6.095597e-010
-5.991429e-010
-6.569244e-010
-7.409011e-010
-8.061991e-010
-8.645592e-010
-9.762438e-010
-1.179901e-009
-1.442165e-009
-1.687302e-009
-1.871832e-009
-2.014617e-009
-2.146100e-009
-2.238108e-009
-2.200256e-009
-1.950975e-009
-1.484561e-009
-8.637287e-010
-1.580097e-010
5.895363e-010
1.326753e-009
1.940993e-009
2.273474e-009
2.206552e-009
1.742015e-009
9.933550e-010
1.103863e-010
-7.729150e-010
-1.516175e-009
-1.932292e-009
-1.829306e-009
-1.149691e-009
-9.224960e-011
9.253296e-010
1.480849e-009
1.392880e-009
8.092198e-010
7.722493e-011
-4.877079e-010
-7.530723e-010
-7.527502e-010
-5.706565e-010
-2.593573e-010
1.396679e-010
5.279221e-010
7.389527e-010
6.279997e-010
1.972853e-010
-3.580744e-010
-7.432723e-010
-9.535764e-011
-5.302733e-011
1.093882e-010
3.869150e-010
5.775445e-010
3.859921e-010
-2.941394e-010
-1.163113e-009
-1.608928e-009
-1.123217e-009
2.470193e-010
1.795427e-009
2.558185e-009
1.977906e-009
3.333154e-010
-1.423968e-009
-2.329560e-009
-2.058943e-009
-1.064768e-009
-1.182049e-010
3.288572e-010
4.153370e-010
5.848661e-010
1.059815e-009
1.588067e-009
1.686360e-009
1.120613e-009
1.506651e-010
-6.854447e-010
-1.024353e-009
-9.360923e-010
-7.733589e-010
-7.979192e-010
-9.578643e-010
-1.001717e-009
-7.712233e-010
-3.637493e-010
-2.234469e-011
1.039467e-010
7.841831e-011
7.500542e-011
1.877264e-010
3.519091e-010
4.384255e-010
4.000349e-010
3.126260e-010
2.823681e-010
3.323789e-010
3.912619e-010
3.852834e-010
3.240472e-010
2.844112e-010
3.156193e-010
3.773437e-010
3.839145e-010
3.052596e-010
2.057143e-010
1.682510e-010
1.853389e-010
1.472384e-010
-4.270805e-011
-3.454124e-010
-6.019245e-010
-6.901484e-010
-6.580285e-010
-6.725469e-010
-8.172278e-010
-9.540119e-010
-8.241886e-010
-3.150485e-010
3.794249e-010
8.940945e-010
1.013066e-009
8.532846e-010
7.106615e-010
7.167030e-010
6.696326e-010
2.443026e-010
-6.065678e-010
-1.472322e-009
-1.750235e-009
-1.150674e-009
1.645589e-011
1.049184e-009
1.383216e-009
9.863917e-010
2.976620e-010
-1.930062e-010
-3.267824e-010
-3.008524e-010
-3.701876e-010
-5.463969e-010
-5.825547e-010
-2.430110e-010
4.093071e-010
9.857376e-010
1.047138e-009
4.601148e-010
-4.587402e-010
-1.136175e-009
-8.505018e-011
-3.072096e-010
-4.463268e-010
-2.105325e-010
3.754284e-010
9.295697e-010
9.900175e-010
4.018707e-010
-5.073675e-010
-1.137894e-009
-1.075710e-009
-4.318196e-010
2.409083e-010
4.169250e-010
6.794419e-011
-2.926068e-010
-6.996248e-011
8.281662e-010
1.818624e-009
2.079776e-009
1.244460e-009
-2.664542e-010
-1.583177e-009
-2.101174e-009
-1.923905e-009
-1.644392e-009
-1.703308e-009
-1.955067e-009
-1.850376e-009
-1.028227e-009
2.847590e-010
1.458322e-009
2.025602e-009
2.064336e-009
2.036577e-009
2.286492e-009
2.717814e-009
2.950903e-009
2.753103e-009
2.278747e-009
1.891048e-009
1.787801e-009
1.835421e-009
1.762420e-009
1.472961e-009
1.135914e-009
9.754689e-010
1.018776e-009
1.083983e-009
1.006063e-009
8.302282e-010
7.510966e-010
8.752092e-010
1.089415e-009
1.193728e-009
1.146230e-009
1.128106e-009
1.337050e-009
1.736602e-009
2.058750e-009
2.080665e-009
1.874240e-009
1.731922e-009
1.823682e-009
1.958753e-009
1.742215e-009
9.935079e-010
-1.508512e-011
-7.801504e-010
-1.043617e-009
-1.026277e-009
-1.155387e-009
-1.558271e-009
-1.863208e-009
-1.549168e-009
-5.128838e-010
7.279588e-010
1.431013e-009
1.263131e-009
5.668058e-010
1.103997e-011
-2.585275e-011
2.487931e-010
3.246395e-010
-5.933008e-011
-6.394693e-010
-8.814713e-010
-5.012939e-010
2.473786e-010
7.803531e-010
6.847660e-010
6.462146e-011
-5.589098e-010
-6.858208e-010
-2.359016e-010
4.087008e-010
7.259637e-010
4.669559e-010
-1.619394e-010
-6.717500e-010
1.867068e-010
-2.346544e-010
-7.153492e-010
-8.065711e-010
-2.820334e-010
6.717213e-010
1.521935e-009
1.704529e-009
1.000125e-009
-2.917377e-010
-1.524979e-009
-2.116737e-009
-1.890964e-009
-1.098736e-009
-1.321691e-010
7.833270e-010
1.630293e-009
2.368952e-009
2.729114e-009
2.316154e-009
9.920002e-010
-8.427960e-010
-2.409659e-009
-3.087140e-009
-2.855184e-009
-2.225849e-009
-1.718608e-009
-1.389257e-009
-8.716819e-010
1.289147e-010
1.417435e-009
2.413392e-009
2.679717e-009
2.330598e-009
1.897906e-009
1.800355e-009
1.966025e-009
1.981491e-009
1.579275e-009
9.333584e-010
4.644341e-010
3.928890e-010
5.323355e-010
5.289215e-010
2.578670e-010
-6.453268e-011
-1.560640e-010
1.623872e-012
1.546399e-010
8.424600e-011
-1.372198e-010
-2.396354e-010
-8.280298e-011
1.716249e-010
2.525794e-010
1.150647e-010
1.929187e-011
2.432529e-010
7.497884e-010
1.201149e-009
1.326825e-009
1.235283e-009
1.299251e-009
1.715684e-009
2.224570e-009
2.322152e-009
1.766620e-009
8.369748e-010
5.458125e-011
-3.438804e-010
-6.141954e-010
-1.160300e-009
-2.001940e-009
-2.634325e-009
-2.457753e-009
-1.359062e-009
1.360197e-010
1.286587e-009
1.713458e-009
1.584704e-009
1.290389e-009
9.966024e-010
5.451710e-010
-2.346580e-010
-1.172854e-009
-1.764997e-009
-1.562494e-009
-5.842632e-010
6.344637e-010
1.405560e-009
1.357940e-009
6.468711e-010
-2.193403e-010
-7.543859e-010
-7.782296e-010
-4.426940e-010
-4.442897e-011
1.992843e-010
2.571572e-010
2.335938e-010
4.372340e-010
1.911487e-010
-2.478336e-010
-6.983793e-010
-8.460021e-010
-4.374077e-010
4.482311e-010
1.322917e-009
1.562903e-009
8.763831e-010
-4.105040e-010
-1.526734e-009
-1.794625e-009
-1.112926e-009
8.057133e-012
8.726997e-010
1.107614e-009
8.285486e-010
3.881294e-010
1.389313e-011
-3.012356e-010
-6.081254e-010
-7.946769e-010
-6.397067e-010
-7.670804e-011
6.516488e-010
1.162178e-009
1.268526e-009
1.122460e-009
9.972081e-010
9.519389e-010
7.601169e-010
1.926944e-010
-6.615224e-010
-1.414673e-009
-1.741532e-009
-1.696232e-009
-1.632794e-009
-1.812589e-009
-2.129625e-009
-2.251834e-009
-2.010666e-009
-1.597550e-009
-1.351920e-009
-1.390543e-009
-1.501166e-009
-1.411990e-009
-1.115989e-009
-8.741186e-010
-9.020082e-010
-1.114440e-009
-1.230082e-009
-1.111696e-009
-9.362354e-010
-9.868761e-010
-1.306603e-009
-1.624566e-009
-1.653670e-009
-1.419700e-009
-1.232929e-009
-1.320792e-009
-1.539197e-009
-1.504366e-009
-1.012556e-009
-2.805399e-010
2.680267e-010
4.378340e-010
4.366996e-010
5.992110e-010
9.728685e-010
1.232029e-009
1.018796e-009
3.397077e-010
-4.075614e-010
-7.957162e-010
-7.274382e-010
-4.349370e-010
-1.714840e-010
3.457239e-011
3.048074e-010
6.437460e-010
8.246204e-010
5.861707e-010
-6.377193e-011
-7.732833e-010
-1.099954e-009
-8.569339e-010
-2.332666e-010
3.932593e-010
7.442194e-010
7.713110e-010
5.709514e-010
2.374845e-010
-1.762075e-010
-5.850764e-010
-8.205968e-010
-7.077314e-010
-2.228868e-010
4.222334e-010
8.770512e-010
1.634805e-010
5.211818e-010
7.147725e-010
2.832410e-010
-6.633029e-010
-1.459821e-009
-1.430244e-009
-4.849000e-010
7.619936e-010
1.476350e-009
1.280782e-009
5.331084e-010
-4.046307e-011
-2.656731e-011
3.027512e-010
2.731062e-010
-5.130325e-010
-1.735795e-009
-2.572791e-009
-2.373340e-009
-1.173553e-009
3.938660e-010
1.655799e-009
2.368947e-009
2.704693e-009
2.871008e-009
2.827175e-009
2.372323e-009
1.445160e-009
2.625425e-010
-8.497621e-010
-1.716874e-009
-2.370894e-009
-2.879488e-009
-3.193503e-009
-3.208086e-009
-2.941991e-009
-2.582809e-009
-2.316392e-009
-2.139858e-009
-1.893011e-009
-1.480794e-009
-1.019356e-009
-7.217948e-010
-6.540901e-010
-6.560742e-010
-5.298487e-010
-2.749858e-010
-8.775835e-011
-1.221102e-010
-2.989487e-010
-3.968542e-010
-3.199356e-010
-2.213676e-010
-3.291999e-010
-6.774886e-010
-1.063146e-009
-1.282457e-009
-1.366968e-009
-1.536672e-009
-1.923088e-009
-2.387747e-009
-2.648451e-009
-2.563238e-009
-2.242152e-009
-1.869598e-009
-1.465382e-009
-8.771869e-010
-1.021374e-011
9.879332e-010
1.812246e-009
2.254138e-009
2.326598e-009
2.132680e-009
1.673006e-009
8.638656e-010
-2.349848e-010
-1.275829e-009
-1.799122e-009
-1.604428e-009
-9.358577e-010
-2.665916e-010
1.121559e-010
2.801148e-010
4.760662e-010
7.402251e-010
8.210403e-010
4.623801e-010
-2.383593e-010
-8.090099e-010
-7.886251e-010
-1.662832e-010
5.593646e-010
7.837888e-010
3.141367e-010
-4.578702e-010
-8.808575e-010
-5.876580e-010
2.001542e-010
8.548686e-010
-6.733934e-010
3.003357e-010
1.324124e-009
1.402966e-009
2.847741e-010
-1.326448e-009
-2.306098e-009
-1.960440e-009
-5.267383e-010
1.054694e-009
1.884941e-009
1.743226e-009
1.103523e-009
5.708740e-010
2.920758e-010
-9.809223e-011
-9.590588e-010
-2.091528e-009
-2.744607e-009
-2.237436e-009
-6.232032e-010
1.257442e-009
2.415861e-009
2.463992e-009
1.794677e-009
1.084720e-009
6.571343e-010
3.146072e-010
-2.754451e-010
-1.118370e-009
-1.840231e-009
-2.050841e-009
-1.700848e-009
-1.076721e-009
-4.983870e-010
-6.934918e-011
2.977194e-010
6.877657e-010
1.072795e-009
1.373478e-009
1.563975e-009
1.678318e-009
1.739670e-009
1.733187e-009
1.659505e-009
1.576895e-009
1.553071e-009
1.582177e-009
1.585913e-009
1.513182e-009
1.415367e-009
1.393216e-009
1.472974e-009
1.566328e-009
1.568585e-009
1.474583e-009
1.367448e-009
1.297091e-009
1.206568e-009
1.000876e-009
6.655796e-010
2.777960e-010
-1.013304e-010
-4.975529e-010
-9.455485e-010
-1.358327e-009
-1.538753e-009
-1.362638e-009
-9.251111e-010
-4.485726e-010
-3.283846e-011
4.470494e-010
1.129480e-009
1.857893e-009
2.166434e-009
1.665068e-009
4.660378e-010
-8.159141e-010
-1.543744e-009
-1.560742e-009
-1.214446e-009
-8.984977e-010
-6.208330e-010
-7.377575e-011
8.710263e-010
1.802631e-009
1.995536e-009
1.067814e-009
-5.539425e-010
-1.850362e-009
-1.970292e-009
-8.948070e-010
5.591984e-010
1.387102e-009
1.148775e-009
2.269180e-010
-5.673731e-010
-6.727353e-010
-1.813372e-010
3.245918e-010
-1.285604e-009
-3.505743e-010
8.557521e-010
1.509881e-009
1.160038e-009
2.440852e-011
-1.149421e-009
-1.596009e-009
-1.070910e-009
-1.334231e-011
8.107771e-010
9.115518e-010
4.253291e-010
-8.258671e-011
-1.693101e-010
1.043896e-010
3.218325e-010
2.152853e-010
-1.725343e-011
5.925574e-011
5.702051e-010
1.067415e-009
8.861331e-010
-1.936863e-010
-1.654687e-009
-2.645101e-009
-2.698487e-009
-2.066888e-009
-1.366496e-009
-9.356186e-010
-5.657007e-010
1.644260e-010
1.355855e-009
2.629675e-009
3.474799e-009
3.707012e-009
3.573868e-009
3.451197e-009
3.486414e-009
3.536204e-009
3.395705e-009
3.034707e-009
2.611501e-009
2.301751e-009
2.147782e-009
2.063275e-009
1.949472e-009
1.790263e-009
1.648808e-009
1.593108e-009
1.629914e-009
1.704017e-009
1.759389e-009
1.803365e-009
1.905096e-009
2.116913e-009
2.395278e-009
2.620813e-009
2.718984e-009
2.750853e-009
2.843710e-009
3.006614e-009
3.042865e-009
2.705094e-009
1.964778e-009
1.092086e-009
4.115210e-010
-2.938476e-011
-4.940379e-010
-1.208163e-009
-1.993897e-009
-2.330561e-009
-1.847683e-009
-7.543284e-010
2.783598e-010
7.041213e-010
5.660560e-010
3.570296e-010
4.347586e-010
6.303338e-010
4.783384e-010
-1.835127e-010
-9.111845e-010
-1.012488e-009
-2.349431e-010
9.075596e-010
1.516750e-009
1.064234e-009
-1.614169e-010
-1.292785e-009
-1.569589e-009
-8.851863e-010
2.127707e-010
9.932394e-010
1.065867e-009
5.725794e-010
-2.872727e-011
-3.565333e-010
-3.556989e-010
-2.435176e-010
-6.848385e-010
-7.542700e-010
-5.552250e-010
1.211557e-010
1.002184e-009
1.491181e-009
1.197979e-009
3.117439e-010
-5.635182e-010
-9.516588e-010
-8.881104e-010
-7.738313e-010
-8.711992e-010
-9.800150e-010
-6.428470e-010
3.283534e-010
1.560526e-009
2.383453e-009
2.389054e-009
1.717581e-009
8.046516e-010
-9.167800e-011
-1.044402e-009
-2.143924e-009
-3.128385e-009
-3.450567e-009
-2.771558e-009
-1.352924e-009
1.122004e-010
1.089543e-009
1.611487e-009
2.091255e-009
2.771879e-009
3.417657e-009
3.568071e-009
3.054547e-009
2.211725e-009
1.567381e-009
1.355716e-009
1.359522e-009
1.208996e-009
7.884013e-010
3.291830e-010
1.330280e-010
2.504790e-010
4.491279e-010
4.739665e-010
3.040965e-010
1.421329e-010
1.702591e-010
3.465420e-010
4.580274e-010
3.669335e-010
1.784924e-010
1.403680e-010
3.736670e-010
7.304184e-010
9.514275e-010
9.692188e-010
1.015469e-009
1.380266e-009
2.059338e-009
2.686704e-009
2.866790e-009
2.569942e-009
2.146863e-009
1.915774e-009
1.767824e-009
1.255920e-009
1.137136e-010
-1.348970e-009
-2.432701e-009
-2.655729e-009
-2.152855e-009
-1.453304e-009
-8.996643e-010
-3.548943e-010
4.909632e-010
1.582504e-009
2.361946e-009
2.226078e-009
1.119259e-009
-3.460976e-010
-1.359728e-009
-1.511518e-009
-9.849748e-010
-2.660086e-010
2.663255e-010
4.994830e-010
4.786974e-010
2.706956e-010
-3.834219e-011
-2.902140e-010
-3.062688e-010
-4.360359e-011
3.154609e-010
4.758667e-010
2.731971e-010
-1.702365e-010
-5.276943e-010
1.128790e-009
-3.843344e-010
-1.892674e-009
-1.889534e-009
-2.137839e-010
1.859330e-009
2.760714e-009
1.925833e-009
1.314746e-010
-1.308940e-009
-1.665667e-009
-1.223278e-009
-7.495095e-010
-6.367481e-010
-5.832015e-010
-6.770658e-011
9.455694e-010
1.841205e-009
1.903424e-009
1.006855e-009
-2.605370e-010
-1.138907e-009
-1.317537e-009
-1.024870e-009
-5.967966e-010
-8.295534e-011
6.698676e-010
1.626755e-009
2.401909e-009
2.565834e-009
2.079392e-009
1.339634e-009
7.666346e-010
3.943002e-010
-7.609016e-011
-8.359347e-010
-1.661979e-009
-2.103228e-009
-1.954873e-009
-1.484989e-009
-1.158974e-009
-1.165891e-009
-1.261268e-009
-1.081311e-009
-5.675367e-010
-3.673890e-011
1.646186e-010
2.832680e-011
-1.289478e-010
-3.460234e-011
2.311616e-010
3.293240e-010
5.160598e-011
-4.316393e-010
-7.481777e-010
-7.347225e-010
-6.201001e-010
-7.609471e-010
-1.211784e-009
-1.615295e-009
-1.558006e-009
-1.012356e-009
-3.691141e-010
-9.642675e-012
1.086518e-010
3.779219e-010
1.045954e-009
1.858355e-009
2.256731e-009
1.931826e-009
1.126512e-009
3.629091e-010
-8.472615e-011
-3.767558e-010
-7.711602e-010
-1.191499e-009
-1.230313e-009
-6.000962e-010
4.823062e-010
1.417232e-009
1.716303e-009
1.340829e-009
5.805185e-010
-2.887002e-010
-1.126204e-009
-1.743212e-009
-1.776079e-009
-9.358343e-010
5.518249e-010
1.857411e-009
2.079418e-009
1.007079e-009
-6.093575e-010
-1.608042e-009
-1.347004e-009
-2.017299e-010
8.047400e-010
8.963888e-010
1.719060e-010
-5.609974e-010
2.715644e-009
4.808540e-010
-2.039957e-009
-2.812775e-009
-1.372436e-009
9.428643e-010
2.251661e-009
1.707977e-009
6.281173e-011
-1.155191e-009
-1.013077e-009
1.161527e-010
1.047004e-009
9.280733e-010
-4.196219e-011
-9.394592e-010
-1.082005e-009
-6.513101e-010
-3.831979e-010
-7.005574e-010
-1.218178e-009
-1.129048e-009
-4.516346e-011
1.591719e-009
2.924320e-009
3.437542e-009
3.271235e-009
2.852707e-009
2.359496e-009
1.628078e-009
5.329639e-010
-6.925043e-010
-1.604195e-009
-1.976250e-009
-1.985665e-009
-1.939224e-009
-1.888561e-009
-1.603491e-009
-9.257610e-010
-5.695932e-011
5.894304e-010
8.160375e-010
8.485930e-010
1.068595e-009
1.570008e-009
2.048383e-009
2.152184e-009
1.894374e-009
1.649991e-009
1.737422e-009
2.058585e-009
2.209849e-009
1.940475e-009
1.436838e-009
1.105660e-009
1.100841e-009
1.136152e-009
8.049821e-010
4.882707e-011
-7.586225e-010
-1.208155e-009
-1.277720e-009
-1.297844e-009
-1.508311e-009
-1.731125e-009
-1.548172e-009
-7.798501e-010
2.911749e-010
1.203554e-009
1.763513e-009
2.130663e-009
2.470702e-009
2.633436e-009
2.279332e-009
1.317201e-009
1.154006e-010
-7.932012e-010
-1.181393e-009
-1.225944e-009
-1.143898e-009
-8.567288e-010
-1.504284e-010
8.338792e-010
1.434011e-009
9.887228e-010
-3.972751e-010
-1.698447e-009
-1.750946e-009
-3.279261e-010
1.532406e-009
2.341263e-009
1.429565e-009
-4.704619e-010
-1.859560e-009
-1.746232e-009
-4.300922e-010
8.612719e-010
1.100203e-009
3.211404e-010
-5.229555e-010
2.280262e-009
9.488728e-010
-6.981161e-010
-1.554630e-009
-1.262762e-009
-3.899050e-010
1.554944e-010
-5.382560e-011
-6.062781e-010
-6.595634e-010
2.384090e-010
1.640480e-009
2.487833e-009
1.990220e-009
3.349209e-010
-1.435154e-009
-2.292131e-009
-2.044319e-009
-1.339659e-009
-8.863493e-010
-7.148612e-010
-2.483477e-010
9.230430e-010
2.430694e-009
3.365653e-009
3.123906e-009
1.962862e-009
7.077305e-010
-2.926098e-011
-2.784036e-010
-4.165360e-010
-5.917589e-010
-5.533135e-010
-1.894507e-011
9.252325e-010
1.880085e-009
2.543531e-009
2.960290e-009
3.334684e-009
3.685215e-009
3.795277e-009
3.514833e-009
3.011913e-009
2.631671e-009
2.516344e-009
2.452423e-009
2.148251e-009
1.620359e-009
1.220096e-009
1.252057e-009
1.626307e-009
1.957940e-009
2.004593e-009
1.931661e-009
2.094236e-009
2.592671e-009
3.124370e-009
3.303036e-009
3.065792e-009
2.693017e-009
2.435597e-009
2.212284e-009
1.743334e-009
9.470671e-010
1.039991e-010
-4.170393e-010
-5.327066e-010
-4.590604e-010
-3.626812e-010
-1.129443e-010
5.203959e-010
1.455770e-009
2.216743e-009
2.345684e-009
1.856342e-009
1.173106e-009
6.054987e-010
-2.326793e-012
-9.730818e-010
-2.159926e-009
-2.772097e-009
-2.023330e-009
-2.595111e-011
2.034885e-009
2.762715e-009
1.716529e-009
-2.018054e-010
-1.511739e-009
-1.376448e-009
-2.037018e-010
8.409091e-010
8.947483e-010
7.598864e-011
-7.537652e-010
-8.373677e-010
-1.815661e-010
5.331884e-010
6.459983e-010
1.338087e-010
-4.151987e-010
-5.060108e-010
4.494860e-010
1.354342e-009
1.255308e-009
1.146569e-010
-1.236426e-009
-1.892764e-009
-1.586680e-009
-7.054096e-010
2.234478e-010
9.445127e-010
1.417466e-009
1.535884e-009
1.100797e-009
1.367572e-010
-8.771183e-010
-1.272398e-009
-7.865080e-010
1.453021e-010
7.838599e-010
7.970366e-010
5.233069e-010
4.925803e-010
7.514568e-010
7.819719e-010
1.306896e-010
-9.648697e-010
-1.686611e-009
-1.392091e-009
-2.022446e-010
1.190395e-009
2.229878e-009
2.927160e-009
3.604787e-009
4.348160e-009
4.831076e-009
4.672239e-009
3.847647e-009
2.674405e-009
1.439680e-009
1.554653e-010
-1.294546e-009
-2.863776e-009
-4.309825e-009
-5.453411e-009
-6.371176e-009
-7.254072e-009
-8.106025e-009
-8.676229e-009
-8.728026e-009
-8.316135e-009
-7.722234e-009
-7.121159e-009
-6.388303e-009
-5.286200e-009
-3.797682e-009
-2.193024e-009
-7.550409e-010
4.851342e-010
1.670106e-009
2.809426e-009
3.657393e-009
3.953320e-009
3.724966e-009
3.255321e-009
2.739597e-009
2.077110e-009
1.094979e-009
-6.146653e-011
-9.013462e-010
-1.039559e-009
-6.227022e-010
-1.869932e-010
-5.991779e-011
-1.514197e-012
4.473786e-010
1.274179e-009
1.790496e-009
1.251557e-009
-2.980414e-010
-1.867034e-009
-2.284874e-009
-1.187307e-009
6.904521e-010
2.124054e-009
2.305091e-009
1.292825e-009
-2.021983e-010
-1.361664e-009
-1.696026e-009
-1.196755e-009
-2.496904e-010
6.012663e-010
9.488185e-010
7.327840e-010
2.267560e-010
-1.927517e-010
-3.131157e-010
-1.891546e-010
-3.770631e-011
-3.765714e-009
-5.726358e-010
2.842634e-009
3.598120e-009
1.407725e-009
-1.489726e-009
-2.620558e-009
-1.441027e-009
5.362987e-010
1.437723e-009
7.195065e-010
-6.503470e-010
-1.379306e-009
-1.040384e-009
-1.723995e-010
5.369829e-010
9.481827e-010
1.350111e-009
1.846878e-009
2.087545e-009
1.666539e-009
6.667453e-010
-3.492623e-010
-9.009042e-010
-1.022406e-009
-1.052183e-009
-1.067659e-009
-6.983378e-010
4.153356e-010
2.055109e-009
3.447530e-009
3.891218e-009
3.301758e-009
2.096505e-009
6.090705e-010
-1.272486e-009
-3.872728e-009
-7.244243e-009
-1.102228e-008
-1.475130e-008
-1.825878e-008
-2.165529e-008
-2.503126e-008
-2.825830e-008
-3.110582e-008
-3.346459e-008
-3.537203e-008
-3.683880e-008
-3.774296e-008
-3.794115e-008
-3.743290e-008
-3.634291e-008
-3.474647e-008
-3.258738e-008
-2.981135e-008
-2.653165e-008
-2.298556e-008
-1.932595e-008
-1.553788e-008
-1.162007e-008
-7.800263e-009
-4.465326e-009
-1.841937e-009
1.782939e-010
1.812993e-009
3.017317e-009
3.459603e-009
2.943913e-009
1.794657e-009
6.897631e-010
6.120437e-011
-2.619268e-010
-7.237784e-010
-1.381442e-009
-1.696304e-009
-1.071056e-009
4.338520e-010
1.999810e-009
2.692059e-009
2.185712e-009
8.998957e-010
-4.439823e-010
-1.287560e-009
-1.363051e-009
-6.536016e-010
5.300250e-010
1.480897e-009
1.413319e-009
1.429826e-010
-1.515163e-009
-2.238168e-009
-1.321562e-009
5.976397e-010
2.008802e-009
1.834827e-009
3.674249e-010
-1.047872e-009
-1.260610e-009
-3.185689e-010
6.775081e-010
-4.759005e-009
-1.037799e-009
2.867131e-009
3.650066e-009
1.232237e-009
-1.552886e-009
-1.954648e-009
1.247932e-010
2.336622e-009
2.345300e-009
5.427258e-012
-2.691963e-009
-3.573672e-009
-2.149522e-009
2.427066e-010
1.873144e-009
2.101315e-009
1.572814e-009
1.216235e-009
1.254585e-009
1.214354e-009
7.180742e-010
4.210528e-011
-1.725863e-010
3.672903e-010
1.330085e-009
2.170887e-009
2.650603e-009
2.826919e-009
2.607063e-009
1.510049e-009
-1.005764e-009
-5.031197e-009
-1.013788e-008
-1.584311e-008
-2.206180e-008
-2.903843e-008
-3.688639e-008
-4.530241e-008
-5.376859e-008
-6.196321e-008
-6.989639e-008
-7.765947e-008
-8.512388e-008
-9.192374e-008
-9.768326e-008
-1.021980e-007
-1.054092e-007
-1.072796e-007
-1.077421e-007
-1.067316e-007
-1.042121e-007
-1.001788e-007
-9.469979e-008
-8.798837e-008
-8.038281e-008
-7.218822e-008
-6.354017e-008
-5.449045e-008
-4.525633e-008
-3.631886e-008
-2.818152e-008
-2.102286e-008
-1.467030e-008
-8.977563e-009
-4.173969e-009
-7.257146e-010
1.186762e-009
1.970407e-009
2.303031e-009
2.522623e-009
2.420436e-009
1.680220e-009
4.452722e-010
-6.527123e-010
-1.023629e-009
-5.849198e-010
3.190163e-010
1.317141e-009
2.160836e-009
2.513419e-009
1.892577e-009
1.459094e-010
-1.979908e-009
-3.049120e-009
-2.094990e-009
2.954341e-010
2.228819e-009
2.116017e-009
1.770813e-010
-1.709758e-009
-1.777229e-009
-5.313748e-011
1.711520e-009
1.793243e-009
1.729125e-010
-1.508615e-009
-1.619907e-009
-1.414029e-010
1.369675e-009
-2.272357e-009
-3.738650e-010
1.370682e-009
1.247773e-009
-3.446259e-010
-1.426855e-009
-5.881258e-010
1.529089e-009
2.866652e-009
1.974022e-009
-5.937912e-010
-2.776285e-009
-2.848654e-009
-8.893926e-010
1.390998e-009
2.209029e-009
1.204021e-009
-4.347162e-010
-1.200579e-009
-6.085528e-010
6.077389e-010
1.471232e-009
1.776861e-009
2.100810e-009
2.925923e-009
3.931412e-009
4.193822e-009
2.963387e-009
1.002360e-010
-4.225337e-009
-1.006836e-008
-1.779081e-008
-2.765262e-008
-3.949139e-008
-5.290506e-008
-6.768448e-008
-8.393830e-008
-1.017590e-007
-1.208473e-007
-1.405390e-007
-1.601781e-007
-1.793891e-007
-1.979641e-007
-2.155478e-007
-2.315021e-007
-2.450872e-007
-2.557466e-007
-2.632247e-007
-2.674585e-007
-2.683931e-007
-2.658899e-007
-2.597839e-007
-2.500475e-007
-2.369450e-007
-2.210457e-007
-2.030407e-007
-1.834993e-007
-1.628086e-007
-1.413847e-007
-1.199209e-007
-9.933407e-008
-8.038030e-008
-6.332747e-008
-4.807006e-008
-3.458089e-008
-2.317337e-008
-1.424098e-008
-7.767070e-009
-3.204554e-009
9.860330e-011
2.412540e-009
3.638144e-009
3.757740e-009
3.120242e-009
2.198309e-009
1.181568e-009
1.941233e-011
-1.087138e-009
-1.460524e-009
-5.179712e-010
1.343225e-009
2.658394e-009
2.043314e-009
-3.828538e-010
-2.809396e-009
-3.208138e-009
-1.187873e-009
1.578746e-009
2.846929e-009
1.814770e-009
-2.663917e-010
-1.425426e-009
-8.748978e-010
3.946446e-010
8.235744e-010
-4.066617e-011
-1.140891e-009
-1.131123e-009
1.306057e-010
1.411069e-009
2.171174e-009
7.892024e-010
-9.958065e-010
-2.027615e-009
-1.741649e-009
-4.693461e-010
8.794925e-010
1.467979e-009
1.047419e-009
4.316220e-011
-7.622772e-010
-7.250598e-010
2.340289e-010
1.497234e-009
2.074763e-009
1.313005e-009
-4.784275e-010
-2.088604e-009
-2.286843e-009
-8.422727e-010
1.283631e-009
2.810655e-009
3.227810e-009
2.987344e-009
2.639176e-009
1.876695e-009