# vtk DataFile Version 3.0
vtk output
ASCII
DATASET STRUCTURED_POINTS
DIMENSIONS 100 100 1
SPACING 1 1 1
ORIGIN 0 0 0
POINT_DATA 10000
SCALARS SFBox_profile double
LOOKUP_TABLE default 
9.439920e-003
9.439920e-003
9.439920e-003
9.439920e-003
9.439920e-003
9.439920e-003
9.439920e-003
9.439920e-003
9.439920e-003
9.439920e-003
9.439921e-003
9.439921e-003
9.439921e-003
9.439922e-003
9.439923e-003
9.439924e-003
9.439925e-003
9.439927e-003
9.439929e-003
9.439931e-003
9.439934e-003
9.439937e-003
9.439940e-003
9.439943e-003
9.439946e-003
9.439949e-003
9.439952e-003
9.439955e-003
9.439958e-003
9.439961e-003
9.439963e-003
9.439966e-003
9.439967e-003
9.439969e-003
9.439970e-003
9.439971e-003
9.439972e-003
9.439973e-003
9.439973e-003
9.439973e-003
9.439973e-003
9.439973e-003
9.439973e-003
9.439972e-003
9.439972e-003
9.439971e-003
9.439971e-003
9.439970e-003
9.439969e-003
9.439969e-003
9.439968e-003
9.439968e-003
9.439967e-003
9.439967e-003
9.439967e-003
9.439967e-003
9.439967e-003
9.439966e-003
9.439966e-003
9.439966e-003
9.439965e-003
9.439963e-003
9.439962e-003
9.439960e-003
9.439958e-003
9.439955e-003
9.439952e-003
9.439948e-003
9.439945e-003
9.439942e-003
9.439938e-003
9.439935e-003
9.439932e-003
9.439930e-003
9.439927e-003
9.439926e-003
9.439924e-003
9.439923e-003
9.439922e-003
9.439921e-003
9.439921e-003
9.439921e-003
9.439920e-003
9.439920e-003
9.439920e-003
9.439920e-003
9.439920e-003
9.439920e-003
9.439920e-003
9.439920e-003
9.439920e-003
9.439920e-003
9.439920e-003
9.439920e-003
9.439920e-003
9.439920e-003
9.439920e-003
9.439920e-003
9.439920e-003
9.439920e-003
9.439920e-003
9.439920e-003
9.439920e-003
9.439920e-003
9.439920e-003
9.439920e-003
9.439920e-003
9.439920e-003
9.439920e-003
9.439920e-003
9.439921e-003
9.439921e-003
9.439921e-003
9.439922e-003
9.439923e-003
9.439924e-003
9.439925e-003
9.439927e-003
9.439929e-003
9.439931e-003
9.439934e-003
9.439937e-003
9.439940e-003
9.439943e-003
9.439946e-003
9.439949e-003
9.439952e-003
9.439955e-003
9.439958e-003
9.439961e-003
9.439963e-003
9.439966e-003
9.439967e-003
9.439969e-003
9.439970e-003
9.439971e-003
9.439972e-003
9.439973e-003
9.439973e-003
9.439973e-003
9.439973e-003
9.439973e-003
9.439973e-003
9.439972e-003
9.439972e-003
9.439971e-003
9.439971e-003
9.439970e-003
9.439969e-003
9.439969e-003
9.439968e-003
9.439968e-003
9.439967e-003
9.439967e-003
9.439967e-003
9.439967e-003
9.439967e-003
9.439966e-003
9.439966e-003
9.439966e-003
9.439965e-003
9.439963e-003
9.439962e-003
9.439960e-003
9.439958e-003
9.439955e-003
9.439952e-003
9.439948e-003
9.439945e-003
9.439942e-003
9.439938e-003
9.439935e-003
9.439932e-003
9.439930e-003
9.439927e-003
9.439926e-003
9.439924e-003
9.439923e-003
9.439922e-003
9.439921e-003
9.439921e-003
9.439921e-003
9.439920e-003
9.439920e-003
9.439920e-003
9.439920e-003
9.439920e-003
9.439920e-003
9.439920e-003
9.439920e-003
9.439920e-003
9.439920e-003
9.439920e-003
9.439920e-003
9.439920e-003
9.439920e-003
9.439920e-003
9.439920e-003
9.439920e-003
9.439920e-003
9.439920e-003
9.439920e-003
9.439920e-003
9.439920e-003
9.439920e-003
9.439920e-003
9.439920e-003
9.439920e-003
9.439920e-003
9.439921e-003
9.439921e-003
9.439922e-003
9.439922e-003
9.439923e-003
9.439924e-003
9.439926e-003
9.439928e-003
9.439930e-003
9.439932e-003
9.439935e-003
9.439938e-003
9.439941e-003
9.439944e-003
9.439947e-003
9.439950e-003
9.439952e-003
9.439954e-003
9.439955e-003
9.439956e-003
9.439957e-003
9.439957e-003
9.439956e-003
9.439955e-003
9.439953e-003
9.439951e-003
9.439948e-003
9.439945e-003
9.439942e-003
9.439938e-003
9.439935e-003
9.439931e-003
9.439928e-003
9.439924e-003
9.439921e-003
9.439918e-003
9.439915e-003
9.439913e-003
9.439911e-003
9.439909e-003
9.439908e-003
9.439908e-003
9.439909e-003
9.439910e-003
9.439912e-003
9.439915e-003
9.439918e-003
9.439922e-003
9.439926e-003
9.439930e-003
9.439935e-003
9.439939e-003
9.439943e-003
9.439946e-003
9.439948e-003
9.439950e-003
9.439950e-003
9.439950e-003
9.439949e-003
9.439947e-003
9.439944e-003
9.439941e-003
9.439938e-003
9.439935e-003
9.439933e-003
9.439930e-003
9.439928e-003
9.439926e-003
9.439924e-003
9.439923e-003
9.439922e-003
9.439921e-003
9.439921e-003
9.439921e-003
9.439920e-003
9.439920e-003
9.439920e-003
9.439920e-003
9.439920e-003
9.439920e-003
9.439920e-003
9.439920e-003
9.439920e-003
9.439920e-003
9.439920e-003
9.439920e-003
9.439920e-003
9.439920e-003
9.439920e-003
9.439920e-003
9.439920e-003
9.439920e-003
9.439920e-003
9.439920e-003
9.439920e-003
9.439920e-003
9.439920e-003
9.439920e-003
9.439921e-003
9.439921e-003
9.439921e-003
9.439922e-003
9.439923e-003
9.439924e-003
9.439926e-003
9.439928e-003
9.439930e-003
9.439933e-003
9.439936e-003
9.439939e-003
9.439942e-003
9.439945e-003
9.439947e-003
9.439949e-003
9.439950e-003
9.439950e-003
9.439949e-003
9.439946e-003
9.439942e-003
9.439936e-003
9.439928e-003
9.439919e-003
9.439908e-003
9.439896e-003
9.439884e-003
9.439870e-003
9.439856e-003
9.439841e-003
9.439826e-003
9.439812e-003
9.439797e-003
9.439783e-003
9.439769e-003
9.439756e-003
9.439745e-003
9.439734e-003
9.439725e-003
9.439717e-003
9.439711e-003
9.439707e-003
9.439705e-003
9.439706e-003
9.439710e-003
9.439716e-003
9.439725e-003
9.439736e-003
9.439750e-003
9.439766e-003
9.439784e-003
9.439803e-003
9.439823e-003
9.439843e-003
9.439862e-003
9.439881e-003
9.439897e-003
9.439911e-003
9.439923e-003
9.439932e-003
9.439938e-003
9.439942e-003
9.439944e-003
9.439944e-003
9.439943e-003
9.439941e-003
9.439938e-003
9.439935e-003
9.439932e-003
9.439929e-003
9.439927e-003
9.439925e-003
9.439924e-003
9.439922e-003
9.439922e-003
9.439921e-003
9.439921e-003
9.439920e-003
9.439920e-003
9.439920e-003
9.439920e-003
9.439920e-003
9.439920e-003
9.439920e-003
9.439920e-003
9.439920e-003
9.439920e-003
9.439920e-003
9.439920e-003
9.439920e-003
9.439920e-003
9.439920e-003
9.439920e-003
9.439920e-003
9.439920e-003
9.439920e-003
9.439920e-003
9.439920e-003
9.439920e-003
9.439921e-003
9.439921e-003
9.439922e-003
9.439923e-003
9.439924e-003
9.439926e-003
9.439928e-003
9.439930e-003
9.439933e-003
9.439937e-003
9.439940e-003
9.439944e-003
9.439947e-003
9.439949e-003
9.439950e-003
9.439949e-003
9.439945e-003
9.439938e-003
9.439928e-003
9.439914e-003
9.439895e-003
9.439872e-003
9.439845e-003
9.439814e-003
9.439779e-003
9.439741e-003
9.439701e-003
9.439658e-003
9.439614e-003
9.439569e-003
9.439523e-003
9.439478e-003
9.439434e-003
9.439391e-003
9.439349e-003
9.439310e-003
9.439274e-003
9.439240e-003
9.439210e-003
9.439185e-003
9.439164e-003
9.439148e-003
9.439139e-003
9.439136e-003
9.439139e-003
9.439151e-003
9.439169e-003
9.439196e-003
9.439230e-003
9.439271e-003
9.439319e-003
9.439372e-003
9.439429e-003
9.439490e-003
9.439551e-003
9.439613e-003
9.439671e-003
9.439726e-003
9.439776e-003
9.439820e-003
9.439856e-003
9.439886e-003
9.439908e-003
9.439924e-003
9.439935e-003
9.439941e-003
9.439943e-003
9.439943e-003
9.439941e-003
9.439938e-003
9.439935e-003
9.439931e-003
9.439929e-003
9.439926e-003
9.439924e-003
9.439923e-003
9.439922e-003
9.439921e-003
9.439921e-003
9.439920e-003
9.439920e-003
9.439920e-003
9.439920e-003
9.439920e-003
9.439920e-003
9.439920e-003
9.439920e-003
9.439920e-003
9.439920e-003
9.439920e-003
9.439920e-003
9.439920e-003
9.439920e-003
9.439920e-003
9.439920e-003
9.439920e-003
9.439920e-003
9.439920e-003
9.439921e-003
9.439921e-003
9.439922e-003
9.439922e-003
9.439924e-003
9.439925e-003
9.439927e-003
9.439930e-003
9.439933e-003
9.439937e-003
9.439941e-003
9.439945e-003
9.439948e-003
9.439951e-003
9.439950e-003
9.439947e-003
9.439938e-003
9.439923e-003
9.439901e-003
9.439870e-003
9.439829e-003
9.439778e-003
9.439716e-003
9.439643e-003
9.439560e-003
9.439468e-003
9.439367e-003
9.439259e-003
9.439146e-003
9.439029e-003
9.438909e-003
9.438789e-003
9.438669e-003
9.438551e-003
9.438436e-003
9.438325e-003
9.438219e-003
9.438120e-003
9.438028e-003
9.437944e-003
9.437870e-003
9.437807e-003
9.437756e-003
9.437719e-003
9.437696e-003
9.437690e-003
9.437701e-003
9.437731e-003
9.437779e-003
9.437847e-003
9.437935e-003
9.438041e-003
9.438163e-003
9.438301e-003
9.438451e-003
9.438609e-003
9.438772e-003
9.438935e-003
9.439095e-003
9.439246e-003
9.439386e-003
9.439511e-003
9.439620e-003
9.439711e-003
9.439784e-003
9.439840e-003
9.439882e-003
9.439910e-003
9.439928e-003
9.439938e-003
9.439942e-003
9.439943e-003
9.439941e-003
9.439937e-003
9.439934e-003
9.439931e-003
9.439928e-003
9.439925e-003
9.439924e-003
9.439922e-003
9.439922e-003
9.439921e-003
9.439921e-003
9.439920e-003
9.439920e-003
9.439920e-003
9.439920e-003
9.439920e-003
9.439920e-003
9.439920e-003
9.439920e-003
9.439920e-003
9.439920e-003
9.439920e-003
9.439920e-003
9.439920e-003
9.439920e-003
9.439920e-003
9.439920e-003
9.439921e-003
9.439921e-003
9.439922e-003
9.439923e-003
9.439925e-003
9.439927e-003
9.439929e-003
9.439933e-003
9.439937e-003
9.439941e-003
9.439946e-003
9.439950e-003
9.439952e-003
9.439951e-003
9.439945e-003
9.439932e-003
9.439907e-003
9.439870e-003
9.439815e-003
9.439741e-003
9.439645e-003
9.439524e-003
9.439378e-003
9.439207e-003
9.439011e-003
9.438791e-003
9.438551e-003
9.438294e-003
9.438022e-003
9.437739e-003
9.437450e-003
9.437157e-003
9.436865e-003
9.436577e-003
9.436295e-003
9.436022e-003
9.435760e-003
9.435512e-003
9.435280e-003
9.435066e-003
9.434873e-003
9.434703e-003
9.434558e-003
9.434442e-003
9.434358e-003
9.434308e-003
9.434296e-003
9.434324e-003
9.434394e-003
9.434510e-003
9.434670e-003
9.434876e-003
9.435125e-003
9.435415e-003
9.435741e-003
9.436097e-003
9.436476e-003
9.436869e-003
9.437266e-003
9.437657e-003
9.438033e-003
9.438384e-003
9.438704e-003
9.438986e-003
9.439227e-003
9.439427e-003
9.439586e-003
9.439709e-003
9.439798e-003
9.439861e-003
9.439901e-003
9.439926e-003
9.439938e-003
9.439943e-003
9.439943e-003
9.439940e-003
9.439936e-003
9.439932e-003
9.439929e-003
9.439926e-003
9.439924e-003
9.439923e-003
9.439922e-003
9.439921e-003
9.439921e-003
9.439920e-003
9.439920e-003
9.439920e-003
9.439920e-003
9.439920e-003
9.439920e-003
9.439920e-003
9.439920e-003
9.439920e-003
9.439920e-003
9.439920e-003
9.439920e-003
9.439921e-003
9.439921e-003
9.439921e-003
9.439922e-003
9.439922e-003
9.439924e-003
9.439926e-003
9.439928e-003
9.439931e-003
9.439935e-003
9.439940e-003
9.439946e-003
9.439951e-003
9.439954e-003
9.439954e-003
9.439947e-003
9.439930e-003
9.439897e-003
9.439844e-003
9.439763e-003
9.439648e-003
9.439492e-003
9.439288e-003
9.439032e-003
9.438720e-003
9.438350e-003
9.437924e-003
9.437444e-003
9.436914e-003
9.436342e-003
9.435735e-003
9.435101e-003
9.434449e-003
9.433787e-003
9.433123e-003
9.432464e-003
9.431818e-003
9.431190e-003
9.430587e-003
9.430011e-003
9.429469e-003
9.428963e-003
9.428500e-003
9.428082e-003
9.427716e-003
9.427406e-003
9.427159e-003
9.426981e-003
9.426877e-003
9.426854e-003
9.426918e-003
9.427075e-003
9.427327e-003
9.427678e-003
9.428127e-003
9.428673e-003
9.429310e-003
9.430030e-003
9.430820e-003
9.431665e-003
9.432547e-003
9.433445e-003
9.434337e-003
9.435203e-003
9.436020e-003
9.436773e-003
9.437446e-003
9.438030e-003
9.438523e-003
9.438925e-003
9.439241e-003
9.439480e-003
9.439654e-003
9.439775e-003
9.439854e-003
9.439902e-003
9.439928e-003
9.439940e-003
9.439943e-003
9.439942e-003
9.439938e-003
9.439934e-003
9.439930e-003
9.439927e-003
9.439925e-003
9.439923e-003
9.439922e-003
9.439921e-003
9.439921e-003
9.439920e-003
9.439920e-003
9.439920e-003
9.439920e-003
9.439920e-003
9.439920e-003
9.439920e-003
9.439920e-003
9.439920e-003
9.439920e-003
9.439920e-003
9.439921e-003
9.439921e-003
9.439922e-003
9.439923e-003
9.439924e-003
9.439927e-003
9.439930e-003
9.439933e-003
9.439938e-003
9.439944e-003
9.439950e-003
9.439955e-003
9.439956e-003
9.439951e-003
9.439935e-003
9.439899e-003
9.439836e-003
9.439734e-003
9.439579e-003
9.439359e-003
9.439057e-003
9.438660e-003
9.438156e-003
9.437536e-003
9.436793e-003
9.435928e-003
9.434945e-003
9.433852e-003
9.432662e-003
9.431390e-003
9.430054e-003
9.428672e-003
9.427265e-003
9.425848e-003
9.424439e-003
9.423053e-003
9.421704e-003
9.420401e-003
9.419156e-003
9.417977e-003
9.416871e-003
9.415847e-003
9.414913e-003
9.414075e-003
9.413344e-003
9.412729e-003
9.412241e-003
9.411891e-003
9.411692e-003
9.411654e-003
9.411791e-003
9.412111e-003
9.412624e-003
9.413336e-003
9.414249e-003
9.415359e-003
9.416660e-003
9.418136e-003
9.419766e-003
9.421522e-003
9.423368e-003
9.425265e-003
9.427168e-003
9.429031e-003
9.430812e-003
9.432469e-003
9.433970e-003
9.435291e-003
9.436421e-003
9.437357e-003
9.438107e-003
9.438688e-003
9.439121e-003
9.439431e-003
9.439643e-003
9.439781e-003
9.439865e-003
9.439911e-003
9.439934e-003
9.439943e-003
9.439943e-003
9.439940e-003
9.439936e-003
9.439931e-003
9.439928e-003
9.439925e-003
9.439923e-003
9.439922e-003
9.439921e-003
9.439921e-003
9.439920e-003
9.439920e-003
9.439920e-003
9.439920e-003
9.439920e-003
9.439920e-003
9.439920e-003
9.439920e-003
9.439920e-003
9.439920e-003
9.439922e-003
9.439923e-003
9.439924e-003
9.439925e-003
9.439928e-003
9.439931e-003
9.439936e-003
9.439941e-003
9.439948e-003
9.439954e-003
9.439959e-003
9.439957e-003
9.439945e-003
9.439913e-003
9.439850e-003
9.439740e-003
9.439562e-003
9.439291e-003
9.438901e-003
9.438360e-003
9.437640e-003
9.436712e-003
9.435555e-003
9.434155e-003
9.432504e-003
9.430609e-003
9.428484e-003
9.426154e-003
9.423648e-003
9.421004e-003
9.418261e-003
9.415458e-003
9.412634e-003
9.409823e-003
9.407058e-003
9.404366e-003
9.401768e-003
9.399285e-003
9.396932e-003
9.394722e-003
9.392668e-003
9.390780e-003
9.389069e-003
9.387549e-003
9.386232e-003
9.385134e-003
9.384270e-003
9.383660e-003
9.383323e-003
9.383279e-003
9.383548e-003
9.384149e-003
9.385099e-003
9.386411e-003
9.388093e-003
9.390146e-003
9.392561e-003
9.395321e-003
9.398395e-003
9.401737e-003
9.405290e-003
9.408985e-003
9.412739e-003
9.416467e-003
9.420077e-003
9.423487e-003
9.426621e-003
9.429422e-003
9.431852e-003
9.433897e-003
9.435563e-003
9.436875e-003
9.437872e-003
9.438602e-003
9.439115e-003
9.439460e-003
9.439681e-003
9.439814e-003
9.439889e-003
9.439926e-003
9.439941e-003
9.439944e-003
9.439941e-003
9.439937e-003
9.439932e-003
9.439928e-003
9.439926e-003
9.439923e-003
9.439922e-003
9.439921e-003
9.439921e-003
9.439920e-003
9.439920e-003
9.439920e-003
9.439920e-003
9.439920e-003
9.439920e-003
9.439920e-003
9.439920e-003
9.439920e-003
9.439924e-003
9.439925e-003
9.439927e-003
9.439929e-003
9.439933e-003
9.439938e-003
9.439944e-003
9.439952e-003
9.439958e-003
9.439962e-003
9.439956e-003
9.439935e-003
9.439883e-003
9.439782e-003
9.439606e-003
9.439319e-003
9.438879e-003
9.438233e-003
9.437326e-003
9.436097e-003
9.434491e-003
9.432460e-003
9.429968e-003
9.426999e-003
9.423558e-003
9.419671e-003
9.415384e-003
9.410761e-003
9.405876e-003
9.400811e-003
9.395647e-003
9.390464e-003
9.385331e-003
9.380313e-003
9.375459e-003
9.370811e-003
9.366401e-003
9.362253e-003
9.358384e-003
9.354807e-003
9.351533e-003
9.348571e-003
9.345931e-003
9.343622e-003
9.341657e-003
9.340049e-003
9.338817e-003
9.337978e-003
9.337557e-003
9.337576e-003
9.338063e-003
9.339046e-003
9.340552e-003
9.342609e-003
9.345241e-003
9.348465e-003
9.352291e-003
9.356715e-003
9.361715e-003
9.367250e-003
9.373251e-003
9.379624e-003
9.386247e-003
9.392973e-003
9.399640e-003
9.406079e-003
9.412130e-003
9.417651e-003
9.422539e-003
9.426729e-003
9.430205e-003
9.432991e-003
9.435146e-003
9.436754e-003
9.437908e-003
9.438703e-003
9.439228e-003
9.439557e-003
9.439753e-003
9.439861e-003
9.439915e-003
9.439938e-003
9.439944e-003
9.439942e-003
9.439938e-003
9.439933e-003
9.439929e-003
9.439926e-003
9.439923e-003
9.439922e-003
9.439921e-003
9.439921e-003
9.439920e-003
9.439920e-003
9.439920e-003
9.439920e-003
9.439920e-003
9.439920e-003
9.439920e-003
9.439920e-003
9.439927e-003
9.439929e-003
9.439931e-003
9.439935e-003
9.439941e-003
9.439948e-003
9.439955e-003
9.439962e-003
9.439964e-003
9.439955e-003
9.439921e-003
9.439845e-003
9.439697e-003
9.439436e-003
9.439006e-003
9.438334e-003
9.437332e-003
9.435898e-003
9.433923e-003
9.431299e-003
9.427930e-003
9.423746e-003
9.418710e-003
9.412831e-003
9.406164e-003
9.398809e-003
9.390901e-003
9.382602e-003
9.374087e-003
9.365527e-003
9.357082e-003
9.348892e-003
9.341069e-003
9.333700e-003
9.326843e-003
9.320534e-003
9.314789e-003
9.309610e-003
9.304989e-003
9.300912e-003
9.297362e-003
9.294319e-003
9.291764e-003
9.289677e-003
9.288038e-003
9.286829e-003
9.286033e-003
9.285636e-003
9.285629e-003
9.286011e-003
9.286787e-003
9.287978e-003
9.289613e-003
9.291741e-003
9.294424e-003
9.297737e-003
9.301765e-003
9.306595e-003
9.312309e-003
9.318966e-003
9.326587e-003
9.335142e-003
9.344535e-003
9.354592e-003
9.365069e-003
9.375665e-003
9.386048e-003
9.395887e-003
9.404892e-003
9.412845e-003
9.419617e-003
9.425171e-003
9.429559e-003
9.432896e-003
9.435337e-003
9.437053e-003
9.438212e-003
9.438959e-003
9.439420e-003
9.439687e-003
9.439833e-003
9.439905e-003
9.439935e-003
9.439944e-003
9.439943e-003
9.439938e-003
9.439933e-003
9.439929e-003
9.439926e-003
9.439923e-003
9.439922e-003
9.439921e-003
9.439921e-003
9.439920e-003
9.439920e-003
9.439920e-003
9.439920e-003
9.439920e-003
9.439920e-003
9.439920e-003
9.439932e-003
9.439934e-003
9.439938e-003
9.439943e-003
9.439951e-003
9.439959e-003
9.439966e-003
9.439967e-003
9.439953e-003
9.439907e-003
9.439805e-003
9.439603e-003
9.439242e-003
9.438636e-003
9.437672e-003
9.436206e-003
9.434068e-003
9.431068e-003
9.427014e-003
9.421734e-003
9.415099e-003
9.407055e-003
9.397640e-003
9.386996e-003
9.375368e-003
9.363084e-003
9.350527e-003
9.338097e-003
9.326180e-003
9.315112e-003
9.305164e-003
9.296529e-003
9.289317e-003
9.283565e-003
9.279247e-003
9.276286e-003
9.274574e-003
9.273986e-003
9.274386e-003
9.275639e-003
9.277611e-003
9.280168e-003
9.283172e-003
9.286480e-003
9.289940e-003
9.293389e-003
9.296659e-003
9.299580e-003
9.301986e-003
9.303728e-003
9.304685e-003
9.304779e-003
9.303989e-003
9.302370e-003
9.300059e-003
9.297288e-003
9.294385e-003
9.291766e-003
9.289915e-003
9.289349e-003
9.290566e-003
9.293984e-003
9.299872e-003
9.308294e-003
9.319070e-003
9.331779e-003
9.345795e-003
9.360371e-003
9.374735e-003
9.388190e-003
9.400203e-003
9.410442e-003
9.418789e-003
9.425304e-003
9.430179e-003
9.433679e-003
9.436087e-003
9.437677e-003
9.438679e-003
9.439282e-003
9.439625e-003
9.439807e-003
9.439896e-003
9.439933e-003
9.439944e-003
9.439943e-003
9.439938e-003
9.439933e-003
9.439928e-003
9.439925e-003
9.439923e-003
9.439922e-003
9.439921e-003
9.439920e-003
9.439920e-003
9.439920e-003
9.439920e-003
9.439920e-003
9.439920e-003
9.439920e-003
9.439940e-003
9.439943e-003
9.439948e-003
9.439955e-003
9.439963e-003
9.439970e-003
9.439970e-003
9.439952e-003
9.439896e-003
9.439767e-003
9.439510e-003
9.439041e-003
9.438239e-003
9.436935e-003
9.434909e-003
9.431894e-003
9.427581e-003
9.421654e-003
9.413825e-003
9.403896e-003
9.391820e-003
9.377761e-003
9.362127e-003
9.345571e-003
9.328952e-003
9.313256e-003
9.299496e-003
9.288613e-003
9.281382e-003
9.278361e-003
9.279855e-003
9.285925e-003
9.296408e-003
9.310964e-003
9.329116e-003
9.350312e-003
9.373963e-003
9.399489e-003
9.426334e-003
9.453980e-003
9.481937e-003
9.509724e-003
9.536857e-003
9.562819e-003
9.587055e-003
9.608960e-003
9.627885e-003
9.643153e-003
9.654081e-003
9.660015e-003
9.660373e-003
9.654692e-003
9.642689e-003
9.624311e-003
9.599798e-003
9.569728e-003
9.535055e-003
9.497116e-003
9.457608e-003
9.418514e-003
9.381967e-003
9.350063e-003
9.324637e-003
9.307025e-003
9.297870e-003
9.297021e-003
9.303550e-003
9.315893e-003
9.332111e-003
9.350182e-003
9.368288e-003
9.385025e-003
9.399495e-003
9.411296e-003
9.420428e-003
9.427160e-003
9.431901e-003
9.435095e-003
9.437153e-003
9.438420e-003
9.439163e-003
9.439576e-003
9.439789e-003
9.439891e-003
9.439932e-003
9.439943e-003
9.439943e-003
9.439938e-003
9.439932e-003
9.439928e-003
9.439925e-003
9.439923e-003
9.439922e-003
9.439921e-003
9.439920e-003
9.439920e-003
9.439920e-003
9.439920e-003
9.439920e-003
9.439920e-003
9.439951e-003
9.439954e-003
9.439960e-003
9.439968e-003
9.439976e-003
9.439975e-003
9.439954e-003
9.439889e-003
9.439738e-003
9.439431e-003
9.438858e-003
9.437855e-003
9.436189e-003
9.433543e-003
9.429517e-003
9.423645e-003
9.415433e-003
9.404444e-003
9.390417e-003
9.373413e-003
9.353971e-003
9.333218e-003
9.312901e-003
9.295305e-003
9.283055e-003
9.278846e-003
9.285139e-003
9.303891e-003
9.336373e-003
9.383086e-003
9.443777e-003
9.517530e-003
9.602904e-003
9.698095e-003
9.801092e-003
9.909826e-003
1.002229e-002
1.013664e-002
1.025119e-002
1.036446e-002
1.047507e-002
1.058172e-002
1.068309e-002
1.077775e-002
1.086417e-002
1.094063e-002
1.100525e-002
1.105604e-002
1.109095e-002
1.110795e-002
1.110514e-002
1.108092e-002
1.103409e-002
1.096408e-002
1.087107e-002
1.075620e-002
1.062169e-002
1.047098e-002
1.030873e-002
1.014073e-002
9.973611e-003
9.814380e-003
9.669810e-003
9.545706e-003
9.446208e-003
9.373267e-003
9.326438e-003
9.303036e-003
9.298669e-003
9.308023e-003
9.325714e-003
9.347026e-003
9.368378e-003
9.387477e-003
9.403199e-003
9.415303e-003
9.424103e-003
9.430182e-003
9.434187e-003
9.436706e-003
9.438218e-003
9.439081e-003
9.439547e-003
9.439782e-003
9.439890e-003
9.439932e-003
9.439944e-003
9.439942e-003
9.439937e-003
9.439932e-003
9.439927e-003
9.439924e-003
9.439922e-003
9.439921e-003
9.439921e-003
9.439920e-003
9.439920e-003
9.439920e-003
9.439920e-003
9.439920e-003
9.439965e-003
9.439969e-003
9.439976e-003
9.439982e-003
9.439982e-003
9.439960e-003
9.439890e-003
9.439724e-003
9.439378e-003
9.438718e-003
9.437535e-003
9.435521e-003
9.432248e-003
9.427156e-003
9.419573e-003
9.408781e-003
9.394160e-003
9.375430e-003
9.352982e-003
9.328263e-003
9.304106e-003
9.284896e-003
9.276454e-003
9.285592e-003
9.319399e-003
9.384391e-003
9.485711e-003
9.626543e-003
9.807826e-003
1.002829e-002
1.028474e-002
1.057251e-002
1.088593e-002
1.121886e-002
1.156506e-002
1.191858e-002
1.227399e-002
1.262654e-002
1.297215e-002
1.330736e-002
1.362912e-002
1.393457e-002
1.422081e-002
1.448471e-002
1.472276e-002
1.493103e-002
1.510509e-002
1.524016e-002
1.533119e-002
1.537308e-002
1.536089e-002
1.529017e-002
1.515729e-002
1.495982e-002
1.469702e-002
1.437028e-002
1.398362e-002
1.354407e-002
1.306204e-002
1.255126e-002
1.202850e-002
1.151259e-002
1.102311e-002
1.057847e-002
1.019388e-002
9.879600e-003
9.639632e-003
9.471495e-003
9.366986e-003
9.313893e-003
9.298223e-003
9.306425e-003
9.327090e-003
9.351843e-003
9.375434e-003
9.395228e-003
9.410433e-003
9.421341e-003
9.428729e-003
9.433483e-003
9.436399e-003
9.438102e-003
9.439049e-003
9.439545e-003
9.439787e-003
9.439894e-003
9.439934e-003
9.439944e-003
9.439941e-003
9.439936e-003
9.439931e-003
9.439926e-003
9.439924e-003
9.439922e-003
9.439921e-003
9.439921e-003
9.439920e-003
9.439920e-003
9.439920e-003
9.439920e-003
9.439984e-003
9.439988e-003
9.439992e-003
9.439991e-003
9.439970e-003
9.439899e-003
9.439727e-003
9.439360e-003
9.438642e-003
9.437321e-003
9.435017e-003
9.431182e-003
9.425075e-003
9.415781e-003
9.402308e-003
9.383828e-003
9.360125e-003
9.332285e-003
9.303579e-003
9.280361e-003
9.272672e-003
9.294232e-003
9.361565e-003
9.492311e-003
9.703005e-003
1.000683e-002
1.041186e-002
1.092008e-002
1.152743e-002
1.222455e-002
1.299814e-002
1.383241e-002
1.471054e-002
1.561585e-002
1.653269e-002
1.744709e-002
1.834713e-002
1.922301e-002
2.006692e-002
2.087263e-002
2.163496e-002
2.234922e-002
2.301062e-002
2.361381e-002
2.415257e-002
2.461963e-002
2.500660e-002
2.530414e-002
2.550212e-002
2.558993e-002
2.555694e-002
2.539297e-002
2.508890e-002
2.463746e-002
2.403404e-002
2.327782e-002
2.237292e-002
2.132965e-002
2.016572e-002
1.890705e-002
1.758787e-002
1.624977e-002
1.493930e-002
1.370423e-002
1.258869e-002
1.162802e-002
1.084432e-002
1.024385e-002
9.816934e-003
9.540746e-003
9.384137e-003
9.313398e-003
9.297427e-003
9.311202e-003
9.337127e-003
9.364554e-003
9.388217e-003
9.406377e-003
9.419219e-003
9.427736e-003
9.433084e-003
9.436278e-003
9.438093e-003
9.439072e-003
9.439569e-003
9.439803e-003
9.439902e-003
9.439937e-003
9.439944e-003
9.439940e-003
9.439934e-003
9.439929e-003
9.439926e-003
9.439923e-003
9.439922e-003
9.439921e-003
9.439920e-003
9.439920e-003
9.439920e-003
9.439920e-003
9.440006e-003
9.440008e-003
9.440005e-003
9.439984e-003
9.439918e-003
9.439750e-003
9.439382e-003
9.438641e-003
9.437246e-003
9.434749e-003
9.430488e-003
9.423537e-003
9.412715e-003
9.396715e-003
9.374468e-003
9.345905e-003
9.313257e-003
9.282895e-003
9.267468e-003
9.287693e-003
9.372971e-003
9.560022e-003
9.889302e-003
1.039969e-002
1.112265e-002
1.207727e-002
1.326740e-002
1.468133e-002
1.629391e-002
1.807015e-002
1.996956e-002
2.195009e-002
2.397139e-002
2.599693e-002
2.799537e-002
2.994109e-002
3.181423e-002
3.360018e-002
3.528877e-002
3.687314e-002
3.834841e-002
3.971047e-002
4.095487e-002
4.207593e-002
4.306616e-002
4.391593e-002
4.461340e-002
4.514463e-002
4.549377e-002
4.564347e-002
4.557531e-002
4.527037e-002
4.470999e-002
4.387668e-002
4.275549e-002
4.133569e-002
3.961304e-002
3.759259e-002
3.529190e-002
3.274427e-002
3.000136e-002
2.713415e-002
2.423128e-002
2.139398e-002
1.872718e-002
1.632794e-002
1.427284e-002
1.260732e-002
1.133988e-002
1.044318e-002
9.861863e-003
9.525004e-003
9.359576e-003
9.301333e-003
9.301005e-003
9.325566e-003
9.355917e-003
9.382952e-003
9.403639e-003
9.418025e-003
9.427348e-003
9.433052e-003
9.436363e-003
9.438190e-003
9.439146e-003
9.439615e-003
9.439827e-003
9.439913e-003
9.439940e-003
9.439943e-003
9.439938e-003
9.439933e-003
9.439928e-003
9.439925e-003
9.439923e-003
9.439921e-003
9.439921e-003
9.439920e-003
9.439920e-003
9.439920e-003
9.440029e-003
9.440024e-003
9.440005e-003
9.439944e-003
9.439788e-003
9.439438e-003
9.438716e-003
9.437319e-003
9.434754e-003
9.430263e-003
9.422751e-003
9.410772e-003
9.392671e-003
9.367087e-003
9.334114e-003
9.297482e-003
9.267998e-003
9.268003e-003
9.335821e-003
9.528340e-003
9.919608e-003
1.059412e-002
1.163520e-002
1.311096e-002
1.506150e-002
1.749093e-002
2.036624e-002
2.362265e-002
2.717358e-002
3.092222e-002
3.477218e-002
3.863552e-002
4.243758e-002
4.611893e-002
4.963541e-002
5.295674e-002
5.606456e-002
5.895006e-002
6.161147e-002
6.405153e-002
6.627517e-002
6.828750e-002
7.009220e-002
7.169038e-002
7.307991e-002
7.425505e-002
7.520634e-002
7.592064e-002
7.638124e-002
7.656798e-002
7.645734e-002
7.602259e-002
7.523398e-002
7.405920e-002
7.246431e-002
7.041536e-002
6.788108e-002
6.483715e-002
6.127200e-002
5.719440e-002
5.264203e-002
4.768973e-002
4.245521e-002
3.709921e-002
3.181737e-002
2.682228e-002
2.231674e-002
1.846339e-002
1.535851e-002
1.301833e-002
1.138278e-002
1.033540e-002
9.732588e-003
9.432524e-003
9.316070e-003
9.296280e-003
9.317814e-003
9.350318e-003
9.380037e-003
9.402576e-003
9.417926e-003
9.427622e-003
9.433389e-003
9.436640e-003
9.438379e-003
9.439259e-003
9.439675e-003
9.439855e-003
9.439923e-003
9.439942e-003
9.439942e-003
9.439936e-003
9.439931e-003
9.439927e-003
9.439924e-003
9.439922e-003
9.439921e-003
9.439920e-003
9.439920e-003
9.439920e-003
9.440047e-003
9.440030e-003
9.439976e-003
9.439839e-003
9.439523e-003
9.438855e-003
9.437527e-003
9.435027e-003
9.430534e-003
9.422824e-003
9.410210e-003
9.390685e-003
9.362518e-003
9.325831e-003
9.285867e-003
9.258666e-003
9.279273e-003
9.411130e-003
9.753330e-003
1.044092e-002
1.163394e-002
1.349429e-002
1.615443e-002
1.968677e-002
2.408345e-002
2.925337e-002
3.503670e-002
4.123150e-002
4.762398e-002
5.401470e-002
6.023625e-002
6.616151e-002
7.170413e-002
7.681408e-002
8.147072e-002
8.567544e-002
8.944480e-002
9.280473e-002
9.578590e-002
9.842014e-002
1.007379e-001
1.027663e-001
1.045282e-001
1.060419e-001
1.073203e-001
1.083715e-001
1.091987e-001
1.098001e-001
1.101691e-001
1.102935e-001
1.101555e-001
1.097302e-001
1.089848e-001
1.078777e-001
1.063570e-001
1.043599e-001
1.018134e-001
9.863626e-002
9.474434e-002
9.005997e-002
8.452647e-002
7.812807e-002
7.091359e-002
6.301926e-002
5.468274e-002
4.623839e-002
3.808605e-002
3.063341e-002
2.422362e-002
1.907017e-002
1.522252e-002
1.257487e-002
1.091246e-002
9.975224e-003
9.515540e-003
9.334734e-003
9.295141e-003
9.313912e-003
9.348206e-003
9.379803e-003
9.403328e-003
9.418937e-003
9.428516e-003
9.434044e-003
9.437065e-003
9.438630e-003