# vtk DataFile Version 3.0
vtk output
ASCII
DATASET STRUCTURED_POINTS
DIMENSIONS 100 100 1
SPACING 1 1 1
ORIGIN 0 0 0
POINT_DATA 10000
SCALARS SFBox_profile double
LOOKUP_TABLE default 
9.439922e-003
9.439922e-003
9.439923e-003
9.439925e-003
9.439927e-003
9.439931e-003
9.439935e-003
9.439942e-003
9.439950e-003
9.439959e-003
9.439970e-003
9.439979e-003
9.439986e-003
9.439984e-003
9.439970e-003
9.439933e-003
9.439865e-003
9.439751e-003
9.439578e-003
9.439330e-003
9.438993e-003
9.438550e-003
9.437992e-003
9.437308e-003
9.436496e-003
9.435557e-003
9.434495e-003
9.433321e-003
9.432048e-003
9.430693e-003
9.429273e-003
9.427807e-003
9.426311e-003
9.424804e-003
9.423300e-003
9.421812e-003
9.420352e-003
9.418928e-003
9.417548e-003
9.416218e-003
9.414941e-003
9.413718e-003
9.412553e-003
9.411443e-003
9.410389e-003
9.409390e-003
9.408445e-003
9.407555e-003
9.406721e-003
9.405945e-003
9.405232e-003
9.404590e-003
9.404027e-003
9.403554e-003
9.403187e-003
9.402942e-003
9.402836e-003
9.402890e-003
9.403125e-003
9.403560e-003
9.404215e-003
9.405104e-003
9.406239e-003
9.407626e-003
9.409260e-003
9.411129e-003
9.413212e-003
9.415474e-003
9.417872e-003
9.420354e-003
9.422860e-003
9.425329e-003
9.427700e-003
9.429916e-003
9.431931e-003
9.433711e-003
9.435237e-003
9.436502e-003
9.437517e-003
9.438302e-003
9.438886e-003
9.439303e-003
9.439585e-003
9.439766e-003
9.439874e-003
9.439932e-003
9.439958e-003
9.439964e-003
9.439961e-003
9.439954e-003
9.439946e-003
9.439939e-003
9.439933e-003
9.439928e-003
9.439925e-003
9.439923e-003
9.439922e-003
9.439921e-003
9.439921e-003
9.439920e-003
9.439922e-003
9.439922e-003
9.439923e-003
9.439925e-003
9.439927e-003
9.439931e-003
9.439935e-003
9.439942e-003
9.439950e-003
9.439959e-003
9.439970e-003
9.439979e-003
9.439986e-003
9.439984e-003
9.439970e-003
9.439933e-003
9.439865e-003
9.439751e-003
9.439578e-003
9.439330e-003
9.438993e-003
9.438550e-003
9.437992e-003
9.437308e-003
9.436496e-003
9.435557e-003
9.434495e-003
9.433321e-003
9.432048e-003
9.430693e-003
9.429273e-003
9.427807e-003
9.426311e-003
9.424804e-003
9.423300e-003
9.421812e-003
9.420352e-003
9.418928e-003
9.417548e-003
9.416218e-003
9.414941e-003
9.413718e-003
9.412553e-003
9.411443e-003
9.410389e-003
9.409390e-003
9.408445e-003
9.407555e-003
9.406721e-003
9.405945e-003
9.405232e-003
9.404590e-003
9.404027e-003
9.403554e-003
9.403187e-003
9.402942e-003
9.402836e-003
9.402890e-003
9.403125e-003
9.403560e-003
9.404215e-003
9.405104e-003
9.406239e-003
9.407626e-003
9.409260e-003
9.411129e-003
9.413212e-003
9.415474e-003
9.417872e-003
9.420354e-003
9.422860e-003
9.425329e-003
9.427700e-003
9.429916e-003
9.431931e-003
9.433711e-003
9.435237e-003
9.436502e-003
9.437517e-003
9.438302e-003
9.438886e-003
9.439303e-003
9.439585e-003
9.439766e-003
9.439874e-003
9.439932e-003
9.439958e-003
9.439964e-003
9.439961e-003
9.439954e-003
9.439946e-003
9.439939e-003
9.439933e-003
9.439928e-003
9.439925e-003
9.439923e-003
9.439922e-003
9.439921e-003
9.439921e-003
9.439920e-003
9.439923e-003
9.439923e-003
9.439925e-003
9.439927e-003
9.439930e-003
9.439934e-003
9.439939e-003
9.439946e-003
9.439955e-003
9.439963e-003
9.439970e-003
9.439973e-003
9.439965e-003
9.439940e-003
9.439886e-003
9.439789e-003
9.439631e-003
9.439392e-003
9.439047e-003
9.438573e-003
9.437945e-003
9.437144e-003
9.436153e-003
9.434963e-003
9.433572e-003
9.431987e-003
9.430221e-003
9.428294e-003
9.426232e-003
9.424062e-003
9.421814e-003
9.419518e-003
9.417201e-003
9.414888e-003
9.412601e-003
9.410358e-003
9.408176e-003
9.406064e-003
9.404033e-003
9.402089e-003
9.400233e-003
9.398469e-003
9.396795e-003
9.395210e-003
9.393713e-003
9.392301e-003
9.390972e-003
9.389726e-003
9.388564e-003
9.387489e-003
9.386508e-003
9.385628e-003
9.384861e-003
9.384225e-003
9.383736e-003
9.383417e-003
9.383294e-003
9.383392e-003
9.383740e-003
9.384366e-003
9.385297e-003
9.386556e-003
9.388161e-003
9.390125e-003
9.392447e-003
9.395118e-003
9.398112e-003
9.401391e-003
9.404901e-003
9.408572e-003
9.412323e-003
9.416066e-003
9.419708e-003
9.423161e-003
9.426346e-003
9.429202e-003
9.431687e-003
9.433782e-003
9.435491e-003
9.436838e-003
9.437862e-003
9.438610e-003
9.439134e-003
9.439484e-003
9.439706e-003
9.439837e-003
9.439908e-003
9.439942e-003
9.439953e-003
9.439953e-003
9.439948e-003
9.439941e-003
9.439935e-003
9.439930e-003
9.439927e-003
9.439924e-003
9.439922e-003
9.439921e-003
9.439921e-003
9.439921e-003
9.439925e-003
9.439926e-003
9.439927e-003
9.439930e-003
9.439934e-003
9.439940e-003
9.439947e-003
9.439955e-003
9.439962e-003
9.439966e-003
9.439962e-003
9.439943e-003
9.439895e-003
9.439803e-003
9.439642e-003
9.439384e-003
9.438991e-003
9.438423e-003
9.437634e-003
9.436579e-003
9.435218e-003
9.433517e-003
9.431455e-003
9.429024e-003
9.426232e-003
9.423104e-003
9.419677e-003
9.416000e-003
9.412129e-003
9.408122e-003
9.404038e-003
9.399930e-003
9.395847e-003
9.391833e-003
9.387921e-003
9.384139e-003
9.380508e-003
9.377041e-003
9.373747e-003
9.370630e-003
9.367689e-003
9.364922e-003
9.362324e-003
9.359888e-003
9.357608e-003
9.355479e-003
9.353494e-003
9.351652e-003
9.349952e-003
9.348397e-003
9.346994e-003
9.345755e-003
9.344694e-003
9.343833e-003
9.343195e-003
9.342810e-003
9.342710e-003
9.342933e-003
9.343517e-003
9.344501e-003
9.345926e-003
9.347830e-003
9.350247e-003
9.353205e-003
9.356720e-003
9.360798e-003
9.365426e-003
9.370568e-003
9.376168e-003
9.382140e-003
9.388371e-003
9.394726e-003
9.401051e-003
9.407185e-003
9.412972e-003
9.418276e-003
9.422989e-003
9.427046e-003
9.430423e-003
9.433139e-003
9.435247e-003
9.436823e-003
9.437956e-003
9.438737e-003
9.439253e-003
9.439576e-003
9.439767e-003
9.439871e-003
9.439922e-003
9.439943e-003
9.439948e-003
9.439945e-003
9.439939e-003
9.439934e-003
9.439929e-003
9.439926e-003
9.439924e-003
9.439922e-003
9.439921e-003
9.439921e-003
9.439928e-003
9.439930e-003
9.439932e-003
9.439936e-003
9.439942e-003
9.439949e-003
9.439957e-003
9.439964e-003
9.439965e-003
9.439955e-003
9.439921e-003
9.439845e-003
9.439702e-003
9.439453e-003
9.439049e-003
9.438430e-003
9.437520e-003
9.436239e-003
9.434501e-003
9.432225e-003
9.429343e-003
9.425808e-003
9.421602e-003
9.416738e-003
9.411265e-003
9.405261e-003
9.398827e-003
9.392079e-003
9.385142e-003
9.378135e-003
9.371168e-003
9.364338e-003
9.357725e-003
9.351391e-003
9.345380e-003
9.339721e-003
9.334431e-003
9.329512e-003
9.324959e-003
9.320759e-003
9.316895e-003
9.313347e-003
9.310095e-003
9.307120e-003
9.304403e-003
9.301929e-003
9.299686e-003
9.297665e-003
9.295861e-003
9.294275e-003
9.292908e-003
9.291766e-003
9.290861e-003
9.290206e-003
9.289818e-003
9.289715e-003
9.289922e-003
9.290465e-003
9.291373e-003
9.292682e-003
9.294433e-003
9.296674e-003
9.299461e-003
9.302855e-003
9.306925e-003
9.311740e-003
9.317364e-003
9.323843e-003
9.331196e-003
9.339396e-003
9.348357e-003
9.357927e-003
9.367890e-003
9.377971e-003
9.387867e-003
9.397268e-003
9.405901e-003
9.413553e-003
9.420093e-003
9.425479e-003
9.429750e-003
9.433010e-003
9.435404e-003
9.437091e-003
9.438233e-003
9.438972e-003
9.439427e-003
9.439692e-003
9.439836e-003
9.439907e-003
9.439937e-003
9.439945e-003
9.439944e-003
9.439939e-003
9.439933e-003
9.439929e-003
9.439926e-003
9.439924e-003
9.439922e-003
9.439922e-003
9.439934e-003
9.439936e-003
9.439940e-003
9.439945e-003
9.439953e-003
9.439961e-003
9.439967e-003
9.439966e-003
9.439950e-003
9.439901e-003
9.439794e-003
9.439590e-003
9.439232e-003
9.438645e-003
9.437726e-003
9.436354e-003
9.434386e-003
9.431670e-003
9.428055e-003
9.423413e-003
9.417656e-003
9.410751e-003
9.402736e-003
9.393726e-003
9.383899e-003
9.373490e-003
9.362763e-003
9.351992e-003
9.341435e-003
9.331319e-003
9.321828e-003
9.313099e-003
9.305223e-003
9.298247e-003
9.292183e-003
9.287010e-003
9.282686e-003
9.279147e-003
9.276322e-003
9.274132e-003
9.272498e-003
9.271349e-003
9.270618e-003
9.270252e-003
9.270208e-003
9.270451e-003
9.270955e-003
9.271700e-003
9.272669e-003
9.273844e-003
9.275203e-003
9.276719e-003
9.278357e-003
9.280072e-003
9.281805e-003
9.283491e-003
9.285055e-003
9.286417e-003
9.287502e-003
9.288246e-003
9.288610e-003
9.288594e-003
9.288249e-003
9.287697e-003
9.287137e-003
9.286849e-003
9.287188e-003
9.288555e-003
9.291361e-003
9.295970e-003
9.302634e-003
9.311439e-003
9.322257e-003
9.334745e-003
9.348369e-003
9.362467e-003
9.376343e-003
9.389355e-003
9.400999e-003
9.410955e-003
9.419100e-003
9.425480e-003
9.430272e-003
9.433723e-003
9.436106e-003
9.437683e-003
9.438681e-003
9.439282e-003
9.439625e-003
9.439807e-003
9.439896e-003
9.439933e-003
9.439944e-003
9.439943e-003
9.439938e-003
9.439933e-003
9.439929e-003
9.439926e-003
9.439924e-003
9.439923e-003
9.439942e-003
9.439945e-003
9.439950e-003
9.439957e-003
9.439965e-003
9.439971e-003
9.439969e-003
9.439946e-003
9.439883e-003
9.439744e-003
9.439475e-003
9.438996e-003
9.438194e-003
9.436914e-003
9.434963e-003
9.432109e-003
9.428095e-003
9.422664e-003
9.415596e-003
9.406745e-003
9.396088e-003
9.383759e-003
9.370061e-003
9.355461e-003
9.340550e-003
9.325987e-003
9.312433e-003
9.300490e-003
9.290650e-003
9.283265e-003
9.278540e-003
9.276543e-003
9.277224e-003
9.280438e-003
9.285977e-003
9.293579e-003
9.302958e-003
9.313811e-003
9.325837e-003
9.338752e-003
9.352299e-003
9.366260e-003
9.380461e-003
9.394770e-003
9.409095e-003
9.423377e-003
9.437573e-003
9.451647e-003
9.465555e-003
9.479232e-003
9.492574e-003
9.505433e-003
9.517603e-003
9.528812e-003
9.538726e-003
9.546943e-003
9.553007e-003
9.556424e-003
9.556686e-003
9.553307e-003
9.545872e-003
9.534090e-003
9.517862e-003
9.497347e-003
9.473022e-003
9.445725e-003
9.416661e-003
9.387366e-003
9.359601e-003
9.335188e-003
9.315803e-003
9.302748e-003
9.296751e-003
9.297844e-003
9.305346e-003
9.317972e-003
9.334041e-003
9.351750e-003
9.369437e-003
9.385794e-003
9.399966e-003
9.411558e-003
9.420557e-003
9.427213e-003
9.431914e-003
9.435091e-003
9.437145e-003
9.438412e-003
9.439158e-003
9.439572e-003
9.439787e-003
9.439890e-003
9.439931e-003
9.439943e-003
9.439943e-003
9.439938e-003
9.439933e-003
9.439929e-003
9.439926e-003
9.439924e-003
9.439954e-003
9.439958e-003
9.439964e-003
9.439971e-003
9.439977e-003
9.439973e-003
9.439946e-003
9.439870e-003
9.439702e-003
9.439371e-003
9.438768e-003
9.437736e-003
9.436055e-003
9.433434e-003
9.429519e-003
9.423906e-003
9.416185e-003
9.406007e-003
9.393180e-003
9.377775e-003
9.360221e-003
9.341360e-003
9.322442e-003
9.305042e-003
9.290904e-003
9.281756e-003
9.279125e-003
9.284182e-003
9.297652e-003
9.319792e-003
9.350428e-003
9.389031e-003
9.434817e-003
9.486838e-003
9.544064e-003
9.605432e-003
9.669894e-003
9.736449e-003
9.804168e-003
9.872230e-003
9.939939e-003
1.000674e-002
1.007225e-002
1.013618e-002
1.019840e-002
1.025885e-002
1.031750e-002
1.037433e-002
1.042927e-002
1.048213e-002
1.053262e-002
1.058024e-002
1.062432e-002
1.066393e-002
1.069794e-002
1.072499e-002
1.074349e-002
1.075173e-002
1.074789e-002
1.073018e-002
1.069696e-002
1.064691e-002
1.057921e-002
1.049379e-002
1.039155e-002
1.027448e-002
1.014584e-002
1.001008e-002
9.872690e-003
9.739762e-003
9.617445e-003
9.511249e-003
9.425360e-003
9.362083e-003
9.321565e-003
9.301852e-003
9.299307e-003
9.309295e-003
9.326973e-003
9.347998e-003
9.369015e-003
9.387836e-003
9.403367e-003
9.415358e-003
9.424101e-003
9.430159e-003
9.434161e-003
9.436684e-003
9.438202e-003
9.439071e-003
9.439542e-003
9.439779e-003
9.439889e-003
9.439932e-003
9.439944e-003
9.439942e-003
9.439937e-003
9.439932e-003
9.439929e-003
9.439927e-003
9.439970e-003
9.439974e-003
9.439980e-003
9.439985e-003
9.439980e-003
9.439950e-003
9.439866e-003
9.439675e-003
9.439291e-003
9.438576e-003
9.437324e-003
9.435235e-003
9.431906e-003
9.426822e-003
9.419385e-003
9.408980e-003
9.395109e-003
9.377580e-003
9.356764e-003
9.333851e-003
9.311037e-003
9.291567e-003
9.279563e-003
9.279656e-003
9.296462e-003
9.334035e-003
9.395396e-003
9.482233e-003
9.594804e-003
9.732044e-003
9.891811e-003
1.007121e-002
1.026693e-002
1.047551e-002
1.069354e-002
1.091780e-002
1.114532e-002
1.137342e-002
1.159976e-002
1.182236e-002
1.203966e-002
1.225052e-002
1.245422e-002
1.265037e-002
1.283892e-002
1.301998e-002
1.319374e-002
1.336033e-002
1.351973e-002
1.367160e-002
1.381521e-002
1.394935e-002
1.407223e-002
1.418146e-002
1.427400e-002
1.434621e-002
1.439384e-002
1.441220e-002
1.439626e-002
1.434092e-002
1.424132e-002
1.409319e-002
1.389342e-002
1.364057e-002
1.333550e-002
1.298193e-002
1.258690e-002
1.216098e-002
1.171800e-002
1.127438e-002
1.084780e-002
1.045554e-002
1.011247e-002
9.829283e-003
9.611135e-003
9.457170e-003
9.361029e-003
9.312287e-003
9.298475e-003
9.307188e-003
9.327767e-003
9.352264e-003
9.375623e-003
9.395265e-003
9.410394e-003
9.421277e-003
9.428667e-003
9.433435e-003
9.436365e-003
9.438081e-003
9.439037e-003
9.439538e-003
9.439784e-003
9.439893e-003
9.439934e-003
9.439944e-003
9.439942e-003
9.439937e-003
9.439933e-003
9.439930e-003
9.439991e-003
9.439994e-003
9.439996e-003
9.439991e-003
9.439960e-003
9.439871e-003
9.439667e-003
9.439247e-003
9.438447e-003
9.437011e-003
9.434557e-003
9.430551e-003
9.424293e-003
9.414945e-003
9.401641e-003
9.383710e-003
9.361070e-003
9.334773e-003
9.307654e-003
9.284888e-003
9.274262e-003
9.285934e-003
9.331600e-003
9.423182e-003
9.571296e-003
9.783851e-003
1.006509e-002
1.041519e-002
1.083055e-002
1.130440e-002
1.182784e-002
1.239083e-002
1.298310e-002
1.359484e-002
1.421707e-002
1.484185e-002
1.546231e-002
1.607260e-002
1.666794e-002
1.724456e-002
1.779973e-002
1.833174e-002
1.883980e-002
1.932394e-002
1.978476e-002
2.022322e-002
2.064035e-002
2.103700e-002
2.141351e-002
2.176951e-002
2.210369e-002
2.241357e-002
2.269539e-002
2.294402e-002
2.315287e-002
2.331392e-002
2.341780e-002
2.345397e-002
2.341097e-002
2.327686e-002
2.303975e-002
2.268862e-002
2.221422e-002
2.161035e-002
2.087518e-002
2.001278e-002
1.903449e-002
1.795996e-002
1.681751e-002
1.564332e-002
1.447938e-002
1.337009e-002
1.235767e-002
1.147726e-002
1.075243e-002
1.019229e-002
9.790895e-003
9.529377e-003
9.380235e-003
9.312692e-003
9.297717e-003
9.311561e-003
9.337292e-003
9.364537e-003
9.388102e-003
9.406236e-003
9.419093e-003
9.427640e-003
9.433019e-003
9.436237e-003
9.438069e-003
9.439058e-003
9.439562e-003
9.439800e-003
9.439901e-003
9.439937e-003
9.439944e-003
9.439942e-003
9.439938e-003
9.439935e-003
9.440014e-003
9.440013e-003
9.440006e-003
9.439975e-003
9.439887e-003
9.439682e-003
9.439248e-003
9.438401e-003
9.436841e-003
9.434110e-003
9.429542e-003
9.422235e-003
9.411080e-003
9.394908e-003
9.372863e-003
9.345106e-003
9.313917e-003
9.285138e-003
9.269663e-003
9.284436e-003
9.352377e-003
9.500802e-003
9.758393e-003
1.015130e-002
1.069923e-002
1.141263e-002
1.229127e-002
1.332476e-002
1.449431e-002
1.577544e-002
1.714089e-002
1.856323e-002
2.001686e-002
2.147922e-002
2.293130e-002
2.435757e-002
2.574569e-002
2.708608e-002
2.837168e-002
2.959767e-002
3.076134e-002
3.186191e-002
3.290027e-002
3.387862e-002
3.480011e-002
3.566826e-002
3.648653e-002
3.725776e-002
3.798370e-002
3.866461e-002
3.929886e-002
3.988264e-002
4.040972e-002
4.087131e-002
4.125596e-002
4.154952e-002
4.173528e-002
4.179411e-002
4.170475e-002
4.144436e-002
4.098921e-002
4.031573e-002
3.940189e-002
3.822917e-002
3.678502e-002
3.506579e-002
3.308014e-002
3.085229e-002
2.842470e-002
2.585913e-002
2.323539e-002
2.064674e-002
1.819203e-002
1.596484e-002
1.404151e-002
1.247045e-002
1.126581e-002
1.040732e-002
9.846922e-003
9.520072e-003
9.358595e-003
9.301438e-003
9.301132e-003
9.325486e-003
9.355693e-003
9.382689e-003
9.403405e-003
9.417847e-003
9.427226e-003
9.432975e-003
9.436318e-003
9.438165e-003
9.439133e-003
9.439609e-003
9.439825e-003
9.439912e-003
9.439941e-003
9.439946e-003
9.439943e-003
9.439941e-003
9.440036e-003
9.440027e-003
9.439997e-003
9.439914e-003
9.439717e-003
9.439292e-003
9.438443e-003
9.436838e-003
9.433958e-003
9.429018e-003
9.420920e-003
9.408266e-003
9.389548e-003
9.363686e-003
9.331176e-003
9.296079e-003
9.268917e-003
9.270075e-003
9.332701e-003
9.503617e-003
9.840907e-003
1.040768e-002
1.126292e-002
1.245166e-002
1.399692e-002
1.589575e-002
1.811987e-002
2.062047e-002
2.333542e-002
2.619709e-002
2.913929e-002
3.210240e-002
3.503635e-002
3.790164e-002
4.066884e-002
4.331723e-002
4.583314e-002
4.820849e-002
5.043959e-002
5.252638e-002
5.447177e-002
5.628117e-002
5.796192e-002
5.952271e-002
6.097283e-002
6.232154e-002
6.357731e-002
6.474716e-002
6.583607e-002
6.684650e-002
6.777792e-002
6.862654e-002
6.938507e-002
7.004256e-002
7.058427e-002
7.099163e-002
7.124220e-002
7.130971e-002
7.116409e-002
7.077163e-002
7.009533e-002
6.909549e-002
6.773079e-002
6.596010e-002
6.374529e-002
6.105537e-002
5.787210e-002
5.419709e-002
5.005974e-002
4.552489e-002
4.069829e-002
3.572719e-002
3.079355e-002
2.609801e-002
2.183543e-002
1.816620e-002
1.519037e-002
1.293287e-002
1.134498e-002
1.032175e-002
9.729223e-003
9.432454e-003
9.316447e-003
9.296321e-003
9.317537e-003
9.349914e-003
9.379651e-003
9.402273e-003
9.417715e-003
9.427488e-003
9.433309e-003
9.436595e-003
9.438356e-003
9.439247e-003
9.439670e-003
9.439854e-003
9.439925e-003
9.439946e-003
9.439949e-003
9.439948e-003
9.440049e-003
9.440023e-003
9.439949e-003
9.439769e-003
9.439374e-003
9.438565e-003
9.437000e-003
9.434118e-003
9.429048e-003
9.420525e-003
9.406874e-003
9.386217e-003
9.357173e-003
9.320521e-003
9.282386e-003
9.259381e-003
9.285413e-003
9.418556e-003
9.745002e-003
1.037652e-002
1.143906e-002
1.305330e-002
1.531136e-002
1.825658e-002
2.187243e-002
2.608390e-002
3.077004e-002
3.578328e-002
4.096980e-002
4.618662e-002
5.131299e-002
5.625569e-002
6.094940e-002
6.535365e-002
6.944808e-002
7.322735e-002
7.669653e-002
7.986758e-002
8.275676e-002
8.538296e-002
8.776654e-002
8.992854e-002
9.189000e-002
9.367129e-002
9.529160e-002
9.676831e-002
9.811657e-002
9.934882e-002
1.004745e-001
1.014998e-001
1.024275e-001
1.032570e-001
1.039842e-001
1.046013e-001
1.050971e-001
1.054565e-001
1.056608e-001
1.056866e-001
1.055059e-001
1.050852e-001
1.043843e-001
1.033557e-001
1.019438e-001
1.000839e-001
9.770315e-002
9.472235e-002
9.106069e-002
8.664417e-002
8.141867e-002
7.536809e-002
6.853596e-002
6.104683e-002
5.312005e-002
4.506698e-002
3.726392e-002
3.009979e-002
2.390819e-002
1.890403e-002
1.514737e-002
1.254798e-002
1.090684e-002
9.976491e-003
9.517557e-003
9.335755e-003
9.295208e-003
9.313489e-003
9.347667e-003
9.379336e-003
9.402989e-003
9.418716e-003
9.428383e-003
9.433970e-003
9.437026e-003
9.438611e-003
9.439385e-003
9.439738e-003
9.439884e-003
9.439937e-003
9.439952e-003
9.439955e-003
9.440041e-003
9.439984e-003
9.439829e-003
9.439480e-003
9.438748e-003
9.437297e-003
9.434559e-003
9.429619e-003
9.421095e-003
9.407083e-003
9.385333e-003
9.354049e-003
9.314019e-003
9.273137e-003
9.254451e-003
9.308060e-003
9.524980e-003
1.004790e-002
1.107111e-002
1.282240e-002
1.552515e-002
1.934784e-002
2.435640e-002
3.048685e-002
3.754911e-002
4.526039e-002
5.329569e-002
6.133871e-002
6.912061e-002
7.644064e-002
8.317027e-002
8.924529e-002
9.465200e-002
9.941213e-002
1.035696e-001
1.071800e-001
1.103034e-001
1.129993e-001
1.153239e-001
1.173284e-001
1.190584e-001
1.205540e-001
1.218499e-001
1.229755e-001
1.239559e-001
1.248119e-001
1.255605e-001
1.262155e-001
1.267875e-001
1.272845e-001
1.277124e-001
1.280747e-001
1.283733e-001
1.286083e-001
1.287780e-001
1.288789e-001
1.289055e-001
1.288493e-001
1.286985e-001
1.284364e-001
1.280400e-001
1.274776e-001
1.267059e-001
1.256666e-001
1.242815e-001
1.224479e-001
1.200347e-001
1.168806e-001
1.127979e-001
1.075881e-001
1.010726e-001
9.314309e-002
8.382484e-002
7.333735e-002
6.212420e-002
5.082421e-002
4.017031e-002
3.083533e-002
2.327918e-002
1.766013e-002
1.384408e-002
1.149623e-002
1.020522e-002
9.588261e-003
9.350003e-003
9.295371e-003
9.313137e-003
9.349109e-003
9.381776e-003
9.405453e-003
9.420703e-003
9.429780e-003
9.434859e-003
9.437548e-003
9.438894e-003
9.439527e-003
9.439804e-003
9.439913e-003
9.439950e-003
9.439960e-003
9.439991e-003
9.439881e-003
9.439591e-003
9.438962e-003
9.437683e-003
9.435210e-003
9.430634e-003
9.422532e-003
9.408847e-003
9.386999e-003
9.354670e-003
9.312201e-003
9.268255e-003
9.250910e-003
9.325881e-003
9.620661e-003
1.034758e-002
1.181185e-002
1.438754e-002
1.845112e-002
2.428061e-002
3.195171e-002
4.127530e-002
5.180944e-002
6.294601e-002
7.403773e-002
8.451777e-002
9.397661e-002
1.021859e-001
1.090802e-001
1.147153e-001
1.192208e-001
1.227595e-001
1.254988e-001
1.275949e-001
1.291845e-001
1.303827e-001
1.312829e-001
1.319590e-001
1.324675e-001
1.328511e-001
1.331412e-001
1.333609e-001
1.335272e-001
1.336523e-001
1.337454e-001
1.338134e-001
1.338615e-001
1.338940e-001
1.339141e-001
1.339245e-001
1.339274e-001
1.339246e-001
1.339174e-001
1.339066e-001
1.338924e-001
1.338743e-001
1.338508e-001
1.338192e-001
1.337752e-001
1.337122e-001
1.336207e-001
1.334867e-001
1.332902e-001
1.330013e-001
1.325759e-001
1.319462e-001
1.310076e-001
1.295975e-001
1.274709e-001
1.242814e-001
1.195909e-001
1.129353e-001
1.039617e-001
9.261550e-002
7.930474e-002
6.493791e-002
5.076251e-002
3.803661e-002
2.767570e-002
2.004457e-002
1.497433e-002
1.195110e-002
1.035151e-002
9.620267e-003
9.352113e-003
9.295531e-003
9.316423e-003
9.354121e-003
9.386680e-003
9.409336e-003
9.423400e-003
9.431485e-003
9.435857e-003
9.438093e-003
9.439172e-003
9.439660e-003
9.439863e-003
9.439939e-003
9.439963e-003
9.439871e-003
9.439674e-003
9.439170e-003
9.438099e-003
9.435974e-003
9.431943e-003
9.424618e-003
9.411900e-003
9.390977e-003
9.358971e-003
9.315298e-003
9.267893e-003
9.246677e-003
9.328065e-003
9.671513e-003
1.056088e-002
1.242980e-002
1.583823e-002
2.136956e-002
2.944803e-002
4.013001e-002
5.296977e-002
6.705192e-002
8.120333e-002
9.429615e-002
1.055079e-001
1.144448e-001
1.211153e-001
1.258078e-001
1.289418e-001
1.309464e-001
1.321861e-001
1.329356e-001
1.333849e-001
1.336582e-001
1.338324e-001
1.339516e-001
1.340387e-001
1.341032e-001
1.341476e-001
1.341718e-001
1.341753e-001
1.341587e-001
1.341235e-001
1.340725e-001
1.340087e-001
1.339357e-001
1.338568e-001
1.337753e-001
1.336945e-001
1.336176e-001
1.335481e-001
1.334897e-001
1.334466e-001
1.334238e-001
1.334265e-001
1.334605e-001
1.335318e-001
1.336454e-001
1.338052e-001
1.340117e-001
1.342602e-001
1.345380e-001
1.348215e-001
1.350730e-001
1.352398e-001
1.352579e-001
1.350605e-001
1.345918e-001
1.338113e-001
1.326652e-001
1.310027e-001
1.284460e-001
1.242919e-001
1.175855e-001
1.074854e-001
9.382268e-002
7.748830e-002
6.030129e-002
4.436667e-002
3.130688e-002
2.181116e-002
1.567249e-002
1.214923e-002
1.037046e-002
9.602020e-003
9.341132e-003
9.296413e-003
9.323496e-003
9.362295e-003
9.393478e-003
9.414141e-003
9.426460e-003
9.433286e-003
9.436847e-003
9.438604e-003
9.439419e-003
9.439772e-003
9.439912e-003
9.439958e-003
9.439642e-003
9.439312e-003
9.438480e-003
9.436748e-003
9.433368e-003
9.427066e-003
9.415816e-003
9.396730e-003
9.366455e-003
9.323179e-003
9.272631e-003
9.242464e-003
9.311203e-003
9.656616e-003
1.061926e-002
1.275636e-002
1.683399e-002
2.369191e-002
3.394967e-002
4.762440e-002
6.385752e-002
8.098122e-002
9.699506e-002
1.102445e-001
1.199356e-001
1.262248e-001
1.299026e-001
1.319243e-001
1.330615e-001
1.337759e-001
1.342599e-001
1.345477e-001
1.346199e-001
1.344646e-001
1.340950e-001
1.335431e-001
1.328480e-001
1.320475e-001
1.311748e-001
1.302579e-001
1.293192e-001
1.283769e-001
1.274449e-001
1.265335e-001
1.256501e-001
1.247994e-001
1.239847e-001
1.232082e-001
1.224723e-001
1.217796e-001
1.211345e-001
1.205427e-001
1.200127e-001
1.195557e-001
1.191857e-001
1.189202e-001
1.187800e-001
1.187893e-001
1.189754e-001
1.193678e-001
1.199976e-001
1.208950e-001
1.220859e-001
1.235865e-001
1.253943e-001
1.274761e-001
1.297516e-001
1.320752e-001
1.342212e-001
1.358856e-001
1.367296e-001
1.364891e-001
1.351255e-001
1.328358e-001
1.296672e-001
1.248788e-001
1.168544e-001
1.041518e-001
8.695403e-002
6.745579e-002
4.878620e-002
3.347017e-002
2.256359e-002
1.576095e-002
1.203461e-002
1.025641e-002
9.540430e-003
9.322731e-003
9.300222e-003
9.334388e-003
9.372890e-003
9.401393e-003
9.419304e-003
9.429538e-003
9.434995e-003
9.437739e-003
9.439042e-003
9.439622e-003
9.439860e-003
9.439942e-003
9.439257e-003
9.438731e-003
9.437422e-003
9.434735e-003
9.429574e-003
9.420103e-003
9.403531e-003
9.376242e-003
9.335217e-003
9.283071e-003
9.241542e-003
9.281541e-003
9.579222e-003
1.050048e-002
1.269180e-002
1.711077e-002
2.488525e-002
3.690429e-002
5.319120e-002
7.237934e-002
9.179466e-002
1.084115e-001
1.202583e-001
1.272814e-001
1.309475e-001
1.329711e-001
1.343151e-001
1.351038e-001
1.351195e-001
1.342335e-001
1.325142e-001
1.301525e-001
1.273689e-001
1.243599e-001
1.212783e-001
1.182319e-001
1.152908e-001
1.124970e-001
1.098726e-001
1.074267e-001
1.051597e-001
1.030663e-001
1.011372e-001
9.936104e-002
9.772515e-002
9.621692e-002
9.482461e-002
9.353813e-002
9.234979e-002
9.125476e-002
9.025155e-002
8.934239e-002
8.853342e-002
8.783504e-002
8.726209e-002
8.683414e-002
8.657583e-002
8.651731e-002
8.669479e-002
8.715130e-002
8.793737e-002
8.911180e-002
9.074191e-002
9.290284e-002
9.567469e-002
9.913575e-002
1.033489e-001
1.083369e-001
1.140416e-001
1.202614e-001
1.265723e-001
1.322631e-001
1.363710e-001
1.379654e-001
1.367351e-001
1.333939e-001
1.287887e-001
1.219814e-001
1.103682e-001
9.276396e-002
7.143143e-002
5.060449e-002
3.374037e-002
2.212887e-002
1.521814e-002
1.164110e-002
1.004538e-002
9.457310e-003
9.306038e-003
9.309117e-003
9.348591e-003
9.384859e-003
9.409581e-003
9.424299e-003
9.432351e-003
9.436480e-003
9.438478e-003
9.439388e-003
9.439772e-003
9.439908e-003
9.438660e-003
9.437858e-003
9.435881e-003
9.431875e-003
9.424287e-003
9.410596e-003
9.387205e-003
9.350227e-003
9.299114e-003
9.247725e-003
9.251725e-003
9.465567e-003
1.024013e-002
1.225019e-002
1.658482e-002
2.465098e-002
3.769858e-002
5.592198e-002
7.753546e-002
9.873979e-002
1.153554e-001
1.254499e-001
1.304825e-001
1.332822e-001
1.351761e-001
1.356632e-001
1.340140e-001
1.302338e-001
1.249066e-001
1.187533e-001
1.123678e-001
1.061467e-001
1.003145e-001
9.497410e-002
9.015313e-002
8.583671e-002
8.198912e-002
7.856653e-002
7.552396e-002
7.281848e-002
7.041041e-002
6.826354e-002
6.634506e-002
6.462550e-002
6.307864e-002
6.168165e-002
6.041513e-002
5.926321e-002
5.821365e-002
5.725786e-002
5.639090e-002
5.561154e-002
5.492221e-002
5.432906e-002
5.384208e-002
5.347530e-002
5.324714e-002
5.318101e-002
5.330616e-002
5.365899e-002
5.428474e-002
5.523981e-002
5.659479e-002
5.843793e-002
6.087919e-002
6.405374e-002
6.812367e-002
7.327413e-002
7.969743e-002
8.755266e-002
9.688212e-002
1.074628e-001
1.185897e-001
1.288635e-001
1.362403e-001
1.388214e-001
1.364738e-001
1.313479e-001
1.245673e-001
1.133107e-001
9.496983e-002
7.191213e-002
4.955908e-002
3.206978e-002
2.061241e-002
1.418613e-002
1.107749e-002
9.798451e-003
9.378857e-003
9.298942e-003
9.323772e-003
9.364899e-003
9.397016e-003
9.417280e-003
9.428723e-003
9.434719e-003
9.437672e-003
9.439043e-003
9.439634e-003
9.439847e-003
9.437790e-003
9.436615e-003
9.433742e-003
9.427984e-003
9.417228e-003
9.398182e-003
9.366613e-003
9.319518e-003
9.263009e-003
9.234218e-003
9.352051e-003
9.915465e-003
1.155500e-002
1.538960e-002
2.302946e-002
3.614347e-002
5.536818e-002
7.886846e-002
1.018594e-001
1.188201e-001
1.278682e-001
1.321758e-001
1.350383e-001
1.359051e-001
1.329285e-001
1.260003e-001
1.165241e-001
1.061284e-001
9.598523e-002
8.672869e-002
7.860077e-002
7.161548e-002
6.567665e-002
6.064780e-002
5.638861e-002
5.277137e-002
4.968676e-002
4.704419e-002
4.476968e-002
4.280302e-002
4.109487e-002
3.960445e-002
3.829772e-002
3.714608e-002
3.612553e-002
3.521606e-002
3.440122e-002
3.366783e-002
3.300573e-002
3.240761e-002
3.186881e-002
3.138720e-002
3.096309e-002
3.059915e-002
3.030047e-002
3.007465e-002
2.993205e-002
2.988627e-002
2.995480e-002
3.016015e-002
3.053135e-002
3.110623e-002
3.193456e-002
3.308247e-002
3.463848e-002
3.672163e-002
3.949192e-002
4.316276e-002
4.801304e-002
5.439190e-002
6.269958e-002
7.331194e-002
8.639620e-002
1.015616e-001
1.173586e-001
1.309117e-001
1.385264e-001
1.382971e-001
1.328291e-001
1.254876e-001
1.136337e-001
9.370492e-002
6.887980e-002
4.581475e-002
2.879574e-002
1.836227e-002