# vtk DataFile Version 3.0
vtk output
ASCII
DATASET STRUCTURED_POINTS
DIMENSIONS 100 100 1
SPACING 1 1 1
ORIGIN 0 0 0
POINT_DATA 10000
SCALARS SFBox_profile double
LOOKUP_TABLE default 
9.439949e-004
9.439944e-004
9.439937e-004
9.439928e-004
9.439919e-004
9.439913e-004
9.439909e-004
9.439909e-004
9.439912e-004
9.439915e-004
9.439919e-004
9.439923e-004
9.439924e-004
9.439924e-004
9.439923e-004
9.439922e-004
9.439920e-004
9.439919e-004
9.439919e-004
9.439920e-004
9.439922e-004
9.439924e-004
9.439927e-004
9.439930e-004
9.439933e-004
9.439935e-004
9.439936e-004
9.439937e-004
9.439935e-004
9.439932e-004
9.439928e-004
9.439922e-004
9.439917e-004
9.439912e-004
9.439910e-004
9.439909e-004
9.439909e-004
9.439910e-004
9.439912e-004
9.439911e-004
9.439908e-004
9.439901e-004
9.439891e-004
9.439879e-004
9.439864e-004
9.439849e-004
9.439835e-004
9.439823e-004
9.439815e-004
9.439810e-004
9.439808e-004
9.439811e-004
9.439817e-004
9.439826e-004
9.439836e-004
9.439848e-004
9.439859e-004
9.439870e-004
9.439880e-004
9.439888e-004
9.439894e-004
9.439898e-004
9.439900e-004
9.439900e-004
9.439900e-004
9.439899e-004
9.439898e-004
9.439897e-004
9.439898e-004
9.439899e-004
9.439902e-004
9.439905e-004
9.439909e-004
9.439912e-004
9.439915e-004
9.439917e-004
9.439918e-004
9.439918e-004
9.439918e-004
9.439918e-004
9.439918e-004
9.439918e-004
9.439918e-004
9.439919e-004
9.439922e-004
9.439924e-004
9.439927e-004
9.439929e-004
9.439930e-004
9.439930e-004
9.439930e-004
9.439928e-004
9.439925e-004
9.439923e-004
9.439920e-004
9.439918e-004
9.439917e-004
9.439916e-004
9.439915e-004
9.439915e-004
9.439949e-004
9.439944e-004
9.439937e-004
9.439928e-004
9.439919e-004
9.439913e-004
9.439909e-004
9.439909e-004
9.439912e-004
9.439915e-004
9.439919e-004
9.439923e-004
9.439924e-004
9.439924e-004
9.439923e-004
9.439922e-004
9.439920e-004
9.439919e-004
9.439919e-004
9.439920e-004
9.439922e-004
9.439924e-004
9.439927e-004
9.439930e-004
9.439933e-004
9.439935e-004
9.439936e-004
9.439937e-004
9.439935e-004
9.439932e-004
9.439928e-004
9.439922e-004
9.439917e-004
9.439912e-004
9.439910e-004
9.439909e-004
9.439909e-004
9.439910e-004
9.439912e-004
9.439911e-004
9.439908e-004
9.439901e-004
9.439891e-004
9.439879e-004
9.439864e-004
9.439849e-004
9.439835e-004
9.439823e-004
9.439815e-004
9.439810e-004
9.439808e-004
9.439811e-004
9.439817e-004
9.439826e-004
9.439836e-004
9.439848e-004
9.439859e-004
9.439870e-004
9.439880e-004
9.439888e-004
9.439894e-004
9.439898e-004
9.439900e-004
9.439900e-004
9.439900e-004
9.439899e-004
9.439898e-004
9.439897e-004
9.439898e-004
9.439899e-004
9.439902e-004
9.439905e-004
9.439909e-004
9.439912e-004
9.439915e-004
9.439917e-004
9.439918e-004
9.439918e-004
9.439918e-004
9.439918e-004
9.439918e-004
9.439918e-004
9.439918e-004
9.439919e-004
9.439922e-004
9.439924e-004
9.439927e-004
9.439929e-004
9.439930e-004
9.439930e-004
9.439930e-004
9.439928e-004
9.439925e-004
9.439923e-004
9.439920e-004
9.439918e-004
9.439917e-004
9.439916e-004
9.439915e-004
9.439915e-004
9.439941e-004
9.439938e-004
9.439932e-004
9.439926e-004
9.439919e-004
9.439915e-004
9.439913e-004
9.439913e-004
9.439914e-004
9.439917e-004
9.439919e-004
9.439920e-004
9.439921e-004
9.439921e-004
9.439920e-004
9.439920e-004
9.439920e-004
9.439920e-004
9.439922e-004
9.439924e-004
9.439926e-004
9.439928e-004
9.439930e-004
9.439931e-004
9.439932e-004
9.439933e-004
9.439932e-004
9.439931e-004
9.439928e-004
9.439924e-004
9.439920e-004
9.439915e-004
9.439911e-004
9.439907e-004
9.439906e-004
9.439905e-004
9.439907e-004
9.439908e-004
9.439910e-004
9.439910e-004
9.439908e-004
9.439904e-004
9.439898e-004
9.439892e-004
9.439884e-004
9.439877e-004
9.439871e-004
9.439867e-004
9.439864e-004
9.439863e-004
9.439864e-004
9.439867e-004
9.439871e-004
9.439875e-004
9.439880e-004
9.439884e-004
9.439889e-004
9.439893e-004
9.439896e-004
9.439899e-004
9.439900e-004
9.439901e-004
9.439902e-004
9.439901e-004
9.439900e-004
9.439899e-004
9.439898e-004
9.439897e-004
9.439898e-004
9.439899e-004
9.439901e-004
9.439904e-004
9.439907e-004
9.439910e-004
9.439913e-004
9.439916e-004
9.439918e-004
9.439920e-004
9.439921e-004
9.439921e-004
9.439921e-004
9.439921e-004
9.439921e-004
9.439921e-004
9.439922e-004
9.439922e-004
9.439923e-004
9.439924e-004
9.439925e-004
9.439925e-004
9.439925e-004
9.439925e-004
9.439924e-004
9.439923e-004
9.439922e-004
9.439920e-004
9.439919e-004
9.439917e-004
9.439916e-004
9.439915e-004
9.439927e-004
9.439926e-004
9.439924e-004
9.439922e-004
9.439920e-004
9.439919e-004
9.439918e-004
9.439918e-004
9.439919e-004
9.439918e-004
9.439918e-004
9.439917e-004
9.439916e-004
9.439916e-004
9.439916e-004
9.439918e-004
9.439920e-004
9.439923e-004
9.439926e-004
9.439929e-004
9.439931e-004
9.439932e-004
9.439932e-004
9.439931e-004
9.439929e-004
9.439926e-004
9.439923e-004
9.439919e-004
9.439915e-004
9.439910e-004
9.439906e-004
9.439903e-004
9.439901e-004
9.439900e-004
9.439901e-004
9.439902e-004
9.439904e-004
9.439906e-004
9.439907e-004
9.439908e-004
9.439908e-004
9.439909e-004
9.439910e-004
9.439912e-004
9.439916e-004
9.439922e-004
9.439929e-004
9.439936e-004
9.439943e-004
9.439949e-004
9.439953e-004
9.439955e-004
9.439955e-004
9.439952e-004
9.439947e-004
9.439941e-004
9.439934e-004
9.439927e-004
9.439921e-004
9.439915e-004
9.439911e-004
9.439907e-004
9.439905e-004
9.439903e-004
9.439902e-004
9.439901e-004
9.439900e-004
9.439900e-004
9.439899e-004
9.439900e-004
9.439900e-004
9.439902e-004
9.439904e-004
9.439907e-004
9.439910e-004
9.439913e-004
9.439916e-004
9.439919e-004
9.439922e-004
9.439923e-004
9.439925e-004
9.439925e-004
9.439925e-004
9.439924e-004
9.439922e-004
9.439920e-004
9.439919e-004
9.439917e-004
9.439917e-004
9.439917e-004
9.439918e-004
9.439920e-004
9.439922e-004
9.439923e-004
9.439924e-004
9.439923e-004
9.439921e-004
9.439919e-004
9.439917e-004
9.439916e-004
9.439911e-004
9.439912e-004
9.439915e-004
9.439918e-004
9.439920e-004
9.439923e-004
9.439924e-004
9.439924e-004
9.439922e-004
9.439920e-004
9.439917e-004
9.439915e-004
9.439913e-004
9.439914e-004
9.439916e-004
9.439919e-004
9.439924e-004
9.439928e-004
9.439931e-004
9.439933e-004
9.439933e-004
9.439931e-004
9.439928e-004
9.439923e-004
9.439918e-004
9.439912e-004
9.439907e-004
9.439902e-004
9.439898e-004
9.439895e-004
9.439893e-004
9.439893e-004
9.439895e-004
9.439897e-004
9.439901e-004
9.439904e-004
9.439906e-004
9.439908e-004
9.439909e-004
9.439909e-004
9.439911e-004
9.439916e-004
9.439923e-004
9.439935e-004
9.439949e-004
9.439967e-004
9.439985e-004
9.440003e-004
9.440019e-004
9.440030e-004
9.440037e-004
9.440037e-004
9.440032e-004
9.440022e-004
9.440008e-004
9.439992e-004
9.439975e-004
9.439958e-004
9.439943e-004
9.439931e-004
9.439921e-004
9.439915e-004
9.439911e-004
9.439909e-004
9.439908e-004
9.439908e-004
9.439908e-004
9.439907e-004
9.439907e-004
9.439905e-004
9.439904e-004
9.439903e-004
9.439903e-004
9.439903e-004
9.439905e-004
9.439907e-004
9.439910e-004
9.439914e-004
9.439917e-004
9.439921e-004
9.439923e-004
9.439925e-004
9.439926e-004
9.439925e-004
9.439923e-004
9.439920e-004
9.439916e-004
9.439913e-004
9.439911e-004
9.439911e-004
9.439912e-004
9.439916e-004
9.439919e-004
9.439923e-004
9.439925e-004
9.439925e-004
9.439924e-004
9.439921e-004
9.439919e-004
9.439918e-004
9.439897e-004
9.439900e-004
9.439907e-004
9.439914e-004
9.439921e-004
9.439926e-004
9.439928e-004
9.439927e-004
9.439924e-004
9.439920e-004
9.439917e-004
9.439915e-004
9.439915e-004
9.439917e-004
9.439921e-004
9.439925e-004
9.439929e-004
9.439932e-004
9.439933e-004
9.439931e-004
9.439927e-004
9.439921e-004
9.439913e-004
9.439906e-004
9.439899e-004
9.439894e-004
9.439889e-004
9.439886e-004
9.439885e-004
9.439886e-004
9.439889e-004
9.439893e-004
9.439900e-004
9.439906e-004
9.439912e-004
9.439917e-004
9.439919e-004
9.439919e-004
9.439918e-004
9.439918e-004
9.439919e-004
9.439925e-004
9.439936e-004
9.439952e-004
9.439973e-004
9.439996e-004
9.440019e-004
9.440041e-004
9.440059e-004
9.440072e-004
9.440077e-004
9.440075e-004
9.440066e-004
9.440052e-004
9.440034e-004
9.440013e-004
9.439992e-004
9.439972e-004
9.439955e-004
9.439942e-004
9.439932e-004
9.439926e-004
9.439923e-004
9.439922e-004
9.439924e-004
9.439925e-004
9.439926e-004
9.439926e-004
9.439924e-004
9.439921e-004
9.439917e-004
9.439913e-004
9.439909e-004
9.439905e-004
9.439903e-004
9.439902e-004
9.439903e-004
9.439904e-004
9.439907e-004
9.439911e-004
9.439915e-004
9.439919e-004
9.439922e-004
9.439923e-004
9.439923e-004
9.439921e-004
9.439918e-004
9.439914e-004
9.439911e-004
9.439910e-004
9.439910e-004
9.439913e-004
9.439916e-004
9.439920e-004
9.439923e-004
9.439925e-004
9.439925e-004
9.439923e-004
9.439921e-004
9.439920e-004
9.439888e-004
9.439893e-004
9.439902e-004
9.439912e-004
9.439921e-004
9.439927e-004
9.439929e-004
9.439927e-004
9.439924e-004
9.439920e-004
9.439918e-004
9.439918e-004
9.439921e-004
9.439925e-004
9.439930e-004
9.439933e-004
9.439934e-004
9.439932e-004
9.439927e-004
9.439920e-004
9.439910e-004
9.439901e-004
9.439893e-004
9.439886e-004
9.439881e-004
9.439879e-004
9.439879e-004
9.439882e-004
9.439886e-004
9.439893e-004
9.439902e-004
9.439912e-004
9.439922e-004
9.439932e-004
9.439939e-004
9.439943e-004
9.439944e-004
9.439942e-004
9.439938e-004
9.439935e-004
9.439935e-004
9.439939e-004
9.439948e-004
9.439962e-004
9.439979e-004
9.439998e-004
9.440016e-004
9.440031e-004
9.440043e-004
9.440049e-004
9.440050e-004
9.440045e-004
9.440036e-004
9.440023e-004
9.440008e-004
9.439993e-004
9.439978e-004
9.439965e-004
9.439955e-004
9.439947e-004
9.439943e-004
9.439942e-004
9.439943e-004
9.439946e-004
9.439950e-004
9.439954e-004
9.439957e-004
9.439957e-004
9.439956e-004
9.439951e-004
9.439945e-004
9.439937e-004
9.439929e-004
9.439920e-004
9.439912e-004
9.439906e-004
9.439901e-004
9.439898e-004
9.439898e-004
9.439899e-004
9.439902e-004
9.439907e-004
9.439911e-004
9.439916e-004
9.439919e-004
9.439921e-004
9.439920e-004
9.439919e-004
9.439916e-004
9.439914e-004
9.439913e-004
9.439913e-004
9.439915e-004
9.439917e-004
9.439920e-004
9.439922e-004
9.439923e-004
9.439924e-004
9.439924e-004
9.439924e-004
9.439886e-004
9.439891e-004
9.439901e-004
9.439911e-004
9.439920e-004
9.439926e-004
9.439927e-004
9.439925e-004
9.439923e-004
9.439921e-004
9.439921e-004
9.439925e-004
9.439930e-004
9.439935e-004
9.439938e-004
9.439937e-004
9.439933e-004
9.439924e-004
9.439912e-004
9.439900e-004
9.439888e-004
9.439880e-004
9.439875e-004
9.439873e-004
9.439876e-004
9.439882e-004
9.439890e-004
9.439899e-004
9.439910e-004
9.439922e-004
9.439935e-004
9.439949e-004
9.439961e-004
9.439971e-004
9.439977e-004
9.439979e-004
9.439976e-004
9.439971e-004
9.439964e-004
9.439958e-004
9.439954e-004
9.439954e-004
9.439956e-004
9.439961e-004
9.439965e-004
9.439969e-004
9.439971e-004
9.439969e-004
9.439966e-004
9.439960e-004
9.439954e-004
9.439947e-004
9.439941e-004
9.439936e-004
9.439933e-004
9.439933e-004
9.439934e-004
9.439938e-004
9.439943e-004
9.439949e-004
9.439955e-004
9.439962e-004
9.439969e-004
9.439976e-004
9.439983e-004
9.439988e-004
9.439993e-004
9.439995e-004
9.439994e-004
9.439990e-004
9.439984e-004
9.439975e-004
9.439964e-004
9.439952e-004
9.439939e-004
9.439927e-004
9.439916e-004
9.439906e-004
9.439899e-004
9.439894e-004
9.439893e-004
9.439894e-004
9.439898e-004
9.439904e-004
9.439911e-004
9.439917e-004
9.439921e-004
9.439924e-004
9.439924e-004
9.439923e-004
9.439920e-004
9.439917e-004
9.439915e-004
9.439914e-004
9.439915e-004
9.439917e-004
9.439920e-004
9.439923e-004
9.439926e-004
9.439928e-004
9.439891e-004
9.439896e-004
9.439904e-004
9.439913e-004
9.439920e-004
9.439923e-004
9.439924e-004
9.439923e-004
9.439922e-004
9.439924e-004
9.439927e-004
9.439933e-004
9.439938e-004
9.439941e-004
9.439939e-004
9.439932e-004
9.439920e-004
9.439905e-004
9.439890e-004
9.439878e-004
9.439870e-004
9.439869e-004
9.439873e-004
9.439882e-004
9.439895e-004
9.439909e-004
9.439924e-004
9.439939e-004
9.439953e-004
9.439967e-004
9.439980e-004
9.439991e-004
9.440001e-004
9.440007e-004
9.440008e-004
9.440006e-004
9.439999e-004
9.439991e-004
9.439982e-004
9.439974e-004
9.439967e-004
9.439961e-004
9.439955e-004
9.439946e-004
9.439932e-004
9.439915e-004
9.439893e-004
9.439870e-004
9.439848e-004
9.439828e-004
9.439814e-004
9.439808e-004
9.439808e-004
9.439817e-004
9.439832e-004
9.439852e-004
9.439876e-004
9.439900e-004
9.439924e-004
9.439945e-004
9.439964e-004
9.439978e-004
9.439989e-004
9.439998e-004
9.440005e-004
9.440011e-004
9.440016e-004
9.440020e-004
9.440021e-004
9.440021e-004
9.440018e-004
9.440012e-004
9.440004e-004
9.439993e-004
9.439980e-004
9.439966e-004
9.439951e-004
9.439936e-004
9.439921e-004
9.439908e-004
9.439898e-004
9.439892e-004
9.439890e-004
9.439893e-004
9.439899e-004
9.439907e-004
9.439916e-004
9.439924e-004
9.439929e-004
9.439930e-004
9.439928e-004
9.439923e-004
9.439918e-004
9.439913e-004
9.439911e-004
9.439912e-004
9.439916e-004
9.439922e-004
9.439927e-004
9.439930e-004
9.439901e-004
9.439904e-004
9.439909e-004
9.439915e-004
9.439919e-004
9.439921e-004
9.439921e-004
9.439922e-004
9.439924e-004
9.439929e-004
9.439934e-004
9.439939e-004
9.439941e-004
9.439937e-004
9.439928e-004
9.439914e-004
9.439898e-004
9.439882e-004
9.439871e-004
9.439866e-004
9.439870e-004
9.439881e-004
9.439898e-004
9.439918e-004
9.439939e-004
9.439958e-004
9.439974e-004
9.439987e-004
9.439998e-004
9.440006e-004
9.440012e-004
9.440016e-004
9.440018e-004
9.440016e-004
9.440011e-004
9.440002e-004
9.439992e-004
9.439982e-004
9.439973e-004
9.439966e-004
9.439959e-004
9.439950e-004
9.439936e-004
9.439915e-004
9.439885e-004
9.439848e-004
9.439807e-004
9.439764e-004
9.439726e-004
9.439697e-004
9.439680e-004
9.439676e-004
9.439686e-004
9.439708e-004
9.439741e-004
9.439779e-004
9.439821e-004
9.439863e-004
9.439900e-004
9.439932e-004
9.439957e-004
9.439974e-004
9.439985e-004
9.439992e-004
9.439996e-004
9.439999e-004
9.440002e-004
9.440006e-004
9.440011e-004
9.440016e-004
9.440020e-004
9.440023e-004
9.440023e-004
9.440021e-004
9.440016e-004
9.440007e-004
9.439995e-004
9.439981e-004
9.439963e-004
9.439944e-004
9.439926e-004
9.439910e-004
9.439898e-004
9.439891e-004
9.439891e-004
9.439896e-004
9.439906e-004
9.439917e-004
9.439926e-004
9.439932e-004
9.439933e-004
9.439929e-004
9.439922e-004
9.439914e-004
9.439910e-004
9.439909e-004
9.439913e-004
9.439920e-004
9.439927e-004
9.439931e-004
9.439916e-004
9.439916e-004
9.439917e-004
9.439917e-004
9.439918e-004
9.439918e-004
9.439920e-004
9.439923e-004
9.439929e-004
9.439934e-004
9.439939e-004
9.439939e-004
9.439933e-004
9.439922e-004
9.439906e-004
9.439888e-004
9.439873e-004
9.439865e-004
9.439865e-004
9.439876e-004
9.439896e-004
9.439921e-004
9.439948e-004
9.439974e-004
9.439995e-004
9.440009e-004
9.440016e-004
9.440018e-004
9.440016e-004
9.440012e-004
9.440006e-004
9.439999e-004
9.439989e-004
9.439978e-004
9.439964e-004
9.439950e-004
9.439938e-004
9.439928e-004
9.439923e-004
9.439920e-004
9.439918e-004
9.439912e-004
9.439898e-004
9.439873e-004
9.439837e-004
9.439791e-004
9.439742e-004
9.439693e-004
9.439652e-004
9.439623e-004
9.439609e-004
9.439612e-004
9.439629e-004
9.439660e-004
9.439700e-004
9.439746e-004
9.439793e-004
9.439837e-004
9.439876e-004
9.439906e-004
9.439927e-004
9.439938e-004
9.439942e-004
9.439940e-004
9.439936e-004
9.439933e-004
9.439932e-004
9.439935e-004
9.439942e-004
9.439953e-004
9.439965e-004
9.439979e-004
9.439992e-004
9.440004e-004
9.440015e-004
9.440021e-004
9.440023e-004
9.440019e-004
9.440009e-004
9.439993e-004
9.439972e-004
9.439948e-004
9.439926e-004
9.439907e-004
9.439895e-004
9.439891e-004
9.439895e-004
9.439904e-004
9.439916e-004
9.439926e-004
9.439931e-004
9.439931e-004
9.439925e-004
9.439918e-004
9.439912e-004
9.439910e-004
9.439912e-004
9.439918e-004
9.439925e-004
9.439929e-004
9.439931e-004
9.439928e-004
9.439924e-004
9.439920e-004
9.439917e-004
9.439917e-004
9.439921e-004
9.439927e-004
9.439934e-004
9.439938e-004
9.439938e-004
9.439930e-004
9.439916e-004
9.439897e-004
9.439879e-004
9.439864e-004
9.439860e-004
9.439867e-004
9.439886e-004
9.439914e-004
9.439948e-004
9.439981e-004
9.440008e-004
9.440027e-004
9.440034e-004
9.440031e-004
9.440019e-004
9.440002e-004
9.439983e-004
9.439964e-004
9.439946e-004
9.439928e-004
9.439909e-004
9.439890e-004
9.439870e-004
9.439853e-004
9.439840e-004
9.439835e-004
9.439836e-004
9.439842e-004
9.439850e-004
9.439853e-004
9.439848e-004
9.439832e-004
9.439804e-004
9.439769e-004
9.439731e-004
9.439696e-004
9.439668e-004
9.439652e-004
9.439650e-004
9.439659e-004
9.439680e-004
9.439708e-004
9.439740e-004
9.439774e-004
9.439806e-004
9.439834e-004
9.439855e-004
9.439869e-004
9.439874e-004
9.439871e-004
9.439861e-004
9.439848e-004
9.439833e-004
9.439822e-004
9.439815e-004
9.439814e-004
9.439820e-004
9.439833e-004
9.439850e-004
9.439872e-004
9.439897e-004
9.439924e-004
9.439952e-004
9.439979e-004
9.440003e-004
9.440020e-004
9.440030e-004
9.440029e-004
9.440018e-004
9.439997e-004
9.439971e-004
9.439943e-004
9.439918e-004
9.439901e-004
9.439892e-004
9.439893e-004
9.439901e-004
9.439912e-004
9.439921e-004
9.439926e-004
9.439926e-004
9.439922e-004
9.439918e-004
9.439914e-004
9.439915e-004
9.439918e-004
9.439922e-004
9.439925e-004
9.439945e-004
9.439939e-004
9.439931e-004
9.439923e-004
9.439918e-004
9.439918e-004
9.439923e-004
9.439931e-004
9.439937e-004
9.439937e-004
9.439929e-004
9.439913e-004
9.439892e-004
9.439872e-004
9.439858e-004
9.439856e-004
9.439869e-004
9.439897e-004
9.439934e-004
9.439974e-004
9.440011e-004
9.440037e-004
9.440048e-004
9.440044e-004
9.440026e-004
9.439997e-004
9.439963e-004
9.439928e-004
9.439896e-004
9.439868e-004
9.439844e-004
9.439823e-004
9.439801e-004
9.439779e-004
9.439758e-004
9.439741e-004
9.439731e-004
9.439731e-004
9.439740e-004
9.439757e-004
9.439776e-004
9.439793e-004
9.439804e-004
9.439807e-004
9.439803e-004
9.439795e-004
9.439787e-004
9.439783e-004
9.439785e-004
9.439793e-004
9.439806e-004
9.439822e-004
9.439838e-004
9.439851e-004
9.439861e-004
9.439865e-004
9.439864e-004
9.439858e-004
9.439847e-004
9.439833e-004
9.439815e-004
9.439794e-004
9.439770e-004
9.439746e-004
9.439724e-004
9.439706e-004
9.439693e-004
9.439687e-004
9.439688e-004
9.439697e-004
9.439711e-004
9.439731e-004
9.439758e-004
9.439790e-004
9.439827e-004
9.439870e-004
9.439914e-004
9.439958e-004
9.439995e-004
9.440022e-004
9.440035e-004
9.440033e-004
9.440017e-004
9.439991e-004
9.439959e-004
9.439930e-004
9.439907e-004
9.439894e-004
9.439891e-004
9.439897e-004
9.439907e-004
9.439916e-004
9.439923e-004
9.439925e-004
9.439924e-004
9.439922e-004
9.439920e-004
9.439919e-004
9.439919e-004
9.439919e-004
9.439956e-004
9.439948e-004
9.439937e-004
9.439926e-004
9.439919e-004
9.439920e-004
9.439925e-004
9.439932e-004
9.439935e-004
9.439929e-004
9.439914e-004
9.439892e-004
9.439869e-004
9.439855e-004
9.439855e-004
9.439873e-004
9.439908e-004
9.439952e-004
9.439998e-004
9.440036e-004
9.440057e-004
9.440058e-004
9.440038e-004
9.440001e-004
9.439954e-004
9.439902e-004
9.439854e-004
9.439814e-004
9.439783e-004
9.439762e-004
9.439746e-004
9.439731e-004
9.439716e-004
9.439698e-004
9.439680e-004
9.439666e-004
9.439659e-004
9.439663e-004
9.439678e-004
9.439701e-004
9.439728e-004
9.439755e-004
9.439780e-004
9.439803e-004
9.439828e-004
9.439855e-004
9.439887e-004
9.439923e-004
9.439960e-004
9.439995e-004
9.440023e-004
9.440041e-004
9.440046e-004
9.440036e-004
9.440014e-004
9.439982e-004
9.439941e-004
9.439897e-004
9.439853e-004
9.439812e-004
9.439775e-004
9.439742e-004
9.439714e-004
9.439689e-004
9.439667e-004
9.439649e-004
9.439636e-004
9.439626e-004
9.439621e-004
9.439620e-004
9.439621e-004
9.439627e-004
9.439638e-004
9.439656e-004
9.439684e-004
9.439723e-004
9.439773e-004
9.439831e-004
9.439892e-004
9.439949e-004
9.439996e-004
9.440026e-004
9.440037e-004
9.440029e-004
9.440006e-004
9.439974e-004
9.439940e-004
9.439912e-004
9.439894e-004
9.439888e-004
9.439892e-004
9.439903e-004
9.439915e-004
9.439924e-004
9.439929e-004
9.439929e-004
9.439926e-004
9.439921e-004
9.439916e-004
9.439914e-004
9.439963e-004
9.439955e-004
9.439941e-004
9.439929e-004
9.439922e-004
9.439922e-004
9.439926e-004
9.439930e-004
9.439927e-004
9.439914e-004
9.439894e-004
9.439872e-004
9.439857e-004
9.439857e-004
9.439878e-004
9.439917e-004
9.439968e-004
9.440017e-004
9.440054e-004
9.440069e-004
9.440056e-004
9.440018e-004
9.439962e-004
9.439896e-004
9.439830e-004
9.439775e-004
9.439735e-004
9.439711e-004
9.439703e-004
9.439704e-004
9.439709e-004
9.439711e-004
9.439707e-004
9.439696e-004
9.439682e-004
9.439670e-004
9.439664e-004
9.439668e-004
9.439680e-004
9.439699e-004
9.439721e-004
9.439746e-004
9.439774e-004
9.439809e-004
9.439853e-004
9.439910e-004
9.439976e-004
9.440046e-004
9.440112e-004
9.440166e-004
9.440202e-004
9.440214e-004
9.440204e-004
9.440172e-004
9.440122e-004
9.440060e-004
9.439991e-004
9.439922e-004
9.439859e-004
9.439808e-004
9.439769e-004
9.439743e-004
9.439727e-004
9.439718e-004
9.439712e-004
9.439708e-004
9.439703e-004
9.439697e-004
9.439689e-004
9.439677e-004
9.439661e-004
9.439643e-004
9.439623e-004
9.439608e-004
9.439601e-004
9.439609e-004
9.439636e-004
9.439682e-004
9.439744e-004
9.439817e-004
9.439892e-004
9.439958e-004
9.440007e-004
9.440034e-004
9.440036e-004
9.440018e-004
9.439985e-004
9.439947e-004
9.439914e-004
9.439892e-004
9.439885e-004
9.439890e-004
9.439904e-004
9.439919e-004
9.439930e-004
9.439934e-004
9.439931e-004
9.439923e-004
9.439914e-004
9.439909e-004
9.439966e-004
9.439958e-004
9.439945e-004
9.439932e-004
9.439925e-004
9.439923e-004
9.439924e-004
9.439922e-004
9.439913e-004
9.439896e-004
9.439876e-004
9.439861e-004
9.439862e-004
9.439883e-004
9.439925e-004
9.439979e-004
9.440031e-004
9.440067e-004
9.440074e-004
9.440047e-004
9.439991e-004
9.439915e-004
9.439832e-004
9.439758e-004
9.439703e-004
9.439672e-004
9.439667e-004
9.439684e-004
9.439713e-004
9.439747e-004
9.439776e-004
9.439794e-004
9.439797e-004
9.439789e-004
9.439774e-004
9.439759e-004
9.439748e-004
9.439745e-004
9.439747e-004
9.439752e-004
9.439760e-004
9.439772e-004
9.439795e-004
9.439834e-004
9.439894e-004
9.439975e-004
9.440070e-004
9.440165e-004
9.440247e-004
9.440305e-004
9.440331e-004
9.440325e-004
9.440290e-004
9.440232e-004
9.440157e-004
9.440073e-004
9.439988e-004
9.439911e-004
9.439849e-004
9.439808e-004
9.439789e-004
9.439790e-004
9.439807e-004
9.439832e-004
9.439859e-004
9.439882e-004
9.439899e-004
9.439907e-004
9.439906e-004
9.439893e-004
9.439867e-004
9.439827e-004
9.439776e-004
9.439718e-004
9.439660e-004
9.439612e-004
9.439584e-004
9.439582e-004
9.439611e-004
9.439667e-004
9.439744e-004
9.439832e-004
9.439917e-004
9.439985e-004
9.440028e-004
9.440040e-004
9.440025e-004
9.439991e-004
9.439949e-004
9.439913e-004
9.439890e-004
9.439884e-004
9.439894e-004
9.439910e-004
9.439926e-004
9.439935e-004
9.439934e-004
9.439925e-004
9.439914e-004
9.439907e-004
9.439966e-004
9.439958e-004
9.439946e-004
9.439935e-004
9.439927e-004
9.439923e-004
9.439918e-004
9.439910e-004
9.439896e-004
9.439878e-004
9.439865e-004
9.439865e-004
9.439887e-004
9.439929e-004
9.439985e-004
9.440040e-004
9.440074e-004
9.440075e-004
9.440036e-004
9.439962e-004
9.439868e-004
9.439773e-004
9.439695e-004
9.439647e-004
9.439636e-004
9.439659e-004
9.439709e-004
9.439773e-004
9.439840e-004
9.439896e-004
9.439935e-004
9.439951e-004
9.439947e-004
9.439928e-004
9.439903e-004
9.439881e-004
9.439868e-004
9.439866e-004
9.439873e-004
9.439888e-004
9.439913e-004
9.439956e-004
9.440026e-004
9.440130e-004
9.440271e-004
9.440439e-004
9.440613e-004
9.440769e-004
9.440881e-004
9.440935e-004
9.440924e-004
9.440853e-004
9.440737e-004
9.440589e-004
9.440426e-004
9.440263e-004
9.440112e-004
9.439985e-004
9.439893e-004
9.439842e-004
9.439832e-004
9.439857e-004
9.439908e-004
9.439971e-004
9.440036e-004
9.440094e-004
9.440141e-004
9.440175e-004
9.440194e-004
9.440198e-004
9.440182e-004
9.440144e-004
9.440082e-004
9.439997e-004
9.439896e-004
9.439789e-004
9.439691e-004
9.439614e-004
9.439571e-004
9.439569e-004
9.439609e-004
9.439684e-004
9.439780e-004
9.439881e-004
9.439966e-004
9.440022e-004
9.440042e-004
9.440028e-004
9.439991e-004
9.439946e-004
9.439909e-004
9.439889e-004
9.439889e-004
9.439902e-004
9.439919e-004
9.439931e-004
9.439933e-004
9.439926e-004
9.439915e-004
9.439907e-004
9.439962e-004
9.439956e-004
9.439947e-004
9.439937e-004
9.439929e-004
9.439921e-004
9.439910e-004
9.439896e-004
9.439879e-004
9.439866e-004
9.439866e-004
9.439886e-004
9.439928e-004
9.439985e-004
9.440041e-004
9.440076e-004
9.440074e-004
9.440026e-004
9.439939e-004
9.439830e-004
9.439724e-004
9.439646e-004
9.439611e-004
9.439625e-004
9.439684e-004
9.439772e-004
9.439872e-004
9.439967e-004
9.440042e-004
9.440089e-004
9.440104e-004
9.440090e-004
9.440056e-004
9.440017e-004
9.439987e-004
9.439983e-004
9.440016e-004
9.440095e-004
9.440226e-004
9.440416e-004
9.440677e-004
9.441020e-004
9.441455e-004
9.441977e-004
9.442563e-004
9.443169e-004
9.443732e-004
9.444184e-004
9.444470e-004
9.444555e-004
9.444431e-004
9.444121e-004
9.443662e-004
9.443106e-004
9.442504e-004
9.441905e-004
9.441349e-004
9.440871e-004
9.440494e-004
9.440228e-004
9.440072e-004
9.440010e-004
9.440018e-004
9.440070e-004
9.440142e-004
9.440216e-004
9.440285e-004
9.440344e-004
9.440394e-004
9.440432e-004
9.440455e-004
9.440455e-004
9.440424e-004
9.440357e-004
9.440254e-004
9.440121e-004
9.439969e-004
9.439818e-004
9.439687e-004
9.439595e-004
9.439556e-004
9.439573e-004
9.439641e-004
9.439743e-004
9.439855e-004
9.439953e-004
9.440018e-004
9.440041e-004
9.440025e-004
9.439985e-004
9.439941e-004
9.439907e-004
9.439892e-004
9.439896e-004
9.439910e-004
9.439923e-004
9.439929e-004
9.439925e-004
9.439917e-004
9.439910e-004
9.439956e-004
9.439952e-004
9.439946e-004
9.439939e-004
9.439929e-004
9.439917e-004
9.439901e-004
9.439882e-004
9.439867e-004
9.439864e-004
9.439881e-004
9.439921e-004
9.439978e-004
9.440036e-004
9.440074e-004
9.440072e-004
9.440021e-004
9.439924e-004
9.439804e-004
9.439690e-004
9.439612e-004
9.439592e-004
9.439635e-004
9.439730e-004
9.439858e-004
9.439990e-004
9.440104e-004
9.440181e-004
9.440215e-004
9.440205e-004
9.440158e-004
9.440092e-004
9.440029e-004
9.440001e-004
9.440044e-004
9.440202e-004
9.440518e-004
9.441038e-004
9.441807e-004
9.442870e-004
9.444264e-004
9.446005e-004
9.448076e-004
9.450410e-004
9.452880e-004
9.455305e-004
9.457472e-004
9.459167e-004
9.460214e-004
9.460506e-004
9.460018e-004
9.458811e-004
9.457015e-004
9.454804e-004
9.452370e-004
9.449903e-004
9.447570e-004
9.445498e-004
9.443772e-004
9.442429e-004
9.441460e-004
9.440820e-004
9.440442e-004
9.440251e-004
9.440181e-004
9.440179e-004
9.440214e-004
9.440269e-004
9.440336e-004
9.440412e-004
9.440491e-004
9.440561e-004
9.440610e-004
9.440621e-004
9.440583e-004
9.440490e-004
9.440346e-004
9.440164e-004
9.439968e-004
9.439784e-004
9.439642e-004
9.439563e-004
9.439556e-004
9.439616e-004
9.439722e-004
9.439843e-004
9.439949e-004
9.440016e-004
9.440037e-004
9.440018e-004
9.439977e-004
9.439935e-004
9.439906e-004
9.439897e-004
9.439903e-004
9.439914e-004
9.439921e-004
9.439922e-004
9.439918e-004
9.439914e-004
9.439948e-004
9.439947e-004
9.439944e-004
9.439938e-004
9.439927e-004
9.439911e-004
9.439891e-004
9.439872e-004
9.439863e-004
9.439873e-004
9.439908e-004
9.439963e-004
9.440024e-004
9.440068e-004
9.440072e-004
9.440022e-004
9.439923e-004
9.439794e-004
9.439672e-004
9.439593e-004
9.439584e-004
9.439653e-004
9.439784e-004
9.439948e-004
9.440107e-004
9.440229e-004
9.440291e-004
9.440288e-004
9.440226e-004
9.440124e-004
9.440010e-004
9.439927e-004
9.439935e-004
9.440119e-004
9.440594e-004
9.441505e-004
9.443024e-004
9.445346e-004
9.448666e-004
9.453158e-004
9.458935e-004
9.466005e-004
9.474229e-004
9.483282e-004
9.492659e-004
9.501704e-004
9.509683e-004
9.515883e-004
9.519721e-004
9.520829e-004
9.519106e-004
9.514735e-004
9.508141e-004
9.499926e-004
9.490785e-004
9.481416e-004
9.472444e-004
9.464356e-004
9.457471e-004
9.451933e-004
9.447724e-004
9.444709e-004
9.442676e-004
9.441390e-004
9.440630e-004
9.440216e-004
9.440017e-004
9.439950e-004
9.439968e-004
9.440044e-004
9.440163e-004
9.440308e-004
9.440459e-004
9.440593e-004
9.440685e-004
9.440713e-004
9.440663e-004
9.440534e-004
9.440341e-004
9.440110e-004
9.439881e-004
9.439693e-004
9.439578e-004
9.439551e-004
9.439606e-004
9.439716e-004