# vtk DataFile Version 3.0
vtk output
ASCII
DATASET STRUCTURED_POINTS
DIMENSIONS 100 100 1
SPACING 1 1 1
ORIGIN 0 0 0
POINT_DATA 10000
SCALARS SFBox_profile double
LOOKUP_TABLE default 
0.000000e+000
0.000000e+000
0.000000e+000
0.000000e+000
0.000000e+000
0.000000e+000
0.000000e+000
0.000000e+000
0.000000e+000
0.000000e+000
0.000000e+000
0.000000e+000
0.000000e+000
0.000000e+000
0.000000e+000
0.000000e+000
0.000000e+000
0.000000e+000
0.000000e+000
0.000000e+000
0.000000e+000
0.000000e+000
0.000000e+000
0.000000e+000
0.000000e+000
0.000000e+000
0.000000e+000
0.000000e+000
0.000000e+000
0.000000e+000
0.000000e+000
0.000000e+000
0.000000e+000
0.000000e+000
0.000000e+000
0.000000e+000
0.000000e+000
0.000000e+000
0.000000e+000
0.000000e+000
0.000000e+000
0.000000e+000
0.000000e+000
0.000000e+000
0.000000e+000
0.000000e+000
0.000000e+000
0.000000e+000
0.000000e+000
0.000000e+000
0.000000e+000
0.000000e+000
0.000000e+000
0.000000e+000
0.000000e+000
0.000000e+000
0.000000e+000
0.000000e+000
0.000000e+000
0.000000e+000
0.000000e+000
0.000000e+000
0.000000e+000
0.000000e+000
0.000000e+000
0.000000e+000
0.000000e+000
0.000000e+000
0.000000e+000
0.000000e+000
0.000000e+000
0.000000e+000
0.000000e+000
0.000000e+000
0.000000e+000
0.000000e+000
0.000000e+000
0.000000e+000
0.000000e+000
0.000000e+000
0.000000e+000
0.000000e+000
0.000000e+000
0.000000e+000
0.000000e+000
0.000000e+000
0.000000e+000
0.000000e+000
0.000000e+000
0.000000e+000
0.000000e+000
0.000000e+000
0.000000e+000
0.000000e+000
0.000000e+000
0.000000e+000
0.000000e+000
0.000000e+000
0.000000e+000
0.000000e+000
-8.787513e-009
-7.619820e-009
-5.476359e-009
-2.713362e-009
2.044256e-010
2.785790e-009
4.612600e-009
5.438269e-009
5.257877e-009
4.321108e-009
3.068981e-009
1.997042e-009
1.475160e-009
1.576550e-009
1.974358e-009
1.946666e-009
4.936256e-010
-3.472557e-009
-1.093391e-008
-2.263970e-008
-3.908658e-008
-6.059658e-008
-8.743806e-008
-1.199147e-007
-1.583658e-007
-2.030669e-007
-2.540751e-007
-3.110955e-007
-3.734401e-007
-4.401104e-007
-5.099771e-007
-5.819886e-007
-6.553255e-007
-7.294506e-007
-8.040539e-007
-8.789348e-007
-9.538911e-007
-1.028665e-006
-1.102963e-006
-1.176526e-006
-1.249194e-006
-1.320938e-006
-1.391825e-006
-1.461941e-006
-1.531298e-006
-1.599758e-006
-1.666999e-006
-1.732517e-006
-1.795655e-006
-1.855645e-006
-1.911659e-006
-1.962831e-006
-2.008282e-006
-2.047101e-006
-2.078331e-006
-2.100954e-006
-2.113900e-006
-2.116095e-006
-2.106533e-006
-2.084354e-006
-2.048891e-006
-1.999688e-006
-1.936504e-006
-1.859314e-006
-1.768370e-006
-1.664299e-006
-1.548227e-006
-1.421874e-006
-1.287560e-006
-1.148113e-006
-1.006692e-006
-8.665779e-007
-7.309765e-007
-6.028728e-007
-4.849103e-007
-3.792727e-007
-2.875429e-007
-2.105552e-007
-1.482910e-007
-9.988084e-008
-6.375243e-008
-3.790431e-008
-2.023266e-008
-8.810375e-009
-2.038680e-009
1.350278e-009
2.394140e-009
2.016521e-009
1.075306e-009
3.078512e-010
2.038969e-010
8.861449e-010
2.084500e-009
3.249101e-009
3.779332e-009
3.284636e-009
1.768885e-009
-3.439252e-010
-2.359562e-009
-3.580567e-009
-5.282837e-009
-4.600534e-009
-3.326146e-009
-1.634424e-009
2.312194e-010
1.990612e-009
3.376699e-009
4.196498e-009
4.385430e-009
4.030106e-009
3.336641e-009
2.535713e-009
1.739094e-009
7.865944e-010
-8.644397e-010
-4.161680e-009
-1.037461e-008
-2.092644e-008
-3.719528e-008
-6.034972e-008
-9.126672e-008
-1.305400e-007
-1.785447e-007
-2.354996e-007
-3.014760e-007
-3.763361e-007
-4.596322e-007
-5.505263e-007
-6.477918e-007
-7.499240e-007
-8.553354e-007
-9.625721e-007
-1.070476e-006
-1.178238e-006
-1.285352e-006
-1.391488e-006
-1.496376e-006
-1.599741e-006
-1.701300e-006
-1.800821e-006
-1.898169e-006
-1.993328e-006
-2.086355e-006
-2.177295e-006
-2.266096e-006
-2.352539e-006
-2.436223e-006
-2.516582e-006
-2.592925e-006
-2.664482e-006
-2.730437e-006
-2.789942e-006
-2.842124e-006
-2.886062e-006
-2.920768e-006
-2.945172e-006
-2.958136e-006
-2.958493e-006
-2.945114e-006
-2.916970e-006
-2.873174e-006
-2.812993e-006
-2.735842e-006
-2.641302e-006
-2.529192e-006
-2.399690e-006
-2.253507e-006
-2.092038e-006
-1.917459e-006
-1.732714e-006
-1.541414e-006
-1.347673e-006
-1.155902e-006
-9.705955e-007
-7.960893e-007
-6.362847e-007
-4.943331e-007
-3.723327e-007
-2.711121e-007
-1.901827e-007
-1.278993e-007
-8.180334e-008
-4.905608e-008
-2.684134e-008
-1.263901e-008
-4.330586e-009
-1.693496e-010
1.304996e-009
1.324697e-009
8.811071e-010
6.538769e-010
9.405126e-010
1.654248e-009
2.428013e-009
2.808562e-009
2.475337e-009
1.398546e-009
-1.289526e-010
-1.599873e-009
-2.495218e-009
4.888110e-010
3.863029e-010
2.539379e-010
2.088157e-010
3.656731e-010
7.879215e-010
1.454354e-009
2.253355e-009
3.003580e-009
3.484599e-009
3.449999e-009
2.596379e-009
4.774254e-010
-3.621214e-009
-1.080447e-008
-2.263362e-008
-4.109122e-008
-6.843198e-008
-1.069465e-007
-1.586957e-007
-2.252816e-007
-3.077013e-007
-4.062970e-007
-5.207751e-007
-6.502580e-007
-7.933345e-007
-9.481066e-007
-1.112254e-006
-1.283154e-006
-1.458058e-006
-1.634331e-006
-1.809673e-006
-1.982281e-006
-2.150900e-006
-2.314751e-006
-2.473391e-006
-2.626554e-006
-2.774048e-006
-2.915709e-006
-3.051428e-006
-3.181178e-006
-3.305016e-006
-3.423037e-006
-3.535291e-006
-3.641713e-006
-3.742082e-006
-3.836040e-006
-3.923145e-006
-4.002930e-006
-4.074946e-006
-4.138776e-006
-4.194021e-006
-4.240275e-006
-4.277085e-006
-4.303927e-006
-4.320177e-006
-4.325114e-006
-4.317928e-006
-4.297744e-006
-4.263618e-006
-4.214524e-006
-4.149301e-006
-4.066602e-006
-3.964883e-006
-3.842465e-006
-3.697699e-006
-3.529233e-006
-3.336333e-006
-3.119222e-006
-2.879361e-006
-2.619649e-006
-2.344500e-006
-2.059795e-006
-1.772648e-006
-1.490985e-006
-1.222910e-006
-9.759200e-007
-7.560944e-007
-5.674356e-007
-4.115186e-007
-2.875462e-007
-1.927769e-007
-1.231958e-007
-7.423670e-008
-4.138936e-008
-2.059353e-008
-8.415513e-009
-2.067912e-009
6.425500e-010
1.373053e-009
1.283656e-009
1.070700e-009
1.024938e-009
1.135192e-009
1.231666e-009
1.136358e-009
7.765085e-010
2.271685e-010
-3.241926e-010
-6.671425e-010
6.493836e-009
5.613260e-009
4.081424e-009
2.299337e-009
7.355945e-010
-2.023835e-010
-2.922236e-010
4.141207e-010
1.554280e-009
2.469759e-009
2.243657e-009
-2.798835e-010
-6.530998e-009
-1.831301e-008
-3.793276e-008
-6.829400e-008
-1.128732e-007
-1.755193e-007
-2.600715e-007
-3.698535e-007
-5.071533e-007
-6.728135e-007
-8.660252e-007
-1.084361e-006
-1.324015e-006
-1.580169e-006
-1.847411e-006
-2.120136e-006
-2.392908e-006
-2.660771e-006
-2.919514e-006
-3.165848e-006
-3.397501e-006
-3.613164e-006
-3.812326e-006
-3.995028e-006
-4.161598e-006
-4.312444e-006
-4.447941e-006
-4.568420e-006
-4.674193e-006
-4.765585e-006
-4.842935e-006
-4.906568e-006
-4.956782e-006
-4.993877e-006
-5.018238e-006
-5.030435e-006
-5.031311e-006
-5.022014e-006
-5.003965e-006
-4.978800e-006
-4.948291e-006
-4.914277e-006
-4.878605e-006
-4.843073e-006
-4.809370e-006
-4.778987e-006
-4.753091e-006
-4.732346e-006
-4.716678e-006
-4.705001e-006
-4.694948e-006
-4.682658e-006
-4.662699e-006
-4.628179e-006
-4.571118e-006
-4.483065e-006
-4.355959e-006
-4.183143e-006
-3.960445e-006
-3.687180e-006
-3.366907e-006
-3.007731e-006
-2.621991e-006
-2.225206e-006
-1.834369e-006
-1.465850e-006
-1.133333e-006
-8.462595e-007
-6.091051e-007
-4.215951e-007
-2.796737e-007
-1.768753e-007
-1.057122e-007
-5.879260e-008
-2.954450e-008
-1.255745e-008
-3.639543e-009
2.963041e-010
1.420617e-009
1.187013e-009
5.106397e-010
-8.645250e-011
-3.629557e-010
-2.729402e-010
1.011171e-010
6.052333e-010
1.065900e-009
1.337062e-009
1.062651e-008
9.293058e-009
6.934319e-009
4.100874e-009
1.458494e-009
-3.872241e-010
-1.087301e-009
-7.289778e-010
3.783007e-011
-5.574729e-011
-2.898065e-009
-1.098429e-008
-2.743895e-008
-5.609494e-008
-1.015944e-007
-1.694162e-007
-2.656986e-007
-3.967484e-007
-5.682105e-007
-7.840065e-007
-1.045275e-006
-1.349610e-006
-1.690833e-006
-2.059409e-006
-2.443410e-006
-2.829784e-006
-3.205660e-006
-3.559428e-006
-3.881483e-006
-4.164606e-006
-4.404040e-006
-4.597359e-006
-4.744161e-006
-4.845654e-006
-4.904144e-006
-4.922495e-006
-4.903625e-006
-4.850127e-006
-4.764079e-006
-4.647046e-006
-4.500230e-006
-4.324681e-006
-4.121500e-006
-3.892011e-006
-3.637913e-006
-3.361457e-006
-3.065625e-006
-2.754290e-006
-2.432307e-006
-2.105493e-006
-1.780511e-006
-1.464717e-006
-1.165998e-006
-8.926473e-007
-6.532461e-007
-4.565415e-007
-3.112624e-007
-2.258361e-007
-2.079687e-007
-2.640746e-007
-3.985619e-007
-6.130102e-007
-9.052986e-007
-1.268771e-006
-1.691561e-006
-2.156230e-006
-2.639898e-006
-3.115009e-006
-3.550862e-006
-3.915908e-006
-4.180723e-006
-4.321419e-006
-4.323035e-006
-4.182322e-006
-3.909199e-006
-3.526300e-006
-3.066343e-006
-2.567603e-006
-2.068376e-006
-1.601664e-006
-1.191325e-006
-8.504299e-007
-5.819020e-007
-3.808100e-007
-2.373926e-007
-1.399310e-007
-7.692372e-008
-3.839125e-008
-1.641012e-008
-5.099859e-009
-3.040436e-010
8.323468e-010
2.479124e-010
-7.621458e-010
-1.395639e-009
-1.277102e-009
-4.129891e-010
8.878125e-010
2.152285e-009
2.922117e-009
1.145386e-008
1.021154e-008
7.983620e-009
5.241624e-009
2.573552e-009
5.143172e-010
-6.922836e-010
-1.370663e-009
-2.681844e-009
-6.839442e-009
-1.725602e-008
-3.863492e-008
-7.703445e-008
-1.399007e-007
-2.359921e-007
-3.750323e-007
-5.668792e-007
-8.200662e-007
-1.139766e-006
-1.525533e-006
-1.969443e-006
-2.455293e-006
-2.959322e-006
-3.452448e-006
-3.903563e-006
-4.283110e-006
-4.566168e-006
-4.734483e-006
-4.777269e-006
-4.690908e-006
-4.477898e-006
-4.145423e-006
-3.703817e-006
-3.165116e-006
-2.541752e-006
-1.845460e-006
-1.086447e-006
-2.728894e-007
5.891575e-007
1.495467e-006
2.443041e-006
3.429358e-006
4.451649e-006
5.506272e-006
6.588233e-006
7.690814e-006
8.805289e-006
9.920778e-006
1.102426e-005
1.210074e-005
1.313359e-005
1.410482e-005
1.499540e-005
1.578540e-005
1.645416e-005
1.698040e-005
1.734248e-005
1.751880e-005
1.748850e-005
1.723244e-005
1.673450e-005
1.598318e-005
1.497346e-005
1.370896e-005
1.220412e-005
1.048632e-005
8.597558e-006
6.595044e-006
4.550415e-006
2.546834e-006
6.737412e-007
-9.807789e-007
-2.339435e-006
-3.345731e-006
-3.972648e-006
-4.227819e-006
-4.153313e-006
-3.819282e-006
-3.312372e-006
-2.721508e-006
-2.124576e-006
-1.579189e-006
-1.119229e-006
-7.568486e-007
-4.880314e-007
-2.992707e-007
-1.734222e-007
-9.375606e-008
-4.612080e-008
-1.963437e-008
-6.463186e-009
-1.188766e-009
-1.227338e-010
-7.757324e-010
-1.542577e-009
-1.555724e-009
-6.009861e-010
1.007937e-009
2.646795e-009
3.666667e-009
8.715872e-009
8.149819e-009
7.075458e-009
5.620989e-009
3.965447e-009
2.222739e-009
1.838345e-010
-3.082002e-009
-9.716480e-009
-2.357343e-008
-5.065483e-008
-9.942027e-008
-1.809042e-007
-3.085175e-007
-4.972980e-007
-7.622590e-007
-1.115509e-006
-1.562109e-006
-2.095237e-006
-2.691947e-006
-3.311149e-006
-3.895160e-006
-4.375123e-006
-4.679331e-006
-4.742530e-006
-4.514009e-006
-3.962821e-006
-3.079404e-006
-1.873916e-006
-3.722526e-007
1.388988e-006
3.367558e-006
5.519940e-006
7.804754e-006
1.018515e-005
1.263026e-005
1.511584e-005
1.762412e-005
2.014303e-005
2.266485e-005
2.518441e-005
2.769737e-005
3.019860e-005
3.268100e-005
3.513487e-005
3.754753e-005
3.990329e-005
4.218365e-005
4.436775e-005
4.643292e-005
4.835533e-005
5.011055e-005
5.167380e-005
5.301999e-005
5.412351e-005
5.495790e-005
5.549543e-005
5.570677e-005
5.556079e-005
5.502465e-005
5.406424e-005
5.264524e-005
5.073493e-005
4.830532e-005
4.533784e-005
4.182971e-005
3.780175e-005
3.330661e-005
2.843590e-005
2.332403e-005
1.814654e-005
1.311066e-005
8.437624e-006
4.337521e-006
9.805427e-007
-1.529650e-006
-3.173441e-006
-4.017975e-006
-4.202876e-006
-3.911838e-006
-3.337701e-006
-2.650561e-006
-1.976883e-006
-1.392958e-006
-9.307387e-007
-5.906522e-007
-3.555544e-007
-2.019195e-007
-1.068696e-007
-5.148970e-008
-2.161697e-008
-7.298202e-009
-1.789869e-009
-6.200045e-010
-9.265956e-010
-1.070092e-009
-3.981940e-010
9.793052e-010
2.489746e-009
3.461076e-009
3.406894e-009
3.945240e-009
4.753920e-009
5.379757e-009
5.265963e-009
3.703518e-009
-4.612483e-010
-9.408527e-009
-2.717066e-008
-6.057417e-008
-1.201138e-007
-2.205245e-007
-3.807298e-007
-6.226762e-007
-9.683522e-007
-1.434233e-006
-2.022838e-006
-2.712335e-006
-3.446836e-006
-4.131391e-006
-4.635362e-006
-4.805557e-006
-4.487093e-006
-3.546992e-006
-1.894575e-006
5.061257e-007
3.634035e-006
7.417960e-006
1.174984e-005
1.650058e-005
2.153516e-005
2.672485e-005
3.195572e-005
3.713344e-005
4.218490e-005
4.705732e-005
5.171566e-005
5.613899e-005
6.031639e-005
6.424294e-005
6.791612e-005
7.133310e-005
7.448920e-005
7.737753e-005
7.998978e-005
8.231752e-005
8.435383e-005
8.609484e-005
8.754122e-005
8.869937e-005
8.958229e-005
9.020989e-005
9.060864e-005
9.081049e-005
9.085116e-005
9.076767e-005
9.059498e-005
9.036164e-005
9.008447e-005
8.976209e-005
8.936793e-005
8.884300e-005
8.809005e-005
8.697104e-005
8.531037e-005
8.290647e-005
7.955313e-005
7.507059e-005
6.934360e-005
6.236086e-005
5.424777e-005
4.528248e-005
3.588628e-005
2.658277e-005
1.792775e-005
1.042163e-005
4.424859e-006
9.966572e-008
-2.605449e-006
-3.924334e-006
-4.204898e-006
-3.825817e-006
-3.123298e-006
-2.346172e-006
-1.644582e-006
-1.084791e-006
-6.762828e-007
-3.986105e-007
-2.210844e-007
-1.140156e-007
-5.341048e-008
-2.176665e-008
-7.108255e-009
-1.577469e-009
-2.170394e-010
-1.195279e-010
1.321837e-010
8.916150e-010
1.863575e-009
2.531559e-009
-2.582127e-009
-8.285632e-010
2.005409e-009
4.712712e-009
5.705953e-009
2.986713e-009
-6.260353e-009
-2.655030e-008
-6.541467e-008
-1.349407e-007
-2.531363e-007
-4.444870e-007
-7.387108e-007
-1.166239e-006
-1.748623e-006
-2.482635e-006
-3.319104e-006
-4.141622e-006
-4.754206e-006
-4.887741e-006
-4.230331e-006
-2.477919e-006
6.070919e-007
5.145286e-006
1.111154e-005
1.833452e-005
2.652222e-005
3.530537e-005
4.428696e-005
5.308705e-005
6.137564e-005
6.889145e-005
7.544798e-005
8.092987e-005
8.528259e-005
8.849800e-005
9.059848e-005
9.162174e-005
9.160860e-005
9.059465e-005
8.860661e-005
8.566300e-005
8.177857e-005
7.697150e-005
7.127168e-005
6.472874e-005
5.741847e-005
4.944725e-005
4.095433e-005
3.211243e-005
2.312673e-005
1.423277e-005
5.693240e-006
-2.206144e-006
-9.161785e-006
-1.485912e-005
-1.898222e-005
-2.122722e-005
-2.132069e-005
-1.904367e-005
-1.426175e-005
-6.960338e-006
2.717458e-006
1.443569e-005
2.764071e-005
4.155623e-005
5.520834e-005
6.748861e-005
7.725894e-005
8.349389e-005
8.544519e-005
8.279944e-005
7.578850e-005
6.520888e-005
5.232243e-005
3.864470e-005
2.566622e-005
1.458053e-005
6.098222e-006
3.945101e-007
-2.813262e-006
-4.097915e-006
-4.126569e-006
-3.498188e-006
-2.651520e-006
-1.847133e-006
-1.200348e-006
-7.333076e-007
-4.219939e-007
-2.278024e-007
-1.139422e-007
-5.148549e-008
-1.996640e-008
-5.854095e-009
-6.543608e-010
6.626437e-010
7.870270e-010
8.648364e-010
1.114795e-009
1.343151e-009
-7.125377e-009
-4.447896e-009
-1.992311e-010
3.549971e-009
3.890567e-009
-3.073822e-009
-2.291061e-008
-6.422597e-008
-1.406447e-007
-2.729999e-007
-4.908479e-007
-8.316816e-007
-1.335150e-006
-2.028532e-006
-2.899917e-006
-3.859125e-006
-4.694675e-006
-5.045448e-006
-4.410945e-006
-2.216813e-006
2.067748e-006
8.787646e-006
1.797599e-005
2.928454e-005
4.199235e-005
5.509302e-005
6.743830e-005
7.789843e-005
8.550038e-005
8.951843e-005
8.950910e-005
8.529860e-005
7.693921e-005
6.465085e-005
4.875930e-005
2.963745e-005
7.654661e-006
-1.686146e-005
-4.364724e-005
-7.250796e-005
-1.033073e-004
-1.359447e-004
-1.703262e-004
-2.063327e-004
-2.437919e-004
-2.824570e-004
-3.219945e-004
-3.619805e-004
-4.019048e-004
-4.411788e-004
-4.791462e-004
-5.150936e-004
-5.482599e-004
-5.778439e-004
-6.030102e-004
-6.228959e-004
-6.366190e-004
-6.432940e-004
-6.420561e-004
-6.320988e-004
-6.127292e-004
-5.834442e-004
-5.440289e-004
-4.946758e-004
-4.361134e-004
-3.697281e-004
-2.976529e-004
-2.227854e-004
-1.486976e-004
-7.939920e-005
-1.893248e-005
2.918286e-005
6.257674e-005
8.056736e-005
8.440299e-005
7.705034e-005
6.254639e-005
4.511777e-005
2.833896e-005
1.457537e-005
4.846291e-006
-9.528432e-007
-3.629102e-006
-4.241150e-006
-3.754994e-006
-2.866914e-006
-1.978581e-006
-1.262698e-006
-7.536811e-007
-4.222448e-007
-2.211672e-007
-1.068536e-007
-4.622344e-008
-1.672604e-008
-4.055480e-009
3.346319e-010
1.211400e-009
9.703369e-010
6.109479e-010
4.185563e-010
-8.592960e-009
-5.689895e-009
-1.423146e-009
1.173690e-009
-2.510543e-009
-1.916700e-008
-5.878661e-008
-1.367458e-007
-2.765417e-007
-5.122721e-007
-8.887423e-007
-1.455110e-006
-2.245492e-006
-3.238736e-006
-4.293767e-006
-5.071071e-006
-4.973642e-006
-3.159252e-006
1.329064e-006
9.305762e-006
2.110739e-005
3.627647e-005
5.337640e-005
7.002285e-005
8.316721e-005
8.956771e-005
8.631154e-005
7.125216e-005
4.325926e-005
2.242953e-006
-5.100817e-005
-1.150884e-004
-1.882494e-004
-2.686341e-004
-3.544543e-004
-4.441133e-004
-5.362809e-004
-6.299226e-004
-7.242866e-004
-8.188541e-004
-9.132645e-004
-1.007230e-003
-1.100453e-003
-1.192562e-003
-1.283071e-003
-1.371364e-003
-1.456713e-003
-1.538310e-003
-1.615313e-003
-1.686887e-003
-1.752249e-003
-1.810688e-003
-1.861577e-003
-1.904370e-003
-1.938571e-003
-1.963707e-003
-1.979266e-003
-1.984638e-003
-1.979040e-003
-1.961433e-003
-1.930452e-003
-1.884361e-003
-1.821083e-003
-1.738325e-003
-1.633871e-003
-1.506063e-003
-1.354461e-003
-1.180618e-003
-9.887756e-004
-7.862387e-004
-5.831588e-004
-3.915395e-004
-2.234944e-004
-8.903622e-005
6.086121e-006
6.180288e-005
8.366470e-005
8.108741e-005
6.465769e-005
4.363567e-005
2.439062e-005
1.007839e-005
1.277808e-006
-2.980736e-006
-4.231935e-006
-3.897838e-006
-2.978020e-006
-2.025144e-006
-1.264024e-006
-7.348119e-007
-3.997184e-007
-2.026098e-007
-9.421540e-008
-3.875832e-008
-1.286699e-008
-2.354777e-009
8.716255e-010
1.139712e-009
5.833410e-010
1.405063e-010
-6.408948e-009
-4.337977e-009
-2.188545e-009
-4.143281e-009
-1.713184e-008
-5.202119e-008
-1.257041e-007
-2.640987e-007
-5.053607e-007
-9.010566e-007
-1.510103e-006
-2.375773e-006
-3.471952e-006
-4.607477e-006
-5.297337e-006
-4.651378e-006
-1.379093e-006
5.976123e-006
1.851493e-005
3.623243e-005
5.724145e-005
7.726332e-005
8.971022e-005
8.655993e-005
5.983804e-005
3.290336e-006
-8.627719e-005
-2.084660e-004
-3.596312e-004
-5.337971e-004
-7.237509e-004
-9.220314e-004
-1.121673e-003
-1.316681e-003
-1.502265e-003
-1.674888e-003
-1.832166e-003
-1.972653e-003
-2.095574e-003
-2.200544e-003
-2.287349e-003
-2.355803e-003
-2.405708e-003
-2.436901e-003
-2.449361e-003
-2.443360e-003
-2.419598e-003
-2.379310e-003
-2.324320e-003
-2.257031e-003
-2.180363e-003
-2.097666e-003
-2.012616e-003
-1.929112e-003
-1.851178e-003
-1.782875e-003
-1.728189e-003
-1.690901e-003
-1.674381e-003
-1.681297e-003
-1.713187e-003
-1.769868e-003
-1.848677e-003
-1.943591e-003
-2.044364e-003
-2.136011e-003
-2.199123e-003
-2.211649e-003
-2.152591e-003
-2.007462e-003
-1.774273e-003
-1.467649e-003
-1.118305e-003
-7.666220e-004
-4.523841e-004
-2.050820e-004
-3.801496e-005
5.280616e-005
8.445776e-005
7.928495e-005
5.766705e-005
3.382060e-005
1.503677e-005
3.298587e-006
-2.417942e-006
-4.189025e-006
-3.941942e-006
-2.979750e-006
-1.982493e-006
-1.204665e-006
-6.798879e-007
-3.581874e-007
-1.752237e-007
-7.810369e-008
-3.030668e-008
-9.026848e-009
-9.930214e-010
1.088070e-009
1.011106e-009
6.096816e-010
-1.278228e-009
-1.401203e-009
-4.197378e-009
-1.539562e-008
-4.527143e-008
-1.109337e-007
-2.396131e-007
-4.724862e-007
-8.669827e-007
-1.491931e-006
-2.403340e-006
-3.580332e-006
-4.798573e-006
-5.440368e-006
-4.304748e-006
4.211541e-007
1.079548e-005
2.816680e-005
5.163568e-005
7.627279e-005
9.180334e-005
8.282257e-005
3.131412e-005
-7.890555e-005
-2.570243e-004
-5.015827e-004
-7.998694e-004
-1.129877e-003
-1.463923e-003
-1.773268e-003
-2.032680e-003
-2.223711e-003
-2.336079e-003
-2.367330e-003
-2.321330e-003
-2.206149e-003
-2.031854e-003
-1.808663e-003
-1.545740e-003
-1.250699e-003
-9.297056e-004
-5.879249e-004
-2.300934e-004
1.389819e-004
5.141174e-004
8.896837e-004
1.259752e-003
1.618385e-003
1.959991e-003
2.279632e-003
2.573237e-003
2.837672e-003
3.070679e-003
3.270696e-003
3.436611e-003
3.567447e-003
3.662026e-003
3.718580e-003
3.734338e-003
3.705069e-003
3.624619e-003
3.484506e-003
3.273735e-003
2.979145e-003
2.586790e-003
2.085061e-003
1.470257e-003
7.547824e-004
-2.330913e-005
-7.933346e-004
-1.454625e-003
-1.896918e-003
-2.040244e-003
-1.878184e-003
-1.491435e-003
-1.012430e-003
-5.658031e-004
-2.287447e-004
-2.386948e-005
6.812920e-005
8.609129e-005
6.818073e-005
4.115976e-005
1.861688e-005
4.529022e-006
-2.176742e-006
-4.179048e-006
-3.896334e-006
-2.872806e-006
-1.855579e-006
-1.092647e-006
-5.967897e-007
-3.036243e-007
-1.427951e-007
-6.057622e-008
-2.179332e-008
-5.433700e-009
2.739868e-010
1.584870e-009
1.606234e-009
4.940897e-009
9.780067e-010
-1.031346e-008
-3.694424e-008
-9.413507e-008
-2.081181e-007
-4.207608e-007
-7.932540e-007
-1.403442e-006
-2.323468e-006
-3.551806e-006
-4.863625e-006
-5.559531e-006
-4.173034e-006
1.640635e-006
1.462658e-005
3.639926e-005
6.462940e-005
8.936998e-005
9.001668e-005
3.584253e-005
-1.073526e-004
-3.645931e-004
-7.366078e-004
-1.189746e-003
-1.654627e-003
-2.036575e-003
-2.241048e-003
-2.204601e-003
-1.913291e-003
-1.399650e-003
-7.248114e-004
4.158440e-005
8.359051e-004
1.608204e-003
2.324576e-003
2.965948e-003
3.524860e-003
4.001572e-003
4.400527e-003
4.727734e-003
4.989192e-003
5.190205e-003
5.335349e-003
5.428789e-003
5.474733e-003
5.477819e-003
5.443356e-003
5.377369e-003
5.286488e-003
5.177730e-003
5.058258e-003
4.935156e-003
4.815276e-003
4.705163e-003
4.611031e-003
4.538765e-003
4.493913e-003
4.481592e-003
4.506269e-003
4.571297e-003
4.678067e-003
4.824609e-003
5.003372e-003
5.198013e-003
5.379068e-003
5.498906e-003
5.487309e-003
5.251145e-003
4.685377e-003
3.707473e-003
2.324875e-003
7.155127e-004
-7.588735e-004
-1.698484e-003
-1.919182e-003
-1.575151e-003
-1.003085e-003
-4.805282e-004
-1.324873e-004
3.796265e-005
8.630827e-005
7.433175e-005
4.520946e-005
2.000327e-005
4.602426e-006
-2.357316e-006
-4.206494e-006
-3.755285e-006
-2.663032e-006
-1.657939e-006
-9.419783e-007
-4.962296e-007
-2.428314e-007
-1.090584e-007
-4.339819e-008
-1.385326e-008
-2.095349e-009
1.755729e-009
2.660049e-009
9.612391e-009
-1.573240e-010
-2.434833e-008
-7.442916e-008
-1.728320e-007
-3.585563e-007
-6.926468e-007
-1.258733e-006
-2.145733e-006
-3.384268e-006
-4.789143e-006
-5.662097e-006
-4.388041e-006
1.823455e-006
1.645766e-005
4.159838e-005
7.344661e-005
9.565843e-005
7.310715e-005
-4.716349e-005
-3.202812e-004
-7.702592e-004
-1.347255e-003
-1.896653e-003
-2.171232e-003
-1.933567e-003
-1.106442e-003
1.695432e-004
1.621414e-003
2.982432e-003
4.081332e-003
4.854248e-003
5.311904e-003
5.501616e-003
5.481562e-003
5.307326e-003
5.025993e-003
4.674332e-003
4.279238e-003
3.859386e-003
3.427368e-003
2.991764e-003
2.558845e-003
2.133760e-003
1.721213e-003
1.325701e-003
9.514517e-004
6.022089e-004
2.809872e-004
-1.009145e-005
-2.698428e-004
-4.979388e-004
-6.947232e-004
-8.609596e-004
-9.975438e-004
-1.105200e-003
-1.184169e-003
-1.233872e-003
-1.252525e-003
-1.236674e-003
-1.180603e-003
-1.075610e-003
-9.091821e-004
-6.641880e-004
-3.184607e-004
1.545127e-004
7.824302e-004
1.586277e-003
2.564305e-003
3.663800e-003
4.739323e-003
5.511192e-003
5.576833e-003
4.571992e-003
2.526610e-003
1.587845e-004
-1.464432e-003
-1.846137e-003
-1.384345e-003
-7.273246e-004
-2.392703e-004
8.682604e-006
8.431920e-005
7.638316e-005
4.540713e-005
1.888504e-005
3.500893e-006
-2.878161e-006
-4.211603e-006
-3.504852e-006
-2.364105e-006
-1.410450e-006
-7.701854e-007
-3.897605e-007
-1.823552e-007
-7.731254e-008
-2.804259e-008
-7.022055e-009
8.410403e-010
3.191131e-009
9.770342e-009
-8.179219e-009
-5.073678e-008
-1.344915e-007
-2.919846e-007
-5.790000e-007
-1.079015e-006
-1.893502e-006
-3.090591e-006
-4.558498e-006
-5.692740e-006
-4.901224e-006
8.522357e-007
1.575352e-005
4.275621e-005
7.746815e-005
9.765546e-005
5.182117e-005
-1.403711e-004
-5.567711e-004
-1.195389e-003
-1.863377e-003
-2.110392e-003
-1.415496e-003
3.093855e-004
2.495211e-003
4.350531e-003
5.398656e-003
5.596906e-003
5.154790e-003
4.337540e-003
3.363301e-003
2.377496e-003
1.463264e-003
6.601914e-004
-1.971607e-005
-5.805859e-004
-1.034849e-003
-1.398058e-003
-1.685704e-003
-1.911543e-003
-2.086967e-003
-2.221044e-003
-2.320874e-003
-2.392084e-003
-2.439284e-003
-2.466447e-003
-2.477157e-003
-2.474756e-003
-2.462391e-003
-2.443028e-003
-2.419428e-003
-2.394137e-003
-2.369484e-003
-2.347594e-003
-2.330417e-003
-2.319757e-003
-2.317299e-003
-2.324610e-003
-2.343099e-003
-2.373890e-003
-2.417562e-003
-2.473639e-003
-2.539683e-003
-2.609674e-003
-2.671247e-003
-2.701057e-003
-2.657468e-003
-2.470295e-003
-2.030392e-003
-1.190784e-003
1.914219e-004
2.126957e-003
4.264486e-003
5.706356e-003
5.315282e-003
2.847496e-003
-1.501171e-004
-1.708450e-003
-1.615317e-003
-9.027272e-004
-3.065901e-004
-4.298925e-006
8.407752e-005
7.465824e-005
4.173848e-005
1.552425e-005
1.560415e-006
-3.514829e-006
-4.105945e-006
-3.139499e-006
-2.000347e-006
-1.138869e-006
-5.954496e-007
-2.880046e-007
-1.277035e-007
-5.016980e-008
-1.565820e-008
-1.862053e-009
2.655715e-009
2.476033e-009
-2.652993e-008
-9.418353e-008
-2.243065e-007
-4.628409e-007
-8.858466e-007
-1.598392e-006
-2.700657e-006
-4.168988e-006
-5.565263e-006
-5.502478e-006
-9.931624e-007
1.263120e-005
3.957435e-005
7.655385e-005
9.858915e-005
4.046965e-005
-2.070149e-004
-7.469730e-004
-1.525773e-003
-2.089745e-003
-1.527667e-003
6.913887e-004
3.598196e-003
5.489811e-003
5.605588e-003
4.365812e-003
2.582467e-003
8.694778e-004
-4.859590e-004
-1.430460e-003
-2.023602e-003
-2.356016e-003
-2.510287e-003
-2.549289e-003
-2.516892e-003
-2.442289e-003
-2.344307e-003
-2.234756e-003
-2.120826e-003
-2.006750e-003
-1.894937e-003
-1.786733e-003
-1.682910e-003
-1.583962e-003
-1.490265e-003
-1.402154e-003
-1.319950e-003
-1.243957e-003
-1.174447e-003
-1.111660e-003
-1.055809e-003
-1.007090e-003
-9.657154e-004
-9.319473e-004
-9.061383e-004
-8.887833e-004
-8.805791e-004
-8.824974e-004
-8.958734e-004
-9.225186e-004
-9.648598e-004
-1.026111e-003
-1.110467e-003
-1.223293e-003
-1.371193e-003
-1.561698e-003
-1.801881e-003
-2.094363e-003
-2.427421e-003
-2.753163e-003
-2.945641e-003
-2.739756e-003
-1.704843e-003
5.520565e-004
3.685077e-003
5.859564e-003
4.860495e-003
1.302912e-003
-1.376886e-003
-1.703868e-003
-9.688029e-004
-3.104738e-004
5.950584e-006
8.584714e-005
6.892462e-005
3.472258e-005
1.069363e-005
-6.546876e-007
-4.002550e-006
-3.823323e-006
-2.676359e-006
-1.605737e-006
-8.698598e-007
-4.337493e-007
-1.992131e-007
-8.270444e-008
-2.924884e-008
-7.002031e-009
6.370475e-010
-1.499627e-008
-5.849778e-008
-1.593201e-007
-3.509303e-007
-6.958571e-007
-1.291869e-006
-2.256496e-006
-3.645222e-006
-5.215426e-006
-5.921553e-006
-3.143059e-006
7.847469e-006
3.251934e-005
7.045248e-005
9.902967e-005
4.735795e-005
-2.182625e-004
-8.349498e-004
-1.707302e-003
-2.065689e-003
-4.966939e-004
2.989233e-003
5.652034e-003
5.401074e-003
3.029468e-003
3.901809e-004
-1.457874e-003
-2.391798e-003
-2.682476e-003
-2.619953e-003
-2.400015e-003
-2.130649e-003
-1.863702e-003
-1.620478e-003
-1.407275e-003
-1.223678e-003
-1.066637e-003
-9.323633e-004
-8.171526e-004
-7.177149e-004
-6.312789e-004
-5.555938e-004
-4.888827e-004
-4.297740e-004
-3.772255e-004
-3.304494e-004
-2.888456e-004
-2.519457e-004
-2.193702e-004
-1.907977e-004
-1.659476e-004
-1.445720e-004
-1.264560e-004
-1.114245e-004
-9.935093e-005
-9.017143e-005
-8.390164e-005
-8.066049e-005
-8.070290e-005
-8.446679e-005
-9.264144e-005
-1.062690e-004
-1.268967e-004
-1.568066e-004
-1.993658e-004
-2.595587e-004
-3.447837e-004
-4.659859e-004
-6.390882e-004
-8.862504e-004
-1.235181e-003
-1.711182e-003
-2.308016e-003
-2.907348e-003
-3.109313e-003
-2.065790e-003
1.029509e-003
4.943349e-003
5.743976e-003
2.200784e-003
-1.193810e-003
-1.705321e-003
-9.153369e-004
-2.497267e-004
3.380515e-005
8.601083e-005
5.888973e-005
2.549245e-005
5.473965e-006
-2.560295e-006
-4.148990e-006
-3.355623e-006
-2.157055e-006
-1.217954e-006
-6.263418e-007
-2.965196e-007
-1.282670e-007
-4.908538e-008
-1.515977e-008
-3.149602e-009
-4.511790e-008
-1.070903e-007
-2.503591e-007
-5.204780e-007
-9.988598e-007
-1.802243e-006
-3.038155e-006