# vtk DataFile Version 3.0
vtk output
ASCII
DATASET STRUCTURED_POINTS
DIMENSIONS 100 100 1
SPACING 1 1 1
ORIGIN 0 0 0
POINT_DATA 10000
SCALARS SFBox_profile double
LOOKUP_TABLE default 
0.000000e+000
0.000000e+000
0.000000e+000
0.000000e+000
0.000000e+000
0.000000e+000
0.000000e+000
0.000000e+000
0.000000e+000
0.000000e+000
0.000000e+000
0.000000e+000
0.000000e+000
0.000000e+000
0.000000e+000
0.000000e+000
0.000000e+000
0.000000e+000
0.000000e+000
0.000000e+000
0.000000e+000
0.000000e+000
0.000000e+000
0.000000e+000
0.000000e+000
0.000000e+000
0.000000e+000
0.000000e+000
0.000000e+000
0.000000e+000
0.000000e+000
0.000000e+000
0.000000e+000
0.000000e+000
0.000000e+000
0.000000e+000
0.000000e+000
0.000000e+000
0.000000e+000
0.000000e+000
0.000000e+000
0.000000e+000
0.000000e+000
0.000000e+000
0.000000e+000
0.000000e+000
0.000000e+000
0.000000e+000
0.000000e+000
0.000000e+000
0.000000e+000
0.000000e+000
0.000000e+000
0.000000e+000
0.000000e+000
0.000000e+000
0.000000e+000
0.000000e+000
0.000000e+000
0.000000e+000
0.000000e+000
0.000000e+000
0.000000e+000
0.000000e+000
0.000000e+000
0.000000e+000
0.000000e+000
0.000000e+000
0.000000e+000
0.000000e+000
0.000000e+000
0.000000e+000
0.000000e+000
0.000000e+000
0.000000e+000
0.000000e+000
0.000000e+000
0.000000e+000
0.000000e+000
0.000000e+000
0.000000e+000
0.000000e+000
0.000000e+000
0.000000e+000
0.000000e+000
0.000000e+000
0.000000e+000
0.000000e+000
0.000000e+000
0.000000e+000
0.000000e+000
0.000000e+000
0.000000e+000
0.000000e+000
0.000000e+000
0.000000e+000
0.000000e+000
0.000000e+000
0.000000e+000
0.000000e+000
1.351407e-016
1.466333e-016
1.427301e-016
1.661489e-016
1.091199e-016
1.535722e-016
-5.611254e-017
-4.459916e-016
-1.255674e-015
-2.595314e-015
-5.142105e-015
-8.917080e-015
-1.504434e-014
-2.385066e-014
-3.647837e-014
-5.440782e-014
-7.844935e-014
-1.102963e-013
-1.504256e-013
-1.992019e-013
-2.570233e-013
-3.219384e-013
-3.912987e-013
-4.600395e-013
-5.215283e-013
-5.660539e-013
-5.828510e-013
-5.581574e-013
-4.770851e-013
-3.246552e-013
-8.538868e-014
2.542691e-013
7.060195e-013
1.277889e-012
1.973565e-012
2.792467e-012
3.728921e-012
4.772215e-012
5.907057e-012
7.114330e-012
8.371287e-012
9.653071e-012
1.093249e-011
1.218192e-011
1.337339e-011
1.447916e-011
1.547281e-011
1.632957e-011
1.702646e-011
1.754389e-011
1.786522e-011
1.797821e-011
1.787529e-011
1.755451e-011
1.701966e-011
1.628123e-011
1.535600e-011
1.426770e-011
1.304506e-011
1.172256e-011
1.033748e-011
8.929268e-012
7.537167e-012
6.198093e-012
4.945072e-012
3.805000e-012
2.798094e-012
1.936242e-012
1.224058e-012
6.584206e-013
2.296083e-013
-7.646266e-014
-2.776761e-013
-3.933724e-013
-4.428616e-013
-4.447570e-013
-4.144332e-013
-3.656471e-013
-3.083330e-013
-2.502345e-013
-1.961375e-013
-1.488796e-013
-1.096436e-013
-7.824574e-014
-5.427359e-014
-3.646406e-014
-2.372576e-014
-1.488279e-014
-8.896263e-015
-5.236214e-015
-2.910817e-015
-1.388380e-015
-6.769267e-016
-1.857831e-016
-6.977349e-017
1.017473e-016
7.355804e-017
1.201787e-016
1.371008e-017
1.340565e-016
1.383933e-016
8.418322e-017
2.650281e-016
1.238650e-016
1.318881e-016
-3.572954e-017
-4.273434e-016
-1.201897e-015
-2.550428e-015
-4.936757e-015
-8.291279e-015
-1.420625e-014
-2.256437e-014
-3.515130e-014
-5.248835e-014
-7.606606e-014
-1.068281e-013
-1.455270e-013
-1.922476e-013
-2.461318e-013
-3.041959e-013
-3.617397e-013
-4.108087e-013
-4.408652e-013
-4.373760e-013
-3.820496e-013
-2.538843e-013
-2.897330e-014
3.177136e-013
8.120373e-013
1.477517e-012
2.334977e-012
3.399419e-012
4.680000e-012
6.178155e-012
7.886543e-012
9.790166e-012
1.186521e-011
1.408118e-011
1.640112e-011
1.878342e-011
2.118257e-011
2.355166e-011
2.584246e-011
2.800705e-011
2.999933e-011
3.177505e-011
3.329298e-011
3.451643e-011
3.541245e-011
3.595480e-011
3.612343e-011
3.590628e-011
3.529997e-011
3.431109e-011
3.295655e-011
3.126416e-011
2.927245e-011
2.702947e-011
2.459233e-011
2.202434e-011
1.939227e-011
1.676454e-011
1.420611e-011
1.177680e-011
9.527022e-012
7.497151e-012
5.713910e-012
4.191112e-012
2.930094e-012
1.920097e-012
1.141214e-012
5.665466e-013
1.653181e-013
-9.547176e-014
-2.467271e-013
-3.180695e-013
-3.335962e-013
-3.143368e-013
-2.756436e-013
-2.290940e-013
-1.820846e-013
-1.389793e-013
-1.027593e-013
-7.328248e-014
-5.045373e-014
-3.371625e-014
-2.177745e-014
-1.360322e-014
-8.132768e-015
-4.760249e-015
-2.443309e-015
-1.199295e-015
-5.333783e-016
-2.287175e-016
-2.336117e-018
3.864673e-017
2.997311e-017
1.227808e-016
1.045747e-017
1.858814e-016
1.715699e-016
5.404240e-017
7.897905e-017
-2.165745e-016
-5.943105e-016
-1.461889e-015
-3.020321e-015
-5.731694e-015
-9.569336e-015
-1.639222e-014
-2.607566e-014
-4.032533e-014
-6.025644e-014
-8.709565e-014
-1.218304e-013
-1.648930e-013
-2.150389e-013
-2.699518e-013
-3.233025e-013
-3.656179e-013
-3.820103e-013
-3.520872e-013
-2.485054e-013
-3.658158e-014
3.236802e-013
8.789948e-013
1.679683e-012
2.776748e-012
4.219332e-012
6.051661e-012
8.307989e-012
1.101154e-011
1.416981e-011
1.777433e-011
2.179975e-011
2.620359e-011
3.092813e-011
3.590247e-011
4.104442e-011
4.626464e-011
5.146826e-011
5.655847e-011
6.143793e-011
6.601234e-011
7.019050e-011
7.388715e-011
7.702337e-011
7.952832e-011
8.134103e-011
8.241111e-011
8.270140e-011
8.218881e-011
8.086778e-011
7.875024e-011
7.586844e-011
7.227491e-011
6.804328e-011
6.326619e-011
5.805389e-011
5.253065e-011
4.683000e-011
4.108938e-011
3.544318e-011
3.001788e-011
2.492456e-011
2.025402e-011
1.607391e-011
1.242530e-011
9.323027e-012
6.758016e-012
4.699600e-012
3.100837e-012
1.903579e-012
1.043939e-012
4.572656e-013
8.252106e-014
-1.353819e-013
-2.426841e-013
-2.773848e-013
-2.678068e-013
-2.350151e-013
-1.928990e-013
-1.503372e-013
-1.123870e-013
-8.040525e-014
-5.588797e-014
-3.717464e-014
-2.406577e-014
-1.495565e-014
-8.878049e-015
-5.126709e-015
-2.724985e-015
-1.347831e-015
-6.322576e-016
-2.382585e-016
-4.375264e-017
2.628682e-017
8.591794e-017
3.452676e-017
1.295029e-016
8.917055e-017
1.019641e-016
-1.825305e-016
-6.862508e-016
-1.673092e-015
-3.514284e-015
-6.634184e-015
-1.160156e-014
-1.944100e-014
-3.112544e-014
-4.820878e-014
-7.221042e-014
-1.045029e-013
-1.456788e-013
-1.955800e-013
-2.520050e-013
-3.091285e-013
-3.556380e-013
-3.738665e-013
-3.375310e-013
-2.081895e-013
6.423209e-014
5.444985e-013
1.309541e-012
2.449941e-012
4.064378e-012
6.256578e-012
9.129115e-012
1.277611e-011
1.727671e-011
2.268756e-011
2.903703e-011
3.632163e-011
4.450269e-011
5.350739e-011
6.323015e-011
7.353706e-011
8.427029e-011
9.525465e-011
1.063028e-010
1.172216e-010
1.278175e-010
1.379000e-010
1.472859e-010
1.558020e-010
1.632870e-010
1.695939e-010
1.745921e-010
1.781688e-010
1.802326e-010
1.807150e-010
1.795752e-010
1.768018e-010
1.724175e-010
1.664808e-010
1.590887e-010
1.503765e-010
1.405174e-010
1.297191e-010
1.182185e-010
1.062740e-010
9.415588e-011
8.213536e-011
7.047196e-011
5.940176e-011
4.912644e-011
3.980337e-011
3.154063e-011
2.439368e-011
1.836688e-011
1.341911e-011
9.471454e-012
6.416335e-012
4.130028e-012
2.481374e-012
1.343390e-012
5.973653e-013
1.407460e-013
-1.125154e-013
-2.301774e-013
-2.640238e-013
-2.502661e-013
-2.139044e-013
-1.704632e-013
-1.286601e-013
-9.283845e-014
-6.426755e-014
-4.279753e-014
-2.771953e-014
-1.698311e-014
-1.014765e-014
-5.825152e-015
-3.107274e-015
-1.564455e-015
-6.877687e-016
-2.705677e-016
1.133330e-018
-1.404550e-017
1.266839e-016
2.351042e-016
9.155579e-017
-1.838316e-016
-8.994050e-016
-1.954334e-015
-4.045760e-015
-7.573970e-015
-1.342628e-014
-2.256003e-014
-3.638968e-014
-5.689606e-014
-8.544896e-014
-1.235944e-013
-1.724397e-013
-2.304781e-013
-2.933816e-013
-3.506092e-013
-3.837308e-013
-3.623117e-013
-2.408049e-013
4.673198e-014
5.891395e-013
1.500717e-012
2.923183e-012
5.022954e-012
7.987718e-012
1.201834e-011
1.731805e-011
2.408009e-011
3.247261e-011
4.262494e-011
5.461469e-011
6.845810e-011
8.410388e-011
1.014327e-010
1.202595e-010
1.403409e-010
1.613853e-010
1.830644e-010
2.050256e-010
2.269033e-010
2.483309e-010
2.689481e-010
2.884085e-010
3.063854e-010
3.225750e-010
3.366987e-010
3.485069e-010
3.577794e-010
3.643288e-010
3.680037e-010
3.686928e-010
3.663290e-010
3.608948e-010
3.524276e-010
3.410251e-010
3.268479e-010
3.101230e-010
2.911439e-010
2.702667e-010
2.479050e-010
2.245186e-010
2.005998e-010
1.766554e-010
1.531851e-010
1.306598e-010
1.094990e-010
9.004927e-011
7.257086e-011
5.722539e-011
4.407528e-011
3.308776e-011
2.414753e-011
1.707404e-011
1.164203e-011
7.602456e-012
4.702498e-012
2.701791e-012
1.383871e-012
5.642232e-013
9.206052e-014
-1.497103e-013
-2.474186e-013
-2.627392e-013
-2.358261e-013
-1.922038e-013
-1.465960e-013
-1.059710e-013
-7.324995e-014
-4.869949e-014
-3.101724e-014
-1.912961e-014
-1.118762e-014
-6.396961e-015
-3.447714e-015
-1.665285e-015
-6.602300e-016
-3.390893e-016
7.659380e-017
4.558562e-017
1.978161e-017
-2.855297e-016
-8.820578e-016
-2.103737e-015
-4.456889e-015
-8.384954e-015
-1.503155e-014
-2.558734e-014
-4.156197e-014
-6.559245e-014
-9.860055e-014
-1.435234e-013
-2.002642e-013
-2.664170e-013
-3.340691e-013
-3.873576e-013
-3.967208e-013
-3.133103e-013
-6.286416e-014
4.620061e-013
1.410208e-012
2.976351e-012
5.405159e-012
8.991124e-012
1.407194e-011
2.101639e-011
3.020646e-011
4.201347e-011
5.677005e-011
7.474299e-011
9.610592e-011
1.209190e-010
1.491155e-010
1.804985e-010
2.147437e-010
2.514170e-010
2.899916e-010
3.298724e-010
3.704222e-010
4.109853e-010
4.509077e-010
4.895554e-010
5.263272e-010
5.606627e-010
5.920488e-010
6.200216e-010
6.441683e-010
6.641262e-010
6.795848e-010
6.902850e-010
6.960220e-010
6.966484e-010
6.920784e-010
6.822939e-010
6.673494e-010
6.473816e-010
6.226141e-010
5.933649e-010
5.600515e-010
5.231932e-010
4.834098e-010
4.414143e-010
3.979991e-010
3.540137e-010
3.103347e-010
2.678293e-010
2.273116e-010
1.895028e-010
1.549902e-010
1.241982e-010
9.737037e-011
7.456712e-011
5.567699e-011
4.044377e-011
2.850135e-011
1.941313e-011
1.271320e-011
7.940629e-012
4.667682e-012
2.517849e-012
1.177229e-012
3.945774e-013
-2.137738e-014
-2.093071e-013
-2.659105e-013
-2.540142e-013
-2.125322e-013
-1.638025e-013
-1.186555e-013
-8.187153e-014
-5.392210e-014
-3.414712e-014
-2.089253e-014
-1.220698e-014
-6.692731e-015
-3.663036e-015
-1.820543e-015
-6.558932e-016
-2.219955e-016
-4.288528e-017
-3.813732e-016
-8.183067e-016
-2.240780e-015
-4.767622e-015
-9.031138e-015
-1.630722e-014
-2.817294e-014
-4.615075e-014
-7.315367e-014
-1.111036e-013
-1.624605e-013
-2.268944e-013
-3.002450e-013
-3.713620e-013
-4.159435e-013
-3.893604e-013
-2.177656e-013
2.125733e-013
1.070644e-012
2.592305e-012
5.093112e-012
8.977707e-012
1.474082e-011
2.296073e-011
3.428085e-011
4.937924e-011
6.892559e-011
9.353090e-011
1.236921e-010
1.597398e-010
2.017956e-010
2.497436e-010
3.032216e-010
3.616322e-010
4.241734e-010
4.898812e-010
5.576823e-010
6.264482e-010
6.950444e-010
7.623740e-010
8.274081e-010
8.892090e-010
9.469405e-010
9.998731e-010
1.047381e-009
1.088939e-009
1.124110e-009
1.152542e-009
1.173956e-009
1.188143e-009
1.194954e-009
1.194295e-009
1.186129e-009
1.170469e-009
1.147381e-009
1.116990e-009
1.079490e-009
1.035155e-009
9.843651e-010
9.276234e-010
8.655834e-010
7.990692e-010
7.290832e-010
6.568019e-010
5.835499e-010
5.107514e-010
4.398622e-010
3.722849e-010
3.092817e-010
2.518895e-010
2.008557e-010
1.565994e-010
1.192050e-010
8.844794e-011
6.384628e-011
4.473107e-011
3.032228e-011
1.980255e-011
1.238025e-011
7.334424e-012
4.043749e-012
1.999632e-012
8.036172e-013
1.588699e-013
-1.471980e-013
-2.578326e-013
-2.664676e-013
-2.296338e-013
-1.786474e-013
-1.295452e-013
-8.892990e-014
-5.830921e-014
-3.652802e-014
-2.188761e-014
-1.275971e-014
-6.880732e-015
-3.620102e-015
-1.858707e-015
-7.621450e-016
-3.249947e-016
-1.240712e-015
-2.414903e-015
-4.898376e-015
-9.428607e-015
-1.729037e-014
-3.001479e-014
-4.987477e-014
-7.960793e-014
-1.222437e-013
-1.795152e-013
-2.512861e-013
-3.316201e-013
-4.040726e-013
-4.346436e-013
-3.604165e-013
-7.498988e-014
5.889116e-013
1.883000e-012
4.165496e-012
7.924866e-012
1.379880e-011
2.258036e-011
3.521416e-011
5.276665e-011
7.637681e-011
1.071807e-010
1.462176e-010
1.943251e-010
2.520342e-010
3.194823e-010
3.963537e-010
4.818635e-010
5.747833e-010
6.735114e-010
7.761761e-010
8.807574e-010
9.852122e-010
1.087588e-009
1.186114e-009
1.279261e-009
1.365779e-009
1.444700e-009
1.515327e-009
1.577209e-009
1.630109e-009
1.673968e-009
1.708869e-009
1.735009e-009
1.752660e-009
1.762141e-009
1.763784e-009
1.757901e-009
1.744746e-009
1.724487e-009
1.697174e-009
1.662725e-009
1.620933e-009
1.571485e-009
1.514028e-009
1.448245e-009
1.373965e-009
1.291283e-009
1.200664e-009
1.103038e-009
9.998279e-010
8.929374e-010
7.846561e-010
6.775110e-010
5.740727e-010
4.767439e-010
3.875614e-010
3.080421e-010
2.390918e-010
1.809876e-010
1.334292e-010
9.564459e-011
6.652758e-011
4.478560e-011
2.907337e-011
1.810392e-011
1.072413e-011
5.957866e-012
3.020314e-012
1.309397e-012
3.839859e-013
-6.385642e-014
-2.397676e-013
-2.735049e-013
-2.427227e-013
-1.906526e-013
-1.380323e-013
-9.412084e-014
-6.127667e-014
-3.799842e-014
-2.259906e-014
-1.273239e-014
-7.096921e-015
-3.516886e-015
-1.616496e-015
-1.075696e-015
-3.138282e-015
-5.178968e-015
-9.807210e-015
-1.769500e-014
-3.115732e-014
-5.268090e-014
-8.460892e-014
-1.310672e-013
-1.937334e-013
-2.722765e-013
-3.587512e-013
-4.313567e-013
-4.449216e-013
-3.142766e-013
1.064251e-013
1.051682e-012
2.879127e-012
6.109985e-012
1.146695e-011
1.990968e-011
3.265583e-011
5.117581e-011
7.715337e-011
1.124031e-010
1.587384e-010
2.177987e-010
2.908456e-010
3.785556e-010
4.808353e-010
5.966965e-010
7.242158e-010
8.605950e-010
1.002325e-009
1.145434e-009
1.285785e-009
1.419388e-009
1.542682e-009
1.652759e-009
1.747500e-009
1.825636e-009
1.886725e-009
1.931079e-009
1.959655e-009
1.973925e-009
1.975755e-009
1.967289e-009
1.950843e-009
1.928817e-009
1.903599e-009
1.877470e-009
1.852503e-009
1.830442e-009
1.812574e-009
1.799593e-009
1.791474e-009
1.787381e-009
1.785621e-009
1.783684e-009
1.778370e-009
1.766031e-009
1.742900e-009
1.705492e-009
1.651033e-009
1.577853e-009
1.485681e-009
1.375797e-009
1.250987e-009
1.115311e-009
9.737054e-010
8.314772e-010
6.937703e-010
5.650800e-010
4.488897e-010
3.474664e-010
2.618282e-010
1.918604e-010
1.365405e-010
9.421837e-011
6.290115e-011
4.050331e-011
2.504154e-011
1.476015e-011
8.196013e-012
4.193151e-012
1.881603e-012
6.370759e-013
3.125435e-014
-2.152232e-013
-2.760801e-013
-2.521598e-013
-1.992661e-013
-1.441613e-013
-9.750767e-014
-6.259506e-014
-3.838570e-014
-2.253032e-014
-1.261746e-014
-6.806789e-015
-3.799212e-015
-2.188305e-015
-6.592551e-015
-1.011642e-014
-1.797039e-014
-3.177011e-014
-5.378982e-014
-8.773099e-014
-1.372135e-013
-2.046635e-013
-2.893369e-013
-3.811751e-013
-4.536321e-013
-4.495238e-013
-2.591403e-013
3.086165e-013
1.567407e-012
4.005012e-012
8.345078e-012
1.561169e-011
2.718973e-011
4.486568e-011
7.083012e-011
1.076196e-010
1.579821e-010
2.246465e-010
3.100035e-010
4.157120e-010
5.422772e-010
6.886570e-010
8.519721e-010
1.027391e-009
1.208240e-009
1.386353e-009
1.552652e-009
1.697869e-009
1.813336e-009
1.891726e-009
1.927646e-009
1.918029e-009
1.862282e-009
1.762215e-009
1.621790e-009
1.446766e-009
1.244282e-009
1.022456e-009
7.900248e-010
5.560358e-010
3.295914e-010
1.196283e-010
-6.529516e-011
-2.172318e-010
-3.291185e-010
-3.951036e-010
-4.109273e-010
-3.743340e-010
-2.854804e-010
-1.472767e-010
3.440163e-011
2.507145e-010
4.901244e-010
7.389722e-010
9.823576e-010
1.205270e-009
1.393865e-009
1.536735e-009
1.626001e-009
1.658060e-009
1.633863e-009
1.558651e-009
1.441205e-009
1.292705e-009
1.125388e-009
9.512134e-010
7.807278e-010
6.222699e-010
4.815751e-010
3.617696e-010
2.636756e-010
1.863131e-010
1.274817e-010
8.432073e-011
5.377498e-011
3.293593e-011
1.925263e-011
1.062910e-011
5.436957e-012
2.473437e-012
8.924147e-013
1.261964e-013
-1.895449e-013
-2.754836e-013
-2.579288e-013
-2.041285e-013
-1.465860e-013
-9.853463e-014
-6.251310e-014
-3.765104e-014
-2.195353e-014
-1.207905e-014
-6.817631e-015
-4.599136e-015
-1.285815e-014
-1.902163e-014
-3.167578e-014
-5.404634e-014
-8.883644e-014
-1.404421e-013
-2.116132e-013
-3.012178e-013
-3.986273e-013
-4.719679e-013
-4.527875e-013
-2.060691e-013
5.070729e-013
2.087767e-012
5.173223e-012
1.072647e-011
2.013837e-011
3.532405e-011
5.879722e-011
9.368368e-011
1.436402e-010
2.126331e-010
3.045424e-010
4.225783e-010
5.685261e-010
7.418874e-010
9.390279e-010
1.152484e-009
1.370597e-009
1.577622e-009
1.754392e-009
1.879552e-009
1.931233e-009
1.888984e-009
1.735693e-009
1.459237e-009
1.053650e-009
5.196829e-010
-1.352660e-010
-8.977475e-010
-1.749247e-009
-2.667367e-009
-3.627026e-009
-4.601555e-009
-5.563608e-009
-6.485875e-009
-7.341628e-009
-8.105171e-009
-8.752272e-009
-9.260659e-009
-9.610652e-009
-9.785960e-009
-9.774661e-009
-9.570297e-009
-9.173017e-009
-8.590588e-009
-7.839121e-009
-6.943291e-009
-5.935889e-009
-4.856561e-009
-3.749720e-009
-2.661714e-009
-1.637474e-009
-7.170066e-010
6.784226e-011
6.958943e-010
1.158040e-009
1.457306e-009
1.607577e-009
1.631175e-009
1.555710e-009
1.410687e-009
1.224393e-009
1.021453e-009
8.212977e-010
6.375740e-010
4.783851e-010
3.471144e-010
2.435724e-010
1.652034e-010
1.081760e-010
6.824289e-011
4.133371e-011
2.390149e-011
1.306993e-011
6.641839e-012
3.024576e-012
1.120278e-012
2.066648e-013
-1.687237e-013
-2.739533e-013
-2.602575e-013
-2.055573e-013
-1.463232e-013
-9.694779e-014
-6.075344e-014
-3.633352e-014
-2.096517e-014
-1.247283e-014
-8.344621e-015
-2.339053e-014
-3.306248e-014
-5.369615e-014
-8.836460e-014
-1.407738e-013
-2.141390e-013
-3.080836e-013
-4.105188e-013
-4.868427e-013
-4.581632e-013
-1.668821e-013
6.734507e-013
2.554420e-012
6.272333e-012
1.305737e-011
2.472090e-011
4.380578e-011
7.370694e-011
1.187072e-010
1.838621e-010
2.746491e-010
3.962991e-010
5.527564e-010
7.452602e-010
9.706326e-010
1.219454e-009
1.474421e-009
1.709237e-009
1.888431e-009
1.968361e-009
1.899564e-009
1.630319e-009
1.111078e-009
2.992034e-010
-8.366293e-010
-2.312986e-009
-4.129627e-009
-6.269055e-009
-8.697579e-009
-1.136758e-008
-1.422053e-008
-1.719027e-008
-2.020613e-008
-2.319556e-008
-2.608621e-008
-2.880741e-008
-3.129119e-008
-3.347301e-008
-3.529253e-008
-3.669457e-008
-3.763033e-008
-3.805925e-008
-3.795124e-008
-3.728939e-008
-3.607277e-008
-3.431920e-008
-3.206731e-008
-2.937757e-008
-2.633180e-008
-2.303067e-008
-1.958924e-008
-1.613045e-008
-1.277712e-008
-9.643176e-009
-6.825162e-009
-4.395085e-009
-2.395698e-009
-8.388728e-010
2.926649e-010
1.040573e-009
1.463909e-009
1.631088e-009
1.612005e-009
1.471405e-009
1.264205e-009
1.033013e-009
8.077105e-010
6.066108e-010
4.386038e-010
3.056945e-010
2.054549e-010
1.330869e-010
8.295957e-011
4.961556e-011
2.832312e-011
1.529459e-011
7.685000e-012
3.472496e-012
1.290589e-012
2.602684e-013
-1.565893e-013
-2.731584e-013
-2.594801e-013
-2.031857e-013
-1.427733e-013
-9.343584e-014
-5.785970e-014
-3.458904e-014
-2.133380e-014
-1.499382e-014
-4.041185e-014
-5.557117e-014
-8.723291e-014
-1.382101e-013
-2.125691e-013
-3.093126e-013
-4.166235e-013
-4.988435e-013
-4.689707e-013
-1.515510e-013
7.818239e-013
2.908278e-012
7.182149e-012
1.511131e-011
2.896080e-011
5.197476e-011
8.856078e-011
1.443637e-010
2.261073e-010
3.410588e-010
4.959408e-010
6.951470e-010
9.381745e-010
1.216335e-009
1.508998e-009
1.779857e-009
1.973924e-009
2.016097e-009
1.812072e-009
1.252159e-009
2.181082e-010
-1.407543e-009
-3.730607e-009
-6.834311e-009
-1.076983e-008
-1.554966e-008
-2.114463e-008
-2.748485e-008
-3.446404e-008
-4.194642e-008
-4.977479e-008
-5.777880e-008
-6.578228e-008
-7.360913e-008
-8.108754e-008
-8.805263e-008
-9.434806e-008
-9.982693e-008
-1.043527e-007
-1.078007e-007
-1.100605e-007
-1.110394e-007
-1.106675e-007
-1.089036e-007
-1.057416e-007
-1.012177e-007
-9.541507e-008
-8.846790e-008
-8.056128e-008
-7.192724e-008
-6.283597e-008
-5.358223e-008
-4.446774e-008
-3.578103e-008
-2.777684e-008
-2.065785e-008
-1.456100e-008
-9.550714e-009
-5.619805e-009
-2.697971e-009
-6.662483e-010
6.249941e-010
1.337416e-009
1.628088e-009
1.636831e-009
1.478464e-009
1.239883e-009
9.811326e-010
7.391695e-010
5.329936e-010
3.689796e-010
2.456208e-010
1.572686e-010
9.676297e-011
5.706336e-011
3.209852e-011
1.707316e-011
8.449136e-012
3.761519e-012
1.379687e-012
2.785936e-013
-1.563289e-013
-2.727228e-013
-2.559434e-013
-1.973278e-013
-1.365767e-013
-8.825531e-014
-5.514139e-014
-3.469702e-014
-2.545984e-014
-6.704701e-014
-8.940456e-014
-1.358487e-013
-2.078012e-013
-3.050895e-013
-4.170719e-013
-5.071199e-013
-4.860974e-013
-1.661336e-013
8.136508e-013
3.100483e-012
7.794026e-012
1.666627e-011
3.244027e-011
5.909458e-011
1.021384e-010
1.687396e-010
2.675275e-010
4.078094e-010
5.978888e-010
8.421462e-010
1.136618e-009
1.462991e-009
1.781273e-009
2.021853e-009
2.078176e-009
1.801689e-009
1.000917e-009
-5.537419e-010
-3.118545e-009
-6.958480e-009
-1.232439e-008
-1.942790e-008
-2.841763e-008
-3.936023e-008
-5.222895e-008
-6.690134e-008
-8.316575e-008
-1.007351e-007
-1.192654e-007
-1.383756e-007
-1.576670e-007
-1.767388e-007
-1.952004e-007
-2.126788e-007
-2.288225e-007
-2.433031e-007
-2.558149e-007
-2.660759e-007
-2.738284e-007
-2.788431e-007
-2.809256e-007
-2.799259e-007
-2.757505e-007
-2.683767e-007
-2.578672e-007
-2.443831e-007
-2.281940e-007
-2.096812e-007
-1.893333e-007
-1.677315e-007
-1.455241e-007
-1.233913e-007
-1.020025e-007
-8.197026e-008
-6.380623e-008
-4.788595e-008
-3.442649e-008
-2.348133e-008
-1.495266e-008
-8.619009e-009
-4.172997e-009
-1.263026e-009
4.675369e-010
1.348682e-009
1.662447e-009
1.632503e-009
1.423235e-009
1.145705e-009
8.675477e-010
6.241314e-010
4.290304e-010
2.826706e-010
1.787333e-010
1.084198e-010
6.295810e-011
3.483545e-011
1.820758e-011
8.842671e-012
3.854475e-012
1.375353e-012
2.582826e-013
-1.677382e-013
-2.728316e-013
-2.491724e-013
-1.883001e-013
-1.288470e-013
-8.359693e-014
-5.500608e-014
-4.135229e-014
-1.066028e-013
-1.391955e-013
-2.031872e-013
-2.974363e-013
-4.117138e-013
-5.113951e-013
-5.080217e-013
-2.103588e-013
7.605494e-013
3.102598e-012
8.028887e-012
1.754126e-011
3.478520e-011
6.445615e-011
1.131878e-010
1.897655e-010
3.049011e-010
4.701626e-010
6.955140e-010
9.848081e-010
1.328593e-009
1.693789e-009
2.010271e-009
2.155184e-009
1.936837e-009
1.081098e-009
-7.759511e-010
-4.085184e-009
-9.368260e-009
-1.718680e-008
-2.809829e-008
-4.260312e-008
-6.108969e-008
-8.378582e-008
-1.107240e-007
-1.417262e-007
-1.764091e-007
-2.142096e-007
-2.544228e-007
-2.962482e-007
-3.388359e-007
-3.813269e-007
-4.228854e-007
-4.627196e-007
-5.000928e-007
-5.343269e-007
-5.647997e-007
-5.909405e-007
-6.122258e-007
-6.281785e-007
-6.383710e-007
-6.424355e-007
-6.400799e-007
-6.311099e-007
-6.154560e-007
-5.932033e-007
-5.646201e-007
-5.301828e-007
-4.905908e-007
-4.467683e-007
-3.998465e-007
-3.511249e-007
-3.020094e-007
-2.539310e-007
-2.082506e-007
-1.661619e-007
-1.286040e-007
-9.619688e-008
-6.921219e-008
-4.758149e-008
-3.094222e-008
-1.871121e-008
-1.017277e-008
-4.566571e-009
-1.162652e-009
6.842627e-010
1.504103e-009
1.702396e-009
1.567864e-009
1.290367e-009
9.832744e-010
7.056355e-010
4.812741e-010
3.135276e-010
1.955480e-010
1.168005e-010
6.668925e-011
3.623287e-011
1.856567e-011
8.817376e-012
3.739344e-012
1.278486e-012
2.031962e-013
-1.882118e-013
-2.722650e-013
-2.399963e-013
-1.778030e-013
-1.219096e-013
-8.355529e-014
-6.474981e-014
-1.640439e-013
-2.077264e-013
-2.909881e-013
-4.027700e-013
-5.108038e-013
-5.318640e-013
-2.790157e-013
6.283195e-013
2.910998e-012
7.853448e-012
1.762828e-011
3.572848e-011
6.748814e-011
1.206081e-010
2.054908e-010
3.350268e-010
5.232336e-010
7.818796e-010
1.113947e-009
1.502637e-009
1.894730e-009
2.177654e-009
2.150788e-009
1.493297e-009
-2.669874e-010
-3.776907e-009
-9.865339e-009
-1.952649e-008
-3.387324e-008
-5.405944e-008
-8.117630e-008
-1.161349e-007
-1.595521e-007
-2.116592e-007
-2.722480e-007
-3.406656e-007
-4.158546e-007
-4.964320e-007
-5.807906e-007
-6.672057e-007
-7.539335e-007
-8.392894e-007
-9.217023e-007
-9.997441e-007
-1.072138e-006
-1.137751e-006
-1.195577e-006
-1.244711e-006
-1.284341e-006
-1.313722e-006
-1.332186e-006
-1.339141e-006
-1.334098e-006
-1.316699e-006
-1.286764e-006
-1.244338e-006
-1.189752e-006
-1.123674e-006
-1.047161e-006
-9.616893e-007
-8.691558e-007
-7.718485e-007
-6.723635e-007
-5.734771e-007
-4.779726e-007
-3.884402e-007
-3.070749e-007
-2.355030e-007
-1.746678e-007
-1.247962e-007
-8.545111e-008
-5.565849e-008
-3.408147e-008
-1.920873e-008
-9.525679e-009
-3.646514e-009
-3.970019e-010
1.150553e-009
1.681073e-009
1.666289e-009
1.407226e-009
1.079104e-009
7.716781e-010
5.215237e-010
3.354716e-010
2.061077e-010
1.210503e-010
6.785438e-011
3.613279e-011
1.810547e-011
8.376844e-012
3.431642e-012
1.102702e-012
1.220515e-013
-2.131120e-013
-2.702393e-013
-2.292686e-013
-1.695575e-013
-1.223851e-013
-9.771259e-014
-2.430922e-013
-2.985441e-013
-3.969630e-013
-5.076475e-013
-5.545982e-013
-3.628644e-013
4.335497e-013
2.548556e-012
7.286973e-012
1.691303e-011
3.515708e-011
6.785284e-011
1.236203e-010
2.143669e-010
3.551495e-010
5.625832e-010
8.505195e-010
1.221169e-009
1.649367e-009
2.057486e-009
2.278908e-009
2.009399e-009
7.483641e-010
-2.264048e-009
-8.103390e-009
-1.819584e-008
-3.431407e-008
-5.851766e-008
-9.302780e-008
-1.400378e-007
-2.014763e-007
-2.787563e-007
-3.725533e-007
-4.826557e-007
-6.079195e-007
-7.463354e-007
-8.951939e-007
-1.051314e-006
-1.211292e-006
-1.371735e-006
-1.529442e-006
-1.681535e-006
-1.825516e-006
-1.959289e-006
-2.081125e-006
-2.189619e-006
-2.283617e-006
-2.362158e-006
-2.424407e-006
-2.469618e-006
-2.497098e-006
-2.506197e-006
-2.496318e-006
-2.466937e-006
-2.417651e-006
-2.348238e-006
-2.258751e-006
-2.149621e-006
-2.021785e-006
-1.876817e-006
-1.717041e-006
-1.545597e-006
-1.366431e-006
-1.184174e-006
-1.003903e-006
-8.307806e-007
-6.696215e-007
-5.244509e-007
-3.981292e-007
-2.921276e-007
-2.064946e-007
-1.400179e-007
-9.053388e-008
-5.531259e-008
-3.143777e-008
-1.612128e-008
-6.918062e-009
-1.836920e-009
6.372475e-010
1.583696e-009
1.720835e-009
1.492573e-009
1.149738e-009
8.175941e-010
5.464737e-010
3.465013e-010
2.093721e-010
1.207253e-010
6.632701e-011
3.454811e-011
1.688275e-011
7.575910e-012
2.971358e-012
8.721509e-013
2.716777e-014
-2.387504e-013
-2.678894e-013
-2.224377e-013
-1.714719e-013
-1.422551e-013
-3.475811e-013
-4.109152e-013
-5.099863e-013
-5.760465e-013
-4.516638e-013
2.012638e-013
2.059899e-012
6.396295e-012
1.547725e-011
3.313227e-011
6.550361e-011
1.218955e-010
2.154835e-010
3.633437e-010
5.847664e-010
8.961205e-010
1.299598e-009
1.762168e-009
2.180252e-009
2.325506e-009
1.768393e-009
-2.204035e-010
-4.784635e-009
-1.359860e-008
-2.896028e-008
-5.382814e-008
-9.176405e-008
-1.467490e-007
-2.228552e-007
-3.237885e-007
-4.523570e-007
-6.099583e-007
-7.961979e-007
-1.008736e-006
-1.243408e-006
-1.494606e-006
-1.755828e-006
-2.020294e-006
-2.281513e-006
-2.533712e-006
-2.772104e-006
-2.992995e-006
-3.193759e-006
-3.372725e-006
-3.529016e-006
-3.662360e-006
-3.772915e-006
-3.861094e-006
-3.927423e-006
-3.972418e-006
-3.996487e-006
-3.999841e-006
-3.982431e-006
-3.943886e-006
-3.883479e-006
-3.800135e-006
-3.692498e-006
-3.559095e-006
-3.398595e-006
-3.210192e-006
-2.994054e-006
-2.751799e-006
-2.486886e-006
-2.204823e-006
-1.913076e-006
-1.620626e-006
-1.337168e-006
-1.072070e-006
-8.332949e-007
-6.264913e-007
-4.544871e-007
-3.172599e-007
-2.123601e-007
-1.356330e-007
-8.204082e-008
-4.640691e-008
-2.396951e-008
-1.070946e-008
-3.474425e-009
4.774372e-011
1.446136e-009
1.742297e-009
1.546381e-009
1.191937e-009
8.402401e-010
5.540630e-010
3.455989e-010
2.050196e-010
1.158646e-010
6.227797e-011
3.166015e-011
1.504051e-011
6.510298e-012
2.414617e-012
6.160147e-013
-7.011465e-014
-2.637313e-013
-2.701458e-013
-2.295687e-013
-1.993240e-013
-4.778000e-013
-5.388491e-013
-6.052064e-013
-5.399133e-013
-4.313146e-014
1.501263e-012
5.283863e-012
1.348335e-011
2.987923e-011
6.069483e-011
1.156103e-010
2.087126e-010
3.587906e-010
5.877621e-010
9.150377e-010
1.344235e-009
1.836899e-009
2.266069e-009
2.341285e-009
1.497007e-009
-1.260157e-009
-7.542083e-009
-1.979094e-008
-4.147709e-008
-7.722676e-008
-1.328046e-007
-2.148680e-007
-3.304243e-007