# vtk DataFile Version 3.0
vtk output
ASCII
DATASET STRUCTURED_POINTS
DIMENSIONS 100 100 1
SPACING 1 1 1
ORIGIN 0 0 0
POINT_DATA 10000
SCALARS SFBox_profile double
LOOKUP_TABLE default 
0.000000e+000
0.000000e+000
0.000000e+000
0.000000e+000
0.000000e+000
0.000000e+000
0.000000e+000
0.000000e+000
0.000000e+000
0.000000e+000
0.000000e+000
0.000000e+000
0.000000e+000
0.000000e+000
0.000000e+000
0.000000e+000
0.000000e+000
0.000000e+000
0.000000e+000
0.000000e+000
0.000000e+000
0.000000e+000
0.000000e+000
0.000000e+000
0.000000e+000
0.000000e+000
0.000000e+000
0.000000e+000
0.000000e+000
0.000000e+000
0.000000e+000
0.000000e+000
0.000000e+000
0.000000e+000
0.000000e+000
0.000000e+000
0.000000e+000
0.000000e+000
0.000000e+000
0.000000e+000
0.000000e+000
0.000000e+000
0.000000e+000
0.000000e+000
0.000000e+000
0.000000e+000
0.000000e+000
0.000000e+000
0.000000e+000
0.000000e+000
0.000000e+000
0.000000e+000
0.000000e+000
0.000000e+000
0.000000e+000
0.000000e+000
0.000000e+000
0.000000e+000
0.000000e+000
0.000000e+000
0.000000e+000
0.000000e+000
0.000000e+000
0.000000e+000
0.000000e+000
0.000000e+000
0.000000e+000
0.000000e+000
0.000000e+000
0.000000e+000
0.000000e+000
0.000000e+000
0.000000e+000
0.000000e+000
0.000000e+000
0.000000e+000
0.000000e+000
0.000000e+000
0.000000e+000
0.000000e+000
0.000000e+000
0.000000e+000
0.000000e+000
0.000000e+000
0.000000e+000
0.000000e+000
0.000000e+000
0.000000e+000
0.000000e+000
0.000000e+000
0.000000e+000
0.000000e+000
0.000000e+000
0.000000e+000
0.000000e+000
0.000000e+000
0.000000e+000
0.000000e+000
0.000000e+000
0.000000e+000
6.206693e-009
3.871121e-009
9.580303e-010
-5.105564e-010
1.438545e-011
1.133432e-009
7.850769e-010
-1.727464e-009
-4.767300e-009
-5.496583e-009
-2.343899e-009
3.300520e-009
7.815107e-009
8.101475e-009
4.067441e-009
-1.366337e-009
-4.776659e-009
-5.001673e-009
-3.668255e-009
-3.138112e-009
-3.996959e-009
-4.570274e-009
-2.844107e-009
1.260428e-009
5.598338e-009
7.739136e-009
7.109214e-009
5.215693e-009
3.898949e-009
3.546224e-009
3.052749e-009
1.347763e-009
-1.290942e-009
-3.497044e-009
-4.218607e-009
-3.683887e-009
-2.986899e-009
-2.894268e-009
-3.190776e-009
-3.130078e-009
-2.339470e-009
-1.184863e-009
-3.356078e-010
-1.175984e-010
-3.171634e-010
-5.051363e-010
-4.547335e-010
-2.797348e-010
-2.777989e-010
-6.781393e-010
-1.463420e-009
-2.354531e-009
-2.995112e-009
-3.247434e-009
-3.337085e-009
-3.622014e-009
-4.132494e-009
-4.378998e-009
-3.750467e-009
-2.173379e-009
-2.944428e-010
1.119308e-009
1.966114e-009
2.860411e-009
4.291612e-009
5.805272e-009
6.225231e-009
4.817027e-009
2.159078e-009
-3.043278e-010
-1.624615e-009
-2.151207e-009
-2.867082e-009
-3.997353e-009
-4.509865e-009
-3.180779e-009
-1.220189e-010
2.949522e-009
4.129246e-009
3.030060e-009
1.020119e-009
-2.321333e-010
-3.563120e-010
-3.619811e-010
-1.201682e-009
-2.447255e-009
-2.582245e-009
-6.728249e-010
2.329948e-009
4.109811e-009
2.983455e-009
-4.611038e-010
-3.657108e-009
-4.107472e-009
-1.442199e-009
2.258076e-009
4.122016e-009
2.750808e-009
-7.214505e-010
-3.556966e-009
3.748859e-009
1.835616e-009
-6.905355e-010
-2.137318e-009
-1.622387e-009
2.858742e-010
1.999192e-009
2.142914e-009
6.471686e-010
-1.220957e-009
-1.961009e-009
-1.145589e-009
2.499645e-010
8.223882e-010
1.135891e-010
-9.489669e-010
-9.990842e-010
3.562668e-010
2.079148e-009
2.679411e-009
1.655908e-009
-5.316314e-011
-1.048145e-009
-8.460947e-010
-2.482180e-010
-3.749171e-010
-1.436852e-009
-2.531549e-009
-2.617295e-009
-1.580159e-009
-2.853604e-010
3.575328e-010
2.674037e-010
1.195578e-010
5.162685e-010
1.347659e-009
1.976147e-009
1.945052e-009
1.415410e-009
9.301971e-010
8.472320e-010
1.051769e-009
1.169759e-009
9.773315e-010
5.885090e-010
3.063897e-010
3.423421e-010
6.560625e-010
1.010098e-009
1.169400e-009
1.098033e-009
9.997417e-010
1.136435e-009
1.548029e-009
1.946713e-009
1.951708e-009
1.480409e-009
8.758058e-010
5.682582e-010
5.899707e-010
4.988877e-010
-1.316725e-010
-1.161378e-009
-1.922122e-009
-1.881471e-009
-1.226045e-009
-6.803652e-010
-7.103185e-010
-9.919180e-010
-7.804564e-010
1.923205e-010
1.305286e-009
1.634870e-009
9.377746e-010
-5.743904e-011
-4.040641e-010
6.667617e-011
5.975846e-010
3.746574e-010
-5.371875e-010
-1.223279e-009
-8.957020e-010
2.309365e-010
1.109200e-009
9.074227e-010
-1.500037e-010
-1.007906e-009
-8.259026e-010
2.123664e-010
1.103238e-009
9.948427e-010
-3.036810e-011
-1.067797e-009
-1.225015e-009
-3.830869e-010
7.538117e-010
1.281028e-009
8.131008e-010
-2.609807e-010
-1.116147e-009
-2.205205e-010
-6.869703e-010
-1.577875e-009
-2.500022e-009
-2.612858e-009
-1.147550e-009
1.752140e-009
4.692119e-009
5.740199e-009
3.805337e-009
-4.114676e-010
-4.746927e-009
-6.990743e-009
-6.277570e-009
-3.402102e-009
4.173701e-011
2.838516e-009
4.673689e-009
5.767861e-009
6.208125e-009
5.703689e-009
3.934277e-009
1.038910e-009
-2.287720e-009
-5.173001e-009
-7.039255e-009
-7.768899e-009
-7.518797e-009
-6.464894e-009
-4.738612e-009
-2.541800e-009
-2.263800e-010
1.805413e-009
3.298701e-009
4.241284e-009
4.764652e-009
4.963231e-009
4.821546e-009
4.311317e-009
3.530290e-009
2.708335e-009
2.055358e-009
1.608987e-009
1.252876e-009
8.942313e-010
6.068347e-010
5.734372e-010
8.833953e-010
1.414874e-009
1.948559e-009
2.397340e-009
2.889037e-009
3.590940e-009
4.460120e-009
5.204464e-009
5.513776e-009
5.313316e-009
4.759554e-009
3.990302e-009
2.928522e-009
1.383306e-009
-6.527197e-010
-2.847157e-009
-4.700323e-009
-5.866652e-009
-6.286919e-009
-6.027178e-009
-5.067578e-009
-3.331949e-009
-9.406122e-010
1.626322e-009
3.693605e-009
4.759886e-009
4.722097e-009
3.778573e-009
2.192937e-009
2.177364e-010
-1.777829e-009
-3.234429e-009
-3.609194e-009
-2.744968e-009
-1.041490e-009
7.698734e-010
2.050140e-009
2.501369e-009
2.106165e-009
9.827163e-010
-5.836963e-010
-2.004019e-009
-2.489590e-009
-1.558183e-009
4.103645e-010
2.182761e-009
2.469236e-009
9.717604e-010
-1.237211e-009
-2.461308e-009
-1.730858e-009
3.674151e-010
2.131582e-009
-4.767998e-009
-2.529120e-009
-3.278064e-011
6.291730e-010
-7.412224e-010
-2.205251e-009
-1.509621e-009
1.647511e-009
5.026399e-009
5.609684e-009
2.260890e-009
-3.080485e-009
-6.807480e-009
-6.502243e-009
-2.780106e-009
1.440149e-009
3.497986e-009
3.049489e-009
1.863698e-009
1.763858e-009
2.801275e-009
3.374625e-009
2.021583e-009
-9.964109e-010
-3.874219e-009
-4.932338e-009
-4.053264e-009
-2.522399e-009
-1.600348e-009
-1.374874e-009
-9.891578e-010
1.818454e-010
1.764145e-009
2.800453e-009
2.781169e-009
2.121305e-009
1.628797e-009
1.642566e-009
1.797224e-009
1.577537e-009
9.455465e-010
3.399658e-010
1.398644e-010
2.713209e-010
3.775429e-010
2.704617e-010
1.022537e-010
1.096106e-010
3.114397e-010
5.348573e-010
6.803671e-010
8.463991e-010
1.163983e-009
1.594476e-009
1.972859e-009
2.220260e-009
2.409793e-009
2.582577e-009
2.581744e-009
2.177277e-009
1.358132e-009
3.996202e-010
-4.284381e-010
-1.159993e-009
-2.018077e-009
-2.974457e-009
-3.543084e-009
-3.162741e-009
-1.813955e-009
-1.513890e-010
1.073661e-009
1.693254e-009
2.122815e-009
2.661276e-009
2.925366e-009
2.166107e-009
2.088184e-010
-2.043057e-009
-3.223507e-009
-2.708658e-009
-1.168235e-009
1.432389e-010
6.195794e-010
7.423401e-010
1.265203e-009
2.079858e-009
2.107608e-009
4.793468e-010
-2.193507e-009
-3.921005e-009
-2.975643e-009
3.675961e-010
3.715495e-009
4.385044e-009
1.685282e-009
-2.357371e-009
-4.552881e-009
-3.137978e-009
7.566460e-010
4.001571e-009
-9.003915e-009
-3.936910e-009
2.449980e-009
5.571159e-009
3.522174e-009
-1.568716e-009
-5.397250e-009
-4.994409e-009
-9.968147e-010
3.158704e-009
4.326523e-009
2.282511e-009
-3.983076e-010
-9.911881e-010
7.438573e-010
2.434911e-009
1.555147e-009
-1.960311e-009
-5.513994e-009
-6.257352e-009
-3.730257e-009
-1.465229e-010
1.872096e-009
1.767966e-009
1.267412e-009
2.278258e-009
4.764087e-009
6.792417e-009
6.578700e-009
4.282535e-009
1.714529e-009
4.235928e-010
2.875935e-010
8.585417e-012
-1.234763e-009
-2.876018e-009
-3.686023e-009
-3.160295e-009
-1.986099e-009
-1.195297e-009
-1.089036e-009
-1.120635e-009
-7.024077e-010
1.039332e-010
7.470479e-010
8.525051e-010
5.527330e-010
1.924703e-010
-1.000975e-010
-4.479168e-010
-9.447954e-010
-1.513902e-009
-2.057141e-009
-2.587582e-009
-3.097080e-009
-3.373389e-009
-3.127180e-009
-2.349864e-009
-1.405915e-009
-6.294605e-010
1.175880e-010
1.292985e-009
2.991244e-009
4.552402e-009
5.069081e-009
4.330847e-009
3.100686e-009
2.296227e-009
1.955898e-009
1.232681e-009
-4.801530e-010
-2.569656e-009
-3.603835e-009
-2.802579e-009
-9.608443e-010
2.919749e-010
1.698963e-010
-4.948669e-010
-2.797668e-010
1.106631e-009
2.349774e-009
1.912269e-009
-1.804943e-010
-2.133331e-009
-2.096144e-009
-7.659343e-011
1.955765e-009
1.957083e-009
-1.648202e-010
-2.400802e-009
-2.532048e-009
-2.470071e-010
2.516898e-009
3.301424e-009
1.319993e-009
-1.841265e-009
-3.576244e-009
-2.446635e-009
6.442519e-010
3.212541e-009
-1.074884e-008
-5.078664e-009
2.647373e-009
7.552106e-009
6.690639e-009
9.727757e-010
-5.538758e-009
-8.513320e-009
-6.344068e-009
-1.009986e-009
3.788707e-009
5.593959e-009
4.733755e-009
3.266783e-009
2.568492e-009
2.018464e-009
4.394907e-011
-3.688539e-009
-7.356196e-009
-8.430346e-009
-6.061534e-009
-1.914596e-009
1.442914e-009
2.923903e-009
3.605822e-009
5.097521e-009
7.463367e-009
8.997392e-009
8.054600e-009
4.885639e-009
1.470676e-009
-4.116426e-010
-7.531395e-010
-9.159015e-010
-1.888421e-009
-3.208581e-009
-3.638555e-009
-2.649608e-009
-9.889047e-010
1.917773e-010
5.193297e-010
5.737763e-010
1.031094e-009
1.886109e-009
2.581861e-009
2.710543e-009
2.386347e-009
1.965143e-009
1.608027e-009
1.226644e-009
7.267140e-010
1.165066e-010
-6.186334e-010
-1.553655e-009
-2.608447e-009
-3.403314e-009
-3.533903e-009
-3.028160e-009
-2.357038e-009
-1.844362e-009
-1.158947e-009
3.673146e-010
2.821557e-009
5.280715e-009
6.531267e-009
6.239939e-009
5.219544e-009
4.403788e-009
3.697303e-009
2.119175e-009
-8.197362e-010
-4.099069e-009
-5.846364e-009
-5.100952e-009
-2.772385e-009
-6.933008e-010
2.201758e-010
6.728305e-010
1.805394e-009
3.511639e-009
4.239327e-009
2.609253e-009
-8.698005e-010
-3.899655e-009
-4.329543e-009
-2.043357e-009
1.019894e-009
2.636427e-009
2.096545e-009
4.436007e-010
-7.817113e-010
-8.932252e-010
-3.199430e-010
1.475303e-010
1.570390e-010
-8.023880e-011
-2.097541e-010
-1.096930e-010
9.860163e-011
2.469052e-010
-6.431996e-009
-4.240174e-009
-5.205251e-010
3.228401e-009
5.018540e-009
3.566133e-009
-4.604675e-010
-4.479663e-009
-5.729549e-009
-3.424975e-009
5.989436e-010
3.453361e-009
3.595997e-009
1.865966e-009
2.946360e-010
2.147702e-011
4.333824e-010
2.398708e-010
-8.719569e-010
-1.867468e-009
-1.603843e-009
-1.826547e-010
1.143950e-009
1.364643e-009
7.640704e-010
4.456890e-010
9.384323e-010
1.556686e-009
1.261496e-009
-1.417839e-011
-1.155069e-009
-1.029725e-009
3.070151e-010
1.729469e-009
2.287213e-009
2.136870e-009
2.169850e-009
2.886402e-009
3.852265e-009
4.274212e-009
3.911893e-009
3.267863e-009
2.955254e-009
3.073738e-009
3.265188e-009
3.230476e-009
3.028113e-009
2.897232e-009
2.961440e-009
3.185698e-009
3.503392e-009
3.830346e-009
3.978114e-009
3.733401e-009
3.125529e-009
2.507679e-009
2.202172e-009
2.064194e-009
1.576213e-009
5.011274e-010
-6.591918e-010
-1.065204e-009
-4.572298e-010
4.840512e-010
8.515084e-010
5.292443e-010
2.913634e-010
7.991791e-010
1.668664e-009
1.782934e-009
5.783514e-010
-1.176114e-009
-2.074190e-009
-1.516914e-009
-2.862881e-010
3.929122e-010
2.149813e-010
2.294744e-011
6.770528e-010
1.900614e-009
2.448055e-009
1.419632e-009
-7.290038e-010
-2.550771e-009
-2.894379e-009
-1.762706e-009
-2.333109e-011
1.458570e-009
2.262718e-009
2.206603e-009
1.140972e-009
-7.445934e-010
-2.519199e-009
-2.846328e-009
-1.126403e-009
1.619904e-009
3.270245e-009
2.356636e-009
-5.018407e-010
-2.965824e-009
5.463858e-009
8.865504e-010
-4.226228e-009
-5.414554e-009
-1.726218e-009
3.597000e-009
6.161839e-009
4.266184e-009
3.408628e-011
-2.954377e-009
-3.028328e-009
-1.549569e-009
-9.777579e-010
-2.100049e-009
-3.282270e-009
-2.343393e-009
1.046010e-009
4.925089e-009
6.880183e-009
6.156979e-009
3.967723e-009
1.957559e-009
6.383068e-010
-6.511756e-010
-2.528778e-009
-4.639840e-009
-5.987212e-009
-5.958576e-009
-4.813951e-009
-3.204857e-009
-1.456590e-009
5.220250e-010
2.734683e-009
4.755718e-009
6.011440e-009
6.314358e-009
5.986763e-009
5.455927e-009
4.836149e-009
3.961501e-009
2.745346e-009
1.390536e-009
2.343659e-010
-5.304498e-010
-9.371440e-010
-1.109057e-009
-1.116893e-009
-9.502627e-010
-5.440753e-010
1.945420e-010
1.309940e-009
2.673019e-009
3.966568e-009
4.898509e-009
5.462200e-009
5.899574e-009
6.322597e-009
6.419529e-009
5.675106e-009
3.943850e-009
1.718594e-009
-2.802662e-010
-1.760832e-009
-2.983663e-009
-4.193043e-009
-5.065535e-009
-4.912592e-009
-3.461748e-009
-1.290122e-009
6.464085e-010
1.867539e-009
2.619626e-009
3.274685e-009
3.671133e-009
3.245265e-009
1.798296e-009
-6.907535e-011
-1.427138e-009
-1.853233e-009
-1.655935e-009
-1.291760e-009
-7.890789e-010
5.770101e-011
1.025680e-009
1.346282e-009
5.184594e-010
-8.401353e-010
-1.306112e-009
-1.007015e-010
1.811586e-009
2.383004e-009
5.278512e-010
-2.471684e-009
-3.848344e-009
-1.936946e-009
1.990508e-009
4.591476e-009
3.422363e-009
-7.165985e-010
-4.341309e-009
1.983023e-008
9.211775e-009
-4.462849e-009
-1.190262e-008
-9.031885e-009
4.605873e-010
8.711205e-009
1.008980e-008
5.043885e-009
-1.424310e-009
-4.671220e-009
-4.063824e-009
-2.393521e-009
-2.276670e-009
-3.416139e-009
-3.311638e-009
-3.242859e-010
4.282754e-009
7.411959e-009
7.069979e-009
4.105742e-009
1.106647e-009
-1.926010e-010
-2.689399e-010
-7.522328e-010
-2.353311e-009
-4.051575e-009
-4.243851e-009
-2.445233e-009
2.651158e-010
2.346110e-009
3.132809e-009
3.072850e-009
2.863872e-009
2.598599e-009
1.793841e-009
8.917378e-011
-2.263109e-009
-4.619616e-009
-6.545438e-009
-8.112875e-009
-9.639112e-009
-1.122418e-008
-1.260425e-008
-1.343588e-008
-1.365872e-008
-1.353359e-008
-1.332928e-008
-1.301418e-008
-1.229547e-008
-1.096221e-008
-9.147688e-009
-7.212366e-009
-5.380822e-009
-3.560555e-009
-1.568289e-009
4.993754e-010
2.210584e-009
3.155488e-009
3.306023e-009
2.948781e-009
2.288795e-009
1.249349e-009
-2.485036e-010
-1.885604e-009
-2.999011e-009
-3.121947e-009
-2.389926e-009
-1.301930e-009
-1.250821e-010
1.282047e-009
2.966517e-009
4.365998e-009
4.580095e-009
3.276352e-009
1.178278e-009
-5.600558e-010
-1.469128e-009
-2.053251e-009
-2.845857e-009
-3.365754e-009
-2.401061e-009
4.473101e-010
3.683451e-009
4.809030e-009
2.631659e-009
-1.305925e-009
-3.841972e-009
-3.002483e-009
1.761451e-010
2.634609e-009
2.180694e-009
-4.964137e-010
-2.599655e-009
-1.981846e-009
7.943657e-010
3.035811e-009
2.521679e-009
-3.747373e-010
-3.032204e-009
2.539613e-008
1.448136e-008
-4.763595e-010
-1.052860e-008
-1.075951e-008
-3.274827e-009
5.018561e-009
7.957873e-009
4.566051e-009
-1.026686e-009
-3.755608e-009
-2.033225e-009
1.431467e-009
2.776495e-009
8.053858e-010
-2.194839e-009
-3.142382e-009
-1.370806e-009
9.337146e-010
1.304378e-009
-3.230665e-010
-1.658225e-009
-6.312253e-010
2.383540e-009
5.044655e-009
5.558145e-009
4.426291e-009
3.617275e-009
4.219968e-009
5.202256e-009
4.532014e-009
1.307488e-009
-3.423190e-009
-7.886657e-009
-1.136242e-008
-1.460263e-008
-1.864070e-008
-2.348097e-008
-2.810331e-008
-3.161348e-008
-3.413517e-008
-3.648605e-008
-3.913441e-008
-4.167758e-008
-4.336323e-008
-4.394561e-008
-4.386872e-008
-4.364558e-008
-4.324099e-008
-4.217589e-008
-4.015107e-008
-3.739158e-008
-3.432536e-008
-3.105986e-008
-2.733941e-008
-2.301291e-008
-1.837450e-008
-1.391582e-008
-9.817618e-009
-5.878285e-009
-2.015290e-009
1.320544e-009
3.445705e-009
4.186680e-009
4.142304e-009
4.050132e-009
3.969562e-009
3.322519e-009
1.827447e-009
1.817610e-010
-4.816810e-010
1.322497e-010
1.004093e-009
8.531310e-010
-3.737750e-010
-1.352700e-009
-9.010086e-010
5.161681e-010
1.135967e-009
-1.021708e-010
-2.113066e-009
-2.558620e-009
-3.231412e-010
3.042643e-009
4.573906e-009
2.697152e-009
-1.209640e-009
-4.045292e-009
-3.752302e-009
-9.607356e-010
1.869199e-009
2.723925e-009
1.529733e-009
-2.566343e-010
-1.188875e-009
-9.389210e-010
-1.803504e-010
2.933140e-010
2.576954e-010
4.587902e-011
1.306248e-008
9.677547e-009
4.130299e-009
-1.352126e-009
-4.438135e-009
-4.164821e-009
-1.801440e-009
7.669368e-011
-1.249900e-010
-1.468813e-009
-1.417646e-009
1.418851e-009
5.465526e-009
7.342399e-009
5.044806e-009
-3.718008e-011
-4.370554e-009
-5.542782e-009
-4.188478e-009
-2.712529e-009
-2.396474e-009
-2.118910e-009
1.425653e-011
4.125460e-009
8.052333e-009
9.421209e-009
7.919496e-009
5.225533e-009
2.783075e-009
3.410082e-011
-4.898279e-009
-1.294485e-008
-2.287855e-008
-3.250173e-008
-4.082225e-008
-4.877372e-008
-5.780216e-008
-6.805511e-008
-7.820560e-008
-8.693405e-008
-9.422639e-008
-1.010351e-007
-1.078631e-007
-1.140145e-007
-1.183177e-007
-1.203336e-007
-1.206025e-007
-1.197671e-007
-1.177596e-007
-1.140254e-007
-1.083817e-007
-1.013569e-007
-9.361899e-008
-8.530798e-008
-7.616295e-008
-6.623108e-008
-5.615009e-008
-4.656951e-008
-3.747086e-008
-2.835958e-008
-1.918345e-008
-1.080376e-008
-4.304639e-009
1.039417e-010
3.213808e-009
5.729938e-009
7.284761e-009
6.876982e-009
4.340584e-009
1.060035e-009
-1.105904e-009
-1.592893e-009
-1.527574e-009
-2.191995e-009
-3.303230e-009
-3.197582e-009
-8.447976e-010
2.591675e-009
4.557824e-009
3.561100e-009
6.625868e-010
-1.589468e-009
-1.619620e-009
-1.068505e-010
1.057416e-009
7.726129e-010
-4.461229e-010
-1.375796e-009
-1.385253e-009
-7.115224e-010
1.961245e-010
1.128132e-009
1.835838e-009
1.729868e-009
3.608472e-010
-1.713380e-009
-2.922032e-009
-1.987404e-009
6.480709e-010
2.918990e-009
-1.383217e-008
-5.259134e-009
5.120019e-009
9.630826e-009
5.985326e-009
-1.575635e-009
-6.779144e-009
-6.749876e-009
-3.394994e-009
-2.706609e-010
1.154414e-009
2.025790e-009
3.594939e-009
5.109983e-009
4.636266e-009
1.647176e-009
-1.872568e-009
-3.247301e-009
-1.814935e-009
5.584817e-010
1.672112e-009
1.310468e-009
1.070576e-009
2.053658e-009
3.222279e-009
2.315412e-009
-1.858053e-009
-8.481703e-009
-1.615636e-008
-2.485330e-008
-3.601919e-008
-5.077173e-008
-6.843354e-008
-8.718726e-008
-1.060367e-007
-1.257048e-007
-1.474209e-007
-1.710844e-007
-1.949674e-007
-2.172176e-007
-2.373039e-007
-2.557552e-007
-2.726827e-007
-2.869815e-007
-2.971317e-007
-3.025153e-007
-3.036328e-007
-3.010933e-007
-2.947707e-007
-2.841738e-007
-2.694368e-007
-2.515726e-007
-2.316776e-007
-2.101868e-007
-1.871704e-007
-1.632203e-007
-1.396417e-007
-1.175773e-007
-9.716245e-008
-7.786504e-008
-5.965140e-008
-4.348234e-008
-3.041854e-008
-2.040549e-008
-1.231951e-008
-5.332391e-009
6.447775e-011
2.736218e-009
2.571158e-009
1.109039e-009
2.470315e-010
4.555953e-010
6.063237e-010
-3.551062e-010
-1.867801e-009
-2.203587e-009
-4.206026e-010
2.437735e-009
4.270975e-009
3.899865e-009
1.927032e-009
-2.289158e-010
-1.728309e-009
-2.532417e-009
-2.604800e-009
-1.570938e-009
5.065454e-010
2.396379e-009
2.446861e-009
3.946000e-010
-1.892964e-009
-2.042764e-009
2.557939e-010
2.613426e-009
2.280111e-009
-8.206500e-010
-3.703382e-009
-3.260866e-009
4.256398e-010
3.958143e-009
-3.806343e-008
-2.053548e-008
2.146103e-009
1.522370e-008
1.288011e-008
1.408413e-009
-7.693321e-009
-7.801776e-009
-1.474259e-009
3.842978e-009
3.504767e-009
-7.535495e-010
-3.875642e-009
-3.022903e-009
2.519041e-010
2.683902e-009
3.112005e-009
3.154757e-009
4.548089e-009
6.687032e-009
7.233898e-009
4.793298e-009
3.166125e-010
-4.358487e-009
-8.957745e-009
-1.531314e-008
-2.553981e-008
-4.016400e-008
-5.834379e-008
-7.964215e-008
-1.050142e-007
-1.358415e-007
-1.723388e-007
-2.133317e-007
-2.575556e-007
-3.047022e-007
-3.548590e-007
-4.071122e-007
-4.591603e-007
-5.084878e-007
-5.536819e-007
-5.943497e-007
-6.298980e-007
-6.588287e-007
-6.794399e-007
-6.909753e-007
-6.937464e-007
-6.881633e-007
-6.740254e-007
-6.510090e-007
-6.196441e-007
-5.814361e-007
-5.379644e-007
-4.901815e-007
-4.388502e-007
-3.854841e-007
-3.324215e-007
-2.817721e-007
-2.344918e-007
-1.907299e-007
-1.509555e-007
-1.163348e-007
-8.778824e-008
-6.491342e-008
-4.623853e-008
-3.063124e-008
-1.819350e-008
-9.549080e-009
-4.419403e-009
-1.293854e-009
1.339940e-009
3.683041e-009
4.824004e-009
4.188542e-009
2.471997e-009
9.921612e-010
3.794735e-010
2.513271e-010
1.203600e-010
1.456125e-010
6.383387e-010
1.089620e-009
3.636690e-010
-1.767323e-009
-3.630499e-009
-2.918236e-009
6.854891e-010
4.467195e-009
4.906373e-009
1.249821e-009
-3.356411e-009
-4.717897e-009
-1.731574e-009
2.477293e-009
3.722311e-009
1.004782e-009
-2.576190e-009
-3.178673e-009
-2.662137e-010
2.923411e-009
-4.028621e-008
-2.331750e-008
-1.084958e-009
1.230715e-008
1.112477e-008
1.325833e-009
-5.878680e-009
-4.095702e-009
3.480875e-009
8.300710e-009
5.066113e-009
-3.535074e-009
-9.967780e-009
-9.134313e-009
-2.530231e-009
4.216404e-009
7.105757e-009
6.751007e-009
6.178852e-009
6.666029e-009
6.331772e-009
2.492374e-009
-5.498032e-009
-1.628411e-008
-2.907920e-008
-4.553365e-008
-6.879566e-008
-1.010819e-007
-1.426054e-007
-1.927853e-007
-2.519084e-007
-3.211402e-007
-4.010167e-007
-4.903420e-007
-5.866816e-007
-6.875943e-007
-7.910341e-007
-8.947008e-007
-9.955490e-007
-1.090333e-006
-1.176562e-006
-1.252669e-006
-1.317281e-006
-1.368690e-006
-1.405255e-006
-1.426157e-006
-1.431421e-006
-1.421156e-006
-1.395107e-006
-1.353161e-006
-1.296154e-006
-1.225856e-006
-1.144166e-006
-1.052611e-006
-9.528769e-007
-8.476461e-007
-7.405341e-007
-6.350558e-007
-5.337986e-007
-4.386813e-007
-3.517207e-007
-2.750585e-007
-2.100266e-007
-1.563896e-007
-1.127852e-007
-7.790777e-008
-5.106446e-008
-3.158372e-008
-1.805529e-008
-8.564575e-009
-1.717309e-009
2.844414e-009
5.081501e-009
5.457999e-009
4.869358e-009
3.750899e-009
1.775290e-009
-1.150900e-009
-3.792058e-009
-4.144860e-009
-1.535950e-009
2.068045e-009
3.481640e-009
1.424814e-009
-1.935681e-009
-2.987464e-009
-3.972916e-010
3.343479e-009
4.341630e-009
1.291829e-009
-3.107457e-009
-4.805086e-009
-2.382007e-009
1.686968e-009
3.650345e-009
2.156918e-009
-7.349690e-010
-2.008693e-009
-8.323253e-010
8.821016e-010
-1.539555e-008
-9.277428e-009
-1.314190e-009
3.243797e-009
2.289189e-009
-1.505241e-009
-3.124570e-009
1.024695e-010
5.747594e-009
8.320790e-009
4.553548e-009
-3.073034e-009
-8.243832e-009
-6.582973e-009
3.085602e-010
6.535849e-009
7.523267e-009
3.843998e-009
-3.813417e-010
-2.425330e-009
-3.952094e-009
-9.374176e-009
-2.202365e-008
-4.254974e-008
-7.090817e-008
-1.091280e-007
-1.614877e-007
-2.320231e-007
-3.222803e-007
-4.315737e-007
-5.588820e-007
-7.038065e-007
-8.655119e-007
-1.041129e-006
-1.225614e-006
-1.413195e-006
-1.598814e-006
-1.778333e-006
-1.947925e-006
-2.103833e-006
-2.242814e-006
-2.362554e-006
-2.461498e-006
-2.538437e-006
-2.592434e-006
-2.623024e-006
-2.630131e-006
-2.613664e-006
-2.573342e-006
-2.509096e-006
-2.421568e-006
-2.312036e-006
-2.181938e-006
-2.032791e-006
-1.866804e-006
-1.687505e-006
-1.499566e-006
-1.308037e-006
-1.117849e-006
-9.339645e-007
-7.614918e-007
-6.050820e-007
-4.679132e-007
-3.512714e-007
-2.550721e-007
-1.785466e-007
-1.202563e-007
-7.770676e-008
-4.756127e-008
-2.669428e-008
-1.304024e-008
-5.222942e-009
-1.478177e-009
5.428799e-010
2.501650e-009
4.091827e-009
3.655587e-009
5.242456e-010
-3.393687e-009
-4.845205e-009
-2.330979e-009
2.176148e-009
4.909415e-009
3.820198e-009
3.665704e-010
-2.158291e-009
-1.883821e-009
1.361012e-010
1.431079e-009
7.365898e-010
-9.979500e-010
-1.914093e-009
-1.173492e-009
4.505728e-010
1.579734e-009
1.529775e-009
6.633622e-010
-2.357337e-010
-7.155679e-010
-8.415730e-010
2.154033e-008
1.226848e-008
2.998606e-010
-6.936649e-009
-6.962171e-009
-2.872358e-009
8.186611e-010
2.191039e-009
2.112650e-009
1.777028e-009
1.268175e-009
5.441290e-010
6.418781e-010
2.747404e-009
6.046195e-009
7.458457e-009
4.343414e-009
-2.629425e-009
-1.004269e-008
-1.569824e-008
-2.202081e-008
-3.537685e-008
-6.221119e-008
-1.062290e-007
-1.693347e-007
-2.546125e-007
-3.674561e-007
-5.133331e-007
-6.945439e-007
-9.092189e-007
-1.152990e-006
-1.420882e-006
-1.707289e-006
-2.004659e-006
-2.303196e-006
-2.592581e-006
-2.864352e-006
-3.112909e-006
-3.334801e-006
-3.527653e-006
-3.689939e-006
-3.821420e-006
-3.923276e-006
-3.997551e-006
-4.046356e-006
-4.071354e-006
-4.073550e-006
-4.053208e-006
-4.009889e-006
-3.942630e-006
-3.850081e-006
-3.730513e-006
-3.581979e-006
-3.402944e-006
-3.193199e-006
-2.954406e-006
-2.690072e-006
-2.405392e-006
-2.107425e-006
-1.805197e-006
-1.508970e-006
-1.228646e-006
-9.723314e-007
-7.459248e-007
-5.533638e-007
-3.964784e-007
-2.742673e-007
-1.827395e-007
-1.162832e-007
-6.977603e-008
-3.950644e-008
-2.214487e-008
-1.333345e-008
-8.074069e-009
-2.973889e-009
2.065412e-009
4.885447e-009
4.088395e-009
1.004641e-009
-1.354973e-009
-1.087478e-009
1.078961e-009
2.909894e-009
2.914596e-009
1.344543e-009
-6.125915e-010
-2.016075e-009
-2.455564e-009
-1.754193e-009
-6.432429e-011
1.713930e-009
2.225762e-009
9.208876e-010
-1.063209e-009
-1.779517e-009
-5.017281e-010
1.357154e-009
1.699340e-009
8.477796e-011
-1.723599e-009
4.645233e-008
2.562992e-008
-4.045278e-010
-1.415311e-008
-1.061155e-008
7.391241e-010
6.783025e-009
2.903984e-009
-4.843586e-009
-7.718154e-009
-3.003821e-009
4.853147e-009
9.951542e-009
1.026759e-008
7.589968e-009
3.873255e-009
-9.718003e-010
-8.028828e-009
-1.785644e-008
-3.148630e-008
-5.304222e-008
-9.050590e-008
-1.532202e-007
-2.486901e-007
-3.820257e-007
-5.579857e-007
-7.822416e-007
-1.059302e-006
-1.388495e-006
-1.761750e-006
-2.165048e-006
-2.581699e-006
-2.994468e-006
-3.385887e-006
-3.738693e-006
-4.038030e-006
-4.274483e-006
-4.445555e-006
-4.554602e-006
-4.608604e-006
-4.616748e-006
-4.590169e-006
-4.541651e-006
-4.484344e-006
-4.429906e-006
-4.387096e-006
-4.361287e-006
-4.354546e-006
-4.365721e-006
-4.390297e-006
-4.420213e-006
-4.444112e-006
-4.448426e-006
-4.419152e-006
-4.343627e-006
-4.211717e-006
-4.016736e-006
-3.756775e-006
-3.436296e-006
-3.066719e-006
-2.664965e-006
-2.250549e-006
-1.842944e-006
-1.460103e-006
-1.117308e-006
-8.252994e-007
-5.882772e-007
-4.037590e-007
-2.651275e-007
-1.650903e-007
-9.728872e-008
-5.537624e-008
-3.174021e-008
-1.827546e-008
-8.939891e-009
-1.460831e-009
3.641007e-009
5.613352e-009
5.017475e-009
3.217743e-009
1.219205e-009
-4.862852e-010
-1.320922e-009
-7.242558e-010
8.395639e-010
1.616243e-009
1.824295e-010
-2.537202e-009
-3.605203e-009
-1.129643e-009
3.149262e-009
5.096998e-009
2.469399e-009
-2.381555e-009
-4.713063e-009
-2.393133e-009
1.818893e-009
3.369959e-009
9.593841e-010
-2.179614e-009
4.514449e-008
2.219679e-008
-5.106305e-009
-1.652797e-008
-7.781616e-009
7.623900e-009
1.287132e-008
3.688786e-009
-9.433890e-009
-1.319322e-008
-4.491115e-009
8.005974e-009
1.358312e-008
9.402747e-009
1.101658e-009
-4.811031e-009
-7.937292e-009
-1.411691e-008
-3.080571e-008
-6.411021e-008
-1.203337e-007
-2.089133e-007
-3.424061e-007
-5.332500e-007
-7.906389e-007
-1.119673e-006
-1.521128e-006
-1.989069e-006
-2.506689e-006
-3.044133e-006
-3.561321e-006
-4.014657e-006
-4.363718e-006
-4.575387e-006
-4.626265e-006
-4.505225e-006
-4.215962e-006
-3.777396e-006
-3.220723e-006
-2.584595e-006
-1.911087e-006
-1.243363e-006
-6.238808e-007
-9.181425e-008
3.199570e-007
5.870005e-007
6.940217e-007
6.347280e-007
4.118635e-007
3.778327e-008
-4.649293e-007
-1.063742e-006
-1.717967e-006
-2.381760e-006
-3.007367e-006
-3.548171e-006
-3.962233e-006
-4.217086e-006
-4.294946e-006
-4.195930e-006
-3.937544e-006
-3.551098e-006
-3.077102e-006
-2.560628e-006
-2.045972e-006
-1.570300e-006
-1.158205e-006
-8.201599e-007
-5.556093e-007
-3.580468e-007
-2.184846e-007
-1.263285e-007
-6.961422e-008
-3.653812e-008
-1.771789e-008
-7.152302e-009
-1.276554e-009
2.270371e-009
4.661658e-009
5.439563e-009
3.467555e-009
-8.128389e-010
-4.435358e-009
-4.171687e-009
-8.150423e-011
3.871402e-009
3.619199e-009
-5.291717e-010
-3.912625e-009
-2.528424e-009
2.346107e-009
5.310440e-009
2.797227e-009
-2.793596e-009
-5.601142e-009
-2.773910e-009
2.398317e-009
4.269061e-009
1.204834e-009
-2.750758e-009
2.281272e-008
7.202942e-009
-9.827834e-009
-1.348179e-008
-2.200557e-009
1.161110e-008
1.425830e-008
3.975539e-009
-8.225278e-009
-1.024868e-008
-9.010138e-010
9.696200e-009
1.084808e-008
1.593066e-009
-9.797667e-009
-1.592780e-008
-1.943621e-008