# vtk DataFile Version 3.0
vtk output
ASCII
DATASET STRUCTURED_POINTS
DIMENSIONS 100 100 1
SPACING 1 1 1
ORIGIN 0 0 0
POINT_DATA 10000
SCALARS SFBox_profile double
LOOKUP_TABLE default 
0.000000e+000
0.000000e+000
0.000000e+000
0.000000e+000
0.000000e+000
0.000000e+000
0.000000e+000
0.000000e+000
0.000000e+000
0.000000e+000
0.000000e+000
0.000000e+000
0.000000e+000
0.000000e+000
0.000000e+000
0.000000e+000
0.000000e+000
0.000000e+000
0.000000e+000
0.000000e+000
0.000000e+000
0.000000e+000
0.000000e+000
0.000000e+000
0.000000e+000
0.000000e+000
0.000000e+000
0.000000e+000
0.000000e+000
0.000000e+000
0.000000e+000
0.000000e+000
0.000000e+000
0.000000e+000
0.000000e+000
0.000000e+000
0.000000e+000
0.000000e+000
0.000000e+000
0.000000e+000
0.000000e+000
0.000000e+000
0.000000e+000
0.000000e+000
0.000000e+000
0.000000e+000
0.000000e+000
0.000000e+000
0.000000e+000
0.000000e+000
0.000000e+000
0.000000e+000
0.000000e+000
0.000000e+000
0.000000e+000
0.000000e+000
0.000000e+000
0.000000e+000
0.000000e+000
0.000000e+000
0.000000e+000
0.000000e+000
0.000000e+000
0.000000e+000
0.000000e+000
0.000000e+000
0.000000e+000
0.000000e+000
0.000000e+000
0.000000e+000
0.000000e+000
0.000000e+000
0.000000e+000
0.000000e+000
0.000000e+000
0.000000e+000
0.000000e+000
0.000000e+000
0.000000e+000
0.000000e+000
0.000000e+000
0.000000e+000
0.000000e+000
0.000000e+000
0.000000e+000
0.000000e+000
0.000000e+000
0.000000e+000
0.000000e+000
0.000000e+000
0.000000e+000
0.000000e+000
0.000000e+000
0.000000e+000
0.000000e+000
0.000000e+000
0.000000e+000
0.000000e+000
0.000000e+000
0.000000e+000
-2.807139e-009
-2.015598e-009
-7.999846e-010
3.119778e-010
9.145578e-010
9.099797e-010
5.012675e-010
2.245517e-011
-2.707914e-010
-3.206085e-010
-2.387330e-010
-1.731711e-010
-1.788555e-010
-1.905356e-010
-1.107084e-010
7.346788e-011
2.580718e-010
3.115535e-010
2.026288e-010
3.948897e-011
-2.482773e-011
6.799148e-011
2.341970e-010
3.376280e-010
3.218257e-010
2.510620e-010
2.280753e-010
2.857429e-010
3.675694e-010
4.056882e-010
3.996106e-010
4.095962e-010
4.827131e-010
6.020406e-010
7.122963e-010
7.827543e-010
8.322019e-010
8.949536e-010
9.771364e-010
1.055017e-009
1.108961e-009
1.145625e-009
1.183560e-009
1.226541e-009
1.260161e-009
1.272234e-009
1.267219e-009
1.257373e-009
1.246411e-009
1.228685e-009
1.201602e-009
1.169931e-009
1.134874e-009
1.086180e-009
1.013338e-009
9.232686e-010
8.379695e-010
7.698367e-010
7.049181e-010
6.190171e-010
5.102668e-010
4.069488e-010
3.370309e-010
2.949242e-010
2.483148e-010
1.797956e-010
1.124539e-010
8.509224e-011
1.051061e-010
1.382180e-010
1.513411e-010
1.567550e-010
1.979374e-010
2.859911e-010
3.614299e-010
3.359738e-010
1.788881e-010
-4.456144e-011
-2.276477e-010
-3.121698e-010
-3.163850e-010
-2.762493e-010
-1.797503e-010
1.399590e-011
2.818346e-010
4.842242e-010
4.457925e-010
1.212797e-010
-3.134711e-010
-5.607889e-010
-4.315667e-010
-1.142189e-011
3.915941e-010
4.846077e-010
2.176727e-010
-1.846255e-010
-4.076978e-010
-2.931191e-010
4.767962e-011
3.321552e-010
-4.796513e-010
-2.994805e-010
-4.107567e-011
1.562758e-010
2.005709e-010
9.687416e-011
-6.498474e-011
-1.714837e-010
-1.558044e-010
-3.619758e-011
1.006161e-010
1.622039e-010
1.180009e-010
2.016912e-011
-4.301539e-011
-2.479395e-011
4.120921e-011
7.949581e-011
5.233603e-011
-1.302256e-013
-2.014001e-012
7.763597e-011
1.919211e-010
2.665906e-010
2.786883e-010
2.777900e-010
3.289618e-010
4.429804e-010
5.699788e-010
6.581756e-010
7.076307e-010
7.608647e-010
8.482913e-010
9.549614e-010
1.043150e-009
1.097541e-009
1.138318e-009
1.191978e-009
1.260082e-009
1.322425e-009
1.364829e-009
1.394184e-009
1.425151e-009
1.460220e-009
1.489164e-009
1.504784e-009
1.511236e-009
1.515001e-009
1.513972e-009
1.501188e-009
1.476838e-009
1.449432e-009
1.423004e-009
1.388904e-009
1.336086e-009
1.267624e-009
1.199874e-009
1.142386e-009
1.083968e-009
1.005290e-009
9.044957e-010
8.029139e-010
7.210284e-010
6.533010e-010
5.746856e-010
4.730735e-010
3.675966e-010
2.876829e-010
2.364959e-010
1.847844e-010
1.064678e-010
1.515512e-011
-4.439776e-011
-4.415069e-011
-5.573331e-012
2.262704e-011
1.805097e-011
6.866555e-012
2.670656e-011
7.262288e-011
9.253648e-011
4.429311e-011
-4.722383e-011
-1.020583e-010
-6.289914e-011
4.015313e-011
1.100116e-010
7.442037e-011
-4.071901e-011
-1.313314e-010
-1.113193e-010
7.107185e-012
1.241691e-010
1.415093e-010
4.610512e-011
-8.299087e-011
-1.437329e-010
-9.232103e-011
2.766838e-011
1.234382e-010
2.159391e-009
1.607285e-009
7.370968e-010
-1.062416e-010
-6.397043e-010
-7.637418e-010
-5.686691e-010
-2.395806e-010
6.285098e-011
2.654963e-010
3.666895e-010
3.835010e-010
3.222705e-010
1.922367e-010
3.091891e-011
-9.942006e-011
-1.476951e-010
-1.072371e-010
-1.395177e-011
8.578836e-011
1.650415e-010
2.215900e-010
2.661449e-010
3.133999e-010
3.810533e-010
4.856949e-010
6.304239e-010
7.969290e-010
9.561005e-010
1.090354e-009
1.204308e-009
1.312054e-009
1.416599e-009
1.506092e-009
1.570200e-009
1.615110e-009
1.658201e-009
1.709392e-009
1.762156e-009
1.803871e-009
1.831021e-009
1.850821e-009
1.870057e-009
1.887685e-009
1.900001e-009
1.908723e-009
1.918975e-009
1.929825e-009
1.931908e-009
1.917564e-009
1.891056e-009
1.864740e-009
1.844880e-009
1.824716e-009
1.793483e-009
1.749563e-009
1.700721e-009
1.651545e-009
1.595200e-009
1.521007e-009
1.428198e-009
1.327450e-009
1.227386e-009
1.123286e-009
1.003377e-009
8.657035e-010
7.240629e-010
5.938778e-010
4.737695e-010
3.452963e-010
1.931564e-010
2.492109e-011
-1.297501e-010
-2.376003e-010
-2.779267e-010
-2.437775e-010
-1.361765e-010
3.313535e-011
2.293966e-010
3.899594e-010
4.429523e-010
3.450080e-010
1.141154e-010
-1.663908e-010
-3.790830e-010
-4.256100e-010
-2.778419e-010
-1.842041e-012
2.638377e-010
3.759729e-010
2.715968e-010
1.697265e-011
-2.238360e-010
-2.945607e-010
-1.582006e-010
7.250048e-011
2.186885e-010
1.744255e-010
-9.956965e-012
-1.714824e-010
2.907984e-009
2.067952e-009
7.878499e-010
-3.609870e-010
-9.490134e-010
-8.933814e-010
-4.398281e-010
4.278038e-011
3.011633e-010
3.106770e-010
2.109023e-010
1.459488e-010
1.491118e-010
1.534231e-010
9.290792e-011
-1.327785e-011
-7.190435e-011
-3.565698e-012
1.813428e-010
3.898385e-010
5.263483e-010
5.698335e-010
5.815061e-010
6.441628e-010
7.929559e-010
9.964242e-010
1.194811e-009
1.352787e-009
1.478932e-009
1.601957e-009
1.734018e-009
1.858090e-009
1.947806e-009
1.995424e-009
2.018457e-009
2.040346e-009
2.067729e-009
2.088108e-009
2.087588e-009
2.066855e-009
2.038186e-009
2.009890e-009
1.978521e-009
1.937712e-009
1.890983e-009
1.851296e-009
1.827503e-009
1.814613e-009
1.800113e-009
1.778770e-009
1.758461e-009
1.751123e-009
1.760404e-009
1.779672e-009
1.799993e-009
1.816675e-009
1.827754e-009
1.829595e-009
1.817188e-009
1.788019e-009
1.742545e-009
1.679809e-009
1.595134e-009
1.484880e-009
1.353008e-009
1.210341e-009
1.066482e-009
9.242069e-010
7.826051e-010
6.425550e-010
5.049128e-010
3.642724e-010
2.120618e-010
5.328208e-011
-8.037752e-011
-1.427389e-010
-1.073821e-010
7.397223e-012
1.490190e-010
2.650460e-010
3.240496e-010
3.054814e-010
1.860176e-010
-3.913063e-011
-3.081503e-010
-4.806646e-010
-4.131308e-010
-8.628261e-011
3.293562e-010
5.595656e-010
4.263352e-010
4.819460e-012
-4.083668e-010
-5.120785e-010
-2.366058e-010
1.965255e-010
4.474743e-010
3.278994e-010
-5.088308e-011
-3.719612e-010
1.307125e-009
8.058599e-010
9.047491e-011
-4.457574e-010
-5.465130e-010
-2.393488e-010
2.054312e-010
4.691943e-010
3.962816e-010
7.857299e-011
-2.371519e-010
-3.409004e-010
-2.023672e-010
3.854771e-011
2.116713e-010
2.603285e-010
2.677781e-010
3.558107e-010
5.602932e-010
8.020877e-010
9.735081e-010
1.047790e-009
1.101870e-009
1.234259e-009
1.464744e-009
1.715751e-009
1.888164e-009
1.950279e-009
1.952512e-009
1.962237e-009
1.993043e-009
1.999536e-009
1.933574e-009
1.795263e-009
1.626138e-009
1.459872e-009
1.289385e-009
1.083958e-009
8.308573e-010
5.520194e-010
2.804535e-010
2.849227e-011
-2.148607e-010
-4.586325e-010
-6.901999e-010
-8.838549e-010
-1.023908e-009
-1.113283e-009
-1.160074e-009
-1.162110e-009
-1.108622e-009
-9.937938e-010
-8.232221e-010
-6.071756e-010
-3.533337e-010
-6.995859e-011
2.272350e-010
5.178386e-010
7.878025e-010
1.033144e-009
1.249283e-009
1.420253e-009
1.525444e-009
1.558902e-009
1.536773e-009
1.480988e-009
1.398613e-009
1.284694e-009
1.146414e-009
1.014510e-009
9.190874e-010
8.531789e-010
7.709978e-010
6.322711e-010
4.467224e-010
2.657570e-010
1.280872e-010
2.418086e-011
-7.427688e-011
-1.549334e-010
-1.570019e-010
-4.266945e-011
1.266611e-010
2.111433e-010
1.167593e-010
-9.426397e-011
-2.342088e-010
-1.562672e-010
9.507291e-011
3.037050e-010
2.692854e-010
-5.087639e-012
-3.014146e-010
-3.690050e-010
-1.411183e-010
2.038721e-010
3.886713e-010
2.647876e-010
-6.771545e-011
-3.429097e-010
-1.103271e-009
-9.460674e-010
-6.463606e-010
-2.441297e-010
1.843589e-010
5.299588e-010
6.795400e-010
5.679567e-010
2.298006e-010
-1.882546e-010
-4.837020e-010
-5.073435e-010
-2.567631e-010
1.227349e-010
4.436880e-010
6.111189e-010
6.753975e-010
7.608933e-010
9.417283e-010
1.183464e-009
1.399399e-009
1.552082e-009
1.687767e-009
1.868807e-009
2.082092e-009
2.227471e-009
2.201544e-009
1.987744e-009
1.657868e-009
1.287314e-009
8.773542e-010
3.642828e-010
-3.029535e-010
-1.106233e-009
-1.980826e-009
-2.883091e-009
-3.823413e-009
-4.831767e-009
-5.902394e-009
-6.982699e-009
-8.014234e-009
-8.973593e-009
-9.867707e-009
-1.069627e-008
-1.142984e-008
-1.202620e-008
-1.245865e-008
-1.272057e-008
-1.280660e-008
-1.270062e-008
-1.238734e-008
-1.186966e-008
-1.116713e-008
-1.029932e-008
-9.279560e-009
-8.128998e-009
-6.890526e-009
-5.620217e-009
-4.364807e-009
-3.154345e-009
-2.019107e-009
-1.004833e-009
-1.595467e-010
4.967282e-010
9.808342e-010
1.319283e-009
1.518149e-009
1.571465e-009
1.501217e-009
1.375512e-009
1.270371e-009
1.209224e-009
1.148937e-009
1.032762e-009
8.516144e-010
6.428969e-010
4.321970e-010
1.981361e-010
-8.253875e-011
-3.559124e-010
-4.849487e-010
-3.568039e-010
-1.156381e-011
3.468435e-010
4.927139e-010
3.540468e-010
6.075855e-011
-1.752813e-010
-2.315077e-010
-1.440027e-010
-3.372498e-011
1.619984e-011
1.333047e-011
1.147153e-011
3.824174e-011
7.120336e-011
7.143093e-011
2.650478e-011
-3.909385e-011
-8.557566e-011
-2.321630e-009
-1.682962e-009
-7.050017e-010
1.889034e-010
6.852065e-010
7.213106e-010
4.569915e-010
1.246771e-010
-1.145822e-010
-2.132037e-010
-1.855494e-010
-4.781679e-011
1.861861e-010
4.724460e-010
7.337326e-010
9.111853e-010
1.018885e-009
1.133860e-009
1.322239e-009
1.575764e-009
1.823228e-009
1.997299e-009
2.076566e-009
2.056713e-009
1.892644e-009
1.489844e-009
7.641794e-010
-2.952451e-010
-1.633881e-009
-3.204175e-009
-5.021702e-009
-7.142046e-009
-9.585836e-009
-1.229718e-008
-1.518001e-008
-1.816744e-008
-2.124506e-008
-2.440729e-008
-2.760365e-008
-3.073831e-008
-3.371914e-008
-3.649595e-008
-3.904668e-008
-4.133580e-008
-4.329817e-008
-4.486295e-008
-4.598179e-008
-4.662606e-008
-4.676423e-008
-4.635621e-008
-4.537561e-008
-4.383041e-008
-4.175509e-008
-3.918743e-008
-3.616457e-008
-3.274626e-008
-2.903356e-008
-2.515508e-008
-2.123448e-008
-1.737732e-008
-1.368763e-008
-1.028192e-008
-7.269536e-009
-4.714284e-009
-2.623118e-009
-9.777527e-010
2.296197e-010
1.004099e-009
1.392372e-009
1.504746e-009
1.475340e-009
1.393622e-009
1.278934e-009
1.122657e-009
9.430691e-010
7.832462e-010
6.550683e-010
5.067930e-010
2.730853e-010
-3.196106e-011
-2.835309e-010
-3.303212e-010
-1.283849e-010
2.008695e-010
4.471050e-010
4.569270e-010
2.294256e-010
-1.003075e-010
-3.544820e-010
-4.079420e-010
-2.417114e-010
4.982742e-011
2.981340e-010
3.483966e-010
1.649895e-010
-1.231447e-010
-3.004368e-010
-2.304516e-010
2.446598e-011
2.467482e-010
-1.651184e-009
-9.924192e-010
-6.902627e-011
5.931280e-010
6.787532e-010
2.678181e-010
-2.593203e-010
-5.118982e-010
-3.487300e-010
7.818542e-011
4.974202e-010
7.391079e-010
8.225912e-010
8.744304e-010
9.911472e-010
1.179254e-009
1.397059e-009
1.617666e-009
1.834931e-009
2.018651e-009
2.083586e-009
1.909346e-009
1.382450e-009
4.122553e-010
-1.084867e-009
-3.196196e-009
-5.993876e-009
-9.508853e-009
-1.373483e-008
-1.866115e-008
-2.429196e-008
-3.062085e-008
-3.758571e-008
-4.505779e-008
-5.288370e-008
-6.093776e-008
-6.912945e-008
-7.736320e-008
-8.550253e-008
-9.338225e-008
-1.008526e-007
-1.078023e-007
-1.141358e-007
-1.197382e-007
-1.244730e-007
-1.282118e-007
-1.308573e-007
-1.323315e-007
-1.325525e-007
-1.314375e-007
-1.289345e-007
-1.250460e-007
-1.198196e-007
-1.133259e-007
-1.056606e-007
-9.697226e-008
-8.748084e-008
-7.745750e-008
-6.718584e-008
-5.694271e-008
-4.700645e-008
-3.765903e-008
-2.915426e-008
-2.167073e-008
-1.529464e-008
-1.004701e-008
-5.918900e-009
-2.871318e-009
-8.044690e-010
4.556554e-010
1.121140e-009
1.382024e-009
1.377186e-009
1.215362e-009
1.006406e-009
8.518948e-010
7.963263e-010
7.950037e-010
7.471660e-010
5.786037e-010
3.061734e-010
3.104369e-011
-1.305090e-010
-1.236955e-010
1.060046e-011
1.581280e-010
1.957020e-010
6.967057e-011
-1.530123e-010
-3.083677e-010
-2.467286e-010
3.219769e-011
3.392799e-010
4.207435e-010
1.734952e-010
-2.353741e-010
-4.787406e-010
-3.420153e-010
7.737441e-011
4.364879e-010
-5.516577e-011
2.469477e-010
5.911640e-010
6.534430e-010
2.992963e-010
-2.920082e-010
-7.354660e-010
-7.115559e-010
-1.974254e-010
5.236097e-010
1.080623e-009
1.282226e-009
1.220678e-009
1.150544e-009
1.269584e-009
1.588139e-009
1.963358e-009
2.219789e-009
2.225903e-009
1.873718e-009
1.014845e-009
-5.659245e-010
-3.115659e-009
-6.857765e-009
-1.196375e-008
-1.855980e-008
-2.674242e-008
-3.658077e-008
-4.810537e-008
-6.129339e-008
-7.605621e-008
-9.223206e-008
-1.095916e-007
-1.278635e-007
-1.467695e-007
-1.660462e-007
-1.854364e-007
-2.046667e-007
-2.234424e-007
-2.414698e-007
-2.584833e-007
-2.742440e-007
-2.885123e-007
-3.010286e-007
-3.115275e-007
-3.197701e-007
-3.255553e-007
-3.287020e-007
-3.290313e-007
-3.263818e-007
-3.206482e-007
-3.118075e-007
-2.999148e-007
-2.850929e-007
-2.675474e-007
-2.475963e-007
-2.256812e-007
-2.023416e-007
-1.781733e-007
-1.538041e-007
-1.298829e-007
-1.070543e-007
-8.589998e-008
-6.687559e-008
-5.027862e-008
-3.625720e-008
-2.483227e-008
-1.590693e-008
-9.268265e-009
-4.606192e-009
-1.558246e-009
2.398045e-010
1.124068e-009
1.397556e-009
1.330951e-009
1.149963e-009
1.009158e-009
9.684493e-010
9.908179e-010
9.728889e-010
8.084148e-010
4.649887e-010
3.077470e-011
-3.147116e-010
-4.097503e-010
-2.331782e-010
6.131220e-011
2.487898e-010
2.070713e-010
1.476478e-011
-1.236298e-010
-6.978268e-011
1.137408e-010
2.202571e-010
1.033973e-010
-1.647440e-010
-3.434617e-010
-2.463824e-010
7.172077e-011
3.491250e-010
1.031433e-009
8.911399e-010
6.234785e-010
2.618917e-010
-1.213808e-010
-4.039002e-010
-4.451549e-010
-1.712656e-010
3.445675e-010
8.930887e-010
1.256639e-009
1.366571e-009
1.354948e-009
1.443350e-009
1.751751e-009
2.178440e-009
2.432563e-009
2.164181e-009
1.063941e-009
-1.144537e-009
-4.784101e-009
-1.027784e-008
-1.811694e-008
-2.876852e-008
-4.259766e-008
-5.985016e-008
-8.067820e-008
-1.051562e-007
-1.332561e-007
-1.648018e-007
-1.994483e-007
-2.367131e-007
-2.760422e-007
-3.168682e-007
-3.586327e-007
-4.007742e-007
-4.427133e-007
-4.838603e-007
-5.236435e-007
-5.615363e-007
-5.970565e-007
-6.297391e-007
-6.591098e-007
-6.846854e-007
-7.060011e-007
-7.226344e-007
-7.342015e-007
-7.403376e-007
-7.406947e-007
-7.349731e-007
-7.229651e-007
-7.045818e-007
-6.798607e-007
-6.489820e-007
-6.123051e-007
-5.704062e-007
-5.240828e-007
-4.743254e-007
-4.222809e-007
-3.692247e-007
-3.165206e-007
-2.655433e-007
-2.175713e-007
-1.736849e-007
-1.346974e-007
-1.011192e-007
-7.314003e-008
-5.063510e-008
-3.320966e-008
-2.027823e-008
-1.115066e-008
-5.098896e-009
-1.406685e-009
5.834957e-010
1.430006e-009
1.579926e-009
1.387896e-009
1.130260e-009
9.784423e-010
9.519231e-010
9.247428e-010
7.331575e-010
3.309128e-010
-1.363368e-010
-4.204448e-010
-3.652037e-010
-4.162541e-011
2.988544e-010
4.178560e-010
2.655511e-010
-6.261932e-012
-1.903427e-010
-1.911979e-010
-7.292578e-011
3.182889e-011
4.870728e-011
7.176419e-012
-1.877406e-011
2.649257e-012
3.719640e-011
1.073409e-009
6.387741e-010
5.089974e-011
-3.351493e-010
-3.315829e-010
-4.858966e-012
4.291593e-010
7.809837e-010
9.880581e-010
1.097490e-009
1.195706e-009
1.359740e-009
1.637252e-009
2.013488e-009
2.348185e-009
2.322664e-009
1.449018e-009
-8.611856e-010
-5.232566e-009
-1.232668e-008
-2.289833e-008
-3.783082e-008
-5.808058e-008
-8.453924e-008
-1.178930e-007
-1.585552e-007
-2.066749e-007
-2.621587e-007
-3.246544e-007
-3.935144e-007
-4.678040e-007
-5.463900e-007
-6.280705e-007
-7.116667e-007
-7.960383e-007
-8.800556e-007
-9.625928e-007
-1.042569e-006
-1.119003e-006
-1.191026e-006
-1.257850e-006
-1.318718e-006
-1.372874e-006
-1.419586e-006
-1.458167e-006
-1.487980e-006
-1.508410e-006
-1.518854e-006
-1.518733e-006
-1.507544e-006
-1.484905e-006
-1.450575e-006
-1.404485e-006
-1.346783e-006
-1.277918e-006
-1.198697e-006
-1.110306e-006
-1.014299e-006
-9.125975e-007
-8.074680e-007
-7.014602e-007
-5.972595e-007
-4.974972e-007
-4.045657e-007
-3.204606e-007
-2.466388e-007
-1.839006e-007
-1.323461e-007
-9.144565e-008
-6.019868e-008
-3.730769e-008
-2.131861e-008
-1.074485e-008
-4.203262e-009
-5.338594e-010
1.165361e-009
1.605643e-009
1.394311e-009
1.034501e-009
8.306869e-010
8.159662e-010
8.204327e-010
6.659986e-010
3.390956e-010
1.775665e-012
-1.535950e-010
-6.671360e-011
1.486839e-010
3.015239e-010
2.646757e-010
5.338880e-011
-1.981217e-010
-3.290628e-010
-2.529007e-010
-1.351546e-011
2.355093e-010
3.257300e-010
1.908658e-010
-7.728592e-011
-2.872571e-010
6.410374e-010
1.224589e-010
-4.886810e-010
-6.823204e-010
-2.610491e-010
5.306832e-010
1.228546e-009
1.514178e-009
1.424981e-009
1.269665e-009
1.358747e-009
1.774265e-009
2.314932e-009
2.577334e-009
2.038667e-009
5.377828e-011
-4.210494e-009
-1.182631e-008
-2.410131e-008
-4.254305e-008
-6.882087e-008
-1.047055e-007
-1.519358e-007
-2.120045e-007
-2.859313e-007
-3.741225e-007
-4.763479e-007
-5.917875e-007
-7.190795e-007
-8.563670e-007
-1.001398e-006
-1.151709e-006
-1.304833e-006
-1.458444e-006
-1.610389e-006
-1.758667e-006
-1.901446e-006
-2.037112e-006
-2.164327e-006
-2.282000e-006
-2.389210e-006
-2.485122e-006
-2.568959e-006
-2.640011e-006
-2.697635e-006
-2.741219e-006
-2.770128e-006
-2.783680e-006
-2.781183e-006
-2.761974e-006
-2.725455e-006
-2.671088e-006
-2.598428e-006
-2.507207e-006
-2.397469e-006
-2.269693e-006
-2.124882e-006
-1.964652e-006
-1.791344e-006
-1.608113e-006
-1.418904e-006
-1.228283e-006
-1.041150e-006
-8.624034e-007
-6.965857e-007
-5.474817e-007
-4.177435e-007
-3.086524e-007
-2.201182e-007
-1.508918e-007
-9.887102e-008
-6.140842e-008
-3.561811e-008
-1.870258e-008
-8.242207e-009
-2.330878e-009
4.886938e-010
1.385909e-009
1.330256e-009
1.039195e-009
8.826332e-010
8.914215e-010
9.101624e-010
7.950912e-010
5.286375e-010
2.093864e-010
-3.020443e-011
-1.075592e-010
-3.724826e-011
7.430407e-011
9.584185e-011
-2.423047e-011
-1.949697e-010
-2.415089e-010
-6.590100e-011
2.300511e-010
3.999197e-010
2.666073e-010
-9.664482e-011
-4.050776e-010
4.691452e-010
4.199872e-011
-4.223500e-010
-4.689966e-010
4.780243e-011
8.549012e-010
1.498610e-009
1.719877e-009
1.647884e-009
1.656520e-009
2.008086e-009
2.560885e-009
2.724136e-009
1.608861e-009
-1.834264e-009
-8.850461e-009
-2.106462e-008
-4.064962e-008
-7.033834e-008
-1.132678e-007
-1.727336e-007
-2.519132e-007
-3.535493e-007
-4.795824e-007
-6.307980e-007
-8.066071e-007
-1.005039e-006
-1.222917e-006
-1.456123e-006
-1.699895e-006
-1.949162e-006
-2.198913e-006
-2.444527e-006
-2.681991e-006
-2.907959e-006
-3.119737e-006
-3.315272e-006
-3.493167e-006
-3.652651e-006
-3.793475e-006
-3.915740e-006
-4.019760e-006
-4.105991e-006
-4.174988e-006
-4.227346e-006
-4.263606e-006
-4.284150e-006
-4.289144e-006
-4.278534e-006
-4.252027e-006
-4.209032e-006
-4.148572e-006
-4.069236e-006
-3.969245e-006
-3.846611e-006
-3.699361e-006
-3.525807e-006
-3.324920e-006
-3.096803e-006
-2.843189e-006
-2.567773e-006
-2.276287e-006
-1.976278e-006
-1.676633e-006
-1.386848e-006
-1.116055e-006
-8.719704e-007
-6.600200e-007
-4.828992e-007
-3.406196e-007
-2.309142e-007
-1.498350e-007
-9.245007e-008
-5.357977e-008
-2.845345e-008
-1.311751e-008
-4.512938e-009
-3.182222e-010
1.242016e-009
1.488038e-009
1.292538e-009
1.101694e-009
1.025753e-009
9.787993e-010
8.238685e-010
4.960209e-010
7.299722e-011
-2.532625e-010
-3.129305e-010
-1.107984e-010
1.519082e-010
2.393041e-010
9.386679e-011
-1.113319e-010
-1.501567e-010
1.994983e-011
2.098911e-010
1.981415e-010
-2.911909e-011
-2.549078e-010
5.750969e-010
3.875108e-010
1.978368e-010
2.222526e-010
5.288706e-010
9.889943e-010
1.403339e-009
1.691553e-009
1.961834e-009
2.361975e-009
2.790466e-009
2.660659e-009
8.518580e-010
-4.203813e-009
-1.448612e-008
-3.254000e-008
-6.175623e-008
-1.065560e-007
-1.722766e-007
-2.647248e-007
-3.895190e-007
-5.513586e-007
-7.532946e-007
-9.960522e-007
-1.277522e-006
-1.592596e-006
-1.933462e-006
-2.290307e-006
-2.652241e-006
-3.008248e-006
-3.348041e-006
-3.662752e-006
-3.945400e-006
-4.191086e-006
-4.396945e-006
-4.561970e-006
-4.686812e-006
-4.773572e-006
-4.825567e-006
-4.847017e-006
-4.842726e-006
-4.817822e-006
-4.777570e-006
-4.727237e-006
-4.671941e-006
-4.616479e-006
-4.565165e-006
-4.521682e-006
-4.488928e-006
-4.468800e-006
-4.461869e-006
-4.467000e-006
-4.480992e-006
-4.498376e-006
-4.511418e-006
-4.510362e-006
-4.483970e-006
-4.420459e-006
-4.308845e-006
-4.140553e-006
-3.911005e-006
-3.620860e-006
-3.276683e-006
-2.890828e-006
-2.480397e-006
-2.065257e-006
-1.665412e-006
-1.298325e-006
-9.768384e-007
-7.081232e-007
-4.937019e-007
-3.303338e-007
-2.114443e-007
-1.287607e-007
-7.381470e-008
-3.902215e-008
-1.821211e-008
-6.686430e-009
-1.019097e-009
1.212966e-009
1.670423e-009
1.433280e-009
1.116693e-009
9.444504e-010
8.483730e-010
6.500779e-010
2.783747e-010
-1.243846e-010
-3.098653e-010
-1.606277e-010
1.732815e-010
3.900581e-010
3.059568e-010
1.485958e-011
-2.205100e-010
-2.281849e-010
-6.954235e-011
6.593333e-011
7.513835e-011
2.361376e-011
4.109220e-010
5.885704e-010
8.314183e-010
1.016362e-009
1.118061e-009
1.230154e-009
1.491172e-009
1.976376e-009
2.602142e-009
3.029784e-009
2.535643e-009
-1.479243e-010
-6.987978e-009
-2.080540e-008
-4.548264e-008
-8.624698e-008
-1.499148e-007
-2.448511e-007
-3.804110e-007
-5.657997e-007
-8.084973e-007
-1.112518e-006
-1.476809e-006
-1.894108e-006
-2.350579e-006
-2.826480e-006
-3.297873e-006
-3.739080e-006
-4.125345e-006
-4.435178e-006
-4.652040e-006
-4.765234e-006
-4.770072e-006
-4.667446e-006
-4.463036e-006
-4.166384e-006
-3.790021e-006
-3.348693e-006
-2.858659e-006
-2.337047e-006
-1.801310e-006
-1.268808e-006
-7.565169e-007
-2.808112e-007
1.427106e-007
4.993755e-007
7.755994e-007
9.591286e-007
1.039432e-006
1.008307e-006
8.607304e-007
5.959295e-007
2.185556e-007
-2.602256e-007
-8.219343e-007
-1.440471e-006
-2.082550e-006
-2.709140e-006
-3.278114e-006
-3.748025e-006
-4.082660e-006
-4.255747e-006
-4.255032e-006
-4.084856e-006
-3.766379e-006
-3.334958e-006
-2.834884e-006
-2.312556e-006
-1.809667e-006
-1.358008e-006
-9.768745e-007
-6.732265e-007
-4.440151e-007
-2.796309e-007
-1.674137e-007
-9.444885e-008
-4.932999e-008
-2.295472e-008
-8.612960e-009
-1.649676e-009
1.056297e-009
1.587462e-009
1.305871e-009
9.779759e-010
8.405341e-010
7.702892e-010
5.749525e-010
2.407653e-010
-4.520408e-011
-9.189514e-011
9.086931e-011
2.907182e-010
2.926710e-010
7.497930e-011
-1.889613e-010
-3.050938e-010
-2.221900e-010
-3.665378e-011
1.265436e-010
2.089866e-010
-2.497218e-010
3.245064e-010
1.086722e-009
1.602489e-009
1.753747e-009
1.803313e-009
2.111478e-009
2.743366e-009
3.232470e-009
2.544602e-009
-9.379647e-010
-9.614357e-009
-2.709064e-008
-5.871978e-008
-1.120928e-007
-1.973246e-007
-3.269334e-007
-5.150225e-007
-7.754553e-007
-1.118911e-006
-1.549096e-006
-2.058858e-006
-2.627232e-006
-3.218503e-006
-3.783952e-006
-4.266306e-006
-4.606143e-006
-4.748909e-006
-4.651079e-006
-4.284338e-006
-3.637293e-006
-2.714906e-006
-1.536232e-006
-1.312736e-007
1.462355e-006
3.202435e-006
5.044582e-006
6.944071e-006
8.857170e-006
1.074204e-005
1.255925e-005
1.427203e-005
1.584626e-005
1.725034e-005
1.845488e-005
1.943242e-005
2.015710e-005
2.060467e-005
2.075278e-005
2.058181e-005
2.007625e-005
1.922660e-005
1.803192e-005
1.650284e-005
1.466463e-005
1.256001e-005
1.025115e-005
7.819986e-006
5.365943e-006
3.000523e-006
8.383740e-007
-1.014477e-006
-2.473755e-006
-3.489081e-006
-4.052256e-006
-4.199048e-006
-4.003139e-006
-3.562987e-006
-2.984626e-006
-2.364720e-006
-1.778026e-006
-1.271719e-006
-8.665676e-007
-5.628713e-007
-3.482089e-007
-2.045182e-007
-1.132087e-007
-5.811418e-008
-2.669158e-008
-1.002276e-008
-2.141642e-009
8.416212e-010
1.454109e-009
1.258612e-009
1.033898e-009
9.510974e-010
8.638621e-010
6.306953e-010
2.912085e-010
1.572295e-011
-6.911254e-011
6.432109e-012
9.874797e-011
8.833858e-011
-2.502116e-011
-1.431877e-010
-1.664039e-010
-7.273576e-011
7.516562e-011
1.819161e-010
-8.216517e-010
4.310411e-012
1.137369e-009
1.993329e-009
2.399692e-009
2.647443e-009
3.060148e-009
3.424726e-009
2.657574e-009
-1.255839e-009
-1.135317e-008
-3.214827e-008
-7.048400e-008
-1.364930e-007
-2.442285e-007
-4.115351e-007
-6.587113e-007
-1.005413e-006
-1.465293e-006
-2.038423e-006
-2.702654e-006
-3.406387e-006
-4.065798e-006
-4.568887e-006
-4.786742e-006
-4.590067e-006
-3.867212e-006
-2.539640e-006
-5.716149e-007
2.027247e-006
5.206049e-006
8.881400e-006
1.294843e-005
1.729171e-005
2.179455e-005
2.634591e-005
3.084500e-005
3.520391e-005
3.934868e-005
4.321916e-005
4.676792e-005
4.995856e-005
5.276361e-005
5.516240e-005
5.713873e-005
5.867863e-005
5.976806e-005
6.039104e-005
6.052814e-005
6.015542e-005
5.924411e-005
5.776136e-005
5.567281e-005
5.294727e-005
4.956405e-005
4.552283e-005
4.085557e-005
3.563864e-005
3.000233e-005
2.413393e-005
1.827088e-005
1.268198e-005
7.637440e-006
3.371926e-006
4.823044e-008
-2.269422e-006
-3.624471e-006
-4.155705e-006
-4.065867e-006
-3.579845e-006
-2.904304e-006
-2.199271e-006
-1.566869e-006
-1.055703e-006
-6.747208e-007
-4.094230e-007
-2.354243e-007
-1.274316e-007
-6.391558e-008
-2.867139e-008
-1.052290e-008
-2.199394e-009
8.849772e-010
1.550968e-009
1.407147e-009
1.185509e-009
1.037076e-009
8.508773e-010
5.321135e-010
1.379337e-010
-1.636020e-010
-2.385239e-010
-1.022183e-010
9.267543e-011
1.825532e-010
1.210969e-010
-3.124842e-012
-6.874363e-011
-3.956724e-011
1.622501e-011
-4.310584e-010
3.580766e-010
1.484056e-009
2.440554e-009
3.059533e-009
3.482860e-009
3.673052e-009
2.790496e-009
-1.240468e-009
-1.200384e-008
-3.505063e-008
-7.884928e-008
-1.561387e-007
-2.851345e-007
-4.897433e-007
-7.977665e-007
-1.235886e-006
-1.820179e-006
-2.541671e-006
-3.348567e-006
-4.130089e-006
-4.709258e-006
-4.851490e-006
-4.291417e-006
-2.773754e-006
-9.848122e-008
3.841206e-006
9.037407e-006
1.536637e-005
2.260605e-005
3.046679e-005
3.862747e-005
4.676983e-005
5.460549e-005
6.189376e-005
6.845081e-005
7.415233e-005
7.893178e-005
8.277568e-005
8.571676e-005
8.782540e-005
8.920046e-005
8.996011e-005
9.023356e-005
9.015344e-005
8.984881e-005
8.943821e-005
8.902224e-005
8.867523e-005
8.843549e-005
8.829438e-005
8.818560e-005
8.797696e-005
8.746789e-005
8.639659e-005
8.446073e-005
8.135415e-005
7.681847e-005
7.070351e-005
6.302441e-005
5.400005e-005
4.405753e-005
3.379311e-005
2.389006e-005
1.500727e-005
7.664322e-006
2.154414e-006
-1.490797e-006
-3.476474e-006
-4.169779e-006
-4.000400e-006
-3.367884e-006
-2.580198e-006
-1.832637e-006
-1.220006e-006
-7.661227e-007
-4.551290e-007
-2.555438e-007
-1.347460e-007
-6.565353e-008
-2.847062e-008
-9.946177e-009
-1.750335e-009
1.139017e-009
1.654120e-009
1.400827e-009
1.098743e-009
8.922268e-010
6.614021e-010
3.155219e-010
-5.591181e-011
-2.535985e-010
-1.700297e-010
8.762588e-011
2.846580e-010
2.701655e-010
9.651095e-011
-6.743331e-011
-1.199141e-010
-1.025304e-010
1.142781e-009
1.628736e-009
2.375435e-009
3.124571e-009
3.721659e-009
3.950652e-009
3.048524e-009
-9.194000e-010
-1.169410e-008
-3.558063e-008
-8.259435e-008
-1.680903e-007
-3.144807e-007
-5.519977e-007
-9.167479e-007
-1.443548e-006
-2.150563e-006
-3.013702e-006
-3.932668e-006
-4.697599e-006
-4.972344e-006
-4.311811e-006
-2.222544e-006
1.740459e-006
7.863432e-006