# vtk DataFile Version 3.0
vtk output
ASCII
DATASET STRUCTURED_POINTS
DIMENSIONS 100 100 1
SPACING 1 1 1
ORIGIN 0 0 0
POINT_DATA 10000
SCALARS SFBox_profile double
LOOKUP_TABLE default 
9.439856e-003
9.439877e-003
9.439908e-003
9.439935e-003
9.439946e-003
9.439940e-003
9.439924e-003
9.439910e-003
9.439905e-003
9.439909e-003
9.439917e-003
9.439924e-003
9.439925e-003
9.439924e-003
9.439923e-003
9.439924e-003
9.439924e-003
9.439922e-003
9.439918e-003
9.439913e-003
9.439911e-003
9.439913e-003
9.439919e-003
9.439923e-003
9.439925e-003
9.439924e-003
9.439923e-003
9.439924e-003
9.439925e-003
9.439925e-003
9.439923e-003
9.439919e-003
9.439917e-003
9.439916e-003
9.439917e-003
9.439917e-003
9.439916e-003
9.439915e-003
9.439915e-003
9.439917e-003
9.439919e-003
9.439919e-003
9.439919e-003
9.439919e-003
9.439920e-003
9.439922e-003
9.439923e-003
9.439922e-003
9.439921e-003
9.439921e-003
9.439922e-003
9.439923e-003
9.439922e-003
9.439920e-003
9.439919e-003
9.439919e-003
9.439920e-003
9.439919e-003
9.439918e-003
9.439916e-003
9.439916e-003
9.439917e-003
9.439918e-003
9.439918e-003
9.439917e-003
9.439917e-003
9.439919e-003
9.439922e-003
9.439923e-003
9.439923e-003
9.439922e-003
9.439922e-003
9.439923e-003
9.439924e-003
9.439922e-003
9.439919e-003
9.439916e-003
9.439915e-003
9.439917e-003
9.439919e-003
9.439920e-003
9.439920e-003
9.439921e-003
9.439922e-003
9.439924e-003
9.439924e-003
9.439921e-003
9.439917e-003
9.439914e-003
9.439914e-003
9.439918e-003
9.439924e-003
9.439927e-003
9.439925e-003
9.439920e-003
9.439915e-003
9.439914e-003
9.439917e-003
9.439922e-003
9.439925e-003
9.439856e-003
9.439877e-003
9.439908e-003
9.439935e-003
9.439946e-003
9.439940e-003
9.439924e-003
9.439910e-003
9.439905e-003
9.439909e-003
9.439917e-003
9.439924e-003
9.439925e-003
9.439924e-003
9.439923e-003
9.439924e-003
9.439924e-003
9.439922e-003
9.439918e-003
9.439913e-003
9.439911e-003
9.439913e-003
9.439919e-003
9.439923e-003
9.439925e-003
9.439924e-003
9.439923e-003
9.439924e-003
9.439925e-003
9.439925e-003
9.439923e-003
9.439919e-003
9.439917e-003
9.439916e-003
9.439917e-003
9.439917e-003
9.439916e-003
9.439915e-003
9.439915e-003
9.439917e-003
9.439919e-003
9.439919e-003
9.439919e-003
9.439919e-003
9.439920e-003
9.439922e-003
9.439923e-003
9.439922e-003
9.439921e-003
9.439921e-003
9.439922e-003
9.439923e-003
9.439922e-003
9.439920e-003
9.439919e-003
9.439919e-003
9.439920e-003
9.439919e-003
9.439918e-003
9.439916e-003
9.439916e-003
9.439917e-003
9.439918e-003
9.439918e-003
9.439917e-003
9.439917e-003
9.439919e-003
9.439922e-003
9.439923e-003
9.439923e-003
9.439922e-003
9.439922e-003
9.439923e-003
9.439924e-003
9.439922e-003
9.439919e-003
9.439916e-003
9.439915e-003
9.439917e-003
9.439919e-003
9.439920e-003
9.439920e-003
9.439921e-003
9.439922e-003
9.439924e-003
9.439924e-003
9.439921e-003
9.439917e-003
9.439914e-003
9.439914e-003
9.439918e-003
9.439924e-003
9.439927e-003
9.439925e-003
9.439920e-003
9.439915e-003
9.439914e-003
9.439917e-003
9.439922e-003
9.439925e-003
9.439907e-003
9.439912e-003
9.439918e-003
9.439924e-003
9.439925e-003
9.439923e-003
9.439919e-003
9.439916e-003
9.439917e-003
9.439920e-003
9.439923e-003
9.439923e-003
9.439921e-003
9.439919e-003
9.439917e-003
9.439918e-003
9.439920e-003
9.439921e-003
9.439922e-003
9.439921e-003
9.439920e-003
9.439920e-003
9.439921e-003
9.439922e-003
9.439921e-003
9.439919e-003
9.439917e-003
9.439918e-003
9.439919e-003
9.439921e-003
9.439921e-003
9.439920e-003
9.439921e-003
9.439922e-003
9.439924e-003
9.439925e-003
9.439925e-003
9.439924e-003
9.439924e-003
9.439925e-003
9.439926e-003
9.439926e-003
9.439925e-003
9.439924e-003
9.439925e-003
9.439926e-003
9.439926e-003
9.439925e-003
9.439925e-003
9.439925e-003
9.439925e-003
9.439926e-003
9.439926e-003
9.439925e-003
9.439924e-003
9.439925e-003
9.439926e-003
9.439926e-003
9.439925e-003
9.439924e-003
9.439924e-003
9.439924e-003
9.439924e-003
9.439923e-003
9.439922e-003
9.439921e-003
9.439921e-003
9.439921e-003
9.439921e-003
9.439919e-003
9.439918e-003
9.439918e-003
9.439919e-003
9.439921e-003
9.439921e-003
9.439920e-003
9.439920e-003
9.439920e-003
9.439921e-003
9.439921e-003
9.439921e-003
9.439919e-003
9.439918e-003
9.439919e-003
9.439920e-003
9.439921e-003
9.439921e-003
9.439920e-003
9.439919e-003
9.439919e-003
9.439919e-003
9.439921e-003
9.439921e-003
9.439921e-003
9.439920e-003
9.439919e-003
9.439919e-003
9.439919e-003
9.439920e-003
9.439921e-003
9.439967e-003
9.439953e-003
9.439930e-003
9.439910e-003
9.439901e-003
9.439904e-003
9.439915e-003
9.439925e-003
9.439931e-003
9.439930e-003
9.439926e-003
9.439921e-003
9.439917e-003
9.439914e-003
9.439913e-003
9.439913e-003
9.439916e-003
9.439920e-003
9.439925e-003
9.439928e-003
9.439928e-003
9.439926e-003
9.439922e-003
9.439919e-003
9.439917e-003
9.439915e-003
9.439915e-003
9.439915e-003
9.439916e-003
9.439918e-003
9.439920e-003
9.439923e-003
9.439925e-003
9.439927e-003
9.439929e-003
9.439930e-003
9.439931e-003
9.439931e-003
9.439931e-003
9.439932e-003
9.439932e-003
9.439931e-003
9.439930e-003
9.439930e-003
9.439930e-003
9.439930e-003
9.439930e-003
9.439929e-003
9.439929e-003
9.439929e-003
9.439929e-003
9.439929e-003
9.439929e-003
9.439929e-003
9.439929e-003
9.439930e-003
9.439930e-003
9.439930e-003
9.439930e-003
9.439930e-003
9.439930e-003
9.439930e-003
9.439929e-003
9.439928e-003
9.439926e-003
9.439924e-003
9.439923e-003
9.439921e-003
9.439919e-003
9.439918e-003
9.439916e-003
9.439916e-003
9.439917e-003
9.439918e-003
9.439919e-003
9.439921e-003
9.439923e-003
9.439924e-003
9.439924e-003
9.439923e-003
9.439921e-003
9.439919e-003
9.439917e-003
9.439916e-003
9.439916e-003
9.439918e-003
9.439920e-003
9.439923e-003
9.439925e-003
9.439924e-003
9.439921e-003
9.439917e-003
9.439915e-003
9.439916e-003
9.439920e-003
9.439923e-003
9.439925e-003
9.439923e-003
9.439919e-003
9.439916e-003
9.439989e-003
9.439967e-003
9.439933e-003
9.439904e-003
9.439893e-003
9.439900e-003
9.439917e-003
9.439931e-003
9.439935e-003
9.439930e-003
9.439922e-003
9.439916e-003
9.439915e-003
9.439917e-003
9.439918e-003
9.439917e-003
9.439917e-003
9.439918e-003
9.439922e-003
9.439926e-003
9.439927e-003
9.439924e-003
9.439920e-003
9.439918e-003
9.439917e-003
9.439919e-003
9.439920e-003
9.439920e-003
9.439920e-003
9.439921e-003
9.439923e-003
9.439925e-003
9.439926e-003
9.439927e-003
9.439927e-003
9.439928e-003
9.439929e-003
9.439930e-003
9.439931e-003
9.439931e-003
9.439931e-003
9.439931e-003
9.439932e-003
9.439933e-003
9.439933e-003
9.439933e-003
9.439933e-003
9.439933e-003
9.439933e-003
9.439933e-003
9.439933e-003
9.439932e-003
9.439932e-003
9.439932e-003
9.439932e-003
9.439932e-003
9.439931e-003
9.439930e-003
9.439930e-003
9.439930e-003
9.439930e-003
9.439929e-003
9.439927e-003
9.439927e-003
9.439926e-003
9.439926e-003
9.439924e-003
9.439923e-003
9.439921e-003
9.439921e-003
9.439920e-003
9.439920e-003
9.439919e-003
9.439918e-003
9.439919e-003
9.439920e-003
9.439923e-003
9.439924e-003
9.439923e-003
9.439921e-003
9.439920e-003
9.439920e-003
9.439919e-003
9.439918e-003
9.439917e-003
9.439916e-003
9.439918e-003
9.439922e-003
9.439926e-003
9.439926e-003
9.439922e-003
9.439916e-003
9.439913e-003
9.439914e-003
9.439920e-003
9.439925e-003
9.439927e-003
9.439924e-003
9.439918e-003
9.439914e-003
9.439957e-003
9.439943e-003
9.439924e-003
9.439909e-003
9.439905e-003
9.439913e-003
9.439923e-003
9.439930e-003
9.439928e-003
9.439920e-003
9.439913e-003
9.439912e-003
9.439917e-003
9.439924e-003
9.439928e-003
9.439926e-003
9.439921e-003
9.439917e-003
9.439917e-003
9.439919e-003
9.439920e-003
9.439919e-003
9.439917e-003
9.439918e-003
9.439921e-003
9.439926e-003
9.439929e-003
9.439929e-003
9.439927e-003
9.439926e-003
9.439927e-003
9.439928e-003
9.439928e-003
9.439927e-003
9.439926e-003
9.439926e-003
9.439927e-003
9.439929e-003
9.439931e-003
9.439931e-003
9.439932e-003
9.439933e-003
9.439935e-003
9.439937e-003
9.439938e-003
9.439938e-003
9.439938e-003
9.439939e-003
9.439940e-003
9.439940e-003
9.439939e-003
9.439938e-003
9.439938e-003
9.439938e-003
9.439937e-003
9.439936e-003
9.439933e-003
9.439932e-003
9.439931e-003
9.439931e-003
9.439929e-003
9.439927e-003
9.439926e-003
9.439926e-003
9.439926e-003
9.439927e-003
9.439926e-003
9.439925e-003
9.439925e-003
9.439926e-003
9.439927e-003
9.439926e-003
9.439924e-003
9.439921e-003
9.439919e-003
9.439919e-003
9.439920e-003
9.439919e-003
9.439918e-003
9.439917e-003
9.439919e-003
9.439921e-003
9.439924e-003
9.439923e-003
9.439920e-003
9.439917e-003
9.439917e-003
9.439919e-003
9.439922e-003
9.439923e-003
9.439922e-003
9.439919e-003
9.439916e-003
9.439917e-003
9.439920e-003
9.439923e-003
9.439924e-003
9.439922e-003
9.439919e-003
9.439917e-003
9.439897e-003
9.439903e-003
9.439912e-003
9.439922e-003
9.439928e-003
9.439930e-003
9.439928e-003
9.439922e-003
9.439915e-003
9.439910e-003
9.439909e-003
9.439913e-003
9.439921e-003
9.439929e-003
9.439932e-003
9.439929e-003
9.439923e-003
9.439917e-003
9.439914e-003
9.439914e-003
9.439916e-003
9.439917e-003
9.439918e-003
9.439921e-003
9.439925e-003
9.439930e-003
9.439933e-003
9.439933e-003
9.439931e-003
9.439930e-003
9.439931e-003
9.439933e-003
9.439934e-003
9.439933e-003
9.439932e-003
9.439933e-003
9.439935e-003
9.439938e-003
9.439940e-003
9.439940e-003
9.439940e-003
9.439942e-003
9.439944e-003
9.439946e-003
9.439946e-003
9.439945e-003
9.439945e-003
9.439945e-003
9.439947e-003
9.439947e-003
9.439945e-003
9.439944e-003
9.439944e-003
9.439945e-003
9.439945e-003
9.439943e-003
9.439941e-003
9.439940e-003
9.439939e-003
9.439939e-003
9.439937e-003
9.439935e-003
9.439933e-003
9.439932e-003
9.439932e-003
9.439932e-003
9.439931e-003
9.439929e-003
9.439928e-003
9.439929e-003
9.439930e-003
9.439930e-003
9.439927e-003
9.439924e-003
9.439921e-003
9.439920e-003
9.439919e-003
9.439918e-003
9.439916e-003
9.439915e-003
9.439918e-003
9.439922e-003
9.439925e-003
9.439926e-003
9.439924e-003
9.439920e-003
9.439917e-003
9.439916e-003
9.439917e-003
9.439919e-003
9.439921e-003
9.439922e-003
9.439923e-003
9.439922e-003
9.439920e-003
9.439918e-003
9.439918e-003
9.439919e-003
9.439920e-003
9.439922e-003
9.439858e-003
9.439878e-003
9.439908e-003
9.439933e-003
9.439943e-003
9.439938e-003
9.439924e-003
9.439913e-003
9.439908e-003
9.439911e-003
9.439916e-003
9.439921e-003
9.439924e-003
9.439925e-003
9.439925e-003
9.439924e-003
9.439921e-003
9.439918e-003
9.439917e-003
9.439918e-003
9.439920e-003
9.439923e-003
9.439924e-003
9.439925e-003
9.439927e-003
9.439928e-003
9.439930e-003
9.439931e-003
9.439932e-003
9.439933e-003
9.439936e-003
9.439940e-003
9.439943e-003
9.439945e-003
9.439946e-003
9.439947e-003
9.439949e-003
9.439950e-003
9.439950e-003
9.439948e-003
9.439946e-003
9.439944e-003
9.439943e-003
9.439941e-003
9.439938e-003
9.439935e-003
9.439933e-003
9.439932e-003
9.439932e-003
9.439932e-003
9.439931e-003
9.439931e-003
9.439932e-003
9.439935e-003
9.439938e-003
9.439939e-003
9.439940e-003
9.439942e-003
9.439944e-003
9.439946e-003
9.439947e-003
9.439946e-003
9.439944e-003
9.439943e-003
9.439943e-003
9.439941e-003
9.439938e-003
9.439934e-003
9.439932e-003
9.439930e-003
9.439930e-003
9.439929e-003
9.439927e-003
9.439925e-003
9.439924e-003
9.439923e-003
9.439923e-003
9.439921e-003
9.439919e-003
9.439918e-003
9.439919e-003
9.439920e-003
9.439922e-003
9.439923e-003
9.439923e-003
9.439922e-003
9.439920e-003
9.439918e-003
9.439916e-003
9.439916e-003
9.439919e-003
9.439923e-003
9.439926e-003
9.439925e-003
9.439921e-003
9.439915e-003
9.439913e-003
9.439916e-003
9.439922e-003
9.439926e-003
9.439867e-003
9.439887e-003
9.439915e-003
9.439936e-003
9.439940e-003
9.439929e-003
9.439914e-003
9.439907e-003
9.439911e-003
9.439921e-003
9.439929e-003
9.439930e-003
9.439923e-003
9.439915e-003
9.439912e-003
9.439914e-003
9.439919e-003
9.439922e-003
9.439924e-003
9.439926e-003
9.439928e-003
9.439930e-003
9.439931e-003
9.439930e-003
9.439928e-003
9.439928e-003
9.439929e-003
9.439933e-003
9.439936e-003
9.439940e-003
9.439944e-003
9.439947e-003
9.439950e-003
9.439951e-003
9.439950e-003
9.439947e-003
9.439943e-003
9.439937e-003
9.439929e-003
9.439919e-003
9.439909e-003
9.439898e-003
9.439888e-003
9.439878e-003
9.439868e-003
9.439859e-003
9.439851e-003
9.439847e-003
9.439845e-003
9.439844e-003
9.439845e-003
9.439847e-003
9.439853e-003
9.439862e-003
9.439871e-003
9.439880e-003
9.439890e-003
9.439900e-003
9.439911e-003
9.439921e-003
9.439929e-003
9.439936e-003
9.439940e-003
9.439944e-003
9.439946e-003
9.439946e-003
9.439944e-003
9.439941e-003
9.439937e-003
9.439934e-003
9.439932e-003
9.439929e-003
9.439927e-003
9.439926e-003
9.439927e-003
9.439927e-003
9.439927e-003
9.439926e-003
9.439924e-003
9.439923e-003
9.439921e-003
9.439919e-003
9.439917e-003
9.439917e-003
9.439919e-003
9.439922e-003
9.439924e-003
9.439922e-003
9.439918e-003
9.439916e-003
9.439917e-003
9.439921e-003
9.439925e-003
9.439925e-003
9.439921e-003
9.439916e-003
9.439914e-003
9.439916e-003
9.439921e-003
9.439926e-003
9.439912e-003
9.439918e-003
9.439926e-003
9.439929e-003
9.439924e-003
9.439914e-003
9.439907e-003
9.439909e-003
9.439919e-003
9.439931e-003
9.439937e-003
9.439932e-003
9.439920e-003
9.439909e-003
9.439906e-003
9.439911e-003
9.439920e-003
9.439927e-003
9.439929e-003
9.439929e-003
9.439930e-003
9.439933e-003
9.439935e-003
9.439935e-003
9.439934e-003
9.439935e-003
9.439938e-003
9.439943e-003
9.439947e-003
9.439948e-003
9.439946e-003
9.439942e-003
9.439936e-003
9.439926e-003
9.439911e-003
9.439892e-003
9.439869e-003
9.439844e-003
9.439815e-003
9.439784e-003
9.439751e-003
9.439718e-003
9.439686e-003
9.439655e-003
9.439627e-003
9.439603e-003
9.439583e-003
9.439569e-003
9.439562e-003
9.439560e-003
9.439564e-003
9.439574e-003
9.439591e-003
9.439613e-003
9.439640e-003
9.439669e-003
9.439701e-003
9.439734e-003
9.439768e-003
9.439801e-003
9.439831e-003
9.439858e-003
9.439882e-003
9.439902e-003
9.439918e-003
9.439929e-003
9.439937e-003
9.439941e-003
9.439943e-003
9.439942e-003
9.439939e-003
9.439936e-003
9.439933e-003
9.439932e-003
9.439931e-003
9.439930e-003
9.439928e-003
9.439927e-003
9.439927e-003
9.439927e-003
9.439924e-003
9.439920e-003
9.439915e-003
9.439913e-003
9.439916e-003
9.439921e-003
9.439925e-003
9.439925e-003
9.439922e-003
9.439919e-003
9.439917e-003
9.439918e-003
9.439920e-003
9.439921e-003
9.439921e-003
9.439920e-003
9.439919e-003
9.439919e-003
9.439920e-003
9.439921e-003
9.439957e-003
9.439947e-003
9.439931e-003
9.439916e-003
9.439908e-003
9.439907e-003
9.439911e-003
9.439918e-003
9.439925e-003
9.439930e-003
9.439930e-003
9.439925e-003
9.439917e-003
9.439912e-003
9.439913e-003
9.439919e-003
9.439927e-003
9.439931e-003
9.439930e-003
9.439928e-003
9.439928e-003
9.439931e-003
9.439937e-003
9.439942e-003
9.439945e-003
9.439948e-003
9.439950e-003
9.439951e-003
9.439948e-003
9.439937e-003
9.439918e-003
9.439892e-003
9.439858e-003
9.439816e-003
9.439765e-003
9.439704e-003
9.439633e-003
9.439556e-003
9.439473e-003
9.439386e-003
9.439296e-003
9.439206e-003
9.439119e-003
9.439038e-003
9.438965e-003
9.438902e-003
9.438851e-003
9.438815e-003
9.438794e-003
9.438789e-003
9.438802e-003
9.438831e-003
9.438875e-003
9.438933e-003
9.439003e-003
9.439083e-003
9.439170e-003
9.439262e-003
9.439354e-003
9.439445e-003
9.439532e-003
9.439614e-003
9.439687e-003
9.439752e-003
9.439805e-003
9.439849e-003
9.439884e-003
9.439911e-003
9.439929e-003
9.439940e-003
9.439944e-003
9.439944e-003
9.439943e-003
9.439941e-003
9.439937e-003
9.439932e-003
9.439928e-003
9.439926e-003
9.439926e-003
9.439927e-003
9.439927e-003
9.439923e-003
9.439919e-003
9.439916e-003
9.439917e-003
9.439920e-003
9.439923e-003
9.439924e-003
9.439923e-003
9.439921e-003
9.439919e-003
9.439917e-003
9.439916e-003
9.439917e-003
9.439920e-003
9.439923e-003
9.439925e-003
9.439923e-003
9.439919e-003
9.439916e-003
9.439972e-003
9.439952e-003
9.439924e-003
9.439905e-003
9.439902e-003
9.439912e-003
9.439925e-003
9.439930e-003
9.439927e-003
9.439919e-003
9.439914e-003
9.439914e-003
9.439917e-003
9.439922e-003
9.439927e-003
9.439930e-003
9.439932e-003
9.439931e-003
9.439929e-003
9.439927e-003
9.439929e-003
9.439935e-003
9.439943e-003
9.439950e-003
9.439953e-003
9.439951e-003
9.439943e-003
9.439927e-003
9.439900e-003
9.439856e-003
9.439794e-003
9.439714e-003
9.439614e-003
9.439494e-003
9.439351e-003
9.439186e-003
9.439001e-003
9.438798e-003
9.438584e-003
9.438361e-003
9.438135e-003
9.437910e-003
9.437693e-003
9.437491e-003
9.437311e-003
9.437158e-003
9.437035e-003
9.436947e-003
9.436896e-003
9.436887e-003
9.436919e-003
9.436990e-003
9.437099e-003
9.437242e-003
9.437415e-003
9.437613e-003
9.437831e-003
9.438061e-003
9.438294e-003
9.438526e-003
9.438751e-003
9.438964e-003
9.439159e-003
9.439332e-003
9.439481e-003
9.439606e-003
9.439708e-003
9.439790e-003
9.439851e-003
9.439893e-003
9.439920e-003
9.439935e-003
9.439944e-003
9.439946e-003
9.439944e-003
9.439938e-003
9.439931e-003
9.439927e-003
9.439926e-003
9.439927e-003
9.439927e-003
9.439927e-003
9.439925e-003
9.439923e-003
9.439921e-003
9.439919e-003
9.439918e-003
9.439919e-003
9.439921e-003
9.439923e-003
9.439923e-003
9.439919e-003
9.439916e-003
9.439915e-003
9.439919e-003
9.439924e-003
9.439927e-003
9.439924e-003
9.439918e-003
9.439914e-003
9.439953e-003
9.439936e-003
9.439913e-003
9.439902e-003
9.439908e-003
9.439924e-003
9.439937e-003
9.439937e-003
9.439923e-003
9.439908e-003
9.439903e-003
9.439909e-003
9.439922e-003
9.439933e-003
9.439937e-003
9.439935e-003
9.439932e-003
9.439930e-003
9.439932e-003
9.439936e-003
9.439941e-003
9.439947e-003
9.439951e-003
9.439951e-003
9.439941e-003
9.439917e-003
9.439875e-003
9.439812e-003
9.439721e-003
9.439596e-003
9.439430e-003
9.439219e-003
9.438961e-003
9.438653e-003
9.438294e-003
9.437887e-003
9.437436e-003
9.436948e-003
9.436435e-003
9.435907e-003
9.435375e-003
9.434851e-003
9.434351e-003
9.433888e-003
9.433476e-003
9.433127e-003
9.432848e-003
9.432650e-003
9.432538e-003
9.432518e-003
9.432591e-003
9.432754e-003
9.433002e-003
9.433329e-003
9.433727e-003
9.434184e-003
9.434687e-003
9.435221e-003
9.435770e-003
9.436320e-003
9.436857e-003
9.437369e-003
9.437843e-003
9.438270e-003
9.438643e-003
9.438962e-003
9.439227e-003
9.439441e-003
9.439607e-003
9.439729e-003
9.439816e-003
9.439875e-003
9.439913e-003
9.439934e-003
9.439943e-003
9.439944e-003
9.439940e-003
9.439935e-003
9.439931e-003
9.439928e-003
9.439927e-003
9.439928e-003
9.439929e-003
9.439928e-003
9.439925e-003
9.439920e-003
9.439915e-003
9.439914e-003
9.439917e-003
9.439923e-003
9.439925e-003
9.439923e-003
9.439919e-003
9.439916e-003
9.439917e-003
9.439921e-003
9.439924e-003
9.439923e-003
9.439920e-003
9.439916e-003
9.439922e-003
9.439915e-003
9.439908e-003
9.439908e-003
9.439918e-003
9.439931e-003
9.439937e-003
9.439932e-003
9.439919e-003
9.439907e-003
9.439906e-003
9.439915e-003
9.439928e-003
9.439937e-003
9.439936e-003
9.439931e-003
9.439928e-003
9.439932e-003
9.439942e-003
9.439953e-003
9.439958e-003
9.439956e-003
9.439943e-003
9.439917e-003
9.439868e-003
9.439786e-003
9.439662e-003
9.439484e-003
9.439241e-003
9.438919e-003
9.438506e-003
9.437991e-003
9.437368e-003
9.436635e-003
9.435795e-003
9.434856e-003
9.433828e-003
9.432731e-003
9.431586e-003
9.430418e-003
9.429252e-003
9.428117e-003
9.427040e-003
9.426050e-003
9.425173e-003
9.424431e-003
9.423845e-003
9.423429e-003
9.423197e-003
9.423157e-003
9.423312e-003
9.423657e-003
9.424185e-003
9.424881e-003
9.425730e-003
9.426710e-003
9.427794e-003
9.428953e-003
9.430155e-003
9.431369e-003
9.432565e-003
9.433716e-003
9.434793e-003
9.435776e-003
9.436650e-003
9.437407e-003
9.438044e-003
9.438565e-003
9.438977e-003
9.439291e-003
9.439524e-003
9.439689e-003
9.439801e-003
9.439873e-003
9.439915e-003
9.439937e-003
9.439946e-003
9.439946e-003
9.439942e-003
9.439935e-003
9.439929e-003
9.439927e-003
9.439928e-003
9.439929e-003
9.439928e-003
9.439923e-003
9.439917e-003
9.439914e-003
9.439916e-003
9.439921e-003
9.439925e-003
9.439925e-003
9.439922e-003
9.439919e-003
9.439917e-003
9.439918e-003
9.439919e-003
9.439921e-003
9.439921e-003
9.439921e-003
9.439899e-003
9.439905e-003
9.439914e-003
9.439922e-003
9.439926e-003
9.439926e-003
9.439923e-003
9.439919e-003
9.439917e-003
9.439917e-003
9.439921e-003
9.439927e-003
9.439933e-003
9.439934e-003
9.439931e-003
9.439928e-003
9.439930e-003
9.439941e-003
9.439955e-003
9.439964e-003
9.439958e-003
9.439931e-003
9.439878e-003
9.439789e-003
9.439648e-003
9.439431e-003
9.439114e-003
9.438674e-003
9.438083e-003
9.437318e-003
9.436353e-003
9.435171e-003
9.433764e-003
9.432134e-003
9.430293e-003
9.428262e-003
9.426071e-003
9.423760e-003
9.421376e-003
9.418971e-003
9.416598e-003
9.414310e-003
9.412161e-003
9.410201e-003
9.408477e-003
9.407030e-003
9.405893e-003
9.405093e-003
9.404651e-003
9.404579e-003
9.404884e-003
9.405558e-003
9.406588e-003
9.407954e-003
9.409627e-003
9.411568e-003
9.413731e-003
9.416064e-003
9.418507e-003
9.421002e-003
9.423488e-003
9.425904e-003
9.428196e-003
9.430316e-003
9.432228e-003
9.433908e-003
9.435343e-003
9.436534e-003
9.437493e-003
9.438240e-003
9.438803e-003
9.439214e-003
9.439500e-003
9.439691e-003
9.439813e-003
9.439886e-003
9.439927e-003
9.439946e-003
9.439949e-003
9.439943e-003
9.439935e-003
9.439928e-003
9.439927e-003
9.439927e-003
9.439928e-003
9.439925e-003
9.439922e-003
9.439919e-003
9.439918e-003
9.439919e-003
9.439921e-003
9.439922e-003
9.439923e-003
9.439922e-003
9.439919e-003
9.439917e-003
9.439916e-003
9.439918e-003
9.439921e-003
9.439924e-003
9.439890e-003
9.439906e-003
9.439927e-003
9.439936e-003
9.439931e-003
9.439916e-003
9.439906e-003
9.439907e-003
9.439918e-003
9.439930e-003
9.439936e-003
9.439936e-003
9.439933e-003
9.439930e-003
9.439931e-003
9.439935e-003
9.439944e-003
9.439954e-003
9.439959e-003
9.439947e-003
9.439905e-003
9.439821e-003
9.439675e-003
9.439444e-003
9.439090e-003
9.438567e-003
9.437823e-003
9.436808e-003
9.435471e-003
9.433766e-003
9.431655e-003
9.429114e-003
9.426139e-003
9.422748e-003
9.418978e-003
9.414888e-003
9.410549e-003
9.406048e-003
9.401480e-003
9.396945e-003
9.392543e-003
9.388368e-003
9.384504e-003
9.381032e-003
9.378017e-003
9.375517e-003
9.373575e-003
9.372226e-003
9.371493e-003
9.371392e-003
9.371928e-003
9.373096e-003
9.374882e-003
9.377260e-003
9.380194e-003
9.383633e-003
9.387512e-003
9.391755e-003
9.396268e-003
9.400950e-003
9.405692e-003
9.410379e-003
9.414900e-003
9.419154e-003
9.423056e-003
9.426543e-003
9.429571e-003
9.432126e-003
9.434218e-003
9.435878e-003
9.437153e-003
9.438099e-003
9.438774e-003
9.439236e-003
9.439540e-003
9.439731e-003
9.439846e-003
9.439910e-003
9.439939e-003
9.439946e-003
9.439943e-003
9.439936e-003
9.439931e-003
9.439928e-003
9.439927e-003
9.439927e-003
9.439927e-003
9.439926e-003
9.439923e-003
9.439918e-003
9.439916e-003
9.439917e-003
9.439921e-003
9.439924e-003
9.439923e-003
9.439919e-003
9.439915e-003
9.439916e-003
9.439921e-003
9.439925e-003
9.439889e-003
9.439910e-003
9.439933e-003
9.439942e-003
9.439931e-003
9.439911e-003
9.439899e-003
9.439905e-003
9.439922e-003
9.439938e-003
9.439942e-003
9.439936e-003
9.439930e-003
9.439931e-003
9.439941e-003
9.439954e-003
9.439962e-003
9.439957e-003
9.439931e-003
9.439867e-003
9.439744e-003
9.439528e-003
9.439175e-003
9.438626e-003
9.437805e-003
9.436622e-003
9.434979e-003
9.432778e-003
9.429932e-003
9.426368e-003
9.422038e-003
9.416929e-003
9.411071e-003
9.404537e-003
9.397443e-003
9.389933e-003
9.382178e-003
9.374358e-003
9.366657e-003
9.359248e-003
9.352287e-003
9.345902e-003
9.340192e-003
9.335230e-003
9.331062e-003
9.327715e-003
9.325196e-003
9.323505e-003
9.322636e-003
9.322585e-003
9.323352e-003
9.324941e-003
9.327358e-003
9.330609e-003
9.334696e-003
9.339604e-003
9.345300e-003
9.351724e-003
9.358780e-003
9.366343e-003
9.374250e-003
9.382312e-003
9.390324e-003
9.398080e-003
9.405386e-003
9.412075e-003
9.418021e-003
9.423146e-003
9.427428e-003
9.430892e-003
9.433603e-003
9.435652e-003
9.437144e-003
9.438190e-003
9.438894e-003
9.439349e-003
9.439631e-003
9.439797e-003
9.439886e-003
9.439929e-003
9.439945e-003
9.439946e-003
9.439940e-003
9.439933e-003
9.439928e-003
9.439927e-003
9.439929e-003
9.439929e-003
9.439926e-003
9.439919e-003
9.439914e-003
9.439914e-003
9.439919e-003
9.439924e-003
9.439926e-003
9.439922e-003
9.439917e-003
9.439916e-003
9.439919e-003
9.439923e-003
9.439894e-003
9.439910e-003
9.439929e-003
9.439937e-003
9.439928e-003
9.439913e-003
9.439907e-003
9.439914e-003
9.439929e-003
9.439939e-003
9.439938e-003
9.439931e-003
9.439929e-003
9.439939e-003
9.439957e-003
9.439970e-003
9.439962e-003
9.439920e-003
9.439828e-003
9.439655e-003
9.439355e-003
9.438853e-003
9.438052e-003
9.436831e-003
9.435042e-003
9.432521e-003
9.429095e-003
9.424602e-003
9.418912e-003
9.411946e-003
9.403696e-003
9.394241e-003
9.383752e-003
9.372491e-003
9.360785e-003
9.349005e-003
9.337532e-003
9.326724e-003
9.316891e-003
9.308269e-003
9.301009e-003
9.295163e-003
9.290697e-003
9.287495e-003
9.285386e-003
9.284158e-003
9.283593e-003
9.283486e-003
9.283673e-003
9.284051e-003
9.284583e-003
9.285312e-003
9.286351e-003
9.287873e-003
9.290095e-003
9.293247e-003
9.297544e-003
9.303160e-003
9.310190e-003
9.318635e-003
9.328382e-003
9.339209e-003
9.350797e-003
9.362755e-003
9.374658e-003
9.386085e-003
9.396665e-003
9.406114e-003
9.414251e-003
9.421011e-003
9.426426e-003
9.430608e-003
9.433718e-003
9.435944e-003
9.437477e-003
9.438491e-003
9.439133e-003
9.439521e-003
9.439743e-003
9.439863e-003
9.439923e-003
9.439946e-003
9.439949e-003
9.439941e-003
9.439932e-003
9.439927e-003
9.439927e-003
9.439929e-003
9.439927e-003
9.439922e-003
9.439917e-003
9.439915e-003
9.439918e-003
9.439923e-003
9.439925e-003
9.439923e-003
9.439920e-003
9.439918e-003
9.439919e-003
9.439920e-003
9.439907e-003
9.439912e-003
9.439919e-003
9.439922e-003
9.439922e-003
9.439921e-003
9.439923e-003
9.439928e-003
9.439933e-003
9.439935e-003
9.439932e-003
9.439931e-003
9.439938e-003
9.439953e-003
9.439966e-003
9.439960e-003
9.439911e-003
9.439793e-003
9.439568e-003
9.439170e-003
9.438495e-003
9.437396e-003
9.435681e-003
9.433121e-003
9.429449e-003
9.424387e-003
9.417666e-003
9.409075e-003
9.398512e-003
9.386030e-003
9.371882e-003
9.356533e-003
9.340649e-003
9.325052e-003
9.310650e-003
9.298346e-003
9.288943e-003
9.283062e-003
9.281076e-003
9.283075e-003
9.288849e-003
9.297904e-003
9.309494e-003
9.322681e-003
9.336404e-003
9.349567e-003
9.361121e-003
9.370148e-003
9.375933e-003
9.378022e-003
9.376258e-003
9.370801e-003
9.362118e-003
9.350957e-003
9.338289e-003
9.325235e-003
9.312974e-003
9.302640e-003
9.295222e-003
9.291464e-003
9.291800e-003
9.296305e-003
9.304692e-003
9.316344e-003
9.330395e-003
9.345829e-003
9.361614e-003
9.376819e-003
9.390708e-003
9.402793e-003
9.412838e-003
9.420833e-003
9.426936e-003
9.431408e-003
9.434556e-003
9.436683e-003
9.438059e-003
9.438910e-003
9.439412e-003
9.439695e-003
9.439846e-003
9.439919e-003
9.439945e-003
9.439947e-003
9.439939e-003
9.439931e-003
9.439928e-003
9.439927e-003
9.439927e-003
9.439925e-003
9.439922e-003
9.439920e-003
9.439919e-003
9.439920e-003
9.439921e-003
9.439921e-003
9.439921e-003
9.439920e-003
9.439919e-003
9.439919e-003
9.439933e-003
9.439923e-003
9.439911e-003
9.439908e-003
9.439915e-003
9.439927e-003
9.439936e-003
9.439938e-003
9.439934e-003
9.439932e-003
9.439934e-003
9.439943e-003
9.439956e-003
9.439963e-003
9.439951e-003
9.439896e-003
9.439761e-003
9.439489e-003
9.438992e-003
9.438131e-003
9.436701e-003
9.434425e-003
9.430955e-003
9.425886e-003
9.418784e-003
9.409243e-003
9.396969e-003
9.381894e-003
9.364304e-003
9.344946e-003
9.325083e-003
9.306484e-003
9.291307e-003
9.281917e-003
9.280638e-003
9.289490e-003
9.309942e-003
9.342726e-003
9.387725e-003
9.443942e-003
9.509542e-003
9.581952e-003
9.658008e-003
9.734149e-003
9.806628e-003
9.871752e-003
9.926106e-003
9.966775e-003
9.991518e-003
9.998913e-003
9.988456e-003
9.960604e-003
9.916768e-003
9.859256e-003
9.791140e-003
9.716086e-003
9.638114e-003
9.561329e-003
9.489632e-003
9.426424e-003
9.374350e-003
9.335089e-003
9.309236e-003
9.296286e-003
9.294747e-003
9.302380e-003
9.316528e-003
9.334469e-003
9.353748e-003
9.372412e-003
9.389125e-003
9.403166e-003
9.414326e-003
9.422768e-003
9.428867e-003
9.433082e-003
9.435871e-003
9.437635e-003
9.438702e-003
9.439319e-003
9.439657e-003
9.439832e-003
9.439912e-003
9.439941e-003
9.439945e-003
9.439939e-003