# vtk DataFile Version 3.0
vtk output
ASCII
DATASET STRUCTURED_POINTS
DIMENSIONS 100 100 1
SPACING 1 1 1
ORIGIN 0 0 0
POINT_DATA 10000
SCALARS SFBox_profile double
LOOKUP_TABLE default 
0.000000e+000
0.000000e+000
0.000000e+000
0.000000e+000
0.000000e+000
0.000000e+000
0.000000e+000
0.000000e+000
0.000000e+000
0.000000e+000
0.000000e+000
0.000000e+000
0.000000e+000
0.000000e+000
0.000000e+000
0.000000e+000
0.000000e+000
0.000000e+000
0.000000e+000
0.000000e+000
0.000000e+000
0.000000e+000
0.000000e+000
0.000000e+000
0.000000e+000
0.000000e+000
0.000000e+000
0.000000e+000
0.000000e+000
0.000000e+000
0.000000e+000
0.000000e+000
0.000000e+000
0.000000e+000
0.000000e+000
0.000000e+000
0.000000e+000
0.000000e+000
0.000000e+000
0.000000e+000
0.000000e+000
0.000000e+000
0.000000e+000
0.000000e+000
0.000000e+000
0.000000e+000
0.000000e+000
0.000000e+000
0.000000e+000
0.000000e+000
0.000000e+000
0.000000e+000
0.000000e+000
0.000000e+000
0.000000e+000
0.000000e+000
0.000000e+000
0.000000e+000
0.000000e+000
0.000000e+000
0.000000e+000
0.000000e+000
0.000000e+000
0.000000e+000
0.000000e+000
0.000000e+000
0.000000e+000
0.000000e+000
0.000000e+000
0.000000e+000
0.000000e+000
0.000000e+000
0.000000e+000
0.000000e+000
0.000000e+000
0.000000e+000
0.000000e+000
0.000000e+000
0.000000e+000
0.000000e+000
0.000000e+000
0.000000e+000
0.000000e+000
0.000000e+000
0.000000e+000
0.000000e+000
0.000000e+000
0.000000e+000
0.000000e+000
0.000000e+000
0.000000e+000
0.000000e+000
0.000000e+000
0.000000e+000
0.000000e+000
0.000000e+000
0.000000e+000
0.000000e+000
0.000000e+000
0.000000e+000
-8.125558e-008
-5.375708e-008
-1.273130e-008
2.189036e-008
3.533067e-008
2.549057e-008
2.637037e-009
-1.794760e-008
-2.525581e-008
-1.793097e-008
-3.000698e-009
1.012814e-008
1.569931e-008
1.376870e-008
8.041409e-009
2.094038e-009
-2.777376e-009
-6.938302e-009
-1.046973e-008
-1.217584e-008
-1.047511e-008
-5.106224e-009
2.150497e-009
8.477489e-009
1.183074e-008
1.198253e-008
1.006762e-008
7.297459e-009
4.103876e-009
3.379010e-010
-3.946879e-009
-8.061131e-009
-1.102242e-008
-1.225612e-008
-1.192909e-008
-1.064285e-008
-8.870968e-009
-6.706653e-009
-4.079819e-009
-1.104345e-009
1.852792e-009
4.421644e-009
6.486227e-009
8.170878e-009
9.611411e-009
1.079252e-008
1.161388e-008
1.205995e-008
1.224329e-008
1.227386e-008
1.213234e-008
1.171275e-008
1.097441e-008
9.997442e-009
8.859575e-009
7.493711e-009
5.732324e-009
3.519050e-009
1.039292e-009
-1.409473e-009
-3.674136e-009
-5.812412e-009
-7.852554e-009
-9.511555e-009
-1.024390e-008
-9.650328e-009
-7.841894e-009
-5.346461e-009
-2.628682e-009
2.455829e-010
3.385565e-009
6.505074e-009
8.681890e-009
8.859169e-009
6.716779e-009
3.063415e-009
-6.996558e-010
-3.566878e-009
-5.406187e-009
-6.481512e-009
-6.609367e-009
-4.998286e-009
-1.145771e-009
4.022972e-009
8.067917e-009
8.460649e-009
4.543985e-009
-1.638006e-009
-6.503443e-009
-7.320709e-009
-4.017721e-009
9.310975e-010
4.357273e-009
4.523933e-009
2.016248e-009
-1.030467e-009
-2.573873e-009
-1.949696e-009
-5.176316e-011
1.494158e-009
-1.249648e-008
-8.072590e-009
-1.554177e-009
3.712002e-009
5.270743e-009
2.965446e-009
-1.047372e-009
-3.758992e-009
-3.335098e-009
-3.192115e-010
2.870092e-009
3.794436e-009
1.804548e-009
-1.570894e-009
-3.897817e-009
-3.690067e-009
-1.362080e-009
1.362417e-009
2.918784e-009
2.948764e-009
2.164797e-009
1.391239e-009
7.937843e-010
-3.875579e-011
-1.400819e-009
-2.957972e-009
-3.932757e-009
-3.760805e-009
-2.548079e-009
-9.155096e-010
5.550131e-010
1.711122e-009
2.732447e-009
3.740258e-009
4.563763e-009
4.883220e-009
4.550457e-009
3.728808e-009
2.726785e-009
1.732787e-009
7.306841e-010
-3.555050e-010
-1.489391e-009
-2.519689e-009
-3.323804e-009
-3.910207e-009
-4.364763e-009
-4.724393e-009
-4.938561e-009
-4.953413e-009
-4.794824e-009
-4.535711e-009
-4.192004e-009
-3.691911e-009
-2.971274e-009
-2.078264e-009
-1.144918e-009
-2.475800e-010
6.676224e-010
1.680070e-009
2.718960e-009
3.538085e-009
3.906063e-009
3.815298e-009
3.462406e-009
3.002681e-009
2.358845e-009
1.332429e-009
-7.332524e-011
-1.483772e-009
-2.374180e-009
-2.497293e-009
-2.075569e-009
-1.537974e-009
-1.070662e-009
-4.752503e-010
4.872971e-010
1.632568e-009
2.314537e-009
1.945949e-009
6.064756e-010
-8.878440e-010
-1.591230e-009
-1.185600e-009
-1.962294e-010
5.203865e-010
5.205023e-010
6.456073e-011
-2.576016e-010
-1.399143e-010
1.970891e-010
3.200195e-010
7.366570e-011
-2.693197e-010
-3.264429e-010
-2.687127e-011
3.134613e-010
3.308208e-010
-4.044183e-013
-3.407255e-010
6.749496e-008
4.469219e-008
1.074941e-008
-1.787566e-008
-2.921812e-008
-2.171817e-008
-3.529886e-009
1.352026e-008
2.090370e-008
1.702237e-008
6.149573e-009
-5.456670e-009
-1.315529e-008
-1.528224e-008
-1.244750e-008
-6.230834e-009
1.545984e-009
8.910316e-009
1.384910e-008
1.485926e-008
1.164867e-008
5.356010e-009
-1.986403e-009
-8.385841e-009
-1.258262e-008
-1.416403e-008
-1.326852e-008
-1.028157e-008
-5.743306e-009
-3.742792e-010
4.982038e-009
9.550806e-009
1.281760e-008
1.457850e-008
1.485309e-008
1.377980e-008
1.157944e-008
8.559750e-009
5.085558e-009
1.499187e-009
-1.949307e-009
-5.108054e-009
-7.882499e-009
-1.020676e-008
-1.205210e-008
-1.344059e-008
-1.442773e-008
-1.506470e-008
-1.537986e-008
-1.539178e-008
-1.512265e-008
-1.458461e-008
-1.375616e-008
-1.258797e-008
-1.104104e-008
-9.115025e-009
-6.834633e-009
-4.221128e-009
-1.303211e-009
1.825918e-009
4.965862e-009
7.837403e-009
1.016018e-008
1.170191e-008
1.226487e-008
1.166826e-008
9.804682e-009
6.757382e-009
2.869334e-009
-1.317664e-009
-5.205266e-009
-8.237563e-009
-9.913110e-009
-9.810709e-009
-7.744036e-009
-3.993207e-009
6.052805e-010
4.875025e-009
7.728667e-009
8.519667e-009
7.122912e-009
3.841808e-009
-6.153172e-010
-5.048062e-009
-7.856622e-009
-7.627088e-009
-4.069730e-009
1.376232e-009
5.985940e-009
7.252514e-009
4.534261e-009
-3.920076e-010
-4.422950e-009
-5.189149e-009
-2.619437e-009
1.133053e-009
3.334084e-009
2.648622e-009
2.456839e-012
-2.264693e-009
9.208857e-008
6.021871e-008
1.322349e-008
-2.542576e-008
-3.910643e-008
-2.663189e-008
-9.188293e-010
2.050929e-008
2.634948e-008
1.675187e-008
5.992349e-010
-1.192737e-008
-1.569859e-008
-1.201616e-008
-5.454246e-009
2.899376e-010
4.222787e-009
6.984623e-009
8.838130e-009
8.933401e-009
6.314736e-009
1.320934e-009
-4.180351e-009
-7.968711e-009
-8.928516e-009
-7.519159e-009
-5.030635e-009
-2.479457e-009
-1.276938e-010
2.164783e-009
4.340110e-009
5.960268e-009
6.546805e-009
6.005711e-009
4.694504e-009
3.115252e-009
1.576834e-009
1.267624e-010
-1.268614e-009
-2.545635e-009
-3.549512e-009
-4.175657e-009
-4.466095e-009
-4.561951e-009
-4.580306e-009
-4.549447e-009
-4.452095e-009
-4.304931e-009
-4.176852e-009
-4.131219e-009
-4.166350e-009
-4.225762e-009
-4.264086e-009
-4.286822e-009
-4.311856e-009
-4.296955e-009
-4.127810e-009
-3.697751e-009
-2.997138e-009
-2.104115e-009
-1.078333e-009
1.111380e-010
1.508919e-009
3.006269e-009
4.282859e-009
4.973151e-009
4.922065e-009
4.257696e-009
3.183303e-009
1.721317e-009
-2.544262e-010
-2.662880e-009
-4.916958e-009
-6.104192e-009
-5.607884e-009
-3.615047e-009
-9.822997e-010
1.445757e-009
3.375224e-009
4.885107e-009
5.751467e-009
5.140319e-009
2.264109e-009
-2.446002e-009
-6.873507e-009
-8.271241e-009
-5.284125e-009
6.935954e-010
6.139254e-009
7.740915e-009
4.718286e-009
-6.729326e-010
-4.823615e-009
-5.314140e-009
-2.420275e-009
1.393317e-009
3.417645e-009
2.569285e-009
-7.242797e-011
-2.256489e-009
4.094556e-008
2.578064e-008
3.952074e-009
-1.279307e-008
-1.663853e-008
-8.205132e-009
4.501139e-009
1.189647e-008
9.327371e-009
-2.387983e-010
-9.055884e-009
-1.061341e-008
-4.223559e-009
5.077619e-009
1.078205e-008
9.666751e-009
3.437578e-009
-3.462246e-009
-7.498418e-009
-8.050887e-009
-6.630377e-009
-4.713125e-009
-2.455172e-009
7.642236e-010
4.943578e-009
8.838289e-009
1.073566e-008
9.776898e-009
6.531214e-009
2.384458e-009
-1.542788e-009
-4.928051e-009
-7.912634e-009
-1.045498e-008
-1.210413e-008
-1.235705e-008
-1.113711e-008
-8.876386e-009
-6.161302e-009
-3.341854e-009
-4.706823e-010
2.457776e-009
5.292617e-009
7.767818e-009
9.710933e-009
1.115780e-008
1.225122e-008
1.305871e-008
1.351981e-008
1.356066e-008
1.321300e-008
1.258243e-008
1.170756e-008
1.049517e-008
8.828151e-009
6.726506e-009
4.361945e-009
1.897344e-009
-6.507736e-010
-3.330360e-009
-6.016512e-009
-8.305529e-009
-9.720489e-009
-1.005262e-008
-9.465359e-009
-8.222748e-009
-6.347970e-009
-3.652018e-009
-1.777624e-010
3.421051e-009
6.080144e-009
7.035409e-009
6.371832e-009
4.824049e-009
3.011694e-009
9.408314e-010
-1.637407e-009
-4.379998e-009
-6.045527e-009
-5.311484e-009
-2.099905e-009
1.917496e-009
4.343255e-009
3.866748e-009
1.275625e-009
-1.267035e-009
-2.033815e-009
-1.010128e-009
4.195804e-010
9.153624e-010
3.200424e-010
-4.823080e-010
-6.353319e-010
-1.303923e-010
3.717743e-010
3.595591e-010
-2.124476e-011
-2.531370e-010
-9.522850e-011
1.786049e-010
-4.425164e-008
-2.985762e-008
-8.294616e-009
1.039393e-008
1.898081e-008
1.619184e-008
5.934879e-009
-5.852425e-009
-1.412882e-008
-1.606177e-008
-1.115773e-008
-1.187674e-009
9.999518e-009
1.752619e-008
1.767499e-008
1.011160e-008
-1.630084e-009
-1.211208e-008
-1.714358e-008
-1.583908e-008
-1.025308e-008
-3.296871e-009
3.126486e-009
8.428781e-009
1.240196e-008
1.440469e-008
1.358544e-008
9.783135e-009
4.026510e-009
-1.961638e-009
-6.795102e-009
-1.003732e-008
-1.194765e-008
-1.279056e-008
-1.246893e-008
-1.077133e-008
-7.836757e-009
-4.268450e-009
-7.758539e-010
2.259400e-009
4.862125e-009
7.177416e-009
9.184608e-009
1.071079e-008
1.166621e-008
1.218622e-008
1.251277e-008
1.277138e-008
1.290902e-008
1.284423e-008
1.262005e-008
1.235999e-008
1.208584e-008
1.163901e-008
1.082251e-008
9.598259e-009
8.088750e-009
6.368603e-009
4.311899e-009
1.726829e-009
-1.333949e-009
-4.448851e-009
-7.075990e-009
-8.927920e-009
-1.004380e-008
-1.046131e-008
-9.888229e-009
-7.840136e-009
-4.202991e-009
3.598340e-010
4.659143e-009
7.713636e-009
9.241822e-009
9.426617e-009
8.284720e-009
5.462845e-009
8.358235e-010
-4.678047e-009
-9.081118e-009
-1.036481e-008
-7.885135e-009
-2.851297e-009
2.486125e-009
6.189308e-009
7.406405e-009
6.199609e-009
3.053073e-009
-1.196517e-009
-5.088630e-009
-6.729107e-009
-4.887511e-009
-2.799612e-010
4.345546e-009
5.908202e-009
3.370370e-009
-1.251180e-009
-4.345221e-009
-3.604982e-009
6.638518e-011
3.343911e-009
-9.547430e-008
-6.146283e-008
-1.223237e-008
2.672431e-008
3.881044e-008
2.481883e-008
-4.851297e-010
-1.977336e-008
-2.376989e-008
-1.440265e-008
-3.041876e-010
1.028635e-008
1.383005e-008
1.128313e-008
5.455488e-009
-1.101074e-009
-6.534494e-009
-9.381563e-009
-8.729345e-009
-4.879180e-009
4.393069e-010
4.904804e-009
6.944327e-009
6.453938e-009
4.387534e-009
1.778573e-009
-8.407531e-010
-3.256759e-009
-5.109961e-009
-5.820449e-009
-5.005780e-009
-2.885103e-009
-1.857578e-010
2.365624e-009
4.448486e-009
6.089657e-009
7.306484e-009
7.904356e-009
7.641421e-009
6.527113e-009
4.885647e-009
3.112202e-009
1.402444e-009
-2.605778e-010
-1.896828e-009
-3.377455e-009
-4.505935e-009
-5.205717e-009
-5.566033e-009
-5.691205e-009
-5.551957e-009
-5.030306e-009
-4.096542e-009
-2.883060e-009
-1.551439e-009
-1.238070e-010
1.487042e-009
3.260144e-009
4.929263e-009
6.125194e-009
6.660439e-009
6.624290e-009
6.167561e-009
5.242950e-009
3.652627e-009
1.397816e-009
-1.069998e-009
-3.037933e-009
-4.015826e-009
-4.013706e-009
-3.328087e-009
-2.121802e-009
-3.343219e-010
1.936399e-009
4.048487e-009
4.988178e-009
4.074958e-009
1.550600e-009
-1.532725e-009
-3.998550e-009
-5.121879e-009
-4.646761e-009
-2.534429e-009
9.528250e-010
4.781910e-009
7.035244e-009
5.859868e-009
1.100022e-009
-4.848215e-009
-8.181822e-009
-6.393952e-009
-4.532881e-010
5.557386e-009
7.379888e-009
3.872264e-009
-2.059213e-009
-5.753378e-009
-4.506497e-009
3.180857e-010
4.504173e-009
-7.365099e-008
-4.480759e-008
-4.525398e-009
2.426635e-008
2.823790e-008
1.128697e-008
-1.017987e-008
-1.996565e-008
-1.302916e-008
2.888113e-009
1.487015e-008
1.484234e-008
4.389972e-009
-8.157272e-009
-1.473419e-008
-1.271016e-008
-5.001418e-009
3.505460e-009
9.469231e-009
1.204165e-008
1.165358e-008
8.695678e-009
3.433359e-009
-3.266316e-009
-9.649286e-009
-1.377768e-008
-1.458139e-008
-1.227850e-008
-7.902313e-009
-2.531185e-009
3.074704e-009
8.325888e-009
1.258410e-008
1.524308e-008
1.601441e-008
1.505854e-008
1.280602e-008
9.676136e-009
5.974141e-009
1.989714e-009
-1.919283e-009
-5.409731e-009
-8.307512e-009
-1.063687e-008
-1.248929e-008
-1.389430e-008
-1.483489e-008
-1.535133e-008
-1.556716e-008
-1.558762e-008
-1.540161e-008
-1.491790e-008
-1.408655e-008
-1.293967e-008
-1.149503e-008
-9.660510e-009
-7.293400e-009
-4.370609e-009
-1.068988e-009
2.343999e-009
5.665919e-009
8.751636e-009
1.134897e-008
1.301670e-008
1.329716e-008
1.200574e-008
9.333191e-009
5.667692e-009
1.387081e-009
-3.098063e-009
-7.126563e-009
-9.775087e-009
-1.025862e-008
-8.445335e-009
-4.967707e-009
-8.039461e-010
3.209267e-009
6.417719e-009
8.043717e-009
7.195800e-009
3.585770e-009
-1.605039e-009
-5.821122e-009
-6.625026e-009
-3.594205e-009
1.087111e-009
4.124732e-009
3.621547e-009
4.911535e-010
-2.442332e-009
-2.851082e-009
-7.241303e-010
1.873529e-009
2.713689e-009
1.237571e-009
-1.172482e-009
-2.501594e-009
-1.754747e-009
3.604353e-010
2.107784e-009
2.543484e-009
5.208628e-009
7.168207e-009
4.675842e-009
-2.698797e-009
-1.073023e-008
-1.307938e-008
-6.246305e-009
6.847463e-009
1.791850e-008
1.886750e-008
7.856936e-009
-8.885805e-009
-2.118326e-008
-2.187806e-008
-1.135494e-008
3.543377e-009
1.478705e-008
1.818813e-008
1.467684e-008
7.885931e-009
9.202947e-010
-4.989506e-009
-9.647799e-009
-1.257840e-008
-1.284059e-008
-9.959568e-009
-4.722385e-009
1.107139e-009
5.864375e-009
8.811194e-009
1.008248e-008
1.006285e-008
8.939634e-009
6.781727e-009
3.853887e-009
7.031939e-010
-2.083273e-009
-4.164051e-009
-5.495650e-009
-6.175762e-009
-6.297086e-009
-5.938499e-009
-5.223066e-009
-4.323718e-009
-3.407229e-009
-2.592721e-009
-1.960447e-009
-1.570010e-009
-1.451895e-009
-1.596935e-009
-1.976800e-009
-2.570117e-009
-3.344235e-009
-4.205925e-009
-4.995518e-009
-5.552181e-009
-5.773343e-009
-5.585540e-009
-4.871754e-009
-3.491757e-009
-1.431337e-009
1.074943e-009
3.619412e-009
5.839122e-009
7.519613e-009
8.452598e-009
8.261469e-009
6.531859e-009
3.249427e-009
-8.986339e-010
-4.776831e-009
-7.453986e-009
-8.608376e-009
-8.276891e-009
-6.331027e-009
-2.483417e-009
2.942992e-009
8.291116e-009
1.098740e-008
9.196629e-009
3.429616e-009
-3.438152e-009
-7.968425e-009
-8.356183e-009
-5.258755e-009
-8.208532e-010
2.942867e-009
4.980236e-009
4.986678e-009
3.028766e-009
-2.728982e-010
-3.413225e-009
-4.495946e-009
-2.650704e-009
8.864024e-010
3.413200e-009
2.941862e-009
1.635554e-011
-2.669307e-009
7.532652e-008
4.925828e-008
1.143944e-008
-1.896437e-008
-2.969262e-008
-2.114075e-008
-3.289999e-009
1.221407e-008
1.847346e-008
1.488786e-008
5.047745e-009
-5.981590e-009
-1.341732e-008
-1.403408e-008
-7.543774e-009
2.721308e-009
1.116231e-008
1.316058e-008
8.033008e-009
-6.990233e-010
-7.982516e-009
-1.061745e-008
-8.702665e-009
-4.441647e-009
8.684786e-011
4.090639e-009
7.544704e-009
1.010670e-008
1.085337e-008
9.047423e-009
4.970987e-009
-1.101810e-010
-4.783780e-009
-8.272352e-009
-1.050071e-008
-1.160543e-008
-1.153422e-008
-1.011854e-008
-7.410616e-009
-3.834985e-009
1.144078e-011
3.678148e-009
6.990417e-009
9.932378e-009
1.247151e-008
1.450903e-008
1.596116e-008
1.684461e-008
1.726597e-008
1.732844e-008
1.704709e-008
1.634981e-008
1.516046e-008
1.348074e-008
1.138302e-008
8.920058e-009
6.067789e-009
2.807094e-009
-7.085446e-010
-4.092968e-009
-6.890211e-009
-8.819416e-009
-9.827539e-009
-9.880448e-009
-8.771058e-009
-6.271431e-009
-2.561231e-009
1.548699e-009
4.962546e-009
6.965934e-009
7.539182e-009
6.985954e-009
5.349076e-009
2.405776e-009
-1.616687e-009
-5.428604e-009
-7.109944e-009
-5.497704e-009
-1.304791e-009
3.184504e-009
5.672497e-009
5.280541e-009
2.693546e-009
-7.626109e-010
-3.916576e-009
-5.742458e-009
-5.161435e-009
-1.633431e-009
3.661865e-009
7.593931e-009
6.943452e-009
1.318392e-009
-5.649076e-009
-8.633404e-009
-5.031336e-009
2.423685e-009
7.606011e-009
6.187443e-009
-4.829830e-010
-6.464007e-009
9.441837e-008
5.617608e-008
3.925794e-009
-3.154520e-008
-3.424696e-008
-1.178487e-008
1.366019e-008
2.321926e-008
1.358385e-008
-4.291374e-009
-1.624487e-008
-1.542144e-008
-4.845049e-009
7.418892e-009
1.466723e-008
1.458699e-008
8.448309e-009
-9.210182e-010
-1.028473e-008
-1.641316e-008
-1.687622e-008
-1.129651e-008
-1.881010e-009
7.670826e-009
1.424223e-008
1.671377e-008
1.573869e-008
1.247173e-008
7.643411e-009
1.690635e-009
-4.599410e-009
-9.921029e-009
-1.304816e-008
-1.356564e-008
-1.197843e-008
-9.148872e-009
-5.682893e-009
-1.819646e-009
2.240448e-009
6.068621e-009
9.127983e-009
1.111746e-008
1.214338e-008
1.255095e-008
1.262002e-008
1.243357e-008
1.199928e-008
1.143118e-008
1.096732e-008
1.080648e-008
1.095134e-008
1.123275e-008
1.148528e-008
1.167160e-008
1.180726e-008
1.177128e-008
1.124518e-008
9.902565e-009
7.678104e-009
4.817746e-009
1.640369e-009
-1.704883e-009
-5.158845e-009
-8.406386e-009
-1.070748e-008
-1.123163e-008
-9.654689e-009
-6.406513e-009
-2.287561e-009
2.109965e-009
6.487501e-009
1.033593e-008
1.254317e-008
1.182725e-008
7.800332e-009
1.633764e-009
-4.444568e-009
-8.433030e-009
-9.464407e-009
-7.699245e-009
-3.747958e-009
1.433024e-009
6.137393e-009
8.038116e-009
5.591186e-009
-1.826768e-010
-5.556457e-009
-6.548128e-009
-2.309524e-009
3.696136e-009
6.313324e-009
3.172047e-009
-3.008989e-009
-6.659691e-009
-4.350129e-009
1.987540e-009
6.687257e-009
5.465567e-009
-6.384688e-010
-6.160278e-009
5.209604e-008
2.529336e-008
-8.449062e-009
-2.533012e-008
-1.619608e-008
7.377583e-009
2.381571e-008
1.940041e-008
-1.605965e-009
-2.197691e-008
-2.616999e-008
-1.198019e-008
9.459101e-009
2.355897e-008
2.287466e-008
1.045945e-008
-4.728725e-009
-1.491351e-008
-1.734704e-008
-1.350860e-008
-6.281420e-009
1.848774e-009
8.891777e-009
1.306280e-008
1.321256e-008
9.603996e-009
3.951404e-009
-1.577820e-009
-5.539061e-009
-7.564659e-009
-7.836916e-009
-6.483915e-009
-3.566706e-009
5.052893e-010
4.795306e-009
8.218468e-009
1.011461e-008
1.044151e-008
9.467083e-009
7.372008e-009
4.189925e-009
6.173444e-011
-4.576777e-009
-9.133727e-009
-1.318056e-008
-1.660319e-008
-1.944374e-008
-2.164232e-008
-2.297856e-008
-2.326045e-008
-2.251791e-008
-2.096169e-008
-1.875442e-008
-1.587339e-008
-1.224661e-008
-8.016608e-009
-3.614877e-009
4.641490e-010
3.938751e-009
6.736324e-009
8.716989e-009
9.498195e-009
8.681179e-009
6.299060e-009
2.981509e-009
-3.985943e-010
-3.235196e-009
-5.294951e-009
-6.352016e-009
-5.908213e-009
-3.510278e-009
5.637594e-010
5.042407e-009
8.258895e-009
9.111265e-009
7.482760e-009
3.879447e-009
-1.020417e-009
-6.204969e-009
-9.882191e-009
-9.843511e-009
-5.052273e-009
2.752965e-009
9.337655e-009
1.062430e-008
5.830990e-009
-1.686412e-009
-6.885265e-009
-6.839223e-009
-2.692089e-009
1.762548e-009
3.399030e-009
2.008135e-009
-2.211320e-010
-1.079933e-009
-2.249057e-010
9.551251e-010
9.980732e-010
-1.912459e-010
-1.394694e-009
-1.813247e-008
-1.777414e-008
-1.379205e-008
-3.788001e-009
9.549893e-009
1.865327e-008
1.646641e-008
2.872439e-009
-1.366720e-008
-2.155447e-008
-1.479661e-008
2.039497e-009
1.701466e-008
1.978973e-008
9.173958e-009
-6.640697e-009
-1.681231e-008
-1.566873e-008
-5.590890e-009
6.268935e-009
1.366012e-008
1.456798e-008
1.058459e-008
4.297523e-009
-2.458341e-009
-8.531811e-009
-1.272357e-008
-1.378449e-008
-1.120059e-008
-5.742966e-009
9.225907e-010
7.176937e-009
1.203408e-008
1.500618e-008
1.570080e-008
1.375233e-008
9.125685e-009
2.328353e-009
-5.797767e-009
-1.450699e-008
-2.336145e-008
-3.207747e-008
-4.028921e-008
-4.755646e-008
-5.359327e-008
-5.840674e-008
-6.215386e-008
-6.487798e-008
-6.643290e-008
-6.666790e-008
-6.562797e-008
-6.351059e-008
-6.042963e-008
-5.628621e-008
-5.092354e-008
-4.439095e-008
-3.699775e-008
-2.909523e-008
-2.087670e-008
-1.247977e-008
-4.288944e-009
2.958524e-009
8.464873e-009
1.178334e-008
1.290577e-008
1.198001e-008
9.093965e-009
4.491518e-009
-1.009956e-009
-6.007532e-009
-9.124207e-009
-9.715680e-009
-7.979102e-009
-4.469780e-009
2.405159e-010
5.257833e-009
8.918946e-009
9.224486e-009
5.329374e-009
-1.162800e-009
-6.661965e-009
-7.904096e-009
-4.331475e-009
1.515602e-009
5.916583e-009
6.508335e-009
3.460143e-009
-1.187655e-009
-4.960511e-009
-6.033689e-009
-3.807857e-009
7.105399e-010
4.975840e-009
6.098564e-009
2.973235e-009
-2.345425e-009
-5.773180e-009
-4.468877e-009
5.200676e-010
4.921126e-009
-7.153244e-008
-4.422793e-008
-6.232635e-009
2.115801e-008
2.622456e-008
1.270074e-008
-5.684957e-009
-1.597948e-008
-1.354013e-008
-2.402148e-009
9.333319e-009
1.464626e-008
1.067233e-008
-4.767125e-010
-1.274360e-008
-1.897009e-008
-1.487876e-008
-2.003069e-009
1.285108e-008
2.177257e-008
2.067390e-008
1.132825e-008
-7.152764e-010
-1.018573e-008
-1.477073e-008
-1.491458e-008
-1.196379e-008
-6.869228e-009
-3.543904e-010
6.334694e-009
1.136972e-008
1.315489e-008
1.112044e-008
5.703348e-009
-2.318851e-009
-1.236512e-008
-2.402213e-008
-3.674073e-008
-4.977854e-008
-6.248129e-008
-7.453658e-008
-8.589652e-008
-9.649564e-008
-1.061122e-007
-1.144909e-007
-1.215052e-007
-1.271226e-007
-1.312339e-007
-1.336009e-007
-1.340178e-007
-1.324905e-007
-1.292058e-007
-1.243331e-007
-1.179190e-007
-1.100072e-007
-1.008076e-007
-9.066128e-008
-7.981930e-008
-6.832929e-008
-5.621254e-008
-4.374018e-008
-3.146325e-008
-1.995554e-008
-9.614410e-009
-8.002972e-010
5.888562e-009
9.683362e-009
1.016346e-008
7.724802e-009
3.447499e-009
-1.511589e-009
-6.282407e-009
-9.996894e-009
-1.138792e-008
-9.168399e-009
-3.236528e-009
4.445438e-009
1.050346e-008
1.214608e-008
8.906847e-009
2.715771e-009
-3.521316e-009
-7.425941e-009
-7.756890e-009
-4.474927e-009
1.016956e-009
5.786132e-009
6.573003e-009
2.324792e-009
-4.056070e-009
-7.238910e-009
-3.949179e-009
3.466480e-009
8.400406e-009
5.867392e-009
-2.406174e-009
-9.008616e-009
-7.618231e-009
7.988952e-010
8.601517e-009
-8.264414e-008
-4.249233e-008
8.588632e-009
3.592511e-008
2.630425e-008
-4.396490e-009
-2.737308e-008
-2.501276e-008
-2.494978e-009
2.030405e-008
2.658296e-008
1.429241e-008
-5.694319e-009
-1.998672e-008
-2.167253e-008
-1.226954e-008
1.821333e-009
1.374871e-008
1.883050e-008
1.557120e-008
5.924725e-009
-5.403102e-009
-1.309363e-008
-1.400311e-008
-8.682943e-009
-4.603507e-010
7.023030e-009
1.169298e-008
1.308601e-008
1.119769e-008
5.688309e-009
-3.827085e-009
-1.706063e-008
-3.293519e-008
-5.025044e-008
-6.839347e-008
-8.739890e-008
-1.074559e-007
-1.284948e-007
-1.502233e-007
-1.723803e-007
-1.947861e-007
-2.171259e-007
-2.387647e-007
-2.588289e-007
-2.764398e-007
-2.908459e-007
-3.013967e-007
-3.075228e-007
-3.088408e-007
-3.052762e-007
-2.970511e-007
-2.845620e-007
-2.683239e-007
-2.490345e-007
-2.276006e-007
-2.049765e-007
-1.819231e-007
-1.589414e-007
-1.364324e-007
-1.148280e-007
-9.446880e-008
-7.538300e-008
-5.735070e-008
-4.032960e-008
-2.481007e-008
-1.164052e-008
-1.463067e-009
5.590997e-009
9.593239e-009
1.037599e-008
7.735082e-009
2.299238e-009
-3.908435e-009
-8.135015e-009
-8.471801e-009
-4.973619e-009
6.205968e-010
6.066819e-009
9.462960e-009
9.380444e-009
5.122250e-009
-2.275303e-009
-9.308803e-009
-1.135834e-008
-6.189435e-009
3.242325e-009
1.008542e-008
8.973667e-009
1.008095e-009
-6.738968e-009
-7.467003e-009
-1.029569e-009
5.882818e-009
6.281083e-009
-1.686373e-010
-6.796930e-009
-6.683847e-009
2.708492e-010
7.192072e-009
-5.449383e-008
-2.088904e-008
1.843593e-008
3.237535e-008
1.331203e-008
-1.799268e-008
-3.245784e-008
-1.830408e-008
1.059835e-008
2.916780e-008
2.336091e-008
3.490939e-010
-2.017011e-008
-2.333034e-008
-9.514687e-009
8.996112e-009
1.937177e-008
1.694025e-008
5.698299e-009
-6.895553e-009
-1.502058e-008
-1.626146e-008
-1.092018e-008
-1.077611e-009
9.885617e-009
1.806378e-008
2.046019e-008
1.617328e-008
6.235831e-009
-7.753367e-009
-2.490864e-008
-4.522280e-008
-6.888309e-008
-9.578130e-008
-1.257617e-007
-1.591390e-007
-1.967226e-007
-2.392271e-007
-2.866554e-007
-3.381960e-007
-3.925567e-007
-4.482623e-007
-5.036573e-007
-5.568015e-007
-6.055501e-007
-6.478326e-007
-6.819056e-007
-7.064322e-007
-7.204609e-007
-7.234287e-007
-7.151939e-007
-6.960361e-007
-6.666360e-007
-6.281005e-007
-5.819973e-007
-5.302703e-007
-4.749998e-007
-4.181816e-007
-3.616968e-007
-3.073761e-007
-2.568763e-007
-2.113026e-007
-1.709223e-007
-1.353491e-007
-1.040894e-007
-7.689419e-008
-5.358148e-008
-3.369624e-008
-1.665496e-008
-2.412422e-009
8.132175e-009
1.370021e-008
1.383709e-008
9.611112e-009
3.150701e-009
-3.364496e-009
-8.170031e-009
-9.728502e-009
-6.918209e-009
-2.233549e-010
7.206118e-009
1.060533e-008
7.012807e-009
-1.615406e-009
-9.018581e-009
-9.380161e-009
-2.390887e-009
6.177293e-009
9.344218e-009
4.977980e-009
-2.568375e-009
-6.714806e-009
-4.651272e-009
6.133416e-010
3.779495e-009
2.510324e-009
-8.316851e-010
-2.298054e-009
-6.649843e-010
1.631664e-009
-7.030970e-009
4.581362e-009
1.503427e-008
1.192891e-008
-3.726094e-009
-1.779612e-008
-1.656344e-008
-2.922542e-010
1.648376e-008
1.832194e-008
3.176401e-009
-1.569400e-008
-2.164384e-008
-9.153506e-009
1.193601e-008
2.531596e-008
2.151559e-008
4.244589e-009
-1.419273e-008
-2.285426e-008
-1.883949e-008
-6.721460e-009
6.533840e-009
1.590355e-008
1.925450e-008
1.609447e-008
6.520042e-009
-8.841742e-009
-2.882215e-008
-5.244495e-008
-7.993631e-008
-1.129642e-007
-1.538566e-007
-2.046006e-007
-2.664622e-007
-3.401861e-007
-4.261033e-007
-5.237713e-007
-6.314987e-007
-7.463201e-007
-8.645050e-007
-9.821630e-007
-1.095538e-006
-1.201024e-006
-1.295193e-006
-1.375002e-006
-1.438025e-006
-1.482547e-006
-1.507484e-006
-1.512263e-006
-1.496741e-006
-1.461207e-006
-1.406468e-006
-1.333973e-006
-1.245868e-006
-1.144887e-006
-1.034153e-006
-9.170835e-007
-7.974472e-007
-6.793417e-007
-5.668064e-007
-4.631742e-007
-3.706306e-007
-2.902985e-007
-2.225888e-007
-1.672754e-007
-1.232070e-007
-8.822551e-008
-5.982235e-008
-3.621976e-008
-1.692403e-008
-2.259945e-009
7.498411e-009
1.241920e-008
1.257043e-008
8.036780e-009
-7.311621e-011
-8.588672e-009
-1.298934e-008
-1.023054e-008
-1.544873e-009
7.676138e-009
1.151488e-008
7.924523e-009
1.573435e-010
-5.979083e-009
-6.613457e-009
-2.341591e-009
2.890131e-009
5.121298e-009
3.124333e-009
-1.192908e-009
-4.496135e-009
-4.395766e-009
-9.968679e-010
3.218677e-009
5.121060e-009
3.219824e-009
-1.123959e-009
-4.633707e-009
3.907919e-008
2.308781e-008
6.721348e-010
-1.526312e-008
-1.666572e-008
-5.079295e-009
9.900426e-009
1.715231e-008
1.129482e-008
-3.812661e-009
-1.757046e-008
-1.977792e-008
-7.909757e-009
1.059060e-008
2.313187e-008
2.089053e-008
5.304341e-009
-1.293018e-008
-2.166767e-008
-1.582896e-008
-1.768493e-010
1.509439e-008
2.162648e-008
1.716852e-008
4.502411e-009
-1.262545e-008
-3.261075e-008
-5.634434e-008
-8.600236e-008
-1.242693e-007
-1.745208e-007
-2.409751e-007
-3.279360e-007
-4.384739e-007
-5.735564e-007
-7.320761e-007
-9.113039e-007
-1.107132e-006
-1.314080e-006
-1.525539e-006
-1.734477e-006
-1.934322e-006
-2.119502e-006
-2.285518e-006
-2.428805e-006
-2.546665e-006
-2.637282e-006
-2.699672e-006
-2.733461e-006
-2.738584e-006
-2.715063e-006
-2.662991e-006
-2.582711e-006
-2.475074e-006
-2.341605e-006
-2.184529e-006
-2.006798e-006
-1.812297e-006
-1.606116e-006
-1.394540e-006
-1.184494e-006
-9.827067e-007
-7.950904e-007
-6.265453e-007
-4.808049e-007
-3.599320e-007
-2.636966e-007
-1.895662e-007
-1.336391e-007
-9.189447e-008
-6.082274e-008
-3.731749e-008
-1.868850e-008
-3.430743e-009
7.931107e-009
1.334322e-008
1.141225e-008
3.671302e-009
-5.276201e-009
-1.022115e-008
-8.543456e-009
-1.657512e-009
6.149246e-009
1.034873e-008
8.589043e-009
1.912118e-009
-5.610841e-009
-9.023877e-009
-5.829503e-009
1.614519e-009
7.249091e-009
6.148796e-009
-7.616124e-010
-6.959332e-009
-6.222509e-009
1.097829e-009
7.945298e-009
7.326528e-009
-5.496258e-010
-8.191500e-009
6.998034e-008
3.201621e-008
-1.449365e-008
-3.577943e-008
-2.122580e-008
1.051992e-008
3.020984e-008
2.298142e-008
-1.985011e-009
-2.271927e-008
-2.386990e-008
-7.277274e-009
1.258712e-008
2.137425e-008
1.459711e-008
-1.406452e-009
-1.536348e-008
-1.842690e-008