# vtk DataFile Version 3.0
vtk output
ASCII
DATASET STRUCTURED_POINTS
DIMENSIONS 100 100 1
SPACING 1 1 1
ORIGIN 0 0 0
POINT_DATA 10000
SCALARS SFBox_profile double
LOOKUP_TABLE default 
0.000000e+000
0.000000e+000
0.000000e+000
0.000000e+000
0.000000e+000
0.000000e+000
0.000000e+000
0.000000e+000
0.000000e+000
0.000000e+000
0.000000e+000
0.000000e+000
0.000000e+000
0.000000e+000
0.000000e+000
0.000000e+000
0.000000e+000
0.000000e+000
0.000000e+000
0.000000e+000
0.000000e+000
0.000000e+000
0.000000e+000
0.000000e+000
0.000000e+000
0.000000e+000
0.000000e+000
0.000000e+000
0.000000e+000
0.000000e+000
0.000000e+000
0.000000e+000
0.000000e+000
0.000000e+000
0.000000e+000
0.000000e+000
0.000000e+000
0.000000e+000
0.000000e+000
0.000000e+000
0.000000e+000
0.000000e+000
0.000000e+000
0.000000e+000
0.000000e+000
0.000000e+000
0.000000e+000
0.000000e+000
0.000000e+000
0.000000e+000
0.000000e+000
0.000000e+000
0.000000e+000
0.000000e+000
0.000000e+000
0.000000e+000
0.000000e+000
0.000000e+000
0.000000e+000
0.000000e+000
0.000000e+000
0.000000e+000
0.000000e+000
0.000000e+000
0.000000e+000
0.000000e+000
0.000000e+000
0.000000e+000
0.000000e+000
0.000000e+000
0.000000e+000
0.000000e+000
0.000000e+000
0.000000e+000
0.000000e+000
0.000000e+000
0.000000e+000
0.000000e+000
0.000000e+000
0.000000e+000
0.000000e+000
0.000000e+000
0.000000e+000
0.000000e+000
0.000000e+000
0.000000e+000
0.000000e+000
0.000000e+000
0.000000e+000
0.000000e+000
0.000000e+000
0.000000e+000
0.000000e+000
0.000000e+000
0.000000e+000
0.000000e+000
0.000000e+000
0.000000e+000
0.000000e+000
0.000000e+000
7.569855e-009
2.722755e-009
-3.478600e-009
-6.955159e-009
-5.805752e-009
-1.322819e-009
3.282710e-009
5.292379e-009
4.162857e-009
1.375546e-009
-1.114212e-009
-2.366076e-009
-2.703658e-009
-2.793701e-009
-2.665904e-009
-1.690618e-009
5.301898e-010
3.359260e-009
5.322276e-009
5.206264e-009
3.041918e-009
5.255697e-011
-2.353270e-009
-3.585902e-009
-4.003230e-009
-4.202612e-009
-4.294063e-009
-3.867358e-009
-2.571406e-009
-6.119461e-010
1.357567e-009
2.789283e-009
3.636439e-009
4.222244e-009
4.796428e-009
5.277860e-009
5.411232e-009
5.098838e-009
4.522546e-009
3.953928e-009
3.499900e-009
3.063606e-009
2.525932e-009
1.912529e-009
1.363176e-009
9.685999e-010
6.824725e-010
4.041729e-010
1.160243e-010
-9.716805e-011
-1.633538e-010
-1.210778e-010
-7.112766e-011
-3.943854e-011
7.189132e-011
3.699205e-010
8.246554e-010
1.281036e-009
1.636842e-009
1.978072e-009
2.485948e-009
3.195213e-009
3.888066e-009
4.282885e-009
4.330729e-009
4.267515e-009
4.319149e-009
4.371819e-009
4.012173e-009
2.953710e-009
1.402984e-009
-7.051026e-011
-1.068277e-009
-1.727272e-009
-2.478909e-009
-3.426163e-009
-4.032680e-009
-3.541572e-009
-1.764511e-009
5.686228e-010
2.313507e-009
2.819074e-009
2.360253e-009
1.689666e-009
1.201156e-009
5.915032e-010
-6.204319e-010
-2.271151e-009
-3.344749e-009
-2.726835e-009
-3.050768e-010
2.619330e-009
4.105773e-009
3.005806e-009
-8.023169e-011
-3.118953e-009
-4.044435e-009
-2.222765e-009
1.086649e-009
3.602281e-009
1.563883e-009
4.225882e-010
-9.427822e-010
-1.499678e-009
-8.783001e-010
3.710248e-010
1.229571e-009
1.022281e-009
-4.812834e-011
-1.077764e-009
-1.210262e-009
-3.374402e-010
8.364296e-010
1.408815e-009
1.021793e-009
8.510800e-011
-6.760333e-010
-8.808536e-010
-7.339714e-010
-6.690287e-010
-8.144168e-010
-8.479202e-010
-3.722196e-010
6.069420e-010
1.611443e-009
2.099382e-009
1.925416e-009
1.396585e-009
9.080031e-010
5.660679e-010
1.744869e-010
-4.572403e-010
-1.252172e-009
-1.926011e-009
-2.270258e-009
-2.333721e-009
-2.323789e-009
-2.368076e-009
-2.406374e-009
-2.305849e-009
-2.038718e-009
-1.716947e-009
-1.465371e-009
-1.297411e-009
-1.132955e-009
-9.182218e-010
-6.946655e-010
-5.412955e-010
-4.740957e-010
-4.321041e-010
-3.641443e-010
-3.016210e-010
-3.209075e-010
-4.406944e-010
-5.877980e-010
-6.843456e-010
-7.530775e-010
-9.013435e-010
-1.186520e-009
-1.521723e-009
-1.751261e-009
-1.824940e-009
-1.863082e-009
-2.012746e-009
-2.245310e-009
-2.341191e-009
-2.109909e-009
-1.610932e-009
-1.109983e-009
-7.934505e-010
-5.563069e-010
-1.250105e-010
5.937887e-010
1.326053e-009
1.643377e-009
1.378265e-009
8.002273e-010
3.494443e-010
2.010003e-010
1.259620e-010
-1.974073e-010
-7.579054e-010
-1.142684e-009
-9.270838e-010
-1.368289e-010
6.965774e-010
9.683620e-010
5.216676e-010
-2.258130e-010
-6.545048e-010
-4.637276e-010
1.154596e-010
5.633953e-010
5.187699e-010
4.420639e-011
-4.703841e-010
-6.357070e-010
-3.436918e-010
1.864102e-010
5.850957e-010
-5.582752e-009
-2.179467e-009
2.272218e-009
5.001678e-009
4.622608e-009
1.777238e-009
-1.632755e-009
-3.831500e-009
-4.095018e-009
-2.740935e-009
-5.360252e-010
1.800370e-009
3.673491e-009
4.501153e-009
3.805740e-009
1.564580e-009
-1.537417e-009
-4.314024e-009
-5.687908e-009
-5.252959e-009
-3.371038e-009
-8.031437e-010
1.753978e-009
3.873898e-009
5.323211e-009
5.934167e-009
5.613483e-009
4.441573e-009
2.693382e-009
7.171629e-010
-1.218415e-009
-2.970300e-009
-4.454862e-009
-5.583250e-009
-6.280974e-009
-6.551007e-009
-6.484445e-009
-6.194593e-009
-5.747631e-009
-5.163151e-009
-4.468863e-009
-3.732044e-009
-3.028780e-009
-2.394253e-009
-1.818009e-009
-1.286794e-009
-8.178226e-010
-4.425712e-010
-1.683573e-010
2.746114e-011
1.621565e-010
2.195495e-010
1.686890e-010
5.433733e-012
-2.401658e-010
-5.440576e-010
-9.236952e-010
-1.417198e-009
-2.026080e-009
-2.693303e-009
-3.348697e-009
-3.967283e-009
-4.563893e-009
-5.125060e-009
-5.562766e-009
-5.754382e-009
-5.627281e-009
-5.187463e-009
-4.460613e-009
-3.429898e-009
-2.067092e-009
-4.360023e-010
1.256724e-009
2.739142e-009
3.802749e-009
4.340414e-009
4.269617e-009
3.480665e-009
1.941747e-009
-1.072061e-010
-2.103123e-009
-3.388865e-009
-3.578228e-009
-2.747809e-009
-1.302268e-009
3.172810e-010
1.778001e-009
2.762899e-009
2.873744e-009
1.807798e-009
-2.405843e-010
-2.368369e-009
-3.327605e-009
-2.363629e-009
9.241846e-011
2.524485e-009
3.299334e-009
1.846002e-009
-8.607831e-010
-2.940648e-009
-8.213712e-009
-2.861502e-009
3.874380e-009
7.460677e-009
5.971814e-009
1.084903e-009
-3.592294e-009
-5.301722e-009
-3.815014e-009
-9.510761e-010
1.279738e-009
2.154101e-009
2.223568e-009
2.198165e-009
2.038520e-009
1.141786e-009
-7.211659e-010
-2.817695e-009
-3.892614e-009
-3.219440e-009
-1.228483e-009
8.757383e-010
2.096791e-009
2.296602e-009
2.004833e-009
1.729370e-009
1.507430e-009
1.059226e-009
2.464094e-010
-7.042114e-010
-1.406775e-009
-1.669927e-009
-1.615055e-009
-1.485696e-009
-1.398749e-009
-1.291825e-009
-1.066235e-009
-7.283780e-010
-3.830902e-010
-1.214540e-010
5.538707e-011
2.066017e-010
3.724502e-010
5.379981e-010
6.646733e-010
7.394495e-010
7.865734e-010
8.378729e-010
8.998837e-010
9.518137e-010
9.727738e-010
9.676069e-010
9.627876e-010
9.747277e-010
9.847624e-010
9.536377e-010
8.660925e-010
7.541065e-010
6.612216e-010
5.798211e-010
4.407800e-010
1.872165e-010
-1.426443e-010
-4.340210e-010
-6.197630e-010
-7.712480e-010
-1.022413e-009
-1.380687e-009
-1.644655e-009
-1.567108e-009
-1.120316e-009
-5.572724e-010
-1.538255e-010
1.071256e-010
5.240693e-010
1.284305e-009
2.099093e-009
2.327375e-009
1.558646e-009
8.788766e-011
-1.250982e-009
-1.788642e-009
-1.568041e-009
-1.166141e-009
-9.756005e-010
-7.343305e-010
1.347390e-010
1.679213e-009
2.989431e-009
2.787381e-009
6.302136e-010
-2.382181e-009
-4.186115e-009
-3.297625e-009
-8.959051e-011
3.302919e-009
4.475341e-009
2.537264e-009
-1.180552e-009
-4.054057e-009
-4.491592e-009
-1.128633e-009
2.801748e-009
4.249981e-009
2.293391e-009
-1.261334e-009
-3.455771e-009
-2.604336e-009
4.139928e-010
3.005305e-009
3.065390e-009
6.483698e-010
-2.256753e-009
-3.509301e-009
-2.509510e-009
-3.748695e-010
1.337163e-009
1.998940e-009
2.111361e-009
2.356460e-009
2.652162e-009
2.217643e-009
5.046889e-010
-2.055137e-009
-4.284378e-009
-5.212521e-009
-4.778302e-009
-3.650519e-009
-2.471237e-009
-1.339298e-009
2.325472e-011
1.739699e-009
3.512648e-009
4.867787e-009
5.577430e-009
5.798592e-009
5.831557e-009
5.809854e-009
5.643546e-009
5.214317e-009
4.561579e-009
3.861696e-009
3.259911e-009
2.759855e-009
2.277346e-009
1.771772e-009
1.300274e-009
9.480566e-010
7.307908e-010
5.853345e-010
4.547506e-010
3.637497e-010
3.929570e-010
5.796269e-010
8.640484e-010
1.154963e-009
1.445454e-009
1.835027e-009
2.409294e-009
3.104827e-009
3.732797e-009
4.164897e-009
4.474079e-009
4.836417e-009
5.269125e-009
5.509537e-009
5.225923e-009
4.369518e-009
3.261889e-009
2.266699e-009
1.384690e-009
2.636491e-010
-1.315187e-009
-2.990735e-009
-3.975072e-009
-3.743433e-009
-2.563704e-009
-1.265325e-009
-4.437973e-010
5.833037e-011
8.104027e-010
1.945840e-009
2.767290e-009
2.335422e-009
5.135091e-010
-1.626946e-009
-2.567861e-009
-1.642757e-009
3.375640e-010
1.744697e-009
1.501556e-009
-5.116178e-011
-1.515219e-009
-1.646763e-009
-3.568644e-010
1.289259e-009
1.978658e-009
1.175114e-009
-5.160981e-010
-1.844167e-009
2.359176e-009
1.409067e-009
-1.500255e-010
-1.790227e-009
-2.875328e-009
-2.776826e-009
-1.165899e-009
1.562757e-009
4.124288e-009
4.864636e-009
2.871080e-009
-1.125787e-009
-4.951208e-009
-6.362309e-009
-4.600198e-009
-8.468064e-010
2.777297e-009
4.760329e-009
4.964998e-009
4.129232e-009
2.841709e-009
1.099630e-009
-1.229561e-009
-3.744342e-009
-5.504825e-009
-5.744509e-009
-4.531373e-009
-2.673143e-009
-9.866340e-010
3.030779e-010
1.478822e-009
2.773763e-009
4.003616e-009
4.750125e-009
4.816481e-009
4.422294e-009
3.957371e-009
3.609005e-009
3.265710e-009
2.746539e-009
2.054052e-009
1.375563e-009
8.740512e-010
5.315570e-010
2.100798e-010
-1.683081e-010
-5.390729e-010
-7.906083e-010
-9.065896e-010
-9.821639e-010
-1.100754e-009
-1.225749e-009
-1.242224e-009
-1.101672e-009
-8.914144e-010
-7.316590e-010
-6.135653e-010
-3.824611e-010
8.731072e-011
7.200137e-010
1.292171e-009
1.682563e-009
2.030296e-009
2.579262e-009
3.349234e-009
4.019508e-009
4.209116e-009
3.871821e-009
3.339526e-009
2.917066e-009
2.473129e-009
1.539303e-009
-1.221949e-010
-2.094806e-009
-3.546704e-009
-3.935661e-009
-3.437117e-009
-2.629732e-009
-1.800908e-009
-6.815278e-010
1.053254e-009
3.071396e-009
4.319925e-009
3.815322e-009
1.569251e-009
-1.264829e-009
-3.193087e-009
-3.404010e-009
-2.150576e-009
-3.197078e-010
1.251176e-009
2.102563e-009
2.068222e-009
1.162951e-009
-3.118870e-010
-1.661717e-009
-2.058991e-009
-1.144209e-009
5.526883e-010
1.872722e-009
7.012135e-009
2.541007e-009
-3.048300e-009
-6.047375e-009
-5.030961e-009
-1.414379e-009
2.141838e-009
3.806420e-009
3.427343e-009
1.891634e-009
6.738163e-011
-1.588625e-009
-2.721499e-009
-2.841329e-009
-1.662516e-009
3.668167e-010
2.110362e-009
2.530396e-009
1.511680e-009
-9.766696e-011
-1.257921e-009
-1.536406e-009
-1.197177e-009
-6.556243e-010
-6.007420e-012
8.819782e-010
1.932643e-009
2.706011e-009
2.739585e-009
1.994202e-009
8.859941e-010
-1.245849e-010
-9.204930e-010
-1.691291e-009
-2.576508e-009
-3.431769e-009
-3.968415e-009
-4.067482e-009
-3.893920e-009
-3.701658e-009
-3.577176e-009
-3.407800e-009
-3.075549e-009
-2.626020e-009
-2.222486e-009
-1.963543e-009
-1.791662e-009
-1.592092e-009
-1.348972e-009
-1.166381e-009
-1.135088e-009
-1.215775e-009
-1.288087e-009
-1.308363e-009
-1.377257e-009
-1.620337e-009
-2.017681e-009
-2.398837e-009
-2.630660e-009
-2.779130e-009
-3.030827e-009
-3.440691e-009
-3.805738e-009
-3.845243e-009
-3.503086e-009
-3.010921e-009
-2.609351e-009
-2.242559e-009
-1.610111e-009
-5.539139e-010
6.617776e-010
1.532373e-009
1.782048e-009
1.591126e-009
1.320684e-009
1.069573e-009
6.093311e-010
-2.103518e-010
-1.083693e-009
-1.404615e-009
-8.475747e-010
2.571485e-010
1.183010e-009
1.426640e-009
1.028261e-009
3.185489e-010
-4.995656e-010
-1.374614e-009
-2.046307e-009
-1.899840e-009
-4.670667e-010
1.809318e-009
3.465847e-009
3.004181e-009
2.849561e-010
-2.987636e-009
-4.370894e-009
-2.630594e-009
1.109924e-009
4.104822e-009
6.394869e-009
1.436677e-009
-4.145564e-009
-5.863788e-009
-2.764589e-009
2.105089e-009
4.586999e-009
2.938301e-009
-1.021846e-009
-3.841371e-009
-3.437860e-009
-5.126112e-010
2.535214e-009
3.801748e-009
3.093954e-009
1.400066e-009
-3.874937e-010
-2.058315e-009
-3.620270e-009
-4.651761e-009
-4.388999e-009
-2.469812e-009
5.461385e-010
3.488573e-009
5.395102e-009
6.020149e-009
5.648966e-009
4.594067e-009
2.971002e-009
8.846271e-010
-1.350519e-009
-3.296904e-009
-4.685908e-009
-5.553808e-009
-6.074834e-009
-6.316625e-009
-6.206557e-009
-5.709037e-009
-4.958927e-009
-4.177584e-009
-3.482358e-009
-2.824007e-009
-2.114726e-009
-1.376092e-009
-7.279681e-010
-2.479231e-010
1.131885e-010
4.559751e-010
7.990173e-010
1.057549e-009
1.157612e-009
1.135345e-009
1.090071e-009
1.048173e-009
9.147944e-010
5.849752e-010
8.039020e-011
-4.666702e-010
-9.741315e-010
-1.515776e-009
-2.224869e-009
-3.100102e-009
-3.956485e-009
-4.597172e-009
-5.000840e-009
-5.282488e-009
-5.464740e-009
-5.352928e-009
-4.699299e-009
-3.478397e-009
-1.934926e-009
-3.390898e-010
1.233206e-009
2.791047e-009
4.120121e-009
4.720322e-009
4.182954e-009
2.638668e-009
7.379812e-010
-8.715717e-010
-1.997615e-009
-2.763929e-009
-3.083906e-009
-2.490633e-009
-6.991988e-010
1.664234e-009
3.138321e-009
2.543772e-009
1.891701e-010
-2.113643e-009
-2.472624e-009
-5.890078e-010
1.883995e-009
2.724651e-009
1.089959e-009
-1.703777e-009
-3.276809e-009
-2.216541e-009
7.030796e-010
3.146114e-009
1.694701e-009
-7.115930e-010
-2.827013e-009
-2.102757e-009
1.332029e-009
4.577422e-009
4.449089e-009
3.925284e-010
-4.777332e-009
-7.058673e-009
-4.535515e-009
1.077713e-009
5.899818e-009
6.973471e-009
4.281704e-009
1.726457e-010
-2.893745e-009
-4.057515e-009
-3.928330e-009
-3.280803e-009
-2.192116e-009
-3.913403e-010
1.887296e-009
3.707713e-009
4.149876e-009
3.118530e-009
1.371950e-009
-1.903216e-010
-1.189097e-009
-1.776146e-009
-2.172368e-009
-2.343843e-009
-2.117559e-009
-1.478176e-009
-6.445915e-010
1.308568e-010
7.620316e-010
1.307064e-009
1.807999e-009
2.216686e-009
2.474418e-009
2.605481e-009
2.692656e-009
2.779339e-009
2.836191e-009
2.829444e-009
2.787505e-009
2.772825e-009
2.802320e-009
2.830215e-009
2.818331e-009
2.795613e-009
2.821565e-009
2.901198e-009
2.970300e-009
2.976911e-009
2.949275e-009
2.950811e-009
2.976002e-009
2.932240e-009
2.744903e-009
2.448119e-009
2.126194e-009
1.771825e-009
1.264280e-009
5.322685e-010
-2.954820e-010
-9.756022e-010
-1.401070e-009
-1.692642e-009
-1.965299e-009
-2.039741e-009
-1.522469e-009
-2.705251e-010
1.272439e-009
2.340714e-009
2.513509e-009
2.050424e-009
1.474523e-009
8.726843e-010
-1.998780e-010
-1.978619e-009
-3.738269e-009
-4.058018e-009
-2.097974e-009
1.324362e-009
4.070107e-009
4.309869e-009
2.013073e-009
-1.063755e-009
-2.843919e-009
-2.499766e-009
-8.155989e-010
7.465311e-010
1.263731e-009
8.287240e-010
1.289824e-010
-2.647467e-010
-2.637708e-010
-1.325753e-010
-3.307837e-009
-1.914523e-009
2.287855e-010
2.278080e-009
3.466111e-009
3.210253e-009
1.315229e-009
-1.623891e-009
-4.087574e-009
-4.357068e-009
-1.882918e-009
1.896149e-009
4.349427e-009
3.692691e-009
5.219153e-010
-2.645343e-009
-3.480869e-009
-1.681789e-009
1.085649e-009
2.867423e-009
2.974739e-009
2.041594e-009
9.030210e-010
-2.893640e-010
-1.843997e-009
-3.704953e-009
-5.135212e-009
-5.291328e-009
-4.003112e-009
-1.893845e-009
2.241958e-010
1.976863e-009
3.472753e-009
4.878469e-009
6.094700e-009
6.857073e-009
7.046450e-009
6.811286e-009
6.401352e-009
5.951588e-009
5.450086e-009
4.863168e-009
4.229704e-009
3.631059e-009
3.114229e-009
2.673559e-009
2.290890e-009
1.964417e-009
1.699236e-009
1.495674e-009
1.359242e-009
1.306018e-009
1.342029e-009
1.448148e-009
1.607771e-009
1.846608e-009
2.214576e-009
2.711419e-009
3.255872e-009
3.766064e-009
4.263589e-009
4.843247e-009
5.503564e-009
6.044929e-009
6.210416e-009
5.945169e-009
5.446216e-009
4.885094e-009
4.117336e-009
2.793600e-009
8.381051e-010
-1.249319e-009
-2.707652e-009
-3.184935e-009
-3.014114e-009
-2.733053e-009
-2.387440e-009
-1.490398e-009
2.181201e-010
2.081765e-009
2.840440e-009
1.796717e-009
-3.546088e-010
-1.989516e-009
-1.935215e-009
-4.221104e-010
1.273057e-009
2.011130e-009
1.578535e-009
4.764315e-010
-7.467167e-010
-1.757100e-009
-2.190486e-009
-1.567532e-009
2.068308e-010
2.282933e-009
3.151906e-009
1.864173e-009
-9.071312e-010
-3.159740e-009
-5.574536e-009
-1.252256e-009
3.478186e-009
4.787206e-009
2.187232e-009
-1.540902e-009
-3.232591e-009
-2.013006e-009
5.484185e-010
2.341030e-009
2.438923e-009
1.207709e-009
-6.299793e-010
-2.540053e-009
-3.902806e-009
-3.789546e-009
-1.568652e-009
2.154925e-009
5.495988e-009
6.533956e-009
4.774279e-009
1.411567e-009
-1.802845e-009
-3.887529e-009
-4.913215e-009
-5.256756e-009
-4.892951e-009
-3.519315e-009
-1.200222e-009
1.366443e-009
3.319919e-009
4.304047e-009
4.605046e-009
4.686928e-009
4.701652e-009
4.474728e-009
3.863492e-009
3.007675e-009
2.211405e-009
1.654313e-009
1.275698e-009
9.166715e-010
5.135998e-010
1.345884e-010
-1.321137e-010
-2.814394e-010
-3.853001e-010
-5.131876e-010
-6.724016e-010
-8.149117e-010
-8.919071e-010
-9.058147e-010
-9.126143e-010
-9.624658e-010
-1.029312e-009
-1.014767e-009
-8.483806e-010
-5.817118e-010
-3.430356e-010
-1.696547e-010
8.506869e-011
6.144337e-010
1.410697e-009
2.213423e-009
2.770358e-009
3.128282e-009
3.565214e-009
4.175587e-009
4.592242e-009
4.251779e-009
2.981125e-009
1.235202e-009
-3.386520e-010
-1.529217e-009
-2.616946e-009
-3.753888e-009
-4.435099e-009
-3.814228e-009
-1.639128e-009
1.226390e-009
3.355522e-009
3.865745e-009
2.950300e-009
1.394121e-009
-2.117422e-010
-1.625808e-009
-2.503333e-009
-2.233150e-009
-5.830639e-010
1.549214e-009
2.460512e-009
1.146482e-009
-1.439702e-009
-2.919843e-009
-1.647031e-009
1.525485e-009
3.771843e-009
2.852452e-009
-6.770377e-010
-3.815999e-009
-4.706695e-009
3.972970e-010
5.199227e-009
4.743427e-009
-6.901511e-010
-6.012702e-009
-6.253429e-009
-1.097824e-009
5.105422e-009
7.450952e-009
4.572316e-009
-8.424168e-010
-4.919369e-009
-5.696808e-009
-3.813163e-009
-9.900179e-010
1.559463e-009
3.356463e-009
4.030852e-009
3.155338e-009
8.445264e-010
-1.823288e-009
-3.372952e-009
-3.053807e-009
-1.348695e-009
6.245559e-010
2.101734e-009
3.023956e-009
3.581530e-009
3.687716e-009
3.041276e-009
1.606944e-009
-1.601479e-010
-1.647066e-009
-2.578143e-009
-3.120358e-009
-3.544934e-009
-3.884804e-009
-3.956041e-009
-3.643657e-009
-3.077761e-009
-2.515419e-009
-2.100926e-009
-1.778847e-009
-1.421575e-009
-9.982638e-010
-6.048001e-010
-3.507779e-010
-2.430871e-010
-1.868355e-010
-9.420135e-011
1.487797e-011
2.774029e-011
-1.382342e-010
-4.334306e-010
-7.198024e-010
-9.329469e-010
-1.179060e-009
-1.624426e-009
-2.273537e-009
-2.901892e-009
-3.264259e-009
-3.359080e-009
-3.411074e-009
-3.545886e-009
-3.539089e-009
-2.995205e-009
-1.807134e-009
-3.557338e-010
8.311388e-010
1.582570e-009
2.132979e-009
2.639415e-009
2.790823e-009
2.079837e-009
4.902576e-010
-1.235502e-009
-2.153212e-009
-1.917940e-009
-9.357241e-010
2.330824e-010
1.390923e-009
2.464836e-009
2.930002e-009
1.925115e-009
-7.115976e-010
-3.614288e-009
-4.560999e-009
-2.419807e-009
1.476929e-009
4.150939e-009
3.510669e-009
2.668299e-010
-2.676758e-009
-2.863545e-009
-4.721685e-010
2.002908e-009
2.210558e-009
1.477492e-010
-1.970767e-009
-2.180190e-009
1.372812e-009
4.262140e-009
2.799473e-009
-2.290558e-009
-6.396788e-009
-5.419066e-009
2.318591e-010
5.881500e-009
6.828636e-009
2.528052e-009
-3.145807e-009
-5.566559e-009
-3.322932e-009
1.080231e-009
3.940137e-009
3.521631e-009
8.398819e-010
-1.992273e-009
-3.667597e-009
-4.066394e-009
-3.410919e-009
-1.666991e-009
1.108922e-009
4.196151e-009
6.383543e-009
6.828178e-009
5.649026e-009
3.638611e-009
1.504080e-009
-5.170870e-010
-2.403026e-009
-3.960174e-009
-4.842185e-009
-4.901427e-009
-4.377316e-009
-3.674263e-009
-3.005226e-009
-2.308194e-009
-1.478067e-009
-5.921739e-010
1.335306e-010
5.704125e-010
8.003096e-010
1.004384e-009
1.264550e-009
1.502462e-009
1.604820e-009
1.577339e-009
1.553189e-009
1.651187e-009
1.844318e-009
1.988436e-009
1.984962e-009
1.894266e-009
1.857876e-009
1.904494e-009
1.870412e-009
1.554728e-009
9.472632e-010
2.480465e-010
-3.725778e-010
-9.890185e-010
-1.816625e-009
-2.877611e-009
-3.847808e-009
-4.313839e-009
-4.157813e-009
-3.591629e-009
-2.790119e-009
-1.616004e-009
1.426296e-010
2.271330e-009
4.036258e-009
4.729360e-009
4.265717e-009
3.119499e-009
1.698429e-009
6.891404e-012
-1.906105e-009
-3.330524e-009
-3.152969e-009
-1.040698e-009
1.724134e-009
2.985204e-009
1.618043e-009
-1.261317e-009
-3.154993e-009
-2.411499e-009
3.129704e-010
2.737488e-009
3.028416e-009
1.252774e-009
-9.867158e-010
-2.106001e-009
-1.722640e-009
-5.805273e-010
3.720099e-010
7.493056e-010
7.705156e-010
6.034224e-010
8.781362e-010
7.949656e-010
-1.260899e-010
-1.474728e-009
-2.048388e-009
-9.526620e-010
1.220637e-009
2.509546e-009
1.312592e-009
-1.754228e-009
-3.936297e-009
-2.719878e-009
1.595954e-009
5.775753e-009
6.339915e-009
2.596555e-009
-2.845709e-009
-6.424449e-009
-6.436107e-009
-3.786371e-009
-4.940295e-010
2.118431e-009
3.839119e-009
4.763726e-009
4.664749e-009
3.294787e-009
1.022398e-009
-1.167594e-009
-2.385242e-009
-2.449617e-009
-1.779961e-009
-8.203364e-010
2.983225e-010
1.584705e-009
2.877310e-009
3.845139e-009
4.267485e-009
4.207779e-009
3.873771e-009
3.364545e-009
2.614686e-009
1.567927e-009
3.332122e-010
-8.728468e-010
-1.914736e-009
-2.824109e-009
-3.687287e-009
-4.478406e-009
-5.039943e-009
-5.232711e-009
-5.076578e-009
-4.713004e-009
-4.230878e-009
-3.565533e-009
-2.602330e-009
-1.368272e-009
-7.198649e-011
1.075523e-009
2.047689e-009
2.952595e-009
3.792929e-009
4.347395e-009
4.360075e-009
3.825211e-009
2.995905e-009
2.082874e-009
1.041553e-009
-2.267388e-010
-1.489810e-009
-2.171191e-009
-1.850585e-009
-7.236496e-010
5.801851e-010
1.645165e-009
2.556249e-009
3.407716e-009
3.682475e-009
2.494806e-009
-3.092498e-010
-3.428877e-009
-4.849244e-009
-3.559019e-009
-5.309511e-010
2.100790e-009
2.850164e-009
1.877157e-009
3.823236e-010
-6.548324e-010
-1.006323e-009
-7.917758e-010
-8.344755e-011
8.631924e-010
1.318128e-009
5.615556e-010
-1.141167e-009
-2.357459e-009
-1.716884e-009
5.622678e-010
2.609793e-009
3.199593e-009
-3.832532e-010
-3.647210e-009
-3.204051e-009
5.088741e-010
3.990733e-009
4.249680e-009
1.323391e-009
-2.373707e-009
-4.469385e-009
-4.146437e-009
-1.884791e-009
1.333833e-009
4.227465e-009
5.249315e-009
3.387556e-009
-6.366755e-010
-4.302242e-009
-5.029083e-009
-2.333090e-009
1.740926e-009
4.391026e-009
4.282419e-009
2.161300e-009
-3.638190e-010
-2.292049e-009
-3.516547e-009
-4.097886e-009
-3.736412e-009
-2.092261e-009
6.003034e-010
3.491222e-009
5.718619e-009
6.953788e-009
7.341387e-009
7.048775e-009
6.014583e-009
4.116415e-009
1.436294e-009
-1.743122e-009
-5.173693e-009
-8.787080e-009
-1.258897e-008
-1.647546e-008
-2.021692e-008
-2.361296e-008
-2.660435e-008
-2.920092e-008
-3.132991e-008
-3.280830e-008
-3.347972e-008
-3.334439e-008
-3.251753e-008
-3.106972e-008
-2.895759e-008
-2.614234e-008
-2.274588e-008
-1.903046e-008
-1.520846e-008
-1.132525e-008
-7.383186e-009
-3.553282e-009
-1.724982e-010
2.512039e-009
4.526264e-009
6.000511e-009
6.836971e-009
6.690392e-009
5.390997e-009
3.324888e-009
1.234924e-009
-4.008775e-010
-1.656242e-009
-2.705765e-009
-3.212621e-009
-2.473706e-009
-3.520467e-010
2.091167e-009
3.220644e-009
2.254249e-009
1.609955e-012
-1.901649e-009
-2.413943e-009
-1.660331e-009
-2.979352e-010
1.233171e-009
2.588463e-009
3.007074e-009
1.637310e-009
-1.239801e-009
-3.661492e-009
-3.396949e-009
-3.045234e-010
3.006457e-009
3.438579e-009
5.647696e-010
-2.729165e-009
-3.092860e-009
-2.017044e-010
2.864942e-009
5.359284e-009
-1.104700e-009
-6.747477e-009
-5.386655e-009
1.739822e-009
7.608105e-009
6.714932e-009
2.483446e-010
-5.726512e-009
-6.414030e-009
-2.273875e-009
2.460866e-009
4.185366e-009
2.553226e-009
-4.193747e-010
-2.692915e-009
-3.342286e-009
-2.199131e-009
5.283085e-010
3.924401e-009
6.220303e-009
5.762850e-009
2.455558e-009
-1.915905e-009
-5.007884e-009
-5.630363e-009
-4.226333e-009
-1.933047e-009
5.151446e-010
2.932047e-009
5.079727e-009
6.321491e-009
5.987376e-009
3.925277e-009
5.300679e-010
-3.748413e-009
-8.809673e-009
-1.480916e-008
-2.179364e-008
-2.954421e-008
-3.775366e-008
-4.624113e-008
-5.492885e-008
-6.365759e-008
-7.210839e-008
-7.992079e-008
-8.683440e-008
-9.267794e-008
-9.725611e-008
-1.003190e-007
-1.016709e-007
-1.012746e-007
-9.921029e-008
-9.555029e-008
-9.033344e-008
-8.368711e-008
-7.592471e-008
-6.745382e-008
-5.858311e-008
-4.947899e-008
-4.034261e-008
-3.155842e-008
-2.355693e-008
-1.651212e-008
-1.028000e-008
-4.734939e-009
-1.209454e-010
3.073647e-009
4.642428e-009
4.942305e-009
4.517992e-009
3.509370e-009
1.660671e-009
-9.591630e-010
-3.413311e-009
-4.374952e-009
-3.277184e-009
-8.761576e-010
1.435608e-009
2.775929e-009
3.104154e-009
2.594901e-009
1.184537e-009
-9.211258e-010
-2.568538e-009
-2.216152e-009
3.442461e-010
3.071652e-009
3.187037e-009
4.242307e-011
-3.731802e-009
-4.490468e-009
-1.256765e-009
3.054727e-009
4.419297e-009
1.751931e-009
-2.033548e-009
-3.126463e-009
-7.945499e-010
2.010090e-009
6.082558e-009
-7.416614e-010
-6.716867e-009
-5.443074e-009
1.555144e-009
6.824948e-009
5.037295e-009
-1.627830e-009
-6.145930e-009
-4.064714e-009
2.225881e-009
6.371691e-009
4.498833e-009
-1.466333e-009
-6.308069e-009
-6.513209e-009
-2.696499e-009
2.027118e-009
5.062840e-009
5.670441e-009
4.280685e-009
1.574655e-009
-1.531204e-009
-3.656140e-009
-3.510712e-009
-9.554808e-010
2.686104e-009
5.572968e-009
6.612181e-009
5.799508e-009
3.523333e-009
-1.784688e-010
-5.612333e-009
-1.292467e-008
-2.188060e-008
-3.219267e-008
-4.391667e-008
-5.739684e-008
-7.284977e-008
-9.008795e-008
-1.086394e-007
-1.280243e-007
-1.478375e-007
-1.676078e-007
-1.866907e-007
-2.043554e-007
-2.199498e-007
-2.329534e-007
-2.429146e-007
-2.494216e-007
-2.521757e-007
-2.510626e-007
-2.461176e-007
-2.374488e-007
-2.252602e-007
-2.099684e-007
-1.922334e-007
-1.728028e-007
-1.523269e-007
-1.313779e-007
-1.106392e-007
-9.095232e-008
-7.304079e-008
-5.717074e-008
-4.318447e-008
-3.092624e-008
-2.055443e-008
-1.232313e-008
-6.106027e-009
-1.348924e-009
2.362968e-009
4.797249e-009
5.367028e-009
4.010499e-009
1.628647e-009
-4.976973e-010
-1.646367e-009
-1.848421e-009
-1.254673e-009
2.570517e-010
2.510599e-009
4.296987e-009
3.896370e-009
8.465789e-010
-2.950269e-009
-4.487948e-009
-2.462033e-009
1.247025e-009
3.224589e-009
1.823365e-009
-1.268149e-009
-2.836092e-009
-1.417376e-009
1.367551e-009
2.684062e-009
1.432973e-009
-8.202079e-010
-1.727396e-009
-6.700730e-010
7.768899e-010
4.057817e-009
9.327855e-011
-3.387526e-009
-2.800255e-009
7.190263e-010
2.774896e-009
7.733243e-010
-3.036204e-009
-3.942027e-009
-4.930010e-011
5.298776e-009
6.707326e-009
2.258425e-009
-4.399802e-009
-7.530509e-009
-4.697572e-009
1.303921e-009
5.470679e-009
5.094499e-009
1.418148e-009
-2.360937e-009
-3.978478e-009
-3.125692e-009
-5.551719e-010
2.914769e-009
6.414905e-009
8.699378e-009
8.469225e-009
5.175606e-009
-7.174350e-010
-8.430320e-009
-1.778401e-008
-2.939321e-008
-4.410913e-008
-6.248061e-008
-8.476796e-008
-1.112470e-007
-1.422398e-007
-1.777740e-007
-2.172875e-007
-2.597181e-007
-3.038361e-007
-3.484463e-007
-3.923353e-007
-4.341699e-007
-4.725537e-007
-5.061958e-007
-5.340133e-007
-5.551201e-007
-5.688030e-007
-5.745585e-007
-5.721305e-007
-5.614887e-007
-5.428083e-007
-5.165411e-007
-4.835210e-007
-4.449358e-007
-4.021338e-007
-3.564679e-007
-3.093599e-007
-2.624575e-007
-2.175481e-007
-1.761517e-007
-1.391567e-007
-1.068922e-007
-7.951723e-008
-5.718448e-008
-3.972863e-008
-2.633247e-008
-1.578694e-008
-7.248946e-009
-6.772406e-010
3.585619e-009
5.575752e-009
5.862230e-009
4.972140e-009
3.017859e-009
2.257968e-010
-2.300817e-009
-2.910623e-009
-9.460264e-010
2.139019e-009
3.688334e-009
2.229841e-009
-1.060325e-009
-3.431919e-009
-3.109485e-009
-7.277821e-010
1.604462e-009
2.342180e-009
1.531348e-009
2.023452e-010
-7.485611e-010
-1.011660e-009
-6.637839e-010
2.194673e-011
5.875150e-010
5.897184e-010
2.693276e-011
-5.486842e-010
-7.654146e-010
4.943854e-010
1.696863e-009
1.595186e-009
6.720440e-011
-1.928677e-009
-3.098300e-009
-2.519916e-009
-1.595122e-010
2.782668e-009
4.207707e-009
2.595865e-009
-1.263806e-009
-4.264232e-009
-3.464854e-009
9.408555e-010
5.316253e-009
5.690419e-009
1.429648e-009
-4.153134e-009
-6.781411e-009
-4.749609e-009
2.359406e-010