# vtk DataFile Version 3.0
vtk output
ASCII
DATASET STRUCTURED_POINTS
DIMENSIONS 100 100 1
SPACING 1 1 1
ORIGIN 0 0 0
POINT_DATA 10000
SCALARS SFBox_profile double
LOOKUP_TABLE default 
0.000000e+000
0.000000e+000
0.000000e+000
0.000000e+000
0.000000e+000
0.000000e+000
0.000000e+000
0.000000e+000
0.000000e+000
0.000000e+000
0.000000e+000
0.000000e+000
0.000000e+000
0.000000e+000
0.000000e+000
0.000000e+000
0.000000e+000
0.000000e+000
0.000000e+000
0.000000e+000
0.000000e+000
0.000000e+000
0.000000e+000
0.000000e+000
0.000000e+000
0.000000e+000
0.000000e+000
0.000000e+000
0.000000e+000
0.000000e+000
0.000000e+000
0.000000e+000
0.000000e+000
0.000000e+000
0.000000e+000
0.000000e+000
0.000000e+000
0.000000e+000
0.000000e+000
0.000000e+000
0.000000e+000
0.000000e+000
0.000000e+000
0.000000e+000
0.000000e+000
0.000000e+000
0.000000e+000
0.000000e+000
0.000000e+000
0.000000e+000
0.000000e+000
0.000000e+000
0.000000e+000
0.000000e+000
0.000000e+000
0.000000e+000
0.000000e+000
0.000000e+000
0.000000e+000
0.000000e+000
0.000000e+000
0.000000e+000
0.000000e+000
0.000000e+000
0.000000e+000
0.000000e+000
0.000000e+000
0.000000e+000
0.000000e+000
0.000000e+000
0.000000e+000
0.000000e+000
0.000000e+000
0.000000e+000
0.000000e+000
0.000000e+000
0.000000e+000
0.000000e+000
0.000000e+000
0.000000e+000
0.000000e+000
0.000000e+000
0.000000e+000
0.000000e+000
0.000000e+000
0.000000e+000
0.000000e+000
0.000000e+000
0.000000e+000
0.000000e+000
0.000000e+000
0.000000e+000
0.000000e+000
0.000000e+000
0.000000e+000
0.000000e+000
0.000000e+000
0.000000e+000
0.000000e+000
0.000000e+000
-4.723422e-009
-1.703184e-009
2.123955e-009
4.259607e-009
3.531485e-009
7.011433e-010
-2.245271e-009
-3.528829e-009
-2.686189e-009
-6.273201e-010
1.251720e-009
2.103596e-009
2.006551e-009
1.524385e-009
1.003963e-009
3.127466e-010
-7.962020e-010
-2.155906e-009
-3.104734e-009
-2.980058e-009
-1.707204e-009
1.018466e-010
1.635198e-009
2.477441e-009
2.769257e-009
2.856227e-009
2.852903e-009
2.568021e-009
1.804185e-009
6.540531e-010
-5.333668e-010
-1.453433e-009
-2.074287e-009
-2.569736e-009
-3.070919e-009
-3.522908e-009
-3.777216e-009
-3.779588e-009
-3.632036e-009
-3.478381e-009
-3.362907e-009
-3.219732e-009
-2.984097e-009
-2.683050e-009
-2.405681e-009
-2.202506e-009
-2.039348e-009
-1.855148e-009
-1.646380e-009
-1.473962e-009
-1.387165e-009
-1.361424e-009
-1.329881e-009
-1.272218e-009
-1.249072e-009
-1.331819e-009
-1.508166e-009
-1.684415e-009
-1.794595e-009
-1.888626e-009
-2.080138e-009
-2.398559e-009
-2.721120e-009
-2.885360e-009
-2.867304e-009
-2.809025e-009
-2.837682e-009
-2.873257e-009
-2.666856e-009
-2.060682e-009
-1.187081e-009
-3.616290e-010
2.350314e-010
7.285258e-010
1.355793e-009
2.099893e-009
2.576946e-009
2.351581e-009
1.384235e-009
1.368864e-010
-7.989779e-010
-1.185694e-009
-1.244142e-009
-1.289295e-009
-1.306754e-009
-9.471299e-010
2.895189e-011
1.316340e-009
2.132598e-009
1.805052e-009
3.817187e-010
-1.290310e-009
-2.129528e-009
-1.596343e-009
-8.077334e-011
1.380664e-009
1.829424e-009
1.023292e-009
-4.362520e-010
-1.537209e-009
-8.788878e-010
-2.931663e-010
4.293681e-010
7.821957e-010
5.469879e-010
-6.160090e-011
-5.589590e-010
-5.590322e-010
-7.883146e-011
4.688449e-010
6.088913e-010
2.008492e-010
-4.384810e-010
-8.011833e-010
-6.136806e-010
-4.423707e-011
4.831585e-010
6.749819e-010
5.820171e-010
4.574674e-010
4.392857e-010
4.012219e-010
1.189064e-010
-4.447886e-010
-1.050827e-009
-1.385873e-009
-1.336937e-009
-1.055457e-009
-7.657184e-010
-5.405561e-010
-2.769587e-010
1.331296e-010
6.482919e-010
1.107504e-009
1.392159e-009
1.529755e-009
1.634314e-009
1.768783e-009
1.888416e-009
1.914156e-009
1.835207e-009
1.721152e-009
1.641300e-009
1.594392e-009
1.527865e-009
1.413830e-009
1.286202e-009
1.198081e-009
1.157249e-009
1.120958e-009
1.055010e-009
9.815853e-010
9.539904e-010
9.881212e-010
1.037729e-009
1.049792e-009
1.035008e-009
1.061916e-009
1.172314e-009
1.318078e-009
1.404773e-009
1.400545e-009
1.378747e-009
1.429882e-009
1.536973e-009
1.568144e-009
1.412940e-009
1.112338e-009
8.220953e-010
6.365675e-010
4.745548e-010
1.740525e-010
-2.962760e-010
-7.515591e-010
-9.475431e-010
-8.224824e-010
-5.577585e-010
-3.826958e-010
-3.344079e-010
-2.398503e-010
5.586780e-011
4.669095e-010
7.041793e-010
5.501529e-010
9.146946e-011
-3.332627e-010
-4.255346e-010
-1.783038e-010
1.437550e-010
2.573811e-010
9.992254e-011
-1.517663e-010
-2.666171e-010
-1.582327e-010
7.033620e-011
2.402669e-010
2.424322e-010
9.591585e-011
-9.549611e-011
-2.224119e-010
3.659389e-009
1.341417e-009
-1.601302e-009
-3.279224e-009
-2.818839e-009
-7.615092e-010
1.501904e-009
2.725702e-009
2.491891e-009
1.206337e-009
-3.912011e-010
-1.707644e-009
-2.442535e-009
-2.468214e-009
-1.729350e-009
-3.170035e-010
1.405674e-009
2.850906e-009
3.475114e-009
3.071130e-009
1.843511e-009
2.272340e-010
-1.367473e-009
-2.681353e-009
-3.572033e-009
-3.944005e-009
-3.751082e-009
-3.048601e-009
-1.999620e-009
-8.009906e-010
4.028249e-010
1.538130e-009
2.556523e-009
3.398581e-009
4.012754e-009
4.396568e-009
4.599032e-009
4.675741e-009
4.648664e-009
4.514639e-009
4.284623e-009
4.000366e-009
3.708226e-009
3.425385e-009
3.141205e-009
2.849723e-009
2.570318e-009
2.331132e-009
2.139097e-009
1.977140e-009
1.832587e-009
1.719168e-009
1.662852e-009
1.669361e-009
1.716667e-009
1.784388e-009
1.882736e-009
2.041245e-009
2.268214e-009
2.531890e-009
2.789594e-009
3.029388e-009
3.269418e-009
3.511923e-009
3.708824e-009
3.785330e-009
3.695792e-009
3.443447e-009
3.040926e-009
2.467336e-009
1.687245e-009
7.188062e-010
-3.301476e-010
-1.306285e-009
-2.085510e-009
-2.591369e-009
-2.748530e-009
-2.459930e-009
-1.679832e-009
-5.291966e-010
6.838593e-010
1.599589e-009
1.994701e-009
1.856663e-009
1.299823e-009
4.514484e-010
-5.456780e-010
-1.434619e-009
-1.830716e-009
-1.422540e-009
-2.760340e-010
1.050578e-009
1.776282e-009
1.421462e-009
1.944957e-010
-1.095175e-009
-1.579642e-009
-9.476273e-010
3.265308e-010
1.319148e-009
5.217552e-009
1.835755e-009
-2.382007e-009
-4.625252e-009
-3.692978e-009
-5.918947e-010
2.424125e-009
3.533446e-009
2.472999e-009
3.865281e-010
-1.283039e-009
-1.849856e-009
-1.587726e-009
-1.118662e-009
-7.153189e-010
-1.830884e-010
6.845435e-010
1.661104e-009
2.163813e-009
1.772135e-009
6.423010e-010
-6.019104e-010
-1.376438e-009
-1.540808e-009
-1.354574e-009
-1.116127e-009
-8.894354e-010
-5.547351e-010
-4.709611e-011
5.148604e-010
9.310812e-010
1.105515e-009
1.105862e-009
1.059394e-009
1.023745e-009
9.663466e-010
8.426774e-010
6.639933e-010
4.850806e-010
3.457982e-010
2.407111e-010
1.416176e-010
3.517922e-011
-6.716780e-011
-1.484286e-010
-2.056656e-010
-2.502100e-010
-2.940872e-010
-3.390795e-010
-3.772038e-010
-4.000510e-010
-4.084114e-010
-4.129586e-010
-4.230050e-010
-4.333081e-010
-4.259312e-010
-3.903342e-010
-3.395797e-010
-2.973187e-010
-2.638955e-010
-2.041819e-010
-8.316273e-011
8.553835e-011
2.432500e-010
3.527553e-010
4.520333e-010
6.148434e-010
8.445886e-010
1.027696e-009
1.026469e-009
8.258689e-010
5.583794e-010
3.525115e-010
1.685533e-010
-1.646836e-010
-7.137569e-010
-1.263162e-009
-1.436964e-009
-1.043649e-009
-2.917403e-010
3.774658e-010
6.903427e-010
7.535430e-010
8.424038e-010
9.958960e-010
8.896194e-010
1.833050e-010
-9.854111e-010
-1.906339e-009
-1.797960e-009
-5.105032e-010
1.212502e-009
2.207044e-009
1.753010e-009
1.401382e-010
-1.518469e-009
-2.082633e-009
-1.191526e-009
4.991659e-010
1.794133e-009
2.618471e-009
8.053133e-010
-1.362007e-009
-2.305769e-009
-1.465616e-009
3.537558e-010
1.659769e-009
1.455673e-009
1.038790e-011
-1.400790e-009
-1.571188e-009
-3.530585e-010
1.268027e-009
2.043983e-009
1.482570e-009
1.269158e-010
-1.064518e-009
-1.567484e-009
-1.566397e-009
-1.499489e-009
-1.456688e-009
-1.087190e-009
-6.571847e-011
1.436889e-009
2.799914e-009
3.454851e-009
3.312524e-009
2.710803e-009
2.007690e-009
1.277864e-009
3.862792e-010
-7.237095e-010
-1.882951e-009
-2.830540e-009
-3.443343e-009
-3.803075e-009
-4.058590e-009
-4.263128e-009
-4.356955e-009
-4.278739e-009
-4.057449e-009
-3.788837e-009
-3.543530e-009
-3.317334e-009
-3.068112e-009
-2.783727e-009
-2.502989e-009
-2.274616e-009
-2.107600e-009
-1.969310e-009
-1.830945e-009
-1.707340e-009
-1.644381e-009
-1.666001e-009
-1.742132e-009
-1.820912e-009
-1.894197e-009
-2.016614e-009
-2.242410e-009
-2.545024e-009
-2.822200e-009
-2.999201e-009
-3.114587e-009
-3.269606e-009
-3.477133e-009
-3.588379e-009
-3.413421e-009
-2.923704e-009
-2.296490e-009
-1.719341e-009
-1.165412e-009
-4.246024e-010
6.008447e-010
1.662277e-009
2.299863e-009
2.254905e-009
1.723544e-009
1.151327e-009
7.715221e-010
4.003874e-010
-2.611978e-010
-1.144908e-009
-1.718114e-009
-1.448965e-009
-3.873786e-010
7.577834e-010
1.180711e-009
6.682342e-010
-2.342281e-010
-7.271118e-010
-4.486173e-010
2.684699e-010
7.540492e-010
5.950468e-010
-6.006107e-011
-6.866071e-010
-8.261242e-010
-4.037294e-010
2.746208e-010
7.649156e-010
-1.946019e-009
-8.362808e-010
6.351232e-010
1.645576e-009
1.770093e-009
1.064744e-009
-1.394785e-010
-1.416349e-009
-2.270403e-009
-2.193071e-009
-9.414912e-010
1.107677e-009
2.947984e-009
3.491707e-009
2.338465e-009
1.045315e-010
-2.022283e-009
-3.132522e-009
-3.106878e-009
-2.403951e-009
-1.456184e-009
-3.337814e-010
1.043271e-009
2.497746e-009
3.528401e-009
3.687645e-009
2.983636e-009
1.863592e-009
8.065927e-010
-3.565886e-011
-8.075870e-010
-1.635406e-009
-2.415408e-009
-2.917676e-009
-3.041264e-009
-2.914530e-009
-2.747669e-009
-2.628041e-009
-2.482187e-009
-2.213844e-009
-1.837434e-009
-1.463113e-009
-1.175225e-009
-9.550639e-010
-7.264055e-010
-4.560278e-010
-1.905604e-010
3.600602e-012
1.189300e-010
2.114417e-010
3.289212e-010
4.491986e-010
5.034597e-010
4.600570e-010
3.685748e-010
3.037859e-010
2.684197e-010
1.748686e-010
-5.675374e-011
-3.915915e-010
-7.022608e-010
-9.144982e-010
-1.107435e-009
-1.427530e-009
-1.892494e-009
-2.318505e-009
-2.485626e-009
-2.370175e-009
-2.161398e-009
-2.013338e-009
-1.813123e-009
-1.267629e-009
-2.541891e-010
9.536396e-010
1.870751e-009
2.222408e-009
2.141542e-009
1.920705e-009
1.613278e-009
9.687280e-010
-1.909359e-010
-1.573388e-009
-2.483785e-009
-2.357084e-009
-1.246893e-009
2.050455e-010
1.268679e-009
1.603606e-009
1.319210e-009
6.944571e-010
-5.896275e-011
-7.701272e-010
-1.182101e-009
-1.016758e-009
-2.538335e-010
6.868656e-010
1.154844e-009
7.775354e-010
-1.789750e-010
-9.712486e-010
-4.849188e-009
-1.685328e-009
2.166740e-009
4.102503e-009
3.207774e-009
5.886285e-010
-1.799101e-009
-2.663811e-009
-2.023841e-009
-7.258747e-010
4.421764e-010
1.187137e-009
1.512481e-009
1.379042e-009
7.121330e-010
-3.144672e-010
-1.181955e-009
-1.358211e-009
-7.564715e-010
1.760147e-010
8.490034e-010
9.945764e-010
7.516366e-010
3.639935e-010
-1.043935e-010
-7.224338e-010
-1.435692e-009
-1.967714e-009
-2.026284e-009
-1.576218e-009
-8.601117e-010
-1.499998e-010
4.831353e-010
1.141824e-009
1.889744e-009
2.623918e-009
3.169429e-009
3.462779e-009
3.603602e-009
3.728929e-009
3.869545e-009
3.948205e-009
3.900386e-009
3.763747e-009
3.637683e-009
3.573766e-009
3.530492e-009
3.439440e-009
3.297243e-009
3.172879e-009
3.124499e-009
3.128476e-009
3.109096e-009
3.036043e-009
2.970426e-009
2.995687e-009
3.109982e-009
3.214400e-009
3.224293e-009
3.175103e-009
3.183489e-009
3.293033e-009
3.388378e-009
3.299332e-009
2.988107e-009
2.592258e-009
2.253608e-009
1.930439e-009
1.434935e-009
6.772187e-010
-1.679210e-010
-7.881573e-010
-1.026835e-009
-1.004661e-009
-9.283593e-010
-8.244422e-010
-5.338362e-010
1.625891e-011
6.019973e-010
8.411385e-010
5.555445e-010
-4.456215e-011
-5.601562e-010
-7.533505e-010
-6.613894e-010
-4.002305e-010
3.065466e-011
6.530152e-010
1.245717e-009
1.321874e-009
5.317120e-010
-8.501343e-010
-1.917195e-009
-1.773819e-009
-3.378798e-010
1.440608e-009
2.235976e-009
1.395233e-009
-4.924309e-010
-2.010968e-009
-4.021114e-009
-1.079085e-009
2.262639e-009
3.437249e-009
1.845159e-009
-8.828398e-010
-2.419169e-009
-1.682926e-009
4.272523e-010
1.997961e-009
1.781825e-009
1.054363e-010
-1.646323e-009
-2.300825e-009
-1.705780e-009
-4.984653e-010
6.764599e-010
1.618016e-009
2.361838e-009
2.764103e-009
2.464853e-009
1.270567e-009
-5.278962e-010
-2.291100e-009
-3.474911e-009
-3.919723e-009
-3.753094e-009
-3.117995e-009
-2.065593e-009
-6.727904e-010
8.453914e-010
2.214145e-009
3.280239e-009
4.074927e-009
4.693682e-009
5.152002e-009
5.386078e-009
5.372267e-009
5.197643e-009
4.991387e-009
4.806845e-009
4.598584e-009
4.313584e-009
3.977645e-009
3.673977e-009
3.448815e-009
3.264786e-009
3.057476e-009
2.821828e-009
2.620785e-009
2.506966e-009
2.456611e-009
2.400502e-009
2.315700e-009
2.262539e-009
2.315128e-009
2.467723e-009
2.636978e-009
2.765135e-009
2.897301e-009
3.127669e-009
3.471349e-009
3.821669e-009
4.055398e-009
4.159410e-009
4.213490e-009
4.241492e-009
4.121061e-009
3.682894e-009
2.891795e-009
1.886776e-009
8.303029e-010
-2.324287e-010
-1.308301e-009
-2.266847e-009
-2.804146e-009
-2.671172e-009
-1.930897e-009
-9.289628e-010
1.022397e-011
8.043416e-010
1.483256e-009
1.893680e-009
1.680868e-009
6.835341e-010
-6.730158e-010
-1.522939e-009
-1.252458e-009
-1.073999e-010
9.342516e-010
9.882735e-010
4.781349e-011
-1.008701e-009
-1.198939e-009
-2.987158e-010
9.704708e-010
1.559205e-009
9.583904e-010
-3.978870e-010
-1.484990e-009
-4.334639e-010
3.493622e-010
9.687209e-010
5.583577e-010
-7.907147e-010
-1.963696e-009
-1.710663e-009
1.867809e-010
2.506859e-009
3.430062e-009
2.024918e-009
-9.017901e-010
-3.387671e-009
-3.851559e-009
-2.238898e-009
1.676209e-010
1.946229e-009
2.555002e-009
2.341663e-009
1.814011e-009
1.088200e-009
3.258254e-011
-1.242573e-009
-2.232527e-009
-2.419290e-009
-1.734763e-009
-5.935172e-010
4.980703e-010
1.308035e-009
1.883143e-009
2.302610e-009
2.523585e-009
2.463492e-009
2.151415e-009
1.735164e-009
1.349693e-009
1.022475e-009
7.166446e-010
4.282292e-010
2.049877e-010
7.870790e-011
1.706501e-011
-3.807674e-011
-1.015360e-010
-1.381959e-010
-1.236589e-010
-8.733140e-011
-7.993879e-011
-1.101565e-010
-1.360870e-010
-1.239199e-010
-9.612394e-011
-1.040329e-010
-1.596118e-010
-2.174304e-010
-2.334671e-010
-2.237528e-010
-2.415986e-010
-2.994100e-010
-3.402054e-010
-3.028137e-010
-1.962564e-010
-7.767748e-011
4.354348e-011
2.409827e-010
5.795943e-010
1.007277e-009
1.383822e-009
1.627998e-009
1.787680e-009
1.916103e-009
1.904284e-009
1.525051e-009
7.016628e-010
-3.050510e-010
-1.062252e-009
-1.345238e-009
-1.296185e-009
-1.153813e-009
-8.784719e-010
-1.781903e-010
1.016173e-009
2.175669e-009
2.441870e-009
1.397570e-009
-4.227913e-010
-1.864475e-009
-2.069839e-009
-1.126814e-009
1.256493e-010
8.692848e-010
8.890751e-010
5.101153e-010
1.282163e-010
-1.119965e-010
-2.514941e-010
-3.016269e-010
-2.039681e-010
2.649611e-011
2.279769e-010
3.030623e-009
1.294519e-009
-8.955199e-010
-2.238323e-009
-2.260434e-009
-1.305910e-009
2.937421e-011
1.281672e-009
2.056863e-009
1.935576e-009
7.575583e-010
-9.583417e-010
-2.112403e-009
-1.828847e-009
-2.866804e-010
1.316063e-009
1.748534e-009
7.746938e-010
-7.523364e-010
-1.746469e-009
-1.779197e-009
-1.172362e-009
-3.910361e-010
4.707379e-010
1.577811e-009
2.883076e-009
3.943426e-009
4.253507e-009
3.696159e-009
2.607490e-009
1.431082e-009
3.748139e-010
-5.978681e-010
-1.534219e-009
-2.342282e-009
-2.874401e-009
-3.090811e-009
-3.091062e-009
-3.000030e-009
-2.865269e-009
-2.671935e-009
-2.419608e-009
-2.149576e-009
-1.903463e-009
-1.686281e-009
-1.483112e-009
-1.294747e-009
-1.137728e-009
-1.015077e-009
-9.081808e-010
-8.045332e-010
-7.184188e-010
-6.705292e-010
-6.559831e-010
-6.522404e-010
-6.602845e-010
-7.163387e-010
-8.468606e-010
-1.026210e-009
-1.206463e-009
-1.389583e-009
-1.634908e-009
-1.966394e-009
-2.291221e-009
-2.457688e-009
-2.407594e-009
-2.227477e-009
-2.003265e-009
-1.648092e-009
-9.575606e-010
1.135756e-010
1.274841e-009
2.088235e-009
2.359369e-009
2.280681e-009
2.132046e-009
1.889804e-009
1.255456e-009
1.288405e-010
-1.035877e-009
-1.499271e-009
-9.360920e-010
1.780051e-010
9.516608e-010
8.639018e-010
1.497957e-010
-5.543193e-010
-8.407309e-010
-7.499231e-010
-4.662349e-010
-5.932467e-012
6.608182e-010
1.261953e-009
1.235460e-009
2.785361e-010
-1.122662e-009
-1.888126e-009
-1.259242e-009
4.065668e-010
1.813098e-009
4.086005e-009
9.930081e-010
-2.340348e-009
-3.259157e-009
-1.501913e-009
9.643090e-010
1.994305e-009
1.092725e-009
-5.499067e-010
-1.466392e-009
-1.167756e-009
-1.664199e-010
8.492981e-010
1.578869e-009
1.931497e-009
1.652596e-009
4.535878e-010
-1.452910e-009
-3.163680e-009
-3.652438e-009
-2.595194e-009
-6.008660e-010
1.370125e-009
2.754527e-009
3.564289e-009
3.973232e-009
3.926866e-009
3.236379e-009
1.957620e-009
5.236969e-010
-5.559252e-010
-1.083638e-009
-1.229157e-009
-1.247212e-009
-1.214668e-009
-1.051448e-009
-7.233780e-010
-3.474387e-010
-9.336982e-011
-3.134823e-011
-1.054850e-010
-2.329568e-010
-3.914833e-010
-6.084587e-010
-8.973180e-010
-1.228339e-009
-1.552770e-009
-1.835222e-009
-2.061236e-009
-2.229050e-009
-2.341182e-009
-2.393532e-009
-2.364245e-009
-2.223490e-009
-1.969145e-009
-1.647608e-009
-1.317733e-009
-9.882619e-010
-6.156663e-010
-1.890003e-010
1.971421e-010
3.980409e-010
3.667027e-010
2.133033e-010
7.401401e-011
-6.686387e-011
-3.572798e-010
-8.393227e-010
-1.275789e-009
-1.302409e-009
-7.837196e-010
3.841530e-011
8.061343e-010
1.417772e-009
2.042543e-009
2.736513e-009
3.149268e-009
2.759532e-009
1.447310e-009
-2.471515e-010
-1.517068e-009
-1.933407e-009
-1.657691e-009
-1.070240e-009
-3.469769e-010
4.905906e-010
1.209636e-009
1.311801e-009
5.352120e-010
-6.368845e-010
-1.197663e-009
-5.446152e-010
7.990525e-010
1.530672e-009
7.883238e-010
-9.218825e-010
-2.076042e-009
-1.519464e-009
4.047405e-010
2.090117e-009
2.634719e-009
-1.188153e-010
-2.666978e-009
-2.421864e-009
3.941445e-010
3.077861e-009
3.064367e-009
2.799374e-010
-2.909474e-009
-3.920051e-009
-2.140399e-009
8.456275e-010
2.898819e-009
3.055141e-009
1.840052e-009
3.037187e-010
-9.334181e-010
-1.747352e-009
-2.030186e-009
-1.526018e-009
-2.136411e-010
1.361231e-009
2.362884e-009
2.327523e-009
1.493172e-009
4.729077e-010
-3.072364e-010
-7.970165e-010
-1.055465e-009
-9.794717e-010
-3.897863e-010
6.756838e-010
1.869972e-009
2.777717e-009
3.207918e-009
3.224090e-009
2.932941e-009
2.313923e-009
1.268785e-009
-2.157532e-010
-2.007064e-009
-3.924404e-009
-5.862765e-009
-7.809163e-009
-9.762864e-009
-1.166730e-008
-1.341936e-008
-1.492692e-008
-1.614946e-008
-1.709058e-008
-1.775619e-008
-1.811499e-008
-1.809796e-008
-1.764747e-008
-1.677588e-008
-1.556573e-008
-1.409431e-008
-1.236366e-008
-1.033606e-008
-8.057010e-009
-5.717405e-009
-3.549911e-009
-1.658328e-009
6.719965e-012
1.471183e-009
2.574442e-009
3.059196e-009
2.852684e-009
2.205958e-009
1.492216e-009
8.838465e-010
3.038223e-010
-2.860972e-010
-6.487653e-010
-4.470783e-010
3.301674e-010
1.220741e-009
1.655007e-009
1.445248e-009
8.444283e-010
1.564915e-010
-5.568450e-010
-1.284027e-009
-1.699561e-009
-1.262002e-009
1.484564e-010
1.770057e-009
2.385408e-009
1.401320e-009
-4.824054e-010
-1.789654e-009
-1.559182e-009
-1.798046e-010
1.027817e-009
1.050825e-009
5.303059e-011
-8.937479e-010
-8.747305e-010
3.949515e-011
9.284248e-010
2.478842e-010
-9.101250e-010
-1.660195e-009
-7.189483e-010
1.493249e-009
3.077474e-009
2.384745e-009
-3.336663e-010
-2.968089e-009
-3.362473e-009
-1.250289e-009
1.522354e-009
2.694477e-009
1.563966e-009
-6.001992e-010
-1.917703e-009
-1.540076e-009
-4.839387e-011
1.452797e-009
2.345197e-009
2.634465e-009
2.428244e-009
1.627956e-009
2.032903e-010
-1.435620e-009
-2.560815e-009
-2.666466e-009
-1.824335e-009
-5.039966e-010
8.582830e-010
2.044566e-009
2.891799e-009
3.112037e-009
2.375718e-009
5.451148e-010
-2.248560e-009
-5.774095e-009
-9.901255e-009
-1.461157e-008
-1.985152e-008
-2.543592e-008
-3.111345e-008
-3.669882e-008
-4.211582e-008
-4.732117e-008
-5.221331e-008
-5.662559e-008
-6.039753e-008
-6.344123e-008
-6.573756e-008
-6.727111e-008
-6.797124e-008
-6.772292e-008
-6.644643e-008
-6.416880e-008
-6.100448e-008
-5.705607e-008
-5.235109e-008
-4.690791e-008
-4.086955e-008
-3.453586e-008
-2.822548e-008
-2.211564e-008
-1.626302e-008
-1.079303e-008
-6.010771e-009
-2.256113e-009
3.502600e-010
1.956180e-009
2.752937e-009
2.773673e-009
2.006317e-009
6.929081e-010
-6.083481e-010
-1.362403e-009
-1.438196e-009
-1.076693e-009
-5.034017e-010
2.850170e-010
1.258438e-009
2.000275e-009
1.878842e-009
7.293980e-010
-7.244225e-010
-1.353238e-009
-6.589935e-010
7.004693e-010
1.500935e-009
1.079817e-009
-1.313611e-010
-1.129077e-009
-1.272293e-009
-6.875791e-010
8.238465e-011
6.227015e-010
8.172220e-010
6.815659e-010
2.522413e-010
-3.249755e-010
-7.485944e-010
-1.568634e-009
-6.867305e-010
3.479621e-010
9.135430e-010
9.298939e-010
6.187729e-010
1.165681e-010
-4.713582e-010
-7.860581e-010
-3.692645e-010
6.935494e-010
1.475418e-009
9.225664e-010
-9.641649e-010
-2.807883e-009
-2.955184e-009
-9.981142e-010
1.823784e-009
3.731151e-009
3.859377e-009
2.671462e-009
1.178321e-009
1.120386e-011
-7.361513e-010
-1.052357e-009
-7.384387e-010
3.167801e-010
1.748976e-009
2.776786e-009
2.669821e-009
1.103406e-009
-1.926054e-009
-6.408426e-009
-1.244224e-008
-2.008500e-008
-2.919667e-008
-3.949692e-008
-5.074613e-008
-6.281404e-008
-7.557156e-008
-8.876695e-008
-1.020444e-007
-1.150703e-007
-1.276122e-007
-1.394913e-007
-1.504873e-007
-1.603144e-007
-1.686919e-007
-1.754266e-007
-1.804146e-007
-1.835674e-007
-1.847443e-007
-1.837752e-007
-1.805600e-007
-1.751413e-007
-1.676706e-007
-1.583055e-007
-1.471722e-007
-1.344548e-007
-1.205126e-007
-1.058607e-007
-9.100472e-008
-7.631004e-008
-6.206134e-008
-4.862028e-008
-3.644227e-008
-2.588543e-008
-1.704200e-008
-9.831559e-009
-4.256292e-009
-4.657127e-010
1.505187e-009
2.009418e-009
1.682157e-009
1.032112e-009
2.330853e-010
-6.099159e-010
-1.102138e-009
-7.016158e-010
6.584649e-010
2.211112e-009
2.851334e-009
2.107930e-009
5.756478e-010
-6.733422e-010
-1.054138e-009
-7.917095e-010
-3.981964e-010
-7.609652e-011
2.438633e-010
4.657822e-010
2.695763e-010
-3.813247e-010
-8.928151e-010
-5.291867e-010
6.606898e-010
1.622606e-009
1.262861e-009
-3.295278e-010
-1.797596e-009
-2.468119e-009
1.905845e-010
2.511376e-009
2.104919e-009
-4.786431e-010
-2.616114e-009
-2.392030e-009
-2.537782e-010
1.862626e-009
2.536925e-009
1.795888e-009
4.454520e-010
-9.078502e-010
-1.973690e-009
-2.340295e-009
-1.516167e-009
3.881576e-010
2.303823e-009
2.913595e-009
1.846730e-009
7.135201e-011
-9.687509e-010
-5.625492e-010
9.006527e-010
2.552018e-009
3.767685e-009
4.237581e-009
3.555890e-009
1.031477e-009
-4.007968e-009
-1.183124e-008
-2.231925e-008
-3.532380e-008
-5.091552e-008
-6.926705e-008
-9.037847e-008
-1.139839e-007
-1.396901e-007
-1.671171e-007
-1.958676e-007
-2.254118e-007
-2.550720e-007
-2.841471e-007
-3.120363e-007
-3.382400e-007
-3.622716e-007
-3.836119e-007
-4.017627e-007
-4.163300e-007
-4.270328e-007
-4.336278e-007
-4.358453e-007
-4.334237e-007
-4.262176e-007
-4.142668e-007
-3.977572e-007
-3.769395e-007
-3.521374e-007
-3.238618e-007
-2.928947e-007
-2.602093e-007
-2.267831e-007
-1.935017e-007
-1.612305e-007
-1.308856e-007
-1.033049e-007
-7.899142e-008
-5.803179e-008
-4.033005e-008
-2.589204e-008
-1.479538e-008
-6.877936e-009
-1.589651e-009
1.714365e-009
3.364016e-009
3.414690e-009
2.171031e-009
5.341526e-010
-3.955980e-010
-1.467221e-010
7.816243e-010
1.485895e-009
1.507374e-009
1.041096e-009
4.200260e-010
-3.129774e-010
-1.154730e-009
-1.669259e-009
-1.182424e-009
3.403866e-010
1.822148e-009
1.882967e-009
3.034290e-010
-1.501276e-009
-1.763570e-009
-2.028670e-010
1.579708e-009
1.711878e-009
2.585893e-011
-1.732213e-009
-2.843954e-009
7.779972e-010
3.750451e-009
2.723504e-009
-1.315092e-009
-4.325351e-009
-3.472372e-009
2.166307e-010
3.257150e-009
3.267273e-009
9.068640e-010
-1.363148e-009
-1.850198e-009
-7.876801e-010
5.830888e-010
1.424092e-009
1.642993e-009
1.320166e-009
4.033024e-010
-8.882637e-010
-1.725335e-009
-1.162704e-009
9.114132e-010
3.438429e-009
4.866482e-009
4.094678e-009
7.271674e-010
-5.431958e-009
-1.489160e-008
-2.842172e-008
-4.665469e-008
-6.991689e-008
-9.844818e-008
-1.326248e-007
-1.728295e-007
-2.190894e-007
-2.708802e-007
-3.272610e-007
-3.871284e-007
-4.493205e-007
-5.125615e-007
-5.754454e-007
-6.365627e-007
-6.946644e-007
-7.487072e-007
-7.977713e-007
-8.409826e-007
-8.775311e-007
-9.067383e-007
-9.280642e-007
-9.410350e-007
-9.451860e-007
-9.401049e-007
-9.255442e-007
-9.014845e-007
-8.681050e-007
-8.257487e-007
-7.749951e-007
-7.168087e-007
-6.525975e-007
-5.840887e-007
-5.131436e-007
-4.416976e-007
-3.718142e-007
-3.056177e-007
-2.449694e-007
-1.910965e-007
-1.445275e-007
-1.053702e-007
-7.356148e-008
-4.877259e-008
-3.016920e-008
-1.651564e-008
-6.717110e-009
-2.562462e-010
3.024301e-009
3.590270e-009
2.535676e-009
1.131381e-009
1.202313e-010
-4.188780e-010
-5.724783e-010
-2.275404e-010
6.249808e-010
1.415455e-009
1.256444e-009
-6.630754e-011
-1.524648e-009
-1.643839e-009
-5.562401e-011
1.889514e-009
2.319358e-009
7.335145e-010
-1.413431e-009
-2.136483e-009
-9.045509e-010
8.879568e-010
1.433602e-009
3.821483e-010
-9.001006e-010
-2.756456e-009
5.509060e-010
3.305002e-009
2.480477e-009
-1.004864e-009
-3.471645e-009
-2.448035e-009
8.419177e-010
2.942407e-009
1.819681e-009
-1.185844e-009
-2.950259e-009
-1.764111e-009
1.214538e-009
3.426516e-009
3.396943e-009
1.691278e-009
-1.497250e-010
-1.091629e-009
-9.952920e-010
-7.292562e-011
1.447341e-009
2.992795e-009
3.320556e-009
8.702993e-010
-5.512583e-009
-1.635309e-008
-3.209951e-008
-5.380159e-008
-8.316932e-008
-1.220315e-007
-1.718188e-007
-2.334701e-007
-3.075414e-007
-3.941095e-007
-4.924640e-007
-6.009471e-007
-7.171760e-007
-8.384664e-007
-9.621240e-007
-1.085504e-006
-1.206020e-006
-1.321260e-006
-1.429158e-006
-1.528050e-006
-1.616571e-006
-1.693537e-006
-1.757897e-006
-1.808771e-006
-1.845430e-006
-1.867225e-006
-1.873523e-006
-1.863754e-006
-1.837513e-006
-1.794620e-006
-1.735103e-006
-1.659235e-006
-1.567680e-006
-1.461702e-006
-1.343241e-006
-1.214811e-006
-1.079389e-006
-9.404236e-007
-8.018738e-007
-6.679784e-007
-5.427063e-007
-4.292029e-007
-3.295990e-007
-2.451399e-007
-1.762392e-007
-1.222785e-007
-8.149779e-008
-5.142613e-008
-2.971855e-008
-1.470658e-008
-5.217998e-009
-5.031823e-011
2.161319e-009
2.552896e-009
1.762506e-009
2.744843e-010
-1.069155e-009
-1.250360e-009
2.104574e-011
1.755248e-009
2.404578e-009
1.342023e-009
-4.584996e-010
-1.361753e-009
-6.898663e-010
6.789682e-010
1.303459e-009
6.339397e-010
-5.777222e-010
-1.184465e-009
-7.825533e-010
5.785195e-011
5.251335e-010
3.790274e-010
4.984588e-011
-1.649374e-009
-1.338876e-010
1.235786e-009
1.120353e-009
-1.235610e-010
-8.968462e-010
-1.766786e-010
1.237751e-009
1.497948e-009
-2.009352e-010
-2.478810e-009
-2.987937e-009
-8.406737e-010
2.339809e-009
3.934422e-009
2.844027e-009
4.144108e-010
-1.025650e-009
-3.178929e-010
1.800644e-009
3.687307e-009
4.025163e-009
2.021989e-009
-3.197857e-009
-1.298649e-008
-2.898264e-008
-5.291007e-008
-8.686880e-008
-1.337843e-007
-1.972953e-007
-2.809318e-007
-3.871786e-007
-5.170280e-007
-6.700090e-007
-8.442818e-007
-1.036618e-006
-1.242499e-006
-1.456581e-006
-1.673374e-006
-1.887783e-006
-2.095325e-006
-2.292157e-006
-2.475122e-006
-2.641826e-006
-2.790612e-006
-2.920378e-006
-3.030368e-006
-3.120037e-006
-3.189005e-006
-3.237002e-006
-3.263752e-006
-3.268891e-006
-3.251973e-006
-3.212516e-006
-3.150025e-006
-3.063973e-006
-2.953879e-006
-2.819547e-006
-2.661367e-006
-2.480525e-006
-2.279104e-006
-2.060240e-006
-1.828397e-006
-1.589504e-006
-1.350656e-006
-1.119346e-006
-9.026245e-007
-7.065174e-007
-5.356492e-007
-3.927772e-007
-2.782987e-007
-1.902151e-007
-1.248706e-007
-7.808248e-008
-4.589762e-008
-2.471255e-008
-1.125821e-008
-2.950930e-009
1.680180e-009
3.226601e-009
2.351941e-009
4.898006e-010
-6.182658e-010
-1.471733e-010
1.218667e-009
2.083964e-009
1.714926e-009
5.567598e-010
-4.659602e-010
-8.712420e-010
-7.688133e-010
-3.957655e-010
1.287524e-010
5.928299e-010
6.109261e-010
4.076782e-011
-6.404104e-010
-7.007289e-010
5.573282e-012
7.673579e-010
7.971415e-010
-5.436384e-010
-1.556438e-009
-1.043467e-009
5.155804e-010
1.717139e-009
1.737076e-009
8.236226e-010
-3.570862e-010
-1.316123e-009
-1.660128e-009
-9.977625e-010
5.718631e-010
2.035842e-009
2.114985e-009
6.516137e-010
-8.730172e-010
-5.966256e-010
1.819843e-009