# vtk DataFile Version 3.0
vtk output
ASCII
DATASET STRUCTURED_POINTS
DIMENSIONS 100 100 1
SPACING 1 1 1
ORIGIN 0 0 0
POINT_DATA 10000
SCALARS SFBox_profile double
LOOKUP_TABLE default 
9.439926e-003
9.439924e-003
9.439921e-003
9.439918e-003
9.439917e-003
9.439918e-003
9.439920e-003
9.439922e-003
9.439922e-003
9.439921e-003
9.439920e-003
9.439919e-003
9.439919e-003
9.439920e-003
9.439920e-003
9.439920e-003
9.439920e-003
9.439920e-003
9.439920e-003
9.439921e-003
9.439920e-003
9.439920e-003
9.439920e-003
9.439920e-003
9.439920e-003
9.439920e-003
9.439920e-003
9.439920e-003
9.439920e-003
9.439920e-003
9.439920e-003
9.439920e-003
9.439920e-003
9.439921e-003
9.439921e-003
9.439921e-003
9.439921e-003
9.439922e-003
9.439922e-003
9.439922e-003
9.439922e-003
9.439922e-003
9.439923e-003
9.439923e-003
9.439923e-003
9.439923e-003
9.439923e-003
9.439923e-003
9.439923e-003
9.439923e-003
9.439923e-003
9.439923e-003
9.439923e-003
9.439923e-003
9.439922e-003
9.439922e-003
9.439922e-003
9.439922e-003
9.439922e-003
9.439922e-003
9.439921e-003
9.439921e-003
9.439921e-003
9.439921e-003
9.439921e-003
9.439921e-003
9.439920e-003
9.439920e-003
9.439920e-003
9.439920e-003
9.439920e-003
9.439920e-003
9.439920e-003
9.439920e-003
9.439920e-003
9.439920e-003
9.439920e-003
9.439920e-003
9.439920e-003
9.439920e-003
9.439920e-003
9.439920e-003
9.439920e-003
9.439920e-003
9.439920e-003
9.439920e-003
9.439920e-003
9.439920e-003
9.439920e-003
9.439920e-003
9.439920e-003
9.439920e-003
9.439920e-003
9.439920e-003
9.439920e-003
9.439920e-003
9.439920e-003
9.439920e-003
9.439920e-003
9.439920e-003
9.439926e-003
9.439924e-003
9.439921e-003
9.439918e-003
9.439917e-003
9.439918e-003
9.439920e-003
9.439922e-003
9.439922e-003
9.439921e-003
9.439920e-003
9.439919e-003
9.439919e-003
9.439920e-003
9.439920e-003
9.439920e-003
9.439920e-003
9.439920e-003
9.439920e-003
9.439921e-003
9.439920e-003
9.439920e-003
9.439920e-003
9.439920e-003
9.439920e-003
9.439920e-003
9.439920e-003
9.439920e-003
9.439920e-003
9.439920e-003
9.439920e-003
9.439920e-003
9.439920e-003
9.439921e-003
9.439921e-003
9.439921e-003
9.439921e-003
9.439922e-003
9.439922e-003
9.439922e-003
9.439922e-003
9.439922e-003
9.439923e-003
9.439923e-003
9.439923e-003
9.439923e-003
9.439923e-003
9.439923e-003
9.439923e-003
9.439923e-003
9.439923e-003
9.439923e-003
9.439923e-003
9.439923e-003
9.439922e-003
9.439922e-003
9.439922e-003
9.439922e-003
9.439922e-003
9.439922e-003
9.439921e-003
9.439921e-003
9.439921e-003
9.439921e-003
9.439921e-003
9.439921e-003
9.439920e-003
9.439920e-003
9.439920e-003
9.439920e-003
9.439920e-003
9.439920e-003
9.439920e-003
9.439920e-003
9.439920e-003
9.439920e-003
9.439920e-003
9.439920e-003
9.439920e-003
9.439920e-003
9.439920e-003
9.439920e-003
9.439920e-003
9.439920e-003
9.439920e-003
9.439920e-003
9.439920e-003
9.439920e-003
9.439920e-003
9.439920e-003
9.439920e-003
9.439920e-003
9.439920e-003
9.439920e-003
9.439920e-003
9.439920e-003
9.439920e-003
9.439920e-003
9.439920e-003
9.439920e-003
9.439920e-003
9.439920e-003
9.439920e-003
9.439920e-003
9.439920e-003
9.439920e-003
9.439920e-003
9.439920e-003
9.439920e-003
9.439920e-003
9.439920e-003
9.439920e-003
9.439920e-003
9.439920e-003
9.439920e-003
9.439920e-003
9.439920e-003
9.439920e-003
9.439920e-003
9.439920e-003
9.439920e-003
9.439920e-003
9.439920e-003
9.439920e-003
9.439920e-003
9.439920e-003
9.439920e-003
9.439920e-003
9.439920e-003
9.439921e-003
9.439921e-003
9.439921e-003
9.439921e-003
9.439921e-003
9.439921e-003
9.439921e-003
9.439922e-003
9.439922e-003
9.439922e-003
9.439922e-003
9.439922e-003
9.439922e-003
9.439922e-003
9.439923e-003
9.439923e-003
9.439923e-003
9.439923e-003
9.439923e-003
9.439923e-003
9.439923e-003
9.439923e-003
9.439923e-003
9.439923e-003
9.439923e-003
9.439923e-003
9.439923e-003
9.439923e-003
9.439923e-003
9.439922e-003
9.439922e-003
9.439922e-003
9.439922e-003
9.439922e-003
9.439921e-003
9.439921e-003
9.439921e-003
9.439921e-003
9.439921e-003
9.439921e-003
9.439920e-003
9.439920e-003
9.439920e-003
9.439920e-003
9.439920e-003
9.439920e-003
9.439920e-003
9.439920e-003
9.439920e-003
9.439920e-003
9.439920e-003
9.439920e-003
9.439920e-003
9.439920e-003
9.439920e-003
9.439920e-003
9.439920e-003
9.439920e-003
9.439920e-003
9.439920e-003
9.439920e-003
9.439920e-003
9.439920e-003
9.439920e-003
9.439920e-003
9.439920e-003
9.439920e-003
9.439920e-003
9.439920e-003
9.439920e-003
9.439920e-003
9.439914e-003
9.439916e-003
9.439919e-003
9.439922e-003
9.439922e-003
9.439921e-003
9.439920e-003
9.439919e-003
9.439919e-003
9.439919e-003
9.439920e-003
9.439921e-003
9.439921e-003
9.439920e-003
9.439920e-003
9.439920e-003
9.439920e-003
9.439920e-003
9.439920e-003
9.439920e-003
9.439920e-003
9.439920e-003
9.439920e-003
9.439920e-003
9.439920e-003
9.439920e-003
9.439921e-003
9.439921e-003
9.439921e-003
9.439921e-003
9.439922e-003
9.439922e-003
9.439922e-003
9.439922e-003
9.439923e-003
9.439923e-003
9.439923e-003
9.439923e-003
9.439924e-003
9.439924e-003
9.439924e-003
9.439924e-003
9.439925e-003
9.439925e-003
9.439925e-003
9.439926e-003
9.439926e-003
9.439926e-003
9.439926e-003
9.439926e-003
9.439926e-003
9.439926e-003
9.439926e-003
9.439926e-003
9.439926e-003
9.439925e-003
9.439925e-003
9.439925e-003
9.439924e-003
9.439924e-003
9.439924e-003
9.439923e-003
9.439923e-003
9.439923e-003
9.439922e-003
9.439922e-003
9.439922e-003
9.439921e-003
9.439921e-003
9.439921e-003
9.439921e-003
9.439921e-003
9.439920e-003
9.439920e-003
9.439920e-003
9.439920e-003
9.439920e-003
9.439920e-003
9.439920e-003
9.439920e-003
9.439920e-003
9.439920e-003
9.439920e-003
9.439920e-003
9.439920e-003
9.439920e-003
9.439920e-003
9.439920e-003
9.439920e-003
9.439920e-003
9.439920e-003
9.439920e-003
9.439920e-003
9.439920e-003
9.439920e-003
9.439920e-003
9.439920e-003
9.439920e-003
9.439920e-003
9.439920e-003
9.439914e-003
9.439916e-003
9.439919e-003
9.439922e-003
9.439923e-003
9.439922e-003
9.439920e-003
9.439918e-003
9.439918e-003
9.439920e-003
9.439921e-003
9.439921e-003
9.439921e-003
9.439920e-003
9.439920e-003
9.439920e-003
9.439920e-003
9.439920e-003
9.439920e-003
9.439920e-003
9.439920e-003
9.439920e-003
9.439921e-003
9.439921e-003
9.439921e-003
9.439921e-003
9.439921e-003
9.439922e-003
9.439922e-003
9.439922e-003
9.439923e-003
9.439923e-003
9.439924e-003
9.439925e-003
9.439925e-003
9.439926e-003
9.439927e-003
9.439927e-003
9.439928e-003
9.439929e-003
9.439929e-003
9.439930e-003
9.439931e-003
9.439931e-003
9.439931e-003
9.439932e-003
9.439932e-003
9.439932e-003
9.439932e-003
9.439932e-003
9.439932e-003
9.439932e-003
9.439932e-003
9.439931e-003
9.439931e-003
9.439931e-003
9.439930e-003
9.439930e-003
9.439929e-003
9.439928e-003
9.439928e-003
9.439927e-003
9.439926e-003
9.439925e-003
9.439925e-003
9.439924e-003
9.439923e-003
9.439923e-003
9.439922e-003
9.439922e-003
9.439921e-003
9.439921e-003
9.439921e-003
9.439921e-003
9.439921e-003
9.439920e-003
9.439920e-003
9.439920e-003
9.439920e-003
9.439920e-003
9.439920e-003
9.439920e-003
9.439920e-003
9.439920e-003
9.439920e-003
9.439920e-003
9.439920e-003
9.439920e-003
9.439920e-003
9.439920e-003
9.439920e-003
9.439920e-003
9.439920e-003
9.439920e-003
9.439920e-003
9.439920e-003
9.439920e-003
9.439920e-003
9.439920e-003
9.439920e-003
9.439919e-003
9.439920e-003
9.439920e-003
9.439920e-003
9.439920e-003
9.439920e-003
9.439920e-003
9.439919e-003
9.439920e-003
9.439920e-003
9.439921e-003
9.439921e-003
9.439920e-003
9.439919e-003
9.439919e-003
9.439920e-003
9.439920e-003
9.439921e-003
9.439920e-003
9.439920e-003
9.439920e-003
9.439921e-003
9.439921e-003
9.439921e-003
9.439921e-003
9.439922e-003
9.439922e-003
9.439923e-003
9.439924e-003
9.439925e-003
9.439926e-003
9.439927e-003
9.439928e-003
9.439929e-003
9.439930e-003
9.439931e-003
9.439933e-003
9.439934e-003
9.439935e-003
9.439936e-003
9.439937e-003
9.439938e-003
9.439938e-003
9.439939e-003
9.439939e-003
9.439940e-003
9.439940e-003
9.439940e-003
9.439940e-003
9.439940e-003
9.439940e-003
9.439940e-003
9.439939e-003
9.439939e-003
9.439938e-003
9.439938e-003
9.439937e-003
9.439936e-003
9.439935e-003
9.439934e-003
9.439933e-003
9.439932e-003
9.439931e-003
9.439930e-003
9.439929e-003
9.439928e-003
9.439926e-003
9.439925e-003
9.439925e-003
9.439924e-003
9.439923e-003
9.439922e-003
9.439922e-003
9.439921e-003
9.439921e-003
9.439921e-003
9.439921e-003
9.439920e-003
9.439920e-003
9.439920e-003
9.439920e-003
9.439920e-003
9.439920e-003
9.439920e-003
9.439920e-003
9.439920e-003
9.439920e-003
9.439920e-003
9.439920e-003
9.439920e-003
9.439920e-003
9.439920e-003
9.439920e-003
9.439920e-003
9.439920e-003
9.439920e-003
9.439920e-003
9.439920e-003
9.439920e-003
9.439920e-003
9.439926e-003
9.439924e-003
9.439920e-003
9.439918e-003
9.439918e-003
9.439919e-003
9.439920e-003
9.439921e-003
9.439921e-003
9.439921e-003
9.439920e-003
9.439920e-003
9.439919e-003
9.439919e-003
9.439920e-003
9.439920e-003
9.439921e-003
9.439921e-003
9.439921e-003
9.439921e-003
9.439921e-003
9.439921e-003
9.439922e-003
9.439922e-003
9.439923e-003
9.439924e-003
9.439925e-003
9.439926e-003
9.439928e-003
9.439929e-003
9.439930e-003
9.439932e-003
9.439934e-003
9.439935e-003
9.439937e-003
9.439938e-003
9.439940e-003
9.439941e-003
9.439942e-003
9.439943e-003
9.439944e-003
9.439944e-003
9.439945e-003
9.439945e-003
9.439946e-003
9.439946e-003
9.439946e-003
9.439946e-003
9.439946e-003
9.439946e-003
9.439946e-003
9.439945e-003
9.439945e-003
9.439945e-003
9.439944e-003
9.439944e-003
9.439943e-003
9.439943e-003
9.439942e-003
9.439941e-003
9.439940e-003
9.439939e-003
9.439938e-003
9.439936e-003
9.439935e-003
9.439933e-003
9.439931e-003
9.439930e-003
9.439928e-003
9.439927e-003
9.439926e-003
9.439924e-003
9.439923e-003
9.439923e-003
9.439922e-003
9.439921e-003
9.439921e-003
9.439921e-003
9.439921e-003
9.439921e-003
9.439920e-003
9.439920e-003
9.439920e-003
9.439920e-003
9.439920e-003
9.439920e-003
9.439920e-003
9.439920e-003
9.439920e-003
9.439920e-003
9.439920e-003
9.439920e-003
9.439920e-003
9.439920e-003
9.439920e-003
9.439920e-003
9.439920e-003
9.439920e-003
9.439920e-003
9.439920e-003
9.439927e-003
9.439924e-003
9.439920e-003
9.439918e-003
9.439917e-003
9.439919e-003
9.439921e-003
9.439922e-003
9.439921e-003
9.439920e-003
9.439919e-003
9.439919e-003
9.439920e-003
9.439920e-003
9.439920e-003
9.439921e-003
9.439921e-003
9.439921e-003
9.439921e-003
9.439921e-003
9.439922e-003
9.439922e-003
9.439923e-003
9.439925e-003
9.439926e-003
9.439928e-003
9.439930e-003
9.439932e-003
9.439934e-003
9.439936e-003
9.439938e-003
9.439940e-003
9.439942e-003
9.439943e-003
9.439944e-003
9.439945e-003
9.439946e-003
9.439946e-003
9.439946e-003
9.439946e-003
9.439945e-003
9.439944e-003
9.439944e-003
9.439943e-003
9.439942e-003
9.439941e-003
9.439940e-003
9.439939e-003
9.439939e-003
9.439938e-003
9.439938e-003
9.439938e-003
9.439938e-003
9.439939e-003
9.439939e-003
9.439940e-003
9.439941e-003
9.439942e-003
9.439943e-003
9.439943e-003
9.439943e-003
9.439943e-003
9.439943e-003
9.439942e-003
9.439941e-003
9.439940e-003
9.439938e-003
9.439936e-003
9.439934e-003
9.439932e-003
9.439930e-003
9.439928e-003
9.439927e-003
9.439925e-003
9.439924e-003
9.439923e-003
9.439922e-003
9.439921e-003
9.439921e-003
9.439921e-003
9.439920e-003
9.439920e-003
9.439920e-003
9.439920e-003
9.439920e-003
9.439920e-003
9.439920e-003
9.439920e-003
9.439920e-003
9.439920e-003
9.439920e-003
9.439920e-003
9.439920e-003
9.439920e-003
9.439920e-003
9.439920e-003
9.439920e-003
9.439920e-003
9.439920e-003
9.439920e-003
9.439922e-003
9.439921e-003
9.439920e-003
9.439919e-003
9.439919e-003
9.439920e-003
9.439921e-003
9.439921e-003
9.439920e-003
9.439919e-003
9.439919e-003
9.439919e-003
9.439921e-003
9.439921e-003
9.439921e-003
9.439921e-003
9.439920e-003
9.439921e-003
9.439922e-003
9.439923e-003
9.439924e-003
9.439925e-003
9.439927e-003
9.439929e-003
9.439931e-003
9.439934e-003
9.439936e-003
9.439939e-003
9.439941e-003
9.439943e-003
9.439945e-003
9.439946e-003
9.439947e-003
9.439946e-003
9.439945e-003
9.439943e-003
9.439940e-003
9.439936e-003
9.439931e-003
9.439926e-003
9.439920e-003
9.439914e-003
9.439909e-003
9.439903e-003
9.439897e-003
9.439893e-003
9.439888e-003
9.439885e-003
9.439883e-003
9.439881e-003
9.439881e-003
9.439882e-003
9.439885e-003
9.439888e-003
9.439892e-003
9.439897e-003
9.439903e-003
9.439909e-003
9.439915e-003
9.439921e-003
9.439927e-003
9.439932e-003
9.439936e-003
9.439939e-003
9.439941e-003
9.439942e-003
9.439943e-003
9.439942e-003
9.439940e-003
9.439938e-003
9.439936e-003
9.439934e-003
9.439931e-003
9.439929e-003
9.439927e-003
9.439925e-003
9.439924e-003
9.439923e-003
9.439922e-003
9.439921e-003
9.439921e-003
9.439920e-003
9.439920e-003
9.439921e-003
9.439920e-003
9.439920e-003
9.439920e-003
9.439920e-003
9.439920e-003
9.439920e-003
9.439920e-003
9.439920e-003
9.439920e-003
9.439920e-003
9.439920e-003
9.439920e-003
9.439920e-003
9.439920e-003
9.439920e-003
9.439920e-003
9.439916e-003
9.439917e-003
9.439920e-003
9.439921e-003
9.439921e-003
9.439921e-003
9.439920e-003
9.439920e-003
9.439919e-003
9.439919e-003
9.439920e-003
9.439920e-003
9.439921e-003
9.439921e-003
9.439921e-003
9.439921e-003
9.439921e-003
9.439922e-003
9.439924e-003
9.439925e-003
9.439927e-003
9.439929e-003
9.439932e-003
9.439935e-003
9.439938e-003
9.439941e-003
9.439944e-003
9.439946e-003
9.439947e-003
9.439947e-003
9.439945e-003
9.439941e-003
9.439935e-003
9.439927e-003
9.439916e-003
9.439902e-003
9.439886e-003
9.439868e-003
9.439849e-003
9.439829e-003
9.439808e-003
9.439786e-003
9.439766e-003
9.439746e-003
9.439728e-003
9.439712e-003
9.439698e-003
9.439688e-003
9.439681e-003
9.439677e-003
9.439677e-003
9.439682e-003
9.439689e-003
9.439701e-003
9.439716e-003
9.439734e-003
9.439754e-003
9.439776e-003
9.439799e-003
9.439822e-003
9.439844e-003
9.439865e-003
9.439884e-003
9.439901e-003
9.439915e-003
9.439926e-003
9.439934e-003
9.439939e-003
9.439942e-003
9.439942e-003
9.439942e-003
9.439940e-003
9.439937e-003
9.439935e-003
9.439932e-003
9.439929e-003
9.439927e-003
9.439925e-003
9.439924e-003
9.439922e-003
9.439921e-003
9.439921e-003
9.439921e-003
9.439921e-003
9.439921e-003
9.439920e-003
9.439920e-003
9.439920e-003
9.439920e-003
9.439920e-003
9.439920e-003
9.439920e-003
9.439920e-003
9.439920e-003
9.439920e-003
9.439920e-003
9.439920e-003
9.439920e-003
9.439920e-003
9.439920e-003
9.439913e-003
9.439916e-003
9.439920e-003
9.439922e-003
9.439922e-003
9.439921e-003
9.439919e-003
9.439919e-003
9.439919e-003
9.439920e-003
9.439921e-003
9.439921e-003
9.439921e-003
9.439921e-003
9.439921e-003
9.439922e-003
9.439923e-003
9.439925e-003
9.439927e-003
9.439930e-003
9.439933e-003
9.439936e-003
9.439939e-003
9.439943e-003
9.439946e-003
9.439948e-003
9.439948e-003
9.439946e-003
9.439940e-003
9.439930e-003
9.439914e-003
9.439893e-003
9.439865e-003
9.439831e-003
9.439791e-003
9.439745e-003
9.439693e-003
9.439637e-003
9.439577e-003
9.439516e-003
9.439453e-003
9.439392e-003
9.439333e-003
9.439278e-003
9.439227e-003
9.439183e-003
9.439146e-003
9.439118e-003
9.439099e-003
9.439091e-003
9.439092e-003
9.439104e-003
9.439127e-003
9.439160e-003
9.439203e-003
9.439253e-003
9.439311e-003
9.439374e-003
9.439441e-003
9.439509e-003
9.439577e-003
9.439642e-003
9.439703e-003
9.439758e-003
9.439806e-003
9.439846e-003
9.439878e-003
9.439903e-003
9.439921e-003
9.439933e-003
9.439939e-003
9.439942e-003
9.439942e-003
9.439940e-003
9.439938e-003
9.439935e-003
9.439932e-003
9.439929e-003
9.439927e-003
9.439925e-003
9.439923e-003
9.439922e-003
9.439921e-003
9.439921e-003
9.439920e-003
9.439920e-003
9.439920e-003
9.439920e-003
9.439920e-003
9.439920e-003
9.439920e-003
9.439920e-003
9.439920e-003
9.439920e-003
9.439920e-003
9.439920e-003
9.439920e-003
9.439920e-003
9.439920e-003
9.439920e-003
9.439916e-003
9.439918e-003
9.439920e-003
9.439922e-003
9.439921e-003
9.439920e-003
9.439918e-003
9.439919e-003
9.439920e-003
9.439921e-003
9.439922e-003
9.439921e-003
9.439920e-003
9.439921e-003
9.439922e-003
9.439924e-003
9.439926e-003
9.439929e-003
9.439932e-003
9.439936e-003
9.439940e-003
9.439944e-003
9.439947e-003
9.439949e-003
9.439949e-003
9.439944e-003
9.439933e-003
9.439914e-003
9.439885e-003
9.439845e-003
9.439790e-003
9.439720e-003
9.439634e-003
9.439533e-003
9.439416e-003
9.439285e-003
9.439142e-003
9.438990e-003
9.438832e-003
9.438670e-003
9.438509e-003
9.438352e-003
9.438201e-003
9.438062e-003
9.437935e-003
9.437826e-003
9.437735e-003
9.437666e-003
9.437620e-003
9.437600e-003
9.437605e-003
9.437637e-003
9.437695e-003
9.437778e-003
9.437885e-003
9.438014e-003
9.438162e-003
9.438324e-003
9.438496e-003
9.438674e-003
9.438852e-003
9.439026e-003
9.439190e-003
9.439342e-003
9.439477e-003
9.439595e-003
9.439692e-003
9.439771e-003
9.439832e-003
9.439876e-003
9.439907e-003
9.439927e-003
9.439937e-003
9.439942e-003
9.439942e-003
9.439940e-003
9.439937e-003
9.439934e-003
9.439931e-003
9.439928e-003
9.439926e-003
9.439924e-003
9.439922e-003
9.439921e-003
9.439921e-003
9.439920e-003
9.439920e-003
9.439920e-003
9.439920e-003
9.439920e-003
9.439920e-003
9.439920e-003
9.439920e-003
9.439920e-003
9.439920e-003
9.439920e-003
9.439920e-003
9.439920e-003
9.439920e-003
9.439920e-003
9.439921e-003
9.439921e-003
9.439921e-003
9.439920e-003
9.439919e-003
9.439919e-003
9.439919e-003
9.439920e-003
9.439921e-003
9.439922e-003
9.439922e-003
9.439921e-003
9.439921e-003
9.439922e-003
9.439925e-003
9.439928e-003
9.439931e-003
9.439935e-003
9.439939e-003
9.439943e-003
9.439947e-003
9.439950e-003
9.439950e-003
9.439944e-003
9.439929e-003
9.439901e-003
9.439857e-003
9.439791e-003
9.439699e-003
9.439578e-003
9.439422e-003
9.439230e-003
9.439001e-003
9.438736e-003
9.438437e-003
9.438107e-003
9.437753e-003
9.437380e-003
9.436996e-003
9.436608e-003
9.436224e-003
9.435851e-003
9.435499e-003
9.435173e-003
9.434880e-003
9.434627e-003
9.434419e-003
9.434261e-003
9.434157e-003
9.434111e-003
9.434125e-003
9.434199e-003
9.434335e-003
9.434529e-003
9.434780e-003
9.435081e-003
9.435427e-003
9.435809e-003
9.436218e-003
9.436644e-003
9.437073e-003
9.437496e-003
9.437902e-003
9.438280e-003
9.438622e-003
9.438924e-003
9.439182e-003
9.439394e-003
9.439564e-003
9.439694e-003
9.439789e-003
9.439855e-003
9.439898e-003
9.439924e-003
9.439937e-003
9.439942e-003
9.439942e-003
9.439940e-003
9.439936e-003
9.439933e-003
9.439930e-003
9.439927e-003
9.439925e-003
9.439923e-003
9.439921e-003
9.439921e-003
9.439921e-003
9.439921e-003
9.439921e-003
9.439920e-003
9.439920e-003
9.439920e-003
9.439920e-003
9.439920e-003
9.439920e-003
9.439920e-003
9.439920e-003
9.439920e-003
9.439920e-003
9.439920e-003
9.439926e-003
9.439923e-003
9.439920e-003
9.439918e-003
9.439918e-003
9.439920e-003
9.439921e-003
9.439921e-003
9.439921e-003
9.439921e-003
9.439921e-003
9.439922e-003
9.439923e-003
9.439926e-003
9.439929e-003
9.439933e-003
9.439938e-003
9.439942e-003
9.439947e-003
9.439951e-003
9.439952e-003
9.439946e-003
9.439930e-003
9.439897e-003
9.439840e-003
9.439750e-003
9.439619e-003
9.439435e-003
9.439188e-003
9.438871e-003
9.438477e-003
9.438002e-003
9.437446e-003
9.436811e-003
9.436105e-003
9.435337e-003
9.434520e-003
9.433669e-003
9.432801e-003
9.431932e-003
9.431078e-003
9.430256e-003
9.429482e-003
9.428771e-003
9.428136e-003
9.427590e-003
9.427142e-003
9.426804e-003
9.426584e-003
9.426488e-003
9.426520e-003
9.426683e-003
9.426978e-003
9.427400e-003
9.427946e-003
9.428603e-003
9.429361e-003
9.430203e-003
9.431109e-003
9.432057e-003
9.433022e-003
9.433981e-003
9.434909e-003
9.435784e-003
9.436587e-003
9.437303e-003
9.437924e-003
9.438446e-003
9.438870e-003
9.439204e-003
9.439456e-003
9.439639e-003
9.439766e-003
9.439849e-003
9.439899e-003
9.439927e-003
9.439939e-003
9.439943e-003
9.439942e-003
9.439938e-003
9.439934e-003
9.439931e-003
9.439928e-003
9.439925e-003
9.439923e-003
9.439922e-003
9.439921e-003
9.439921e-003
9.439920e-003
9.439920e-003
9.439920e-003
9.439920e-003
9.439920e-003
9.439920e-003
9.439920e-003
9.439920e-003
9.439920e-003
9.439920e-003
9.439920e-003
9.439920e-003
9.439926e-003
9.439923e-003
9.439919e-003
9.439918e-003
9.439919e-003
9.439921e-003
9.439922e-003
9.439922e-003
9.439920e-003
9.439920e-003
9.439922e-003
9.439924e-003
9.439927e-003
9.439931e-003
9.439935e-003
9.439940e-003
9.439945e-003
9.439950e-003
9.439953e-003
9.439950e-003
9.439937e-003
9.439905e-003
9.439844e-003
9.439740e-003
9.439577e-003
9.439336e-003
9.438996e-003
9.438537e-003
9.437938e-003
9.437184e-003
9.436263e-003
9.435170e-003
9.433909e-003
9.432490e-003
9.430930e-003
9.429255e-003
9.427493e-003
9.425677e-003
9.423842e-003
9.422021e-003
9.420249e-003
9.418558e-003
9.416978e-003
9.415535e-003
9.414255e-003
9.413159e-003
9.412268e-003
9.411598e-003
9.411164e-003
9.410979e-003
9.411049e-003
9.411381e-003
9.411975e-003
9.412827e-003
9.413928e-003
9.415261e-003
9.416805e-003
9.418529e-003
9.420398e-003
9.422370e-003
9.424397e-003
9.426429e-003
9.428417e-003
9.430312e-003
9.432071e-003
9.433661e-003
9.435058e-003
9.436250e-003
9.437234e-003
9.438022e-003
9.438631e-003
9.439084e-003
9.439408e-003
9.439629e-003
9.439773e-003
9.439861e-003
9.439910e-003
9.439933e-003
9.439942e-003
9.439943e-003
9.439940e-003
9.439936e-003
9.439932e-003
9.439928e-003
9.439926e-003
9.439923e-003
9.439922e-003
9.439921e-003
9.439920e-003
9.439920e-003
9.439920e-003
9.439920e-003
9.439920e-003
9.439920e-003
9.439920e-003
9.439920e-003
9.439920e-003
9.439920e-003
9.439920e-003
9.439920e-003
9.439922e-003
9.439921e-003
9.439919e-003
9.439918e-003
9.439920e-003
9.439922e-003
9.439922e-003
9.439921e-003
9.439920e-003
9.439921e-003
9.439924e-003
9.439928e-003
9.439932e-003
9.439936e-003
9.439942e-003
9.439947e-003
9.439953e-003
9.439954e-003
9.439947e-003
9.439922e-003
9.439867e-003
9.439765e-003
9.439593e-003
9.439320e-003
9.438912e-003
9.438328e-003
9.437528e-003
9.436468e-003
9.435113e-003
9.433435e-003
9.431418e-003
9.429061e-003
9.426381e-003
9.423408e-003
9.420188e-003
9.416778e-003
9.413241e-003
9.409645e-003
9.406058e-003
9.402546e-003
9.399170e-003
9.395986e-003
9.393043e-003
9.390385e-003
9.388050e-003
9.386071e-003
9.384475e-003
9.383288e-003
9.382529e-003
9.382216e-003
9.382361e-003
9.382974e-003
9.384058e-003
9.385610e-003
9.387620e-003
9.390068e-003
9.392921e-003
9.396139e-003
9.399662e-003
9.403423e-003
9.407340e-003
9.411321e-003
9.415270e-003
9.419090e-003
9.422692e-003
9.425996e-003
9.428943e-003
9.431495e-003
9.433637e-003
9.435380e-003
9.436749e-003
9.437788e-003
9.438548e-003
9.439082e-003
9.439440e-003
9.439670e-003
9.439809e-003
9.439886e-003
9.439925e-003
9.439940e-003
9.439944e-003
9.439941e-003
9.439937e-003
9.439932e-003
9.439929e-003
9.439926e-003
9.439924e-003
9.439922e-003
9.439921e-003
9.439920e-003
9.439920e-003
9.439921e-003
9.439920e-003
9.439920e-003
9.439920e-003
9.439920e-003
9.439920e-003
9.439920e-003
9.439920e-003
9.439920e-003
9.439919e-003
9.439919e-003
9.439919e-003
9.439920e-003
9.439921e-003
9.439921e-003
9.439921e-003
9.439921e-003
9.439922e-003
9.439924e-003
9.439928e-003
9.439933e-003
9.439938e-003
9.439944e-003
9.439950e-003
9.439955e-003
9.439955e-003
9.439941e-003
9.439902e-003
9.439819e-003
9.439663e-003
9.439397e-003
9.438972e-003
9.438326e-003
9.437387e-003
9.436075e-003
9.434310e-003
9.432017e-003
9.429134e-003
9.425625e-003
9.421481e-003
9.416727e-003
9.411421e-003
9.405651e-003
9.399529e-003
9.393181e-003
9.386741e-003
9.380339e-003
9.374096e-003
9.368121e-003
9.362506e-003
9.357327e-003
9.352644e-003
9.348505e-003
9.344944e-003
9.341988e-003
9.339653e-003
9.337957e-003
9.336909e-003
9.336522e-003
9.336805e-003
9.337772e-003
9.339432e-003
9.341795e-003
9.344867e-003
9.348643e-003
9.353110e-003
9.358234e-003
9.363960e-003
9.370209e-003
9.376871e-003
9.383811e-003
9.390866e-003
9.397861e-003
9.404615e-003
9.410954e-003
9.416733e-003
9.421841e-003
9.426214e-003
9.429835e-003
9.432734e-003
9.434973e-003
9.436640e-003
9.437836e-003
9.438659e-003
9.439202e-003
9.439543e-003
9.439746e-003
9.439858e-003
9.439914e-003
9.439937e-003
9.439944e-003
9.439942e-003
9.439938e-003
9.439933e-003
9.439929e-003
9.439926e-003
9.439924e-003
9.439922e-003
9.439921e-003
9.439921e-003
9.439921e-003
9.439920e-003
9.439920e-003
9.439920e-003
9.439920e-003
9.439920e-003
9.439920e-003
9.439920e-003
9.439920e-003
9.439916e-003
9.439918e-003
9.439921e-003
9.439922e-003
9.439921e-003
9.439920e-003
9.439921e-003
9.439922e-003
9.439925e-003
9.439929e-003
9.439933e-003
9.439938e-003
9.439945e-003
9.439952e-003
9.439956e-003
9.439954e-003
9.439934e-003
9.439880e-003
9.439763e-003
9.439543e-003
9.439162e-003
9.438542e-003
9.437581e-003
9.436158e-003
9.434131e-003
9.431355e-003
9.427689e-003
9.423016e-003
9.417262e-003
9.410412e-003
9.402520e-003
9.393712e-003
9.384181e-003
9.374165e-003
9.363934e-003
9.353761e-003
9.343900e-003
9.334573e-003
9.325955e-003
9.318171e-003
9.311299e-003
9.305370e-003
9.300382e-003
9.296301e-003
9.293075e-003
9.290634e-003
9.288906e-003
9.287818e-003
9.287307e-003
9.287326e-003
9.287849e-003
9.288876e-003
9.290435e-003
9.292585e-003
9.295407e-003
9.298999e-003
9.303469e-003
9.308915e-003
9.315411e-003
9.322987e-003
9.331614e-003
9.341185e-003
9.351510e-003
9.362323e-003
9.373295e-003
9.384066e-003
9.394284e-003
9.403637e-003
9.411894e-003
9.418918e-003
9.424675e-003
9.429218e-003
9.432669e-003
9.435191e-003
9.436963e-003
9.438157e-003
9.438928e-003
9.439402e-003
9.439678e-003
9.439829e-003
9.439903e-003
9.439934e-003
9.439943e-003
9.439942e-003
9.439938e-003
9.439933e-003
9.439929e-003
9.439926e-003
9.439923e-003
9.439922e-003
9.439921e-003
9.439920e-003
9.439920e-003
9.439920e-003
9.439920e-003
9.439920e-003
9.439920e-003
9.439920e-003
9.439920e-003
9.439920e-003
9.439916e-003
9.439919e-003
9.439922e-003
9.439923e-003
9.439921e-003
9.439920e-003
9.439921e-003
9.439924e-003
9.439929e-003
9.439934e-003
9.439939e-003
9.439945e-003
9.439953e-003
9.439958e-003
9.439954e-003
9.439928e-003
9.439858e-003
9.439706e-003
9.439416e-003
9.438904e-003
9.438054e-003
9.436708e-003
9.434671e-003
9.431713e-003
9.427585e-003
9.422044e-003
9.414889e-003
9.406001e-003
9.395386e-003
9.383201e-003
9.369770e-003
9.355564e-003
9.341166e-003
9.327209e-003
9.314316e-003
9.303033e-003
9.293780e-003
9.286824e-003
9.282272e-003
9.280073e-003
9.280047e-003
9.281908e-003
9.285296e-003
9.289797e-003
9.294971e-003
9.300369e-003
9.305551e-003
9.310113e-003
9.313699e-003
9.316031e-003
9.316927e-003
9.316318e-003
9.314265e-003
9.310963e-003
9.306748e-003
9.302080e-003
9.297524e-003
9.293714e-003
9.291301e-003
9.290897e-003
9.292998e-003
9.297915e-003
9.305717e-003
9.316199e-003
9.328888e-003
9.343092e-003
9.357990e-003
9.372744e-003
9.386603e-003
9.398990e-003
9.409553e-003
9.418161e-003
9.424877e-003
9.429899e-003
9.433501e-003
9.435979e-003
9.437612e-003
9.438643e-003
9.439262e-003
9.439615e-003
9.439803e-003
9.439894e-003
9.439932e-003
9.439943e-003
9.439943e-003
9.439938e-003
9.439933e-003
9.439929e-003
9.439926e-003
9.439923e-003
9.439922e-003
9.439921e-003
9.439920e-003
9.439920e-003
9.439920e-003
9.439920e-003
9.439920e-003
9.439920e-003
9.439920e-003
9.439920e-003
9.439917e-003
9.439919e-003
9.439922e-003
9.439923e-003
9.439921e-003
9.439921e-003
9.439923e-003
9.439928e-003
9.439934e-003
9.439940e-003
9.439946e-003
9.439953e-003
9.439959e-003
9.439955e-003
9.439925e-003
9.439841e-003
9.439657e-003
9.439299e-003
9.438653e-003
9.437553e-003
9.435773e-003
9.433018e-003
9.428933e-003
9.423122e-003
9.415197e-003
9.404845e-003
9.391923e-003
9.376555e-003
9.359219e-003
9.340788e-003
9.322505e-003
9.305891e-003
9.292589e-003
9.284175e-003
9.281974e-003
9.286912e-003
9.299426e-003
9.319436e-003
9.346378e-003
9.379284e-003
9.416879e-003
9.457679e-003
9.500083e-003
9.542438e-003
9.583092e-003
9.620437e-003
9.652950e-003
9.679241e-003
9.698098e-003
9.708552e-003
9.709926e-003
9.701902e-003
9.684564e-003
9.658442e-003
9.624531e-003
9.584295e-003
9.539629e-003
9.492791e-003
9.446286e-003
9.402699e-003
9.364481e-003
9.333704e-003
9.311831e-003
9.299519e-003
9.296537e-003
9.301806e-003
9.313575e-003
9.329703e-003
9.347983e-003
9.366448e-003
9.383586e-003
9.398430e-003
9.410546e-003
9.419922e-003
9.426833e-003
9.431697e-003
9.434972e-003
9.437081e-003
9.438380e-003
9.439142e-003
9.439565e-003
9.439785e-003
9.439889e-003
9.439931e-003
9.439943e-003
9.439942e-003