# vtk DataFile Version 3.0
vtk output
ASCII
DATASET STRUCTURED_POINTS
DIMENSIONS 100 100 1
SPACING 1 1 1
ORIGIN 0 0 0
POINT_DATA 10000
SCALARS SFBox_profile double
LOOKUP_TABLE default 
0.000000e+000
0.000000e+000
0.000000e+000
0.000000e+000
0.000000e+000
0.000000e+000
0.000000e+000
0.000000e+000
0.000000e+000
0.000000e+000
0.000000e+000
0.000000e+000
0.000000e+000
0.000000e+000
0.000000e+000
0.000000e+000
0.000000e+000
0.000000e+000
0.000000e+000
0.000000e+000
0.000000e+000
0.000000e+000
0.000000e+000
0.000000e+000
0.000000e+000
0.000000e+000
0.000000e+000
0.000000e+000
0.000000e+000
0.000000e+000
0.000000e+000
0.000000e+000
0.000000e+000
0.000000e+000
0.000000e+000
0.000000e+000
0.000000e+000
0.000000e+000
0.000000e+000
0.000000e+000
0.000000e+000
0.000000e+000
0.000000e+000
0.000000e+000
0.000000e+000
0.000000e+000
0.000000e+000
0.000000e+000
0.000000e+000
0.000000e+000
0.000000e+000
0.000000e+000
0.000000e+000
0.000000e+000
0.000000e+000
0.000000e+000
0.000000e+000
0.000000e+000
0.000000e+000
0.000000e+000
0.000000e+000
0.000000e+000
0.000000e+000
0.000000e+000
0.000000e+000
0.000000e+000
0.000000e+000
0.000000e+000
0.000000e+000
0.000000e+000
0.000000e+000
0.000000e+000
0.000000e+000
0.000000e+000
0.000000e+000
0.000000e+000
0.000000e+000
0.000000e+000
0.000000e+000
0.000000e+000
0.000000e+000
0.000000e+000
0.000000e+000
0.000000e+000
0.000000e+000
0.000000e+000
0.000000e+000
0.000000e+000
0.000000e+000
0.000000e+000
0.000000e+000
0.000000e+000
0.000000e+000
0.000000e+000
0.000000e+000
0.000000e+000
0.000000e+000
0.000000e+000
0.000000e+000
0.000000e+000
2.660758e-010
1.530156e-010
-1.191105e-011
-1.507399e-010
-2.079324e-010
-1.739367e-010
-8.235846e-011
1.462710e-011
7.623682e-011
9.078691e-011
7.259468e-011
4.385599e-011
1.679933e-011
-1.033153e-011
-4.187494e-011
-6.979637e-011
-7.128072e-011
-2.524684e-011
6.345489e-011
1.539091e-010
1.874956e-010
1.275971e-010
-6.819412e-012
-1.423496e-010
-1.933145e-010
-1.201702e-010
3.673509e-011
1.763693e-010
2.015408e-010
8.654425e-011
-1.011208e-010
-2.439590e-010
-2.543714e-010
-1.341256e-010
2.988938e-011
1.296158e-010
1.106969e-010
3.146010e-012
-1.107050e-010
-1.610721e-010
-1.366446e-010
-7.994880e-011
-4.397205e-011
-5.105719e-011
-8.710120e-011
-1.279670e-010
-1.660717e-010
-2.100457e-010
-2.625720e-010
-3.061145e-010
-3.166787e-010
-2.924777e-010
-2.642558e-010
-2.707046e-010
-3.198336e-010
-3.750243e-010
-3.824995e-010
-3.168886e-010
-2.037681e-010
-9.919719e-011
-4.498207e-011
-3.834543e-011
-3.938278e-011
-6.316153e-012
7.222885e-011
1.720813e-010
2.555048e-010
2.997600e-010
3.099509e-010
3.086906e-010
3.129607e-010
3.168839e-010
2.936493e-010
2.152859e-010
7.596732e-011
-9.803415e-011
-2.589529e-010
-3.616115e-010
-3.851106e-010
-3.386688e-010
-2.495684e-010
-1.437829e-010
-3.393774e-011
7.747636e-011
1.844556e-010
2.669319e-010
2.945930e-010
2.448295e-010
1.225017e-010
-3.396869e-011
-1.669900e-010
-2.274014e-010
-1.988928e-010
-1.048951e-010
5.404129e-012
8.293446e-011
1.017738e-010
6.814011e-011
1.284465e-011
-2.693312e-011
1.718958e-010
9.698270e-011
-1.452463e-011
-1.121657e-010
-1.565584e-010
-1.356637e-010
-6.688855e-011
1.487179e-011
7.597483e-011
9.912320e-011
8.711766e-011
5.510890e-011
1.841659e-011
-1.497017e-011
-4.270678e-011
-6.078899e-011
-5.952674e-011
-2.926393e-011
2.712966e-011
8.649835e-011
1.131165e-010
8.143183e-011
-8.870617e-013
-8.919806e-011
-1.258305e-010
-7.929862e-011
2.837860e-011
1.290875e-010
1.507334e-010
6.745551e-011
-7.822848e-011
-2.002896e-010
-2.261588e-010
-1.456688e-010
-1.613659e-011
8.020392e-011
9.415575e-011
3.973507e-011
-2.343896e-011
-3.827357e-011
1.020661e-011
9.222709e-011
1.638409e-010
2.009953e-010
2.090773e-010
2.058430e-010
2.001698e-010
1.889792e-010
1.717519e-010
1.614223e-010
1.750293e-010
2.121843e-010
2.465675e-010
2.448521e-010
1.981168e-010
1.347674e-010
9.964606e-011
1.164449e-010
1.670186e-010
2.059192e-010
1.968511e-010
1.394411e-010
6.547880e-011
1.113752e-011
-9.987493e-012
-1.231281e-011
-2.117795e-011
-4.982270e-011
-8.897090e-011
-1.153538e-010
-1.107780e-010
-7.664880e-011
-3.345044e-011
-6.301420e-012
-7.692691e-012
-2.990752e-011
-5.195330e-011
-5.526903e-011
-3.662448e-011
-9.192742e-012
8.514094e-012
7.140990e-012
-6.484474e-012
-1.491162e-011
-3.873127e-012
2.615987e-011
5.923242e-011
7.448413e-011
6.027455e-011
2.183029e-011
-2.246518e-011
-5.271536e-011
-5.868927e-011
-4.356903e-011
-1.921850e-011
2.263811e-012
1.461576e-011
1.823878e-011
1.715103e-011
1.546840e-011
6.244892e-012
-7.966648e-013
-1.577951e-011
-3.635910e-011
-5.355632e-011
-5.463966e-011
-3.141408e-011
1.209640e-011
5.912183e-011
8.846618e-011
8.671654e-011
5.628422e-011
1.358858e-011
-2.145545e-011
-3.734553e-011
-3.585472e-011
-2.699748e-011
-1.922432e-011
-1.352489e-011
-6.118296e-012
3.774008e-012
9.874966e-012
3.880942e-012
-1.444611e-011
-3.236608e-011
-3.138605e-011
-2.883087e-012
4.054205e-011
6.949990e-011
5.769288e-011
3.561914e-012
-6.393341e-011
-1.024141e-010
-8.529162e-011
-2.121240e-011
5.213398e-011
9.580852e-011
9.751518e-011
7.820407e-011
7.344440e-011
1.057432e-010
1.699780e-010
2.412926e-010
2.958731e-010
3.259846e-010
3.389327e-010
3.455885e-010
3.521534e-010
3.618279e-010
3.799422e-010
4.122649e-010
4.558474e-010
4.936053e-010
5.030036e-010
4.744219e-010
4.220809e-010
3.749630e-010
3.537913e-010
3.539143e-010
3.492447e-010
3.134575e-010
2.397678e-010
1.433002e-010
4.650353e-011
-3.815580e-011
-1.138719e-010
-1.908419e-010
-2.726932e-010
-3.498165e-010
-4.038876e-010
-4.187613e-010
-3.890842e-010
-3.210810e-010
-2.266950e-010
-1.168958e-010
5.374692e-013
1.179759e-010
2.232994e-010
2.985386e-010
3.242821e-010
2.881900e-010
1.927704e-010
5.785155e-011
-8.387942e-011
-1.963656e-010
-2.509316e-010
-2.348710e-010
-1.555583e-010
-3.895097e-011
7.757206e-011
1.567843e-010
1.745413e-010
1.292710e-010
4.344091e-011
-4.496961e-011
-9.852828e-011
-9.728087e-011
-4.822663e-011
1.828534e-011
6.430401e-011
-1.839781e-010
-1.112340e-010
-9.938020e-012
6.704470e-011
8.938349e-011
6.336981e-011
2.171712e-011
-1.901506e-012
4.652248e-012
2.734690e-011
4.075329e-011
2.998029e-011
2.680071e-012
-1.820049e-011
-1.502903e-011
7.687209e-012
2.525175e-011
1.334188e-011
-2.924914e-011
-7.565066e-011
-9.014154e-011
-5.736986e-011
2.556779e-012
4.702088e-011
4.330849e-011
-4.581483e-012
-5.650003e-011
-6.519216e-011
-1.244958e-011
7.551813e-011
1.462878e-010
1.597383e-010
1.171165e-010
5.784216e-011
2.713153e-011
4.121870e-011
7.791399e-011
9.820604e-011
7.905924e-011
3.005581e-011
-1.768999e-011
-3.820908e-011
-2.966855e-011
-1.138657e-011
-4.490546e-012
-1.471059e-011
-3.118264e-011
-3.896851e-011
-3.141558e-011
-1.172836e-011
1.400555e-011
4.198810e-011
6.866787e-011
8.667275e-011
8.677926e-011
6.605732e-011
3.351075e-011
5.792074e-012
-4.578429e-012
1.895864e-012
1.337071e-011
1.654335e-011
5.566807e-012
-1.665374e-011
-4.373655e-011
-7.150765e-011
-9.945618e-011
-1.285382e-010
-1.586743e-010
-1.877367e-010
-2.114772e-010
-2.233960e-010
-2.149985e-010
-1.779367e-010
-1.083601e-010
-1.110674e-011
9.951969e-011
2.034497e-010
2.808455e-010
3.167451e-010
3.023550e-010
2.344574e-010
1.164672e-010
-3.715529e-011
-1.962957e-010
-3.170949e-010
-3.552150e-010
-2.870933e-010
-1.275992e-010
6.887793e-011
2.285946e-010
2.915826e-010
2.401974e-010
1.071304e-010
-4.163243e-011
-1.396371e-010
-1.513772e-010
-8.679567e-011
7.291348e-012
7.337497e-011
-3.320596e-010
-1.937330e-010
6.655344e-012
1.721301e-010
2.348376e-010
1.863137e-010
7.332228e-011
-3.562589e-011
-9.114895e-011
-8.607176e-011
-4.860055e-011
-1.405005e-011
2.180934e-012
1.029045e-011
2.804274e-011
5.643715e-011
7.237057e-011
4.735757e-011
-2.229599e-011
-1.015729e-010
-1.361961e-010
-9.448364e-011
1.601290e-012
8.506974e-011
9.098922e-011
8.514977e-012
-1.034512e-010
-1.533123e-010
-8.273581e-011
8.678575e-011
2.636226e-010
3.475463e-010
2.984851e-010
1.609684e-010
2.652813e-011
-3.522288e-011
-2.285243e-011
6.495619e-012
-1.044221e-011
-9.314496e-011
-2.083656e-010
-3.035077e-010
-3.497196e-010
-3.583765e-010
-3.616263e-010
-3.798027e-010
-4.068094e-010
-4.236118e-010
-4.217109e-010
-4.110808e-010
-4.063380e-010
-4.090656e-010
-4.070816e-010
-3.910890e-010
-3.692769e-010
-3.625879e-010
-3.844056e-010
-4.249119e-010
-4.556570e-010
-4.501663e-010
-4.022082e-010
-3.273265e-010
-2.488872e-010
-1.815518e-010
-1.243918e-010
-6.625597e-011
2.884231e-012
8.273864e-011
1.607265e-010
2.178960e-010
2.392282e-010
2.223602e-010
1.791829e-010
1.287015e-010
8.564351e-011
5.314254e-011
2.522263e-011
-3.038752e-012
-2.664829e-011
-3.183963e-011
-8.296441e-012
3.654356e-011
7.425687e-011
6.975741e-011
6.185016e-012
-9.705731e-011
-1.888072e-010
-2.139355e-010
-1.478120e-010
-1.445271e-011
1.248161e-010
2.057122e-010
1.964353e-010
1.123929e-010
3.086769e-012
-7.798744e-011
-1.010440e-010
-7.077380e-011
-1.787576e-011
2.056483e-011
-3.686462e-010
-2.077130e-010
3.077847e-011
2.357017e-010
3.195444e-010
2.574185e-010
9.447588e-011
-8.254522e-011
-1.936052e-010
-2.051642e-010
-1.388186e-010
-4.688374e-011
2.524233e-011
6.298399e-011
7.829049e-011
8.552323e-011
8.154272e-011
4.938510e-011
-1.734886e-011
-9.354945e-011
-1.299414e-010
-8.985226e-011
1.294253e-011
1.112515e-010
1.275458e-010
3.521598e-011
-1.104153e-010
-2.017681e-010
-1.541137e-010
2.756357e-011
2.428475e-010
3.608657e-010
3.109505e-010
1.314339e-010
-6.081287e-011
-1.563144e-010
-1.277031e-010
-3.774473e-011
1.956121e-011
-7.146448e-012
-9.600598e-011
-1.821649e-010
-2.157925e-010
-1.967034e-010
-1.612633e-010
-1.420073e-010
-1.414702e-010
-1.418764e-010
-1.337645e-010
-1.290540e-010
-1.444853e-010
-1.762848e-010
-1.974864e-010
-1.840439e-010
-1.430665e-010
-1.121576e-010
-1.278608e-010
-1.923523e-010
-2.693127e-010
-3.119242e-010
-2.974455e-010
-2.397898e-010
-1.731441e-010
-1.235871e-010
-9.183820e-011
-5.752900e-011
1.987408e-012
9.340374e-011
2.015858e-010
2.982676e-010
3.583819e-010
3.730596e-010
3.509986e-010
3.076573e-010
2.505972e-010
1.730716e-010
6.254517e-011
-8.095971e-011
-2.309522e-010
-3.382717e-010
-3.545707e-010
-2.624903e-010
-9.231948e-011
8.809264e-011
2.064502e-010
2.228766e-010
1.480656e-010
3.259576e-011
-6.412836e-011
-1.049345e-010
-8.793628e-011
-3.744138e-011
1.642084e-011
5.362060e-011
6.746398e-011
5.898990e-011
3.185411e-011
-7.403952e-012
-4.709262e-011
-7.231534e-011
-2.503569e-010
-1.315073e-010
4.880169e-011
2.095460e-010
2.785119e-010
2.242226e-010
7.199726e-011
-1.073490e-010
-2.331447e-010
-2.559253e-010
-1.802311e-010
-5.605069e-011
5.417332e-011
1.109132e-010
1.126957e-010
8.377427e-011
4.778641e-011
1.100791e-011
-3.120457e-011
-7.374739e-011
-9.137268e-011
-5.521251e-011
3.438259e-011
1.305299e-010
1.622698e-010
8.752300e-011
-6.409823e-011
-1.987643e-010
-2.196632e-010
-1.003358e-010
8.755706e-011
2.193648e-010
2.066285e-010
6.373931e-011
-1.008276e-010
-1.636450e-010
-7.469102e-011
1.129729e-010
2.912852e-010
3.798737e-010
3.767950e-010
3.428536e-010
3.418813e-010
3.918381e-010
4.641997e-010
5.215572e-010
5.513279e-010
5.649242e-010
5.716819e-010
5.627623e-010
5.253212e-010
4.693544e-010
4.320130e-010
4.478084e-010
5.121787e-010
5.771997e-010
5.878421e-010
5.269778e-010
4.284183e-010
3.475387e-010
3.170440e-010
3.255474e-010
3.331710e-010
3.064479e-010
2.425745e-010
1.669215e-010
1.107682e-010
8.876406e-011
9.187681e-011
9.812696e-011
9.106473e-011
7.215597e-011
5.843683e-011
6.705910e-011
9.754584e-011
1.252039e-010
1.125884e-010
3.356465e-011
-1.048511e-010
-2.577023e-010
-3.596693e-010
-3.565098e-010
-2.334408e-010
-2.554783e-011
1.948700e-010
3.477848e-010
3.782162e-010
2.784351e-010
9.072548e-011
-1.103525e-010
-2.486404e-010
-2.768329e-010
-1.940586e-010
-4.411548e-011
1.040146e-010
1.856395e-010
1.685029e-010
6.769420e-011
-6.100118e-011
-1.485759e-010
1.072464e-011
1.946419e-011
3.914782e-011
6.704136e-011
8.881294e-011
8.186026e-011
3.009057e-011
-5.896678e-011
-1.495190e-010
-1.938382e-010
-1.622090e-010
-6.571132e-011
4.697525e-011
1.193382e-010
1.227216e-010
7.118961e-011
5.029075e-012
-4.159397e-011
-6.065506e-011
-6.251834e-011
-5.256443e-011
-2.007368e-011
4.609733e-011
1.304651e-010
1.842891e-010
1.554577e-010
3.536819e-011
-1.188519e-010
-2.137593e-010
-1.851558e-010
-4.973721e-011
1.020362e-010
1.722211e-010
1.318044e-010
4.581463e-011
2.457941e-011
1.387159e-010
3.657796e-010
6.097701e-010
7.743070e-010
8.285712e-010
8.161076e-010
8.076679e-010
8.440934e-010
9.161033e-010
9.885248e-010
1.036596e-009
1.058340e-009
1.058841e-009
1.033739e-009
9.762267e-010
8.993407e-010
8.422464e-010
8.439859e-010
9.058391e-010
9.814415e-010
1.009553e-009
9.622551e-010
8.652623e-010
7.731427e-010
7.233564e-010
7.094483e-010
6.929333e-010
6.384658e-010
5.403102e-010
4.210171e-010
3.087852e-010
2.150351e-010
1.294621e-010
3.376786e-011
-7.868641e-011
-1.922686e-010
-2.746199e-010
-2.943524e-010
-2.399310e-010
-1.287513e-010
-1.498723e-012
9.469155e-011
1.256716e-010
8.391338e-011
-8.263087e-012
-1.058350e-010
-1.566134e-010
-1.225133e-010
-8.053660e-013
1.653829e-010
2.985782e-010
3.224529e-010
2.061490e-010
-9.927198e-012
-2.280171e-010
-3.434305e-010
-3.026132e-010
-1.330174e-010
7.336430e-011
2.118427e-010
2.209904e-010
1.118468e-010
-4.292515e-011
-1.511684e-010
3.324474e-010
1.883132e-010
-1.385883e-011
-1.643952e-010
-1.920340e-010
-1.051110e-010
1.691524e-011
8.064667e-011
4.579765e-011
-4.851793e-011
-1.187952e-010
-1.047731e-010
-1.533233e-011
8.237636e-011
1.185539e-010
7.390433e-011
-1.169283e-011
-7.755309e-011
-9.103467e-011
-6.442342e-011
-2.963408e-011
-4.427977e-013
3.830113e-011
1.041788e-010
1.824948e-010
2.232851e-010
1.803745e-010
6.028206e-011
-6.610043e-011
-1.072069e-010
-1.936788e-011
1.558125e-010
3.199182e-010
3.933423e-010
3.778836e-010
3.539510e-010
4.136542e-010
5.853322e-010
8.116459e-010
9.967731e-010
1.080253e-009
1.076319e-009
1.051701e-009
1.068101e-009
1.140373e-009
1.239588e-009
1.326915e-009
1.381221e-009
1.399303e-009
1.381188e-009
1.326185e-009
1.245484e-009
1.170645e-009
1.137634e-009
1.155194e-009
1.189765e-009
1.187470e-009
1.116790e-009
9.932316e-010
8.637878e-010
7.668055e-010
7.041443e-010
6.479491e-010
5.712006e-010
4.720636e-010
3.721861e-010
2.945403e-010
2.424553e-010
1.971526e-010
1.335072e-010
3.957134e-011
-7.466162e-011
-1.830585e-010
-2.567497e-010
-2.755170e-010
-2.324247e-010
-1.335084e-010
2.931450e-012
1.460286e-010
2.549342e-010
2.896257e-010
2.303432e-010
9.617446e-011
-5.320314e-011
-1.425457e-010
-1.243654e-010
-1.367263e-011
1.142032e-010
1.686528e-010
1.047641e-010
-4.348426e-011
-1.845315e-010
-2.313547e-010
-1.592342e-010
-1.811470e-011
1.056959e-010
1.470435e-010
9.852021e-011
6.790883e-012
-6.179788e-011
5.778225e-010
2.962544e-010
-9.738880e-011
-3.870564e-010
-4.299188e-010
-2.345498e-010
5.263899e-011
2.479631e-010
2.506144e-010
9.827319e-011
-7.696845e-011
-1.523530e-010
-9.773339e-011
1.841667e-011
9.481301e-011
7.777617e-011
-5.526670e-012
-8.089469e-011
-9.368128e-011
-4.975859e-011
1.906015e-012
2.418664e-011
2.981664e-011
6.543065e-011
1.572925e-010
2.729435e-010
3.401028e-010
3.108230e-010
2.143340e-010
1.474846e-010
2.039610e-010
3.977498e-010
6.458753e-010
8.292698e-010
8.847338e-010
8.521703e-010
8.375172e-010
9.235793e-010
1.104631e-009
1.297421e-009
1.413765e-009
1.429726e-009
1.395789e-009
1.387548e-009
1.445296e-009
1.552499e-009
1.661946e-009
1.736495e-009
1.766817e-009
1.760043e-009
1.723288e-009
1.663393e-009
1.597169e-009
1.550106e-009
1.536445e-009
1.540515e-009
1.523508e-009
1.453887e-009
1.333091e-009
1.191513e-009
1.059492e-009
9.423384e-010
8.224524e-010
6.835641e-010
5.316272e-010
3.929889e-010
2.936016e-010
2.395626e-010
2.155272e-010
1.995818e-010
1.791028e-010
1.543166e-010
1.297241e-010
1.047302e-010
7.376109e-011
3.561357e-011
2.277581e-012
-3.253508e-012
3.811158e-011
1.229975e-010
2.171410e-010
2.667175e-010
2.271486e-010
9.416147e-011
-8.373762e-011
-2.246612e-010
-2.585735e-010
-1.718470e-010
-1.921511e-011
1.095387e-010
1.471905e-010
8.922660e-011
-1.208620e-011
-9.085326e-011
-1.108271e-010
-7.786937e-011
-2.161111e-011
3.036944e-011
6.510666e-011
8.138615e-011
6.061414e-010
2.828794e-010
-1.567261e-010
-4.608399e-010
-4.802262e-010
-2.424670e-010
8.568290e-011
3.134714e-010
3.390100e-010
1.918055e-010
-8.902853e-012
-1.407008e-010
-1.507011e-010
-7.338712e-011
9.817499e-012
3.646172e-011
6.226304e-012
-2.957705e-011
-2.116205e-011
3.143299e-011
7.998722e-011
7.972625e-011
4.203846e-011
3.432106e-011
1.210493e-010
2.982088e-010
4.847608e-010
5.862174e-010
5.791414e-010
5.418030e-010
5.981947e-010
8.163886e-010
1.145227e-009
1.446105e-009
1.597585e-009
1.587006e-009
1.512684e-009
1.497143e-009
1.587539e-009
1.726369e-009
1.810311e-009
1.779733e-009
1.662060e-009
1.539514e-009
1.478449e-009
1.484262e-009
1.514177e-009
1.524687e-009
1.504714e-009
1.469622e-009
1.434507e-009
1.401087e-009
1.368682e-009
1.348253e-009
1.356951e-009
1.398043e-009
1.451465e-009
1.488514e-009
1.495632e-009
1.481523e-009
1.460757e-009
1.432968e-009
1.380509e-009
1.286431e-009
1.153122e-009
1.002588e-009
8.592007e-010
7.327564e-010
6.178401e-010
5.080653e-010
4.092175e-010
3.376820e-010
3.055975e-010
3.067389e-010
3.160532e-010
3.035035e-010
2.517447e-010
1.658690e-010
7.092558e-011
2.415657e-013
-2.057261e-011
1.077985e-011
6.505166e-011
9.013998e-011
4.081098e-011
-8.356675e-011
-2.227098e-010
-2.842973e-010
-2.078168e-010
-1.705090e-011
1.853926e-010
2.835888e-010
2.252912e-010
5.263506e-011
-1.311017e-010
-2.275503e-010
-1.953357e-010
-6.246264e-011
9.687640e-011
2.018349e-010
3.475078e-010
1.457894e-010
-1.156339e-010
-2.826863e-010
-2.872550e-010
-1.603295e-010
2.041551e-011
1.814785e-010
2.692475e-010
2.516528e-010
1.318407e-010
-3.821925e-011
-1.754509e-010
-2.158244e-010
-1.564895e-010
-4.980444e-011
4.514670e-011
1.063811e-010
1.477773e-010
1.814311e-010
1.914243e-010
1.534831e-010
8.164238e-011
4.657098e-011
1.327132e-010
3.641451e-010
6.685995e-010
9.228583e-010
1.050268e-009
1.088399e-009
1.162921e-009
1.381601e-009
1.734286e-009
2.085837e-009
2.272786e-009
2.225452e-009
2.014149e-009
1.783560e-009
1.634977e-009
1.556475e-009
1.453100e-009
1.241001e-009
9.202300e-010
5.688312e-010
2.743933e-010
7.028623e-011
-7.026133e-011
-1.890282e-010
-2.986519e-010
-3.803607e-010
-4.151489e-010
-4.071179e-010
-3.738120e-010
-3.201195e-010
-2.298135e-010
-8.468403e-011
1.123439e-010
3.366963e-010
5.629386e-010
7.817690e-010
9.952041e-010
1.198711e-009
1.373149e-009
1.496142e-009
1.559523e-009
1.573229e-009
1.551693e-009
1.497475e-009
1.399281e-009
1.246140e-009
1.043693e-009
8.177423e-010
6.031075e-010
4.282495e-010
3.067750e-010
2.373103e-010
2.056005e-010
1.856823e-010
1.458365e-010
6.556444e-011
-4.338642e-011
-1.331282e-010
-1.487794e-010
-7.755808e-011
2.442347e-011
6.413192e-011
-1.018771e-011
-1.500583e-010
-2.310580e-010
-1.542002e-010
6.004509e-011
2.737161e-010
3.348433e-010
1.956490e-010
-5.249369e-011
-2.494332e-010
-2.784563e-010
-1.361475e-010
7.793622e-011
2.299615e-010
-1.349678e-010
-4.987194e-011
6.479709e-011
1.213490e-010
5.794304e-011
-8.763147e-011
-1.805601e-010
-1.030992e-010
1.188465e-010
3.149107e-010
3.123030e-010
8.877405e-011
-2.062908e-010
-3.748353e-010
-3.202965e-010
-1.002938e-010
1.431312e-010
2.979079e-010
3.429596e-010
3.224325e-010
2.812185e-010
2.339304e-010
1.909214e-010
1.976045e-010
3.274903e-010
6.210164e-010
1.027213e-009
1.415081e-009
1.660985e-009
1.742788e-009
1.755026e-009
1.822999e-009
1.983512e-009
2.134600e-009
2.101801e-009
1.769350e-009
1.167781e-009
4.460627e-010
-2.448097e-010
-8.568721e-010
-1.455048e-009
-2.134308e-009
-2.923676e-009
-3.758526e-009
-4.533924e-009
-5.180061e-009
-5.690653e-009
-6.089932e-009
-6.384018e-009
-6.548813e-009
-6.559508e-009
-6.420998e-009
-6.162989e-009
-5.808263e-009
-5.353395e-009
-4.784288e-009
-4.107570e-009
-3.362165e-009
-2.600042e-009
-1.859301e-009
-1.157729e-009
-5.082253e-010
6.695859e-011
5.417267e-010
9.048397e-010
1.169974e-009
1.365136e-009
1.511007e-009
1.607548e-009
1.638201e-009
1.584385e-009
1.437444e-009
1.202828e-009
9.010798e-010
5.706575e-010
2.682705e-010
5.578738e-011
-2.929664e-011
-3.288216e-012
6.260391e-011
8.331340e-011
2.122277e-011
-8.138008e-011
-1.352603e-010
-8.556027e-011
2.815864e-011
9.783954e-011
4.804158e-011
-8.089913e-011
-1.584387e-010
-8.588802e-011
1.011219e-010
2.548719e-010
2.451135e-010
7.310457e-011
-1.326004e-010
-2.253462e-010
-1.527359e-010
1.507292e-011
1.473027e-010
-6.415756e-010
-2.068445e-010
3.244171e-010
5.658678e-010
3.648859e-010
-8.645366e-011
-4.118991e-010
-3.620138e-010
-9.588349e-012
3.354351e-010
3.976429e-010
1.472953e-010
-2.090553e-010
-4.121256e-010
-3.383858e-010
-5.888680e-011
2.454060e-010
4.249820e-010
4.510256e-010
3.998357e-010
3.668537e-010
3.952513e-010
4.772467e-010
6.085004e-010
8.228074e-010
1.159170e-009
1.590635e-009
1.994073e-009
2.207526e-009
2.136022e-009
1.812587e-009
1.353672e-009
8.404482e-010
2.261482e-010
-6.474324e-010
-1.932413e-009
-3.652676e-009
-5.679928e-009
-7.826629e-009
-9.973785e-009
-1.212563e-008
-1.435318e-008
-1.668717e-008
-1.905694e-008
-2.131974e-008
-2.333928e-008
-2.503730e-008
-2.638165e-008
-2.734200e-008
-2.786903e-008
-2.791690e-008
-2.747711e-008
-2.658172e-008
-2.527376e-008
-2.358186e-008
-2.153017e-008
-1.917178e-008
-1.660638e-008
-1.396050e-008
-1.135017e-008
-8.862051e-009
-6.564851e-009
-4.528317e-009
-2.821171e-009
-1.485715e-009
-5.134310e-010
1.546660e-010
6.027020e-010
9.092165e-010
1.128997e-009
1.289655e-009
1.394356e-009
1.425029e-009
1.349953e-009
1.143097e-009
8.130012e-010
4.234901e-010
8.309341e-011
-1.039990e-010
-1.015145e-010
2.666986e-011
1.506405e-010
1.635135e-010
6.179969e-011
-5.540406e-011
-7.971186e-011
5.587241e-013
8.853990e-011
8.106242e-011
-1.903751e-011
-1.036869e-010
-7.537472e-011
4.845212e-011
1.543488e-010
1.485759e-010
4.370567e-011
-6.551366e-011
-9.803821e-011
-5.432300e-011
-1.181040e-012
-9.155950e-010
-2.575727e-010
5.001415e-010
7.896503e-010
4.777502e-010
-9.712114e-011
-4.706990e-010
-4.310777e-010
-1.136232e-010
1.914379e-010
2.841158e-010
1.561608e-010
-6.113471e-011
-2.070478e-010
-1.841965e-010
-3.754243e-012
2.324730e-010
4.086182e-010
4.811432e-010
5.054285e-010
5.787179e-010
7.537042e-010
1.005308e-009
1.275985e-009
1.540263e-009
1.809045e-009
2.062158e-009
2.181334e-009
1.964571e-009
1.225360e-009
-1.059054e-010
-1.971411e-009
-4.282669e-009
-7.044159e-009
-1.039275e-008
-1.450925e-008
-1.947048e-008
-2.516665e-008
-3.135337e-008
-3.778869e-008
-4.433508e-008
-5.094738e-008
-5.757488e-008
-6.407582e-008
-7.021618e-008
-7.574011e-008
-8.044071e-008
-8.417630e-008
-8.683974e-008
-8.833069e-008
-8.856503e-008
-8.750626e-008
-8.517874e-008
-8.164802e-008
-7.699589e-008
-7.132435e-008
-6.478636e-008
-5.760550e-008
-5.005481e-008
-4.240881e-008
-3.490999e-008
-2.777268e-008
-2.120476e-008
-1.540885e-008
-1.054829e-008
-6.701309e-009
-3.839885e-009
-1.847269e-009
-5.576150e-010
2.086461e-010
6.249861e-010
8.467075e-010
9.938782e-010
1.128001e-009
1.237677e-009
1.254280e-009
1.104739e-009
7.796604e-010
3.710987e-010
4.042052e-011
-7.956470e-011
1.495695e-011
1.835649e-010
2.470048e-010
1.391104e-010
-3.574543e-011
-1.096272e-010
-2.490034e-011
1.073512e-010
1.305530e-010
1.196574e-011
-1.281648e-010
-1.504440e-010
-3.662047e-011
1.080327e-010
1.687042e-010
1.176388e-010
9.696242e-012
-8.639050e-011
-1.366142e-010
-7.788644e-010
-2.077434e-010
4.128972e-010
6.203067e-010
3.896996e-010
2.028726e-011
-2.290837e-010
-3.122975e-010
-2.821750e-010
-1.559941e-010
5.097397e-011
2.411873e-010
2.834681e-010
1.558433e-010
-8.094798e-012
-3.919572e-011
1.148907e-010
3.661509e-010
5.992393e-010
7.889375e-010
1.003687e-009
1.306966e-009
1.669408e-009
1.978503e-009
2.118606e-009
2.019103e-009
1.609832e-009
7.300320e-010
-9.059228e-010
-3.633032e-009
-7.703323e-009
-1.320908e-008
-2.013028e-008
-2.846303e-008
-3.830547e-008
-4.980876e-008
-6.302206e-008
-7.776262e-008
-9.362381e-008
-1.101132e-007
-1.268032e-007
-1.433800e-007
-1.595766e-007
-1.750731e-007
-1.894591e-007
-2.022830e-007
-2.131361e-007
-2.217019e-007
-2.277462e-007
-2.310837e-007
-2.315690e-007
-2.291208e-007
-2.237481e-007
-2.155482e-007
-2.046900e-007
-1.914139e-007
-1.760572e-007
-1.590718e-007
-1.410004e-007
-1.224152e-007
-1.038622e-007
-8.584688e-008
-6.884958e-008
-5.332692e-008
-3.967129e-008
-2.814508e-008
-1.883674e-008
-1.166917e-008
-6.448359e-009
-2.914372e-009
-7.669494e-010
3.309769e-010
7.455506e-010
8.346834e-010
8.792456e-010
1.012190e-009
1.194545e-009
1.274183e-009
1.114365e-009
7.198617e-010
2.651122e-010
-1.891820e-011
-2.714076e-011
1.276694e-010
2.201072e-010
1.324409e-010
-3.420058e-011
-8.710525e-011
2.819638e-011
1.607228e-010
1.296890e-010
-6.456119e-011
-2.381078e-010
-2.210527e-010
-2.618467e-011
1.794019e-010
2.384426e-010
1.255399e-010
-6.260205e-011
-1.971754e-010
-2.475162e-010
-1.249918e-010
4.890805e-012
1.063289e-010
2.313869e-010
3.302915e-010
2.188982e-010
-1.582745e-010
-5.331019e-010
-5.325973e-010
-9.472360e-011
4.328177e-010
6.374533e-010
4.309495e-010
8.333072e-011
-6.617929e-011
1.106360e-010
4.968528e-010
9.025100e-010
1.241228e-009
1.556023e-009
1.900337e-009
2.205627e-009
2.257204e-009
1.778469e-009
5.153284e-010
-1.777360e-009
-5.434411e-009
-1.095390e-008
-1.894736e-008
-2.997778e-008
-4.440307e-008
-6.234400e-008
-8.378515e-008
-1.086937e-007
-1.370252e-007
-1.685968e-007
-2.029417e-007
-2.392834e-007
-2.766687e-007
-3.141617e-007
-3.509613e-007
-3.863809e-007
-4.197451e-007
-4.503145e-007
-4.773075e-007
-4.999929e-007
-5.177713e-007
-5.301885e-007
-5.368969e-007
-5.376302e-007
-5.322220e-007
-5.206492e-007
-5.030553e-007
-4.797499e-007
-4.512098e-007
-4.181001e-007
-3.812911e-007
-3.418320e-007
-3.008734e-007
-2.595778e-007
-2.190638e-007
-1.803882e-007
-1.445252e-007
-1.123038e-007
-8.431124e-008
-6.082016e-008
-4.178985e-008
-2.694325e-008
-1.587015e-008
-8.100092e-009
-3.122221e-009
-3.702021e-010
7.869999e-010
1.010085e-009
8.961073e-010
8.532530e-010
1.009035e-009
1.226301e-009
1.256300e-009
9.620533e-010
4.580053e-010
3.468498e-011
-9.037040e-011
3.484052e-011
1.682708e-010
1.422033e-010
2.549004e-011
-6.672446e-012
7.886284e-011
1.278012e-010
8.162597e-012
-2.030389e-010
-2.940287e-010
-1.559405e-010
9.903205e-011
2.552799e-010
1.972408e-010
-4.784431e-012
-1.742153e-010
4.504961e-010
-7.882382e-011
-5.735032e-010
-4.928103e-010
1.362240e-010
6.979590e-010
6.003955e-010
-8.601878e-011
-6.929080e-010
-6.602607e-010
-7.162582e-011
5.302016e-010
7.241250e-010
5.283586e-010
2.509712e-010
1.734541e-010
3.813071e-010
7.917309e-010
1.268368e-009
1.713915e-009
2.078305e-009
2.275990e-009
2.074909e-009
1.049711e-009
-1.367174e-009
-5.802311e-009
-1.292456e-008
-2.351784e-008
-3.855355e-008
-5.913991e-008
-8.631740e-008
-1.208088e-007
-1.628842e-007
-2.124077e-007
-2.689800e-007
-3.320229e-007
-4.007291e-007
-4.739473e-007
-5.501474e-007
-6.275485e-007
-7.043505e-007
-7.789243e-007
-8.498518e-007
-9.158349e-007
-9.755915e-007
-1.027847e-006
-1.071423e-006
-1.105335e-006
-1.128817e-006
-1.141278e-006
-1.142260e-006
-1.131460e-006
-1.108785e-006
-1.074403e-006
-1.028772e-006
-9.726504e-007
-9.071349e-007
-8.336908e-007
-7.541433e-007
-6.705982e-007
-5.853201e-007
-5.006167e-007
-4.187512e-007
-3.418517e-007
-2.717755e-007
-2.099300e-007
-1.571166e-007
-1.134798e-007
-7.859252e-008
-5.163526e-008
-3.158988e-008
-1.738683e-008
-7.984692e-009
-2.388924e-009
3.678923e-010
1.244894e-009
1.160554e-009
8.771025e-010
8.348271e-010
1.053641e-009
1.236867e-009
1.082095e-009
5.875788e-010
7.189360e-011
-1.348488e-010
-1.243714e-011
1.713940e-010
1.875441e-010
7.213867e-011
-9.679416e-013
1.527508e-011
4.793416e-012
-1.063794e-010
-2.184635e-010
-1.808068e-010
7.998607e-012
1.832576e-010
1.899410e-010
3.996671e-011
-1.084732e-010
9.795227e-010
-8.000917e-011
-1.011513e-009
-8.650339e-010
1.057009e-010
8.420302e-010
6.853920e-010
-2.406843e-011
-5.135374e-010
-4.447008e-010
-6.083082e-011
2.995873e-010
5.371350e-010
6.839417e-010
7.387413e-010
7.231456e-010
7.752531e-010
1.058545e-009
1.577518e-009
2.113628e-009
2.304730e-009
1.710926e-009
-2.406974e-010
-4.373515e-009
-1.181584e-008
-2.395397e-008
-4.235815e-008
-6.875700e-008
-1.050279e-007
-1.530849e-007
-2.145979e-007