# vtk DataFile Version 3.0
vtk output
ASCII
DATASET STRUCTURED_POINTS
DIMENSIONS 100 100 1
SPACING 1 1 1
ORIGIN 0 0 0
POINT_DATA 10000
SCALARS SFBox_profile double
LOOKUP_TABLE default 
0.000000e+000
0.000000e+000
0.000000e+000
0.000000e+000
0.000000e+000
0.000000e+000
0.000000e+000
0.000000e+000
0.000000e+000
0.000000e+000
0.000000e+000
0.000000e+000
0.000000e+000
0.000000e+000
0.000000e+000
0.000000e+000
0.000000e+000
0.000000e+000
0.000000e+000
0.000000e+000
0.000000e+000
0.000000e+000
0.000000e+000
0.000000e+000
0.000000e+000
0.000000e+000
0.000000e+000
0.000000e+000
0.000000e+000
0.000000e+000
0.000000e+000
0.000000e+000
0.000000e+000
0.000000e+000
0.000000e+000
0.000000e+000
0.000000e+000
0.000000e+000
0.000000e+000
0.000000e+000
0.000000e+000
0.000000e+000
0.000000e+000
0.000000e+000
0.000000e+000
0.000000e+000
0.000000e+000
0.000000e+000
0.000000e+000
0.000000e+000
0.000000e+000
0.000000e+000
0.000000e+000
0.000000e+000
0.000000e+000
0.000000e+000
0.000000e+000
0.000000e+000
0.000000e+000
0.000000e+000
0.000000e+000
0.000000e+000
0.000000e+000
0.000000e+000
0.000000e+000
0.000000e+000
0.000000e+000
0.000000e+000
0.000000e+000
0.000000e+000
0.000000e+000
0.000000e+000
0.000000e+000
0.000000e+000
0.000000e+000
0.000000e+000
0.000000e+000
0.000000e+000
0.000000e+000
0.000000e+000
0.000000e+000
0.000000e+000
0.000000e+000
0.000000e+000
0.000000e+000
0.000000e+000
0.000000e+000
0.000000e+000
0.000000e+000
0.000000e+000
0.000000e+000
0.000000e+000
0.000000e+000
0.000000e+000
0.000000e+000
0.000000e+000
0.000000e+000
0.000000e+000
0.000000e+000
0.000000e+000
-3.497853e-012
-3.494657e-012
-3.488368e-012
-3.478105e-012
-3.463667e-012
-3.443941e-012
-3.418375e-012
-3.385543e-012
-3.344984e-012
-3.295618e-012
-3.236800e-012
-3.167636e-012
-3.088186e-012
-2.998112e-012
-2.898099e-012
-2.787460e-012
-2.668094e-012
-2.540659e-012
-2.406635e-012
-2.267363e-012
-2.124895e-012
-1.980929e-012
-1.837378e-012
-1.696733e-012
-1.560076e-012
-1.430068e-012
-1.307758e-012
-1.194455e-012
-1.091531e-012
-9.995307e-013
-9.186529e-013
-8.489840e-013
-7.904391e-013
-7.421485e-013
-7.035253e-013
-6.734766e-013
-6.510486e-013
-6.349901e-013
-6.242046e-013
-6.181344e-013
-6.153738e-013
-6.156496e-013
-6.180696e-013
-6.222320e-013
-6.279469e-013
-6.348248e-013
-6.422887e-013
-6.505180e-013
-6.592352e-013
-6.675632e-013
-6.754119e-013
-6.822350e-013
-6.873180e-013
-6.902308e-013
-6.903065e-013
-6.868600e-013
-6.796022e-013
-6.683020e-013
-6.527369e-013
-6.328238e-013
-6.092890e-013
-5.821673e-013
-5.524745e-013
-5.206974e-013
-4.877096e-013
-4.543102e-013
-4.209983e-013
-3.889991e-013
-3.584495e-013
-3.297260e-013
-3.032413e-013
-2.789422e-013
-2.567197e-013
-2.366811e-013
-2.186389e-013
-2.019955e-013
-1.868524e-013
-1.729057e-013
-1.599282e-013
-1.476893e-013
-1.359717e-013
-1.247450e-013
-1.140860e-013
-1.035632e-013
-9.347748e-014
-8.349002e-014
-7.389418e-014
-6.463770e-014
-5.560499e-014
-4.721804e-014
-3.887944e-014
-3.130846e-014
-2.442898e-014
-1.815578e-014
-1.256607e-014
-7.882100e-015
-3.910234e-015
-1.100849e-015
7.587741e-016
2.011461e-015
-3.541670e-012
-3.537757e-012
-3.529284e-012
-3.516159e-012
-3.498079e-012
-3.473885e-012
-3.443250e-012
-3.405195e-012
-3.359107e-012
-3.303951e-012
-3.239575e-012
-3.165174e-012
-3.080696e-012
-2.985903e-012
-2.881056e-012
-2.767247e-012
-2.645026e-012
-2.515321e-012
-2.379550e-012
-2.239820e-012
-2.097196e-012
-1.954467e-012
-1.813170e-012
-1.675081e-012
-1.542476e-012
-1.416942e-012
-1.299882e-012
-1.192345e-012
-1.094909e-012
-1.008254e-012
-9.324095e-013
-8.661652e-013
-8.095152e-013
-7.608460e-013
-7.194624e-013
-6.835474e-013
-6.517323e-013
-6.235320e-013
-5.976412e-013
-5.732768e-013
-5.504748e-013
-5.291372e-013
-5.094718e-013
-4.920280e-013
-4.776771e-013
-4.667683e-013
-4.601909e-013
-4.580680e-013
-4.610123e-013
-4.687777e-013
-4.809288e-013
-4.968135e-013
-5.152974e-013
-5.350160e-013
-5.548066e-013
-5.726788e-013
-5.876488e-013
-5.981131e-013
-6.032899e-013
-6.021199e-013
-5.948303e-013
-5.811789e-013
-5.615061e-013
-5.369665e-013
-5.085118e-013
-4.771200e-013
-4.442509e-013
-4.104548e-013
-3.775664e-013
-3.456605e-013
-3.157721e-013
-2.883522e-013
-2.631701e-013
-2.407614e-013
-2.204063e-013
-2.026809e-013
-1.863446e-013
-1.718271e-013
-1.587584e-013
-1.466435e-013
-1.352728e-013
-1.245104e-013
-1.142935e-013
-1.044709e-013
-9.490841e-014
-8.571546e-014
-7.658973e-014
-6.780118e-014
-5.925377e-014
-5.105200e-014
-4.327545e-014
-3.590526e-014
-2.907717e-014
-2.300325e-014
-1.731379e-014
-1.254048e-014
-8.787626e-015
-5.849004e-015
-3.774275e-015
-2.890434e-015
-3.627000e-012
-3.620906e-012
-3.608616e-012
-3.590051e-012
-3.564467e-012
-3.531792e-012
-3.491299e-012
-3.443022e-012
-3.385642e-012
-3.319520e-012
-3.243966e-012
-3.158813e-012
-3.064318e-012
-2.960357e-012
-2.847605e-012
-2.726910e-012
-2.598709e-012
-2.464992e-012
-2.326761e-012
-2.185972e-012
-2.044770e-012
-1.904649e-012
-1.768081e-012
-1.636515e-012
-1.511836e-012
-1.395565e-012
-1.288462e-012
-1.190720e-012
-1.102793e-012
-1.023133e-012
-9.510968e-013
-8.845973e-013
-8.213898e-013
-7.596139e-013
-6.959979e-013
-6.295461e-013
-5.578879e-013
-4.807142e-013
-3.971081e-013
-3.084396e-013
-2.159683e-013
-1.218840e-013
-2.941305e-014
5.812586e-014
1.369194e-013
2.038322e-013
2.550671e-013
2.884523e-013
3.023665e-013
2.957528e-013
2.689787e-013
2.235935e-013
1.619755e-013
8.739585e-014
3.664870e-015
-8.428973e-014
-1.723994e-013
-2.564038e-013
-3.322721e-013
-3.970326e-013
-4.486120e-013
-4.855831e-013
-5.081672e-013
-5.164061e-013
-5.118835e-013
-4.969841e-013
-4.735125e-013
-4.441969e-013
-4.111756e-013
-3.767537e-013
-3.422321e-013
-3.094417e-013
-2.790144e-013
-2.513247e-013
-2.269668e-013
-2.055549e-013
-1.871823e-013
-1.712568e-013
-1.572960e-013
-1.449881e-013
-1.343157e-013
-1.243772e-013
-1.152849e-013
-1.065731e-013
-9.805173e-014
-9.005617e-014
-8.213347e-014
-7.421554e-014
-6.645179e-014
-5.887516e-014
-5.159930e-014
-4.467298e-014
-3.808559e-014
-3.207542e-014
-2.664357e-014
-2.207669e-014
-1.822214e-014
-1.521369e-014
-1.329075e-014
-1.221045e-014
-3.748643e-012
-3.739502e-012
-3.721546e-012
-3.694639e-012
-3.658434e-012
-3.612937e-012
-3.558594e-012
-3.494679e-012
-3.421467e-012
-3.339064e-012
-3.247446e-012
-3.146845e-012
-3.037896e-012
-2.920812e-012
-2.796572e-012
-2.665852e-012
-2.530418e-012
-2.391481e-012
-2.250778e-012
-2.110365e-012
-1.971865e-012
-1.837869e-012
-1.709535e-012
-1.588622e-012
-1.476432e-012
-1.372892e-012
-1.277434e-012
-1.189159e-012
-1.104827e-012
-1.021927e-012
-9.352353e-013
-8.405210e-013
-7.324202e-013
-6.056938e-013
-4.561429e-013
-2.807136e-013
-7.728817e-014
1.539470e-013
4.102949e-013
6.876618e-013
9.790517e-013
1.276169e-012
1.568922e-012
1.846528e-012
2.098234e-012
2.313035e-012
2.482050e-012
2.597023e-012
2.653043e-012
2.647037e-012
2.579478e-012
2.453388e-012
2.274561e-012
2.051529e-012
1.794145e-012
1.514223e-012
1.223534e-012
9.344858e-013
6.573815e-013
4.021642e-013
1.757700e-013
-1.617907e-014
-1.714485e-013
-2.900110e-013
-3.731528e-013
-4.243688e-013
-4.485619e-013
-4.507496e-013
-4.364713e-013
-4.106118e-013
-3.782046e-013
-3.425673e-013
-3.066362e-013
-2.729407e-013
-2.421248e-013
-2.154700e-013
-1.925026e-013
-1.733626e-013
-1.576542e-013
-1.445347e-013
-1.336743e-013
-1.246155e-013
-1.165469e-013
-1.094421e-013
-1.025199e-013
-9.631462e-014
-8.971573e-014
-8.326863e-014
-7.688658e-014
-7.040023e-014
-6.386813e-014
-5.773046e-014
-5.153512e-014
-4.595646e-014
-4.073473e-014
-3.622705e-014
-3.244383e-014
-2.945837e-014
-2.753652e-014
-2.649221e-014
-3.898872e-012
-3.886073e-012
-3.860815e-012
-3.823073e-012
-3.773269e-012
-3.711867e-012
-3.638928e-012
-3.555502e-012
-3.461884e-012
-3.358530e-012
-3.246691e-012
-3.126352e-012
-2.998998e-012
-2.865324e-012
-2.726900e-012
-2.585084e-012
-2.441440e-012
-2.297683e-012
-2.156209e-012
-2.018480e-012
-1.886774e-012
-1.762733e-012
-1.647144e-012
-1.540649e-012
-1.441773e-012
-1.348329e-012
-1.255973e-012
-1.158868e-012
-1.048843e-012
-9.160916e-013
-7.498771e-013
-5.383035e-013
-2.698655e-013
6.520180e-014
4.756105e-013
9.659910e-013
1.536463e-012
2.183580e-012
2.897643e-012
3.663678e-012
4.462807e-012
5.271002e-012
6.062322e-012
6.808668e-012
7.481941e-012
8.056123e-012
8.507005e-012
8.816305e-012
8.970335e-012
8.961911e-012
8.791498e-012
8.465729e-012
7.998383e-012
7.409117e-012
6.722495e-012
5.966188e-012
5.169613e-012
4.362649e-012
3.573361e-012
2.825928e-012
2.141393e-012
1.534460e-012
1.014688e-012
5.859682e-013
2.465468e-013
-9.018995e-015
-1.896662e-013
-3.065770e-013
-3.718470e-013
-3.976870e-013
-3.951665e-013
-3.739461e-013
-3.422455e-013
-3.061392e-013
-2.698772e-013
-2.362758e-013
-2.068638e-013
-1.825145e-013
-1.629076e-013
-1.474380e-013
-1.355460e-013
-1.261597e-013
-1.192190e-013
-1.133958e-013
-1.083252e-013
-1.036156e-013
-9.923220e-014
-9.459681e-014
-8.992281e-014
-8.487043e-014
-7.952575e-014
-7.420253e-014
-6.898665e-014
-6.396549e-014
-5.921235e-014
-5.483109e-014
-5.124498e-014
-4.850152e-014
-4.641855e-014
-4.552061e-014
-4.068401e-012
-4.051416e-012
-4.017211e-012
-3.966903e-012
-3.900823e-012
-3.819933e-012
-3.725537e-012
-3.618771e-012
-3.500697e-012
-3.372911e-012
-3.236484e-012
-3.093458e-012
-2.944925e-012
-2.792869e-012
-2.639396e-012
-2.486014e-012
-2.335009e-012
-2.188953e-012
-2.049780e-012
-1.919411e-012
-1.799175e-012
-1.689173e-012
-1.588012e-012
-1.492523e-012
-1.396368e-012
-1.290073e-012
-1.160633e-012
-9.907710e-013
-7.604251e-013
-4.456107e-013
-2.101829e-014
5.388219e-013
1.258231e-012
2.157044e-012
3.249168e-012
4.540262e-012
6.025487e-012
7.689275e-012
9.503842e-012
1.143021e-011
1.341978e-011
1.541484e-011
1.735322e-011
1.916922e-011
2.079824e-011
2.218042e-011
2.326248e-011
2.400195e-011
2.436889e-011
2.434770e-011
2.393814e-011
2.315568e-011
2.203041e-011
2.060598e-011
1.893680e-011
1.708603e-011
1.512062e-011
1.310888e-011
1.111680e-011
9.203257e-012
7.419243e-012
5.803518e-012
4.383173e-012
3.172100e-012
2.172608e-012
1.376371e-012
7.663736e-013
3.201554e-013
1.242826e-014
-1.847228e-013
-2.964260e-013
-3.465424e-013
-3.548175e-013
-3.371617e-013
-3.058727e-013
-2.699806e-013
-2.346798e-013
-2.030298e-013
-1.771417e-013
-1.567682e-013
-1.418641e-013
-1.310017e-013
-1.238527e-013
-1.187069e-013
-1.154972e-013
-1.126154e-013
-1.104715e-013
-1.077595e-013
-1.049817e-013
-1.018493e-013
-9.824970e-014
-9.424184e-014
-9.006202e-014
-8.579916e-014
-8.159245e-014
-7.790313e-014
-7.465790e-014
-7.205082e-014
-7.029984e-014
-6.933641e-014
-4.246252e-012
-4.224069e-012
-4.180503e-012
-4.115549e-012
-4.031128e-012
-3.928622e-012
-3.809587e-012
-3.676419e-012
-3.531070e-012
-3.375595e-012
-3.212744e-012
-3.044577e-012
-2.873783e-012
-2.702529e-012
-2.534276e-012
-2.371534e-012
-2.216694e-012
-2.072666e-012
-1.941249e-012
-1.823013e-012
-1.716966e-012
-1.619285e-012
-1.522375e-012
-1.413411e-012
-1.273691e-012
-1.077567e-012
-7.911063e-013
-3.737273e-013
2.226505e-013
1.050536e-012
2.164930e-012
3.619142e-012
5.460359e-012
7.725148e-012
1.043481e-011
1.359090e-011
1.717227e-011
2.113285e-011
2.540303e-011
2.988935e-011
3.447804e-011
3.904120e-011
4.343994e-011
4.753354e-011
5.118431e-011
5.426475e-011
5.666446e-011
5.829494e-011
5.909452e-011
5.903148e-011
5.810580e-011
5.634923e-011
5.382491e-011
5.062311e-011
4.685804e-011
4.266190e-011
3.817816e-011
3.355354e-011
2.893219e-011
2.444648e-011
2.021219e-011
1.632245e-011
1.284511e-011
9.821237e-012
7.265955e-012
5.170061e-012
3.505367e-012
2.228546e-012
1.286855e-012
6.234035e-013
1.817672e-013
-9.106578e-014
-2.414685e-013
-3.079351e-013
-3.211990e-013
-3.038448e-013
-2.723652e-013
-2.374658e-013
-2.045143e-013
-1.772837e-013
-1.563001e-013
-1.418674e-013
-1.322509e-013
-1.268269e-013
-1.239405e-013
-1.227030e-013
-1.225920e-013
-1.222240e-013
-1.217105e-013
-1.209089e-013
-1.191011e-013
-1.168889e-013
-1.142608e-013
-1.113861e-013
-1.081433e-013
-1.051452e-013
-1.023710e-013
-1.002986e-013
-9.875169e-014
-9.794916e-014
-4.420230e-012
-4.392765e-012
-4.337921e-012
-4.257676e-012
-4.153416e-012
-4.027161e-012
-3.881829e-012
-3.720234e-012
-3.545484e-012
-3.360884e-012
-3.169928e-012
-2.976138e-012
-2.783208e-012
-2.594993e-012
-2.414955e-012
-2.246962e-012
-2.094151e-012
-1.958151e-012
-1.839137e-012
-1.734191e-012
-1.635132e-012
-1.528104e-012
-1.389649e-012
-1.185517e-012
-8.686064e-013
-3.763604e-013
3.682953e-013
1.456917e-012
2.993797e-012
5.089384e-012
7.855449e-012
1.139567e-011
1.579756e-011
2.112122e-011
2.739124e-011
3.458942e-011
4.264940e-011
5.145481e-011
6.084129e-011
7.060018e-011
8.048754e-011
9.023370e-011
9.955539e-011
1.081674e-010
1.157979e-010
1.221974e-010
1.271530e-010
1.304956e-010
1.321082e-010
1.319321e-010
1.299684e-010
1.262795e-010
1.209864e-010
1.142643e-010
1.063348e-010
9.745660e-011
8.791352e-011
7.800153e-011
6.801385e-011
5.822772e-011
4.889120e-011
4.021162e-011
3.234778e-011
2.540592e-011
1.943777e-011
1.444548e-011
1.038734e-011
7.187105e-012
4.744355e-012
2.945315e-012
1.672794e-012
8.145935e-013
2.684906e-013
-5.223638e-014
-2.192347e-013
-2.872075e-013
-2.968077e-013
-2.763154e-013
-2.442854e-013
-2.113430e-013
-1.830228e-013
-1.616541e-013
-1.474172e-013
-1.388635e-013
-1.352266e-013
-1.345163e-013
-1.357169e-013
-1.375642e-013
-1.394906e-013
-1.409146e-013
-1.418082e-013
-1.417815e-013
-1.411631e-013
-1.397057e-013
-1.382314e-013
-1.362705e-013
-1.346364e-013
-1.331070e-013
-1.319268e-013
-1.313649e-013
-4.576890e-012
-4.543680e-012
-4.477775e-012
-4.381125e-012
-4.256000e-012
-4.105121e-012
-3.932410e-012
-3.741162e-012
-3.536253e-012
-3.322181e-012
-3.103672e-012
-2.885791e-012
-2.673386e-012
-2.472223e-012
-2.286584e-012
-2.120418e-012
-1.975979e-012
-1.852132e-012
-1.743713e-012
-1.636400e-012
-1.506676e-012
-1.314736e-012
-1.002360e-012
-4.876197e-013
3.381083e-013
1.613503e-012
3.505476e-012
6.207535e-012
9.931669e-012
1.489792e-011
2.131851e-011
2.938234e-011
3.923383e-011
5.095592e-011
6.455382e-011
7.994307e-011
9.694348e-011
1.152813e-010
1.345942e-010
1.544465e-010
1.743465e-010
1.937671e-010
2.121695e-010
2.290261e-010
2.438423e-010
2.561752e-010
2.656515e-010
2.719813e-010
2.749670e-010
2.745119e-010
2.706231e-010
2.634118e-010
2.530903e-010
2.399656e-010
2.244293e-010
2.069436e-010
1.880236e-010
1.682161e-010
1.480763e-010
1.281436e-010
1.089150e-010
9.082327e-011
7.421836e-011
5.935293e-011
4.637833e-011
3.534461e-011
2.621039e-011
1.885777e-011
1.311134e-011
8.759140e-012
5.573417e-012
3.327099e-012
1.809971e-012
8.355795e-013
2.490298e-013
-7.420947e-014
-2.283060e-013
-2.811973e-013
-2.799177e-013
-2.545155e-013
-2.227541e-013
-1.938241e-013
-1.722797e-013
-1.581096e-013
-1.508699e-013
-1.487965e-013
-1.501507e-013
-1.535306e-013
-1.576562e-013
-1.619069e-013
-1.654945e-013
-1.681252e-013
-1.700432e-013
-1.709045e-013
-1.712414e-013
-1.710257e-013
-1.704877e-013
-1.701160e-013
-1.696000e-013
-1.692535e-013
-4.702773e-012
-4.663913e-012
-4.586581e-012
-4.473333e-012
-4.326970e-012
-4.151248e-012
-3.950573e-012
-3.730435e-012
-3.496373e-012
-3.254145e-012
-3.010612e-012
-2.772790e-012
-2.546908e-012
-2.339826e-012
-2.156356e-012
-1.999122e-012
-1.866575e-012
-1.748888e-012
-1.624676e-012
-1.456212e-012
-1.180406e-012
-7.033870e-013
1.086521e-013
1.437314e-012
3.517704e-012
6.639449e-012
1.114457e-011
1.741696e-011
2.586470e-011
3.689466e-011
5.088098e-011
6.812936e-011
8.884067e-011
1.130791e-010
1.407474e-010
1.715735e-010
2.051091e-010
2.407433e-010
2.777261e-010
3.152033e-010
3.522546e-010
3.879371e-010
4.213236e-010
4.515404e-010
4.777974e-010
4.994127e-010
5.158298e-010
5.266303e-010
5.315410e-010
5.304369e-010
5.233436e-010
5.104349e-010
4.920316e-010
4.685957e-010
4.407228e-010
4.091297e-010
3.746376e-010
3.381466e-010
3.006043e-010
2.629679e-010
2.261603e-010
1.910277e-010
1.582956e-010
1.285356e-010
1.021416e-010
7.932031e-011
6.009784e-011
4.433821e-011
3.177578e-011
2.205187e-011
1.475529e-011
9.458917e-012
5.750496e-012
3.256863e-012
1.656000e-012
6.848684e-013
1.375187e-013
-1.392022e-013
-2.546086e-013
-2.813205e-013
-2.669509e-013
-2.378119e-013
-2.091027e-013
-1.871955e-013
-1.733793e-013
-1.672815e-013
-1.670909e-013
-1.707505e-013
-1.763303e-013
-1.831583e-013
-1.895094e-013
-1.953125e-013
-2.000808e-013
-2.040830e-013
-2.068421e-013
-2.088878e-013
-2.100806e-013
-2.109310e-013
-2.113396e-013
-2.115551e-013
-4.784530e-012
-4.739777e-012
-4.651356e-012
-4.521639e-012
-4.354690e-012
-4.154696e-012
-3.927645e-012
-3.679683e-012
-3.418754e-012
-3.152606e-012
-2.889705e-012
-2.638823e-012
-2.408227e-012
-2.204583e-012
-2.031520e-012
-1.885403e-012
-1.752800e-012
-1.602359e-012
-1.377275e-012
-9.833041e-013
-2.766443e-013
9.516865e-013
2.989910e-012
6.217982e-012
1.111450e-011
1.825466e-011
2.829797e-011
4.196036e-011
5.997152e-011
8.301886e-011
1.116823e-010
1.463641e-010
1.872283e-010
2.341477e-010
2.866795e-010
3.440615e-010
4.052402e-010
4.689215e-010
5.336424e-010
5.978518e-010
6.599934e-010
7.185801e-010
7.722569e-010
8.198440e-010
8.603619e-010
8.930406e-010
9.173132e-010
9.328014e-010
9.392960e-010
9.367384e-010
9.252078e-010
9.049135e-010
8.761994e-010
8.395536e-010
7.956240e-010
7.452349e-010
6.893968e-010
6.293033e-010
5.663122e-010
5.019040e-010
4.376204e-010
3.749848e-010
3.154159e-010
2.601407e-010
2.101229e-010
1.660121e-010
1.281230e-010
9.644863e-011
7.069782e-011
5.035742e-011
3.476391e-011
2.317799e-011
1.484972e-011
9.072158e-012
5.217252e-012
2.756565e-012
1.265362e-012
4.190509e-013
-1.960948e-014
-2.162820e-013
-2.800394e-013
-2.800400e-013
-2.554705e-013
-2.274623e-013
-2.055094e-013
-1.925534e-013
-1.878805e-013
-1.896915e-013
-1.959218e-013
-2.043697e-013
-2.136656e-013
-2.230323e-013
-2.312993e-013
-2.386183e-013
-2.445021e-013
-2.491548e-013
-2.527986e-013
-2.552289e-013
-2.569296e-013
-2.577799e-013
-4.808923e-012
-4.758496e-012
-4.659298e-012
-4.514433e-012
-4.327699e-012
-4.105354e-012
-3.854349e-012
-3.582634e-012
-3.299777e-012
-3.016053e-012
-2.742166e-012
-2.488577e-012
-2.264002e-012
-2.072599e-012
-1.910038e-012
-1.757710e-012
-1.572547e-012
-1.274486e-012
-7.283334e-013
2.757751e-013
2.048484e-012
5.026890e-012
9.797803e-012
1.711433e-011
2.790021e-011
4.323276e-011
6.430102e-011
9.233666e-011
1.285139e-010
1.738306e-010
2.289774e-010
2.942141e-010
3.692696e-010
4.532883e-010
5.448278e-010
6.419243e-010
7.422103e-010
8.430791e-010
9.418713e-010
1.036061e-009
1.123417e-009
1.202127e-009
1.270860e-009
1.328785e-009
1.375522e-009
1.411071e-009
1.435692e-009
1.449788e-009
1.453793e-009
1.448066e-009
1.432834e-009
1.408165e-009
1.373993e-009
1.330184e-009
1.276639e-009
1.213422e-009
1.140884e-009
1.059779e-009
9.713316e-010
8.772487e-010
7.796658e-010
6.810263e-010
5.839082e-010
4.908230e-010
4.040125e-010
3.252774e-010
2.558596e-010
1.963897e-010
1.469078e-010
1.069414e-010
7.562402e-011
5.183511e-011
3.433634e-011
2.188948e-011
1.334529e-011
7.702001e-012
4.131048e-012
1.980988e-012
7.627159e-013
1.261600e-013
-1.683169e-013
-2.761133e-013
-2.933295e-013
-2.743577e-013
-2.479405e-013
-2.268001e-013
-2.148452e-013
-2.123405e-013
-2.169464e-013
-2.261515e-013
-2.378121e-013
-2.504314e-013
-2.625900e-013
-2.736398e-013
-2.833681e-013
-2.915463e-013
-2.979513e-013
-3.025353e-013
-3.057005e-013
-3.071791e-013
-4.763025e-012
-4.707686e-012
-4.598800e-012
-4.439809e-012
-4.235767e-012
-3.994319e-012
-3.723335e-012
-3.433740e-012
-3.136917e-012
-2.845870e-012
-2.572758e-012
-2.328558e-012
-2.118633e-012
-1.938991e-012
-1.764552e-012
-1.539084e-012
-1.155534e-012
-4.292803e-013
9.325455e-013
3.371760e-012
7.521362e-012
1.424908e-011
2.468844e-011
4.025499e-011
6.262570e-011
9.367806e-011
1.353733e-010
1.895839e-010
2.578736e-010
3.412466e-010
4.399015e-010
5.530258e-010
6.786768e-010
8.137807e-010
9.542731e-010
1.095375e-009
1.231985e-009
1.359128e-009
1.472425e-009
1.568491e-009
1.645232e-009
1.702003e-009
1.739592e-009
1.760062e-009
1.766461e-009
1.762428e-009
1.751765e-009
1.737989e-009
1.723936e-009
1.711432e-009
1.701091e-009
1.692240e-009
1.682995e-009
1.670496e-009
1.651260e-009
1.621639e-009
1.578319e-009
1.518802e-009
1.441806e-009
1.347520e-009
1.237674e-009
1.115405e-009
9.849465e-010
8.511709e-010
7.190781e-010
5.932891e-010
4.776321e-010
3.748646e-010
2.865615e-010
2.131552e-010
1.541042e-010
1.081339e-010
7.350928e-011
4.829165e-011
3.054932e-011
1.850957e-011
1.064910e-011
5.730252e-012
2.797623e-012
1.148078e-012
2.872598e-013
-1.154937e-013
-2.712097e-013
-3.068313e-013
-2.941160e-013
-2.698995e-013
-2.502590e-013
-2.407217e-013
-2.411042e-013
-2.490596e-013
-2.620922e-013
-2.774759e-013
-2.936340e-013
-3.091329e-013
-3.230525e-013
-3.351661e-013
-3.447604e-013
-3.520384e-013
-3.569174e-013
-3.595383e-013
-4.635757e-012
-4.576052e-012
-4.458702e-012
-4.288172e-012
-4.070480e-012
-3.814261e-012
-3.530388e-012
-3.231548e-012
-2.931539e-012
-2.645743e-012
-2.386849e-012
-2.162263e-012
-1.966848e-012
-1.771096e-012
-1.504971e-012
-1.031188e-012
-1.091535e-013
1.651941e-012
4.853525e-012
1.037488e-011
1.944330e-011
3.369354e-011
5.520053e-011
8.645993e-011
1.302947e-010
1.896639e-010
2.673615e-010
3.656097e-010
4.855768e-010
6.268747e-010
7.871165e-010
9.616307e-010
1.143418e-009
1.323423e-009
1.491129e-009
1.635456e-009
1.745853e-009
1.813467e-009
1.832209e-009
1.799596e-009
1.717225e-009
1.590842e-009
1.429976e-009
1.247194e-009
1.057057e-009
8.748772e-010
7.154040e-010
5.915407e-010
5.132085e-010
4.864492e-010
5.128464e-010
5.893246e-010
7.083635e-010
8.586286e-010
1.025984e-009
1.194809e-009
1.349494e-009
1.475957e-009
1.563011e-009
1.603399e-009
1.594363e-009
1.537677e-009
1.439138e-009
1.307608e-009
1.153779e-009
9.888373e-010
8.232445e-010
6.657887e-010
5.229995e-010
3.989520e-010
2.954052e-010
2.121873e-010
1.477118e-010
9.951808e-011
6.475762e-011
4.057430e-011
2.436365e-011
1.391439e-011
7.458984e-012
3.657375e-012
1.542062e-012
4.468325e-013
-6.540748e-014
-2.675487e-013
-3.211250e-013
-3.146673e-013
-2.931804e-013
-2.763264e-013
-2.702644e-013
-2.744885e-013
-2.870002e-013
-3.045200e-013
-3.241842e-013
-3.440370e-013
-3.626452e-013
-3.790017e-013
-3.927244e-013
-4.030029e-013
-4.100298e-013
-4.135372e-013
-4.416570e-012
-4.353659e-012
-4.230105e-012
-4.050986e-012
-3.824570e-012
-3.560832e-012
-3.272886e-012
-2.976452e-012
-2.687844e-012
-2.422116e-012
-2.188915e-012
-1.982935e-012
-1.770844e-012
-1.469946e-012
-9.120471e-013
2.027188e-013
2.374952e-012
6.388004e-012
1.341319e-011
2.511596e-011
4.375702e-011
7.225270e-011
1.141592e-010
1.735334e-010
2.546205e-010
3.613325e-010
4.965060e-010
6.609733e-010
8.525355e-010
1.064988e-009
1.287399e-009
1.503846e-009
1.693806e-009
1.833309e-009
1.896833e-009
1.859803e-009
1.701417e-009
1.407424e-009
9.724886e-010
4.017940e-010
-2.883465e-010
-1.070958e-009
-1.909909e-009
-2.762302e-009
-3.581487e-009
-4.320445e-009
-4.935255e-009
-5.388365e-009
-5.651461e-009
-5.707705e-009
-5.553183e-009
-5.197424e-009
-4.662899e-009
-3.983475e-009
-3.201893e-009
-2.366405e-009
-1.526862e-009
-7.305954e-010
-1.854227e-011
5.779473e-010
1.039229e-009
1.358146e-009
1.539406e-009
1.597695e-009
1.554860e-009
1.436642e-009
1.269442e-009
1.077572e-009
8.813012e-010
6.958039e-010
5.309703e-010
3.919008e-010
2.798324e-010
1.932501e-010
1.289675e-010
8.304319e-011
5.145947e-011
3.055958e-011
1.727255e-011
9.180111e-012
4.482330e-012
1.904086e-012
5.853547e-013
-2.627841e-014
-2.686819e-013
-3.369177e-013
-3.363333e-013
-3.185878e-013
-3.058304e-013
-3.045268e-013
-3.140181e-013
-3.319430e-013
-3.543120e-013
-3.782833e-013
-4.016669e-013
-4.226608e-013
-4.405544e-013
-4.543377e-013
-4.636373e-013
-4.684746e-013
-4.097145e-012
-4.032038e-012
-3.905184e-012
-3.722643e-012
-3.493783e-012
-3.231771e-012
-2.952547e-012
-2.673326e-012
-2.411585e-012
-2.178567e-012
-1.970802e-012
-1.752478e-012
-1.429434e-012
-8.059473e-013
4.774777e-013
3.032745e-012
7.841354e-012
1.639917e-011
3.087750e-011
5.427740e-011
9.053611e-011
1.445194e-010
2.218169e-010
3.282453e-010
4.689642e-010
6.471533e-010
8.622604e-010
1.107940e-009
1.369936e-009
1.624279e-009
1.836268e-009
1.960705e-009
1.943748e-009
1.726533e-009
1.250420e-009
4.633753e-010
-6.732480e-010
-2.178433e-009
-4.046620e-009
-6.244927e-009
-8.712890e-009
-1.136480e-008
-1.409438e-008
-1.678130e-008
-1.929894e-008
-2.152270e-008
-2.333827e-008
-2.464926e-008
-2.538380e-008
-2.549969e-008
-2.498766e-008
-2.387270e-008
-2.221299e-008
-2.009646e-008
-1.763511e-008
-1.495716e-008
-1.219776e-008
-9.488902e-009
-6.949508e-009
-4.676871e-009
-2.740331e-009
-1.178016e-009
3.003363e-012
8.233228e-010
1.325210e-009
1.565039e-009
1.605355e-009
1.507690e-009
1.326975e-009
1.108009e-009
8.839989e-010
6.768531e-010
4.987243e-010
3.541990e-010
2.426433e-010
1.603177e-010
1.020606e-010
6.247084e-011
3.662757e-011
2.043894e-011
1.073185e-011
5.186088e-012
2.191178e-012
6.833462e-013
-6.047630e-015
-2.776396e-013
-3.558596e-013
-3.602697e-013
-3.469678e-013
-3.396363e-013
-3.445824e-013
-3.605158e-013
-3.840081e-013
-4.115412e-013
-4.394149e-013
-4.652645e-013
-4.876277e-013
-5.051621e-013
-5.171245e-013
-5.231667e-013
-3.670529e-012
-3.605230e-012
-3.478973e-012
-3.298846e-012
-3.077071e-012
-2.829030e-012
-2.573017e-012
-2.327697e-012
-2.107059e-012
-1.908894e-012
-1.697517e-012
-1.371472e-012
-7.122182e-013
6.922573e-013
3.560482e-012
9.072005e-012
1.906228e-011
3.625080e-011
6.446912e-011
1.088308e-010
1.757425e-010
2.726158e-010
4.071005e-010
5.856469e-010
8.112282e-010
1.080161e-009
1.378125e-009
1.675736e-009
1.924329e-009
2.052838e-009
1.966843e-009
1.550764e-009
6.738775e-010
-7.997216e-010
-2.997848e-009
-6.024975e-009
-9.946894e-009
-1.477742e-008
-2.046904e-008
-2.690895e-008
-3.392107e-008
-4.127378e-008
-4.869264e-008
-5.587657e-008
-6.251611e-008
-6.831220e-008
-7.299431e-008
-7.633680e-008
-7.817284e-008
-7.840512e-008
-7.701292e-008
-7.405486e-008
-6.966712e-008
-6.405659e-008
-5.748901e-008
-5.027246e-008
-4.273697e-008
-3.521173e-008
-2.800199e-008
-2.136786e-008
-1.550763e-008
-1.054748e-008
-6.538831e-009
-3.463587e-009
-1.245956e-009
2.310924e-010
1.107513e-009
1.528690e-009
1.630990e-009
1.531689e-009
1.323674e-009
1.074412e-009
8.281452e-010
6.100469e-010
4.311167e-010
2.929059e-010
1.914845e-010
1.204124e-010
7.271626e-011
4.202815e-011
2.310632e-011
1.194972e-011
5.687037e-012
2.366125e-012
7.252790e-013
-1.134895e-014
-2.965360e-013
-3.794365e-013
-3.877323e-013
-3.799790e-013
-3.796947e-013
-3.915793e-013
-4.145056e-013
-4.436099e-013
-4.754484e-013
-5.061246e-013
-5.327736e-013
-5.543380e-013
-5.688791e-013
-5.765268e-013
-3.132385e-012
-3.069639e-012
-2.948763e-012
-2.779348e-012
-2.576164e-012
-2.357008e-012
-2.141468e-012
-1.945705e-012
-1.770305e-012
-1.581690e-012
-1.275782e-012
-6.199431e-013
8.387078e-013
3.909898e-012
9.954519e-012
2.113729e-011
4.073361e-011
7.345244e-011
1.256913e-010
2.055866e-010
3.226275e-010
4.865332e-010
7.050179e-010
9.800634e-010
1.302425e-009
1.644335e-009
1.950789e-009
2.130386e-009
2.047278e-009
1.516346e-009
3.038645e-010
-1.864308e-009
-5.285929e-009
-1.025722e-008
-1.704134e-008
-2.583396e-008
-3.673063e-008
-4.970046e-008
-6.457035e-008
-8.102192e-008
-9.860192e-008
-1.167445e-007
-1.348028e-007
-1.520862e-007
-1.679003e-007
-1.815856e-007
-1.925541e-007
-2.003207e-007
-2.045297e-007
-2.049749e-007
-2.016127e-007
-1.945682e-007
-1.841325e-007
-1.707507e-007
-1.550007e-007
-1.375612e-007
-1.191714e-007
-1.005842e-007
-8.251578e-008
-6.559755e-008
-5.033499e-008
-3.707901e-008
-2.601339e-008
-1.715966e-008
-1.039820e-008
-5.501607e-009
-2.174517e-009
-9.376514e-011
1.056671e-009
1.559612e-009
1.649024e-009
1.504275e-009
1.252293e-009
9.749279e-010
7.188127e-010
5.055081e-010
3.404635e-010
2.200536e-010
1.365501e-010
8.125749e-011
4.622724e-011
2.499078e-011
1.269413e-011
5.922803e-012
2.404118e-012
7.025756e-013
-4.416037e-014
-3.267601e-013
-4.086470e-013
-4.199314e-013
-4.186733e-013
-4.262900e-013
-4.460490e-013
-4.756106e-013
-5.098265e-013
-5.440810e-013
-5.753633e-013
-6.003652e-013
-6.181192e-013
-6.270598e-013
-2.481291e-012
-2.423975e-012
-2.315353e-012
-2.167327e-012
-1.996624e-012
-1.823180e-012
-1.664477e-012
-1.524970e-012
-1.375560e-012
-1.114738e-012
-5.060118e-013
9.275224e-013
4.061705e-012
1.040411e-011