# vtk DataFile Version 3.0
vtk output
ASCII
DATASET STRUCTURED_POINTS
DIMENSIONS 100 100 1
SPACING 1 1 1
ORIGIN 0 0 0
POINT_DATA 10000
SCALARS SFBox_profile double
LOOKUP_TABLE default 
0.000000e+000
0.000000e+000
0.000000e+000
0.000000e+000
0.000000e+000
0.000000e+000
0.000000e+000
0.000000e+000
0.000000e+000
0.000000e+000
0.000000e+000
0.000000e+000
0.000000e+000
0.000000e+000
0.000000e+000
0.000000e+000
0.000000e+000
0.000000e+000
0.000000e+000
0.000000e+000
0.000000e+000
0.000000e+000
0.000000e+000
0.000000e+000
0.000000e+000
0.000000e+000
0.000000e+000
0.000000e+000
0.000000e+000
0.000000e+000
0.000000e+000
0.000000e+000
0.000000e+000
0.000000e+000
0.000000e+000
0.000000e+000
0.000000e+000
0.000000e+000
0.000000e+000
0.000000e+000
0.000000e+000
0.000000e+000
0.000000e+000
0.000000e+000
0.000000e+000
0.000000e+000
0.000000e+000
0.000000e+000
0.000000e+000
0.000000e+000
0.000000e+000
0.000000e+000
0.000000e+000
0.000000e+000
0.000000e+000
0.000000e+000
0.000000e+000
0.000000e+000
0.000000e+000
0.000000e+000
0.000000e+000
0.000000e+000
0.000000e+000
0.000000e+000
0.000000e+000
0.000000e+000
0.000000e+000
0.000000e+000
0.000000e+000
0.000000e+000
0.000000e+000
0.000000e+000
0.000000e+000
0.000000e+000
0.000000e+000
0.000000e+000
0.000000e+000
0.000000e+000
0.000000e+000
0.000000e+000
0.000000e+000
0.000000e+000
0.000000e+000
0.000000e+000
0.000000e+000
0.000000e+000
0.000000e+000
0.000000e+000
0.000000e+000
0.000000e+000
0.000000e+000
0.000000e+000
0.000000e+000
0.000000e+000
0.000000e+000
0.000000e+000
0.000000e+000
0.000000e+000
0.000000e+000
0.000000e+000
-6.784718e-010
-2.995667e-010
2.426694e-010
6.575878e-010
7.213250e-010
3.890406e-010
-1.775864e-010
-6.883053e-010
-8.748958e-010
-6.360769e-010
-9.294398e-011
4.815151e-010
8.185898e-010
7.992934e-010
4.990124e-010
1.101270e-010
-1.947933e-010
-3.595541e-010
-4.387257e-010
-5.102360e-010
-5.876561e-010
-6.055571e-010
-4.837718e-010
-2.085578e-010
1.421269e-010
4.496082e-010
6.353453e-010
7.030279e-010
7.120429e-010
7.136034e-010
7.087410e-010
6.604995e-010
5.405367e-010
3.624600e-010
1.728563e-010
1.348343e-011
-1.074748e-010
-2.109409e-010
-3.189695e-010
-4.326112e-010
-5.342992e-010
-6.074173e-010
-6.513876e-010
-6.793678e-010
-7.046263e-010
-7.306536e-010
-7.526286e-010
-7.651862e-010
-7.673615e-010
-7.617812e-010
-7.519661e-010
-7.412826e-010
-7.323851e-010
-7.248493e-010
-7.129284e-010
-6.881207e-010
-6.467047e-010
-5.947551e-010
-5.428897e-010
-4.934085e-010
-4.332135e-010
-3.430698e-010
-2.171374e-010
-7.303736e-011
6.089085e-011
1.712653e-010
2.718151e-010
3.858306e-010
5.130076e-010
6.147058e-010
6.376251e-010
5.582140e-010
4.058898e-010
2.397264e-010
9.798080e-011
-3.073695e-011
-1.835059e-010
-3.663261e-010
-5.204950e-010
-5.516752e-010
-4.043362e-010
-1.189277e-010
1.810718e-010
3.667178e-010
3.849118e-010
2.796982e-010
1.415238e-010
3.257662e-011
-4.759706e-011
-1.320883e-010
-2.270517e-010
-2.830525e-010
-2.288207e-010
-4.154908e-011
2.081471e-010
3.822767e-010
3.625212e-010
1.375427e-010
-1.756206e-010
-3.973454e-010
-7.584859e-011
-5.130248e-011
-4.706951e-012
5.162489e-011
9.150020e-011
8.693670e-011
3.090598e-011
-4.879047e-011
-1.013807e-010
-8.770417e-011
-1.294787e-011
7.067472e-011
9.875487e-011
4.379847e-011
-5.971749e-011
-1.370169e-010
-1.276269e-010
-3.110383e-011
9.272949e-011
1.695538e-010
1.652044e-010
1.051871e-010
4.539376e-011
2.179934e-011
2.322272e-011
8.581396e-012
-5.027921e-011
-1.404188e-010
-2.185866e-010
-2.484757e-010
-2.291385e-010
-1.902531e-010
-1.620967e-010
-1.499917e-010
-1.353843e-010
-9.862728e-011
-3.934143e-011
2.411743e-011
7.246098e-011
1.014551e-010
1.217812e-010
1.458760e-010
1.762842e-010
2.057006e-010
2.258531e-010
2.349802e-010
2.376626e-010
2.395776e-010
2.433757e-010
2.483833e-010
2.521815e-010
2.518119e-010
2.449542e-010
2.319381e-010
2.168585e-010
2.048951e-010
1.966305e-010
1.851840e-010
1.611352e-010
1.222265e-010
7.780775e-011
4.134378e-011
1.673547e-011
-7.153186e-012
-4.569906e-011
-1.003382e-010
-1.519689e-010
-1.754030e-010
-1.627782e-010
-1.323355e-010
-1.114891e-010
-1.090913e-010
-1.049328e-010
-6.948064e-011
3.298439e-012
8.248129e-011
1.220508e-010
1.001996e-010
3.978481e-011
-1.032198e-011
-1.708255e-011
9.644903e-012
2.950031e-011
1.172163e-011
-3.434620e-011
-6.668503e-011
-4.950602e-011
1.156467e-011
7.012991e-011
7.616901e-011
1.863714e-011
-6.238008e-011
-1.047087e-010
-7.174564e-011
1.830226e-011
1.039435e-010
1.240215e-010
6.148696e-011
-4.392899e-011
-1.226462e-010
6.205521e-010
2.476520e-010
-2.666911e-010
-6.257292e-010
-6.298280e-010
-2.790076e-010
2.363073e-010
6.462611e-010
7.484524e-010
5.074734e-010
5.559159e-011
-3.956295e-010
-6.713148e-010
-7.065455e-010
-5.436602e-010
-2.743079e-010
2.181601e-011
3.006701e-010
5.380563e-010
7.044358e-010
7.609023e-010
6.802593e-010
4.709671e-010
1.796004e-010
-1.315004e-010
-4.125256e-010
-6.388732e-010
-8.034820e-010
-9.023199e-010
-9.289767e-010
-8.812905e-010
-7.695659e-010
-6.154931e-010
-4.419161e-010
-2.632147e-010
-8.459996e-011
9.107257e-011
2.573653e-010
4.051671e-010
5.284020e-010
6.277994e-010
7.089013e-010
7.767387e-010
8.324844e-010
8.745799e-010
9.022581e-010
9.177374e-010
9.254114e-010
9.292872e-010
9.308884e-010
9.289885e-010
9.211063e-010
9.057356e-010
8.837134e-010
8.573636e-010
8.276160e-010
7.914754e-010
7.426843e-010
6.757731e-010
5.899689e-010
4.887819e-010
3.752533e-010
2.479137e-010
1.026460e-010
-6.028877e-011
-2.309301e-010
-3.919739e-010
-5.270329e-010
-6.264734e-010
-6.849490e-010
-6.942942e-010
-6.416345e-010
-5.177736e-010
-3.294000e-010
-1.029842e-010
1.245352e-010
3.199857e-010
4.601348e-010
5.265588e-010
5.001164e-010
3.683292e-010
1.449118e-010
-1.164022e-010
-3.330236e-010
-4.301337e-010
-3.801529e-010
-2.167701e-010
-1.358289e-011
1.559388e-010
2.487346e-010
2.565576e-010
1.918840e-010
7.524929e-011
-6.463447e-011
-1.855768e-010
-2.381689e-010
-1.896868e-010
-5.121449e-011
1.163589e-010
2.296186e-010
8.091604e-010
3.535668e-010
-2.902678e-010
-7.685850e-010
-8.225686e-010
-4.211491e-010
2.228198e-010
7.665091e-010
9.241256e-010
6.229181e-010
3.604405e-011
-5.275909e-010
-8.061137e-010
-7.232571e-010
-3.989198e-010
-3.879987e-011
2.076176e-010
3.190083e-010
3.661665e-010
4.162713e-010
4.648855e-010
4.478072e-010
3.110646e-010
7.024218e-011
-1.928241e-010
-3.883014e-010
-4.775445e-010
-4.848800e-010
-4.602594e-010
-4.325911e-010
-3.943352e-010
-3.233263e-010
-2.139795e-010
-8.714535e-011
2.682376e-011
1.116529e-010
1.728289e-010
2.255942e-010
2.781265e-010
3.260205e-010
3.603012e-010
3.781490e-010
3.854005e-010
3.902017e-010
3.958741e-010
4.000982e-010
3.997849e-010
3.954203e-010
3.904531e-010
3.873585e-010
3.853626e-010
3.822759e-010
3.778412e-010
3.742856e-010
3.732236e-010
3.726552e-010
3.680771e-010
3.569597e-010
3.413225e-010
3.245154e-010
3.049516e-010
2.742200e-010
2.234381e-010
1.524418e-010
7.155569e-011
-7.788500e-012
-8.464685e-011
-1.685565e-010
-2.646800e-010
-3.579497e-010
-4.149983e-010
-4.070480e-010
-3.342325e-010
-2.263588e-010
-1.161650e-010
-1.020844e-011
1.110136e-010
2.589634e-010
4.009787e-010
4.631312e-010
3.805333e-010
1.570494e-010
-1.194469e-010
-3.263166e-010
-3.844402e-010
-3.032749e-010
-1.582686e-010
-2.445376e-011
7.385133e-011
1.558471e-010
2.337302e-010
2.741487e-010
2.156633e-010
3.232776e-011
-2.143104e-010
-3.900659e-010
-3.718187e-010
-1.416875e-010
1.829470e-010
4.144083e-010
2.953821e-010
1.688916e-010
-3.336837e-011
-2.256510e-010
-3.113791e-010
-2.331015e-010
-2.108547e-011
2.047855e-010
3.006487e-010
1.979356e-010
-3.663375e-011
-2.358879e-010
-2.481623e-010
-5.205668e-011
2.203070e-010
3.753368e-010
2.979809e-010
3.205833e-011
-2.598243e-010
-4.205590e-010
-4.051767e-010
-2.885640e-010
-1.798863e-010
-1.255689e-010
-8.345781e-011
1.929160e-011
2.062393e-010
4.237974e-010
5.852267e-010
6.400722e-010
6.054532e-010
5.374482e-010
4.767627e-010
4.203489e-010
3.389587e-010
2.157501e-010
6.628631e-011
-7.553425e-011
-1.866751e-010
-2.696341e-010
-3.419286e-010
-4.152496e-010
-4.857627e-010
-5.419345e-010
-5.781286e-010
-5.993070e-010
-6.143372e-010
-6.274346e-010
-6.369065e-010
-6.403634e-010
-6.385704e-010
-6.334437e-010
-6.239858e-010
-6.065857e-010
-5.798968e-010
-5.475653e-010
-5.137424e-010
-4.755167e-010
-4.221436e-010
-3.446999e-010
-2.471533e-010
-1.454447e-010
-5.263987e-011
3.512515e-011
1.345098e-010
2.529565e-010
3.705280e-010
4.479891e-010
4.584268e-010
4.126528e-010
3.499406e-010
2.989169e-010
2.468959e-010
1.528085e-010
-3.068730e-012
-1.804747e-010
-2.956490e-010
-2.863885e-010
-1.687778e-010
-3.007063e-011
4.116061e-011
2.658866e-011
-1.423045e-011
-7.692108e-012
5.840133e-011
1.200001e-010
9.890383e-011
-1.494771e-011
-1.396756e-010
-1.640982e-010
-4.629309e-011
1.382511e-010
2.458069e-010
1.763602e-010
-4.071364e-011
-2.583488e-010
-3.162188e-010
-1.604697e-010
1.117559e-010
3.177331e-010
-5.303152e-010
-1.713724e-010
2.933452e-010
5.636510e-010
4.838745e-010
1.236014e-010
-2.929970e-010
-5.440689e-010
-5.373532e-010
-3.287798e-010
-4.327525e-011
2.213091e-010
4.294226e-010
5.713867e-010
6.124044e-010
4.920547e-010
1.826643e-010
-2.507248e-010
-6.563317e-010
-8.778106e-010
-8.508611e-010
-6.345290e-010
-3.524211e-010
-9.693148e-011
1.215633e-010
3.442886e-010
5.915798e-010
8.216381e-010
9.577107e-010
9.531060e-010
8.300521e-010
6.580057e-010
4.962207e-010
3.554906e-010
2.096130e-010
3.732814e-011
-1.495662e-010
-3.161227e-010
-4.364414e-010
-5.137556e-010
-5.712718e-010
-6.274815e-010
-6.819508e-010
-7.224787e-010
-7.417066e-010
-7.447534e-010
-7.426525e-010
-7.419281e-010
-7.419505e-010
-7.402757e-010
-7.371642e-010
-7.338000e-010
-7.284097e-010
-7.173476e-010
-7.006504e-010
-6.838253e-010
-6.708963e-010
-6.553742e-010
-6.212734e-010
-5.566095e-010
-4.661216e-010
-3.673068e-010
-2.706121e-010
-1.643674e-010
-2.420652e-011
1.579520e-010
3.542936e-010
5.149743e-010
6.063671e-010
6.362297e-010
6.374551e-010
6.239543e-010
5.648841e-010
4.097840e-010
1.463640e-010
-1.649765e-010
-4.190022e-010
-5.363160e-010
-5.140410e-010
-4.108867e-010
-2.839177e-010
-1.412654e-010
4.178877e-011
2.612145e-010
4.443684e-010
4.824953e-010
3.173558e-010
7.501373e-012
-2.899310e-010
-4.167819e-010
-3.186034e-010
-7.730310e-011
1.505487e-010
2.404640e-010
1.736943e-010
3.122994e-011
-7.714928e-011
-9.135194e-011
-3.260455e-011
2.678640e-011
-9.909688e-010
-3.954052e-010
4.075362e-010
9.364936e-010
9.007227e-010
3.543334e-010
-3.619313e-010
-8.428760e-010
-8.585897e-010
-4.633722e-010
7.979224e-011
4.877006e-010
6.200046e-010
5.153413e-010
3.048037e-010
9.510447e-011
-8.325672e-011
-2.418382e-010
-3.721229e-010
-4.272675e-010
-3.637964e-010
-1.943045e-010
7.806292e-012
1.597238e-010
2.277899e-010
2.385573e-010
2.366189e-010
2.352666e-010
2.087814e-010
1.293156e-010
6.123632e-012
-1.142460e-010
-1.856934e-010
-1.990052e-010
-1.820107e-010
-1.671425e-010
-1.612358e-010
-1.457704e-010
-1.022609e-010
-3.375229e-011
3.823919e-011
9.443704e-011
1.329676e-010
1.654060e-010
2.015658e-010
2.403212e-010
2.736870e-010
2.962071e-010
3.084839e-010
3.133303e-010
3.118281e-010
3.043120e-010
2.928480e-010
2.794490e-010
2.612945e-010
2.306308e-010
1.826850e-010
1.237952e-010
6.852605e-011
2.579931e-011
-1.140292e-011
-5.874406e-011
-1.201336e-010
-1.758925e-010
-1.956668e-010
-1.663942e-010
-1.065429e-010
-4.906502e-011
-8.439917e-012
3.298481e-011
1.017423e-010
1.950001e-010
2.687021e-010
2.692681e-010
1.807429e-010
4.075674e-011
-9.137027e-011
-1.821267e-010
-2.385100e-010
-2.767502e-010
-2.824159e-010
-2.110226e-010
-3.648467e-011
1.988161e-010
3.878007e-010
4.243503e-010
2.799375e-010
2.713231e-011
-2.088297e-010
-3.289645e-010
-3.086065e-010
-1.877052e-010
-2.760307e-011
1.219156e-010
2.258174e-010
2.543993e-010
1.880515e-010
3.897486e-011
-1.355380e-010
-2.530013e-010
-6.698402e-010
-3.095975e-010
1.948818e-010
5.603782e-010
5.895646e-010
2.821768e-010
-1.623602e-010
-4.646881e-010
-4.431585e-010
-1.342018e-010
2.330818e-010
3.974625e-010
2.485245e-010
-1.019269e-010
-4.102649e-010
-4.787717e-010
-2.826708e-010
4.206399e-011
3.213175e-010
4.641820e-010
4.900751e-010
4.625579e-010
4.094441e-010
3.045978e-010
1.151990e-010
-1.449694e-010
-4.121685e-010
-6.179907e-010
-7.342344e-010
-7.757275e-010
-7.668807e-010
-7.121719e-010
-5.993633e-010
-4.253393e-010
-2.120270e-010
5.141680e-012
2.022282e-010
3.785181e-010
5.452563e-010
7.064649e-010
8.524996e-010
9.703921e-010
1.057070e-009
1.121204e-009
1.173888e-009
1.219638e-009
1.256081e-009
1.279770e-009
1.290343e-009
1.289928e-009
1.281065e-009
1.266289e-009
1.247938e-009
1.225781e-009
1.194487e-009
1.145857e-009
1.075918e-009
9.894463e-010
8.947958e-010
7.926508e-010
6.715718e-010
5.181847e-010
3.334964e-010
1.374567e-010
-4.534943e-011
-2.047431e-010
-3.471475e-010
-4.768119e-010
-5.767804e-010
-6.136372e-010
-5.651299e-010
-4.427645e-010
-2.841066e-010
-1.219113e-010
3.580643e-011
1.914471e-010
3.257763e-010
3.894957e-010
3.382194e-010
1.817395e-010
-4.886570e-012
-1.288059e-010
-1.472266e-010
-9.316205e-011
-3.507001e-011
-1.111564e-011
-3.548290e-012
2.361533e-011
6.754536e-011
7.638497e-011
3.990515e-012
-1.237632e-010
-2.056968e-010
-1.441129e-010
5.773710e-011
2.721869e-010
3.329656e-010
1.686765e-010
-1.271325e-010
-3.545609e-010
2.344517e-010
3.531511e-011
-1.984562e-010
-2.935695e-010
-1.986209e-010
-4.045416e-013
1.717336e-010
2.541496e-010
2.710925e-010
2.643930e-010
2.169530e-010
5.982072e-011
-2.362758e-010
-5.779521e-010
-7.719649e-010
-6.559037e-010
-2.324378e-010
3.119487e-010
7.272788e-010
8.632236e-010
7.447316e-010
5.107664e-010
2.852103e-010
9.634507e-011
-9.855312e-011
-3.287208e-010
-5.567170e-010
-7.030441e-010
-7.140709e-010
-6.028210e-010
-4.286180e-010
-2.443144e-010
-6.449773e-011
1.224207e-010
3.216392e-010
5.164189e-010
6.815180e-010
8.056709e-010
8.980686e-010
9.751005e-010
1.044255e-009
1.101255e-009
1.139741e-009
1.160645e-009
1.171989e-009
1.181609e-009
1.191444e-009
1.198113e-009
1.197572e-009
1.189085e-009
1.175937e-009
1.163089e-009
1.153383e-009
1.144760e-009
1.131230e-009
1.107920e-009
1.075920e-009
1.041031e-009
1.005908e-009
9.633598e-010
8.994834e-010
8.053900e-010
6.852187e-010
5.502736e-010
4.047404e-010
2.405038e-010
5.058580e-011
-1.514173e-010
-3.295091e-010
-4.481742e-010
-4.981413e-010
-4.956525e-010
-4.532499e-010
-3.552840e-010
-1.725436e-010
9.060649e-011
3.652494e-010
5.453569e-010
5.598079e-010
4.248956e-010
2.253808e-010
4.069656e-011
-1.106297e-010
-2.526289e-010
-3.822332e-010
-4.303507e-010
-3.102988e-010
-1.895046e-011
3.108501e-010
4.774439e-010
3.601614e-010
2.869706e-011
-2.906043e-010
-3.780005e-010
-1.871218e-010
1.202100e-010
3.019434e-010
2.254526e-010
-3.218765e-011
-2.518876e-010
1.041825e-009
3.715323e-010
-4.864898e-010
-9.744487e-010
-8.301976e-010
-2.204942e-010
4.285246e-010
7.473790e-010
6.441027e-010
2.916777e-010
-6.122188e-011
-2.757073e-010
-3.629095e-010
-3.873175e-010
-3.598653e-010
-2.325312e-010
1.353599e-011
2.946648e-010
4.575601e-010
3.980577e-010
1.539180e-010
-1.192520e-010
-2.689961e-010
-2.541070e-010
-1.476601e-010
-4.568192e-011
2.362797e-011
1.080094e-010
2.626696e-010
4.825693e-010
7.011673e-010
8.485950e-010
9.066186e-010
9.103155e-010
9.046076e-010
9.043467e-010
8.935167e-010
8.547127e-010
7.931292e-010
7.324630e-010
6.924188e-010
6.734776e-010
6.621630e-010
6.474438e-010
6.302960e-010
6.189798e-010
6.178698e-010
6.221606e-010
6.227127e-010
6.148570e-010
6.021096e-010
5.916385e-010
5.865266e-010
5.828849e-010
5.750496e-010
5.636989e-010
5.578408e-010
5.671593e-010
5.918518e-010
6.215314e-010
6.461438e-010
6.675436e-010
6.968367e-010
7.370851e-010
7.697820e-010
7.638908e-010
7.030187e-010
6.028274e-010
4.961824e-010
3.977767e-010
2.873092e-010
1.360144e-010
-4.595026e-011
-1.940398e-010
-2.328656e-010
-1.440304e-010
9.472530e-012
1.327518e-010
1.777674e-010
1.724271e-010
1.694603e-010
1.701178e-010
1.101485e-010
-6.576296e-011
-3.121217e-010
-4.762476e-010
-4.064189e-010
-9.008228e-011
3.043586e-010
5.330945e-010
4.530505e-010
1.275905e-010
-2.227065e-010
-3.825383e-010
-2.890337e-010
-5.560374e-011
1.328990e-010
1.626706e-010
6.218747e-011
-4.238464e-011
1.117652e-009
4.267426e-010
-4.615296e-010
-9.690936e-010
-8.168811e-010
-1.824664e-010
4.604659e-010
6.905594e-010
4.199776e-010
-8.490718e-011
-4.351896e-010
-4.096096e-010
-8.285839e-011
2.813401e-010
4.540727e-010
3.885564e-010
1.916763e-010
-1.448179e-011
-1.930125e-010
-3.712891e-010
-5.488759e-010
-6.498496e-010
-5.754306e-010
-3.001135e-010
9.159029e-011
4.671810e-010
7.453425e-010
9.375333e-010
1.100891e-009
1.260105e-009
1.378893e-009
1.402603e-009
1.320110e-009
1.180182e-009
1.050457e-009
9.648914e-010
9.102624e-010
8.569269e-010
7.959632e-010
7.458822e-010
7.288117e-010
7.460443e-010
7.777892e-010
8.033194e-010
8.180997e-010
8.316760e-010
8.521512e-010
8.754962e-010
8.899879e-010
8.888664e-010
8.765121e-010
8.618677e-010
8.472623e-010
8.257327e-010
7.902832e-010
7.447176e-010
7.029452e-010
6.760802e-010
6.614816e-010
6.477944e-010
6.326662e-010
6.330148e-010
6.723716e-010
7.546763e-010
8.527884e-010
9.284688e-010
9.663345e-010
9.843013e-010
1.004298e-009
1.011858e-009
9.523160e-010
7.774217e-010
5.000570e-010
1.982685e-010
-4.241944e-011
-1.934197e-010
-2.876603e-010
-3.593600e-010
-3.864690e-010
-3.059220e-010
-9.495061e-011
1.663000e-010
3.283150e-010
2.866347e-010
7.556088e-011
-1.498904e-010
-2.336102e-010
-1.359477e-010
4.968969e-011
1.851613e-010
1.945333e-010
1.007635e-010
-2.028133e-011
-1.080115e-010
-1.448538e-010
-1.371408e-010
-8.984040e-011
-7.853709e-012
8.619486e-011
1.505757e-010
3.718089e-010
1.511423e-010
-1.323205e-010
-2.837924e-010
-2.015787e-010
4.301855e-011
2.420151e-010
2.002051e-010
-1.000977e-010
-4.543876e-010
-5.703436e-010
-2.936745e-010
2.538912e-010
7.461531e-010
8.844551e-010
6.048448e-010
9.813245e-011
-3.563374e-010
-5.888798e-010
-6.085963e-010
-5.171921e-010
-3.805331e-010
-1.854328e-010
9.846004e-011
4.408803e-010
7.490730e-010
9.410065e-010
1.011790e-009
1.024786e-009
1.042868e-009
1.074870e-009
1.087964e-009
1.062736e-009
1.026531e-009
1.031174e-009
1.103405e-009
1.221838e-009
1.341144e-009
1.433909e-009
1.507080e-009
1.581859e-009
1.664189e-009
1.737738e-009
1.782756e-009
1.796870e-009
1.795586e-009
1.794900e-009
1.796900e-009
1.793047e-009
1.778679e-009
1.760580e-009
1.749063e-009
1.744713e-009
1.736145e-009
1.712025e-009
1.673240e-009
1.629943e-009
1.585737e-009
1.528089e-009
1.439305e-009
1.318908e-009
1.191927e-009
1.089809e-009
1.021446e-009
9.666921e-010
9.029771e-010
8.372749e-010
8.045953e-010
8.280852e-010
8.812440e-010
8.972744e-010
8.228933e-010
6.631813e-010
4.690774e-010
2.803109e-010
8.842681e-011
-1.343202e-010
-3.691803e-010
-5.263937e-010
-5.038670e-010
-2.818927e-010
3.979064e-011
3.055403e-010
4.121851e-010
3.635339e-010
2.307768e-010
7.479896e-011
-8.352737e-011
-2.253669e-010
-2.937611e-010
-2.216515e-010
-1.389999e-011
2.102848e-010
2.861312e-010
1.427155e-010
-1.157884e-010
-2.796148e-010
-2.084670e-010
4.135122e-011
2.587412e-010
-6.715370e-010
-2.368614e-010
3.035655e-010
5.955376e-010
5.110777e-010
1.862497e-010
-1.453443e-010
-3.423765e-010
-4.038944e-010
-3.766032e-010
-2.601249e-010
-2.464620e-011
2.906614e-010
5.332473e-010
5.289423e-010
2.398712e-010
-1.688358e-010
-4.354282e-010
-3.971402e-010
-1.029034e-010
2.506395e-010
4.889827e-010
5.771610e-010
5.946098e-010
6.210698e-010
6.594050e-010
6.612271e-010
6.067213e-010
5.432288e-010
5.453724e-010
6.475186e-010
8.215921e-010
1.015847e-009
1.204693e-009
1.396326e-009
1.598429e-009
1.787586e-009
1.917882e-009
1.956855e-009
1.908393e-009
1.800577e-009
1.655978e-009
1.477526e-009
1.261295e-009
1.016998e-009
7.715731e-010
5.534801e-010
3.771176e-010
2.441294e-010
1.570651e-010
1.269446e-010
1.652172e-010
2.704433e-010
4.266557e-010
6.159100e-010
8.294974e-010
1.063018e-009
1.300444e-009
1.508039e-009
1.650029e-009
1.712233e-009
1.707443e-009
1.654650e-009
1.555088e-009
1.394840e-009
1.174545e-009
9.323086e-010
7.281537e-010
5.999635e-010
5.364594e-010
4.982920e-010
4.648898e-010
4.524290e-010
4.788871e-010
5.158865e-010
4.902340e-010
3.472350e-010
1.146868e-010
-1.045788e-010
-2.126578e-010
-1.913073e-010
-9.703204e-011
1.107829e-011
1.235859e-010
2.509932e-010
3.520306e-010
3.224943e-010
8.915794e-011
-2.733948e-010
-5.407049e-010
-4.956102e-010
-1.255096e-010
3.272659e-010
5.359895e-010
3.532737e-010
-6.032347e-011
-3.654813e-010
-3.282802e-010
-1.465823e-011
2.752237e-010
-1.281407e-009
-4.319611e-010
5.995403e-010
1.089599e-009
7.913661e-010
5.015894e-011
-5.397326e-010
-6.125149e-010
-2.528612e-010
1.676974e-010
3.379413e-010
2.211044e-010
-7.589452e-012
-1.756139e-010
-2.479588e-010
-2.777436e-010
-2.740436e-010
-1.579340e-010
1.426772e-010
5.735193e-010
9.536444e-010
1.109064e-009
1.012116e-009
7.929521e-010
6.202236e-010
5.726304e-010
6.163773e-010
6.859125e-010
7.671171e-010
8.988971e-010
1.107166e-009
1.352649e-009
1.546634e-009
1.610194e-009
1.512320e-009
1.256186e-009
8.422124e-010
2.545559e-010
-5.177718e-010
-1.455157e-009
-2.508111e-009
-3.621845e-009
-4.756267e-009
-5.882552e-009
-6.966347e-009
-7.960731e-009
-8.816895e-009
-9.498539e-009
-9.983660e-009
-1.025486e-008
-1.029345e-008
-1.008639e-008
-9.637401e-009
-8.967920e-009
-8.106498e-009
-7.080995e-009
-5.924959e-009
-4.690572e-009
-3.449062e-009
-2.271931e-009
-1.209832e-009
-2.912498e-010
4.592886e-010
1.008921e-009
1.331137e-009
1.435531e-009
1.377274e-009
1.228905e-009
1.040221e-009
8.295799e-010
6.155628e-010
4.474790e-010
3.881123e-010
4.562395e-010
5.911238e-010
6.881624e-010
6.795916e-010
5.792186e-010
4.442953e-010
3.003102e-010
1.207400e-010
-1.076029e-010
-3.107181e-010
-3.509163e-010
-1.554959e-010
1.707206e-010
3.845943e-010
2.949589e-010
-5.668275e-011
-4.024056e-010
-4.585691e-010
-1.666317e-010
2.495762e-010
4.667000e-010
3.294016e-010
-2.722574e-011
-3.018255e-010
-2.852430e-010
-2.987564e-011
2.103606e-010
-1.064822e-009
-2.958849e-010
5.968766e-010
9.260312e-010
4.980708e-010
-2.720580e-010
-7.320719e-010
-5.254442e-010
1.478781e-010
7.319333e-010
7.792477e-010
2.832722e-010
-3.724176e-010
-7.570686e-010
-7.077948e-010
-3.694246e-010
1.190973e-011
3.064496e-010
5.372435e-010
7.563628e-010
9.347544e-010
9.898662e-010
9.031061e-010
7.802167e-010
7.787522e-010
9.753707e-010
1.306264e-009
1.630320e-009
1.837980e-009
1.895040e-009
1.793501e-009
1.480531e-009
8.476498e-010
-2.128934e-010
-1.747815e-009
-3.735528e-009
-6.125611e-009
-8.874328e-009
-1.194236e-008
-1.526919e-008
-1.876074e-008
-2.230475e-008
-2.579483e-008
-2.913865e-008
-3.224835e-008
-3.503119e-008
-3.739368e-008
-3.925364e-008
-4.054658e-008
-4.122330e-008
-4.124765e-008
-4.060182e-008
-3.929373e-008
-3.735742e-008
-3.484674e-008
-3.183263e-008
-2.840974e-008
-2.470256e-008
-2.085723e-008
-1.701969e-008
-1.331861e-008
-9.867389e-009
-6.775426e-009
-4.144104e-009
-2.039431e-009
-4.657689e-010
6.274925e-010
1.307498e-009
1.627474e-009
1.638848e-009
1.429891e-009
1.135631e-009
8.885847e-010
7.490700e-010
6.880576e-010
6.461047e-010
6.064674e-010
5.986136e-010
6.260000e-010
6.083225e-010
4.280443e-010
5.858490e-011
-3.564111e-010
-5.790576e-010
-4.659422e-010
-1.019363e-010
2.534608e-010
3.691477e-010
2.169143e-010
-3.164733e-011
-1.689678e-010
-1.201508e-010
2.487460e-011
1.193024e-010
9.160233e-011
-1.202177e-011
-9.029731e-011
-8.086868e-011
-4.343408e-012
6.483308e-011
-2.164533e-010
3.717175e-011
2.862359e-010
2.640280e-010
-6.650448e-011
-4.556597e-010
-5.525296e-010
-2.012669e-010
3.951743e-010
8.025792e-010
6.942279e-010
1.249476e-010
-4.995218e-010
-7.407814e-010
-4.638829e-010
9.080090e-011
5.402864e-010
6.700880e-010
5.544769e-010
4.207418e-010
4.287690e-010
5.792075e-010
7.971487e-010
1.056485e-009
1.396335e-009
1.823482e-009
2.222696e-009
2.376880e-009
2.071630e-009
1.173165e-009
-3.889444e-010
-2.693559e-009
-5.862069e-009
-1.001563e-008
-1.520342e-008
-2.137423e-008
-2.841011e-008
-3.617676e-008
-4.454025e-008
-5.334600e-008
-6.239666e-008
-7.145847e-008
-8.028931e-008
-8.866115e-008
-9.636189e-008
-1.031871e-007
-1.089387e-007
-1.134345e-007
-1.165210e-007
-1.180809e-007
-1.180371e-007
-1.163567e-007
-1.130552e-007
-1.081979e-007
-1.018997e-007
-9.432881e-008
-8.571221e-008
-7.633055e-008
-6.649731e-008
-5.653073e-008
-4.673695e-008
-3.740878e-008
-2.882214e-008
-2.121016e-008
-1.472253e-008
-9.405167e-009
-5.224104e-009
-2.112824e-009
5.923191e-012
1.245038e-009
1.786694e-009
1.866060e-009
1.698106e-009
1.411738e-009
1.059851e-009
6.941388e-010
4.145180e-010
3.225154e-010
4.175963e-010
5.564354e-010
5.465408e-010
3.063977e-010
-5.764218e-011
-3.361868e-010
-3.855996e-010
-2.253834e-010
1.058051e-011
1.966154e-010
2.844826e-010
2.770575e-010
1.781698e-010
-1.018226e-012
-1.954114e-010
-2.880183e-010
-1.988779e-010
1.937014e-011
1.977002e-010
1.919297e-010
2.032223e-011
-1.467207e-010
6.891486e-010
2.908981e-010
-2.043622e-010
-4.863942e-010
-4.590467e-010
-2.419633e-010
-4.603391e-012
1.678488e-010
2.626262e-010
2.586376e-010
1.205637e-010
-1.128468e-010
-2.775778e-010
-1.838256e-010
1.977999e-010
6.583866e-010
8.946420e-010
7.648946e-010
4.200315e-010
1.835622e-010
2.938731e-010
7.426570e-010
1.330178e-009
1.840696e-009
2.146235e-009
2.154020e-009
1.687202e-009
4.427877e-010
-1.932494e-009
-5.736586e-009
-1.117971e-008
-1.843089e-008
-2.766136e-008
-3.901821e-008
-5.254865e-008
-6.814995e-008
-8.558784e-008
-1.045541e-007
-1.247042e-007
-1.456519e-007
-1.669493e-007
-1.880913e-007
-2.085508e-007
-2.278186e-007
-2.454212e-007
-2.609178e-007
-2.738955e-007
-2.839776e-007
-2.908416e-007
-2.942391e-007
-2.940073e-007
-2.900752e-007
-2.824668e-007
-2.713067e-007
-2.568304e-007
-2.393966e-007
-2.194907e-007
-1.977073e-007
-1.747129e-007
-1.512052e-007
-1.278865e-007
-1.054436e-007
-8.451315e-008
-6.562129e-008
-4.912185e-008
-3.517734e-008
-2.379515e-008
-1.488202e-008
-8.265184e-009
-3.675092e-009
-7.414615e-010
9.490316e-010
1.756102e-009
1.931873e-009
1.660503e-009
1.143430e-009
6.249127e-010
3.121094e-010
2.644920e-010
3.741629e-010
4.710157e-010
4.567104e-010
3.450843e-010
1.946306e-010
3.525427e-011
-1.208439e-010
-2.188313e-010
-1.653339e-010
6.539821e-011
3.361394e-010
4.092157e-010
1.587616e-010
-2.659272e-010
-5.233785e-010
-3.761585e-010
6.972099e-011
4.331478e-010
3.980113e-010
1.082913e-011
-3.569415e-010
1.143738e-009
2.875979e-010
-6.631963e-010
-9.526768e-010
-4.561773e-010
2.987673e-010
6.625740e-010
4.142699e-010
-1.408671e-010
-5.267693e-010
-5.074800e-010
-1.900483e-010
1.831349e-010
4.707441e-010
6.697415e-010
7.957013e-010
8.103831e-010
6.966874e-010
5.683051e-010
6.421354e-010
1.058715e-009
1.717656e-009
2.289290e-009
2.379655e-009
1.671825e-009
-9.291803e-011
-3.252015e-009
-8.317247e-009
-1.592826e-008
-2.671454e-008
-4.119099e-008
-5.974607e-008
-8.266905e-008
-1.101324e-007
-1.421168e-007
-1.783439e-007
-2.182804e-007
-2.612056e-007
-3.062844e-007
-3.525995e-007
-3.991557e-007
-4.448979e-007
-4.887592e-007
-5.297192e-007
-5.668391e-007
-5.992660e-007
-6.262245e-007
-6.470199e-007
-6.610602e-007
-6.678837e-007
-6.671798e-007
-6.587999e-007
-6.427644e-007
-6.192788e-007
-5.887609e-007
-5.518692e-007
-5.095103e-007
-4.628151e-007
-4.130880e-007
-3.617514e-007
-3.102950e-007
-2.602148e-007
-2.129191e-007
-1.696047e-007
-1.311492e-007
-9.806804e-008
-7.054151e-008
-4.846612e-008
-3.148414e-008
-1.900312e-008
-1.025893e-008
-4.444932e-009
-8.503325e-010
1.083010e-009
1.810717e-009
1.765126e-009
1.361889e-009
9.221050e-010
6.027227e-010
4.228521e-010
3.604324e-010
4.082929e-010
5.325495e-010
6.125044e-010
4.881611e-010
1.185487e-010
-3.108993e-010
-4.930770e-010
-2.706952e-010
1.782129e-010
4.570691e-010
3.020899e-010
-1.559196e-010
-4.913471e-010
-3.772280e-010
9.564084e-011
4.908546e-010
4.353374e-010
-2.245862e-011
-4.533689e-010
1.013133e-009
8.146933e-011
-8.731358e-010
-9.777340e-010
-1.719116e-010
7.905454e-010
1.059741e-009
4.362714e-010
-5.124097e-010
-1.005379e-009
-7.157980e-010
3.689280e-011
6.622842e-010
8.229634e-010
6.331361e-010
4.401734e-010
4.877181e-010
7.873477e-010
1.235617e-009
1.756195e-009
2.278078e-009
2.590594e-009
2.257685e-009
6.823054e-010
-2.777371e-009
-8.794364e-009
-1.818396e-008
-3.200455e-008
-5.151001e-008
-7.795849e-008
-1.124065e-007
-1.555979e-007