# vtk DataFile Version 3.0
vtk output
ASCII
DATASET STRUCTURED_POINTS
DIMENSIONS 100 100 1
SPACING 1 1 1
ORIGIN 0 0 0
POINT_DATA 10000
SCALARS SFBox_profile double
LOOKUP_TABLE default 
0.000000e+000
0.000000e+000
0.000000e+000
0.000000e+000
0.000000e+000
0.000000e+000
0.000000e+000
0.000000e+000
0.000000e+000
0.000000e+000
0.000000e+000
0.000000e+000
0.000000e+000
0.000000e+000
0.000000e+000
0.000000e+000
0.000000e+000
0.000000e+000
0.000000e+000
0.000000e+000
0.000000e+000
0.000000e+000
0.000000e+000
0.000000e+000
0.000000e+000
0.000000e+000
0.000000e+000
0.000000e+000
0.000000e+000
0.000000e+000
0.000000e+000
0.000000e+000
0.000000e+000
0.000000e+000
0.000000e+000
0.000000e+000
0.000000e+000
0.000000e+000
0.000000e+000
0.000000e+000
0.000000e+000
0.000000e+000
0.000000e+000
0.000000e+000
0.000000e+000
0.000000e+000
0.000000e+000
0.000000e+000
0.000000e+000
0.000000e+000
0.000000e+000
0.000000e+000
0.000000e+000
0.000000e+000
0.000000e+000
0.000000e+000
0.000000e+000
0.000000e+000
0.000000e+000
0.000000e+000
0.000000e+000
0.000000e+000
0.000000e+000
0.000000e+000
0.000000e+000
0.000000e+000
0.000000e+000
0.000000e+000
0.000000e+000
0.000000e+000
0.000000e+000
0.000000e+000
0.000000e+000
0.000000e+000
0.000000e+000
0.000000e+000
0.000000e+000
0.000000e+000
0.000000e+000
0.000000e+000
0.000000e+000
0.000000e+000
0.000000e+000
0.000000e+000
0.000000e+000
0.000000e+000
0.000000e+000
0.000000e+000
0.000000e+000
0.000000e+000
0.000000e+000
0.000000e+000
0.000000e+000
0.000000e+000
0.000000e+000
0.000000e+000
0.000000e+000
0.000000e+000
0.000000e+000
0.000000e+000
1.213861e-009
6.995184e-010
1.815995e-011
-4.856302e-010
-7.363544e-010
-8.888948e-010
-1.037449e-009
-9.934320e-010
-4.113898e-010
7.979315e-010
2.157969e-009
2.794117e-009
2.050743e-009
8.061260e-011
-2.130612e-009
-3.401129e-009
-3.167427e-009
-1.810646e-009
-2.437732e-010
8.435324e-010
1.409202e-009
1.833088e-009
2.353438e-009
2.763766e-009
2.646531e-009
1.848358e-009
6.760602e-010
-3.776762e-010
-1.066367e-009
-1.529273e-009
-2.033526e-009
-2.637197e-009
-3.136012e-009
-3.310781e-009
-3.168289e-009
-2.913924e-009
-2.719147e-009
-2.563226e-009
-2.310427e-009
-1.902091e-009
-1.431823e-009
-1.035539e-009
-7.475356e-010
-4.922894e-010
-2.023454e-010
9.329769e-011
3.114600e-010
4.201535e-010
4.698965e-010
5.185013e-010
5.535013e-010
5.130166e-010
3.738346e-010
1.874966e-010
1.431532e-011
-1.581315e-010
-3.998490e-010
-7.385760e-010
-1.104334e-009
-1.400290e-009
-1.618852e-009
-1.850132e-009
-2.155424e-009
-2.456524e-009
-2.591996e-009
-2.491499e-009
-2.257350e-009
-2.035313e-009
-1.815292e-009
-1.413146e-009
-6.875158e-010
2.453199e-010
1.064039e-009
1.530594e-009
1.694338e-009
1.766935e-009
1.801752e-009
1.562385e-009
7.763448e-010
-4.708294e-010
-1.644198e-009
-2.125224e-009
-1.708615e-009
-7.503008e-010
1.680233e-010
7.115443e-010
9.436915e-010
1.059049e-009
1.042366e-009
6.566319e-010
-2.118793e-010
-1.232656e-009
-1.731346e-009
-1.207121e-009
1.676020e-010
1.541999e-009
1.954346e-009
1.057316e-009
-5.749404e-010
-1.823933e-009
3.727674e-010
9.453604e-012
-3.901817e-010
-4.714010e-010
-1.373273e-010
3.721749e-010
6.667810e-010
5.096418e-010
-2.095342e-012
-5.226647e-010
-7.325949e-010
-5.687726e-010
-2.202257e-010
8.440776e-011
2.813382e-010
4.702668e-010
7.248967e-010
9.323061e-010
8.528599e-010
3.585267e-010
-3.944372e-010
-1.052214e-009
-1.341407e-009
-1.269186e-009
-1.054250e-009
-8.753313e-010
-7.056237e-010
-3.938064e-010
1.205145e-010
7.055069e-010
1.156161e-009
1.390041e-009
1.501251e-009
1.626432e-009
1.787178e-009
1.883470e-009
1.827082e-009
1.648368e-009
1.458065e-009
1.323644e-009
1.210943e-009
1.049605e-009
8.306658e-010
6.177982e-010
4.693935e-010
3.755638e-010
2.848977e-010
1.783336e-010
9.306621e-011
7.046148e-011
1.010396e-010
1.394781e-010
1.675965e-010
2.193199e-010
3.324468e-010
4.909556e-010
6.376580e-010
7.453231e-010
8.527997e-010
1.011957e-009
1.207947e-009
1.358758e-009
1.404900e-009
1.380104e-009
1.366357e-009
1.378930e-009
1.325091e-009
1.101268e-009
7.219724e-010
3.217620e-010
1.636430e-011
-2.157427e-010
-4.825071e-010
-8.087017e-010
-1.050841e-009
-1.015314e-009
-6.638591e-010
-1.783536e-010
1.950096e-010
3.578803e-010
4.024865e-010
4.512727e-010
4.868894e-010
3.719060e-010
3.827836e-011
-3.707177e-010
-5.803128e-010
-4.249212e-010
-1.431864e-011
3.430301e-010
3.939058e-010
1.419404e-010
-1.752236e-010
-2.976402e-010
-1.514980e-010
1.136802e-010
2.680558e-010
1.909274e-010
-4.418433e-011
-2.411791e-010
-6.764242e-010
-6.297936e-010
-4.827535e-010
-1.350977e-010
4.791853e-010
1.242402e-009
1.773083e-009
1.577652e-009
4.184069e-010
-1.363534e-009
-2.891530e-009
-3.238245e-009
-2.048198e-009
1.762971e-010
2.371374e-009
3.576413e-009
3.463906e-009
2.370246e-009
8.977253e-010
-5.152004e-010
-1.719698e-009
-2.686654e-009
-3.314434e-009
-3.434663e-009
-2.973644e-009
-2.058624e-009
-9.446422e-010
1.534661e-010
1.151720e-009
2.047595e-009
2.823326e-009
3.419229e-009
3.786349e-009
3.934301e-009
3.914538e-009
3.769178e-009
3.511064e-009
3.149286e-009
2.715250e-009
2.252893e-009
1.790633e-009
1.334966e-009
8.913151e-010
4.799362e-010
1.249265e-010
-1.658971e-010
-4.007156e-010
-5.839889e-010
-7.058509e-010
-7.550253e-010
-7.354074e-010
-6.614732e-010
-5.387686e-010
-3.580322e-010
-1.124645e-010
1.860021e-010
5.153188e-010
8.654183e-010
1.241737e-009
1.643040e-009
2.043569e-009
2.405644e-009
2.706641e-009
2.942216e-009
3.099480e-009
3.137841e-009
3.008429e-009
2.690657e-009
2.198576e-009
1.550981e-009
7.544864e-010
-1.627213e-010
-1.100991e-009
-1.894896e-009
-2.387855e-009
-2.501814e-009
-2.229922e-009
-1.581627e-009
-5.828082e-010
6.324532e-010
1.744953e-009
2.334016e-009
2.121984e-009
1.190023e-009
-3.973395e-011
-1.059563e-009
-1.555413e-009
-1.491968e-009
-9.955306e-010
-2.197143e-010
6.534327e-010
1.334022e-009
1.460199e-009
8.321989e-010
-3.270256e-010
-1.374022e-009
-1.617979e-009
-8.314087e-010
5.153900e-010
1.532986e-009
-1.245630e-009
-5.843145e-010
2.141911e-010
6.391152e-010
6.204830e-010
4.920273e-010
5.510424e-010
6.792847e-010
4.388047e-010
-4.163820e-010
-1.521250e-009
-2.051270e-009
-1.396642e-009
2.276104e-010
1.833516e-009
2.394892e-009
1.645039e-009
2.366494e-010
-8.573903e-010
-1.133214e-009
-8.308936e-010
-5.244971e-010
-5.088282e-010
-5.909595e-010
-4.162906e-010
8.873353e-011
6.324858e-010
8.728745e-010
7.518782e-010
5.017651e-010
3.652088e-010
3.615996e-010
3.294077e-010
1.468887e-010
-1.353532e-010
-3.727521e-010
-4.908114e-010
-5.426043e-010
-6.203135e-010
-7.462442e-010
-8.644403e-010
-9.194975e-010
-9.178271e-010
-9.086767e-010
-9.231982e-010
-9.470608e-010
-9.492536e-010
-9.236028e-010
-8.942155e-010
-8.847075e-010
-8.913520e-010
-8.907334e-010
-8.703173e-010
-8.442633e-010
-8.345729e-010
-8.394992e-010
-8.294692e-010
-7.804148e-010
-7.060674e-010
-6.443189e-010
-6.061382e-010
-5.499173e-010
-4.241565e-010
-2.363678e-010
-5.866754e-011
5.323772e-011
1.356894e-010
2.799676e-010
5.046610e-010
6.896166e-010
6.766193e-010
4.438384e-010
1.458262e-010
-5.314634e-011
-1.700804e-010
-3.738686e-010
-7.340078e-010
-1.034120e-009
-9.130495e-010
-2.412618e-010
6.604689e-010
1.233431e-009
1.151254e-009
5.832325e-010
-1.352296e-011
-3.446309e-010
-4.921157e-010
-6.811882e-010
-8.906990e-010
-7.819350e-010
-7.724362e-011
9.936278e-010
1.696390e-009
1.350607e-009
-1.535251e-011
-1.533357e-009
-2.087219e-009
-1.188635e-009
5.832990e-010
1.969928e-009
-1.084669e-009
-1.134326e-011
1.150718e-009
1.355952e-009
3.584746e-010
-1.095636e-009
-1.878001e-009
-1.377127e-009
4.910740e-011
1.415470e-009
1.915019e-009
1.478222e-009
6.376554e-010
-8.768139e-011
-6.419879e-010
-1.286844e-009
-2.075191e-009
-2.568150e-009
-2.156939e-009
-6.898507e-010
1.254671e-009
2.767456e-009
3.310393e-009
3.044628e-009
2.507407e-009
2.025379e-009
1.475062e-009
5.749321e-010
-6.820964e-010
-1.947323e-009
-2.841154e-009
-3.292199e-009
-3.527216e-009
-3.768319e-009
-4.000146e-009
-4.041616e-009
-3.791984e-009
-3.352283e-009
-2.907941e-009
-2.539657e-009
-2.181511e-009
-1.746254e-009
-1.249061e-009
-7.913228e-010
-4.463334e-010
-1.928962e-010
3.433380e-011
2.530955e-010
4.134223e-010
4.643341e-010
4.175426e-010
3.293618e-010
2.271186e-010
7.509650e-011
-1.749379e-010
-5.112735e-010
-8.629056e-010
-1.179709e-009
-1.492826e-009
-1.869477e-009
-2.306657e-009
-2.698520e-009
-2.935351e-009
-3.023674e-009
-3.068580e-009
-3.117001e-009
-3.048817e-009
-2.674365e-009
-1.952658e-009
-1.071930e-009
-2.715469e-010
4.003873e-010
1.090253e-009
1.866981e-009
2.491831e-009
2.547068e-009
1.842754e-009
6.698208e-010
-4.043915e-010
-1.006672e-009
-1.199686e-009
-1.251916e-009
-1.227696e-009
-8.951353e-010
-7.925382e-011
9.475570e-010
1.533963e-009
1.194577e-009
1.131622e-010
-9.250977e-010
-1.161112e-009
-4.924045e-010
4.606569e-010
9.005363e-010
5.169287e-010
-2.960178e-010
-8.171339e-010
-6.146337e-010
1.165600e-010
7.468963e-010
-3.439416e-010
4.062488e-010
1.188343e-009
1.170601e-009
5.920416e-011
-1.588680e-009
-2.657812e-009
-2.239944e-009
-3.458924e-010
2.001267e-009
3.424562e-009
3.129170e-009
1.391264e-009
-7.559462e-010
-2.312626e-009
-2.887938e-009
-2.657097e-009
-1.922473e-009
-8.214618e-010
5.585209e-010
1.920336e-009
2.774868e-009
2.792583e-009
2.106432e-009
1.200771e-009
4.787980e-010
-3.767104e-011
-5.786082e-010
-1.254567e-009
-1.881712e-009
-2.182120e-009
-2.096829e-009
-1.841590e-009
-1.659476e-009
-1.573641e-009
-1.414865e-009
-1.059552e-009
-5.836074e-010
-1.684725e-010
1.021470e-010
3.090799e-010
5.700532e-010
8.905713e-010
1.168386e-009
1.325580e-009
1.396282e-009
1.471073e-009
1.580821e-009
1.666825e-009
1.665703e-009
1.593983e-009
1.524746e-009
1.489759e-009
1.435712e-009
1.293547e-009
1.072990e-009
8.566534e-010
6.936669e-010
5.278860e-010
2.630413e-010
-1.061353e-010
-4.660409e-010
-7.117968e-010
-8.799512e-010
-1.107599e-009
-1.445990e-009
-1.754337e-009
-1.824951e-009
-1.608307e-009
-1.262087e-009
-9.463377e-010
-6.080339e-010
-3.969699e-011
8.234992e-010
1.712538e-009
2.191422e-009
2.026173e-009
1.358486e-009
5.105163e-010
-3.240694e-010
-1.130922e-009
-1.835256e-009
-2.123025e-009
-1.627951e-009
-3.490928e-010
1.157440e-009
2.083976e-009
1.943666e-009
9.050329e-010
-3.810400e-010
-1.259095e-009
-1.430154e-009
-9.788614e-010
-1.912462e-010
6.019358e-010
1.086435e-009
1.032549e-009
4.300674e-010
-4.227733e-010
-1.036420e-009
6.925996e-010
2.952248e-010
-1.135163e-010
-2.306707e-010
-1.527037e-010
-2.083096e-010
-5.010346e-010
-7.013696e-010
-3.755753e-010
4.637278e-010
1.202952e-009
1.124469e-009
1.222678e-010
-1.086904e-009
-1.525990e-009
-7.974498e-010
5.849168e-010
1.662037e-009
1.814810e-009
1.136766e-009
1.467172e-010
-7.436596e-010
-1.449237e-009
-2.010519e-009
-2.337761e-009
-2.239953e-009
-1.663645e-009
-8.045293e-010
5.968937e-011
8.078090e-010
1.503479e-009
2.209518e-009
2.843275e-009
3.251033e-009
3.389481e-009
3.375377e-009
3.345142e-009
3.306521e-009
3.162034e-009
2.860051e-009
2.477034e-009
2.135453e-009
1.871657e-009
1.619672e-009
1.320173e-009
1.008540e-009
7.739902e-010
6.512990e-010
5.873771e-010
5.211076e-010
4.676270e-010
4.965431e-010
6.350023e-010
8.255605e-010
9.968284e-010
1.154782e-009
1.370955e-009
1.676913e-009
2.002513e-009
2.246332e-009
2.394084e-009
2.527838e-009
2.702311e-009
2.842300e-009
2.802156e-009
2.524860e-009
2.101180e-009
1.647361e-009
1.155705e-009
5.201406e-010
-2.794852e-010
-1.064683e-009
-1.573846e-009
-1.681357e-009
-1.464392e-009
-1.056895e-009
-5.044096e-010
1.762911e-010
8.219527e-010
1.114220e-009
8.357748e-010
1.348289e-010
-5.300738e-010
-7.565966e-010
-5.094704e-010
-6.461487e-011
3.094716e-010
5.488207e-010
6.745609e-010
5.830181e-010
9.699622e-011
-7.150888e-010
-1.353859e-009
-1.188744e-009
-7.370776e-011
1.327298e-009
1.940869e-009
1.166922e-009
-5.281765e-010
-1.897511e-009
1.614163e-009
-3.954713e-011
-1.771076e-009
-1.979181e-009
-4.107735e-010
1.679544e-009
2.644262e-009
1.801727e-009
-1.294618e-010
-1.790998e-009
-2.334316e-009
-1.898721e-009
-1.118195e-009
-3.306868e-010
6.333678e-010
1.934044e-009
3.165048e-009
3.480845e-009
2.346691e-009
1.297654e-010
-2.108963e-009
-3.428241e-009
-3.628691e-009
-3.146375e-009
-2.460969e-009
-1.689176e-009
-7.048075e-010
4.959605e-010
1.664275e-009
2.515257e-009
2.981107e-009
3.202531e-009
3.315955e-009
3.317725e-009
3.138673e-009
2.785339e-009
2.354584e-009
1.925887e-009
1.492110e-009
1.013975e-009
5.079755e-010
4.409066e-011
-3.350992e-010
-6.563506e-010
-9.633522e-010
-1.247198e-009
-1.456022e-009
-1.566714e-009
-1.616726e-009
-1.651983e-009
-1.664023e-009
-1.603822e-009
-1.452973e-009
-1.252825e-009
-1.049634e-009
-8.309413e-010
-5.433906e-010
-1.710048e-010
2.334919e-010
6.109534e-010
9.684379e-010
1.359271e-009
1.792548e-009
2.195568e-009
2.484814e-009
2.648902e-009
2.723087e-009
2.685234e-009
2.425632e-009
1.855296e-009
1.023261e-009
8.388169e-011
-8.455474e-010
-1.731067e-009
-2.486172e-009
-2.844961e-009
-2.489133e-009
-1.374966e-009
9.679400e-011
1.316194e-009
1.904496e-009
1.903767e-009
1.540229e-009
8.937715e-010
-8.440530e-011
-1.221562e-009
-1.940542e-009
-1.629080e-009
-2.956522e-010
1.203159e-009
1.750508e-009
9.289750e-010
-5.521779e-010
-1.429068e-009
-9.810351e-010
3.393606e-010
1.322869e-009
1.089192e-009
-1.371074e-010
-1.246295e-009
1.765407e-009
-1.093570e-010
-2.142411e-009
-2.482153e-009
-6.530214e-010
2.042206e-009
3.542207e-009
2.657265e-009
-8.482432e-012
-2.584877e-009
-3.432608e-009
-2.318788e-009
-3.317259e-010
1.221349e-009
1.815346e-009
1.751919e-009
1.453587e-009
9.271845e-010
-3.322221e-011
-1.272022e-009
-2.125010e-009
-1.957843e-009
-8.083574e-010
5.969927e-010
1.485131e-009
1.654268e-009
1.460315e-009
1.290616e-009
1.159118e-009
8.184639e-010
1.541264e-010
-6.406535e-010
-1.272584e-009
-1.640057e-009
-1.869099e-009
-2.106066e-009
-2.349453e-009
-2.496279e-009
-2.494164e-009
-2.396247e-009
-2.280693e-009
-2.166159e-009
-2.024445e-009
-1.845849e-009
-1.659512e-009
-1.495625e-009
-1.356760e-009
-1.235815e-009
-1.142395e-009
-1.094026e-009
-1.090156e-009
-1.113848e-009
-1.159094e-009
-1.238469e-009
-1.356380e-009
-1.490181e-009
-1.612960e-009
-1.725640e-009
-1.844955e-009
-1.959265e-009
-2.021507e-009
-2.001007e-009
-1.921035e-009
-1.813373e-009
-1.641624e-009
-1.314286e-009
-8.017427e-010
-2.114601e-010
3.012805e-010
6.936979e-010
1.045198e-009
1.368208e-009
1.461578e-009
1.056752e-009
1.565011e-010
-8.300114e-010
-1.377232e-009
-1.285713e-009
-7.908848e-010
-2.260537e-010
3.335883e-010
9.920787e-010
1.625711e-009
1.727451e-009
8.415567e-010
-8.031101e-010
-2.211193e-009
-2.340862e-009
-1.016419e-009
8.505204e-010
1.978113e-009
1.723362e-009
4.953020e-010
-7.110651e-010
-1.150157e-009
-7.949864e-010
-1.525965e-010
2.685193e-010
3.333002e-010
2.472737e-010
5.866696e-010
9.998429e-011
-5.462414e-010
-8.606820e-010
-4.957860e-010
3.882705e-010
1.095471e-009
9.227074e-010
-1.252286e-010
-1.170346e-009
-1.169293e-009
7.718917e-011
1.611929e-009
2.100027e-009
1.003299e-009
-9.699124e-010
-2.534180e-009
-2.895395e-009
-2.183279e-009
-9.874043e-010
3.174098e-010
1.696196e-009
3.048686e-009
3.935799e-009
3.863378e-009
2.795697e-009
1.258755e-009
-1.170163e-010
-1.105705e-009
-1.907831e-009
-2.739050e-009
-3.510705e-009
-3.944629e-009
-3.917129e-009
-3.595091e-009
-3.234130e-009
-2.917987e-009
-2.539144e-009
-1.993452e-009
-1.325792e-009
-6.743663e-010
-1.219678e-010
3.578273e-010
8.239948e-010
1.280218e-009
1.675056e-009
1.963971e-009
2.148083e-009
2.256831e-009
2.310137e-009
2.301687e-009
2.210270e-009
2.023484e-009
1.754913e-009
1.437687e-009
1.092879e-009
7.040810e-010
2.384125e-010
-2.971450e-010
-8.358408e-010
-1.312426e-009
-1.740659e-009
-2.192946e-009
-2.678637e-009
-3.069542e-009
-3.195754e-009
-3.020234e-009
-2.665557e-009
-2.228372e-009
-1.609878e-009
-6.216438e-010
7.048582e-010
1.978453e-009
2.704006e-009
2.689359e-009
2.146941e-009
1.385766e-009
4.961492e-010
-5.617781e-010
-1.593128e-009
-2.068343e-009
-1.552343e-009
-2.478330e-010
1.004543e-009
1.380063e-009
7.575352e-010
-2.408355e-010
-8.540870e-010
-7.863671e-010
-2.677045e-010
3.192845e-010
7.364263e-010
8.598958e-010
5.660591e-010
-1.585608e-010
-9.898778e-010
-1.326100e-009
-7.653243e-010
4.231340e-010
1.390733e-009
-1.586265e-009
1.646056e-010
1.895888e-009
1.935491e-009
2.260060e-010
-1.767068e-009
-2.498074e-009
-1.636622e-009
-5.493336e-011
1.221473e-009
1.860876e-009
2.078365e-009
1.933309e-009
1.087478e-009
-6.404350e-010
-2.652568e-009
-3.766335e-009
-3.169698e-009
-1.164159e-009
1.088369e-009
2.531499e-009
2.902337e-009
2.566849e-009
1.898628e-009
9.765382e-010
-1.752476e-010
-1.283383e-009
-1.932594e-009
-1.952923e-009
-1.576709e-009
-1.161189e-009
-8.207778e-010
-3.976849e-010
2.449908e-010
1.003069e-009
1.640334e-009
2.054356e-009
2.360803e-009
2.719148e-009
3.138841e-009
3.491991e-009
3.682804e-009
3.752475e-009
3.812089e-009
3.911307e-009
4.001745e-009
4.016860e-009
3.957547e-009
3.888287e-009
3.862401e-009
3.866828e-009
3.843676e-009
3.759808e-009
3.646109e-009
3.560089e-009
3.509905e-009
3.429902e-009
3.249024e-009
2.980079e-009
2.712945e-009
2.499186e-009
2.263770e-009
1.873539e-009
1.302024e-009
6.834223e-010
1.633727e-010
-2.781538e-010
-7.851844e-010
-1.381245e-009
-1.825732e-009
-1.792136e-009
-1.194669e-009
-2.793591e-010
6.279068e-010
1.389830e-009
1.998846e-009
2.301041e-009
1.948612e-009
7.618416e-010
-8.875089e-010
-2.189251e-009
-2.486432e-009
-1.758653e-009
-5.220962e-010
6.625762e-010
1.491072e-009
1.796354e-009
1.385235e-009
2.361311e-010
-1.142414e-009
-1.811122e-009
-1.148688e-009
4.171786e-010
1.583668e-009
1.296571e-009
-2.032663e-010
-1.516610e-009
-1.384370e-009
8.456804e-011
1.491078e-009
-3.219379e-009
-1.331246e-010
3.123895e-009
3.628948e-009
9.776936e-010
-2.521744e-009
-3.997083e-009
-2.463021e-009
5.780773e-010
2.708180e-009
2.685359e-009
1.145191e-009
-4.368303e-010
-1.190084e-009
-1.253387e-009
-1.056945e-009
-6.058489e-010
3.550647e-010
1.647111e-009
2.456436e-009
1.998474e-009
3.226013e-010
-1.663605e-009
-2.971876e-009
-3.262000e-009
-2.829322e-009
-2.053806e-009
-1.032006e-009
2.740471e-010
1.723361e-009
2.991859e-009
3.862790e-009
4.404700e-009
4.814397e-009
5.151491e-009
5.301032e-009
5.173905e-009
4.856550e-009
4.522562e-009
4.241352e-009
3.932761e-009
3.507434e-009
3.000715e-009
2.539225e-009
2.200205e-009
1.943505e-009
1.687493e-009
1.422821e-009
1.226403e-009
1.168447e-009
1.230125e-009
1.329106e-009
1.419656e-009
1.546140e-009
1.782833e-009
2.129348e-009
2.491854e-009
2.783567e-009
3.026657e-009
3.320077e-009
3.697909e-009
4.053660e-009
4.240662e-009
4.232842e-009
4.131796e-009
3.991875e-009
3.687021e-009
3.017882e-009
1.953532e-009
7.087737e-010
-4.441708e-010
-1.381009e-009
-2.076184e-009
-2.393447e-009
-2.074674e-009
-1.045315e-009
3.140766e-010
1.334977e-009
1.568681e-009
1.095597e-009
3.164328e-010
-4.619964e-010
-1.113623e-009
-1.425585e-009
-1.009827e-009
2.669740e-010
1.779189e-009
2.349224e-009
1.256012e-009
-8.922091e-010
-2.456871e-009
-2.156787e-009
-2.654205e-010
1.593963e-009
1.917606e-009
6.576150e-010
-8.429868e-010
-1.204043e-009
-3.022302e-010
7.294722e-010
-2.606204e-009
-4.462568e-010
1.947326e-009
2.549064e-009
9.410500e-010
-1.354721e-009
-2.233781e-009
-9.145702e-010
1.324433e-009
2.309908e-009
9.984174e-010
-1.550977e-009
-3.172471e-009
-2.548411e-009
-2.295488e-010
2.115966e-009
3.247949e-009
3.099881e-009
2.241521e-009
1.006458e-009
-6.345955e-010
-2.502770e-009
-3.884256e-009
-3.997891e-009
-2.737469e-009
-8.012559e-010
9.402135e-010
2.117713e-009
2.901379e-009
3.526593e-009
3.956293e-009
4.016665e-009
3.708838e-009
3.252982e-009
2.845336e-009
2.477318e-009
2.031567e-009
1.486509e-009
9.526260e-010
5.231257e-010
1.629634e-010
-2.210180e-010
-6.401095e-010
-1.004351e-009
-1.239355e-009
-1.378040e-009
-1.510968e-009
-1.667108e-009
-1.779976e-009
-1.777800e-009
-1.678499e-009
-1.568077e-009
-1.490730e-009
-1.391502e-009
-1.187295e-009
-8.785879e-010
-5.570918e-010
-2.931992e-010
-4.543533e-011
2.854077e-010
7.215834e-010
1.172499e-009
1.554277e-009
1.906939e-009
2.337601e-009
2.847492e-009
3.272850e-009
3.430849e-009
3.278585e-009
2.864672e-009
2.152534e-009
1.015513e-009
-5.059955e-010
-1.999166e-009
-2.866713e-009
-2.785153e-009
-1.932289e-009
-7.330617e-010
5.242057e-010
1.697036e-009
2.472655e-009
2.312765e-009
9.718831e-010
-9.328614e-010
-2.127233e-009
-1.717059e-009
-8.179200e-011
1.373604e-009
1.466617e-009
2.753555e-010
-1.036087e-009
-1.359350e-009
-5.849476e-010
4.860892e-010
9.978112e-010
7.444288e-010
1.492263e-010
-2.691498e-010
-3.426633e-010
-2.614989e-010
4.037117e-010
-3.009899e-010
-8.933228e-010
-7.354454e-010
7.328261e-012
7.210485e-010
1.082050e-009
1.198644e-009
1.091379e-009
4.048368e-010
-1.067107e-009
-2.665496e-009
-3.066340e-009
-1.496229e-009
1.277172e-009
3.386449e-009
3.434801e-009
1.631588e-009
-5.982246e-010
-1.974386e-009
-2.224530e-009
-1.762525e-009
-8.912943e-010
4.182220e-010
2.067889e-009
3.496363e-009
4.025050e-009
3.490395e-009
2.382538e-009
1.334347e-009
5.755398e-010
-7.053643e-011
-7.742077e-010
-1.438770e-009
-1.857810e-009
-2.000856e-009
-2.041405e-009
-2.135062e-009
-2.264724e-009
-2.327609e-009
-2.304668e-009
-2.280532e-009
-2.317214e-009
-2.375173e-009
-2.383019e-009
-2.343899e-009
-2.328551e-009
-2.372194e-009
-2.422666e-009
-2.410037e-009
-2.339787e-009
-2.281795e-009
-2.271028e-009
-2.256535e-009
-2.170365e-009
-2.024176e-009
-1.900339e-009
-1.846544e-009
-1.818399e-009
-1.752284e-009
-1.666211e-009
-1.636472e-009
-1.668484e-009
-1.643365e-009
-1.432772e-009
-1.034223e-009
-5.306259e-010
7.436001e-011
8.815911e-010
1.881142e-009
2.761227e-009
3.059319e-009
2.564416e-009
1.515127e-009
3.484335e-010
-6.778415e-010
-1.499271e-009
-1.923331e-009
-1.533150e-009
-1.416245e-010
1.675424e-009
2.745933e-009
2.231648e-009
4.323471e-010
-1.415563e-009
-2.178141e-009
-1.657526e-009
-4.876966e-010
5.793647e-010
1.152821e-009
1.137605e-009
5.559767e-010
-3.545432e-010
-1.021788e-009
-8.667452e-010
7.151798e-011
9.748586e-010
9.521346e-010
-2.221776e-011
-9.992134e-010
3.766724e-009
2.317439e-010
-3.343282e-009
-3.730277e-009
-9.036344e-010
2.336185e-009
3.288113e-009
1.692854e-009
-6.023005e-010
-1.780326e-009
-1.533287e-009
-6.585991e-010
1.928389e-010
9.572819e-010
1.551983e-009
1.420388e-009
7.935142e-011
-1.991727e-009
-3.392627e-009
-2.954411e-009
-7.951988e-010
1.854086e-009
3.780706e-009
4.615059e-009
4.633514e-009
4.079942e-009
2.939073e-009
1.300503e-009
-3.600335e-010
-1.462894e-009
-1.835947e-009
-1.810887e-009
-1.807102e-009
-1.929975e-009
-2.022276e-009
-2.004290e-009
-2.030383e-009
-2.305228e-009
-2.850702e-009
-3.521473e-009
-4.204235e-009
-4.921143e-009
-5.733217e-009
-6.611844e-009
-7.452350e-009
-8.184057e-009
-8.811628e-009
-9.344187e-009
-9.731240e-009
-9.900295e-009
-9.835251e-009
-9.579030e-009
-9.160757e-009
-8.559809e-009
-7.762300e-009
-6.824804e-009
-5.844741e-009
-4.875597e-009
-3.915352e-009
-2.993477e-009
-2.224196e-009
-1.722685e-009
-1.480925e-009
-1.384814e-009
-1.367324e-009
-1.474657e-009
-1.711176e-009
-1.854274e-009
-1.541089e-009
-6.065320e-010
7.132475e-010
1.979995e-009
2.916113e-009
3.470224e-009
3.541015e-009
2.838247e-009
1.226691e-009
-8.033885e-010
-2.231757e-009
-2.274493e-009
-1.075391e-009
4.319699e-010
1.332604e-009
1.335696e-009
6.696910e-010
-3.282293e-010
-1.296738e-009
-1.684501e-009
-9.561693e-010
7.270573e-010
2.192081e-009
2.072653e-009
2.194046e-010
-1.851792e-009
-2.258428e-009
-6.451573e-010
1.362000e-009
1.777860e-009
3.175679e-010
-1.326519e-009
4.719542e-009
5.441263e-010
-3.669753e-009
-4.096722e-009
-7.829159e-010
2.734625e-009
3.095395e-009
2.904587e-010
-2.665721e-009
-2.909058e-009
-3.772354e-010
2.530239e-009
3.493276e-009
2.200381e-009
-3.911006e-012
-1.782665e-009
-2.739591e-009
-2.957359e-009
-2.273949e-009
-4.520829e-010
2.080521e-009
4.120130e-009
4.581108e-009
3.432379e-009
1.623264e-009
1.525100e-010
-6.435468e-010
-9.474380e-010
-9.138284e-010
-5.036695e-010
2.049913e-010
7.999668e-010
7.798224e-010
-4.683641e-011
-1.512849e-009
-3.415259e-009
-5.770057e-009
-8.709651e-009
-1.222077e-008
-1.608264e-008
-2.005161e-008
-2.402297e-008
-2.798004e-008
-3.184282e-008
-3.543020e-008
-3.855987e-008
-4.113073e-008
-4.309268e-008
-4.437927e-008
-4.490935e-008
-4.464042e-008
-4.358400e-008
-4.176929e-008
-3.922962e-008
-3.604188e-008
-3.234857e-008
-2.830687e-008
-2.403003e-008
-1.961972e-008
-1.525513e-008
-1.119306e-008
-7.637109e-009
-4.637458e-009
-2.177782e-009
-3.488493e-010
6.559853e-010
7.817096e-010
3.039152e-010
-3.053384e-010
-7.074115e-010
-8.199728e-010
-6.094280e-010
8.438041e-011
1.338183e-009
2.767440e-009
3.562943e-009
3.095497e-009
1.498542e-009
-4.246651e-010
-1.851584e-009
-2.408348e-009
-2.064976e-009
-8.883234e-010
8.091548e-010
2.178786e-009
2.169403e-009
5.471899e-010
-1.488333e-009
-2.129849e-009
-7.129936e-010
1.436471e-009
2.187475e-009
7.625215e-010
-1.409855e-009
-2.148024e-009
-7.855221e-010
1.167666e-009
1.677708e-009
3.564319e-010
-1.193217e-009
2.213255e-009
2.338787e-010
-1.661762e-009
-1.591415e-009
2.584301e-010
1.794456e-009
1.145442e-009
-1.306696e-009
-3.125027e-009
-2.210536e-009
9.804939e-010
3.730642e-009
3.641316e-009
8.723849e-010
-2.178294e-009
-3.227748e-009
-1.965771e-009
2.449365e-010
2.008428e-009
2.897578e-009
3.067878e-009
2.506506e-009
1.072576e-009
-8.770798e-010
-2.356550e-009
-2.491728e-009
-1.310922e-009
3.198414e-010
1.466685e-009
1.688335e-009
8.955572e-010
-1.069298e-009
-4.503290e-009
-9.548655e-009
-1.601945e-008
-2.360027e-008
-3.212993e-008
-4.159997e-008
-5.191428e-008
-6.275586e-008
-7.371741e-008
-8.449431e-008
-9.489795e-008
-1.047192e-007
-1.136523e-007
-1.213689e-007
-1.276232e-007
-1.322643e-007
-1.351775e-007
-1.362539e-007
-1.354131e-007
-1.326277e-007
-1.279283e-007
-1.214178e-007
-1.132948e-007
-1.038367e-007
-9.333266e-008
-8.205231e-008
-7.030599e-008
-5.851374e-008
-4.714493e-008
-3.655356e-008
-2.690934e-008
-1.833398e-008
-1.107059e-008
-5.432451e-009
-1.558833e-009
7.108571e-010
1.673523e-009
1.550758e-009
5.643114e-010
-7.891686e-010
-1.727646e-009
-1.636657e-009
-5.524337e-010
8.941320e-010
2.020268e-009
2.489528e-009
2.206815e-009
1.108612e-009
-6.266028e-010
-2.194288e-009
-2.418789e-009
-8.128353e-010
1.607786e-009
2.919436e-009
2.008036e-009
-3.016333e-010
-1.988963e-009
-1.766512e-009
-2.101625e-010
1.015604e-009
8.974598e-010
-7.563410e-011
-6.838052e-010
-3.481669e-010
3.859937e-010
6.123789e-010
9.956524e-011
-5.205088e-010
-2.044028e-009
-3.419660e-010
1.434729e-009
1.874457e-009
9.863311e-010
-2.560906e-010
-1.090633e-009
-1.358198e-009
-1.034784e-009
-3.454658e-011
1.273738e-009
1.814622e-009
7.008882e-010
-1.508173e-009
-2.875931e-009
-1.822437e-009
1.218188e-009
4.082798e-009
4.846366e-009
3.381094e-009
1.040615e-009
-8.255946e-010
-1.772769e-009
-1.925790e-009
-1.339619e-009
-6.180398e-011
1.325553e-009
1.628407e-009
-3.003499e-010
-4.907075e-009
-1.200950e-008
-2.138918e-008
-3.314094e-008
-4.746239e-008
-6.429882e-008
-8.332347e-008
-1.041895e-007
-1.266503e-007
-1.504044e-007
-1.749226e-007
-1.995085e-007
-2.235033e-007
-2.463795e-007
-2.676552e-007
-2.867954e-007
-3.032426e-007
-3.165236e-007
-3.263007e-007
-3.323356e-007
-3.344376e-007
-3.324562e-007
-3.263112e-007
-3.160384e-007
-3.018332e-007
-2.840640e-007
-2.632268e-007
-2.398762e-007
-2.146214e-007
-1.881962e-007
-1.614804e-007
-1.353708e-007
-1.105859e-007
-8.761351e-008
-6.684118e-008
-4.866299e-008
-3.338208e-008
-2.104105e-008
-1.146382e-008
-4.511177e-009
-1.948828e-010
1.585052e-009
1.396979e-009
2.360577e-010
-9.442189e-010
-1.605784e-009
-1.535077e-009
-6.011108e-010
1.106300e-009
2.887633e-009
3.555389e-009
2.373139e-009
-3.393442e-011
-1.955214e-009
-2.034919e-009
-4.774736e-010
1.229575e-009
1.735936e-009
8.989992e-010
-4.156006e-010
-1.276924e-009
-1.301532e-009
-6.119122e-010
3.915120e-010
1.135169e-009
1.092693e-009
2.463850e-010
-7.057814e-010
-8.975878e-010
-1.925418e-010
6.069372e-010
-5.014576e-009
-4.446129e-010
3.887206e-009
3.938892e-009
3.823952e-010
-2.723184e-009
-2.484505e-009
2.140182e-010
2.356068e-009
2.145221e-009
2.818251e-010
-1.512573e-009
-2.304853e-009
-2.106140e-009
-1.009297e-009
9.775443e-010
3.228952e-009
4.354865e-009
3.340931e-009
7.769630e-010
-1.431684e-009
-1.728095e-009
-1.819594e-010