# vtk DataFile Version 3.0
vtk output
ASCII
DATASET STRUCTURED_POINTS
DIMENSIONS 100 100 1
SPACING 1 1 1
ORIGIN 0 0 0
POINT_DATA 10000
SCALARS SFBox_profile double
LOOKUP_TABLE default 
9.439922e-003
9.439921e-003
9.439919e-003
9.439919e-003
9.439919e-003
9.439920e-003
9.439921e-003
9.439921e-003
9.439921e-003
9.439920e-003
9.439919e-003
9.439919e-003
9.439919e-003
9.439920e-003
9.439920e-003
9.439921e-003
9.439921e-003
9.439921e-003
9.439921e-003
9.439920e-003
9.439920e-003
9.439920e-003
9.439919e-003
9.439919e-003
9.439920e-003
9.439920e-003
9.439920e-003
9.439921e-003
9.439921e-003
9.439922e-003
9.439922e-003
9.439922e-003
9.439923e-003
9.439923e-003
9.439924e-003
9.439924e-003
9.439925e-003
9.439925e-003
9.439925e-003
9.439926e-003
9.439926e-003
9.439926e-003
9.439927e-003
9.439927e-003
9.439927e-003
9.439927e-003
9.439928e-003
9.439928e-003
9.439928e-003
9.439928e-003
9.439928e-003
9.439928e-003
9.439928e-003
9.439928e-003
9.439928e-003
9.439928e-003
9.439927e-003
9.439927e-003
9.439927e-003
9.439927e-003
9.439926e-003
9.439926e-003
9.439925e-003
9.439925e-003
9.439925e-003
9.439924e-003
9.439924e-003
9.439923e-003
9.439923e-003
9.439923e-003
9.439922e-003
9.439922e-003
9.439921e-003
9.439921e-003
9.439921e-003
9.439920e-003
9.439920e-003
9.439920e-003
9.439920e-003
9.439920e-003
9.439920e-003
9.439920e-003
9.439920e-003
9.439920e-003
9.439920e-003
9.439921e-003
9.439920e-003
9.439920e-003
9.439920e-003
9.439919e-003
9.439920e-003
9.439920e-003
9.439920e-003
9.439920e-003
9.439920e-003
9.439920e-003
9.439920e-003
9.439920e-003
9.439920e-003
9.439920e-003
9.439922e-003
9.439921e-003
9.439919e-003
9.439919e-003
9.439919e-003
9.439920e-003
9.439921e-003
9.439921e-003
9.439921e-003
9.439920e-003
9.439919e-003
9.439919e-003
9.439919e-003
9.439920e-003
9.439920e-003
9.439921e-003
9.439921e-003
9.439921e-003
9.439921e-003
9.439920e-003
9.439920e-003
9.439920e-003
9.439919e-003
9.439919e-003
9.439920e-003
9.439920e-003
9.439920e-003
9.439921e-003
9.439921e-003
9.439922e-003
9.439922e-003
9.439922e-003
9.439923e-003
9.439923e-003
9.439924e-003
9.439924e-003
9.439925e-003
9.439925e-003
9.439925e-003
9.439926e-003
9.439926e-003
9.439926e-003
9.439927e-003
9.439927e-003
9.439927e-003
9.439927e-003
9.439928e-003
9.439928e-003
9.439928e-003
9.439928e-003
9.439928e-003
9.439928e-003
9.439928e-003
9.439928e-003
9.439928e-003
9.439928e-003
9.439927e-003
9.439927e-003
9.439927e-003
9.439927e-003
9.439926e-003
9.439926e-003
9.439925e-003
9.439925e-003
9.439925e-003
9.439924e-003
9.439924e-003
9.439923e-003
9.439923e-003
9.439923e-003
9.439922e-003
9.439922e-003
9.439921e-003
9.439921e-003
9.439921e-003
9.439920e-003
9.439920e-003
9.439920e-003
9.439920e-003
9.439920e-003
9.439920e-003
9.439920e-003
9.439920e-003
9.439920e-003
9.439920e-003
9.439921e-003
9.439920e-003
9.439920e-003
9.439920e-003
9.439919e-003
9.439920e-003
9.439920e-003
9.439920e-003
9.439920e-003
9.439920e-003
9.439920e-003
9.439920e-003
9.439920e-003
9.439920e-003
9.439920e-003
9.439920e-003
9.439920e-003
9.439920e-003
9.439920e-003
9.439920e-003
9.439920e-003
9.439920e-003
9.439920e-003
9.439920e-003
9.439920e-003
9.439920e-003
9.439920e-003
9.439920e-003
9.439920e-003
9.439920e-003
9.439920e-003
9.439920e-003
9.439920e-003
9.439920e-003
9.439920e-003
9.439920e-003
9.439920e-003
9.439920e-003
9.439921e-003
9.439921e-003
9.439921e-003
9.439921e-003
9.439921e-003
9.439922e-003
9.439922e-003
9.439922e-003
9.439923e-003
9.439923e-003
9.439923e-003
9.439924e-003
9.439925e-003
9.439925e-003
9.439926e-003
9.439926e-003
9.439927e-003
9.439928e-003
9.439928e-003
9.439929e-003
9.439929e-003
9.439930e-003
9.439930e-003
9.439930e-003
9.439931e-003
9.439931e-003
9.439931e-003
9.439931e-003
9.439931e-003
9.439931e-003
9.439931e-003
9.439931e-003
9.439931e-003
9.439930e-003
9.439930e-003
9.439930e-003
9.439929e-003
9.439928e-003
9.439928e-003
9.439927e-003
9.439926e-003
9.439926e-003
9.439925e-003
9.439924e-003
9.439924e-003
9.439923e-003
9.439923e-003
9.439922e-003
9.439922e-003
9.439921e-003
9.439921e-003
9.439921e-003
9.439921e-003
9.439921e-003
9.439921e-003
9.439920e-003
9.439920e-003
9.439920e-003
9.439920e-003
9.439920e-003
9.439920e-003
9.439920e-003
9.439920e-003
9.439920e-003
9.439920e-003
9.439920e-003
9.439920e-003
9.439920e-003
9.439920e-003
9.439920e-003
9.439920e-003
9.439920e-003
9.439920e-003
9.439920e-003
9.439920e-003
9.439920e-003
9.439920e-003
9.439918e-003
9.439919e-003
9.439921e-003
9.439921e-003
9.439921e-003
9.439920e-003
9.439919e-003
9.439919e-003
9.439919e-003
9.439920e-003
9.439921e-003
9.439921e-003
9.439921e-003
9.439920e-003
9.439920e-003
9.439919e-003
9.439919e-003
9.439919e-003
9.439919e-003
9.439920e-003
9.439921e-003
9.439921e-003
9.439921e-003
9.439922e-003
9.439922e-003
9.439922e-003
9.439922e-003
9.439923e-003
9.439923e-003
9.439923e-003
9.439924e-003
9.439925e-003
9.439925e-003
9.439926e-003
9.439927e-003
9.439928e-003
9.439929e-003
9.439930e-003
9.439931e-003
9.439932e-003
9.439933e-003
9.439933e-003
9.439934e-003
9.439935e-003
9.439936e-003
9.439936e-003
9.439937e-003
9.439937e-003
9.439937e-003
9.439938e-003
9.439938e-003
9.439938e-003
9.439938e-003
9.439938e-003
9.439937e-003
9.439937e-003
9.439936e-003
9.439936e-003
9.439935e-003
9.439935e-003
9.439934e-003
9.439933e-003
9.439932e-003
9.439931e-003
9.439930e-003
9.439929e-003
9.439928e-003
9.439926e-003
9.439926e-003
9.439925e-003
9.439924e-003
9.439923e-003
9.439923e-003
9.439922e-003
9.439922e-003
9.439922e-003
9.439922e-003
9.439921e-003
9.439921e-003
9.439921e-003
9.439921e-003
9.439920e-003
9.439920e-003
9.439920e-003
9.439919e-003
9.439920e-003
9.439920e-003
9.439920e-003
9.439920e-003
9.439921e-003
9.439920e-003
9.439920e-003
9.439920e-003
9.439920e-003
9.439920e-003
9.439920e-003
9.439920e-003
9.439920e-003
9.439920e-003
9.439920e-003
9.439918e-003
9.439919e-003
9.439921e-003
9.439921e-003
9.439921e-003
9.439920e-003
9.439919e-003
9.439919e-003
9.439919e-003
9.439920e-003
9.439921e-003
9.439921e-003
9.439920e-003
9.439920e-003
9.439920e-003
9.439920e-003
9.439920e-003
9.439920e-003
9.439920e-003
9.439920e-003
9.439921e-003
9.439921e-003
9.439922e-003
9.439922e-003
9.439922e-003
9.439923e-003
9.439924e-003
9.439925e-003
9.439926e-003
9.439927e-003
9.439928e-003
9.439930e-003
9.439931e-003
9.439932e-003
9.439934e-003
9.439935e-003
9.439937e-003
9.439938e-003
9.439939e-003
9.439940e-003
9.439941e-003
9.439942e-003
9.439943e-003
9.439943e-003
9.439944e-003
9.439944e-003
9.439945e-003
9.439945e-003
9.439945e-003
9.439945e-003
9.439945e-003
9.439945e-003
9.439945e-003
9.439945e-003
9.439945e-003
9.439944e-003
9.439944e-003
9.439943e-003
9.439943e-003
9.439942e-003
9.439941e-003
9.439940e-003
9.439939e-003
9.439938e-003
9.439937e-003
9.439935e-003
9.439934e-003
9.439933e-003
9.439931e-003
9.439930e-003
9.439928e-003
9.439927e-003
9.439926e-003
9.439924e-003
9.439923e-003
9.439923e-003
9.439922e-003
9.439922e-003
9.439921e-003
9.439921e-003
9.439921e-003
9.439920e-003
9.439920e-003
9.439920e-003
9.439920e-003
9.439920e-003
9.439920e-003
9.439920e-003
9.439920e-003
9.439921e-003
9.439920e-003
9.439920e-003
9.439920e-003
9.439920e-003
9.439920e-003
9.439920e-003
9.439920e-003
9.439920e-003
9.439920e-003
9.439920e-003
9.439920e-003
9.439920e-003
9.439920e-003
9.439920e-003
9.439920e-003
9.439920e-003
9.439920e-003
9.439920e-003
9.439920e-003
9.439920e-003
9.439920e-003
9.439920e-003
9.439919e-003
9.439919e-003
9.439920e-003
9.439921e-003
9.439921e-003
9.439921e-003
9.439921e-003
9.439921e-003
9.439921e-003
9.439922e-003
9.439922e-003
9.439923e-003
9.439924e-003
9.439925e-003
9.439927e-003
9.439929e-003
9.439931e-003
9.439933e-003
9.439935e-003
9.439937e-003
9.439939e-003
9.439941e-003
9.439943e-003
9.439944e-003
9.439945e-003
9.439946e-003
9.439947e-003
9.439947e-003
9.439948e-003
9.439948e-003
9.439948e-003
9.439948e-003
9.439948e-003
9.439947e-003
9.439947e-003
9.439947e-003
9.439946e-003
9.439946e-003
9.439946e-003
9.439945e-003
9.439945e-003
9.439945e-003
9.439945e-003
9.439945e-003
9.439945e-003
9.439945e-003
9.439945e-003
9.439945e-003
9.439945e-003
9.439945e-003
9.439944e-003
9.439944e-003
9.439943e-003
9.439942e-003
9.439941e-003
9.439940e-003
9.439938e-003
9.439936e-003
9.439934e-003
9.439932e-003
9.439930e-003
9.439928e-003
9.439926e-003
9.439925e-003
9.439924e-003
9.439923e-003
9.439922e-003
9.439921e-003
9.439921e-003
9.439921e-003
9.439921e-003
9.439921e-003
9.439921e-003
9.439920e-003
9.439920e-003
9.439920e-003
9.439920e-003
9.439920e-003
9.439920e-003
9.439920e-003
9.439920e-003
9.439920e-003
9.439920e-003
9.439920e-003
9.439920e-003
9.439920e-003
9.439920e-003
9.439920e-003
9.439922e-003
9.439921e-003
9.439919e-003
9.439919e-003
9.439919e-003
9.439920e-003
9.439921e-003
9.439921e-003
9.439921e-003
9.439920e-003
9.439919e-003
9.439919e-003
9.439919e-003
9.439920e-003
9.439920e-003
9.439921e-003
9.439922e-003
9.439922e-003
9.439922e-003
9.439922e-003
9.439923e-003
9.439924e-003
9.439925e-003
9.439926e-003
9.439928e-003
9.439930e-003
9.439933e-003
9.439936e-003
9.439938e-003
9.439940e-003
9.439943e-003
9.439944e-003
9.439946e-003
9.439947e-003
9.439947e-003
9.439947e-003
9.439946e-003
9.439945e-003
9.439943e-003
9.439941e-003
9.439938e-003
9.439936e-003
9.439933e-003
9.439930e-003
9.439927e-003
9.439924e-003
9.439921e-003
9.439918e-003
9.439916e-003
9.439914e-003
9.439913e-003
9.439912e-003
9.439911e-003
9.439911e-003
9.439912e-003
9.439913e-003
9.439915e-003
9.439918e-003
9.439920e-003
9.439924e-003
9.439927e-003
9.439930e-003
9.439934e-003
9.439937e-003
9.439939e-003
9.439941e-003
9.439942e-003
9.439943e-003
9.439943e-003
9.439942e-003
9.439940e-003
9.439939e-003
9.439936e-003
9.439934e-003
9.439932e-003
9.439929e-003
9.439927e-003
9.439925e-003
9.439924e-003
9.439923e-003
9.439922e-003
9.439921e-003
9.439921e-003
9.439921e-003
9.439921e-003
9.439921e-003
9.439920e-003
9.439920e-003
9.439920e-003
9.439920e-003
9.439920e-003
9.439920e-003
9.439920e-003
9.439920e-003
9.439920e-003
9.439920e-003
9.439920e-003
9.439920e-003
9.439920e-003
9.439920e-003
9.439923e-003
9.439921e-003
9.439919e-003
9.439918e-003
9.439919e-003
9.439920e-003
9.439921e-003
9.439921e-003
9.439920e-003
9.439920e-003
9.439919e-003
9.439920e-003
9.439920e-003
9.439921e-003
9.439921e-003
9.439921e-003
9.439921e-003
9.439922e-003
9.439923e-003
9.439924e-003
9.439925e-003
9.439928e-003
9.439930e-003
9.439933e-003
9.439936e-003
9.439938e-003
9.439941e-003
9.439944e-003
9.439945e-003
9.439946e-003
9.439947e-003
9.439945e-003
9.439943e-003
9.439939e-003
9.439934e-003
9.439927e-003
9.439918e-003
9.439909e-003
9.439898e-003
9.439886e-003
9.439874e-003
9.439862e-003
9.439849e-003
9.439837e-003
9.439825e-003
9.439814e-003
9.439804e-003
9.439795e-003
9.439787e-003
9.439781e-003
9.439776e-003
9.439773e-003
9.439773e-003
9.439774e-003
9.439777e-003
9.439783e-003
9.439791e-003
9.439800e-003
9.439812e-003
9.439825e-003
9.439839e-003
9.439854e-003
9.439869e-003
9.439883e-003
9.439897e-003
9.439909e-003
9.439919e-003
9.439928e-003
9.439934e-003
9.439939e-003
9.439941e-003
9.439942e-003
9.439942e-003
9.439940e-003
9.439938e-003
9.439935e-003
9.439933e-003
9.439930e-003
9.439928e-003
9.439926e-003
9.439924e-003
9.439923e-003
9.439922e-003
9.439921e-003
9.439921e-003
9.439921e-003
9.439921e-003
9.439920e-003
9.439920e-003
9.439920e-003
9.439920e-003
9.439920e-003
9.439920e-003
9.439920e-003
9.439920e-003
9.439920e-003
9.439920e-003
9.439920e-003
9.439920e-003
9.439920e-003
9.439921e-003
9.439920e-003
9.439920e-003
9.439920e-003
9.439920e-003
9.439920e-003
9.439920e-003
9.439920e-003
9.439920e-003
9.439920e-003
9.439920e-003
9.439921e-003
9.439921e-003
9.439921e-003
9.439921e-003
9.439921e-003
9.439922e-003
9.439923e-003
9.439925e-003
9.439927e-003
9.439930e-003
9.439933e-003
9.439937e-003
9.439940e-003
9.439944e-003
9.439946e-003
9.439948e-003
9.439948e-003
9.439945e-003
9.439941e-003
9.439932e-003
9.439921e-003
9.439905e-003
9.439885e-003
9.439861e-003
9.439833e-003
9.439802e-003
9.439767e-003
9.439730e-003
9.439692e-003
9.439652e-003
9.439613e-003
9.439574e-003
9.439536e-003
9.439501e-003
9.439468e-003
9.439438e-003
9.439412e-003
9.439390e-003
9.439373e-003
9.439360e-003
9.439353e-003
9.439352e-003
9.439357e-003
9.439368e-003
9.439385e-003
9.439409e-003
9.439439e-003
9.439474e-003
9.439514e-003
9.439557e-003
9.439603e-003
9.439650e-003
9.439697e-003
9.439742e-003
9.439785e-003
9.439822e-003
9.439855e-003
9.439882e-003
9.439904e-003
9.439920e-003
9.439931e-003
9.439938e-003
9.439941e-003
9.439942e-003
9.439941e-003
9.439939e-003
9.439936e-003
9.439933e-003
9.439930e-003
9.439928e-003
9.439925e-003
9.439923e-003
9.439922e-003
9.439921e-003
9.439921e-003
9.439921e-003
9.439921e-003
9.439921e-003
9.439920e-003
9.439920e-003
9.439920e-003
9.439920e-003
9.439920e-003
9.439920e-003
9.439920e-003
9.439920e-003
9.439920e-003
9.439920e-003
9.439920e-003
9.439918e-003
9.439919e-003
9.439921e-003
9.439921e-003
9.439921e-003
9.439920e-003
9.439919e-003
9.439919e-003
9.439920e-003
9.439920e-003
9.439921e-003
9.439921e-003
9.439922e-003
9.439922e-003
9.439922e-003
9.439923e-003
9.439924e-003
9.439926e-003
9.439930e-003
9.439933e-003
9.439937e-003
9.439941e-003
9.439944e-003
9.439947e-003
9.439949e-003
9.439947e-003
9.439942e-003
9.439932e-003
9.439916e-003
9.439891e-003
9.439858e-003
9.439814e-003
9.439760e-003
9.439695e-003
9.439620e-003
9.439536e-003
9.439444e-003
9.439345e-003
9.439241e-003
9.439134e-003
9.439027e-003
9.438920e-003
9.438816e-003
9.438717e-003
9.438624e-003
9.438538e-003
9.438461e-003
9.438394e-003
9.438337e-003
9.438293e-003
9.438263e-003
9.438246e-003
9.438244e-003
9.438257e-003
9.438287e-003
9.438334e-003
9.438396e-003
9.438474e-003
9.438567e-003
9.438673e-003
9.438789e-003
9.438913e-003
9.439041e-003
9.439169e-003
9.439295e-003
9.439414e-003
9.439524e-003
9.439622e-003
9.439706e-003
9.439776e-003
9.439831e-003
9.439873e-003
9.439903e-003
9.439923e-003
9.439935e-003
9.439941e-003
9.439942e-003
9.439941e-003
9.439939e-003
9.439936e-003
9.439932e-003
9.439929e-003
9.439926e-003
9.439924e-003
9.439922e-003
9.439922e-003
9.439921e-003
9.439921e-003
9.439921e-003
9.439921e-003
9.439920e-003
9.439920e-003
9.439920e-003
9.439920e-003
9.439920e-003
9.439920e-003
9.439920e-003
9.439920e-003
9.439920e-003
9.439920e-003
9.439917e-003
9.439919e-003
9.439921e-003
9.439922e-003
9.439921e-003
9.439920e-003
9.439919e-003
9.439919e-003
9.439920e-003
9.439921e-003
9.439921e-003
9.439921e-003
9.439921e-003
9.439922e-003
9.439924e-003
9.439926e-003
9.439929e-003
9.439932e-003
9.439937e-003
9.439941e-003
9.439945e-003
9.439948e-003
9.439949e-003
9.439947e-003
9.439940e-003
9.439924e-003
9.439897e-003
9.439856e-003
9.439797e-003
9.439717e-003
9.439614e-003
9.439487e-003
9.439334e-003
9.439157e-003
9.438956e-003
9.438734e-003
9.438495e-003
9.438243e-003
9.437981e-003
9.437716e-003
9.437450e-003
9.437189e-003
9.436937e-003
9.436697e-003
9.436473e-003
9.436269e-003
9.436086e-003
9.435928e-003
9.435796e-003
9.435693e-003
9.435622e-003
9.435584e-003
9.435581e-003
9.435615e-003
9.435687e-003
9.435799e-003
9.435949e-003
9.436137e-003
9.436361e-003
9.436616e-003
9.436898e-003
9.437200e-003
9.437514e-003
9.437833e-003
9.438148e-003
9.438450e-003
9.438732e-003
9.438988e-003
9.439212e-003
9.439403e-003
9.439559e-003
9.439683e-003
9.439776e-003
9.439843e-003
9.439889e-003
9.439917e-003
9.439933e-003
9.439940e-003
9.439942e-003
9.439941e-003
9.439938e-003
9.439935e-003
9.439931e-003
9.439928e-003
9.439925e-003
9.439923e-003
9.439922e-003
9.439921e-003
9.439921e-003
9.439921e-003
9.439921e-003
9.439920e-003
9.439920e-003
9.439920e-003
9.439920e-003
9.439920e-003
9.439921e-003
9.439920e-003
9.439920e-003
9.439919e-003
9.439918e-003
9.439919e-003
9.439921e-003
9.439921e-003
9.439920e-003
9.439919e-003
9.439919e-003
9.439920e-003
9.439921e-003
9.439921e-003
9.439921e-003
9.439921e-003
9.439922e-003
9.439924e-003
9.439927e-003
9.439931e-003
9.439935e-003
9.439939e-003
9.439944e-003
9.439948e-003
9.439951e-003
9.439949e-003
9.439941e-003
9.439921e-003
9.439885e-003
9.439827e-003
9.439739e-003
9.439614e-003
9.439447e-003
9.439229e-003
9.438958e-003
9.438629e-003
9.438244e-003
9.437805e-003
9.437315e-003
9.436782e-003
9.436213e-003
9.435620e-003
9.435011e-003
9.434397e-003
9.433789e-003
9.433195e-003
9.432626e-003
9.432087e-003
9.431588e-003
9.431133e-003
9.430729e-003
9.430380e-003
9.430091e-003
9.429867e-003
9.429712e-003
9.429631e-003
9.429627e-003
9.429705e-003
9.429868e-003
9.430117e-003
9.430452e-003
9.430872e-003
9.431372e-003
9.431946e-003
9.432582e-003
9.433267e-003
9.433985e-003
9.434719e-003
9.435450e-003
9.436158e-003
9.436825e-003
9.437438e-003
9.437983e-003
9.438455e-003
9.438850e-003
9.439169e-003
9.439418e-003
9.439604e-003
9.439737e-003
9.439828e-003
9.439885e-003
9.439918e-003
9.439935e-003
9.439942e-003
9.439943e-003
9.439940e-003
9.439936e-003
9.439933e-003
9.439929e-003
9.439926e-003
9.439924e-003
9.439922e-003
9.439921e-003
9.439921e-003
9.439921e-003
9.439921e-003
9.439920e-003
9.439920e-003
9.439920e-003
9.439920e-003
9.439920e-003
9.439920e-003
9.439920e-003
9.439920e-003
9.439920e-003
9.439920e-003
9.439920e-003
9.439920e-003
9.439920e-003
9.439920e-003
9.439920e-003
9.439921e-003
9.439922e-003
9.439922e-003
9.439922e-003
9.439923e-003
9.439924e-003
9.439928e-003
9.439932e-003
9.439937e-003
9.439942e-003
9.439947e-003
9.439951e-003
9.439952e-003
9.439945e-003
9.439926e-003
9.439887e-003
9.439818e-003
9.439707e-003
9.439540e-003
9.439302e-003
9.438978e-003
9.438555e-003
9.438020e-003
9.437366e-003
9.436589e-003
9.435692e-003
9.434681e-003
9.433569e-003
9.432372e-003
9.431111e-003
9.429806e-003
9.428480e-003
9.427156e-003
9.425853e-003
9.424592e-003
9.423390e-003
9.422261e-003
9.421220e-003
9.420277e-003
9.419442e-003
9.418726e-003
9.418135e-003
9.417680e-003
9.417367e-003
9.417206e-003
9.417205e-003
9.417370e-003
9.417709e-003
9.418226e-003
9.418923e-003
9.419796e-003
9.420840e-003
9.422041e-003
9.423379e-003
9.424831e-003
9.426364e-003
9.427942e-003
9.429526e-003
9.431077e-003
9.432555e-003
9.433927e-003
9.435164e-003
9.436248e-003
9.437169e-003
9.437926e-003
9.438528e-003
9.438990e-003
9.439330e-003
9.439570e-003
9.439731e-003
9.439834e-003
9.439894e-003
9.439925e-003
9.439939e-003
9.439943e-003
9.439941e-003
9.439938e-003
9.439934e-003
9.439930e-003
9.439927e-003
9.439924e-003
9.439922e-003
9.439921e-003
9.439921e-003
9.439921e-003
9.439921e-003
9.439920e-003
9.439920e-003
9.439920e-003
9.439920e-003
9.439920e-003
9.439920e-003
9.439920e-003
9.439923e-003
9.439921e-003
9.439919e-003
9.439919e-003
9.439919e-003
9.439920e-003
9.439921e-003
9.439921e-003
9.439921e-003
9.439922e-003
9.439923e-003
9.439926e-003
9.439929e-003
9.439934e-003
9.439939e-003
9.439945e-003
9.439950e-003
9.439953e-003
9.439950e-003
9.439936e-003
9.439902e-003
9.439833e-003
9.439714e-003
9.439522e-003
9.439231e-003
9.438812e-003
9.438233e-003
9.437465e-003
9.436481e-003
9.435260e-003
9.433790e-003
9.432070e-003
9.430111e-003
9.427934e-003
9.425569e-003
9.423057e-003
9.420440e-003
9.417765e-003
9.415078e-003
9.412421e-003
9.409836e-003
9.407357e-003
9.405014e-003
9.402834e-003
9.400837e-003
9.399043e-003
9.397466e-003
9.396120e-003
9.395019e-003
9.394176e-003
9.393604e-003
9.393316e-003
9.393328e-003
9.393653e-003
9.394303e-003
9.395288e-003
9.396614e-003
9.398280e-003
9.400277e-003
9.402588e-003
9.405182e-003
9.408017e-003
9.411040e-003
9.414187e-003
9.417382e-003
9.420548e-003
9.423604e-003
9.426479e-003
9.429108e-003
9.431444e-003
9.433457e-003
9.435138e-003
9.436496e-003
9.437556e-003
9.438353e-003
9.438930e-003
9.439331e-003
9.439596e-003
9.439762e-003
9.439859e-003
9.439911e-003
9.439934e-003
9.439942e-003
9.439942e-003
9.439939e-003
9.439935e-003
9.439931e-003
9.439927e-003
9.439925e-003
9.439923e-003
9.439921e-003
9.439921e-003
9.439921e-003
9.439921e-003
9.439920e-003
9.439920e-003
9.439919e-003
9.439920e-003
9.439920e-003
9.439921e-003
9.439923e-003
9.439921e-003
9.439919e-003
9.439919e-003
9.439920e-003
9.439921e-003
9.439922e-003
9.439921e-003
9.439921e-003
9.439923e-003
9.439926e-003
9.439930e-003
9.439935e-003
9.439941e-003
9.439947e-003
9.439952e-003
9.439954e-003
9.439948e-003
9.439924e-003
9.439868e-003
9.439760e-003
9.439571e-003
9.439264e-003
9.438792e-003
9.438103e-003
9.437135e-003
9.435828e-003
9.434126e-003
9.431980e-003
9.429362e-003
9.426260e-003
9.422690e-003
9.418688e-003
9.414314e-003
9.409644e-003
9.404766e-003
9.399772e-003
9.394754e-003
9.389797e-003
9.384979e-003
9.380366e-003
9.376011e-003
9.371957e-003
9.368238e-003
9.364878e-003
9.361897e-003
9.359309e-003
9.357129e-003
9.355369e-003
9.354042e-003
9.353164e-003
9.352751e-003
9.352822e-003
9.353397e-003
9.354497e-003
9.356141e-003
9.358345e-003
9.361118e-003
9.364460e-003
9.368360e-003
9.372789e-003
9.377700e-003
9.383020e-003
9.388655e-003
9.394487e-003
9.400379e-003
9.406183e-003
9.411750e-003
9.416941e-003
9.421641e-003
9.425765e-003
9.429270e-003
9.432150e-003
9.434437e-003
9.436188e-003
9.437479e-003
9.438395e-003
9.439018e-003
9.439423e-003
9.439672e-003
9.439816e-003
9.439892e-003
9.439928e-003
9.439941e-003
9.439943e-003
9.439940e-003
9.439935e-003
9.439931e-003
9.439928e-003
9.439925e-003
9.439922e-003
9.439921e-003
9.439921e-003
9.439921e-003
9.439921e-003
9.439920e-003
9.439920e-003
9.439919e-003
9.439920e-003
9.439921e-003
9.439921e-003
9.439920e-003
9.439919e-003
9.439919e-003
9.439921e-003
9.439922e-003
9.439922e-003
9.439922e-003
9.439923e-003
9.439926e-003
9.439930e-003
9.439936e-003
9.439942e-003
9.439948e-003
9.439954e-003
9.439955e-003
9.439945e-003
9.439909e-003
9.439828e-003
9.439671e-003
9.439394e-003
9.438937e-003
9.438222e-003
9.437157e-003
9.435633e-003
9.433538e-003
9.430760e-003
9.427206e-003
9.422809e-003
9.417545e-003
9.411439e-003
9.404564e-003
9.397045e-003
9.389038e-003
9.380725e-003
9.372295e-003
9.363930e-003
9.355795e-003
9.348027e-003
9.340733e-003
9.333991e-003
9.327848e-003
9.322332e-003
9.317447e-003
9.313188e-003
9.309541e-003
9.306490e-003
9.304018e-003
9.302110e-003
9.300754e-003
9.299945e-003
9.299682e-003
9.299971e-003
9.300825e-003
9.302266e-003
9.304324e-003
9.307036e-003
9.310447e-003
9.314607e-003
9.319564e-003
9.325356e-003
9.332001e-003
9.339481e-003
9.347734e-003
9.356640e-003
9.366016e-003
9.375629e-003
9.385202e-003
9.394446e-003
9.403085e-003
9.410889e-003
9.417694e-003
9.423418e-003
9.428057e-003
9.431680e-003
9.434402e-003
9.436369e-003
9.437735e-003
9.438645e-003
9.439222e-003
9.439571e-003
9.439770e-003
9.439874e-003
9.439922e-003
9.439940e-003
9.439943e-003
9.439940e-003
9.439936e-003
9.439932e-003
9.439928e-003
9.439924e-003
9.439922e-003
9.439921e-003
9.439921e-003
9.439921e-003
9.439920e-003
9.439920e-003
9.439920e-003
9.439920e-003
9.439920e-003
9.439920e-003
9.439919e-003
9.439920e-003
9.439920e-003
9.439921e-003
9.439922e-003
9.439922e-003
9.439923e-003
9.439926e-003
9.439930e-003
9.439936e-003
9.439943e-003
9.439950e-003
9.439955e-003
9.439955e-003
9.439941e-003
9.439894e-003
9.439787e-003
9.439576e-003
9.439196e-003
9.438558e-003
9.437540e-003
9.435990e-003
9.433728e-003
9.430556e-003
9.426277e-003
9.420717e-003
9.413759e-003
9.405366e-003
9.395607e-003
9.384663e-003
9.372821e-003
9.360447e-003
9.347955e-003
9.335761e-003
9.324247e-003
9.313730e-003
9.304443e-003
9.296527e-003
9.290036e-003
9.284945e-003
9.281165e-003
9.278565e-003
9.276988e-003
9.276264e-003
9.276227e-003
9.276717e-003
9.277587e-003
9.278702e-003
9.279941e-003
9.281192e-003
9.282360e-003
9.283365e-003
9.284149e-003
9.284689e-003
9.285005e-003
9.285172e-003
9.285332e-003
9.285698e-003
9.286553e-003
9.288233e-003
9.291099e-003
9.295489e-003
9.301671e-003
9.309780e-003
9.319780e-003
9.331441e-003
9.344347e-003
9.357936e-003
9.371575e-003
9.384638e-003
9.396593e-003
9.407054e-003
9.415816e-003
9.422846e-003
9.428255e-003
9.432246e-003
9.435072e-003
9.436991e-003
9.438239e-003
9.439014e-003
9.439472e-003
9.439726e-003
9.439857e-003
9.439917e-003
9.439939e-003
9.439943e-003
9.439941e-003
9.439936e-003
9.439931e-003
9.439927e-003
9.439924e-003
9.439922e-003
9.439921e-003
9.439921e-003
9.439921e-003
9.439920e-003
9.439920e-003
9.439920e-003
9.439920e-003
9.439918e-003
9.439920e-003
9.439921e-003
9.439921e-003
9.439921e-003
9.439922e-003
9.439923e-003
9.439926e-003
9.439930e-003
9.439936e-003
9.439943e-003
9.439951e-003
9.439957e-003
9.439956e-003
9.439938e-003
9.439881e-003
9.439749e-003
9.439484e-003
9.438998e-003
9.438161e-003
9.436795e-003
9.434668e-003
9.431495e-003
9.426956e-003
9.420721e-003
9.412507e-003
9.402132e-003
9.389591e-003
9.375109e-003
9.359179e-003
9.342543e-003
9.326144e-003
9.311021e-003
9.298199e-003
9.288571e-003
9.282812e-003
9.281323e-003
9.284212e-003
9.291320e-003
9.302254e-003
9.316445e-003
9.333208e-003
9.351802e-003
9.371477e-003
9.391516e-003
9.411251e-003
9.430079e-003
9.447451e-003
9.462864e-003
9.475846e-003
9.485950e-003
9.492753e-003
9.495863e-003
9.494945e-003
9.489759e-003
9.480202e-003
9.466373e-003
9.448622e-003
9.427599e-003
9.404280e-003
9.379949e-003
9.356132e-003
9.334477e-003
9.316586e-003
9.303814e-003
9.297081e-003
9.296730e-003
9.302458e-003
9.313358e-003
9.328065e-003
9.344967e-003
9.362464e-003
9.379176e-003
9.394103e-003
9.406672e-003
9.416704e-003
9.424326e-003
9.429854e-003
9.433687e-003
9.436231e-003
9.437845e-003
9.438824e-003
9.439387e-003
9.439692e-003
9.439845e-003
9.439914e-003
9.439939e-003
9.439943e-003
9.439940e-003
9.439935e-003
9.439931e-003
9.439927e-003
9.439924e-003
9.439922e-003
9.439921e-003
9.439921e-003
9.439921e-003
9.439921e-003
9.439920e-003
9.439920e-003
9.439918e-003
9.439920e-003
9.439922e-003
9.439922e-003
9.439921e-003
9.439922e-003
9.439925e-003
9.439930e-003
9.439936e-003
9.439943e-003
9.439951e-003
9.439958e-003
9.439958e-003
9.439938e-003
9.439874e-003
9.439723e-003
9.439411e-003
9.438825e-003
9.437790e-003
9.436061e-003
9.433302e-003
9.429094e-003
9.422945e-003
9.414350e-003
9.402877e-003
9.388303e-003
9.370780e-003
9.350987e-003
9.330245e-003
9.310520e-003
9.294300e-003
9.284348e-003
9.283378e-003
9.293714e-003
9.317009e-003
9.354070e-003
9.404809e-003
9.468303e-003
9.542937e-003
9.626582e-003
9.716796e-003
9.810996e-003
9.906625e-003
1.000126e-002
1.009271e-002
1.017900e-002
1.025842e-002
1.032941e-002
1.039058e-002
1.044056e-002
1.047806e-002
1.050175e-002
1.051038e-002
1.050276e-002
1.047794e-002
1.043529e-002
1.037475e-002
1.029697e-002
1.020352e-002
1.009702e-002
9.981200e-003
9.860750e-003
9.741092e-003
9.627922e-003
9.526649e-003
9.441768e-003
9.376310e-003
9.331453e-003
9.306414e-003
9.298659e-003
9.304392e-003
9.319241e-003
9.338949e-003
9.359940e-003
9.379643e-003
9.396545e-003
9.410046e-003
9.420199e-003
9.427439e-003
9.432355e-003
9.435541e-003
9.437513e-003
9.438677e-003
9.439329e-003
9.439673e-003
9.439841e-003
9.439914e-003
9.439939e-003
9.439943e-003
9.439940e-003
9.439935e-003
9.439930e-003
9.439926e-003
9.439923e-003
9.439921e-003
9.439921e-003
9.439921e-003
9.439921e-003
9.439920e-003
9.439920e-003
9.439918e-003
9.439921e-003
9.439923e-003
9.439923e-003
9.439922e-003
9.439924e-003
9.439928e-003
9.439935e-003
9.439943e-003
9.439951e-003
9.439958e-003
9.439959e-003
9.439941e-003
9.439875e-003
9.439713e-003
9.439369e-003
9.438704e-003
9.437499e-003
9.435430e-003
9.432047e-003
9.426762e-003
9.418872e-003
9.407642e-003
9.392470e-003
9.373159e-003
9.350285e-003
9.325607e-003
9.302402e-003
9.285588e-003
9.281521e-003
9.297414e-003
9.340489e-003
9.417005e-003
9.531403e-003
9.685723e-003
9.879403e-003
1.010944e-002
1.037080e-002
1.065702e-002
1.096079e-002
1.127446e-002
1.159058e-002
1.190215e-002
1.220293e-002
1.248745e-002
1.275107e-002
1.298982e-002
1.320022e-002
1.337908e-002
1.352333e-002
1.362983e-002
1.369536e-002
1.371660e-002
1.369031e-002
1.361355e-002
1.348409e-002
1.330086e-002
1.306447e-002
1.277785e-002
1.244663e-002
1.207952e-002
1.168826e-002
1.128719e-002
1.089232e-002
1.052001e-002
1.018530e-002
9.900176e-003
9.672182e-003
9.503525e-003
9.391054e-003
9.327126e-003
9.301181e-003
9.301663e-003
9.317813e-003
9.340930e-003
9.364940e-003
9.386301e-003
9.403481e-003
9.416293e-003
9.425274e-003
9.431242e-003
9.435016e-003
9.437291e-003
9.438598e-003
9.439309e-003
9.439673e-003