# vtk DataFile Version 3.0
vtk output
ASCII
DATASET STRUCTURED_POINTS
DIMENSIONS 100 100 1
SPACING 1 1 1
ORIGIN 0 0 0
POINT_DATA 10000
SCALARS SFBox_profile double
LOOKUP_TABLE default 
0.000000e+000
0.000000e+000
0.000000e+000
0.000000e+000
0.000000e+000
0.000000e+000
0.000000e+000
0.000000e+000
0.000000e+000
0.000000e+000
0.000000e+000
0.000000e+000
0.000000e+000
0.000000e+000
0.000000e+000
0.000000e+000
0.000000e+000
0.000000e+000
0.000000e+000
0.000000e+000
0.000000e+000
0.000000e+000
0.000000e+000
0.000000e+000
0.000000e+000
0.000000e+000
0.000000e+000
0.000000e+000
0.000000e+000
0.000000e+000
0.000000e+000
0.000000e+000
0.000000e+000
0.000000e+000
0.000000e+000
0.000000e+000
0.000000e+000
0.000000e+000
0.000000e+000
0.000000e+000
0.000000e+000
0.000000e+000
0.000000e+000
0.000000e+000
0.000000e+000
0.000000e+000
0.000000e+000
0.000000e+000
0.000000e+000
0.000000e+000
0.000000e+000
0.000000e+000
0.000000e+000
0.000000e+000
0.000000e+000
0.000000e+000
0.000000e+000
0.000000e+000
0.000000e+000
0.000000e+000
0.000000e+000
0.000000e+000
0.000000e+000
0.000000e+000
0.000000e+000
0.000000e+000
0.000000e+000
0.000000e+000
0.000000e+000
0.000000e+000
0.000000e+000
0.000000e+000
0.000000e+000
0.000000e+000
0.000000e+000
0.000000e+000
0.000000e+000
0.000000e+000
0.000000e+000
0.000000e+000
0.000000e+000
0.000000e+000
0.000000e+000
0.000000e+000
0.000000e+000
0.000000e+000
0.000000e+000
0.000000e+000
0.000000e+000
0.000000e+000
0.000000e+000
0.000000e+000
0.000000e+000
0.000000e+000
0.000000e+000
0.000000e+000
0.000000e+000
0.000000e+000
0.000000e+000
0.000000e+000
-1.076607e-008
-7.479538e-009
-2.136416e-009
3.087291e-009
5.863350e-009
4.925163e-009
9.883224e-010
-3.471222e-009
-5.690464e-009
-4.406068e-009
-6.501617e-010
3.043753e-009
4.430118e-009
3.030587e-009
2.768649e-010
-1.711610e-009
-1.758765e-009
-4.226368e-010
6.634161e-010
3.344959e-010
-1.040050e-009
-1.969685e-009
-1.371545e-009
2.899204e-010
1.450413e-009
1.069638e-009
-2.705410e-010
-1.003466e-009
-2.914413e-010
1.064661e-009
1.542131e-009
6.123394e-010
-6.894553e-010
-9.770782e-010
-9.158422e-011
7.800549e-010
5.444183e-010
-5.253097e-010
-1.170658e-009
-6.774604e-010
3.016642e-010
5.878838e-010
-8.814287e-011
-8.069018e-010
-6.342980e-010
2.288388e-010
7.260508e-010
2.678461e-010
-5.582636e-010
-7.481043e-010
-1.330236e-010
4.394862e-010
1.965697e-010
-5.818396e-010
-9.169345e-010
-3.585357e-010
4.545113e-010
5.930800e-010
-9.925800e-012
-4.875797e-010
-1.266326e-010
7.421978e-010
1.150178e-009
6.804182e-010
-3.127422e-011
-9.534765e-011
5.238786e-010
9.537866e-010
4.782029e-010
-5.753914e-010
-1.200130e-009
-8.843781e-010
-1.887488e-010
-4.445004e-011
-6.166119e-010
-1.082178e-009
-5.884533e-010
7.151993e-010
1.753349e-009
1.621637e-009
4.915565e-010
-6.292910e-010
-9.508120e-010
-5.996670e-010
-2.770971e-010
-3.640490e-010
-5.118904e-010
-1.422912e-010
7.516046e-010
1.430467e-009
1.099809e-009
-2.233220e-010
-1.566815e-009
-1.786836e-009
-5.887182e-010
1.144521e-009
2.035896e-009
1.343809e-009
-4.128467e-010
-1.857519e-009
-7.561955e-010
-8.807167e-010
-7.999372e-010
-2.789553e-010
4.644924e-010
8.929525e-010
6.551604e-010
-5.465899e-011
-6.444171e-010
-6.308747e-010
-4.178520e-011
6.135109e-010
7.538176e-010
1.936967e-010
-6.737382e-010
-1.139225e-009
-7.440133e-010
2.754691e-010
1.104719e-009
1.042970e-009
1.869487e-010
-6.077510e-010
-5.567410e-010
2.304553e-010
8.407066e-010
5.393740e-010
-3.985880e-010
-9.643678e-010
-5.385277e-010
3.983570e-010
8.045795e-010
2.695763e-010
-5.207079e-010
-5.962310e-010
1.590064e-010
8.864289e-010
7.838634e-010
4.872684e-011
-3.890974e-010
-7.770615e-013
7.222077e-010
8.967315e-010
3.316409e-010
-2.617055e-010
-1.650529e-010
4.695621e-010
8.359288e-010
4.883625e-010
-1.167581e-010
-2.107927e-010
3.225135e-010
8.128572e-010
6.501467e-010
4.113700e-011
-2.636437e-010
8.462726e-011
6.028732e-010
5.891900e-010
2.085918e-012
-4.907184e-010
-3.445111e-010
1.914457e-010
3.930236e-010
-3.504099e-011
-5.919502e-010
-5.968090e-010
-2.248469e-011
4.738044e-010
3.507387e-010
-1.674449e-010
-3.751143e-010
5.150014e-011
6.543808e-010
7.280130e-010
1.443373e-010
-4.998755e-010
-5.655341e-010
-7.583166e-011
3.542997e-010
2.428736e-010
-2.305341e-010
-4.708064e-010
-1.660787e-010
3.643608e-010
5.388891e-010
1.587876e-010
-3.812467e-010
-5.197057e-010
-1.132827e-010
4.276092e-010
5.618048e-010
1.480801e-010
-4.322932e-010
-6.458986e-010
-2.951260e-010
3.189586e-010
6.737541e-010
4.736001e-010
-1.130830e-010
-6.050957e-010
1.074017e-008
6.917671e-009
1.186016e-009
-3.678220e-009
-5.515426e-009
-3.862491e-009
-8.060048e-011
3.486420e-009
4.848040e-009
3.460275e-009
4.319742e-010
-2.304925e-009
-3.312817e-009
-2.506497e-009
-9.345420e-010
2.438560e-010
6.433276e-010
6.662370e-010
8.106578e-010
1.093346e-009
1.156972e-009
8.074018e-010
2.839611e-010
-3.193594e-011
-5.884779e-011
-5.123049e-011
-2.208217e-010
-4.554195e-010
-4.895951e-010
-2.785170e-010
-6.779461e-011
-6.519382e-011
-1.544432e-010
-4.305124e-011
3.361444e-010
6.981120e-010
7.403452e-010
5.247931e-010
4.118992e-010
6.126234e-010
9.182219e-010
9.559822e-010
6.579789e-010
3.551432e-010
3.750142e-010
6.447012e-010
7.943881e-010
6.280344e-010
3.690145e-010
3.750920e-010
6.841706e-010
9.600366e-010
9.011737e-010
5.986470e-010
4.026757e-010
4.774250e-010
6.053347e-010
4.760438e-010
8.509754e-011
-2.586134e-010
-3.162804e-010
-2.058400e-010
-2.371462e-010
-5.108003e-010
-7.826406e-010
-7.541002e-010
-4.217371e-010
-6.204140e-011
1.098983e-010
1.767681e-010
3.715068e-010
7.481992e-010
1.080273e-009
1.095504e-009
7.506649e-010
2.333177e-010
-2.629352e-010
-6.828637e-010
-1.015679e-009
-1.140581e-009
-8.702316e-010
-1.812561e-010
6.453762e-010
1.174882e-009
1.136058e-009
6.004819e-010
-1.183395e-010
-6.970018e-010
-9.387081e-010
-7.707905e-010
-2.338250e-010
4.652064e-010
9.492185e-010
8.595839e-010
1.642091e-010
-7.060383e-010
-1.109404e-009
-6.966892e-010
2.597480e-010
1.038700e-009
1.347457e-008
9.225600e-009
2.553076e-009
-3.644257e-009
-6.682307e-009
-5.427920e-009
-9.912918e-010
3.781522e-009
5.944274e-009
4.304049e-009
2.030143e-010
-3.462967e-009
-4.365335e-009
-2.389649e-009
5.053259e-010
2.051907e-009
1.506320e-009
-1.111470e-011
-8.178329e-010
-2.709080e-010
8.254574e-010
1.232374e-009
5.605884e-010
-4.517649e-010
-8.126813e-010
-2.919714e-010
4.497544e-010
6.354033e-010
1.580949e-010
-4.080865e-010
-4.766101e-010
-2.987883e-011
4.555536e-010
5.636034e-010
3.392039e-010
1.557893e-010
2.727753e-010
5.869747e-010
8.015218e-010
7.681020e-010
6.161297e-010
5.663151e-010
6.765765e-010
8.050835e-010
8.005193e-010
6.786473e-010
5.878789e-010
6.253000e-010
7.292158e-010
7.669147e-010
6.995681e-010
6.217481e-010
6.326274e-010
7.022849e-010
7.015520e-010
5.624259e-010
3.718957e-010
2.771238e-010
3.094328e-010
3.415305e-010
2.388586e-010
2.829076e-011
-1.245948e-010
-1.125489e-010
-2.145993e-011
-2.778222e-011
-1.698822e-010
-2.749110e-010
-1.527759e-010
1.592270e-010
4.063244e-010
3.991952e-010
2.458724e-010
2.326655e-010
4.567261e-010
6.388189e-010
3.841751e-010
-3.486182e-010
-1.093548e-009
-1.260395e-009
-6.927586e-010
1.795598e-010
7.571269e-010
8.123631e-010
5.898637e-010
4.045598e-010
2.419504e-010
-1.538664e-010
-8.084423e-010
-1.257293e-009
-9.056234e-010
2.847260e-010
1.523947e-009
1.749642e-009
5.917700e-010
-1.159723e-009
-2.108775e-009
-1.419133e-009
4.240435e-010
1.962789e-009
4.007158e-009
3.450323e-009
2.119862e-009
1.028255e-010
-1.820548e-009
-2.524936e-009
-1.483095e-009
5.624086e-010
1.984493e-009
1.570871e-009
-3.548918e-010
-2.086450e-009
-1.975299e-009
6.104832e-011
2.366866e-009
2.960735e-009
1.298535e-009
-1.237161e-009
-2.595457e-009
-1.893815e-009
-1.117694e-010
9.729630e-010
5.196999e-010
-6.725447e-010
-1.121742e-009
-2.306927e-010
1.151007e-009
1.690233e-009
9.823457e-010
-8.473526e-011
-3.436934e-010
4.068491e-010
1.265544e-009
1.284412e-009
5.043218e-010
-1.600068e-010
1.047857e-011
7.604568e-010
1.225206e-009
9.556835e-010
3.961577e-010
3.002191e-010
8.253356e-010
1.381763e-009
1.372086e-009
8.983907e-010
5.949345e-010
8.281702e-010
1.259271e-009
1.289072e-009
8.128359e-010
3.480101e-010
3.899841e-010
8.048352e-010
1.009577e-009
7.071505e-010
2.591306e-010
2.346895e-010
6.976407e-010
1.117230e-009
1.016248e-009
5.573659e-010
3.406200e-010
6.540625e-010
1.097077e-009
1.048869e-009
4.234629e-010
-2.079648e-010
-2.908859e-010
4.567493e-011
1.423599e-010
-3.760952e-010
-1.087523e-009
-1.195245e-009
-4.334282e-010
5.805113e-010
9.705425e-010
5.195993e-010
-1.396552e-010
-2.617949e-010
1.853974e-010
5.307507e-010
2.170525e-010
-5.130959e-010
-8.519726e-010
-3.368161e-010
5.750591e-010
9.294437e-010
2.806347e-010
-7.822297e-010
-1.171993e-009
-3.916601e-010
9.163760e-010
1.529153e-009
7.938467e-010
-7.226423e-010
-1.706249e-009
-1.265660e-009
2.607675e-010
1.584881e-009
-1.076001e-008
-6.310422e-009
-9.670839e-011
4.358662e-009
5.009737e-009
2.394691e-009
-1.131903e-009
-3.266747e-009
-3.222697e-009
-1.796281e-009
-2.749207e-010
6.915846e-010
1.296879e-009
1.888877e-009
2.272256e-009
1.817201e-009
2.750774e-010
-1.626705e-009
-2.594497e-009
-1.924668e-009
-2.609611e-010
9.213357e-010
7.064740e-010
-3.762371e-010
-9.266847e-010
-1.579617e-010
1.268384e-009
1.968797e-009
1.353063e-009
2.644331e-010
2.621660e-011
9.581556e-010
2.036929e-009
2.082776e-009
1.107730e-009
2.768554e-010
5.454150e-010
1.571932e-009
2.165251e-009
1.706542e-009
8.503908e-010
6.977437e-010
1.467639e-009
2.267441e-009
2.203116e-009
1.451058e-009
9.960355e-010
1.393983e-009
2.098872e-009
2.165735e-009
1.433733e-009
7.200101e-010
8.024816e-010
1.468697e-009
1.804341e-009
1.342832e-009
6.382383e-010
5.595629e-010
1.198658e-009
1.752922e-009
1.522451e-009
7.791664e-010
4.302928e-010
8.914594e-010
1.557406e-009
1.522665e-009
6.752797e-010
-1.659550e-010
-2.370272e-010
2.536801e-010
3.820206e-010
-3.626877e-010
-1.415531e-009
-1.725993e-009
-9.182041e-010
3.078546e-010
9.628327e-010
8.086619e-010
4.750235e-010
5.820788e-010
9.423454e-010
7.865269e-010
-2.501441e-010
-1.530348e-009
-1.930356e-009
-9.621657e-010
6.739108e-010
1.688731e-009
1.358575e-009
1.149864e-010
-9.355521e-010
-1.023472e-009
-2.975675e-010
4.674793e-010
6.390064e-010
2.253505e-010
-2.683551e-010
-3.799722e-010
-9.071331e-011
2.322438e-010
-1.845302e-008
-1.198025e-008
-2.446310e-009
5.345589e-009
7.972225e-009
5.203146e-009
-2.034208e-010
-4.476851e-009
-5.229390e-009
-2.710882e-009
8.028457e-010
2.890762e-009
2.665846e-009
1.040525e-009
-4.170712e-010
-8.724152e-010
-6.289020e-010
-3.894853e-010
-3.506709e-010
-1.353511e-010
4.916645e-010
1.116123e-009
1.081962e-009
3.488480e-010
-3.034084e-010
-9.241090e-011
8.367051e-010
1.521046e-009
1.289810e-009
5.865247e-010
4.752411e-010
1.359045e-009
2.442452e-009
2.635628e-009
1.857640e-009
1.160042e-009
1.480452e-009
2.509291e-009
3.053159e-009
2.474980e-009
1.466973e-009
1.210808e-009
1.948235e-009
2.709209e-009
2.521140e-009
1.602371e-009
1.074276e-009
1.565942e-009
2.447355e-009
2.628317e-009
1.910894e-009
1.213290e-009
1.407718e-009
2.236813e-009
2.650047e-009
2.116323e-009
1.266438e-009
1.081677e-009
1.663462e-009
2.119979e-009
1.693516e-009
7.127362e-010
1.925621e-010
5.904912e-010
1.257186e-009
1.243223e-009
4.580785e-010
-2.302076e-010
-5.540885e-011
7.223524e-010
1.126309e-009
6.073019e-010
-3.435642e-010
-7.967977e-010
-4.374653e-010
1.671814e-010
3.268748e-010
4.595606e-011
-6.881252e-011
3.547440e-010
9.140530e-010
8.457839e-010
-8.122453e-011
-1.214002e-009
-1.600866e-009
-8.869465e-010
3.884467e-010
1.315279e-009
1.361989e-009
6.613537e-010
-2.682099e-010
-9.421651e-010
-1.099665e-009
-6.926897e-010
1.128298e-010
9.085652e-010
1.180955e-009
6.689005e-010
-3.417344e-010
-1.144068e-009
-1.131762e-008
-8.022839e-009
-2.828657e-009
2.024291e-009
4.453369e-009
3.640534e-009
6.096867e-010
-2.292005e-009
-2.926959e-009
-9.402210e-010
1.913270e-009
3.150965e-009
1.645052e-009
-1.390262e-009
-3.458916e-009
-2.974253e-009
-5.570972e-010
1.734109e-009
2.384485e-009
1.621499e-009
7.759662e-010
7.162777e-010
1.111518e-009
1.155686e-009
6.853309e-010
3.182213e-010
5.712901e-010
1.174698e-009
1.458251e-009
1.257076e-009
1.119736e-009
1.539212e-009
2.231069e-009
2.444162e-009
1.936917e-009
1.341018e-009
1.385221e-009
1.937511e-009
2.117163e-009
1.392995e-009
2.961343e-010
-1.877923e-010
1.777356e-010
5.903307e-010
2.199542e-010
-7.322557e-010
-1.260160e-009
-7.906250e-010
1.131657e-010
4.595278e-010
5.293351e-011
-2.974435e-010
1.710447e-010
1.198753e-009
1.822140e-009
1.565323e-009
1.001834e-009
1.001954e-009
1.634717e-009
2.098771e-009
1.741169e-009
8.724131e-010
3.768628e-010
6.351781e-010
1.102078e-009
1.027977e-009
3.968713e-010
-6.730055e-011
2.103907e-010
9.817631e-010
1.498167e-009
1.370127e-009
9.094788e-010
6.170322e-010
5.366099e-010
2.859404e-010
-3.342962e-010
-9.717159e-010
-1.072919e-009
-5.193891e-010
2.214643e-010
5.878445e-010
4.579355e-010
1.414539e-010
-5.909759e-011
-1.284948e-010
-1.714380e-010
-1.339732e-010
1.305860e-010
5.211880e-010
6.015075e-010
3.672926e-011
-8.787024e-010
-1.301090e-009
-6.240668e-010
7.816932e-010
1.733285e-009
1.290130e-009
-2.896087e-010
-1.684296e-009
6.567608e-009
3.384721e-009
-7.490774e-010
-3.162074e-009
-2.787912e-009
-7.348180e-010
1.004168e-009
1.398112e-009
1.025648e-009
1.015147e-009
1.527017e-009
1.495171e-009
-3.623957e-011
-2.467477e-009
-3.833570e-009
-2.655052e-009
4.288981e-010
3.063375e-009
3.340939e-009
1.545800e-009
-2.940331e-010
-5.031781e-010
7.305952e-010
1.899629e-009
1.954286e-009
1.282739e-009
9.759275e-010
1.459646e-009
2.122368e-009
2.195982e-009
1.659254e-009
1.090963e-009
8.221653e-010
5.514112e-010
-1.496999e-010
-1.215253e-009
-2.202874e-009
-2.942230e-009
-3.779647e-009
-5.062124e-009
-6.572255e-009
-7.719120e-009
-8.270176e-009
-8.649111e-009
-9.367591e-009
-1.030887e-008
-1.081033e-008
-1.046900e-008
-9.644167e-009
-9.004928e-009
-8.697384e-009
-8.196021e-009
-7.022387e-009
-5.402613e-009
-4.025181e-009
-3.220188e-009
-2.609124e-009
-1.651412e-009
-3.691151e-010
6.668740e-010
1.040819e-009
9.767534e-010
1.016957e-009
1.346446e-009
1.623870e-009
1.483819e-009
1.025784e-009
6.817337e-010
6.891463e-010
8.697304e-010
9.504144e-010
9.351518e-010
1.014805e-009
1.174006e-009
1.085785e-009
4.940543e-010
-3.969116e-010
-1.056874e-009
-1.155762e-009
-8.404841e-010
-4.422300e-010
-3.595661e-011
5.370175e-010
1.208172e-009
1.457092e-009
7.782681e-010
-5.989555e-010
-1.646596e-009
-1.413172e-009
-2.518286e-011
1.291755e-009
1.331072e-009
9.410540e-011
-1.180290e-009
-1.229417e-009
-2.299316e-011
1.211293e-009
1.227146e-009
1.318252e-011
-1.204206e-009
2.159266e-008
1.338600e-008
1.888722e-009
-6.476444e-009
-8.060047e-009
-3.999335e-009
1.347103e-009
4.032439e-009
3.194225e-009
8.063218e-010
-7.699099e-010
-8.917698e-010
-5.540179e-010
-6.785761e-010
-9.199093e-010
-2.952000e-010
1.275612e-009
2.504978e-009
2.041973e-009
9.677521e-011
-1.545973e-009
-1.272685e-009
7.220912e-010
2.689578e-009
3.156208e-009
2.305668e-009
1.489722e-009
1.579659e-009
2.061473e-009
1.759723e-009
1.800481e-010
-2.092547e-009
-4.234596e-009
-6.127713e-009
-8.330378e-009
-1.128398e-008
-1.479815e-008
-1.834593e-008
-2.165434e-008
-2.483468e-008
-2.801129e-008
-3.103443e-008
-3.363210e-008
-3.570780e-008
-3.734211e-008
-3.853513e-008
-3.910045e-008
-3.887403e-008
-3.792907e-008
-3.647791e-008
-3.459701e-008
-3.216901e-008
-2.912985e-008
-2.567478e-008
-2.213030e-008
-1.866306e-008
-1.521971e-008
-1.176633e-008
-8.482000e-009
-5.636405e-009
-3.330201e-009
-1.461636e-009
5.069167e-011
1.128411e-009
1.687138e-009
1.847652e-009
1.858954e-009
1.802490e-009
1.508254e-009
8.671850e-010
1.528231e-010
-1.368325e-010
1.824221e-010
7.120983e-010
8.658771e-010
5.086623e-010
6.979965e-011
-2.447412e-011
1.040869e-010
-2.444064e-011
-5.260573e-010
-8.301053e-010
-2.776386e-010
9.703662e-010
1.827852e-009
1.281609e-009
-4.795973e-010
-2.051705e-009
-2.058222e-009
-4.594815e-010
1.381483e-009
1.952990e-009
9.432958e-010
-5.904236e-010
-1.307625e-009
-8.046796e-010
1.777567e-010
6.359465e-010
3.032496e-010
-2.152659e-010
2.136850e-008
1.356219e-008
2.485030e-009
-5.764802e-009
-7.464339e-009
-3.459520e-009
1.909704e-009
4.285174e-009
2.450322e-009
-1.262647e-009
-3.420594e-009
-2.479132e-009
2.921540e-010
2.460861e-009
2.757390e-009
1.808734e-009
9.168872e-010
5.478145e-010
2.070778e-010
-4.455859e-010
-8.377368e-010
-1.043869e-010
1.687981e-009
3.293856e-009
3.440416e-009
2.093718e-009
3.661311e-010
-8.426933e-010
-1.920363e-009
-4.138900e-009
-8.295078e-009
-1.395777e-008
-2.009889e-008
-2.627828e-008
-3.301143e-008
-4.099496e-008
-5.017115e-008
-5.968370e-008
-6.867127e-008
-7.693646e-008
-8.479671e-008
-9.240974e-008
-9.938418e-008
-1.050501e-007
-1.090029e-007
-1.113155e-007
-1.122599e-007
-1.119088e-007
-1.100432e-007
-1.064166e-007
-1.010683e-007
-9.436479e-008
-8.674467e-008
-7.844290e-008
-6.948677e-008
-5.996953e-008
-5.028951e-008
-4.104766e-008
-3.266949e-008
-2.517006e-008
-1.836284e-008
-1.229201e-008
-7.348641e-009
-3.867752e-009
-1.661272e-009
-1.013498e-010
1.256564e-009
2.224859e-009
2.296448e-009
1.409558e-009
2.525599e-010
-3.156081e-010
-9.677376e-011
3.398197e-010
4.106668e-010
2.236105e-010
3.687035e-010
1.044006e-009
1.618400e-009
1.254970e-009
-6.246947e-011
-1.315761e-009
-1.401022e-009
-2.676452e-010
9.839498e-010
1.173317e-009
1.732536e-010
-1.027708e-009
-1.323052e-009
-4.974677e-010
6.906535e-010
1.289049e-009
9.528450e-010
7.990395e-011
-6.652308e-010
-8.840312e-010
-6.077849e-010
-1.130325e-010
3.305407e-010
5.755730e-010
5.139168e-009
3.262499e-009
4.889788e-010
-1.619449e-009
-1.793441e-009
-5.881984e-011
2.010458e-009
2.376810e-009
3.252277e-010
-2.662838e-009
-4.007326e-009
-2.310845e-009
1.286336e-009
4.053731e-009
4.078348e-009
1.837952e-009
-4.912990e-010
-1.138644e-009
-1.066557e-010
1.351187e-009
2.236714e-009
2.551477e-009
2.685419e-009
2.484968e-009
1.233056e-009
-1.532635e-009
-5.529286e-009
-1.027270e-008
-1.599180e-008
-2.372331e-008
-3.437903e-008
-4.785029e-008
-6.320241e-008
-7.972221e-008
-9.757475e-008
-1.173039e-007
-1.387869e-007
-1.608857e-007
-1.822051e-007
-2.020823e-007
-2.206936e-007
-2.382115e-007
-2.540246e-007
-2.669194e-007
-2.759946e-007
-2.812600e-007
-2.832697e-007
-2.822547e-007
-2.777662e-007
-2.692213e-007
-2.567018e-007
-2.410834e-007
-2.233594e-007
-2.039567e-007
-1.828374e-007
-1.602465e-007
-1.371906e-007
-1.150281e-007
-9.460149e-008
-7.590759e-008
-5.868735e-008
-4.321899e-008
-3.032800e-008
-2.055577e-008
-1.347290e-008
-8.005447e-009
-3.453751e-009
-3.295317e-011
1.694389e-009
1.806604e-009
1.237089e-009
9.514184e-010
1.078314e-009
1.036360e-009
4.801484e-010
-1.131567e-010
4.152207e-011
1.027586e-009
1.954314e-009
1.806230e-009
4.958514e-010
-1.026922e-009
-1.688191e-009
-1.222699e-009
-2.242163e-010
5.512851e-010
7.874031e-010
6.030498e-010
2.165541e-010
-2.065107e-010
-4.645034e-010
-3.389662e-010
1.463783e-010
5.791951e-010
4.739626e-010
-1.815196e-010
-7.926436e-010
-7.089358e-010
6.942691e-011
8.237322e-010
-1.532302e-008
-9.570501e-009
-1.792432e-009
3.562939e-009
4.594967e-009
2.681423e-009
4.514870e-010
-6.727181e-010
-1.034139e-009
-1.370050e-009
-1.494177e-009
-6.202479e-010
1.243431e-009
2.751299e-009
2.436468e-009
4.212318e-010
-1.394789e-009
-1.077553e-009
1.426947e-009
4.211941e-009
5.194855e-009
3.834131e-009
1.058452e-009
-2.268497e-009
-6.531210e-009
-1.302852e-008
-2.279942e-008
-3.609709e-008
-5.297057e-008
-7.397454e-008
-9.996623e-008
-1.312225e-007
-1.670260e-007
-2.062697e-007
-2.483157e-007
-2.930122e-007
-3.398450e-007
-3.873264e-007
-4.334686e-007
-4.768521e-007
-5.170320e-007
-5.538019e-007
-5.862207e-007
-6.126155e-007
-6.316031e-007
-6.429348e-007
-6.471664e-007
-6.445586e-007
-6.345392e-007
-6.163828e-007
-5.903011e-007
-5.576410e-007
-5.199611e-007
-4.780978e-007
-4.323339e-007
-3.834363e-007
-3.332604e-007
-2.841236e-007
-2.376235e-007
-1.942459e-007
-1.541533e-007
-1.181269e-007
-8.745885e-008
-6.288645e-008
-4.384606e-008
-2.896573e-008
-1.724407e-008
-8.570144e-009
-3.073855e-009
-2.149802e-010
1.215126e-009
2.184210e-009
2.744890e-009
2.433898e-009
1.245916e-009
-1.692399e-011
-4.405480e-010
1.014822e-010
8.883966e-010
1.140616e-009
7.139241e-010
9.318486e-012
-5.799936e-010
-9.191912e-010
-9.129256e-010
-3.705528e-010
6.678593e-010
1.582977e-009
1.504024e-009
2.154272e-010
-1.359300e-009
-1.854008e-009
-7.955922e-010
8.324226e-010
1.513648e-009
7.179214e-010
-5.935876e-010
-1.032576e-009
-2.651900e-010
6.991015e-010
-2.535631e-008
-1.515871e-008
-1.543926e-009
7.223360e-009
7.492194e-009
2.138678e-009
-2.838926e-009
-3.577947e-009
-8.147186e-010
2.026691e-009
2.568732e-009
1.270477e-009
5.317405e-011
-1.098285e-010
1.366215e-010
-3.272792e-011
-2.025410e-010
8.007548e-010
3.122992e-009
5.059323e-009
4.327061e-009
3.442582e-011
-6.937506e-009
-1.560916e-008
-2.675303e-008
-4.289769e-008
-6.660721e-008
-9.901249e-008
-1.400397e-007
-1.896793e-007
-2.485495e-007
-3.171002e-007
-3.945654e-007
-4.790032e-007
-5.683122e-007
-6.609178e-007
-7.553498e-007
-8.494380e-007
-9.403390e-007
-1.025492e-006
-1.103351e-006
-1.172979e-006
-1.233063e-006
-1.281636e-006
-1.316931e-006
-1.338309e-006
-1.346083e-006
-1.340439e-006
-1.320801e-006
-1.286473e-006
-1.237802e-006
-1.176433e-006
-1.104368e-006
-1.023003e-006
-9.333289e-007
-8.370446e-007
-7.371589e-007
-6.372723e-007
-5.403076e-007
-4.480877e-007
-3.620813e-007
-2.842016e-007
-2.165291e-007
-1.602060e-007
-1.148072e-007
-7.892501e-008
-5.126420e-008
-3.101921e-008
-1.729744e-008
-8.563035e-009
-2.980202e-009
6.876726e-010
2.719997e-009
3.053858e-009
2.101865e-009
8.011901e-010
-6.813536e-011
-3.735777e-010
-3.623506e-010
-1.209584e-010
4.398329e-010
1.107654e-009
1.237694e-009
4.106751e-010
-8.381965e-010
-1.293613e-009
-3.125360e-010
1.285527e-009
1.860687e-009
6.358459e-010
-1.365384e-009
-2.248309e-009
-1.159603e-009
8.317135e-010
1.838920e-009
1.076485e-009
-4.385060e-010
-1.090413e-009
-4.045261e-010
5.688139e-010
-1.907291e-008
-1.014778e-008
1.332733e-009
7.671640e-009
5.768110e-009
-9.208408e-010
-5.819937e-009
-4.910680e-009
3.083906e-010
4.887925e-009
5.211070e-009
1.922110e-009
-1.408396e-009
-2.014877e-009
-1.612549e-010
1.973519e-009
2.911824e-009
2.911616e-009
2.590657e-009
1.189218e-009
-3.329535e-009
-1.264849e-008
-2.719775e-008
-4.728074e-008
-7.490423e-008
-1.139965e-007
-1.685393e-007
-2.405556e-007
-3.299785e-007
-4.361623e-007
-5.589727e-007
-6.981359e-007
-8.517770e-007
-1.016038e-006
-1.186275e-006
-1.358454e-006
-1.529286e-006
-1.695368e-006
-1.852738e-006
-1.997602e-006
-2.127320e-006
-2.240416e-006
-2.335642e-006
-2.411346e-006
-2.465916e-006
-2.498619e-006
-2.509630e-006
-2.499136e-006
-2.466667e-006
-2.411546e-006
-2.333926e-006
-2.235125e-006
-2.116923e-006
-1.980809e-006
-1.828267e-006
-1.661819e-006
-1.485569e-006
-1.304564e-006
-1.123692e-006
-9.472707e-007
-7.794890e-007
-6.247213e-007
-4.869245e-007
-3.685594e-007
-2.701474e-007
-1.908504e-007
-1.292925e-007
-8.373331e-008
-5.171509e-008
-3.007493e-008
-1.571659e-008
-6.459080e-009
-1.078938e-009
1.372776e-009
2.038003e-009
1.949144e-009
1.512564e-009
6.566715e-010
-4.205682e-010
-9.246591e-010
-1.747341e-010
1.409613e-009
2.386293e-009
1.649064e-009
-3.186739e-010
-1.777678e-009
-1.451354e-009
1.678892e-010
1.349972e-009
9.389610e-010
-4.961962e-010
-1.363718e-009
-7.766142e-010
5.710526e-010
1.247322e-009
6.379141e-010
-4.799295e-010
-8.824700e-010
-2.478984e-010
5.682876e-010
-2.822248e-009
2.444419e-010
3.732256e-009
4.463027e-009
1.406833e-009
-3.224143e-009
-5.614310e-009
-3.602150e-009
1.266149e-009
4.965551e-009
4.602818e-009
1.051493e-009
-1.980165e-009
-1.541440e-009
1.883924e-009
5.145701e-009
5.511761e-009
2.659869e-009
-2.334109e-009
-9.527106e-009
-2.128280e-008
-4.118369e-008
-7.249636e-008
-1.181972e-007
-1.822314e-007
-2.698979e-007
-3.862636e-007
-5.339694e-007
-7.125846e-007
-9.198373e-007
-1.152907e-006
-1.408154e-006
-1.679852e-006
-1.959881e-006
-2.239261e-006
-2.510226e-006
-2.766992e-006
-3.004990e-006
-3.220042e-006
-3.408697e-006
-3.569209e-006
-3.701744e-006
-3.807405e-006
-3.887125e-006
-3.941505e-006
-3.971360e-006
-3.977846e-006
-3.961767e-006
-3.922862e-006
-3.859962e-006
-3.771766e-006
-3.657292e-006
-3.515635e-006
-3.345757e-006
-3.147038e-006
-2.920372e-006
-2.668839e-006
-2.397493e-006
-2.112803e-006
-1.822398e-006
-1.535034e-006
-1.260059e-006
-1.006125e-006
-7.798458e-007
-5.852504e-007
-4.240412e-007
-2.959352e-007
-1.986468e-007
-1.279605e-007
-7.852535e-008
-4.516716e-008
-2.374643e-008
-1.100491e-008
-3.998530e-009
-1.199703e-010
2.218714e-009
3.258524e-009
2.683779e-009
8.915265e-010
-6.917590e-010
-7.265318e-010
6.919153e-010
2.043834e-009
1.878927e-009
2.504426e-010
-1.405142e-009
-1.744350e-009
-7.508990e-010
4.681416e-010
9.100172e-010
5.454221e-010
5.370656e-011
-5.468869e-011
1.016471e-010
1.034346e-010
-1.849984e-010
-4.642723e-010
-3.768311e-010
6.773879e-011
4.805095e-010
1.180311e-008
7.830347e-009
2.482222e-009
-1.350272e-009
-2.647556e-009
-2.248647e-009
-1.246777e-009
1.996185e-011
1.423182e-009
2.233672e-009
1.612684e-009
-3.648193e-011
-8.426734e-010
7.849110e-010
4.129025e-009
6.236225e-009
4.194752e-009
-2.902268e-009
-1.461668e-008
-3.186184e-008
-5.884409e-008
-1.024513e-007
-1.701483e-007
-2.687189e-007
-4.045688e-007
-5.840326e-007
-8.120817e-007
-1.089941e-006
-1.413648e-006
-1.774644e-006
-2.161369e-006
-2.560233e-006
-2.955801e-006
-3.331577e-006
-3.672250e-006
-3.966385e-006
-4.207681e-006
-4.394264e-006
-4.527326e-006
-4.610612e-006
-4.650707e-006
-4.656838e-006
-4.639477e-006
-4.608564e-006
-4.572546e-006
-4.538358e-006
-4.511394e-006
-4.494854e-006
-4.488916e-006
-4.490496e-006
-4.493679e-006
-4.490244e-006
-4.470037e-006
-4.421609e-006
-4.333493e-006
-4.195893e-006
-4.002187e-006
-3.750003e-006
-3.442069e-006
-3.086792e-006
-2.698014e-006
-2.293457e-006
-1.892178e-006
-1.512008e-006
-1.167753e-006
-8.700453e-007
-6.245034e-007
-4.313263e-007
-2.859760e-007
-1.810911e-007
-1.086931e-007
-6.142742e-008
-3.258751e-008
-1.591904e-008
-6.177579e-009
-1.294574e-010
3.247289e-009
3.937211e-009
2.470030e-009
3.990423e-010
-6.699050e-010
-2.998586e-010
6.599029e-010
1.098399e-009
6.585439e-010
-1.863507e-010
-7.807079e-010
-8.181877e-010
-3.619582e-010
3.452360e-010
9.498401e-010
1.052927e-009
4.884955e-010
-4.000661e-010
-9.367551e-010
-7.271291e-010
-6.654492e-011
3.791067e-010
2.978815e-010
1.672675e-011
1.788214e-008
8.874673e-009
-2.085678e-009
-7.231630e-009
-4.576546e-009
1.422844e-009
4.906043e-009
3.836647e-009
6.166279e-010
-1.388373e-009
-1.062710e-009
4.871744e-010
2.027440e-009
3.281033e-009
3.946317e-009
2.425913e-009
-3.914994e-009
-1.758015e-008
-4.097963e-008
-7.834711e-008
-1.377002e-007
-2.306240e-007
-3.698534e-007
-5.666528e-007
-8.294625e-007
-1.163104e-006
-1.566938e-006
-2.031927e-006
-2.538574e-006
-3.057726e-006
-3.554162e-006
-3.991146e-006
-4.334457e-006
-4.555847e-006
-4.636350e-006
-4.568944e-006
-4.359266e-006
-4.023865e-006
-3.587155e-006
-3.078761e-006
-2.531812e-006
-1.981317e-006
-1.461843e-006
-1.004932e-006
-6.373365e-007
-3.803473e-007
-2.494523e-007
-2.535769e-007
-3.940408e-007
-6.638259e-007
-1.047397e-006
-1.520932e-006
-2.052980e-006
-2.605883e-006
-3.138108e-006
-3.607322e-006
-3.974007e-006
-4.205605e-006
-4.280933e-006
-4.193826e-006
-3.954603e-006
-3.588600e-006
-3.132215e-006
-2.627631e-006
-2.117127e-006
-1.637534e-006
-1.215654e-006
-8.658771e-007
-5.909497e-007
-3.853120e-007
-2.390710e-007
-1.407662e-007
-7.864288e-008
-4.148703e-008
-1.985310e-008
-7.248688e-009
-2.338572e-010
2.773245e-009
2.963561e-009
1.737851e-009
3.695162e-010
-4.395733e-010
-5.274344e-010
-8.665269e-012
7.764186e-010
1.232048e-009
8.491058e-010
-1.965578e-010
-9.731076e-010
-6.499421e-010
5.096017e-010
1.259970e-009
6.871610e-010
-6.927746e-010
-1.411708e-009
-6.829002e-010
6.751895e-010
1.156261e-009
2.987958e-010
-7.990552e-010
1.662952e-008
6.050070e-009
-6.103321e-009
-1.014097e-008
-4.233634e-009
4.830760e-009
8.751319e-009
5.262509e-009
-9.281242e-010
-3.695398e-009
-1.272043e-009
3.168845e-009
5.490618e-009
4.145753e-009
-1.982307e-010
-7.745705e-009
-2.178300e-008
-4.844945e-008
-9.575575e-008
-1.739718e-007
-2.970132e-007