# vtk DataFile Version 3.0
vtk output
ASCII
DATASET STRUCTURED_POINTS
DIMENSIONS 100 100 1
SPACING 1 1 1
ORIGIN 0 0 0
POINT_DATA 10000
SCALARS SFBox_profile double
LOOKUP_TABLE default 
0.000000e+000
0.000000e+000
0.000000e+000
0.000000e+000
0.000000e+000
0.000000e+000
0.000000e+000
0.000000e+000
0.000000e+000
0.000000e+000
0.000000e+000
0.000000e+000
0.000000e+000
0.000000e+000
0.000000e+000
0.000000e+000
0.000000e+000
0.000000e+000
0.000000e+000
0.000000e+000
0.000000e+000
0.000000e+000
0.000000e+000
0.000000e+000
0.000000e+000
0.000000e+000
0.000000e+000
0.000000e+000
0.000000e+000
0.000000e+000
0.000000e+000
0.000000e+000
0.000000e+000
0.000000e+000
0.000000e+000
0.000000e+000
0.000000e+000
0.000000e+000
0.000000e+000
0.000000e+000
0.000000e+000
0.000000e+000
0.000000e+000
0.000000e+000
0.000000e+000
0.000000e+000
0.000000e+000
0.000000e+000
0.000000e+000
0.000000e+000
0.000000e+000
0.000000e+000
0.000000e+000
0.000000e+000
0.000000e+000
0.000000e+000
0.000000e+000
0.000000e+000
0.000000e+000
0.000000e+000
0.000000e+000
0.000000e+000
0.000000e+000
0.000000e+000
0.000000e+000
0.000000e+000
0.000000e+000
0.000000e+000
0.000000e+000
0.000000e+000
0.000000e+000
0.000000e+000
0.000000e+000
0.000000e+000
0.000000e+000
0.000000e+000
0.000000e+000
0.000000e+000
0.000000e+000
0.000000e+000
0.000000e+000
0.000000e+000
0.000000e+000
0.000000e+000
0.000000e+000
0.000000e+000
0.000000e+000
0.000000e+000
0.000000e+000
0.000000e+000
0.000000e+000
0.000000e+000
0.000000e+000
0.000000e+000
0.000000e+000
0.000000e+000
0.000000e+000
0.000000e+000
0.000000e+000
0.000000e+000
2.005500e-011
9.430982e-012
-4.645903e-012
-1.411176e-011
-1.317120e-011
-2.627518e-012
9.474911e-012
1.352610e-011
6.537355e-012
-4.945266e-012
-1.089614e-011
-7.380682e-012
1.763022e-013
3.612947e-012
1.236730e-012
-8.861634e-013
2.907617e-012
1.004094e-011
1.196928e-011
4.272138e-012
-7.587008e-012
-1.409908e-011
-1.220701e-011
-7.625401e-012
-6.441872e-012
-7.107538e-012
-3.255614e-012
6.593789e-012
1.566438e-011
1.676346e-011
1.114126e-011
6.592899e-012
7.312793e-012
9.027989e-012
5.690942e-012
-1.661799e-012
-6.078864e-012
-4.175805e-012
-7.639483e-013
-2.230387e-012
-7.858565e-012
-1.107665e-011
-8.799909e-012
-5.778621e-012
-7.907469e-012
-1.390715e-011
-1.708547e-011
-1.473470e-011
-1.193947e-011
-1.437694e-011
-2.023405e-011
-2.271522e-011
-1.968231e-011
-1.675612e-011
-1.933916e-011
-2.479773e-011
-2.601728e-011
-2.143927e-011
-1.729984e-011
-1.871130e-011
-2.220257e-011
-2.049066e-011
-1.289522e-011
-6.579649e-012
-6.640328e-012
-8.961335e-012
-6.008727e-012
2.491555e-012
9.045669e-012
8.856250e-012
6.614543e-012
9.994910e-012
1.865464e-011
2.377519e-011
1.881665e-011
7.166520e-012
-2.966315e-012
-8.798289e-012
-1.444181e-011
-2.224027e-011
-2.643308e-011
-1.846212e-011
2.091168e-012
2.427580e-011
3.430275e-011
2.658326e-011
6.633618e-012
-1.464403e-011
-2.777664e-011
-2.756060e-011
-1.366198e-011
8.151066e-012
2.612752e-011
2.808610e-011
1.095651e-011
-1.414173e-011
-2.844588e-011
-2.041285e-011
3.758486e-012
2.432411e-011
-4.332369e-012
-3.288417e-013
3.358833e-012
3.650283e-012
8.242403e-013
-2.281645e-012
-3.149192e-012
-1.732359e-012
8.348497e-014
8.396785e-013
9.356605e-013
1.561656e-012
2.628210e-012
2.486435e-012
4.456645e-014
-3.345850e-012
-4.937459e-012
-3.627069e-012
-1.190419e-012
9.757201e-014
4.948809e-013
2.288214e-012
6.106086e-012
9.028845e-012
7.593111e-012
2.201710e-012
-3.006560e-012
-5.080691e-012
-5.606499e-012
-7.869569e-012
-1.161221e-011
-1.276616e-011
-8.880458e-012
-2.849001e-012
5.000762e-013
5.433844e-013
1.271225e-012
5.305800e-012
9.906114e-012
1.069766e-011
7.949885e-012
6.430966e-012
8.863249e-012
1.219797e-011
1.207484e-011
9.185336e-012
8.408506e-012
1.186854e-011
1.583748e-011
1.600612e-011
1.362910e-011
1.369326e-011
1.767510e-011
2.129249e-011
2.053844e-011
1.734844e-011
1.672854e-011
1.944870e-011
2.082664e-011
1.737703e-011
1.179064e-011
9.109747e-012
9.592247e-012
8.465207e-012
2.849460e-012
-4.053849e-012
-7.414876e-012
-7.454958e-012
-8.916363e-012
-1.416344e-011
-1.958197e-011
-2.010497e-011
-1.544777e-011
-9.689009e-012
-5.354129e-012
-4.808232e-013
7.442979e-012
1.635305e-011
2.041251e-011
1.592711e-011
5.211964e-012
-5.664304e-012
-1.193237e-011
-1.247789e-011
-8.552387e-012
-2.065767e-012
4.491863e-012
8.016244e-012
6.479912e-012
1.114915e-012
-3.899517e-012
-4.803937e-012
-1.567292e-012
2.275228e-012
3.137300e-012
6.929397e-013
-2.184789e-012
-2.523366e-012
-1.578790e-013
2.323354e-012
-2.522525e-011
-1.010642e-011
8.258788e-012
1.829526e-011
1.427943e-011
1.363927e-013
-1.298666e-011
-1.519183e-011
-5.877823e-012
6.189711e-012
1.132308e-011
7.678815e-012
1.494520e-012
-9.193424e-013
-8.070054e-014
-1.360983e-012
-7.093315e-012
-1.273643e-011
-1.181912e-011
-3.440420e-012
6.813619e-012
1.311272e-011
1.464384e-011
1.397128e-011
1.203931e-011
7.133215e-012
-1.339202e-012
-1.032858e-011
-1.578657e-011
-1.675193e-011
-1.533689e-011
-1.321597e-011
-9.957014e-012
-5.140002e-012
-3.314026e-013
2.437755e-012
3.291373e-012
4.058611e-012
5.443697e-012
6.229400e-012
5.674180e-012
5.174018e-012
6.416805e-012
8.845220e-012
1.047744e-011
1.092062e-011
1.193817e-011
1.464302e-011
1.765453e-011
1.910701e-011
1.945163e-011
2.074458e-011
2.350601e-011
2.594511e-011
2.667033e-011
2.668687e-011
2.767818e-011
2.930975e-011
2.967377e-011
2.807064e-011
2.582806e-011
2.408286e-011
2.212056e-011
1.876281e-011
1.441440e-011
1.046772e-011
7.093197e-012
2.973453e-012
-2.645358e-012
-8.913711e-012
-1.490235e-011
-2.091870e-011
-2.701655e-011
-3.079136e-011
-2.832417e-011
-1.788665e-011
-1.891343e-012
1.510689e-011
2.916261e-011
3.687958e-011
3.418655e-011
1.829021e-011
-7.453208e-012
-3.183317e-011
-4.158134e-011
-3.084332e-011
-5.753520e-012
1.985399e-011
3.327065e-011
2.923506e-011
1.102732e-011
-1.178239e-011
-2.713570e-011
-2.598616e-011
-8.397014e-012
1.440845e-011
2.628734e-011
1.816675e-011
-3.801315e-012
-2.216953e-011
-1.663352e-011
-9.570890e-012
1.589073e-012
1.130171e-011
1.280797e-011
4.285424e-012
-7.452945e-012
-1.190932e-011
-5.103480e-012
5.809281e-012
9.674950e-012
3.279272e-012
-5.303634e-012
-6.215120e-012
6.837787e-013
6.027443e-012
2.700062e-012
-5.314044e-012
-8.005682e-012
-1.921085e-012
5.666395e-012
6.092182e-012
-8.338979e-014
-4.643040e-012
-2.700497e-012
1.695890e-012
2.172349e-012
-9.124894e-013
-1.345126e-012
3.926913e-012
1.035548e-011
1.166661e-011
7.542656e-012
2.920362e-012
8.647732e-013
-7.715993e-013
-5.078449e-012
-1.109868e-011
-1.503877e-011
-1.526315e-011
-1.392871e-011
-1.363915e-011
-1.428718e-011
-1.402264e-011
-1.223200e-011
-1.034927e-011
-9.973652e-012
-1.110316e-011
-1.243708e-011
-1.297001e-011
-1.302748e-011
-1.377527e-011
-1.569862e-011
-1.768097e-011
-1.803451e-011
-1.660813e-011
-1.516902e-011
-1.499832e-011
-1.473299e-011
-1.192756e-011
-6.710669e-012
-2.169541e-012
-1.848015e-013
1.582203e-012
6.634523e-012
1.431836e-011
2.010088e-011
2.169801e-011
2.229626e-011
2.552303e-011
2.884566e-011
2.532390e-011
1.236034e-011
-4.180414e-012
-1.628527e-011
-2.201468e-011
-2.458057e-011
-2.437194e-011
-1.635329e-011
2.115198e-012
2.321435e-011
3.246348e-011
2.193941e-011
-1.582650e-012
-2.233129e-011
-2.829068e-011
-1.825243e-011
7.127089e-013
1.897585e-011
2.757907e-011
2.059373e-011
-4.106365e-013
-2.338369e-011
-3.135946e-011
-1.601580e-011
1.251026e-011
3.141503e-011
2.430379e-011
-3.334255e-012
-2.777415e-011
1.555154e-011
1.506029e-012
-1.105449e-011
-1.170170e-011
-2.418998e-012
6.672948e-012
8.271178e-012
4.057819e-012
4.584608e-013
1.000379e-013
-5.247531e-013
-4.808340e-012
-9.817175e-012
-8.872952e-012
-2.120844e-013
9.572314e-012
1.251804e-011
8.292745e-012
3.568242e-012
2.540615e-012
1.375785e-012
-5.627875e-012
-1.641150e-011
-2.166256e-011
-1.566512e-011
-3.378203e-012
5.752239e-012
8.998498e-012
1.175173e-011
1.794833e-011
2.329331e-011
2.070341e-011
1.018885e-011
-5.405391e-013
-5.376226e-012
-6.299579e-012
-8.907829e-012
-1.399878e-011
-1.678335e-011
-1.400929e-011
-8.702106e-012
-6.328435e-012
-8.064987e-012
-1.009974e-011
-9.283223e-012
-7.316766e-012
-8.267942e-012
-1.307955e-011
-1.829007e-011
-2.048806e-011
-2.068914e-011
-2.292251e-011
-2.872990e-011
-3.477525e-011
-3.703267e-011
-3.623792e-011
-3.700156e-011
-4.124472e-011
-4.489744e-011
-4.305177e-011
-3.690847e-011
-3.248636e-011
-3.220832e-011
-3.112190e-011
-2.369872e-011
-1.196610e-011
-3.021020e-012
1.184533e-012
7.218032e-012
2.109048e-011
3.882027e-011
4.987138e-011
4.900535e-011
4.047475e-011
2.949985e-011
1.408833e-011
-1.029617e-011
-3.923831e-011
-5.764841e-011
-5.231875e-011
-2.488806e-011
9.155448e-012
3.307352e-011
3.910389e-011
2.874650e-011
8.313509e-012
-1.322657e-011
-2.536585e-011
-2.107057e-011
-3.626708e-012
1.341484e-011
1.669269e-011
5.121279e-012
-9.049234e-012
-1.218142e-011
-2.422185e-012
9.199377e-012
1.052561e-011
5.968387e-013
-9.867078e-012
3.578585e-011
1.161224e-011
-1.477531e-011
-2.499228e-011
-1.483109e-011
4.561017e-012
1.692751e-011
1.441136e-011
2.607710e-012
-6.871607e-012
-8.072052e-012
-4.527122e-012
-2.545364e-012
-3.157243e-012
-2.276546e-012
2.479131e-012
8.008709e-012
9.660038e-012
6.834543e-012
2.613916e-012
-1.117828e-012
-5.297695e-012
-9.893669e-012
-1.141592e-011
-6.810480e-012
1.276422e-012
6.185491e-012
4.760955e-012
6.943314e-013
-1.085488e-012
-1.184374e-012
-4.046602e-012
-1.024319e-011
-1.402878e-011
-1.017735e-011
-8.607116e-013
7.009903e-012
1.039802e-011
1.302959e-011
1.899260e-011
2.626934e-011
2.915548e-011
2.604300e-011
2.178152e-011
2.141697e-011
2.384205e-011
2.384741e-011
1.963415e-011
1.553273e-011
1.619147e-011
2.010270e-011
2.139582e-011
1.767408e-011
1.321898e-011
1.291697e-011
1.511189e-011
1.351854e-011
5.949477e-012
-2.306267e-012
-5.603018e-012
-5.833248e-012
-9.775999e-012
-1.932065e-011
-2.845666e-011
-3.159789e-011
-3.147671e-011
-3.505346e-011
-4.287407e-011
-4.686663e-011
-3.983515e-011
-2.360989e-011
-5.201602e-012
1.244551e-011
3.133209e-011
4.997814e-011
5.874631e-011
4.725965e-011
1.589167e-011
-2.212923e-011
-4.974655e-011
-5.610769e-011
-3.982853e-011
-7.593528e-012
2.740441e-011
4.859513e-011
4.407941e-011
1.591639e-011
-1.881127e-011
-3.893250e-011
-3.394874e-011
-1.025323e-011
1.530214e-011
2.761276e-011
2.178150e-011
3.896235e-012
-1.392204e-011
-2.067076e-011
-1.276723e-011
3.628668e-012
1.652490e-011
1.561002e-011
8.816745e-012
-1.838954e-012
-1.041911e-011
-1.021810e-011
-1.014928e-012
8.353935e-012
7.975765e-012
-2.013498e-012
-1.053721e-011
-7.519983e-012
4.479649e-012
1.286832e-011
9.190218e-012
-1.838121e-012
-8.828860e-012
-7.068045e-012
-2.281030e-012
-1.465658e-012
-3.776675e-012
-2.936843e-012
3.456020e-012
1.073817e-011
1.341023e-011
1.117978e-011
7.003363e-012
1.638820e-012
-6.505395e-012
-1.662553e-011
-2.409810e-011
-2.520944e-011
-2.109485e-011
-1.502526e-011
-7.395079e-012
3.728959e-012
1.742729e-011
2.856722e-011
3.325617e-011
3.355207e-011
3.433294e-011
3.651579e-011
3.635794e-011
3.188934e-011
2.702149e-011
2.701771e-011
3.152767e-011
3.522584e-011
3.539912e-011
3.577093e-011
4.100694e-011
4.966432e-011
5.575874e-011
5.690229e-011
5.742097e-011
6.186129e-011
6.809826e-011
6.997906e-011
6.580754e-011
6.049736e-011
5.832662e-011
5.678476e-011
5.035742e-011
3.859309e-011
2.668024e-011
1.781679e-011
8.554447e-012
-6.279518e-012
-2.635957e-011
-4.629547e-011
-6.195846e-011
-7.277983e-011
-7.727615e-011
-6.996069e-011
-4.587227e-011
-7.604546e-012
3.400890e-011
6.581014e-011
7.777659e-011
6.489367e-011
2.910021e-011
-1.738793e-011
-5.352909e-011
-6.047139e-011
-3.540961e-011
4.957252e-012
3.587737e-011
4.107654e-011
2.122780e-011
-9.246003e-012
-3.146835e-011
-3.181140e-011
-9.644351e-012
2.018821e-011
3.519501e-011
2.214097e-011
-9.700801e-012
-3.360491e-011
-2.810672e-011
2.466652e-012
3.057500e-011
-3.097648e-011
-4.980797e-012
1.823784e-011
2.036678e-011
6.037078e-012
-7.410596e-012
-9.916229e-012
-6.221944e-012
-5.134604e-012
-6.425649e-012
-2.347456e-012
9.291642e-012
1.899819e-011
1.576704e-011
9.508337e-013
-1.247473e-011
-1.481870e-011
-9.694643e-012
-6.724638e-012
-7.674182e-012
-5.047028e-012
5.580193e-012
1.729711e-011
1.947842e-011
1.080842e-011
1.046443e-013
-5.261189e-012
-6.861579e-012
-9.368080e-012
-1.155316e-011
-7.687014e-012
3.429350e-012
1.562913e-011
2.270393e-011
2.491159e-011
2.585352e-011
2.574561e-011
2.170086e-011
1.385961e-011
7.047059e-012
4.972158e-012
5.863264e-012
6.202815e-012
6.611152e-012
1.066717e-011
1.859044e-011
2.582513e-011
2.904633e-011
3.055389e-011
3.432515e-011
3.972039e-011
4.243292e-011
4.120758e-011
4.004251e-011
4.250749e-011
4.679599e-011
4.887805e-011
4.871559e-011
5.005303e-011
5.441628e-011
5.876580e-011
6.028819e-011
6.062645e-011
6.297236e-011
6.674913e-011
6.813966e-011
6.510418e-011
5.837715e-011
4.691638e-011
2.612129e-011
-6.386357e-012
-4.469009e-011
-7.708344e-011
-9.402415e-011
-9.123689e-011
-6.656219e-011
-1.998812e-011
3.904574e-011
8.764089e-011
1.002080e-010
6.801617e-011
8.280710e-012
-4.704022e-011
-7.197268e-011
-5.934854e-011
-2.028533e-011
2.323648e-011
4.766422e-011
3.950016e-011
5.836912e-012
-2.717341e-011
-3.335250e-011
-9.629164e-012
1.995679e-011
2.668717e-011
5.388285e-012
-2.063879e-011
-2.395825e-011
-1.562852e-012
2.236809e-011
-5.483139e-011
-1.375024e-011
2.635976e-011
3.508797e-011
1.355363e-011
-1.284125e-011
-2.104544e-011
-1.012693e-011
3.508070e-012
6.796893e-012
2.342252e-012
4.598699e-013
3.986500e-012
5.888650e-012
9.943416e-013
-5.791124e-012
-6.352307e-012
-9.764432e-013
2.277166e-012
-5.726835e-013
-3.903110e-012
-1.575982e-012
2.905769e-012
8.665990e-013
-8.187672e-012
-1.387413e-011
-7.709509e-012
6.181142e-012
1.722375e-011
2.219675e-011
2.709476e-011
3.552616e-011
4.156196e-011
3.754987e-011
2.508102e-011
1.327120e-011
7.602510e-012
5.570236e-012
3.908392e-012
5.055527e-012
1.326438e-011
2.739010e-011
4.174806e-011
5.318143e-011
6.331035e-011
7.340899e-011
8.087302e-011
8.273150e-011
7.995344e-011
7.551019e-011
6.972957e-011
6.065050e-011
4.843358e-011
3.618030e-011
2.579160e-011
1.596496e-011
5.769785e-012
-2.400016e-012
-5.905011e-012
-6.047648e-012
-5.966612e-012
-5.090585e-012
6.405892e-013
1.250369e-011
2.676516e-011
4.080389e-011
5.792422e-011
8.173301e-011
1.069401e-010
1.205318e-010
1.131463e-010
8.566601e-011
4.345075e-011
-1.039285e-011
-7.015008e-011
-1.181411e-010
-1.290169e-010
-8.977283e-011
-1.522488e-011
5.889913e-011
9.885978e-011
9.084889e-011
4.348730e-011
-1.898937e-011
-6.579235e-011
-7.226666e-011
-3.560134e-011
1.883934e-011
5.292020e-011
4.509984e-011
7.616353e-012
-2.601731e-011
-3.142958e-011
-1.218274e-011
9.154501e-012
1.505237e-011
6.891585e-012
-2.255488e-012
-3.996882e-012
-1.446243e-012
-2.145766e-011
-5.028712e-012
1.153188e-011
1.422141e-011
1.438559e-012
-1.370362e-011
-1.480643e-011
1.027846e-012
1.882553e-011
2.062320e-011
4.356573e-012
-1.457287e-011
-2.049524e-011
-1.273275e-011
-2.057373e-012
4.104804e-012
7.691806e-012
1.204527e-011
1.439365e-011
1.008896e-011
7.463928e-013
-7.158726e-012
-1.098395e-011
-1.386793e-011
-1.678183e-011
-1.400043e-011
-7.715422e-013
1.754430e-011
2.962009e-011
3.120942e-011
2.887614e-011
2.934426e-011
3.040037e-011
2.656698e-011
2.042822e-011
2.214251e-011
3.752933e-011
6.184330e-011
8.734332e-011
1.126823e-010
1.410800e-010
1.719510e-010
1.993799e-010
2.189292e-010
2.318499e-010
2.412215e-010
2.471200e-010
2.477428e-010
2.430386e-010
2.345224e-010
2.226757e-010
2.070863e-010
1.885391e-010
1.683865e-010
1.460600e-010
1.200469e-010
9.181010e-011
6.569969e-011
4.348951e-011
2.192047e-011
-1.696350e-012
-2.385039e-011
-3.875357e-011
-4.671865e-011
-5.345312e-011
-5.966839e-011
-5.624530e-011
-3.364089e-011
6.518049e-012
5.326467e-011
9.738271e-011
1.342555e-010
1.549662e-010
1.425290e-010
8.520763e-011
-5.783388e-012
-9.608360e-011
-1.480143e-010
-1.417237e-010
-8.230872e-011
4.771272e-012
8.217192e-011
1.137422e-010
8.394626e-011
1.220145e-011
-5.543635e-011
-7.741820e-011
-4.640382e-011
8.256674e-012
4.598136e-011
4.487165e-011
1.303826e-011
-2.238808e-011
-3.613606e-011
-2.104405e-011
8.743448e-012
2.884995e-011
2.340645e-011
-2.000186e-012
-2.475025e-011
4.684836e-011
1.296664e-011
-1.881082e-011
-2.662180e-011
-1.565431e-011
-2.666455e-012
5.322858e-012
1.249483e-011
1.968219e-011
1.828217e-011
2.382656e-012
-1.882689e-011
-2.784836e-011
-1.790702e-011
8.466350e-014
1.108249e-011
1.176303e-011
9.447688e-012
9.070616e-012
7.627314e-012
1.751338e-012
-5.256656e-012
-7.499679e-012
-4.175212e-012
9.836846e-013
6.109121e-012
1.226639e-011
1.827792e-011
1.966494e-011
1.528001e-011
1.148076e-011
1.618415e-011
3.079080e-011
5.175641e-011
7.879542e-011
1.164043e-010
1.659374e-010
2.204530e-010
2.706217e-010
3.134625e-010
3.519676e-010
3.876275e-010
4.174249e-010
4.386140e-010
4.529179e-010
4.641815e-010
4.739658e-010
4.812377e-010
4.848476e-010
4.843739e-010
4.794973e-010
4.703673e-010
4.578488e-010
4.416423e-010
4.190362e-010
3.879521e-010
3.508392e-010
3.126010e-010
2.742111e-010
2.317478e-010
1.834715e-010
1.344402e-010
9.043891e-011
4.941583e-011
3.978227e-012
-4.717511e-011
-9.471505e-011
-1.270930e-010
-1.391053e-010
-1.289239e-010
-9.128761e-011
-2.180748e-011
6.959548e-011
1.540569e-010
1.970165e-010
1.777088e-010
9.919279e-011
-1.296458e-011
-1.173223e-010
-1.691064e-010
-1.419414e-010
-4.882362e-011
5.861348e-011
1.201588e-010
1.061469e-010
3.494647e-011
-4.299488e-011
-7.968093e-011
-5.844606e-011
-1.534228e-012
4.643279e-011
5.032261e-011
1.154941e-011
-3.250349e-011
-4.108868e-011
-8.228796e-012
3.117016e-011
3.635788e-011
2.779328e-012
-3.325457e-011
8.589526e-011
1.764029e-011
-4.377517e-011
-5.008845e-011
-1.268388e-011
2.249920e-011
2.608861e-011
7.569904e-012
-6.983454e-012
-7.266157e-012
-3.233072e-012
-4.349107e-012
-6.074064e-012
-6.274550e-014
1.032067e-011
1.286696e-011
3.168703e-012
-9.162013e-012
-1.294377e-011
-8.342204e-012
-3.156882e-012
-2.286089e-013
5.070736e-012
1.528185e-011
2.506904e-011
2.782036e-011
2.425607e-011
2.100000e-011
2.300837e-011
3.150371e-011
4.839178e-011
7.792244e-011
1.222783e-010
1.783880e-010
2.409906e-010
3.067706e-010
3.734454e-010
4.367935e-010
4.919604e-010
5.378010e-010
5.775346e-010
6.145002e-010
6.489931e-010
6.798327e-010
7.071778e-010
7.323826e-010
7.559364e-010
7.766750e-010
7.925554e-010
8.016054e-010
8.028930e-010
7.973106e-010
7.864969e-010
7.701150e-010
7.453832e-010
7.107876e-010
6.691479e-010
6.247183e-010
5.778323e-010
5.254569e-010
4.676058e-010
4.097822e-010
3.566494e-010
3.054981e-010
2.489737e-010
1.829189e-010
1.082600e-010
2.652042e-011
-6.059934e-011
-1.440972e-010
-2.035887e-010
-2.154429e-010
-1.671009e-010
-6.528655e-011
6.433079e-011
1.810621e-010
2.382883e-010
2.039406e-010
8.555083e-011
-6.292505e-011
-1.672498e-010
-1.772744e-010
-9.668908e-011
2.183026e-011
1.092639e-010
1.194912e-010
5.523695e-011
-3.354375e-011
-8.288096e-011
-6.210346e-011
1.850568e-012
4.903008e-011
4.171461e-011
-2.367801e-012
-3.276792e-011
-2.072965e-011
1.323628e-011
2.696847e-011
6.006180e-012
-2.188113e-011
5.134580e-011
-1.270342e-012
-4.250976e-011
-3.220534e-011
1.383900e-011
4.560369e-011
3.143491e-011
-1.244977e-011
-4.316974e-011
-3.626552e-011
-5.322337e-012
1.995946e-011
2.587430e-011
2.034522e-011
1.368782e-011
5.258553e-012
-8.518500e-012
-2.204503e-011
-2.479407e-011
-1.517047e-011
-2.519361e-012
5.597217e-012
1.171767e-011
2.108379e-011
3.155054e-011
3.709169e-011
3.949534e-011
5.008573e-011
7.832373e-011
1.232167e-010
1.783660e-010
2.415171e-010
3.147613e-010
3.969535e-010
4.808650e-010
5.591675e-010
6.304157e-010
6.975917e-010
7.629061e-010
8.262365e-010
8.875581e-010
9.482019e-010
1.008876e-009
1.067644e-009
1.120791e-009
1.165403e-009
1.200518e-009
1.225877e-009
1.240227e-009
1.241663e-009
1.229834e-009
1.207016e-009
1.176066e-009
1.137572e-009
1.090294e-009
1.034505e-009
9.732235e-010
9.091447e-010
8.419799e-010
7.708354e-010
6.984157e-010
6.304705e-010
5.710387e-010
5.204064e-010
4.775801e-010
4.408482e-010
4.032720e-010
3.504185e-010
2.674661e-010
1.503862e-010
1.027474e-011
-1.300285e-010
-2.392347e-010
-2.809694e-010
-2.275391e-010
-8.438720e-011
9.600940e-011
2.327333e-010
2.610254e-010
1.706013e-010
1.124308e-011
-1.342503e-010
-1.924344e-010
-1.382411e-010
-1.222100e-011
1.007867e-010
1.281276e-010
6.309829e-011
-3.181280e-011
-8.002125e-011
-5.529730e-011
4.217801e-012
4.101166e-011
3.239354e-011
1.311530e-012
-1.761261e-011
-1.352793e-011
-9.272896e-013
4.710421e-012
3.535093e-012
-3.700105e-011
-2.569115e-011
-6.493238e-012
1.705192e-011
3.621304e-011
3.657779e-011
1.032258e-011
-2.879954e-011
-5.024925e-011
-3.434133e-011
5.893760e-012
3.632423e-011
3.575474e-011
1.360750e-011
-6.578250e-012
-1.354411e-011
-1.283138e-011
-1.103583e-011
-6.422301e-012
3.229637e-012
1.259194e-011
1.526641e-011
1.419016e-011
1.876661e-011
3.312554e-011
5.418464e-011
8.221891e-011
1.261845e-010
1.938102e-010
2.805340e-010
3.740867e-010
4.685338e-010
5.679481e-010
6.757311e-010
7.863705e-010
8.915419e-010
9.907865e-010
1.091039e-009
1.196151e-009
1.301211e-009
1.398219e-009
1.483733e-009
1.558314e-009
1.620715e-009
1.666500e-009
1.692907e-009
1.702373e-009
1.699762e-009
1.687608e-009
1.665856e-009
1.635274e-009
1.598502e-009
1.557102e-009
1.509537e-009
1.453504e-009
1.388910e-009
1.316661e-009
1.235507e-009
1.142913e-009
1.039533e-009
9.303983e-010
8.208141e-010
7.141258e-010
6.161664e-010
5.390873e-010
4.951257e-010
4.846743e-010
4.926305e-010
4.963748e-010
4.735217e-010
4.023489e-010
2.654832e-010
6.716753e-011
-1.489991e-010
-3.081436e-010
-3.430580e-010
-2.366421e-010
-3.622485e-011
1.669606e-010
2.786365e-010
2.461906e-010
9.097097e-011
-9.452766e-011
-1.982469e-010
-1.641418e-010
-3.302887e-011
9.116461e-011
1.243055e-010
6.260642e-011
-2.773450e-011
-7.373407e-011
-5.189722e-011
4.938730e-012
4.448732e-011
3.858092e-011
4.087959e-013
-3.233521e-011
-3.128975e-011
-6.003597e-013
2.892166e-011
-1.145989e-010
-2.682825e-011
5.266592e-011
6.461181e-011
2.379509e-011
-1.827597e-011
-3.171085e-011
-2.303389e-011
-7.994369e-012
8.848090e-012
2.518255e-011
2.914748e-011
1.063337e-011
-2.014048e-011
-3.795615e-011
-2.891764e-011
-3.840438e-012
1.723166e-011
2.640063e-011
2.879571e-011
2.910053e-011
2.729881e-011
2.707197e-011
3.886863e-011
7.049277e-011
1.203739e-010
1.847066e-010
2.665127e-010
3.711735e-010
4.953394e-010
6.278745e-010
7.628962e-010
9.052329e-010
1.059426e-009
1.218403e-009
1.368411e-009
1.502192e-009
1.620527e-009
1.720661e-009
1.790007e-009
1.815294e-009
1.794624e-009
1.736751e-009
1.651119e-009
1.543973e-009
1.424185e-009
1.307185e-009
1.209394e-009
1.140566e-009
1.103749e-009
1.100133e-009
1.129517e-009
1.186101e-009
1.258000e-009
1.332863e-009
1.401562e-009
1.454975e-009
1.480890e-009
1.468623e-009
1.415839e-009
1.326732e-009
1.203838e-009
1.047275e-009
8.650824e-010
6.801694e-010
5.220154e-010
4.123922e-010
3.615396e-010
3.725283e-010
4.369881e-010
5.208026e-010
5.624681e-010
5.007214e-010
3.152547e-010
4.733844e-011
-2.142184e-010
-3.702314e-010
-3.548965e-010
-1.740873e-010
8.148012e-011
2.726381e-010
2.933035e-010
1.441914e-010
-6.504928e-011
-1.949278e-010
-1.751700e-010
-4.609099e-011
8.388124e-011
1.240178e-010
6.370095e-011
-3.067938e-011
-7.665507e-011
-4.460195e-011
2.218898e-011
5.375454e-011
2.293232e-011
-3.040330e-011
-4.533180e-011
-6.956431e-012
3.881450e-011
-1.291770e-010
1.447814e-012
1.019338e-010
7.913536e-011
-2.174894e-011
-8.869875e-011
-6.526762e-011
8.489922e-012
5.936004e-011
5.752600e-011
2.518340e-011
-7.282863e-012
-3.007083e-011
-4.301388e-011
-3.963507e-011
-1.540330e-011
1.748286e-011
3.778155e-011
3.776119e-011
2.952580e-011
2.862426e-011
4.020805e-011
6.431083e-011
1.059350e-010
1.719507e-010
2.619167e-010
3.701308e-010
4.961009e-010
6.455759e-010
8.196983e-010
1.009521e-009
1.204053e-009
1.397276e-009
1.581026e-009
1.734389e-009
1.827472e-009
1.835926e-009
1.746569e-009
1.549399e-009
1.233134e-009
7.954349e-010
2.548750e-010
-3.524472e-010
-9.869354e-010
-1.611849e-009
-2.188188e-009
-2.672599e-009
-3.026595e-009
-3.226492e-009
-3.262508e-009
-3.132730e-009
-2.844148e-009
-2.418766e-009
-1.892421e-009
-1.304826e-009
-6.933758e-010
-9.642159e-011
4.450295e-010
8.963755e-010
1.239558e-009
1.469810e-009
1.583753e-009
1.577230e-009
1.456552e-009
1.245975e-009
9.804029e-010
6.958190e-010
4.323229e-010
2.402848e-010
1.678108e-010
2.299443e-010
3.868900e-010
5.528571e-010
6.295594e-010
5.463007e-010
2.961072e-010
-4.353722e-011
-3.293404e-010
-4.235456e-010
-2.843217e-010
-5.308120e-012
2.382783e-010
3.042629e-010
1.748880e-010
-4.003057e-011
-1.865728e-010
-1.759119e-010
-4.229819e-011
9.272143e-011
1.235326e-010
4.624304e-011
-4.929457e-011
-7.304944e-011
-2.030877e-011
3.681093e-011
3.642014e-011
-7.840945e-012
-3.383044e-011
-1.088504e-011
2.603495e-011
-7.175256e-011
3.403396e-011
9.904793e-011
4.577065e-011
-6.521853e-011
-1.136005e-010
-5.188097e-011
5.255633e-011
9.934076e-011
5.815508e-011
-1.708392e-011
-5.912799e-011
-5.052828e-011
-1.811289e-011
1.067466e-011
2.856781e-011
3.601311e-011
3.064584e-011
1.615364e-011
9.302008e-012
2.767105e-011
7.444030e-011
1.424244e-010
2.296280e-010
3.426051e-010
4.856834e-010
6.558267e-010
8.502417e-010
1.070520e-009
1.312481e-009
1.554810e-009
1.761793e-009
1.893147e-009
1.904860e-009
1.743390e-009
1.349633e-009
6.748969e-010
-3.074251e-010
-1.603082e-009
-3.199182e-009
-5.056740e-009
-7.103437e-009
-9.241342e-009
-1.136433e-008
-1.336734e-008
-1.514466e-008
-1.659282e-008
-1.762477e-008
-1.818263e-008
-1.823696e-008
-1.778114e-008
-1.683494e-008
-1.545269e-008
-1.372017e-008
-1.173959e-008
-9.618440e-009
-7.468840e-009
-5.404099e-009
-3.522671e-009
-1.891810e-009
-5.478933e-010
4.914382e-010
1.222100e-009
1.658448e-009
1.832707e-009
1.783144e-009
1.547396e-009
1.173985e-009
7.383646e-010
3.396203e-010
7.449332e-011
5.293379e-012
1.340432e-010
3.869526e-010
6.233512e-010
6.893468e-010
5.058406e-010
1.333290e-010
-2.475831e-010
-4.414624e-010
-3.609621e-010
-8.299695e-011
2.008448e-010
3.101028e-010
1.963089e-010
-2.805561e-011
-1.821079e-010
-1.629864e-010
-2.201601e-011
9.791319e-011
1.009395e-010
1.585885e-011
-5.590781e-011
-5.272784e-011
-2.335358e-012
3.033408e-011
2.050409e-011
-3.347641e-012
-9.567284e-012
-2.033343e-012
3.855529e-011
4.229090e-011
2.046595e-011
-3.063730e-011
-7.054017e-011
-5.255060e-011
1.944444e-011
8.227827e-011
7.264755e-011
-5.356722e-012
-8.085081e-011
-8.720655e-011
-2.541730e-011
4.650325e-011
7.660123e-011
6.025980e-011
2.588135e-011
7.665731e-014
-4.290897e-012
2.055503e-011
8.011862e-011
1.714289e-010
2.859066e-010
4.229670e-010
5.942050e-010
8.100551e-010
1.066714e-009
1.347858e-009
1.629827e-009
1.873916e-009
2.012664e-009
1.949311e-009
1.571572e-009
7.631676e-010
-5.927476e-010
-2.605555e-009
-5.357075e-009
-8.881258e-009
-1.315634e-008
-1.810485e-008
-2.359175e-008
-2.942512e-008
-3.536964e-008
-4.116878e-008
-4.656102e-008
-5.128818e-008
-5.510908e-008
-5.782274e-008
-5.928726e-008
-5.942335e-008
-5.821257e-008
-5.570388e-008
-5.202221e-008
-4.736193e-008
-4.196499e-008
-3.610088e-008
-3.005502e-008
-2.411283e-008
-1.853068e-008
-1.350759e-008
-9.174792e-009
-5.599950e-009
-2.791664e-009
-7.042606e-010
7.447603e-010
1.646021e-009
2.078685e-009
2.113383e-009
1.828237e-009
1.322771e-009
7.258805e-010
1.937971e-010
-1.188872e-010
-1.228262e-010
1.413908e-010
4.976560e-010
7.161404e-010
6.425256e-010
2.935501e-010
-1.452738e-010
-4.276342e-010
-4.035347e-010
-1.246015e-010
1.891171e-010
3.133499e-010
1.903728e-010
-4.061267e-011
-1.801280e-010
-1.420241e-010
-4.361180e-012
9.208002e-011
7.954782e-011
2.798216e-012
-5.139281e-011
-4.237155e-011
3.079429e-012
3.480930e-011
2.872585e-011
-1.940557e-012
-2.770527e-011
1.735703e-010
2.300685e-011
-1.115092e-010
-1.220321e-010
-2.836913e-011
7.335358e-011
1.074225e-010
6.392942e-011
-1.894582e-011
-8.849063e-011
-1.015776e-010
-4.713595e-011
3.954084e-011
9.690255e-011
8.775583e-011
3.152724e-011
-1.741147e-011
-1.885945e-011
3.061231e-011
1.150296e-010
2.233453e-010
3.547930e-010
5.142553e-010
7.123278e-010
9.631529e-010
1.269288e-009
1.603554e-009
1.904204e-009
2.078792e-009
1.999407e-009
1.489755e-009
3.237804e-010
-1.755154e-009
-5.008009e-009
-9.679071e-009
-1.597371e-008
-2.402562e-008