# vtk DataFile Version 3.0
vtk output
ASCII
DATASET STRUCTURED_POINTS
DIMENSIONS 100 100 1
SPACING 1 1 1
ORIGIN 0 0 0
POINT_DATA 10000
SCALARS SFBox_profile double
LOOKUP_TABLE default 
0.000000e+000
0.000000e+000
0.000000e+000
0.000000e+000
0.000000e+000
0.000000e+000
0.000000e+000
0.000000e+000
0.000000e+000
0.000000e+000
0.000000e+000
0.000000e+000
0.000000e+000
0.000000e+000
0.000000e+000
0.000000e+000
0.000000e+000
0.000000e+000
0.000000e+000
0.000000e+000
0.000000e+000
0.000000e+000
0.000000e+000
0.000000e+000
0.000000e+000
0.000000e+000
0.000000e+000
0.000000e+000
0.000000e+000
0.000000e+000
0.000000e+000
0.000000e+000
0.000000e+000
0.000000e+000
0.000000e+000
0.000000e+000
0.000000e+000
0.000000e+000
0.000000e+000
0.000000e+000
0.000000e+000
0.000000e+000
0.000000e+000
0.000000e+000
0.000000e+000
0.000000e+000
0.000000e+000
0.000000e+000
0.000000e+000
0.000000e+000
0.000000e+000
0.000000e+000
0.000000e+000
0.000000e+000
0.000000e+000
0.000000e+000
0.000000e+000
0.000000e+000
0.000000e+000
0.000000e+000
0.000000e+000
0.000000e+000
0.000000e+000
0.000000e+000
0.000000e+000
0.000000e+000
0.000000e+000
0.000000e+000
0.000000e+000
0.000000e+000
0.000000e+000
0.000000e+000
0.000000e+000
0.000000e+000
0.000000e+000
0.000000e+000
0.000000e+000
0.000000e+000
0.000000e+000
0.000000e+000
0.000000e+000
0.000000e+000
0.000000e+000
0.000000e+000
0.000000e+000
0.000000e+000
0.000000e+000
0.000000e+000
0.000000e+000
0.000000e+000
0.000000e+000
0.000000e+000
0.000000e+000
0.000000e+000
0.000000e+000
0.000000e+000
0.000000e+000
0.000000e+000
0.000000e+000
0.000000e+000
9.904845e-009
7.145234e-009
2.748009e-009
-1.559640e-009
-4.215206e-009
-4.465314e-009
-2.596656e-009
3.050603e-010
2.896974e-009
4.141304e-009
3.652731e-009
1.738582e-009
-8.148049e-010
-3.076401e-009
-4.290441e-009
-4.091407e-009
-2.575915e-009
-2.346393e-010
2.222330e-009
4.089797e-009
4.872016e-009
4.405680e-009
2.869966e-009
6.945748e-010
-1.588910e-009
-3.495454e-009
-4.690848e-009
-5.034020e-009
-4.564016e-009
-3.451828e-009
-1.938979e-009
-2.796531e-010
1.303718e-009
2.647324e-009
3.655490e-009
4.296130e-009
4.587207e-009
4.579605e-009
4.340770e-009
3.941700e-009
3.448141e-009
2.915691e-009
2.387981e-009
1.896963e-009
1.464473e-009
1.104339e-009
8.245754e-010
6.293423e-010
5.205240e-010
4.988514e-010
5.644985e-010
7.171220e-010
9.553553e-010
1.275817e-009
1.671687e-009
2.130913e-009
2.634134e-009
3.152597e-009
3.646616e-009
4.065323e-009
4.348552e-009
4.431498e-009
4.252506e-009
3.763889e-009
2.945083e-009
1.816422e-009
4.505585e-010
-1.022659e-009
-2.422342e-009
-3.537140e-009
-4.160727e-009
-4.138330e-009
-3.415295e-009
-2.074219e-009
-3.453359e-010
1.421909e-009
2.828870e-009
3.527999e-009
3.328034e-009
2.270381e-009
6.450968e-010
-1.071261e-009
-2.350370e-009
-2.786244e-009
-2.251390e-009
-9.686735e-010
5.496449e-010
1.695240e-009
2.022659e-009
1.456582e-009
3.335174e-010
-7.636122e-010
-1.306494e-009
-1.097936e-009
-3.630372e-010
4.043243e-010
7.500775e-010
5.329552e-010
-1.007743e-011
-4.449144e-010
3.370153e-009
2.267082e-009
5.861362e-010
-9.012819e-010
-1.576178e-009
-1.268249e-009
-2.969240e-010
7.428742e-010
1.309970e-009
1.174452e-009
4.808389e-010
-3.830788e-010
-1.009885e-009
-1.160095e-009
-8.326979e-010
-2.159014e-010
4.270868e-010
8.703191e-010
9.928627e-010
7.936796e-010
3.675330e-010
-1.387554e-010
-5.742834e-010
-8.253585e-010
-8.416451e-010
-6.417362e-010
-2.983491e-010
8.986803e-011
4.288232e-010
6.516577e-010
7.285787e-010
6.646467e-010
4.899734e-010
2.473941e-010
-1.867941e-011
-2.703426e-010
-4.807149e-010
-6.351939e-010
-7.302141e-010
-7.705204e-010
-7.659792e-010
-7.287064e-010
-6.709236e-010
-6.036290e-010
-5.359558e-010
-4.750271e-010
-4.261030e-010
-3.928570e-010
-3.776398e-010
-3.816632e-010
-4.050817e-010
-4.469720e-010
-5.051953e-010
-5.761374e-010
-6.543597e-010
-7.322866e-010
-8.001216e-010
-8.461788e-010
-8.577355e-010
-8.224429e-010
-7.302985e-010
-5.761384e-010
-3.624621e-010
-1.020447e-010
1.805899e-010
4.499633e-010
6.635848e-010
7.792209e-010
7.646751e-010
6.082001e-010
3.267733e-010
-3.095930e-011
-3.898336e-010
-6.625452e-010
-7.716700e-010
-6.745035e-010
-3.832453e-010
2.796428e-011
4.359823e-010
7.032550e-010
7.270788e-010
4.866361e-010
6.496709e-011
-3.724126e-010
-6.427136e-010
-6.302655e-010
-3.476612e-010
6.422561e-011
4.050016e-010
5.189645e-010
3.760477e-010
8.099266e-011
-1.948902e-010
-3.162031e-010
-2.555973e-010
-9.255180e-011
5.406930e-011
1.088525e-010
8.045473e-011
3.624644e-011
-5.603472e-009
-4.296618e-009
-2.097278e-009
3.006834e-010
2.149993e-009
2.895186e-009
2.359124e-009
8.089947e-010
-1.126707e-009
-2.673399e-009
-3.192218e-009
-2.427577e-009
-6.189996e-010
1.578766e-009
3.344057e-009
4.005150e-009
3.292949e-009
1.427508e-009
-9.856215e-010
-3.190178e-009
-4.539655e-009
-4.685071e-009
-3.638693e-009
-1.718785e-009
5.804610e-010
2.738355e-009
4.331745e-009
5.109301e-009
5.011300e-009
4.144093e-009
2.726046e-009
1.023674e-009
-7.058786e-010
-2.255543e-009
-3.488575e-009
-4.340455e-009
-4.807975e-009
-4.931908e-009
-4.778606e-009
-4.424095e-009
-3.942385e-009
-3.398265e-009
-2.843996e-009
-2.318857e-009
-1.850483e-009
-1.457084e-009
-1.149867e-009
-9.352742e-010
-8.167623e-010
-7.960361e-010
-8.736961e-010
-1.049282e-009
-1.320690e-009
-1.682960e-009
-2.126480e-009
-2.634768e-009
-3.182140e-009
-3.731695e-009
-4.234228e-009
-4.628812e-009
-4.845939e-009
-4.814054e-009
-4.469925e-009
-3.772439e-009
-2.718242e-009
-1.356199e-009
2.034599e-010
1.789991e-009
3.187076e-009
4.163798e-009
4.519834e-009
4.137967e-009
3.031752e-009
1.372506e-009
-5.199936e-010
-2.232460e-009
-3.355104e-009
-3.599767e-009
-2.902669e-009
-1.470118e-009
2.623152e-010
1.757374e-009
2.554109e-009
2.432630e-009
1.498835e-009
1.484562e-010
-1.083679e-009
-1.734661e-009
-1.600354e-009
-8.167167e-010
2.066203e-010
9.790156e-010
1.163162e-009
7.365750e-010
-7.682016e-012
-6.290212e-010
-7.888388e-010
-4.402951e-010
1.551125e-010
5.966468e-010
-1.134904e-008
-8.235586e-009
-3.258995e-009
1.651145e-009
4.736632e-009
5.125146e-009
3.095093e-009
-1.725060e-010
-3.174231e-009
-4.702621e-009
-4.253685e-009
-2.114269e-009
8.375928e-010
3.499977e-009
4.940163e-009
4.691372e-009
2.872939e-009
1.100882e-010
-2.706897e-009
-4.730856e-009
-5.420340e-009
-4.669957e-009
-2.782041e-009
-3.169358e-010
2.103789e-009
3.967863e-009
4.972385e-009
5.045477e-009
4.307685e-009
3.001391e-009
1.414274e-009
-1.850332e-010
-1.589527e-009
-2.672407e-009
-3.384993e-009
-3.740787e-009
-3.793553e-009
-3.616018e-009
-3.283271e-009
-2.862196e-009
-2.406409e-009
-1.955199e-009
-1.534903e-009
-1.161430e-009
-8.430490e-010
-5.829567e-010
-3.813819e-010
-2.371988e-010
-1.490896e-010
-1.163351e-010
-1.392837e-010
-2.195012e-010
-3.595730e-010
-5.624908e-010
-8.305588e-010
-1.163761e-009
-1.557559e-009
-2.000189e-009
-2.469732e-009
-2.931499e-009
-3.336626e-009
-3.623014e-009
-3.719793e-009
-3.556230e-009
-3.075293e-009
-2.250881e-009
-1.106063e-009
2.721625e-010
1.727450e-009
3.044083e-009
3.976584e-009
4.299013e-009
3.867314e-009
2.680242e-009
9.178609e-010
-1.064379e-009
-2.799746e-009
-3.828024e-009
-3.839105e-009
-2.795459e-009
-9.824977e-010
1.047571e-009
2.638077e-009
3.253643e-009
2.691412e-009
1.188106e-009
-6.425075e-010
-2.044700e-009
-2.447818e-009
-1.738560e-009
-3.296072e-010
1.039052e-009
1.685474e-009
1.353854e-009
3.469476e-010
-6.699700e-010
-1.084525e-009
-7.142968e-010
9.824633e-011
7.361852e-010
-1.010170e-008
-6.894684e-009
-1.981335e-009
2.429717e-009
4.551202e-009
3.853982e-009
1.187055e-009
-1.809177e-009
-3.602863e-009
-3.477751e-009
-1.726171e-009
6.673103e-010
2.591825e-009
3.306980e-009
2.669660e-009
1.070193e-009
-8.137542e-010
-2.303659e-009
-2.941790e-009
-2.599685e-009
-1.469601e-009
3.723290e-011
1.443722e-009
2.359486e-009
2.584908e-009
2.139550e-009
1.218337e-009
1.043855e-010
-9.235342e-010
-1.659142e-009
-1.999743e-009
-1.943393e-009
-1.563854e-009
-9.764455e-010
-3.051481e-010
3.425274e-010
8.900893e-010
1.296206e-009
1.550836e-009
1.666852e-009
1.670543e-009
1.593404e-009
1.466347e-009
1.316383e-009
1.165300e-009
1.029636e-009
9.213689e-010
8.488186e-010
8.174753e-010
8.305413e-010
8.891216e-010
9.920379e-010
1.135292e-009
1.311221e-009
1.507445e-009
1.705867e-009
1.882093e-009
2.005816e-009
2.042665e-009
1.957935e-009
1.722330e-009
1.319493e-009
7.544627e-010
6.139750e-011
-6.919514e-010
-1.406026e-009
-1.960124e-009
-2.233000e-009
-2.131740e-009
-1.623704e-009
-7.628587e-010
3.003351e-010
1.335306e-009
2.078294e-009
2.303974e-009
1.904059e-009
9.461182e-010
-3.151470e-010
-1.491949e-009
-2.179991e-009
-2.107987e-009
-1.266188e-009
4.919805e-011
1.319749e-009
2.009252e-009
1.813028e-009
8.284704e-010
-4.632465e-010
-1.425694e-009
-1.601782e-009
-9.663317e-010
6.437743e-011
8.866498e-010
1.076028e-009
6.321777e-010
-5.833730e-011
-5.111976e-010
-4.799773e-010
-1.018705e-010
2.427580e-010
-2.291539e-009
-9.442434e-010
8.579228e-010
1.916412e-009
1.513427e-009
-1.148006e-010
-1.921519e-009
-2.708832e-009
-1.875792e-009
2.114619e-010
2.436893e-009
3.578770e-009
2.980338e-009
8.708121e-010
-1.798452e-009
-3.855804e-009
-4.450489e-009
-3.372647e-009
-1.054462e-009
1.677152e-009
3.940442e-009
5.086183e-009
4.852804e-009
3.378257e-009
1.101676e-009
-1.394308e-009
-3.548696e-009
-4.951701e-009
-5.412337e-009
-4.958842e-009
-3.786639e-009
-2.180236e-009
-4.358492e-010
1.196651e-009
2.545149e-009
3.521927e-009
4.112549e-009
4.355299e-009
4.318460e-009
4.080588e-009
3.716439e-009
3.289051e-009
2.846948e-009
2.424757e-009
2.045576e-009
1.723897e-009
1.468369e-009
1.284074e-009
1.174217e-009
1.141233e-009
1.187348e-009
1.314607e-009
1.524339e-009
1.815945e-009
2.184931e-009
2.620253e-009
3.101245e-009
3.594650e-009
4.052510e-009
4.411878e-009
4.597536e-009
4.528989e-009
4.132622e-009
3.358860e-009
2.202367e-009
7.211788e-010
-9.511737e-010
-2.607273e-009
-3.986857e-009
-4.819666e-009
-4.886676e-009
-4.088658e-009
-2.503606e-009
-4.104002e-010
1.741520e-009
3.425211e-009
4.180487e-009
3.772666e-009
2.308403e-009
2.481513e-010
-1.718908e-009
-2.916065e-009
-2.950171e-009
-1.888801e-009
-2.428693e-010
1.258504e-009
2.002484e-009
1.768793e-009
8.036190e-010
-3.426974e-010
-1.115738e-009
-1.224981e-009
-7.423547e-010
-4.032049e-012
5.998879e-010
8.180303e-010
6.208373e-010
1.631171e-010
-3.205510e-010
-6.207883e-010
7.687404e-009
6.068148e-009
3.244451e-009
-2.405162e-011
-2.793640e-009
-4.196626e-009
-3.754527e-009
-1.627253e-009
1.348904e-009
3.922171e-009
4.927782e-009
3.819544e-009
9.593441e-010
-2.508108e-009
-5.154242e-009
-5.895525e-009
-4.442946e-009
-1.371394e-009
2.183775e-009
5.017700e-009
6.294837e-009
5.769930e-009
3.758552e-009
9.336680e-010
-1.934539e-009
-4.198975e-009
-5.466673e-009
-5.633866e-009
-4.844267e-009
-3.400771e-009
-1.662756e-009
4.321421e-011
1.481133e-009
2.526209e-009
3.154459e-009
3.413893e-009
3.390668e-009
3.179994e-009
2.866550e-009
2.514891e-009
2.167739e-009
1.849145e-009
1.569638e-009
1.331335e-009
1.131941e-009
9.673919e-010
8.333819e-010
7.261772e-010
6.430637e-010
5.826834e-010
5.453939e-010
5.336923e-010
5.526071e-010
6.098555e-010
7.154795e-010
8.806933e-010
1.115719e-009
1.426460e-009
1.810000e-009
2.249207e-009
2.707387e-009
3.124687e-009
3.418682e-009
3.491558e-009
3.245517e-009
2.606088e-009
1.550464e-009
1.349473e-010
-1.487077e-009
-3.066610e-009
-4.288773e-009
-4.834579e-009
-4.469010e-009
-3.136598e-009
-1.032599e-009
1.388427e-009
3.495979e-009
4.659240e-009
4.471172e-009
2.936975e-009
5.325157e-010
-1.923506e-009
-3.560512e-009
-3.801748e-009
-2.613172e-009
-5.329854e-010
1.547078e-009
2.763206e-009
2.657985e-009
1.382691e-009
-3.786933e-010
-1.741819e-009
-2.061826e-009
-1.262015e-009
1.316739e-010
1.288751e-009
1.553042e-009
8.268339e-010
-3.785570e-010
-1.268357e-009
1.401627e-008
9.905994e-009
3.482241e-009
-2.563234e-009
-5.940285e-009
-5.757071e-009
-2.748995e-009
1.267788e-009
4.336071e-009
5.195492e-009
3.682683e-009
6.279510e-010
-2.604255e-009
-4.698265e-009
-4.877019e-009
-3.147996e-009
-2.424731e-010
2.711410e-009
4.643418e-009
4.935863e-009
3.603481e-009
1.209665e-009
-1.408798e-009
-3.465802e-009
-4.465262e-009
-4.289735e-009
-3.149521e-009
-1.450540e-009
3.540118e-010
1.882529e-009
2.894070e-009
3.306548e-009
3.174270e-009
2.640717e-009
1.884081e-009
1.070678e-009
3.254587e-010
-2.784295e-010
-7.150141e-010
-9.925258e-010
-1.138526e-009
-1.187422e-009
-1.172214e-009
-1.120407e-009
-1.053022e-009
-9.853812e-010
-9.285670e-010
-8.908264e-010
-8.786070e-010
-8.970982e-010
-9.502568e-010
-1.040307e-009
-1.166739e-009
-1.324887e-009
-1.504233e-009
-1.686663e-009
-1.845104e-009
-1.943195e-009
-1.936974e-009
-1.779623e-009
-1.429916e-009
-8.640851e-010
-8.951101e-011
8.427989e-010
1.831090e-009
2.725726e-009
3.346050e-009
3.513125e-009
3.096227e-009
2.065178e-009
5.340112e-010
-1.223584e-009
-2.806338e-009
-3.774509e-009
-3.784790e-009
-2.733024e-009
-8.464127e-010
1.331489e-009
3.087509e-009
3.786221e-009
3.131281e-009
1.327719e-009
-9.455454e-010
-2.774261e-009
-3.386032e-009
-2.513035e-009
-5.610916e-010
1.535020e-009
2.748067e-009
2.493919e-009
9.729615e-010
-9.140899e-010
-2.076646e-009
-1.891327e-009
-5.897823e-010
9.002568e-010
1.581434e-009
1.064241e-009
-1.805354e-010
-1.181225e-009
1.275886e-008
8.152013e-009
1.364063e-009
-4.174002e-009
-5.973721e-009
-3.776895e-009
5.273109e-010
4.178951e-009
5.150159e-009
3.129254e-009
-5.605552e-010
-3.880824e-009
-5.198164e-009
-4.002317e-009
-9.677082e-010
2.514925e-009
5.008418e-009
5.586494e-009
4.102182e-009
1.141167e-009
-2.261806e-009
-5.012817e-009
-6.314598e-009
-5.877252e-009
-3.935395e-009
-1.098140e-009
1.886251e-009
4.355926e-009
5.883226e-009
6.322424e-009
5.773942e-009
4.500453e-009
2.830468e-009
1.075507e-009
-5.248715e-010
-1.826283e-009
-2.775295e-009
-3.387343e-009
-3.718077e-009
-3.837474e-009
-3.811984e-009
-3.695644e-009
-3.528188e-009
-3.337150e-009
-3.141302e-009
-2.953810e-009
-2.784463e-009
-2.641006e-009
-2.529890e-009
-2.456726e-009
-2.426597e-009
-2.444198e-009
-2.513696e-009
-2.638093e-009
-2.817862e-009
-3.048641e-009
-3.317907e-009
-3.600993e-009
-3.857373e-009
-4.028725e-009
-4.040697e-009
-3.810140e-009
-3.259007e-009
-2.334684e-009
-1.034532e-009
5.702158e-010
2.318651e-009
3.961648e-009
5.189287e-009
5.688855e-009
5.229268e-009
3.754885e-009
1.458308e-009
-1.205098e-009
-3.590583e-009
-5.029047e-009
-5.048287e-009
-3.577219e-009
-1.042755e-009
1.711588e-009
3.696679e-009
4.163707e-009
2.951627e-009
6.171053e-010
-1.766087e-009
-3.096278e-009
-2.801471e-009
-1.156123e-009
8.605333e-010
2.124284e-009
2.025139e-009
8.084724e-010
-6.343419e-010
-1.388285e-009
-1.116790e-009
-2.209589e-010
5.385344e-010
6.471321e-010
1.954592e-010
-2.729588e-010
4.065006e-009
1.550259e-009
-1.741500e-009
-3.527362e-009
-2.542505e-009
5.938110e-010
3.784509e-009
4.835982e-009
2.878622e-009
-1.090742e-009
-4.840918e-009
-6.246739e-009
-4.480077e-009
-3.809222e-010
4.096139e-009
6.931243e-009
6.968494e-009
4.300773e-009
5.226703e-011
-4.206543e-009
-7.086017e-009
-7.804814e-009
-6.326401e-009
-3.238917e-009
5.209849e-010
3.984823e-009
6.411916e-009
7.431941e-009
7.056794e-009
5.589712e-009
3.483538e-009
1.200956e-009
-8.868724e-010
-2.549339e-009
-3.697888e-009
-4.355378e-009
-4.611516e-009
-4.579895e-009
-4.366605e-009
-4.053866e-009
-3.696812e-009
-3.328461e-009
-2.967581e-009
-2.625601e-009
-2.310891e-009
-2.030470e-009
-1.790074e-009
-1.593645e-009
-1.442996e-009
-1.337956e-009
-1.277030e-009
-1.258443e-009
-1.281385e-009
-1.347245e-009
-1.460477e-009
-1.628603e-009
-1.860735e-009
-2.164113e-009
-2.538507e-009
-2.968912e-009
-3.417823e-009
-3.819329e-009
-4.078132e-009
-4.076962e-009
-3.695106e-009
-2.838550e-009
-1.478508e-009
3.096451e-010
2.319792e-009
4.216597e-009
5.579556e-009
5.995510e-009
5.188917e-009
3.157045e-009
2.578305e-010
-2.806707e-009
-5.147533e-009
-5.971637e-009
-4.908239e-009
-2.239475e-009
1.106000e-009
3.859707e-009
4.937151e-009
3.949682e-009
1.427798e-009
-1.406655e-009
-3.240633e-009
-3.331729e-009
-1.858611e-009
2.412711e-010
1.838228e-009
2.229073e-009
1.444885e-009
1.080568e-010
-1.008626e-009
-1.411450e-009
-1.062751e-009
-2.749462e-010
5.296223e-010
1.015794e-009
-7.869576e-009
-6.480427e-009
-3.860088e-009
-4.729338e-010
2.801234e-009
4.822101e-009
4.665275e-009
2.204987e-009
-1.588684e-009
-4.940184e-009
-6.102237e-009
-4.303487e-009
-2.409974e-010
4.214025e-009
6.955674e-009
6.696605e-009
3.556635e-009
-1.085522e-009
-5.317568e-009
-7.558764e-009
-7.140327e-009
-4.407808e-009
-4.187563e-010
3.539880e-009
6.390363e-009
7.527687e-009
6.881892e-009
4.822066e-009
1.971991e-009
-9.929609e-010
-3.512667e-009
-5.239936e-009
-6.061419e-009
-6.056586e-009
-5.422931e-009
-4.397210e-009
-3.194529e-009
-1.974962e-009
-8.362042e-010
1.760371e-010
1.050124e-009
1.791316e-009
2.409875e-009
2.915307e-009
3.315220e-009
3.616430e-009
3.826409e-009
3.954009e-009
4.009339e-009
4.003047e-009
3.945427e-009
3.845485e-009
3.709949e-009
3.542023e-009
3.339801e-009
3.094492e-009
2.788962e-009
2.397444e-009
1.887590e-009
1.226064e-009
3.885230e-010
-6.263421e-010
-1.780825e-009
-2.984541e-009
-4.088951e-009
-4.896288e-009
-5.187603e-009
-4.771131e-009
-3.546382e-009
-1.571411e-009
8.884398e-010
3.358903e-009
5.229187e-009
5.908060e-009
5.037906e-009
2.696481e-009
-5.144234e-010
-3.581497e-009
-5.409165e-009
-5.267249e-009
-3.160689e-009
8.624391e-011
3.128035e-009
4.681123e-009
4.123340e-009
1.801615e-009
-1.127267e-009
-3.258983e-009
-3.630142e-009
-2.185679e-009
2.140672e-010
2.256110e-009
2.876340e-009
1.832983e-009
-1.687583e-010
-1.893021e-009
-2.311727e-009
-1.230244e-009
5.972835e-010
1.955345e-009
-1.696178e-008
-1.173633e-008
-3.697395e-009
3.614516e-009
7.324471e-009
6.512691e-009
2.388557e-009
-2.560683e-009
-5.850898e-009
-6.056494e-009
-3.261384e-009
1.136944e-009
5.096408e-009
6.802360e-009
5.430931e-009
1.504754e-009
-3.330282e-009
-7.029721e-009
-8.044269e-009
-5.956576e-009
-1.578580e-009
3.480633e-009
7.510888e-009
9.318921e-009
8.536870e-009
5.581862e-009
1.378284e-009
-2.995380e-009
-6.606682e-009
-8.852615e-009
-9.517350e-009
-8.727187e-009
-6.840159e-009
-4.312117e-009
-1.577420e-009
1.029797e-009
3.305320e-009
5.163676e-009
6.603939e-009
7.671069e-009
8.425474e-009
8.925497e-009
9.221234e-009
9.355116e-009
9.364647e-009
9.284378e-009
9.146074e-009
8.977504e-009
8.800810e-009
8.631388e-009
8.477713e-009
8.342069e-009
8.221754e-009
8.110174e-009
7.997229e-009
7.868536e-009
7.703320e-009
7.471258e-009
7.129318e-009
6.620530e-009
5.877230e-009
4.831178e-009
3.431602e-009
1.669759e-009
-3.942998e-010
-2.609710e-009
-4.726320e-009
-6.409452e-009
-7.286912e-009
-7.032910e-009
-5.482285e-009
-2.748935e-009
7.001082e-010
4.074330e-009
6.433679e-009
6.990747e-009
5.447097e-009
2.212052e-009
-1.637880e-009
-4.704963e-009
-5.819122e-009
-4.561289e-009
-1.505418e-009
1.975351e-009
4.298536e-009
4.416059e-009
2.356542e-009
-7.413395e-010
-3.189571e-009
-3.667898e-009
-2.001290e-009
7.011023e-010
2.710098e-009
2.785341e-009
1.006529e-009
-1.281794e-009
-2.427433e-009
-1.668164e-009
3.186924e-010
1.947894e-009
-1.832359e-008
-1.140563e-008
-1.381703e-009
6.465937e-009
8.514335e-009
4.719461e-009
-1.748418e-009
-6.683313e-009
-7.313057e-009
-3.601398e-009
2.132387e-009
6.745501e-009
7.935791e-009
5.213232e-009
-9.855947e-011
-5.618864e-009
-8.982057e-009
-8.781184e-009
-5.060301e-009
7.835997e-010
6.610892e-009
1.038812e-008
1.091673e-008
8.163485e-009
3.119555e-009
-2.672968e-009
-7.680349e-009
-1.080483e-008
-1.157694e-008
-1.012578e-008
-7.006547e-009
-2.975505e-009
1.218189e-009
4.981876e-009
7.952540e-009
9.997185e-009
1.116081e-008
1.159158e-008
1.147140e-008
1.096916e-008
1.022061e-008
9.327931e-009
8.368807e-009
7.406062e-009
6.493519e-009
5.677485e-009
4.995472e-009
4.474225e-009
4.128532e-009
3.961416e-009
3.965627e-009
4.125990e-009
4.422146e-009
4.831218e-009
5.329972e-009
5.895852e-009
6.506111e-009
7.134293e-009
7.743929e-009
8.280495e-009
8.664207e-009
8.787517e-009
8.521421e-009
7.733531e-009
6.318502e-009
4.238399e-009
1.567307e-009
-1.469726e-009
-4.479229e-009
-6.924997e-009
-8.218293e-009
-7.878520e-009
-5.735872e-009
-2.104304e-009
2.173013e-009
5.883794e-009
7.814503e-009
7.220565e-009
4.207110e-009
-1.816062e-010
-4.274085e-009
-6.422957e-009
-5.748710e-009
-2.621249e-009
1.421547e-009
4.377579e-009
4.816074e-009
2.687414e-009
-6.196628e-010
-3.098754e-009
-3.371365e-009
-1.547856e-009
9.145085e-010
2.287835e-009
1.810167e-009
1.552866e-010
-1.212252e-009
-1.259364e-009
-1.798782e-010
8.766758e-010
-1.070278e-008
-5.415919e-009
1.728435e-009
6.206062e-009
5.425767e-009
3.637556e-010
-5.242934e-009
-7.474172e-009
-4.762723e-009
1.245749e-009
6.897231e-009
8.839448e-009
5.928970e-009
-3.053890e-010
-6.683652e-009
-1.010495e-008
-9.004510e-009
-3.904131e-009
3.017912e-009
8.976709e-009
1.172421e-008
1.033610e-008
5.407725e-009
-1.321541e-009
-7.690327e-009
-1.186706e-008
-1.286013e-008
-1.066038e-008
-6.054619e-009
-2.552020e-010
5.490336e-009
1.019328e-008
1.327364e-008
1.457325e-008
1.426998e-008
1.274203e-008
1.042934e-008
7.727898e-009
4.933830e-009
2.234963e-009
-2.668788e-010
-2.523123e-009
-4.510583e-009
-6.215003e-009
-7.625134e-009
-8.732962e-009
-9.535758e-009
-1.003739e-008
-1.024820e-008
-1.018392e-008
-9.864182e-009
-9.311033e-009
-8.547445e-009
-7.595407e-009
-6.473493e-009
-5.194245e-009
-3.762499e-009
-2.176430e-009
-4.331793e-010
1.459831e-009
3.468572e-009
5.514139e-009
7.457957e-009
9.097090e-009
1.017586e-008
1.041824e-008
9.583134e-009
7.540674e-009
4.360429e-009
3.881892e-010
-3.728135e-009
-7.110212e-009
-8.846990e-009
-8.296209e-009
-5.398464e-009
-8.604477e-010
3.930299e-009
7.311812e-009
7.980722e-009
5.607252e-009
1.119194e-009
-3.572778e-009
-6.388225e-009
-6.092387e-009
-2.977403e-009
1.236101e-009
4.314250e-009
4.761041e-009
2.648415e-009
-5.162039e-010
-2.805218e-009
-3.082700e-009
-1.595491e-009
4.057175e-010
1.648197e-009
1.651660e-009
8.232230e-010
-9.147105e-011
-6.339487e-010
-8.139661e-010
2.872633e-009
3.614195e-009
3.924160e-009
2.510420e-009
-7.519212e-010
-4.347744e-009
-5.945891e-009
-4.034330e-009
7.918094e-010
5.894878e-009
8.102053e-009
5.713766e-009
-3.179688e-010
-6.832187e-009
-1.024286e-008
-8.546917e-009
-2.377103e-009
5.410170e-009
1.124153e-008
1.252873e-008
8.721993e-009
1.343502e-009
-6.829986e-009
-1.294082e-008
-1.505735e-008
-1.268033e-008
-6.680030e-009
1.187137e-009
8.927398e-009
1.488105e-008
1.806575e-008
1.825555e-008
1.584887e-008
1.162094e-008
6.456842e-009
1.136721e-009
-3.788907e-009
-8.029489e-009
-1.151232e-008
-1.430389e-008
-1.652993e-008
-1.831708e-008
-1.976307e-008
-2.093005e-008
-2.185060e-008
-2.253752e-008
-2.299236e-008
-2.321179e-008
-2.319219e-008
-2.293362e-008
-2.244311e-008
-2.173683e-008
-2.084008e-008
-1.978451e-008
-1.860183e-008
-1.731493e-008
-1.592759e-008
-1.441567e-008
-1.272327e-008
-1.076773e-008
-8.456617e-009
-5.717266e-009
-2.535545e-009
1.003957e-009
4.686835e-009
8.158041e-009
1.094197e-008
1.250366e-008
1.235903e-008
1.023103e-008
6.223596e-009
9.505662e-010
-4.468397e-009
-8.618697e-009
-1.021201e-008
-8.606993e-009
-4.212062e-009
1.473168e-009
6.312087e-009
8.382846e-009
6.875119e-009
2.561558e-009
-2.484518e-009
-5.872258e-009
-6.100645e-009
-3.324582e-009
7.752351e-010
3.957775e-009
4.660601e-009
2.794534e-009
-3.341733e-010
-2.868202e-009
-3.473066e-009
-2.023788e-009
4.376938e-010
2.386645e-009
2.716168e-009
1.344635e-009
-7.926137e-010
-2.338584e-009
1.648511e-008
1.166536e-008
4.102624e-009
-3.093205e-009
-7.226801e-009
-7.093649e-009
-3.292177e-009
2.150242e-009
6.576041e-009
7.715049e-009
4.702565e-009
-1.305217e-009
-7.404468e-009
-1.025123e-008
-7.867975e-009
-9.138342e-010
7.441868e-009
1.307809e-008
1.304451e-008
7.044383e-009
-2.489446e-009
-1.163891e-008
-1.679405e-008
-1.607877e-008
-9.851336e-009
-2.639402e-010
9.732715e-009
1.744079e-008
2.114874e-008
2.039773e-008
1.583066e-008
8.784313e-009
8.077686e-010
-6.746946e-009
-1.297832e-008
-1.751219e-008
-2.043090e-008
-2.211410e-008
-2.305767e-008
-2.372474e-008
-2.445626e-008
-2.544155e-008
-2.673113e-008
-2.826963e-008
-2.993195e-008
-3.155492e-008
-3.296364e-008
-3.399407e-008
-3.451310e-008
-3.443548e-008
-3.373576e-008
-3.245338e-008
-3.068952e-008
-2.859568e-008
-2.635459e-008
-2.415481e-008
-2.216131e-008
-2.048449e-008
-1.915185e-008
-1.808799e-008
-1.711024e-008
-1.594729e-008
-1.428443e-008
-1.183253e-008
-8.411028e-009
-4.030770e-009
1.038906e-009
6.237918e-009
1.074465e-008
1.359913e-008
1.394024e-008
1.133151e-008
6.076873e-009
-6.352693e-010
-6.917533e-009
-1.074625e-008
-1.075284e-008
-6.908284e-009
-7.176169e-010
5.285637e-009
8.607774e-009
7.947988e-009
3.842539e-009
-1.576781e-009
-5.632338e-009
-6.441430e-009
-3.857506e-009
4.888177e-010
4.093869e-009
4.976106e-009
2.808729e-009
-8.868654e-010
-3.678383e-009
-3.787027e-009
-1.284648e-009
1.942776e-009
3.532345e-009
2.373968e-009
-5.592916e-010
-2.957265e-009
2.403176e-008
1.515884e-008
2.264391e-009
-7.965666e-009
-1.095752e-008
-6.563011e-009
1.458486e-009
8.023128e-009
9.537789e-009
5.449759e-009
-1.887926e-009
-8.582842e-009
-1.106197e-008
-7.733053e-009
1.613043e-010
8.947965e-009
1.418225e-008
1.287069e-008
5.101447e-009
-5.865749e-009
-1.514647e-008
-1.856542e-008
-1.452531e-008
-4.524118e-009
7.748342e-009
1.809070e-008
2.337336e-008
2.240687e-008
1.594588e-008
6.063854e-009
-4.713509e-009
-1.417990e-008
-2.093661e-008
-2.455375e-008
-2.545747e-008
-2.464391e-008
-2.333168e-008
-2.265071e-008
-2.343162e-008
-2.611620e-008
-3.076960e-008
-3.715291e-008
-4.481429e-008
-5.317224e-008
-6.158289e-008
-6.939497e-008
-7.599915e-008
-8.087454e-008
-8.363106e-008
-8.404270e-008
-8.206737e-008
-7.785022e-008
-7.171037e-008
-6.411275e-008
-5.562821e-008
-4.688483e-008
-3.851315e-008
-3.108717e-008
-2.506289e-008
-2.071823e-008
-1.810215e-008
-1.700535e-008
-1.696633e-008
-1.732151e-008
-1.729976e-008
-1.615404e-008
-1.332060e-008
-8.592596e-009
-2.279144e-009
4.710493e-009
1.094566e-008
1.478964e-008
1.493873e-008
1.102937e-008
4.033869e-009
-3.836584e-009
-9.825875e-009
-1.172411e-008
-8.884162e-009
-2.633771e-009
4.210365e-009
8.583420e-009
8.613261e-009
4.548892e-009
-1.336443e-009
-5.896453e-009
-6.788463e-009
-3.788873e-009
1.057289e-009
4.665511e-009
4.867980e-009
1.844581e-009
-2.026916e-009
-3.910805e-009
-2.623512e-009
5.151182e-010
2.815465e-009
2.454353e-009
-4.045481e-011
-2.323737e-009
2.194973e-008
1.249495e-008
-6.213070e-010
-9.697253e-009
-1.011504e-008
-3.010178e-009
5.966548e-009
1.060300e-008
7.987054e-009
-6.233629e-011
-8.485611e-009
-1.213415e-008
-8.665139e-009
2.680049e-010
9.950045e-009
1.507557e-008
1.251469e-008
3.006290e-009
-9.095262e-009
-1.792734e-008
-1.900304e-008
-1.137142e-008
2.022072e-009
1.583551e-008
2.478119e-008
2.575646e-008
1.874892e-008
6.363118e-009
-7.534270e-009
-1.931392e-008
-2.665334e-008
-2.894987e-008
-2.715516e-008
-2.325926e-008
-1.966188e-008
-1.860749e-008
-2.178648e-008
-3.013934e-008
-4.384691e-008
-6.244996e-008
-8.502504e-008
-1.103539e-007
-1.370546e-007
-1.636740e-007
-1.887599e-007
-2.109303e-007
-2.289485e-007
-2.417999e-007
-2.487607e-007
-2.494483e-007
-2.438459e-007
-2.323002e-007
-2.154933e-007
-1.943930e-007
-1.701875e-007
-1.442097e-007
-1.178560e-007
-9.250286e-008
-6.941988e-008
-4.967952e-008
-3.406354e-008
-2.297457e-008
-1.636845e-008
-1.372543e-008
-1.407291e-008
-1.606680e-008
-1.814057e-008
-1.873839e-008
-1.664163e-008
-1.135199e-008
-3.413257e-009
5.516160e-009
1.301015e-008
1.666075e-008
1.507762e-008
8.667549e-009
-2.567076e-010
-8.242375e-009
-1.211495e-008
-1.043510e-008
-4.258537e-009
3.275489e-009
8.440201e-009
8.814768e-009
4.576131e-009
-1.597428e-009
-6.073666e-009
-6.433450e-009
-2.923258e-009
1.806462e-009
4.571792e-009
3.854864e-009
7.299089e-010
-2.171139e-009
-2.804396e-009
-1.216800e-009
7.910941e-010
1.437092e-009
5.172741e-010
-6.331476e-010
1.072684e-008
4.649862e-009
-3.192826e-009
-7.292368e-009
-4.910693e-009
1.958053e-009
8.023003e-009
8.480444e-009
2.462340e-009
-6.245395e-009
-1.168507e-008
-9.714461e-009
-8.545610e-010
9.836877e-009
1.576514e-008
1.279392e-008
1.813777e-009
-1.160956e-008
-2.024526e-008
-1.909886e-008
-8.031528e-009
8.234899e-009
2.255124e-008