# vtk DataFile Version 3.0
vtk output
ASCII
DATASET STRUCTURED_POINTS
DIMENSIONS 100 100 1
SPACING 1 1 1
ORIGIN 0 0 0
POINT_DATA 10000
SCALARS SFBox_profile double
LOOKUP_TABLE default 
9.439919e-003
9.439920e-003
9.439920e-003
9.439921e-003
9.439921e-003
9.439922e-003
9.439923e-003
9.439925e-003
9.439927e-003
9.439930e-003
9.439933e-003
9.439937e-003
9.439942e-003
9.439948e-003
9.439955e-003
9.439963e-003
9.439970e-003
9.439974e-003
9.439976e-003
9.439973e-003
9.439965e-003
9.439948e-003
9.439922e-003
9.439885e-003
9.439836e-003
9.439774e-003
9.439700e-003
9.439613e-003
9.439514e-003
9.439404e-003
9.439284e-003
9.439155e-003
9.439020e-003
9.438880e-003
9.438735e-003
9.438588e-003
9.438440e-003
9.438291e-003
9.438142e-003
9.437994e-003
9.437848e-003
9.437703e-003
9.437562e-003
9.437423e-003
9.437288e-003
9.437158e-003
9.437034e-003
9.436917e-003
9.436810e-003
9.436714e-003
9.436632e-003
9.436566e-003
9.436519e-003
9.436493e-003
9.436491e-003
9.436515e-003
9.436566e-003
9.436646e-003
9.436756e-003
9.436894e-003
9.437061e-003
9.437253e-003
9.437468e-003
9.437700e-003
9.437945e-003
9.438196e-003
9.438448e-003
9.438692e-003
9.438924e-003
9.439137e-003
9.439327e-003
9.439491e-003
9.439628e-003
9.439737e-003
9.439821e-003
9.439881e-003
9.439921e-003
9.439946e-003
9.439959e-003
9.439963e-003
9.439961e-003
9.439956e-003
9.439950e-003
9.439944e-003
9.439938e-003
9.439933e-003
9.439929e-003
9.439926e-003
9.439924e-003
9.439922e-003
9.439921e-003
9.439921e-003
9.439920e-003
9.439920e-003
9.439920e-003
9.439920e-003
9.439920e-003
9.439920e-003
9.439920e-003
9.439920e-003
9.439919e-003
9.439920e-003
9.439920e-003
9.439921e-003
9.439921e-003
9.439922e-003
9.439923e-003
9.439925e-003
9.439927e-003
9.439930e-003
9.439933e-003
9.439937e-003
9.439942e-003
9.439948e-003
9.439955e-003
9.439963e-003
9.439970e-003
9.439974e-003
9.439976e-003
9.439973e-003
9.439965e-003
9.439948e-003
9.439922e-003
9.439885e-003
9.439836e-003
9.439774e-003
9.439700e-003
9.439613e-003
9.439514e-003
9.439404e-003
9.439284e-003
9.439155e-003
9.439020e-003
9.438880e-003
9.438735e-003
9.438588e-003
9.438440e-003
9.438291e-003
9.438142e-003
9.437994e-003
9.437848e-003
9.437703e-003
9.437562e-003
9.437423e-003
9.437288e-003
9.437158e-003
9.437034e-003
9.436917e-003
9.436810e-003
9.436714e-003
9.436632e-003
9.436566e-003
9.436519e-003
9.436493e-003
9.436491e-003
9.436515e-003
9.436566e-003
9.436646e-003
9.436756e-003
9.436894e-003
9.437061e-003
9.437253e-003
9.437468e-003
9.437700e-003
9.437945e-003
9.438196e-003
9.438448e-003
9.438692e-003
9.438924e-003
9.439137e-003
9.439327e-003
9.439491e-003
9.439628e-003
9.439737e-003
9.439821e-003
9.439881e-003
9.439921e-003
9.439946e-003
9.439959e-003
9.439963e-003
9.439961e-003
9.439956e-003
9.439950e-003
9.439944e-003
9.439938e-003
9.439933e-003
9.439929e-003
9.439926e-003
9.439924e-003
9.439922e-003
9.439921e-003
9.439921e-003
9.439920e-003
9.439920e-003
9.439920e-003
9.439920e-003
9.439920e-003
9.439920e-003
9.439920e-003
9.439920e-003
9.439920e-003
9.439920e-003
9.439921e-003
9.439921e-003
9.439922e-003
9.439923e-003
9.439924e-003
9.439926e-003
9.439928e-003
9.439932e-003
9.439937e-003
9.439942e-003
9.439947e-003
9.439953e-003
9.439959e-003
9.439963e-003
9.439963e-003
9.439958e-003
9.439945e-003
9.439921e-003
9.439885e-003
9.439832e-003
9.439760e-003
9.439667e-003
9.439551e-003
9.439412e-003
9.439250e-003
9.439067e-003
9.438862e-003
9.438639e-003
9.438401e-003
9.438150e-003
9.437889e-003
9.437622e-003
9.437349e-003
9.437075e-003
9.436800e-003
9.436526e-003
9.436256e-003
9.435988e-003
9.435725e-003
9.435468e-003
9.435216e-003
9.434971e-003
9.434735e-003
9.434508e-003
9.434292e-003
9.434091e-003
9.433907e-003
9.433743e-003
9.433603e-003
9.433492e-003
9.433414e-003
9.433372e-003
9.433371e-003
9.433415e-003
9.433507e-003
9.433649e-003
9.433843e-003
9.434088e-003
9.434383e-003
9.434724e-003
9.435107e-003
9.435524e-003
9.435966e-003
9.436423e-003
9.436884e-003
9.437338e-003
9.437773e-003
9.438179e-003
9.438547e-003
9.438872e-003
9.439148e-003
9.439377e-003
9.439558e-003
9.439697e-003
9.439797e-003
9.439866e-003
9.439911e-003
9.439936e-003
9.439948e-003
9.439952e-003
9.439950e-003
9.439946e-003
9.439941e-003
9.439936e-003
9.439931e-003
9.439928e-003
9.439925e-003
9.439923e-003
9.439922e-003
9.439921e-003
9.439921e-003
9.439920e-003
9.439920e-003
9.439920e-003
9.439920e-003
9.439920e-003
9.439920e-003
9.439920e-003
9.439921e-003
9.439921e-003
9.439921e-003
9.439922e-003
9.439923e-003
9.439925e-003
9.439926e-003
9.439929e-003
9.439933e-003
9.439938e-003
9.439943e-003
9.439949e-003
9.439955e-003
9.439958e-003
9.439957e-003
9.439948e-003
9.439929e-003
9.439894e-003
9.439838e-003
9.439755e-003
9.439638e-003
9.439482e-003
9.439283e-003
9.439036e-003
9.438739e-003
9.438392e-003
9.437996e-003
9.437555e-003
9.437074e-003
9.436557e-003
9.436011e-003
9.435443e-003
9.434860e-003
9.434267e-003
9.433669e-003
9.433072e-003
9.432479e-003
9.431894e-003
9.431318e-003
9.430754e-003
9.430203e-003
9.429665e-003
9.429144e-003
9.428639e-003
9.428153e-003
9.427690e-003
9.427253e-003
9.426846e-003
9.426476e-003
9.426148e-003
9.425870e-003
9.425650e-003
9.425497e-003
9.425418e-003
9.425422e-003
9.425517e-003
9.425709e-003
9.426003e-003
9.426403e-003
9.426908e-003
9.427517e-003
9.428225e-003
9.429021e-003
9.429893e-003
9.430825e-003
9.431797e-003
9.432786e-003
9.433769e-003
9.434722e-003
9.435622e-003
9.436451e-003
9.437192e-003
9.437837e-003
9.438381e-003
9.438824e-003
9.439173e-003
9.439437e-003
9.439629e-003
9.439762e-003
9.439848e-003
9.439901e-003
9.439930e-003
9.439943e-003
9.439946e-003
9.439944e-003
9.439940e-003
9.439936e-003
9.439931e-003
9.439928e-003
9.439925e-003
9.439923e-003
9.439922e-003
9.439921e-003
9.439921e-003
9.439920e-003
9.439920e-003
9.439920e-003
9.439920e-003
9.439920e-003
9.439920e-003
9.439922e-003
9.439922e-003
9.439923e-003
9.439924e-003
9.439926e-003
9.439928e-003
9.439931e-003
9.439935e-003
9.439940e-003
9.439946e-003
9.439952e-003
9.439957e-003
9.439957e-003
9.439949e-003
9.439927e-003
9.439885e-003
9.439814e-003
9.439702e-003
9.439537e-003
9.439307e-003
9.438998e-003
9.438600e-003
9.438103e-003
9.437500e-003
9.436790e-003
9.435973e-003
9.435057e-003
9.434049e-003
9.432962e-003
9.431809e-003
9.430605e-003
9.429365e-003
9.428102e-003
9.426831e-003
9.425561e-003
9.424302e-003
9.423061e-003
9.421845e-003
9.420657e-003
9.419500e-003
9.418376e-003
9.417288e-003
9.416237e-003
9.415226e-003
9.414258e-003
9.413340e-003
9.412478e-003
9.411680e-003
9.410957e-003
9.410320e-003
9.409784e-003
9.409363e-003
9.409073e-003
9.408930e-003
9.408949e-003
9.409145e-003
9.409532e-003
9.410120e-003
9.410916e-003
9.411925e-003
9.413143e-003
9.414563e-003
9.416170e-003
9.417942e-003
9.419849e-003
9.421853e-003
9.423912e-003
9.425980e-003
9.428006e-003
9.429943e-003
9.431749e-003
9.433387e-003
9.434832e-003
9.436068e-003
9.437094e-003
9.437918e-003
9.438556e-003
9.439033e-003
9.439375e-003
9.439609e-003
9.439762e-003
9.439855e-003
9.439907e-003
9.439933e-003
9.439943e-003
9.439944e-003
9.439941e-003
9.439937e-003
9.439932e-003
9.439928e-003
9.439925e-003
9.439923e-003
9.439922e-003
9.439921e-003
9.439921e-003
9.439920e-003
9.439920e-003
9.439920e-003
9.439920e-003
9.439920e-003
9.439925e-003
9.439924e-003
9.439925e-003
9.439926e-003
9.439929e-003
9.439933e-003
9.439939e-003
9.439944e-003
9.439951e-003
9.439956e-003
9.439959e-003
9.439954e-003
9.439936e-003
9.439896e-003
9.439820e-003
9.439692e-003
9.439492e-003
9.439198e-003
9.438781e-003
9.438217e-003
9.437478e-003
9.436544e-003
9.435399e-003
9.434034e-003
9.432450e-003
9.430655e-003
9.428666e-003
9.426507e-003
9.424207e-003
9.421798e-003
9.419312e-003
9.416779e-003
9.414229e-003
9.411687e-003
9.409173e-003
9.406706e-003
9.404296e-003
9.401955e-003
9.399687e-003
9.397497e-003
9.395388e-003
9.393360e-003
9.391418e-003
9.389564e-003
9.387804e-003
9.386146e-003
9.384602e-003
9.383183e-003
9.381908e-003
9.380796e-003
9.379869e-003
9.379151e-003
9.378667e-003
9.378444e-003
9.378508e-003
9.378885e-003
9.379598e-003
9.380670e-003
9.382115e-003
9.383945e-003
9.386163e-003
9.388762e-003
9.391724e-003
9.395019e-003
9.398602e-003
9.402413e-003
9.406379e-003
9.410414e-003
9.414427e-003
9.418322e-003
9.422007e-003
9.425402e-003
9.428442e-003
9.431085e-003
9.433313e-003
9.435132e-003
9.436567e-003
9.437659e-003
9.438460e-003
9.439025e-003
9.439405e-003
9.439649e-003
9.439797e-003
9.439880e-003
9.439922e-003
9.439940e-003
9.439944e-003
9.439942e-003
9.439937e-003
9.439933e-003
9.439929e-003
9.439926e-003
9.439924e-003
9.439922e-003
9.439921e-003
9.439921e-003
9.439920e-003
9.439920e-003
9.439920e-003
9.439920e-003
9.439927e-003
9.439927e-003
9.439928e-003
9.439930e-003
9.439934e-003
9.439941e-003
9.439948e-003
9.439956e-003
9.439961e-003
9.439961e-003
9.439950e-003
9.439918e-003
9.439852e-003
9.439729e-003
9.439522e-003
9.439195e-003
9.438705e-003
9.438003e-003
9.437037e-003
9.435755e-003
9.434108e-003
9.432062e-003
9.429593e-003
9.426697e-003
9.423387e-003
9.419696e-003
9.415671e-003
9.411372e-003
9.406867e-003
9.402222e-003
9.397506e-003
9.392780e-003
9.388096e-003
9.383500e-003
9.379026e-003
9.374699e-003
9.370538e-003
9.366552e-003
9.362746e-003
9.359123e-003
9.355683e-003
9.352424e-003
9.349349e-003
9.346458e-003
9.343758e-003
9.341256e-003
9.338965e-003
9.336901e-003
9.335081e-003
9.333529e-003
9.332270e-003
9.331330e-003
9.330740e-003
9.330531e-003
9.330735e-003
9.331387e-003
9.332521e-003
9.334170e-003
9.336370e-003
9.339149e-003
9.342531e-003
9.346533e-003
9.351157e-003
9.356388e-003
9.362187e-003
9.368491e-003
9.375205e-003
9.382206e-003
9.389340e-003
9.396437e-003
9.403316e-003
9.409802e-003
9.415741e-003
9.421013e-003
9.425546e-003
9.429316e-003
9.432344e-003
9.434691e-003
9.436445e-003
9.437705e-003
9.438576e-003
9.439151e-003
9.439514e-003
9.439729e-003
9.439849e-003
9.439910e-003
9.439936e-003
9.439944e-003
9.439943e-003
9.439938e-003
9.439933e-003
9.439929e-003
9.439926e-003
9.439924e-003
9.439922e-003
9.439921e-003
9.439921e-003
9.439920e-003
9.439920e-003
9.439920e-003
9.439931e-003
9.439931e-003
9.439933e-003
9.439937e-003
9.439943e-003
9.439951e-003
9.439959e-003
9.439965e-003
9.439963e-003
9.439945e-003
9.439897e-003
9.439797e-003
9.439614e-003
9.439303e-003
9.438803e-003
9.438042e-003
9.436932e-003
9.435378e-003
9.433278e-003
9.430542e-003
9.427092e-003
9.422880e-003
9.417893e-003
9.412159e-003
9.405743e-003
9.398749e-003
9.391305e-003
9.383554e-003
9.375646e-003
9.367721e-003
9.359906e-003
9.352307e-003
9.345010e-003
9.338076e-003
9.331544e-003
9.325437e-003
9.319762e-003
9.314515e-003
9.309685e-003
9.305260e-003
9.301225e-003
9.297569e-003
9.294281e-003
9.291353e-003
9.288780e-003
9.286557e-003
9.284679e-003
9.283143e-003
9.281941e-003
9.281067e-003
9.280510e-003
9.280261e-003
9.280311e-003
9.280654e-003
9.281289e-003
9.282226e-003
9.283486e-003
9.285107e-003
9.287144e-003
9.289673e-003
9.292786e-003
9.296591e-003
9.301199e-003
9.306718e-003
9.313232e-003
9.320789e-003
9.329379e-003
9.338919e-003
9.349241e-003
9.360097e-003
9.371170e-003
9.382100e-003
9.392526e-003
9.402123e-003
9.410638e-003
9.417917e-003
9.423907e-003
9.428652e-003
9.432268e-003
9.434918e-003
9.436785e-003
9.438046e-003
9.438862e-003
9.439365e-003
9.439658e-003
9.439818e-003
9.439898e-003
9.439933e-003
9.439943e-003
9.439943e-003
9.439939e-003
9.439933e-003
9.439929e-003
9.439926e-003
9.439923e-003
9.439922e-003
9.439921e-003
9.439921e-003
9.439920e-003
9.439920e-003
9.439935e-003
9.439938e-003
9.439942e-003
9.439948e-003
9.439955e-003
9.439963e-003
9.439968e-003
9.439964e-003
9.439939e-003
9.439874e-003
9.439738e-003
9.439484e-003
9.439045e-003
9.438329e-003
9.437218e-003
9.435564e-003
9.433204e-003
9.429959e-003
9.425661e-003
9.420168e-003
9.413393e-003
9.405322e-003
9.396027e-003
9.385673e-003
9.374505e-003
9.362827e-003
9.350973e-003
9.339279e-003
9.328053e-003
9.317558e-003
9.307997e-003
9.299511e-003
9.292181e-003
9.286033e-003
9.281052e-003
9.277189e-003
9.274374e-003
9.272528e-003
9.271576e-003
9.271446e-003
9.272079e-003
9.273422e-003
9.275431e-003
9.278061e-003
9.281261e-003
9.284966e-003
9.289093e-003
9.293538e-003
9.298168e-003
9.302827e-003
9.307334e-003
9.311492e-003
9.315095e-003
9.317940e-003
9.319840e-003
9.320642e-003
9.320245e-003
9.318621e-003
9.315826e-003
9.312025e-003
9.307491e-003
9.302613e-003
9.297881e-003
9.293866e-003
9.291177e-003
9.290407e-003
9.292065e-003
9.296499e-003
9.303835e-003
9.313925e-003
9.326348e-003
9.340442e-003
9.355393e-003
9.370340e-003
9.384493e-003
9.397232e-003
9.408157e-003
9.417104e-003
9.424111e-003
9.429368e-003
9.433148e-003
9.435754e-003
9.437476e-003
9.438564e-003
9.439219e-003
9.439592e-003
9.439791e-003
9.439889e-003
9.439930e-003
9.439943e-003
9.439943e-003
9.439939e-003
9.439933e-003
9.439929e-003
9.439925e-003
9.439923e-003
9.439922e-003
9.439921e-003
9.439921e-003
9.439920e-003
9.439942e-003
9.439946e-003
9.439953e-003
9.439961e-003
9.439969e-003
9.439973e-003
9.439965e-003
9.439934e-003
9.439852e-003
9.439679e-003
9.439350e-003
9.438770e-003
9.437804e-003
9.436273e-003
9.433948e-003
9.430560e-003
9.425816e-003
9.419430e-003
9.411168e-003
9.400900e-003
9.388657e-003
9.374669e-003
9.359382e-003
9.343438e-003
9.327619e-003
9.312776e-003
9.299736e-003
9.289228e-003
9.281824e-003
9.277906e-003
9.277667e-003
9.281121e-003
9.288137e-003
9.298473e-003
9.311811e-003
9.327794e-003
9.346064e-003
9.366284e-003
9.388162e-003
9.411461e-003
9.435991e-003
9.461601e-003
9.488157e-003
9.515511e-003
9.543479e-003
9.571809e-003
9.600168e-003
9.628120e-003
9.655125e-003
9.680534e-003
9.703608e-003
9.723530e-003
9.739440e-003
9.750471e-003
9.755793e-003
9.754672e-003
9.746529e-003
9.731003e-003
9.708020e-003
9.677851e-003
9.641163e-003
9.599052e-003
9.553047e-003
9.505075e-003
9.457377e-003
9.412367e-003
9.372435e-003
9.339696e-003
9.315737e-003
9.301393e-003
9.296615e-003
9.300470e-003
9.311285e-003
9.326923e-003
9.345117e-003
9.363793e-003
9.381319e-003
9.396622e-003
9.409186e-003
9.418952e-003
9.426174e-003
9.431270e-003
9.434707e-003
9.436925e-003
9.438292e-003
9.439095e-003
9.439541e-003
9.439773e-003
9.439884e-003
9.439929e-003
9.439943e-003
9.439943e-003
9.439938e-003
9.439933e-003
9.439928e-003
9.439925e-003
9.439923e-003
9.439922e-003
9.439921e-003
9.439921e-003
9.439954e-003
9.439959e-003
9.439968e-003
9.439976e-003
9.439980e-003
9.439971e-003
9.439933e-003
9.439836e-003
9.439630e-003
9.439229e-003
9.438508e-003
9.437279e-003
9.435285e-003
9.432193e-003
9.427592e-003
9.421025e-003
9.412043e-003
9.400293e-003
9.385640e-003
9.368298e-003
9.348951e-003
9.328810e-003
9.309590e-003
9.293386e-003
9.282458e-003
9.278992e-003
9.284852e-003
9.301405e-003
9.329422e-003
9.369065e-003
9.419959e-003
9.481297e-003
9.551967e-003
9.630676e-003
9.716064e-003
9.806798e-003
9.901653e-003
9.999576e-003
1.009972e-002
1.020143e-002
1.030424e-002
1.040780e-002
1.051179e-002
1.061585e-002
1.071948e-002
1.082198e-002
1.092235e-002
1.101932e-002
1.111126e-002
1.119624e-002
1.127205e-002
1.133624e-002
1.138620e-002
1.141930e-002
1.143294e-002
1.142475e-002
1.139274e-002
1.133544e-002
1.125213e-002
1.114300e-002
1.100933e-002
1.085361e-002
1.067968e-002
1.049271e-002
1.029907e-002
1.010608e-002
9.921517e-003
9.752939e-003
9.606938e-003
9.488341e-003
9.399602e-003
9.340506e-003
9.308298e-003
9.298234e-003
9.304436e-003
9.320857e-003
9.342126e-003
9.364107e-003
9.384099e-003
9.400715e-003
9.413584e-003
9.422974e-003
9.429475e-003
9.433763e-003
9.436463e-003
9.438085e-003
9.439012e-003
9.439514e-003
9.439767e-003
9.439884e-003
9.439930e-003
9.439943e-003
9.439942e-003
9.439937e-003
9.439932e-003
9.439927e-003
9.439924e-003
9.439923e-003
9.439921e-003
9.439921e-003
9.439971e-003
9.439976e-003
9.439984e-003
9.439988e-003
9.439979e-003
9.439938e-003
9.439831e-003
9.439599e-003
9.439140e-003
9.438292e-003
9.436815e-003
9.434362e-003
9.430468e-003
9.424546e-003
9.415929e-003
9.403953e-003
9.388139e-003
9.368440e-003
9.345566e-003
9.321303e-003
9.298730e-003
9.282240e-003
9.277274e-003
9.289808e-003
9.325658e-003
9.389777e-003
9.485677e-003
9.615096e-003
9.777940e-003
9.972477e-003
1.019569e-002
1.044371e-002
1.071220e-002
1.099674e-002
1.129309e-002
1.159738e-002
1.190629e-002
1.221714e-002
1.252789e-002
1.283716e-002
1.314401e-002
1.344785e-002
1.374815e-002
1.404423e-002
1.433505e-002
1.461899e-002
1.489374e-002
1.515622e-002
1.540250e-002
1.562789e-002
1.582699e-002
1.599382e-002
1.612200e-002
1.620494e-002
1.623612e-002
1.620939e-002
1.611927e-002
1.596138e-002
1.573283e-002
1.543269e-002
1.506244e-002
1.462645e-002
1.413239e-002
1.359147e-002
1.301851e-002
1.243155e-002
1.185106e-002
1.129844e-002
1.079409e-002
1.035525e-002
9.993837e-003
9.715044e-003
9.516818e-003
9.390613e-003
9.323193e-003
9.299097e-003
9.303146e-003
9.322415e-003
9.347307e-003
9.371713e-003
9.392476e-003
9.408547e-003
9.420124e-003
9.427984e-003
9.433049e-003
9.436157e-003
9.437974e-003
9.438984e-003
9.439514e-003
9.439774e-003
9.439889e-003
9.439932e-003
9.439943e-003
9.439942e-003
9.439936e-003
9.439931e-003
9.439927e-003
9.439924e-003
9.439922e-003
9.439922e-003
9.439994e-003
9.439997e-003
9.439998e-003
9.439989e-003
9.439948e-003
9.439839e-003
9.439593e-003
9.439095e-003
9.438155e-003
9.436475e-003
9.433618e-003
9.428973e-003
9.421747e-003
9.411013e-003
9.395853e-003
9.375661e-003
9.350650e-003
9.322564e-003
9.295478e-003
9.276480e-003
9.275935e-003
9.307067e-003
9.384798e-003
9.523988e-003
9.737468e-003
1.003432e-002
1.041877e-002
1.088990e-002
1.144208e-002
1.206602e-002
1.275006e-002
1.348145e-002
1.424739e-002
1.503588e-002
1.583620e-002
1.663924e-002
1.743770e-002
1.822611e-002
1.900074e-002
1.975937e-002
2.050092e-002
2.122499e-002
2.193126e-002
2.261905e-002
2.328679e-002
2.393164e-002
2.454926e-002
2.513365e-002
2.567709e-002
2.617030e-002
2.660250e-002
2.696174e-002
2.723515e-002
2.740931e-002
2.747067e-002
2.740602e-002
2.720303e-002
2.685092e-002
2.634116e-002
2.566842e-002
2.483152e-002
2.383460e-002
2.268837e-002
2.141122e-002
2.003018e-002
1.858114e-002
1.710810e-002
1.566091e-002
1.429149e-002
1.304865e-002
1.197241e-002
1.108880e-002
1.040665e-002
9.917074e-003
9.596161e-003
9.410224e-003
9.322151e-003
9.297282e-003
9.307455e-003
9.332675e-003
9.360697e-003
9.385340e-003
9.404426e-003
9.417986e-003
9.427000e-003
9.432667e-003
9.436053e-003
9.437977e-003
9.439015e-003
9.439543e-003
9.439792e-003
9.439898e-003
9.439936e-003
9.439943e-003
9.439940e-003
9.439935e-003
9.439929e-003
9.439926e-003
9.439924e-003
9.439923e-003
9.440020e-003
9.440017e-003
9.440005e-003
9.439964e-003
9.439857e-003
9.439613e-003
9.439103e-003
9.438115e-003
9.436307e-003
9.433154e-003
9.427901e-003
9.419535e-003
9.406833e-003
9.388576e-003
9.364032e-003
9.333881e-003
9.301624e-003
9.275407e-003
9.269824e-003
9.307033e-003
9.416412e-003
9.632285e-003
9.989867e-003
1.052024e-002
1.124556e-002
1.217575e-002
1.330729e-002
1.462423e-002
1.610094e-002
1.770570e-002
1.940443e-002
2.116376e-002
2.295328e-002
2.474676e-002
2.652270e-002
2.826447e-002
2.996002e-002
3.160158e-002
3.318509e-002
3.470939e-002
3.617540e-002
3.758503e-002
3.894017e-002
4.024177e-002
4.148898e-002
4.267861e-002
4.380475e-002
4.485863e-002
4.582864e-002
4.670051e-002
4.745763e-002
4.808134e-002
4.855135e-002
4.884614e-002
4.894336e-002
4.882030e-002
4.845449e-002
4.782429e-002
4.690985e-002
4.569430e-002
4.416532e-002
4.231729e-002
4.015398e-002
3.769178e-002
3.496311e-002
3.201948e-002
2.893315e-002
2.579618e-002
2.271574e-002
1.980527e-002
1.717201e-002
1.490297e-002
1.305248e-002
1.163477e-002
1.062414e-002
9.962807e-003
9.574429e-003
9.379034e-003
9.305472e-003
9.298691e-003
9.321486e-003
9.352135e-003
9.380111e-003
9.401739e-003
9.416851e-003
9.426667e-003
9.432677e-003
9.436167e-003
9.438093e-003
9.439100e-003
9.439594e-003
9.439819e-003
9.439910e-003
9.439939e-003
9.439943e-003
9.439939e-003
9.439933e-003
9.439928e-003
9.439925e-003
9.439924e-003
9.440043e-003
9.440030e-003
9.439989e-003
9.439887e-003
9.439655e-003
9.439161e-003
9.438179e-003
9.436334e-003
9.433035e-003
9.427399e-003
9.418200e-003
9.403907e-003
9.382952e-003
9.354443e-003
9.319649e-003
9.284539e-003
9.263416e-003
9.283062e-003
9.386079e-003
9.631521e-003
1.009120e-002
1.084125e-002
1.195038e-002
1.346767e-002
1.541337e-002
1.777510e-002
2.051007e-002
2.355225e-002
2.682213e-002
3.023662e-002
3.371728e-002
3.719576e-002
4.061657e-002
4.393754e-002
4.712894e-002
5.017186e-002
5.305647e-002
5.578031e-002
5.834651e-002
6.076213e-002
6.303641e-002
6.517918e-002
6.719932e-002
6.910356e-002
7.089560e-002
7.257552e-002
7.413956e-002
7.558017e-002
7.688623e-002
7.804335e-002
7.903431e-002
7.983932e-002
8.043626e-002
8.080085e-002
8.090664e-002
8.072493e-002
8.022474e-002
7.937271e-002
7.813336e-002
7.646970e-002
7.434447e-002
7.172260e-002
6.857502e-002
6.488436e-002
6.065269e-002
5.591076e-002
5.072751e-002
4.521769e-002
3.954398e-002
3.391052e-002
2.854509e-002
2.367095e-002
1.947301e-002
1.606721e-002
1.348285e-002
1.166414e-002
1.049054e-002
9.808414e-003
9.463454e-003
9.324610e-003
9.295470e-003
9.314248e-003
9.346781e-003
9.377381e-003
9.400835e-003
9.416880e-003
9.427034e-003
9.433076e-003
9.436482e-003
9.438303e-003
9.439224e-003
9.439660e-003
9.439850e-003
9.439921e-003
9.439942e-003
9.439942e-003
9.439937e-003
9.439931e-003
9.439928e-003
9.439926e-003
9.440054e-003
9.440020e-003
9.439928e-003
9.439716e-003
9.439259e-003
9.438333e-003
9.436548e-003
9.433273e-003
9.427533e-003
9.417922e-003
9.402616e-003
9.379660e-003
9.347898e-003
9.309104e-003
9.272025e-003
9.258774e-003
9.313115e-003
9.508474e-003
9.951839e-003
1.077916e-002
1.213970e-002
1.417080e-002
1.696921e-002
2.056771e-002
2.492466e-002
2.992954e-002
3.542184e-002
4.121686e-002
4.713098e-002
5.300118e-002
5.869646e-002
6.412157e-002
6.921504e-002
7.394407e-002
7.829817e-002
8.228317e-002
8.591594e-002
8.922031e-002
9.222377e-002
9.495492e-002
9.744150e-002
9.970886e-002
1.017789e-001
1.036693e-001
1.053936e-001
1.069610e-001
1.083766e-001
1.096420e-001
1.107561e-001
1.117147e-001
1.125117e-001
1.131385e-001
1.135841e-001
1.138349e-001
1.138733e-001
1.136777e-001
1.132204e-001
1.124666e-001
1.113729e-001
1.098854e-001
1.079388e-001
1.054561e-001
1.023497e-001
9.852636e-002
9.389543e-002
8.838356e-002
8.195525e-002
7.463877e-002
6.655290e-002
5.792637e-002
4.909844e-002
4.049058e-002
3.254696e-002
2.565496e-002
2.006953e-002
1.586910e-002
1.295915e-002
1.111966e-002
1.007436e-002
9.555624e-003
9.346449e-003
9.295413e-003
9.310846e-003
9.345036e-003
9.377457e-003
9.401833e-003
9.418068e-003
9.428044e-003
9.433803e-003
9.436948e-003
9.438576e-003
9.439370e-003
9.439731e-003
9.439880e-003
9.439931e-003
9.439943e-003
9.439940e-003
9.439935e-003
9.439930e-003
9.439928e-003
9.440037e-003
9.439968e-003
9.439787e-003
9.439385e-003
9.438552e-003
9.436911e-003
9.433824e-003
9.428273e-003
9.418730e-003
9.403126e-003
9.379108e-003
9.345093e-003
9.302985e-003
9.263839e-003
9.257798e-003
9.348480e-003
9.649204e-003
1.033444e-002
1.163688e-002
1.382181e-002
1.713767e-002
2.175372e-002
2.770520e-002
3.486779e-002
4.297254e-002
5.165574e-002
6.052513e-002
6.922088e-002
7.745686e-002
8.503775e-002
9.185600e-002
9.787671e-002
1.031181e-001
1.076328e-001
1.114925e-001
1.147763e-001
1.175627e-001
1.199246e-001
1.219269e-001
1.236256e-001
1.250678e-001
1.262927e-001
1.273323e-001
1.282129e-001
1.289559e-001
1.295787e-001
1.300960e-001
1.305197e-001
1.308600e-001
1.311250e-001
1.313214e-001
1.314537e-001
1.315245e-001
1.315340e-001
1.314792e-001
1.313535e-001
1.311453e-001
1.308363e-001
1.303995e-001
1.297959e-001
1.289701e-001
1.278451e-001
1.263161e-001
1.242441e-001
1.214522e-001
1.177272e-001
1.128324e-001
1.065390e-001
9.868133e-002
8.923241e-002
7.838236e-002
6.658438e-002
5.453202e-002
4.304847e-002
3.290867e-002
2.465763e-002
1.850138e-002
1.431227e-002
1.173145e-002
1.030985e-002
9.627683e-003
9.360927e-003
9.295910e-003
9.311008e-003
9.347005e-003
9.380324e-003
9.404595e-003
9.420243e-003
9.429550e-003
9.434751e-003
9.437499e-003
9.438873e-003
9.439517e-003
9.439797e-003
9.439905e-003
9.439938e-003
9.439943e-003
9.439939e-003
9.439934e-003
9.439931e-003
9.439971e-003
9.439844e-003
9.439514e-003
9.438803e-003
9.437367e-003
9.434600e-003
9.429497e-003
9.420490e-003
9.405347e-003
9.381354e-003
9.346343e-003
9.301729e-003
9.259527e-003
9.255910e-003
9.373098e-003
9.767557e-003
1.069530e-002
1.251677e-002
1.566094e-002
2.053796e-002
2.741446e-002
3.629442e-002
4.686162e-002
5.851951e-002
7.051825e-002
8.211712e-002
9.272090e-002
1.019522e-001
1.096562e-001
1.158588e-001
1.207031e-001
1.243913e-001
1.271400e-001
1.291532e-001
1.306081e-001
1.316493e-001
1.323891e-001
1.329113e-001
1.332768e-001
1.335292e-001
1.337001e-001
1.338123e-001
1.338829e-001
1.339251e-001
1.339490e-001
1.339623e-001
1.339711e-001
1.339794e-001
1.339899e-001
1.340038e-001
1.340212e-001
1.340415e-001
1.340632e-001
1.340842e-001
1.341017e-001
1.341121e-001
1.341106e-001
1.340910e-001
1.340450e-001
1.339617e-001
1.338258e-001
1.336158e-001
1.332994e-001
1.328257e-001
1.321112e-001
1.310182e-001
1.293228e-001
1.266824e-001
1.226238e-001
1.165946e-001
1.081102e-001
9.698045e-002
8.353008e-002
6.867758e-002
5.377570e-002
4.024060e-002
2.913642e-002
2.092019e-002
1.544751e-002
1.217992e-002
1.044882e-002
9.655096e-003
9.361172e-003
9.295832e-003
9.314709e-003
9.352542e-003
9.385651e-003
9.408760e-003
9.423107e-003
9.431347e-003
9.435796e-003
9.438066e-003
9.439159e-003
9.439651e-003
9.439852e-003
9.439924e-003
9.439942e-003
9.439942e-003
9.439938e-003
9.439935e-003
9.439828e-003
9.439607e-003
9.439044e-003
9.437851e-003
9.435490e-003
9.431026e-003
9.422939e-003
9.408953e-003
9.386092e-003
9.351531e-003
9.305561e-003
9.259224e-003
9.250612e-003
9.374037e-003
9.822600e-003
1.093421e-002
1.321474e-002
1.729840e-002
2.381125e-002
3.314514e-002
4.521865e-002
5.935382e-002
7.437222e-002
8.889938e-002
1.017412e-001
1.121612e-001
1.199612e-001
1.253806e-001
1.289038e-001
1.310710e-001
1.323522e-001
1.330971e-001
1.335382e-001
1.338151e-001
1.340023e-001
1.341327e-001
1.342158e-001
1.342518e-001
1.342393e-001
1.341788e-001
1.340738e-001
1.339298e-001
1.337534e-001
1.335511e-001
1.333296e-001
1.330952e-001
1.328544e-001
1.326142e-001
1.323826e-001
1.321687e-001
1.319833e-001
1.318382e-001
1.317464e-001
1.317211e-001
1.317753e-001
1.319201e-001
1.321639e-001
1.325098e-001
1.329535e-001
1.334802e-001
1.340606e-001
1.346465e-001
1.351678e-001
1.355329e-001
1.356372e-001
1.353856e-001
1.347200e-001
1.336229e-001
1.320473e-001
1.297492e-001
1.261014e-001
1.200813e-001
1.106264e-001
9.730278e-002
8.085409e-002
6.314899e-002
4.648570e-002
3.270156e-002
2.262665e-002
1.609671e-002
1.234469e-002
1.044892e-002
9.628165e-003
9.347199e-003
9.296268e-003
9.322175e-003
9.361216e-003
9.392828e-003
9.413804e-003
9.426301e-003
9.433217e-003
9.436819e-003
9.438590e-003
9.439409e-003
9.439759e-003
9.439894e-003
9.439936e-003
9.439944e-003
9.439942e-003
9.439939e-003
9.439569e-003
9.439205e-003
9.438287e-003
9.436377e-003
9.432660e-003
9.425748e-003
9.413453e-003
9.392703e-003
9.360093e-003
9.314394e-003
9.263838e-003
9.243337e-003
9.348636e-003
9.792360e-003
1.097522e-002
1.354050e-002
1.834816e-002
2.629267e-002
3.793893e-002
5.308350e-002
7.049910e-002
8.813038e-002
1.037660e-001
1.158558e-001
1.239961e-001
1.288196e-001
1.314437e-001
1.328927e-001
1.337995e-001
1.344078e-001
1.347327e-001
1.347276e-001
1.343749e-001
1.337023e-001
1.327651e-001
1.316258e-001
1.303428e-001
1.289653e-001
1.275332e-001
1.260772e-001
1.246202e-001
1.231787e-001
1.217647e-001
1.203873e-001
1.190545e-001
1.177745e-001
1.165573e-001
1.154147e-001
1.143614e-001
1.134152e-001
1.125964e-001
1.119282e-001
1.114362e-001
1.111481e-001
1.110938e-001
1.113044e-001
1.118122e-001
1.126496e-001
1.138478e-001
1.154337e-001
1.174256e-001
1.198249e-001
1.226028e-001
1.256822e-001
1.289126e-001
1.320457e-001
1.347243e-001
1.365127e-001
1.370104e-001
1.360566e-001
1.338689e-001
1.307487e-001
1.262734e-001
1.188626e-001
1.067460e-001
8.973439e-002
6.992889e-002
5.064527e-002
3.467227e-002
2.324103e-002
1.609598e-002
1.217975e-002
1.031051e-002
9.556785e-003
9.325864e-003
9.299770e-003