# vtk DataFile Version 3.0
vtk output
ASCII
DATASET STRUCTURED_POINTS
DIMENSIONS 100 100 1
SPACING 1 1 1
ORIGIN 0 0 0
POINT_DATA 10000
SCALARS SFBox_profile double
LOOKUP_TABLE default 
9.439929e-003
9.439929e-003
9.439928e-003
9.439927e-003
9.439926e-003
9.439926e-003
9.439926e-003
9.439928e-003
9.439931e-003
9.439935e-003
9.439941e-003
9.439948e-003
9.439956e-003
9.439963e-003
9.439971e-003
9.439977e-003
9.439982e-003
9.439985e-003
9.439986e-003
9.439985e-003
9.439980e-003
9.439971e-003
9.439955e-003
9.439932e-003
9.439899e-003
9.439853e-003
9.439793e-003
9.439717e-003
9.439623e-003
9.439513e-003
9.439385e-003
9.439241e-003
9.439083e-003
9.438914e-003
9.438737e-003
9.438557e-003
9.438378e-003
9.438207e-003
9.438048e-003
9.437907e-003
9.437789e-003
9.437698e-003
9.437640e-003
9.437615e-003
9.437625e-003
9.437670e-003
9.437747e-003
9.437853e-003
9.437984e-003
9.438136e-003
9.438302e-003
9.438477e-003
9.438656e-003
9.438833e-003
9.439003e-003
9.439164e-003
9.439310e-003
9.439442e-003
9.439557e-003
9.439655e-003
9.439737e-003
9.439804e-003
9.439856e-003
9.439896e-003
9.439924e-003
9.439944e-003
9.439956e-003
9.439963e-003
9.439965e-003
9.439964e-003
9.439961e-003
9.439956e-003
9.439952e-003
9.439947e-003
9.439943e-003
9.439938e-003
9.439934e-003
9.439931e-003
9.439928e-003
9.439925e-003
9.439923e-003
9.439922e-003
9.439921e-003
9.439921e-003
9.439921e-003
9.439922e-003
9.439922e-003
9.439923e-003
9.439922e-003
9.439922e-003
9.439921e-003
9.439920e-003
9.439919e-003
9.439918e-003
9.439918e-003
9.439919e-003
9.439919e-003
9.439920e-003
9.439921e-003
9.439921e-003
9.439929e-003
9.439929e-003
9.439928e-003
9.439927e-003
9.439926e-003
9.439926e-003
9.439926e-003
9.439928e-003
9.439931e-003
9.439935e-003
9.439941e-003
9.439948e-003
9.439956e-003
9.439963e-003
9.439971e-003
9.439977e-003
9.439982e-003
9.439985e-003
9.439986e-003
9.439985e-003
9.439980e-003
9.439971e-003
9.439955e-003
9.439932e-003
9.439899e-003
9.439853e-003
9.439793e-003
9.439717e-003
9.439623e-003
9.439513e-003
9.439385e-003
9.439241e-003
9.439083e-003
9.438914e-003
9.438737e-003
9.438557e-003
9.438378e-003
9.438207e-003
9.438048e-003
9.437907e-003
9.437789e-003
9.437698e-003
9.437640e-003
9.437615e-003
9.437625e-003
9.437670e-003
9.437747e-003
9.437853e-003
9.437984e-003
9.438136e-003
9.438302e-003
9.438477e-003
9.438656e-003
9.438833e-003
9.439003e-003
9.439164e-003
9.439310e-003
9.439442e-003
9.439557e-003
9.439655e-003
9.439737e-003
9.439804e-003
9.439856e-003
9.439896e-003
9.439924e-003
9.439944e-003
9.439956e-003
9.439963e-003
9.439965e-003
9.439964e-003
9.439961e-003
9.439956e-003
9.439952e-003
9.439947e-003
9.439943e-003
9.439938e-003
9.439934e-003
9.439931e-003
9.439928e-003
9.439925e-003
9.439923e-003
9.439922e-003
9.439921e-003
9.439921e-003
9.439921e-003
9.439922e-003
9.439922e-003
9.439923e-003
9.439922e-003
9.439922e-003
9.439921e-003
9.439920e-003
9.439919e-003
9.439918e-003
9.439918e-003
9.439919e-003
9.439919e-003
9.439920e-003
9.439921e-003
9.439921e-003
9.439930e-003
9.439930e-003
9.439929e-003
9.439928e-003
9.439928e-003
9.439928e-003
9.439928e-003
9.439930e-003
9.439933e-003
9.439937e-003
9.439943e-003
9.439950e-003
9.439957e-003
9.439965e-003
9.439971e-003
9.439976e-003
9.439979e-003
9.439979e-003
9.439975e-003
9.439967e-003
9.439952e-003
9.439930e-003
9.439899e-003
9.439855e-003
9.439795e-003
9.439718e-003
9.439621e-003
9.439501e-003
9.439357e-003
9.439189e-003
9.438997e-003
9.438784e-003
9.438552e-003
9.438304e-003
9.438047e-003
9.437786e-003
9.437529e-003
9.437282e-003
9.437054e-003
9.436853e-003
9.436685e-003
9.436557e-003
9.436475e-003
9.436440e-003
9.436455e-003
9.436520e-003
9.436630e-003
9.436783e-003
9.436972e-003
9.437190e-003
9.437430e-003
9.437684e-003
9.437944e-003
9.438202e-003
9.438452e-003
9.438688e-003
9.438907e-003
9.439104e-003
9.439278e-003
9.439429e-003
9.439556e-003
9.439662e-003
9.439746e-003
9.439813e-003
9.439863e-003
9.439900e-003
9.439925e-003
9.439941e-003
9.439951e-003
9.439955e-003
9.439956e-003
9.439954e-003
9.439951e-003
9.439947e-003
9.439944e-003
9.439940e-003
9.439936e-003
9.439932e-003
9.439929e-003
9.439926e-003
9.439924e-003
9.439923e-003
9.439922e-003
9.439921e-003
9.439922e-003
9.439922e-003
9.439922e-003
9.439922e-003
9.439922e-003
9.439922e-003
9.439921e-003
9.439920e-003
9.439919e-003
9.439918e-003
9.439918e-003
9.439919e-003
9.439919e-003
9.439920e-003
9.439921e-003
9.439921e-003
9.439931e-003
9.439931e-003
9.439931e-003
9.439931e-003
9.439931e-003
9.439932e-003
9.439933e-003
9.439935e-003
9.439938e-003
9.439942e-003
9.439948e-003
9.439954e-003
9.439960e-003
9.439966e-003
9.439970e-003
9.439971e-003
9.439968e-003
9.439960e-003
9.439944e-003
9.439919e-003
9.439882e-003
9.439829e-003
9.439758e-003
9.439665e-003
9.439545e-003
9.439394e-003
9.439210e-003
9.438987e-003
9.438726e-003
9.438426e-003
9.438087e-003
9.437713e-003
9.437309e-003
9.436882e-003
9.436441e-003
9.435995e-003
9.435557e-003
9.435139e-003
9.434754e-003
9.434415e-003
9.434134e-003
9.433921e-003
9.433784e-003
9.433727e-003
9.433754e-003
9.433863e-003
9.434050e-003
9.434308e-003
9.434628e-003
9.434999e-003
9.435407e-003
9.435841e-003
9.436286e-003
9.436731e-003
9.437164e-003
9.437576e-003
9.437959e-003
9.438308e-003
9.438620e-003
9.438892e-003
9.439125e-003
9.439321e-003
9.439482e-003
9.439611e-003
9.439713e-003
9.439790e-003
9.439846e-003
9.439887e-003
9.439914e-003
9.439932e-003
9.439942e-003
9.439947e-003
9.439948e-003
9.439947e-003
9.439945e-003
9.439942e-003
9.439939e-003
9.439935e-003
9.439932e-003
9.439929e-003
9.439926e-003
9.439924e-003
9.439923e-003
9.439922e-003
9.439922e-003
9.439922e-003
9.439922e-003
9.439922e-003
9.439922e-003
9.439921e-003
9.439921e-003
9.439920e-003
9.439919e-003
9.439919e-003
9.439919e-003
9.439919e-003
9.439920e-003
9.439920e-003
9.439921e-003
9.439921e-003
9.439932e-003
9.439932e-003
9.439933e-003
9.439934e-003
9.439935e-003
9.439937e-003
9.439939e-003
9.439942e-003
9.439946e-003
9.439950e-003
9.439954e-003
9.439959e-003
9.439962e-003
9.439964e-003
9.439962e-003
9.439955e-003
9.439940e-003
9.439914e-003
9.439873e-003
9.439814e-003
9.439731e-003
9.439620e-003
9.439474e-003
9.439286e-003
9.439050e-003
9.438760e-003
9.438409e-003
9.437995e-003
9.437514e-003
9.436966e-003
9.436353e-003
9.435681e-003
9.434960e-003
9.434201e-003
9.433421e-003
9.432636e-003
9.431867e-003
9.431137e-003
9.430467e-003
9.429879e-003
9.429393e-003
9.429025e-003
9.428789e-003
9.428693e-003
9.428741e-003
9.428931e-003
9.429257e-003
9.429707e-003
9.430265e-003
9.430912e-003
9.431627e-003
9.432388e-003
9.433173e-003
9.433960e-003
9.434730e-003
9.435467e-003
9.436156e-003
9.436788e-003
9.437356e-003
9.437857e-003
9.438290e-003
9.438658e-003
9.438963e-003
9.439213e-003
9.439412e-003
9.439567e-003
9.439685e-003
9.439773e-003
9.439836e-003
9.439880e-003
9.439909e-003
9.439927e-003
9.439938e-003
9.439943e-003
9.439945e-003
9.439944e-003
9.439942e-003
9.439939e-003
9.439935e-003
9.439932e-003
9.439929e-003
9.439927e-003
9.439925e-003
9.439923e-003
9.439922e-003
9.439922e-003
9.439922e-003
9.439921e-003
9.439921e-003
9.439921e-003
9.439920e-003
9.439920e-003
9.439920e-003
9.439919e-003
9.439919e-003
9.439919e-003
9.439920e-003
9.439920e-003
9.439921e-003
9.439921e-003
9.439933e-003
9.439934e-003
9.439936e-003
9.439938e-003
9.439941e-003
9.439944e-003
9.439948e-003
9.439951e-003
9.439955e-003
9.439958e-003
9.439961e-003
9.439962e-003
9.439960e-003
9.439954e-003
9.439940e-003
9.439915e-003
9.439875e-003
9.439814e-003
9.439726e-003
9.439603e-003
9.439436e-003
9.439217e-003
9.438934e-003
9.438577e-003
9.438134e-003
9.437597e-003
9.436955e-003
9.436203e-003
9.435337e-003
9.434358e-003
9.433271e-003
9.432087e-003
9.430822e-003
9.429497e-003
9.428140e-003
9.426782e-003
9.425458e-003
9.424204e-003
9.423058e-003
9.422056e-003
9.421229e-003
9.420605e-003
9.420207e-003
9.420047e-003
9.420131e-003
9.420456e-003
9.421012e-003
9.421780e-003
9.422734e-003
9.423843e-003
9.425072e-003
9.426384e-003
9.427742e-003
9.429109e-003
9.430453e-003
9.431744e-003
9.432959e-003
9.434080e-003
9.435094e-003
9.435993e-003
9.436777e-003
9.437447e-003
9.438010e-003
9.438474e-003
9.438849e-003
9.439146e-003
9.439376e-003
9.439551e-003
9.439680e-003
9.439774e-003
9.439839e-003
9.439883e-003
9.439912e-003
9.439929e-003
9.439939e-003
9.439943e-003
9.439943e-003
9.439942e-003
9.439939e-003
9.439936e-003
9.439933e-003
9.439930e-003
9.439927e-003
9.439925e-003
9.439924e-003
9.439922e-003
9.439922e-003
9.439921e-003
9.439921e-003
9.439921e-003
9.439920e-003
9.439920e-003
9.439920e-003
9.439920e-003
9.439920e-003
9.439920e-003
9.439920e-003
9.439920e-003
9.439920e-003
9.439920e-003
9.439934e-003
9.439936e-003
9.439939e-003
9.439943e-003
9.439948e-003
9.439953e-003
9.439958e-003
9.439962e-003
9.439965e-003
9.439966e-003
9.439965e-003
9.439959e-003
9.439946e-003
9.439923e-003
9.439885e-003
9.439827e-003
9.439739e-003
9.439614e-003
9.439439e-003
9.439201e-003
9.438886e-003
9.438477e-003
9.437956e-003
9.437306e-003
9.436509e-003
9.435549e-003
9.434413e-003
9.433092e-003
9.431582e-003
9.429885e-003
9.428013e-003
9.425985e-003
9.423832e-003
9.421590e-003
9.419306e-003
9.417032e-003
9.414827e-003
9.412750e-003
9.410860e-003
9.409214e-003
9.407863e-003
9.406848e-003
9.406202e-003
9.405946e-003
9.406088e-003
9.406624e-003
9.407537e-003
9.408798e-003
9.410367e-003
9.412197e-003
9.414232e-003
9.416415e-003
9.418684e-003
9.420982e-003
9.423252e-003
9.425446e-003
9.427522e-003
9.429449e-003
9.431203e-003
9.432769e-003
9.434143e-003
9.435327e-003
9.436329e-003
9.437161e-003
9.437839e-003
9.438383e-003
9.438810e-003
9.439138e-003
9.439386e-003
9.439569e-003
9.439700e-003
9.439792e-003
9.439854e-003
9.439895e-003
9.439920e-003
9.439934e-003
9.439941e-003
9.439943e-003
9.439942e-003
9.439940e-003
9.439936e-003
9.439933e-003
9.439930e-003
9.439927e-003
9.439925e-003
9.439923e-003
9.439922e-003
9.439921e-003
9.439921e-003
9.439920e-003
9.439920e-003
9.439920e-003
9.439921e-003
9.439921e-003
9.439921e-003
9.439920e-003
9.439920e-003
9.439920e-003
9.439920e-003
9.439920e-003
9.439936e-003
9.439939e-003
9.439943e-003
9.439949e-003
9.439955e-003
9.439962e-003
9.439968e-003
9.439972e-003
9.439973e-003
9.439970e-003
9.439959e-003
9.439940e-003
9.439906e-003
9.439852e-003
9.439770e-003
9.439650e-003
9.439477e-003
9.439237e-003
9.438909e-003
9.438472e-003
9.437901e-003
9.437168e-003
9.436245e-003
9.435104e-003
9.433717e-003
9.432060e-003
9.430113e-003
9.427865e-003
9.425313e-003
9.422467e-003
9.419351e-003
9.416000e-003
9.412469e-003
9.408820e-003
9.405133e-003
9.401493e-003
9.397990e-003
9.394718e-003
9.391763e-003
9.389209e-003
9.387126e-003
9.385574e-003
9.384595e-003
9.384216e-003
9.384447e-003
9.385282e-003
9.386698e-003
9.388654e-003
9.391097e-003
9.393958e-003
9.397161e-003
9.400617e-003
9.404238e-003
9.407931e-003
9.411609e-003
9.415192e-003
9.418610e-003
9.421806e-003
9.424738e-003
9.427376e-003
9.429708e-003
9.431731e-003
9.433456e-003
9.434900e-003
9.436087e-003
9.437047e-003
9.437808e-003
9.438400e-003
9.438853e-003
9.439191e-003
9.439439e-003
9.439616e-003
9.439739e-003
9.439822e-003
9.439876e-003
9.439910e-003
9.439929e-003
9.439939e-003
9.439942e-003
9.439942e-003
9.439940e-003
9.439937e-003
9.439934e-003
9.439930e-003
9.439927e-003
9.439925e-003
9.439923e-003
9.439922e-003
9.439921e-003
9.439921e-003
9.439921e-003
9.439921e-003
9.439921e-003
9.439921e-003
9.439921e-003
9.439921e-003
9.439920e-003
9.439920e-003
9.439919e-003
9.439919e-003
9.439941e-003
9.439944e-003
9.439949e-003
9.439956e-003
9.439964e-003
9.439971e-003
9.439977e-003
9.439978e-003
9.439974e-003
9.439961e-003
9.439934e-003
9.439889e-003
9.439816e-003
9.439707e-003
9.439546e-003
9.439316e-003
9.438996e-003
9.438558e-003
9.437970e-003
9.437197e-003
9.436198e-003
9.434930e-003
9.433348e-003
9.431408e-003
9.429068e-003
9.426295e-003
9.423064e-003
9.419365e-003
9.415203e-003
9.410605e-003
9.405620e-003
9.400320e-003
9.394798e-003
9.389165e-003
9.383546e-003
9.378076e-003
9.372888e-003
9.368110e-003
9.363861e-003
9.360240e-003
9.357330e-003
9.355192e-003
9.353870e-003
9.353386e-003
9.353746e-003
9.354943e-003
9.356948e-003
9.359722e-003
9.363206e-003
9.367322e-003
9.371979e-003
9.377068e-003
9.382467e-003
9.388047e-003
9.393678e-003
9.399234e-003
9.404600e-003
9.409675e-003
9.414381e-003
9.418661e-003
9.422479e-003
9.425823e-003
9.428698e-003
9.431126e-003
9.433140e-003
9.434780e-003
9.436093e-003
9.437124e-003
9.437920e-003
9.438522e-003
9.438968e-003
9.439292e-003
9.439522e-003
9.439681e-003
9.439787e-003
9.439856e-003
9.439899e-003
9.439923e-003
9.439936e-003
9.439941e-003
9.439942e-003
9.439940e-003
9.439937e-003
9.439934e-003
9.439930e-003
9.439927e-003
9.439925e-003
9.439923e-003
9.439921e-003
9.439921e-003
9.439921e-003
9.439921e-003
9.439922e-003
9.439922e-003
9.439922e-003
9.439921e-003
9.439921e-003
9.439920e-003
9.439919e-003
9.439919e-003
9.439951e-003
9.439954e-003
9.439959e-003
9.439966e-003
9.439973e-003
9.439979e-003
9.439981e-003
9.439976e-003
9.439960e-003
9.439927e-003
9.439870e-003
9.439778e-003
9.439637e-003
9.439431e-003
9.439135e-003
9.438720e-003
9.438150e-003
9.437382e-003
9.436365e-003
9.435042e-003
9.433349e-003
9.431219e-003
9.428586e-003
9.425386e-003
9.421563e-003
9.417074e-003
9.411899e-003
9.406039e-003
9.399531e-003
9.392444e-003
9.384883e-003
9.376988e-003
9.368928e-003
9.360890e-003
9.353073e-003
9.345670e-003
9.338856e-003
9.332781e-003
9.327557e-003
9.323262e-003
9.319935e-003
9.317590e-003
9.316219e-003
9.315808e-003
9.316340e-003
9.317803e-003
9.320188e-003
9.323488e-003
9.327687e-003
9.332751e-003
9.338622e-003
9.345210e-003
9.352393e-003
9.360018e-003
9.367910e-003
9.375884e-003
9.383754e-003
9.391347e-003
9.398514e-003
9.405136e-003
9.411130e-003
9.416447e-003
9.421073e-003
9.425021e-003
9.428328e-003
9.431047e-003
9.433243e-003
9.434984e-003
9.436340e-003
9.437375e-003
9.438152e-003
9.438722e-003
9.439133e-003
9.439421e-003
9.439619e-003
9.439750e-003
9.439835e-003
9.439887e-003
9.439917e-003
9.439933e-003
9.439940e-003
9.439942e-003
9.439940e-003
9.439937e-003
9.439934e-003
9.439930e-003
9.439927e-003
9.439924e-003
9.439923e-003
9.439922e-003
9.439922e-003
9.439922e-003
9.439922e-003
9.439922e-003
9.439922e-003
9.439922e-003
9.439921e-003
9.439920e-003
9.439919e-003
9.439918e-003
9.439966e-003
9.439968e-003
9.439972e-003
9.439978e-003
9.439982e-003
9.439982e-003
9.439975e-003
9.439956e-003
9.439916e-003
9.439847e-003
9.439735e-003
9.439562e-003
9.439306e-003
9.438935e-003
9.438414e-003
9.437693e-003
9.436715e-003
9.435412e-003
9.433704e-003
9.431504e-003
9.428717e-003
9.425246e-003
9.420996e-003
9.415885e-003
9.409850e-003
9.402858e-003
9.394916e-003
9.386081e-003
9.376469e-003
9.366252e-003
9.355662e-003
9.344977e-003
9.334508e-003
9.324569e-003
9.315456e-003
9.307419e-003
9.300631e-003
9.295179e-003
9.291055e-003
9.288164e-003
9.286347e-003
9.285409e-003
9.285160e-003
9.285442e-003
9.286166e-003
9.287319e-003
9.288967e-003
9.291241e-003
9.294305e-003
9.298328e-003
9.303441e-003
9.309717e-003
9.317142e-003
9.325618e-003
9.334960e-003
9.344924e-003
9.355223e-003
9.365558e-003
9.375644e-003
9.385232e-003
9.394122e-003
9.402172e-003
9.409300e-003
9.415477e-003
9.420720e-003
9.425084e-003
9.428646e-003
9.431499e-003
9.433742e-003
9.435472e-003
9.436782e-003
9.437754e-003
9.438462e-003
9.438966e-003
9.439318e-003
9.439556e-003
9.439713e-003
9.439814e-003
9.439876e-003
9.439912e-003
9.439931e-003
9.439940e-003
9.439942e-003
9.439941e-003
9.439937e-003
9.439933e-003
9.439930e-003
9.439926e-003
9.439924e-003
9.439923e-003
9.439922e-003
9.439923e-003
9.439923e-003
9.439923e-003
9.439923e-003
9.439922e-003
9.439921e-003
9.439919e-003
9.439918e-003
9.439918e-003
9.439986e-003
9.439988e-003
9.439989e-003
9.439989e-003
9.439986e-003
9.439975e-003
9.439950e-003
9.439903e-003
9.439821e-003
9.439687e-003
9.439481e-003
9.439172e-003
9.438723e-003
9.438085e-003
9.437196e-003
9.435983e-003
9.434355e-003
9.432207e-003
9.429421e-003
9.425866e-003
9.421411e-003
9.415924e-003
9.409291e-003
9.401428e-003
9.392298e-003
9.381930e-003
9.370438e-003
9.358033e-003
9.345033e-003
9.331858e-003
9.319015e-003
9.307066e-003
9.296582e-003
9.288082e-003
9.281975e-003
9.278495e-003
9.277659e-003
9.279242e-003
9.282786e-003
9.287639e-003
9.293034e-003
9.298174e-003
9.302345e-003
9.305005e-003
9.305863e-003
9.304915e-003
9.302444e-003
9.298978e-003
9.295210e-003
9.291907e-003
9.289800e-003
9.289498e-003
9.291418e-003
9.295748e-003
9.302439e-003
9.311240e-003
9.321737e-003
9.333420e-003
9.345740e-003
9.358172e-003
9.370250e-003
9.381602e-003
9.391960e-003
9.401158e-003
9.409127e-003
9.415872e-003
9.421459e-003
9.425990e-003
9.429592e-003
9.432401e-003
9.434548e-003
9.436160e-003
9.437344e-003
9.438198e-003
9.438801e-003
9.439217e-003
9.439496e-003
9.439680e-003
9.439796e-003
9.439867e-003
9.439908e-003
9.439930e-003
9.439940e-003
9.439942e-003
9.439941e-003
9.439937e-003
9.439933e-003
9.439929e-003
9.439926e-003
9.439924e-003
9.439924e-003
9.439923e-003
9.439923e-003
9.439923e-003
9.439923e-003
9.439922e-003
9.439921e-003
9.439919e-003
9.439918e-003
9.439918e-003
9.440012e-003
9.440010e-003
9.440006e-003
9.439997e-003
9.439980e-003
9.439947e-003
9.439889e-003
9.439792e-003
9.439636e-003
9.439395e-003
9.439033e-003
9.438501e-003
9.437740e-003
9.436673e-003
9.435204e-003
9.433219e-003
9.430582e-003
9.427138e-003
9.422717e-003
9.417143e-003
9.410244e-003
9.401873e-003
9.391932e-003
9.380398e-003
9.367361e-003
9.353054e-003
9.337886e-003
9.322461e-003
9.307580e-003
9.294215e-003
9.283461e-003
9.276444e-003
9.274206e-003
9.277571e-003
9.287004e-003
9.302490e-003
9.323452e-003
9.348725e-003
9.376615e-003
9.405023e-003
9.431643e-003
9.454202e-003
9.470716e-003
9.479724e-003
9.480461e-003
9.472954e-003
9.458012e-003
9.437129e-003
9.412297e-003
9.385770e-003
9.359809e-003
9.336445e-003
9.317290e-003
9.303417e-003
9.295322e-003
9.292948e-003
9.295781e-003
9.302975e-003
9.313489e-003
9.326227e-003
9.340146e-003
9.354336e-003
9.368071e-003
9.380823e-003
9.392255e-003
9.402195e-003
9.410608e-003
9.417554e-003
9.423159e-003
9.427585e-003
9.431010e-003
9.433606e-003
9.435536e-003
9.436942e-003
9.437945e-003
9.438646e-003
9.439125e-003
9.439444e-003
9.439652e-003
9.439782e-003
9.439861e-003
9.439906e-003
9.439929e-003
9.439940e-003
9.439942e-003
9.439940e-003
9.439936e-003
9.439932e-003
9.439929e-003
9.439926e-003
9.439925e-003
9.439924e-003
9.439924e-003
9.439923e-003
9.439923e-003
9.439922e-003
9.439921e-003
9.439920e-003
9.439919e-003
9.439918e-003
9.440037e-003
9.440031e-003
9.440018e-003
9.439993e-003
9.439951e-003
9.439880e-003
9.439766e-003
9.439586e-003
9.439309e-003
9.438891e-003
9.438276e-003
9.437389e-003
9.436137e-003
9.434401e-003
9.432037e-003
9.428874e-003
9.424715e-003
9.419345e-003
9.412537e-003
9.404079e-003
9.393792e-003
9.381578e-003
9.367464e-003
9.351665e-003
9.334645e-003
9.317179e-003
9.300403e-003
9.285833e-003
9.275341e-003
9.271077e-003
9.275317e-003
9.290257e-003
9.317738e-003
9.358955e-003
9.414164e-003
9.482457e-003
9.561623e-003
9.648163e-003
9.737459e-003
9.824105e-003
9.902372e-003
9.966756e-003
1.001254e-002
1.003629e-002
1.003624e-002
1.001249e-002
9.966984e-003
9.903298e-003
9.826242e-003
9.741349e-003
9.654308e-003
9.570424e-003
9.494160e-003
9.428832e-003
9.376453e-003
9.337748e-003
9.312301e-003
9.298807e-003
9.295359e-003
9.299755e-003
9.309754e-003
9.323283e-003
9.338574e-003
9.354229e-003
9.369231e-003
9.382918e-003
9.394922e-003
9.405109e-003
9.413509e-003
9.420260e-003
9.425560e-003
9.429629e-003
9.432689e-003
9.434942e-003
9.436568e-003
9.437717e-003
9.438512e-003
9.439049e-003
9.439404e-003
9.439632e-003
9.439774e-003
9.439858e-003
9.439905e-003
9.439929e-003
9.439939e-003
9.439941e-003
9.439939e-003
9.439936e-003
9.439932e-003
9.439929e-003
9.439926e-003
9.439925e-003
9.439924e-003
9.439924e-003
9.439923e-003
9.439922e-003
9.439921e-003
9.439920e-003
9.439919e-003
9.439919e-003
9.440056e-003
9.440043e-003
9.440014e-003
9.439963e-003
9.439880e-003
9.439748e-003
9.439542e-003
9.439227e-003
9.438754e-003
9.438055e-003
9.437044e-003
9.435606e-003
9.433598e-003
9.430844e-003
9.427133e-003
9.422223e-003
9.415844e-003
9.407720e-003
9.397592e-003
9.385261e-003
9.370655e-003
9.353902e-003
9.335441e-003
9.316130e-003
9.297374e-003
9.281223e-003
9.270445e-003
9.268518e-003
9.279534e-003
9.307975e-003
9.358349e-003
9.434715e-003
9.540105e-003
9.675928e-003
9.841421e-003
1.003326e-002
1.024537e-002
1.046911e-002
1.069367e-002
1.090686e-002
1.109609e-002
1.124949e-002
1.135704e-002
1.141153e-002
1.140930e-002
1.135056e-002
1.123945e-002
1.108356e-002
1.089320e-002
1.068038e-002
1.045770e-002
1.023721e-002
1.002948e-002
9.842813e-003
9.682874e-003
9.552579e-003
9.452309e-003
9.380336e-003
9.333398e-003
9.307307e-003
9.297520e-003
9.299615e-003
9.309627e-003
9.324247e-003
9.340904e-003
9.357743e-003
9.373543e-003
9.387598e-003
9.399594e-003
9.409490e-003
9.417419e-003
9.423608e-003
9.428327e-003
9.431844e-003
9.434411e-003
9.436246e-003
9.437529e-003
9.438407e-003
9.438995e-003
9.439379e-003
9.439622e-003
9.439771e-003
9.439858e-003
9.439906e-003
9.439930e-003
9.439939e-003
9.439941e-003
9.439939e-003
9.439935e-003
9.439931e-003
9.439929e-003
9.439926e-003
9.439925e-003
9.439924e-003
9.439923e-003
9.439922e-003
9.439921e-003
9.439920e-003
9.439920e-003
9.439920e-003
9.440055e-003
9.440030e-003
9.439977e-003
9.439885e-003
9.439737e-003
9.439507e-003
9.439156e-003
9.438629e-003
9.437850e-003
9.436717e-003
9.435097e-003
9.432822e-003
9.429680e-003
9.425418e-003
9.419742e-003
9.412326e-003
9.402838e-003
9.390977e-003
9.376537e-003
9.359501e-003
9.340175e-003
9.319352e-003
9.298515e-003
9.280057e-003
9.267491e-003
9.265614e-003
9.280574e-003
9.319768e-003
9.391546e-003
9.504651e-003
9.667424e-003
9.886791e-003
1.016713e-002
1.050918e-002
1.090908e-002
1.135785e-002
1.184124e-002
1.234029e-002
1.283235e-002
1.329268e-002
1.369635e-002
1.402031e-002
1.424536e-002
1.435784e-002
1.435085e-002
1.422487e-002
1.398771e-002
1.365386e-002
1.324313e-002
1.277901e-002
1.228659e-002
1.179049e-002
1.131303e-002
1.087259e-002
1.048272e-002
1.015159e-002
9.882267e-003
9.673286e-003
9.519668e-003
9.414059e-003
9.347882e-003
9.312338e-003
9.299179e-003
9.301227e-003
9.312633e-003
9.328931e-003
9.346935e-003
9.364547e-003
9.380536e-003
9.394301e-003
9.405677e-003
9.414768e-003
9.421828e-003
9.427171e-003
9.431120e-003
9.433976e-003
9.435995e-003
9.437394e-003
9.438340e-003
9.438966e-003
9.439369e-003
9.439621e-003
9.439773e-003
9.439860e-003
9.439908e-003
9.439930e-003
9.439939e-003
9.439940e-003
9.439938e-003
9.439935e-003
9.439931e-003
9.439928e-003
9.439926e-003
9.439924e-003
9.439923e-003
9.439922e-003
9.439921e-003
9.439921e-003
9.439921e-003
9.439921e-003
9.440017e-003
9.439975e-003
9.439885e-003
9.439728e-003
9.439480e-003
9.439097e-003
9.438521e-003
9.437667e-003
9.436421e-003
9.434631e-003
9.432102e-003
9.428586e-003
9.423787e-003
9.417355e-003
9.408907e-003
9.398050e-003
9.384444e-003
9.367891e-003
9.348472e-003
9.326754e-003
9.304047e-003
9.282742e-003
9.266682e-003
9.261557e-003
9.275239e-003
9.317992e-003
9.402435e-003
9.543183e-003
9.756054e-003
1.005683e-002
1.045960e-002
1.097480e-002
1.160720e-002
1.235406e-002
1.320380e-002
1.413542e-002
1.511890e-002
1.611659e-002
1.708548e-002
1.798016e-002
1.875617e-002
1.937331e-002
1.979871e-002
2.000929e-002
1.999351e-002
1.975219e-002
1.929850e-002
1.865698e-002
1.786174e-002
1.695387e-002
1.597837e-002
1.498071e-002
1.400358e-002
1.308386e-002
1.225046e-002
1.152304e-002
1.091170e-002
1.041773e-002
1.003506e-002
9.752178e-003
9.554272e-003
9.425155e-003
9.348937e-003
9.311202e-003
9.299727e-003
9.304766e-003
9.319010e-003
9.337315e-003
9.356321e-003
9.374040e-003
9.389465e-003
9.402248e-003
9.412441e-003
9.420313e-003
9.426227e-003
9.430560e-003
9.433662e-003
9.435834e-003
9.437320e-003
9.438314e-003
9.438963e-003
9.439375e-003
9.439629e-003
9.439780e-003
9.439865e-003
9.439910e-003
9.439932e-003
9.439939e-003
9.439940e-003
9.439938e-003
9.439934e-003
9.439930e-003
9.439927e-003
9.439925e-003
9.439923e-003
9.439922e-003
9.439922e-003
9.439922e-003
9.439922e-003
9.439922e-003
9.439917e-003
9.439849e-003
9.439700e-003
9.439446e-003
9.439044e-003
9.438430e-003
9.437513e-003
9.436168e-003
9.434225e-003
9.431464e-003
9.427603e-003
9.422299e-003
9.415149e-003
9.405704e-003
9.393515e-003
9.378204e-003
9.359594e-003
9.337907e-003
9.314060e-003
9.290060e-003
9.269525e-003
9.258291e-003
9.265080e-003
9.302122e-003
9.385622e-003
9.535886e-003
9.776942e-003
1.013549e-002
1.063907e-002
1.131351e-002
1.217970e-002
1.325024e-002
1.452607e-002
1.599402e-002
1.762535e-002
1.937596e-002
2.118821e-002
2.299417e-002
2.472014e-002
2.629159e-002
2.763820e-002
2.869844e-002
2.942329e-002
2.977902e-002
2.974897e-002
2.933441e-002
2.855446e-002
2.744516e-002
2.605758e-002
2.445492e-002
2.270869e-002
2.089402e-002
1.908462e-002
1.734770e-002
1.573954e-002
1.430232e-002
1.306242e-002
1.203047e-002
1.120300e-002
1.056520e-002
1.009435e-002
9.763423e-003
9.544230e-003
9.410007e-003
9.337111e-003
9.305944e-003
9.301192e-003
9.311570e-003
9.329252e-003
9.349183e-003
9.368378e-003
9.385304e-003
9.399371e-003
9.410559e-003
9.419149e-003
9.425552e-003
9.430199e-003
9.433492e-003
9.435771e-003
9.437312e-003
9.438330e-003
9.438986e-003
9.439397e-003
9.439646e-003
9.439792e-003
9.439873e-003
9.439915e-003
9.439934e-003
9.439940e-003
9.439940e-003
9.439937e-003
9.439933e-003
9.439929e-003
9.439926e-003
9.439924e-003
9.439922e-003
9.439922e-003
9.439922e-003
9.439923e-003
9.439923e-003
9.439720e-003
9.439611e-003
9.439376e-003
9.438973e-003
9.438339e-003
9.437379e-003
9.435957e-003
9.433888e-003
9.430928e-003
9.426765e-003
9.421009e-003
9.413200e-003
9.402830e-003
9.389386e-003
9.372456e-003
9.351896e-003
9.328102e-003
9.302424e-003
9.277741e-003
9.259227e-003
9.255283e-003
9.278603e-003
9.347227e-003
9.485416e-003
9.724078e-003
1.010045e-002
1.065677e-002
1.143765e-002
1.248627e-002
1.383940e-002
1.552187e-002
1.754118e-002
1.988310e-002
2.250916e-002
2.535668e-002
2.834143e-002
3.136289e-002
3.431109e-002
3.707428e-002
3.954618e-002
4.163213e-002
4.325349e-002
4.435039e-002
4.488316e-002
4.483273e-002
4.420077e-002
4.300962e-002
4.130214e-002
3.914112e-002
3.660783e-002
3.379915e-002
3.082298e-002
2.779196e-002
2.481605e-002
2.199479e-002
1.941028e-002
1.712219e-002
1.516516e-002
1.354921e-002
1.226269e-002
1.127699e-002
1.055240e-002
1.004373e-002
9.705385e-003
9.495114e-003
9.376394e-003
9.319548e-003
9.301811e-003
9.306690e-003
9.322930e-003
9.343356e-003
9.363766e-003
9.381998e-003
9.397184e-003
9.409221e-003
9.418402e-003
9.425185e-003
9.430059e-003
9.433474e-003
9.435810e-003
9.437371e-003
9.438388e-003
9.439034e-003
9.439433e-003
9.439671e-003
9.439808e-003
9.439883e-003
9.439921e-003
9.439937e-003
9.439941e-003
9.439940e-003
9.439936e-003
9.439931e-003
9.439927e-003
9.439924e-003
9.439923e-003
9.439923e-003
9.439923e-003
9.439923e-003
9.439924e-003
9.439377e-003
9.439208e-003
9.438841e-003
9.438219e-003
9.437244e-003
9.435775e-003
9.433617e-003
9.430505e-003
9.426094e-003
9.419957e-003
9.411578e-003
9.400384e-003
9.385801e-003
9.367381e-003
9.345015e-003
9.319296e-003
9.292067e-003
9.267223e-003
9.251785e-003
9.257269e-003
9.301275e-003
9.409154e-003
9.615472e-003
9.964915e-003
1.051213e-002
1.132007e-002
1.245637e-002
1.398770e-002
1.597225e-002
1.845114e-002
2.143983e-002
2.492108e-002
2.884103e-002
3.310938e-002
3.760417e-002
4.218069e-002
4.668299e-002
5.095618e-002
5.485740e-002
5.826384e-002
6.107709e-002
6.322386e-002
6.465408e-002
6.533769e-002
6.526156e-002
6.442759e-002
6.285274e-002
6.057081e-002
5.763552e-002
5.412365e-002
5.013691e-002
4.580108e-002
4.126149e-002
3.667471e-002
3.219722e-002
2.797279e-002
2.412070e-002
2.072683e-002
1.783921e-002
1.546837e-002
1.359207e-002
1.216306e-002
1.111831e-002
1.038793e-002
9.902807e-003
9.600057e-003
9.426311e-003
9.338948e-003
9.305838e-003
9.304094e-003
9.318350e-003
9.338963e-003
9.360358e-003
9.379687e-003
9.395796e-003
9.408501e-003
9.418116e-003
9.425150e-003
9.430150e-003
9.433612e-003
9.435950e-003
9.437492e-003
9.438483e-003
9.439103e-003
9.439481e-003
9.439703e-003