# vtk DataFile Version 3.0
vtk output
ASCII
DATASET STRUCTURED_POINTS
DIMENSIONS 100 100 1
SPACING 1 1 1
ORIGIN 0 0 0
POINT_DATA 10000
SCALARS SFBox_profile double
LOOKUP_TABLE default 
0.000000e+000
0.000000e+000
0.000000e+000
0.000000e+000
0.000000e+000
0.000000e+000
0.000000e+000
0.000000e+000
0.000000e+000
0.000000e+000
0.000000e+000
0.000000e+000
0.000000e+000
0.000000e+000
0.000000e+000
0.000000e+000
0.000000e+000
0.000000e+000
0.000000e+000
0.000000e+000
0.000000e+000
0.000000e+000
0.000000e+000
0.000000e+000
0.000000e+000
0.000000e+000
0.000000e+000
0.000000e+000
0.000000e+000
0.000000e+000
0.000000e+000
0.000000e+000
0.000000e+000
0.000000e+000
0.000000e+000
0.000000e+000
0.000000e+000
0.000000e+000
0.000000e+000
0.000000e+000
0.000000e+000
0.000000e+000
0.000000e+000
0.000000e+000
0.000000e+000
0.000000e+000
0.000000e+000
0.000000e+000
0.000000e+000
0.000000e+000
0.000000e+000
0.000000e+000
0.000000e+000
0.000000e+000
0.000000e+000
0.000000e+000
0.000000e+000
0.000000e+000
0.000000e+000
0.000000e+000
0.000000e+000
0.000000e+000
0.000000e+000
0.000000e+000
0.000000e+000
0.000000e+000
0.000000e+000
0.000000e+000
0.000000e+000
0.000000e+000
0.000000e+000
0.000000e+000
0.000000e+000
0.000000e+000
0.000000e+000
0.000000e+000
0.000000e+000
0.000000e+000
0.000000e+000
0.000000e+000
0.000000e+000
0.000000e+000
0.000000e+000
0.000000e+000
0.000000e+000
0.000000e+000
0.000000e+000
0.000000e+000
0.000000e+000
0.000000e+000
0.000000e+000
0.000000e+000
0.000000e+000
0.000000e+000
0.000000e+000
0.000000e+000
0.000000e+000
0.000000e+000
0.000000e+000
0.000000e+000
-6.429590e-010
-3.649143e-010
7.458781e-011
4.887768e-010
6.951568e-010
5.886788e-010
1.849737e-010
-3.830843e-010
-9.139173e-010
-1.211858e-009
-1.158960e-009
-7.566707e-010
-1.222030e-010
5.574627e-010
1.094527e-009
1.364600e-009
1.341973e-009
1.095035e-009
7.478880e-010
4.272622e-010
2.172766e-010
1.381113e-010
1.521998e-010
1.897398e-010
1.793192e-010
7.083119e-011
-1.556114e-010
-4.935245e-010
-9.205776e-010
-1.408948e-009
-1.931149e-009
-2.460608e-009
-2.969105e-009
-3.424131e-009
-3.788493e-009
-4.022857e-009
-4.090313e-009
-3.961220e-009
-3.616700e-009
-3.050068e-009
-2.266496e-009
-1.281989e-009
-1.227385e-010
1.174649e-009
2.562449e-009
3.981701e-009
5.363867e-009
6.634979e-009
7.722098e-009
8.561042e-009
9.103802e-009
9.324047e-009
9.219572e-009
8.811347e-009
8.139532e-009
7.257400e-009
6.224276e-009
5.098554e-009
3.931706e-009
2.764090e-009
1.623288e-009
5.254842e-010
-5.201534e-010
-1.505037e-009
-2.414645e-009
-3.224555e-009
-3.901398e-009
-4.409801e-009
-4.724141e-009
-4.841552e-009
-4.791052e-009
-4.633719e-009
-4.451036e-009
-4.322269e-009
-4.296023e-009
-4.364228e-009
-4.447739e-009
-4.401071e-009
-4.040039e-009
-3.190945e-009
-1.753681e-009
2.358541e-010
2.565072e-009
4.849082e-009
6.596842e-009
7.337201e-009
6.775703e-009
4.928018e-009
2.168658e-009
-8.448003e-010
-3.363797e-009
-4.793723e-009
-4.894069e-009
-3.845645e-009
-2.151553e-009
-4.151820e-010
9.018957e-010
1.629652e-009
1.882445e-009
1.912318e-009
-2.160472e-010
-7.199813e-011
1.443817e-010
3.222606e-010
3.622573e-010
2.223999e-010
-6.073122e-011
-3.847068e-010
-6.220722e-010
-6.718048e-010
-4.999750e-010
-1.532776e-010
2.593105e-010
6.084205e-010
7.922309e-010
7.712857e-010
5.772963e-010
2.943974e-010
2.265017e-011
-1.599874e-010
-2.220836e-010
-1.818664e-010
-9.129989e-011
-1.087643e-011
1.301681e-011
-4.021574e-011
-1.665639e-010
-3.474633e-010
-5.619403e-010
-7.949216e-010
-1.039043e-009
-1.290878e-009
-1.544772e-009
-1.787808e-009
-1.998175e-009
-2.147332e-009
-2.204771e-009
-2.143431e-009
-1.944064e-009
-1.597678e-009
-1.106186e-009
-4.819751e-010
2.528046e-010
1.066882e-009
1.920636e-009
2.767581e-009
3.557107e-009
4.238609e-009
4.766567e-009
5.105704e-009
5.235187e-009
5.151056e-009
4.866520e-009
4.410237e-009
3.823040e-009
3.153652e-009
2.453815e-009
1.773113e-009
1.153719e-009
6.256184e-010
2.031357e-010
-1.161223e-010
-3.490625e-010
-5.215757e-010
-6.607384e-010
-7.868339e-010
-9.076951e-010
-1.017420e-009
-1.100220e-009
-1.138497e-009
-1.122713e-009
-1.059805e-009
-9.770299e-010
-9.191145e-010
-9.381126e-010
-1.077117e-009
-1.350758e-009
-1.727329e-009
-2.119229e-009
-2.389197e-009
-2.377825e-009
-1.951694e-009
-1.061439e-009
2.109083e-010
1.639920e-009
2.897174e-009
3.641800e-009
3.634636e-009
2.832592e-009
1.421132e-009
-2.347452e-010
-1.706150e-009
-2.637654e-009
-2.851858e-009
-2.382815e-009
-1.433590e-009
-2.865024e-010
7.893084e-010
1.596403e-009
2.022233e-009
4.248241e-010
3.553539e-010
2.208772e-010
3.738456e-011
-1.601513e-010
-3.186300e-010
-3.804684e-010
-3.065171e-010
-9.782395e-011
1.955974e-010
4.856969e-010
6.746334e-010
6.895802e-010
5.099361e-010
1.757654e-010
-2.258755e-010
-5.910641e-010
-8.336908e-010
-9.116229e-010
-8.354355e-010
-6.580568e-010
-4.510652e-010
-2.777923e-010
-1.734150e-010
-1.382566e-010
-1.446307e-010
-1.523949e-010
-1.259005e-010
-4.585438e-011
8.723043e-011
2.574741e-010
4.426348e-010
6.234067e-010
7.896393e-010
9.420034e-010
1.089593e-009
1.245191e-009
1.420200e-009
1.620729e-009
1.845472e-009
2.085295e-009
2.324127e-009
2.540715e-009
2.711052e-009
2.811332e-009
2.821243e-009
2.727147e-009
2.524521e-009
2.219008e-009
1.825753e-009
1.367150e-009
8.696939e-010
3.609049e-010
-1.327171e-010
-5.862079e-010
-9.753238e-010
-1.275293e-009
-1.460449e-009
-1.505871e-009
-1.391455e-009
-1.107725e-009
-6.617221e-010
-8.083049e-011
5.873317e-010
1.279878e-009
1.928116e-009
2.469908e-009
2.862381e-009
3.091918e-009
3.178322e-009
3.170598e-009
3.133185e-009
3.123908e-009
3.168156e-009
3.237099e-009
3.239597e-009
3.036143e-009
2.477640e-009
1.462714e-009
-2.766642e-012
-1.766669e-009
-3.533414e-009
-4.919157e-009
-5.551852e-009
-5.189893e-009
-3.820816e-009
-1.702008e-009
6.801676e-010
2.731404e-009
3.921067e-009
3.952611e-009
2.873449e-009
1.077506e-009
-8.136047e-010
-2.160258e-009
-2.534348e-009
-1.880186e-009
-5.366615e-010
8.971876e-010
1.804864e-009
9.630438e-010
6.864523e-010
2.218662e-010
-2.791952e-010
-6.477412e-010
-7.509489e-010
-5.381510e-010
-6.314391e-011
5.275003e-010
1.039241e-009
1.293731e-009
1.189699e-009
7.377641e-010
5.587869e-011
-6.725567e-010
-1.261275e-009
-1.580482e-009
-1.591796e-009
-1.348650e-009
-9.660544e-010
-5.743626e-010
-2.754030e-010
-1.154543e-010
-8.100503e-011
-1.141178e-010
-1.382080e-010
-8.357440e-011
9.531030e-011
4.139866e-010
8.622540e-010
1.414077e-009
2.038121e-009
2.705158e-009
3.390856e-009
4.074619e-009
4.736442e-009
5.353886e-009
5.900547e-009
6.346390e-009
6.659568e-009
6.809136e-009
6.768305e-009
6.518113e-009
6.051467e-009
5.377099e-009
4.522521e-009
3.534685e-009
2.477264e-009
1.424149e-009
4.498666e-010
-3.812888e-010
-1.024953e-009
-1.462747e-009
-1.702959e-009
-1.775399e-009
-1.721580e-009
-1.582637e-009
-1.388218e-009
-1.149392e-009
-8.576352e-010
-4.903191e-010
-2.137423e-011
5.656298e-010
1.265546e-009
2.044408e-009
2.839750e-009
3.569977e-009
4.152203e-009
4.525424e-009
4.673080e-009
4.637090e-009
4.515391e-009
4.438137e-009
4.524065e-009
4.826946e-009
5.289416e-009
5.724494e-009
5.840742e-009
5.315207e-009
3.901497e-009
1.544016e-009
-1.540623e-009
-4.852588e-009
-7.691035e-009
-9.325506e-009
-9.219347e-009
-7.238279e-009
-3.764008e-009
3.521345e-010
4.012754e-009
6.222272e-009
6.440476e-009
4.796099e-009
2.051556e-009
-6.925603e-010
-2.444580e-009
-2.728200e-009
-1.759163e-009
-3.024463e-010
7.269035e-010
1.134882e-009
7.400104e-010
1.041509e-010
-5.230962e-010
-8.910811e-010
-8.438814e-010
-3.812419e-010
3.384436e-010
1.054499e-009
1.498668e-009
1.492518e-009
1.011013e-009
1.890308e-010
-7.300832e-010
-1.482465e-009
-1.873607e-009
-1.836802e-009
-1.441347e-009
-8.527006e-010
-2.648931e-010
1.666109e-010
3.678572e-010
3.545574e-010
2.098291e-010
4.609367e-011
-3.203632e-011
4.818853e-011
3.205972e-010
7.866413e-010
1.428196e-009
2.219311e-009
3.132372e-009
4.137877e-009
5.200098e-009
6.272251e-009
7.294425e-009
8.195834e-009
8.900942e-009
9.337689e-009
9.445707e-009
9.183186e-009
8.532075e-009
7.502018e-009
6.133299e-009
4.498358e-009
2.700591e-009
8.688751e-010
-8.531381e-010
-2.322598e-009
-3.415910e-009
-4.046870e-009
-4.180775e-009
-3.841307e-009
-3.108269e-009
-2.106001e-009
-9.841397e-010
1.060552e-010
1.035655e-009
1.717941e-009
2.120444e-009
2.266710e-009
2.227054e-009
2.099692e-009
1.985545e-009
1.961909e-009
2.061243e-009
2.261436e-009
2.492202e-009
2.658689e-009
2.678069e-009
2.519215e-009
2.231622e-009
1.949675e-009
1.863638e-009
2.158860e-009
2.936921e-009
4.142874e-009
5.527064e-009
6.665657e-009
7.050443e-009
6.237429e-009
4.019621e-009
5.688913e-010
-3.515679e-009
-7.300774e-009
-9.759367e-009
-1.010424e-008
-8.102230e-009
-4.233698e-009
4.018189e-010
4.437035e-009
6.728306e-009
6.784749e-009
4.936938e-009
2.154397e-009
-4.117575e-010
-1.942921e-009
-2.270453e-009
-1.842495e-009
-1.372319e-009
8.476742e-010
4.715539e-010
-1.033405e-010
-6.030417e-010
-7.814678e-010
-5.323427e-010
6.105319e-011
7.589506e-010
1.264823e-009
1.347751e-009
9.359417e-010
1.445158e-010
-7.706389e-010
-1.511124e-009
-1.845459e-009
-1.687189e-009
-1.114472e-009
-3.287589e-010
4.261586e-010
9.504420e-010
1.147590e-009
1.039357e-009
7.383940e-010
3.965528e-010
1.524791e-010
9.717669e-011
2.647869e-010
6.442420e-010
1.200504e-009
1.893558e-009
2.687652e-009
3.549513e-009
4.439398e-009
5.301322e-009
6.058205e-009
6.614939e-009
6.868932e-009
6.724888e-009
6.109579e-009
4.983188e-009
3.345785e-009
1.239467e-009
-1.252395e-009
-4.007744e-009
-6.870372e-009
-9.657516e-009
-1.217182e-008
-1.421790e-008
-1.562230e-008
-1.625408e-008
-1.604262e-008
-1.498961e-008
-1.317305e-008
-1.074248e-008
-7.905833e-009
-4.909093e-009
-2.010533e-009
5.480706e-010
2.570246e-009
3.929904e-009
4.588414e-009
4.599539e-009
4.099258e-009
3.280002e-009
2.352260e-009
1.500451e-009
8.430142e-010
4.077797e-010
1.317558e-010
-1.108905e-010
-4.567749e-010
-9.898479e-010
-1.685749e-009
-2.384952e-009
-2.811167e-009
-2.640621e-009
-1.612375e-009
3.471486e-010
3.026051e-009
5.900734e-009
8.216540e-009
9.180806e-009
8.229155e-009
5.280120e-009
8.697246e-010
-3.921787e-009
-7.768269e-009
-9.538974e-009
-8.718004e-009
-5.619802e-009
-1.289670e-009
2.885252e-009
5.692105e-009
6.509273e-009
5.447198e-009
3.176283e-009
5.608648e-010
-1.697419e-009
-3.236291e-009
-3.984755e-009
2.018617e-010
-1.859054e-011
-3.135310e-010
-4.743152e-010
-3.504221e-010
5.819804e-011
5.872862e-010
9.807698e-010
1.012761e-009
5.985593e-010
-1.580633e-010
-1.001466e-009
-1.625591e-009
-1.794200e-009
-1.429446e-009
-6.355669e-010
3.467103e-010
1.232090e-009
1.790576e-009
1.918019e-009
1.655262e-009
1.155764e-009
6.206857e-010
2.296223e-010
9.183430e-011
2.303848e-010
5.966474e-010
1.101831e-009
1.649146e-009
2.154397e-009
2.550749e-009
2.781080e-009
2.785798e-009
2.494307e-009
1.825411e-009
6.973065e-010
-9.562214e-010
-3.169101e-009
-5.931046e-009
-9.183308e-009
-1.282186e-008
-1.670549e-008
-2.066586e-008
-2.451754e-008
-2.806791e-008
-3.112775e-008
-3.352325e-008
-3.510871e-008
-3.577838e-008
-3.547495e-008
-3.419345e-008
-3.198053e-008
-2.893092e-008
-2.518312e-008
-2.091578e-008
-1.634410e-008
-1.171404e-008
-7.290571e-009
-3.337681e-009
-8.977494e-011
2.281679e-009
3.699186e-009
4.198979e-009
3.931371e-009
3.137258e-009
2.102127e-009
1.095430e-009
3.086858e-010
-1.913650e-010
-4.791107e-010
-7.457167e-010
-1.233224e-009
-2.138343e-009
-3.509613e-009
-5.170911e-009
-6.706256e-009
-7.531549e-009
-7.055984e-009
-4.902061e-009
-1.117619e-009
3.707727e-009
8.499066e-009
1.195292e-008
1.294199e-008
1.093709e-008
6.278164e-009
1.593601e-010
-5.704490e-009
-9.630482e-009
-1.053822e-008
-8.318045e-009
-3.853402e-009
1.306744e-009
5.492263e-009
7.464771e-009
6.785737e-009
3.893702e-009
-1.021445e-010
-3.814599e-009
-6.019872e-009
-5.818253e-010
-5.523838e-010
-4.331172e-010
-1.618315e-010
2.499952e-010
6.805719e-010
9.329042e-010
8.295567e-010
3.163715e-010
-4.840463e-010
-1.302319e-009
-1.824962e-009
-1.822131e-009
-1.242196e-009
-2.331061e-010
9.145713e-010
1.874939e-009
2.399228e-009
2.391623e-009
1.925620e-009
1.202589e-009
4.743054e-010
-3.973276e-011
-2.126773e-010
-3.336732e-011
4.074427e-010
9.548491e-010
1.433707e-009
1.683470e-009
1.576310e-009
1.019310e-009
-5.262212e-011
-1.684673e-009
-3.904521e-009
-6.717106e-009
-1.009417e-008
-1.396397e-008
-1.820675e-008
-2.265956e-008
-2.712998e-008
-3.141551e-008
-3.532351e-008
-3.868811e-008
-4.138214e-008
-4.332456e-008
-4.448449e-008
-4.488163e-008
-4.458168e-008
-4.368488e-008
-4.230698e-008
-4.055499e-008
-3.850351e-008
-3.617913e-008
-3.355971e-008
-3.059151e-008
-2.722167e-008
-2.343760e-008
-1.930131e-008
-1.496673e-008
-1.067154e-008
-6.702582e-009
-3.341013e-009
-8.005708e-010
8.251962e-010
1.591567e-009
1.696927e-009
1.439828e-009
1.144688e-009
1.070794e-009
1.326662e-009
1.816069e-009
2.240472e-009
2.172868e-009
1.199416e-009
-9.003039e-010
-3.988684e-009
-7.489663e-009
-1.045238e-008
-1.178111e-008
-1.059179e-008
-6.589690e-009
-3.221610e-010
6.825982e-009
1.295160e-008
1.620495e-008
1.543535e-008
1.067127e-008
3.225700e-009
-4.658776e-009
-1.053755e-008
-1.261854e-008
-1.042415e-008
-4.989709e-009
1.508927e-009
6.582293e-009
8.397154e-009
6.497496e-009
1.967629e-009
-3.046846e-009
-6.267917e-009
-1.277010e-009
-9.696307e-010
-4.192710e-010
2.396935e-010
8.120165e-010
1.086369e-009
9.141929e-010
2.905038e-010
-6.102694e-010
-1.475406e-009
-1.965457e-009
-1.850344e-009
-1.107777e-009
6.168746e-011
1.309022e-009
2.266098e-009
2.674455e-009
2.463937e-009
1.757977e-009
8.136619e-010
-7.304598e-011
-6.603211e-010
-8.233946e-010
-5.750649e-010
-4.748846e-011
5.505394e-010
9.835290e-010
1.032422e-009
5.234672e-010
-6.578453e-010
-2.563809e-009
-5.186822e-009
-8.462293e-009
-1.227009e-008
-1.643558e-008
-2.073359e-008
-2.489928e-008
-2.864810e-008
-3.170359e-008
-3.382882e-008
-3.485500e-008
-3.470221e-008
-3.338982e-008
-3.103751e-008
-2.785933e-008
-2.415205e-008
-2.027688e-008
-1.663162e-008
-1.361064e-008
-1.155387e-008
-1.069098e-008
-1.109213e-008
-1.263855e-008
-1.502428e-008
-1.779440e-008
-2.041645e-008
-2.237274e-008
-2.325544e-008
-2.284318e-008
-2.114201e-008
-1.838016e-008
-1.495690e-008
-1.135567e-008
-8.039187e-009
-5.348465e-009
-3.427744e-009
-2.194325e-009
-1.365820e-009
-5.471551e-010
6.348824e-010
2.378877e-009
4.582555e-009
6.794319e-009
8.283885e-009
8.243181e-009
6.082043e-009
1.733544e-009
-4.148330e-009
-1.020933e-008
-1.468867e-008
-1.594404e-008
-1.305924e-008
-6.314223e-009
2.699326e-009
1.143575e-008
1.717503e-008
1.798617e-008
1.351415e-008
5.241065e-009
-3.958578e-009
-1.086618e-008
-1.318333e-008
-1.047578e-008
-4.347535e-009
2.284868e-009
6.524482e-009
6.819374e-009
3.635007e-009
-8.714563e-010
-4.019362e-009
-1.740869e-009
-1.195533e-009
-3.060783e-010
5.929441e-010
1.151403e-009
1.135608e-009
5.274537e-010
-4.527193e-010
-1.418283e-009
-1.962698e-009
-1.822918e-009
-9.897890e-010
2.839413e-010
1.581766e-009
2.483864e-009
2.720449e-009
2.256782e-009
1.283553e-009
1.284112e-010
-8.668653e-010
-1.454409e-009
-1.540577e-009
-1.190842e-009
-5.925808e-010
1.621850e-012
3.299538e-010
1.652352e-010
-6.557539e-010
-2.214769e-009
-4.502865e-009
-7.417455e-009
-1.076542e-008
-1.427283e-008
-1.760161e-008
-2.037336e-008
-2.220002e-008
-2.272020e-008
-2.163826e-008
-1.876098e-008
-1.402555e-008
-7.513770e-009
5.490674e-010
9.807753e-009
1.979761e-008
2.996695e-008
3.970039e-008
4.834643e-008
5.525507e-008
5.982954e-008
6.159109e-008
6.024871e-008
5.576072e-008
4.837324e-008
3.862305e-008
2.729829e-008
1.535799e-008
3.819337e-009
-6.371245e-009
-1.446285e-008
-1.999906e-008
-2.287307e-008
-2.332732e-008
-2.189564e-008
-1.929468e-008
-1.628027e-008
-1.349167e-008
-1.131308e-008
-9.785773e-009
-8.602534e-009
-7.204310e-009
-4.975227e-009
-1.498582e-009
3.197372e-009
8.495127e-009
1.322838e-008
1.594671e-008
1.536927e-008
1.090663e-008
3.066673e-009
-6.447232e-009
-1.506613e-008
-2.009015e-008
-1.962920e-008
-1.341373e-008
-3.115379e-009
8.049098e-009
1.638647e-008
1.911144e-008
1.548335e-008
7.160432e-009
-2.461794e-009
-9.695048e-009
-1.214431e-008
-9.675523e-009
-4.280964e-009
1.083186e-009
4.063003e-009
4.028949e-009
2.157662e-009
4.766123e-010
-1.937522e-009
-1.248285e-009
-1.852541e-010
7.653782e-010
1.169997e-009
8.474727e-010
-4.576473e-011
-1.084266e-009
-1.763883e-009
-1.726621e-009
-9.183994e-010
3.888424e-010
1.715529e-009
2.575077e-009
2.665819e-009
1.974386e-009
7.566644e-010
-5.817464e-010
-1.644910e-009
-2.178823e-009
-2.133119e-009
-1.645821e-009
-9.756755e-010
-4.188494e-010
-2.396419e-010
-6.274370e-010
-1.676057e-009
-3.374825e-009
-5.603466e-009
-8.130374e-009
-1.061940e-008
-1.265061e-008
-1.375638e-008
-1.346878e-008
-1.137128e-008
-7.147560e-009
-6.212211e-010
8.218008e-009
1.920556e-008
3.201283e-008
4.617604e-008
6.113720e-008
7.628725e-008
9.100165e-008
1.046631e-007
1.166727e-007
1.264585e-007
1.334890e-007
1.372999e-007
1.375327e-007
1.339792e-007
1.266239e-007
1.156756e-007
1.015825e-007
8.502793e-008
6.690216e-008
4.824685e-008
3.017133e-008
1.374390e-008
-1.302403e-010
-1.082649e-008
-1.809178e-008
-2.208769e-008
-2.336910e-008
-2.279006e-008
-2.134026e-008
-1.993164e-008
-1.917375e-008
-1.919377e-008
-1.956469e-008
-1.939340e-008
-1.758458e-008
-1.324040e-008
-6.093690e-009
3.173105e-009
1.287523e-008
2.063688e-008
2.405180e-008
2.153379e-008
1.307213e-008
5.634512e-010
-1.251908e-008
-2.213378e-008
-2.507472e-008
-2.025095e-008
-9.271533e-009
4.014071e-009
1.493685e-008
1.984152e-008
1.752996e-008
9.640296e-009
-2.236154e-010
-8.179941e-009
-1.172969e-008
-1.058562e-008
-6.344653e-009
-1.325962e-009
2.675392e-009
5.013418e-009
5.959782e-009
-1.900499e-009
-1.193783e-009
-1.523808e-010
6.806178e-010
8.830425e-010
3.784625e-010
-5.251056e-010
-1.298882e-009
-1.468314e-009
-8.544144e-010
3.384448e-010
1.623311e-009
2.459513e-009
2.492545e-009
1.694316e-009
3.514788e-010
-1.075437e-009
-2.145660e-009
-2.597627e-009
-2.417044e-009
-1.805337e-009
-1.082275e-009
-5.738618e-010
-5.270376e-010
-1.067345e-009
-2.191242e-009
-3.773438e-009
-5.574195e-009
-7.244943e-009
-8.342063e-009
-8.360664e-009
-6.792192e-009
-3.197820e-009
2.718733e-009
1.105593e-008
2.168774e-008
3.426889e-008
4.826919e-008
6.303139e-008
7.784454e-008
9.202280e-008
1.049764e-007
1.162615e-007
1.256003e-007
1.328703e-007
1.380709e-007
1.412810e-007
1.426189e-007
1.422089e-007
1.401543e-007
1.365131e-007
1.312789e-007
1.243772e-007
1.156881e-007
1.051045e-007
9.261895e-008
7.841610e-008
6.293989e-008
4.690411e-008
3.123049e-008
1.691790e-008
4.865860e-009
-4.311162e-009
-1.043574e-008
-1.384397e-008
-1.535189e-008
-1.609429e-008
-1.724590e-008
-1.967251e-008
-2.359813e-008
-2.839953e-008
-3.263489e-008
-3.436721e-008
-3.175709e-008
-2.378972e-008
-1.090527e-008
4.737636e-009
1.957491e-008
2.956464e-008
3.151941e-008
2.439945e-008
1.002234e-008
-7.227453e-009
-2.174641e-008
-2.870493e-008
-2.591059e-008
-1.472161e-008
4.575072e-010
1.394428e-008
2.105882e-008
1.990798e-008
1.190332e-008
8.634314e-010
-8.775667e-009
-1.375425e-008
-1.301554e-008
-7.680731e-009
-2.279612e-010
6.581807e-009
1.056163e-008
-1.672163e-009
-1.082243e-009
-2.471867e-010
3.555818e-010
4.084683e-010
-5.358519e-011
-6.660824e-010
-9.559884e-010
-6.252429e-010
2.699552e-010
1.342166e-009
2.075765e-009
2.090179e-009
1.321653e-009
3.895907e-011
-1.297316e-009
-2.246562e-009
-2.564757e-009
-2.274120e-009
-1.615952e-009
-9.300307e-010
-5.248876e-010
-5.892617e-010
-1.161507e-009
-2.141982e-009
-3.319537e-009
-4.390468e-009
-4.968068e-009
-4.598589e-009
-2.803500e-009
8.438615e-010
6.619171e-009
1.455332e-008
2.437455e-008
3.550604e-008
4.712080e-008
5.824051e-008
6.785809e-008
7.506414e-008
7.916106e-008
7.975119e-008
7.678761e-008
7.058014e-008
6.175690e-008
5.119183e-008
3.991505e-008
2.902185e-008
1.958689e-008
1.257794e-008
8.758728e-009
8.577037e-009
1.205316e-008
1.870299e-008
2.753811e-008
3.717267e-008
4.603598e-008
5.265287e-008
5.592687e-008
5.535546e-008
5.112390e-008
4.405483e-008
3.542359e-008
2.667502e-008
1.909385e-008
1.349135e-008
9.977170e-009
7.885014e-009
5.905357e-009
2.440435e-009
-3.864911e-009
-1.353686e-008
-2.581315e-008
-3.851261e-008
-4.838530e-008
-5.196419e-008
-4.674843e-008
-3.235711e-008
-1.118686e-008
1.182650e-008
3.047180e-008
3.926695e-008
3.552278e-008
2.061117e-008
-2.213614e-010
-1.960251e-008
-3.075968e-008
-3.013034e-008
-1.872852e-008
-1.638999e-009
1.416389e-008
2.271804e-008
2.142720e-008
1.187791e-008
-1.142452e-009
-1.188606e-008
-1.610120e-008
-1.266501e-008
-3.795199e-009
6.120353e-009
1.249714e-008
-1.260667e-009
-9.036781e-010
-4.164466e-010
-9.064154e-011
-7.448377e-011
-2.662304e-010
-3.859932e-010
-1.775584e-010
3.977708e-010
1.106970e-009
1.568000e-009
1.471326e-009
7.626460e-010
-3.204008e-010
-1.371356e-009
-2.018956e-009
-2.096527e-009
-1.694443e-009
-1.086583e-009
-5.871529e-010
-4.173932e-010
-6.385198e-010
-1.160120e-009
-1.792594e-009
-2.298988e-009
-2.417592e-009
-1.857894e-009
-2.983699e-010
2.580028e-009
7.008932e-009
1.301149e-008
2.028694e-008
2.814971e-008
3.555556e-008
4.121686e-008
4.377943e-008
4.201857e-008
3.501415e-008
2.227840e-008
3.825197e-009
-1.982039e-008
-4.766758e-008
-7.835051e-008
-1.102466e-007
-1.415991e-007
-1.706199e-007
-1.955627e-007
-2.147770e-007
-2.267714e-007
-2.303217e-007
-2.246362e-007
-2.095572e-007
-1.857399e-007
-1.547320e-007
-1.188956e-007
-8.115431e-008
-4.460431e-008
-1.207007e-008
1.430059e-008
3.332245e-008
4.489260e-008
4.993172e-008
5.015858e-008
4.772556e-008
4.475657e-008
4.285120e-008
4.264937e-008
4.357723e-008
4.389596e-008
4.113050e-008
3.285788e-008
1.769902e-008
-3.775364e-009
-2.858846e-008
-5.166726e-008
-6.703535e-008
-6.967800e-008
-5.751806e-008
-3.272792e-008
-1.681558e-009
2.672338e-008
4.398062e-008
4.510496e-008
3.068360e-008
6.852978e-009
-1.697699e-008
-3.182544e-008
-3.273063e-008
-2.065144e-008
-1.812545e-009
1.522246e-008
2.341269e-008
2.026068e-008
8.620062e-009
-5.019323e-009
-1.386993e-008
-1.414737e-008
-6.730259e-009
3.580087e-009
1.075186e-008
-6.323505e-010
-5.803403e-010
-5.151357e-010
-4.628676e-010
-3.871221e-010
-1.988993e-010
1.654625e-010
6.544997e-010
1.079267e-009
1.196108e-009
8.541370e-010
1.115898e-010
-7.637395e-010
-1.422145e-009
-1.615932e-009
-1.330218e-009
-7.842294e-010
-3.061658e-010
-1.575881e-010
-4.054195e-010
-9.026899e-010
-1.371734e-009
-1.528657e-009
-1.175493e-009
-2.181406e-010
1.379334e-009
3.651926e-009
6.642222e-009
1.032830e-008
1.448751e-008
1.855556e-008
2.155500e-008
2.214590e-008
1.880468e-008
1.008718e-008
-5.097538e-009
-2.727451e-008
-5.629660e-008
-9.135408e-008
-1.310815e-007
-1.737302e-007
-2.173716e-007
-2.600985e-007
-3.001883e-007
-3.361966e-007
-3.669600e-007
-3.915143e-007
-4.089701e-007
-4.184114e-007
-4.188894e-007
-4.095453e-007
-3.898479e-007
-3.598732e-007
-3.205293e-007
-2.736389e-007
-2.218382e-007
-1.683071e-007
-1.163875e-007
-6.916816e-008
-2.910150e-008
2.299511e-009
2.465532e-008
3.877801e-008
4.655975e-008
5.065574e-008
5.394872e-008
5.884077e-008
6.650312e-008
7.629691e-008
8.561454e-008
9.034260e-008
8.599470e-008
6.932372e-008
3.996290e-008
1.471047e-009
-3.881283e-008
-7.139316e-008
-8.746145e-008
-8.209799e-008
-5.658852e-008
-1.871508e-008
1.945355e-008
4.570975e-008
5.226547e-008
3.879812e-008
1.253590e-008
-1.482986e-008
-3.215147e-008
-3.352331e-008
-2.050522e-008
-8.451602e-010
1.562440e-008
2.183589e-008
1.663933e-008
4.728329e-009
-6.459281e-009
-1.104629e-008
-7.802708e-009
-3.504857e-010
5.483245e-009
2.701060e-010
8.754920e-012
-3.457947e-010
-5.497450e-010
-4.234661e-010
3.341715e-011
6.177618e-010
1.013737e-009
9.608406e-010
4.109066e-010
-4.194062e-010
-1.143388e-009
-1.405694e-009
-1.082321e-009
-3.633559e-010
3.359557e-010
5.936627e-010
2.123049e-010
-6.620094e-010
-1.594899e-009
-2.060226e-009
-1.671866e-009
-3.339090e-010
1.754462e-009
4.219650e-009
6.673143e-009
8.807220e-009
1.036501e-008
1.099702e-008
1.008482e-008
6.641915e-009
-6.232200e-010
-1.306402e-008
-3.173333e-008
-5.701599e-008
-8.837764e-008
-1.243109e-007
-1.624956e-007
-2.001294e-007
-2.343517e-007
-2.626772e-007
-2.833689e-007
-2.956945e-007
-3.000229e-007
-2.977333e-007
-2.909330e-007
-2.820233e-007
-2.731982e-007
-2.659919e-007
-2.609862e-007
-2.577461e-007
-2.549868e-007
-2.509131e-007
-2.436390e-007
-2.315946e-007
-2.138539e-007
-1.903430e-007
-1.619124e-007
-1.302640e-007
-9.772905e-008
-6.690193e-008
-4.015409e-008
-1.909268e-008
-4.075024e-009
6.067447e-009
1.393675e-008
2.300287e-008
3.658558e-008
5.657739e-008
8.227315e-008
1.097703e-007
1.323588e-007
1.420882e-007
1.322939e-007
1.003969e-007
4.994041e-008
-9.183441e-009
-6.288844e-008
-9.711190e-008
-1.027742e-007
-7.953131e-008
-3.653319e-008
1.053736e-008
4.527105e-008
5.688247e-008
4.432020e-008
1.619688e-008
-1.350600e-008
-3.195152e-008
-3.304363e-008
-1.943209e-008
-1.255871e-010
1.478255e-008
1.930693e-008
1.392307e-008
4.087372e-009
-3.802444e-009
-6.330312e-009
-4.491083e-009
-2.011749e-009
1.505738e-009
9.876761e-010
2.742838e-010
-2.081226e-010
-2.186304e-010
1.366911e-010
4.821049e-010
4.386602e-010
-9.830128e-011
-8.587821e-010
-1.349220e-009
-1.166722e-009
-2.814324e-010
8.926186e-010
1.692722e-009
1.566646e-009
3.984001e-010
-1.378900e-009
-2.947095e-009
-3.463002e-009
-2.437332e-009
4.534000e-011
3.355281e-009
6.558219e-009
8.731736e-009
9.195844e-009
7.552864e-009
3.539084e-009
-3.204544e-009
-1.328308e-008
-2.748489e-008
-4.646224e-008
-7.023010e-008
-9.765143e-008
-1.261056e-007
-1.514895e-007
-1.686011e-007
-1.718423e-007
-1.561030e-007
-1.176533e-007
-5.489535e-008
3.113846e-008
1.366103e-007
2.550603e-007
3.779501e-007
4.955254e-007
5.978980e-007
6.761987e-007
7.236282e-007
7.362488e-007
7.134190e-007
6.578349e-007
5.751970e-007
4.735443e-007
3.623192e-007
2.512484e-007
1.491673e-007
6.295245e-008
-3.262424e-009
-4.844176e-008
-7.449067e-008
-8.558305e-008
-8.706073e-008
-8.408065e-008
-8.027601e-008
-7.676156e-008
-7.181371e-008
-6.145642e-008
-4.097039e-008
-7.043092e-009
4.003304e-008
9.491774e-008
1.473203e-007
1.840806e-007
1.930143e-007
1.674819e-007
1.099993e-007
3.312975e-008
-4.335508e-008
-9.860716e-008
-1.180857e-007
-9.919709e-008
-5.253967e-008
2.184875e-009
4.412151e-008
5.965400e-008
4.742586e-008
1.770014e-008
-1.345958e-008
-3.212401e-008
-3.252652e-008
-1.837716e-008
6.582208e-010
1.484290e-008
1.914621e-008
1.452691e-008
5.710277e-009
-2.469385e-009
-7.592029e-009
-9.728005e-009
3.122518e-009
2.440588e-009
1.432784e-009
5.476865e-010
9.508700e-012
-2.994333e-010
-6.640224e-010
-1.212960e-009
-1.716993e-009
-1.694912e-009
-7.798808e-010
9.095960e-010
2.677719e-009
3.547702e-009
2.799805e-009
4.395422e-010
-2.686262e-009
-5.210812e-009
-5.852562e-009
-4.007514e-009
-5.201702e-011
4.764666e-009
8.759811e-009
1.036805e-008
8.556475e-009
2.946808e-009
-6.356012e-009
-1.907773e-008
-3.499931e-008
-5.388453e-008
-7.502492e-008
-9.648932e-008
-1.143205e-007
-1.219952e-007
-1.104254e-007
-6.863755e-008
1.491816e-008
1.506458e-007
3.459786e-007
6.037669e-007
9.211330e-007
1.288955e-006
1.692051e-006
2.110076e-006
2.519036e-006
2.893314e-006
3.207955e-006
3.440987e-006
3.575478e-006
3.601158e-006
3.515460e-006
3.323918e-006
3.039863e-006
2.683371e-006
2.279450e-006
1.855572e-006
1.438811e-006
1.053004e-006
7.163684e-007
4.399466e-007
2.270884e-007
7.401475e-008
-2.862958e-008
-9.344105e-008
-1.334732e-007
-1.594661e-007
-1.776585e-007
-1.887611e-007
-1.885231e-007
-1.699883e-007
-1.270536e-007
-5.839919e-008
2.955512e-008
1.220619e-007
1.987184e-007
2.391979e-007
2.304463e-007
1.726409e-007
8.106902e-008
-1.768501e-008
-9.452451e-008
-1.284138e-007
-1.142756e-007
-6.453271e-008
-3.342645e-009
4.398344e-008
6.149895e-008
4.821756e-008
1.645275e-008
-1.571618e-008
-3.361039e-008
-3.207458e-008
-1.598836e-008
4.136118e-009
1.831957e-008
2.156555e-008
1.479466e-008
2.804813e-009
-8.757617e-009
-1.559978e-008
5.146390e-009
4.367927e-009
3.046087e-009
1.481849e-009
-1.244180e-010
-1.664122e-009
-2.943977e-009
-3.545499e-009
-2.941337e-009
-8.842541e-010
2.185683e-009
5.072435e-009
6.271795e-009
4.761807e-009
6.882086e-010
-4.494779e-009
-8.572986e-009
-9.562798e-009
-6.651611e-009
-6.337034e-010
6.339033e-009
1.153415e-008
1.256395e-008
8.063363e-009
-2.108840e-009