# vtk DataFile Version 3.0
vtk output
ASCII
DATASET STRUCTURED_POINTS
DIMENSIONS 100 100 1
SPACING 1 1 1
ORIGIN 0 0 0
POINT_DATA 10000
SCALARS SFBox_profile double
LOOKUP_TABLE default 
0.000000e+000
0.000000e+000
0.000000e+000
0.000000e+000
0.000000e+000
0.000000e+000
0.000000e+000
0.000000e+000
0.000000e+000
0.000000e+000
0.000000e+000
0.000000e+000
0.000000e+000
0.000000e+000
0.000000e+000
0.000000e+000
0.000000e+000
0.000000e+000
0.000000e+000
0.000000e+000
0.000000e+000
0.000000e+000
0.000000e+000
0.000000e+000
0.000000e+000
0.000000e+000
0.000000e+000
0.000000e+000
0.000000e+000
0.000000e+000
0.000000e+000
0.000000e+000
0.000000e+000
0.000000e+000
0.000000e+000
0.000000e+000
0.000000e+000
0.000000e+000
0.000000e+000
0.000000e+000
0.000000e+000
0.000000e+000
0.000000e+000
0.000000e+000
0.000000e+000
0.000000e+000
0.000000e+000
0.000000e+000
0.000000e+000
0.000000e+000
0.000000e+000
0.000000e+000
0.000000e+000
0.000000e+000
0.000000e+000
0.000000e+000
0.000000e+000
0.000000e+000
0.000000e+000
0.000000e+000
0.000000e+000
0.000000e+000
0.000000e+000
0.000000e+000
0.000000e+000
0.000000e+000
0.000000e+000
0.000000e+000
0.000000e+000
0.000000e+000
0.000000e+000
0.000000e+000
0.000000e+000
0.000000e+000
0.000000e+000
0.000000e+000
0.000000e+000
0.000000e+000
0.000000e+000
0.000000e+000
0.000000e+000
0.000000e+000
0.000000e+000
0.000000e+000
0.000000e+000
0.000000e+000
0.000000e+000
0.000000e+000
0.000000e+000
0.000000e+000
0.000000e+000
0.000000e+000
0.000000e+000
0.000000e+000
0.000000e+000
0.000000e+000
0.000000e+000
0.000000e+000
0.000000e+000
0.000000e+000
-1.568113e-008
-1.085000e-008
-3.079603e-009
4.410221e-009
8.326543e-009
6.978574e-009
1.438791e-009
-4.831062e-009
-7.989617e-009
-6.252050e-009
-1.019342e-009
4.180370e-009
6.195623e-009
4.359870e-009
6.753927e-010
-1.970067e-009
-2.086051e-009
-5.374795e-010
5.324443e-010
-2.015142e-010
-2.037242e-009
-3.025290e-009
-1.967049e-009
3.484736e-010
1.929833e-009
1.603396e-009
1.698060e-010
-5.287227e-010
3.719528e-010
1.847171e-009
2.170472e-009
8.584719e-010
-8.109311e-010
-1.265265e-009
-3.862103e-010
4.560106e-010
6.559414e-011
-1.198251e-009
-1.917486e-009
-1.334444e-009
-2.190927e-010
1.119253e-010
-6.168983e-010
-1.372569e-009
-1.138504e-009
-1.663389e-010
3.695988e-010
-1.579994e-010
-1.074305e-009
-1.272860e-009
-5.939310e-010
1.026388e-011
-2.963171e-010
-1.168212e-009
-1.505845e-009
-8.274482e-010
1.351167e-010
3.548508e-010
-2.111902e-010
-5.771624e-010
2.951489e-011
1.184125e-009
1.758181e-009
1.280442e-009
4.886931e-010
3.968918e-010
1.026465e-009
1.360353e-009
5.859862e-010
-8.737759e-010
-1.789990e-009
-1.514439e-009
-6.820100e-010
-4.062421e-010
-9.276115e-010
-1.310648e-009
-5.547820e-010
1.155476e-009
2.495227e-009
2.310248e-009
7.700557e-010
-8.486486e-010
-1.447943e-009
-1.062704e-009
-5.459519e-010
-4.702028e-010
-5.201300e-010
-1.458480e-011
1.092888e-009
1.912993e-009
1.434039e-009
-3.468226e-010
-2.164943e-009
-2.474282e-009
-8.357795e-010
1.570310e-009
2.834553e-009
1.892383e-009
-5.568568e-010
-2.582971e-009
-7.764383e-010
-1.002263e-009
-1.009626e-009
-4.409420e-010
4.919485e-010
1.112153e-009
8.972314e-010
7.084017e-012
-8.052830e-010
-8.366799e-010
-5.711319e-011
8.368933e-010
9.979208e-010
1.657772e-010
-1.049138e-009
-1.618519e-009
-9.676153e-010
4.653805e-010
1.539254e-009
1.406888e-009
3.121717e-010
-6.268641e-010
-5.186988e-010
3.939246e-010
9.929664e-010
4.938637e-010
-6.769675e-010
-1.324258e-009
-7.963828e-010
2.894847e-010
7.460152e-010
1.595547e-010
-6.600012e-010
-6.431304e-010
2.882164e-010
1.146416e-009
1.053520e-009
2.609534e-010
-1.900234e-010
2.675087e-010
1.069955e-009
1.245524e-009
6.056024e-010
-5.073522e-011
5.998353e-011
7.525821e-010
1.136100e-009
7.366574e-010
7.323891e-011
-1.310311e-011
5.828479e-010
1.108580e-009
9.031627e-010
2.172381e-010
-1.167941e-010
2.633629e-010
7.984614e-010
7.143336e-010
-5.525916e-012
-5.958866e-010
-4.575554e-010
1.068631e-010
2.801904e-010
-2.451010e-010
-8.745253e-010
-8.329665e-010
-1.118668e-010
5.146822e-010
4.189243e-010
-1.369927e-010
-3.364266e-010
1.902251e-010
9.008664e-010
9.631233e-010
2.234942e-010
-6.058616e-010
-7.421611e-010
-1.804786e-010
3.567168e-010
2.671784e-010
-2.729154e-010
-5.601811e-010
-1.945361e-010
4.628839e-010
6.955763e-010
2.251466e-010
-4.795604e-010
-6.931153e-010
-1.861285e-010
5.414264e-010
7.624868e-010
2.370094e-010
-5.602164e-010
-8.912777e-010
-4.366015e-010
4.214485e-010
9.442662e-010
6.811870e-010
-1.507620e-010
-8.589806e-010
1.601335e-008
1.037175e-008
1.893247e-009
-5.326543e-009
-8.077986e-009
-5.671940e-009
-1.499042e-010
5.011855e-009
6.940228e-009
4.941985e-009
6.718978e-010
-3.168252e-009
-4.661119e-009
-3.726904e-009
-1.723067e-009
-9.975577e-011
6.631613e-010
1.015739e-009
1.487203e-009
2.026398e-009
2.163746e-009
1.656602e-009
8.038566e-010
1.026470e-010
-2.761136e-010
-5.558656e-010
-9.444490e-010
-1.311896e-009
-1.361757e-009
-1.039768e-009
-6.240304e-010
-3.756331e-010
-2.157955e-010
1.359893e-010
7.382653e-010
1.283002e-009
1.443945e-009
1.284711e-009
1.192973e-009
1.402245e-009
1.699237e-009
1.695279e-009
1.328612e-009
9.638186e-010
9.564853e-010
1.226332e-009
1.373967e-009
1.192014e-009
9.256548e-010
9.567774e-010
1.313497e-009
1.622832e-009
1.561561e-009
1.235825e-009
1.019425e-009
1.067047e-009
1.119956e-009
8.407557e-010
2.455691e-010
-3.095070e-010
-5.598595e-010
-6.324316e-010
-8.437095e-010
-1.261147e-009
-1.581631e-009
-1.473640e-009
-9.551784e-010
-3.525374e-010
8.494845e-011
4.278291e-010
8.851113e-010
1.451842e-009
1.832837e-009
1.728532e-009
1.130508e-009
2.956848e-010
-5.166587e-010
-1.195521e-009
-1.666414e-009
-1.741579e-009
-1.211687e-009
-1.276143e-010
1.067798e-009
1.772717e-009
1.642682e-009
8.095123e-010
-2.631623e-010
-1.096292e-009
-1.397364e-009
-1.081413e-009
-2.569794e-010
7.372664e-010
1.370950e-009
1.188329e-009
1.951477e-010
-9.972901e-010
-1.527833e-009
-9.488417e-010
3.550750e-010
1.409864e-009
1.939204e-008
1.325913e-008
3.648043e-009
-5.235154e-009
-9.527531e-009
-7.660261e-009
-1.318407e-009
5.385792e-009
8.326691e-009
5.958430e-009
2.678738e-010
-4.734654e-009
-5.955720e-009
-3.344959e-009
4.433864e-010
2.461157e-009
1.820361e-009
1.933113e-011
-8.156015e-010
3.634789e-011
1.462239e-009
1.879320e-009
8.608069e-010
-5.811187e-010
-1.161969e-009
-6.078211e-010
2.320840e-010
4.005727e-010
-1.927998e-010
-8.108349e-010
-7.578759e-010
-7.989010e-011
5.882700e-010
7.434711e-010
4.829356e-010
2.870931e-010
4.542004e-010
8.258101e-010
1.035403e-009
9.311718e-010
7.005644e-010
6.150563e-010
7.282545e-010
8.582994e-010
8.306251e-010
6.779776e-010
5.809769e-010
6.458209e-010
7.882495e-010
8.479557e-010
7.835094e-010
7.129080e-010
7.565701e-010
8.769298e-010
9.127670e-010
7.719892e-010
5.501755e-010
4.227591e-010
4.308014e-010
4.210024e-010
2.274397e-010
-1.129860e-010
-3.790978e-010
-4.147805e-010
-3.149106e-010
-3.069169e-010
-4.508926e-010
-5.265045e-010
-2.780328e-010
2.489718e-010
6.969963e-010
7.696539e-010
5.701404e-010
4.784277e-010
6.652920e-010
8.087860e-010
4.053623e-010
-6.075511e-010
-1.617051e-009
-1.823027e-009
-9.957384e-010
2.843784e-010
1.165697e-009
1.277202e-009
9.164058e-010
5.414136e-010
2.110374e-010
-3.560122e-010
-1.189607e-009
-1.710215e-009
-1.168430e-009
4.646551e-010
2.129791e-009
2.405631e-009
8.000409e-010
-1.608608e-009
-2.911873e-009
-1.961247e-009
5.786515e-010
2.700104e-009
4.843784e-009
4.276779e-009
2.744827e-009
2.359569e-010
-2.265448e-009
-3.231700e-009
-1.909600e-009
7.325625e-010
2.531553e-009
1.906921e-009
-6.422154e-010
-2.805267e-009
-2.444172e-009
4.180708e-010
3.474661e-009
4.108282e-009
1.715946e-009
-1.761675e-009
-3.609892e-009
-2.745781e-009
-5.089580e-010
8.274325e-010
2.826799e-010
-1.055025e-009
-1.354429e-009
4.868211e-013
1.839765e-009
2.515182e-009
1.618381e-009
3.005931e-010
-4.861760e-011
7.348625e-010
1.541754e-009
1.307231e-009
1.781565e-010
-7.271982e-010
-6.060789e-010
1.849461e-010
6.326109e-010
2.580349e-010
-3.938609e-010
-4.724323e-010
1.596660e-010
8.056570e-010
7.983707e-010
2.769741e-010
-3.768860e-011
2.496231e-010
7.405761e-010
7.645408e-010
2.220584e-010
-2.910263e-010
-2.176709e-010
2.842943e-010
5.568151e-010
2.739174e-010
-1.428038e-010
-4.303626e-011
6.371540e-010
1.273301e-009
1.299816e-009
8.935073e-010
7.454635e-010
1.185373e-009
1.728678e-009
1.623167e-009
7.584369e-010
-1.629457e-010
-4.273882e-010
-1.438765e-010
-9.806751e-011
-7.655993e-010
-1.645078e-009
-1.740129e-009
-6.906689e-010
7.338831e-010
1.378404e-009
8.858904e-010
1.500126e-011
-2.489899e-010
2.191521e-010
6.168020e-010
2.186538e-010
-7.073053e-010
-1.138341e-009
-4.552723e-010
7.682550e-010
1.269441e-009
4.197062e-010
-1.026034e-009
-1.596280e-009
-5.709584e-010
1.217804e-009
2.093481e-009
1.114766e-009
-9.761329e-010
-2.359583e-009
-1.766625e-009
3.558367e-010
2.207684e-009
-1.665517e-008
-9.902694e-009
-4.353536e-010
6.432791e-009
7.580190e-009
3.760263e-009
-1.521667e-009
-4.796830e-009
-4.837582e-009
-2.776971e-009
-4.958796e-010
1.036294e-009
2.052966e-009
2.991479e-009
3.526196e-009
2.776250e-009
4.632759e-010
-2.328438e-009
-3.807004e-009
-3.059260e-009
-9.755417e-010
5.408814e-010
3.925284e-010
-6.919763e-010
-1.011252e-009
2.555141e-010
2.156667e-009
2.994944e-009
2.157569e-009
7.490614e-010
3.418748e-010
1.248562e-009
2.244375e-009
2.021467e-009
6.949059e-010
-3.534127e-010
-7.647000e-011
1.065442e-009
1.701255e-009
1.169896e-009
2.455962e-010
1.507352e-010
1.080319e-009
2.003741e-009
1.935693e-009
1.104616e-009
6.165873e-010
1.069948e-009
1.836894e-009
1.872354e-009
1.022296e-009
2.115409e-010
2.986302e-010
1.031205e-009
1.390101e-009
8.774807e-010
1.414610e-010
1.665046e-010
1.041895e-009
1.838951e-009
1.749704e-009
1.077318e-009
8.493932e-010
1.521869e-009
2.365831e-009
2.303865e-009
1.196127e-009
2.052259e-011
-2.799896e-010
9.641592e-011
8.162059e-011
-9.243993e-010
-2.233389e-009
-2.551799e-009
-1.398870e-009
3.552437e-010
1.420131e-009
1.397406e-009
1.000841e-009
1.015549e-009
1.278301e-009
8.955686e-010
-5.511807e-010
-2.231527e-009
-2.691831e-009
-1.300369e-009
9.974496e-010
2.436689e-009
1.986349e-009
2.071701e-010
-1.347002e-009
-1.532985e-009
-5.016449e-010
6.440948e-010
9.421025e-010
3.535082e-010
-3.868598e-010
-5.645695e-010
-1.270497e-010
3.691773e-010
-2.681615e-008
-1.734371e-008
-3.433701e-009
7.846180e-009
1.151393e-008
7.343390e-009
-5.106702e-010
-6.532030e-009
-7.394108e-009
-3.672075e-009
1.255836e-009
4.030953e-009
3.605925e-009
1.386670e-009
-5.039694e-010
-1.067276e-009
-7.929095e-010
-5.726269e-010
-5.747702e-010
-2.858077e-010
5.397383e-010
1.325001e-009
1.267963e-009
3.782630e-010
-3.742394e-010
-1.008221e-010
9.530515e-010
1.640061e-009
1.241239e-009
3.475916e-010
2.000278e-010
1.214011e-009
2.442623e-009
2.665104e-009
1.837020e-009
1.156541e-009
1.633856e-009
2.867813e-009
3.515110e-009
2.901653e-009
1.830217e-009
1.603694e-009
2.453765e-009
3.288273e-009
3.051774e-009
2.018430e-009
1.435026e-009
1.975414e-009
2.924409e-009
3.084986e-009
2.261713e-009
1.477919e-009
1.678920e-009
2.553254e-009
2.933043e-009
2.253279e-009
1.242681e-009
9.989736e-010
1.619218e-009
2.093208e-009
1.580043e-009
4.715971e-010
-7.472434e-011
4.494691e-010
1.284853e-009
1.332370e-009
4.838389e-010
-2.621035e-010
-2.299547e-011
8.936078e-010
1.345211e-009
6.909968e-010
-4.802965e-010
-1.050539e-009
-6.238268e-010
1.354841e-010
3.935288e-010
1.323864e-010
5.786674e-011
5.984381e-010
1.245882e-009
1.059466e-009
-2.238537e-010
-1.738563e-009
-2.228781e-009
-1.214997e-009
5.817478e-010
1.901954e-009
1.967888e-009
9.346588e-010
-4.421850e-010
-1.412681e-009
-1.578740e-009
-9.246418e-010
2.310561e-010
1.289488e-009
1.595329e-009
8.688886e-010
-4.760440e-010
-1.523952e-009
-1.521390e-008
-1.068860e-008
-3.594198e-009
2.933619e-009
6.023302e-009
4.658106e-009
4.378051e-010
-3.302201e-009
-3.757395e-009
-7.635981e-010
3.027060e-009
4.284913e-009
1.803582e-009
-2.463693e-009
-5.109877e-009
-4.204900e-009
-7.812463e-010
2.391536e-009
3.392826e-009
2.554011e-009
1.537661e-009
1.383522e-009
1.670677e-009
1.447995e-009
5.692294e-010
-1.798420e-010
-1.450792e-010
3.939309e-010
6.769034e-010
5.044447e-010
4.763581e-010
1.127018e-009
2.120899e-009
2.602712e-009
2.280537e-009
1.825571e-009
2.019413e-009
2.711203e-009
2.948421e-009
2.172945e-009
9.816294e-010
4.496556e-010
8.250041e-010
1.232860e-009
7.867738e-010
-2.721880e-010
-8.439502e-010
-3.213278e-010
6.642922e-010
1.034563e-009
5.940126e-010
2.320027e-010
7.607227e-010
1.865032e-009
2.479255e-009
2.098651e-009
1.371963e-009
1.250902e-009
1.788989e-009
2.095866e-009
1.479483e-009
3.306629e-010
-3.398835e-010
-1.076858e-010
4.151475e-010
4.038766e-010
-1.400657e-010
-4.109856e-010
1.902658e-010
1.319852e-009
2.089548e-009
2.048480e-009
1.548740e-009
1.142638e-009
8.624086e-010
2.979620e-010
-6.858163e-010
-1.564956e-009
-1.636691e-009
-8.020721e-010
2.836132e-010
8.575753e-010
7.340814e-010
2.996439e-010
-3.769455e-011
-2.104137e-010
-3.033419e-010
-2.290947e-010
1.744726e-010
7.254439e-010
8.228690e-010
3.909501e-011
-1.200282e-009
-1.752814e-009
-8.188551e-010
1.082887e-009
2.354280e-009
1.737571e-009
-4.078189e-010
-2.295677e-009
1.100038e-008
5.958736e-009
-6.711633e-010
-4.741401e-009
-4.528335e-009
-1.583670e-009
1.178392e-009
2.154057e-009
1.960084e-009
1.981617e-009
2.383171e-009
1.859734e-009
-5.931750e-010
-3.942443e-009
-5.568895e-009
-3.715384e-009
5.649759e-010
4.131299e-009
4.577402e-009
2.340656e-009
4.694468e-012
-3.623005e-010
9.731121e-010
2.152930e-009
1.932942e-009
8.527955e-010
3.021320e-010
8.341956e-010
1.703629e-009
1.936527e-009
1.451498e-009
9.242098e-010
7.771898e-010
6.748832e-010
7.871845e-011
-1.001294e-009
-2.077701e-009
-2.907140e-009
-3.817019e-009
-5.182718e-009
-6.798346e-009
-8.043499e-009
-8.656852e-009
-9.072075e-009
-9.827027e-009
-1.080015e-008
-1.129377e-008
-1.089047e-008
-9.983303e-009
-9.284061e-009
-8.934822e-009
-8.365662e-009
-7.077005e-009
-5.333268e-009
-3.878391e-009
-3.049443e-009
-2.425861e-009
-1.442089e-009
-1.548878e-010
8.118306e-010
1.043469e-009
8.258054e-010
7.541829e-010
1.005891e-009
1.206490e-009
1.004744e-009
5.658491e-010
3.598992e-010
5.760805e-010
9.487174e-010
1.176638e-009
1.310443e-009
1.561436e-009
1.819524e-009
1.607846e-009
6.342693e-010
-7.326092e-010
-1.711637e-009
-1.840009e-009
-1.327732e-009
-6.470589e-010
5.795601e-011
9.410512e-010
1.857106e-009
2.095299e-009
1.023258e-009
-9.656550e-010
-2.414464e-009
-2.025363e-009
-2.076095e-011
1.859733e-009
1.925558e-009
1.843642e-010
-1.623799e-009
-1.722322e-009
-5.602578e-011
1.665718e-009
1.697154e-009
1.279357e-011
-1.680984e-009
3.173980e-008
1.955200e-008
2.565136e-009
-9.651074e-009
-1.178850e-008
-5.687403e-009
2.158568e-009
6.013999e-009
4.709387e-009
1.147954e-009
-1.250669e-009
-1.506428e-009
-9.521785e-010
-9.007611e-010
-1.027790e-009
-1.619430e-010
1.761042e-009
3.133634e-009
2.329844e-009
-2.955598e-010
-2.457916e-009
-2.153970e-009
3.300924e-010
2.791257e-009
3.406899e-009
2.429132e-009
1.546206e-009
1.829191e-009
2.622326e-009
2.454033e-009
7.083285e-010
-1.877454e-009
-4.257491e-009
-6.262504e-009
-8.583145e-009
-1.178377e-008
-1.563837e-008
-1.947768e-008
-2.294114e-008
-2.618109e-008
-2.941559e-008
-3.253027e-008
-3.521093e-008
-3.730949e-008
-3.890315e-008
-4.002706e-008
-4.052515e-008
-4.023912e-008
-3.923336e-008
-3.770947e-008
-3.573524e-008
-3.319244e-008
-3.002907e-008
-2.645388e-008
-2.278615e-008
-1.916518e-008
-1.552567e-008
-1.186501e-008
-8.410552e-009
-5.440540e-009
-3.014567e-009
-1.004106e-009
6.249940e-010
1.708508e-009
2.141391e-009
2.129868e-009
2.022993e-009
1.894877e-009
1.470907e-009
5.922169e-010
-3.508291e-010
-6.658330e-010
-1.101986e-010
7.489633e-010
1.085341e-009
6.891672e-010
1.265467e-010
-2.155072e-011
1.062201e-010
-1.018615e-010
-7.738202e-010
-1.133602e-009
-3.135397e-010
1.426671e-009
2.577632e-009
1.757814e-009
-7.380924e-010
-2.933265e-009
-2.904427e-009
-6.130108e-010
2.002013e-009
2.794626e-009
1.328894e-009
-8.735579e-010
-1.885609e-009
-1.134179e-009
2.957406e-010
9.411874e-010
4.228081e-010
-3.581750e-010
3.000655e-008
1.871598e-008
2.888358e-009
-8.544570e-009
-1.039135e-008
-4.263965e-009
3.327724e-009
6.230721e-009
3.088698e-009
-2.414046e-009
-5.307712e-009
-3.577151e-009
7.285725e-010
4.003418e-009
4.397179e-009
2.807095e-009
1.143582e-009
2.060613e-010
-5.523653e-010
-1.569882e-009
-2.147250e-009
-1.202246e-009
1.179125e-009
3.421289e-009
3.910221e-009
2.588372e-009
8.376575e-010
-2.215530e-010
-1.063423e-009
-3.241653e-009
-7.698735e-009
-1.385312e-008
-2.040707e-008
-2.681739e-008
-3.372975e-008
-4.200583e-008
-5.158072e-008
-6.143668e-008
-7.058928e-008
-7.888418e-008
-8.677807e-008
-9.450186e-008
-1.016064e-007
-1.073173e-007
-1.111964e-007
-1.133770e-007
-1.142111e-007
-1.137921e-007
-1.118553e-007
-1.081004e-007
-1.025629e-007
-9.565975e-008
-8.788420e-008
-7.947190e-008
-7.039217e-008
-6.068303e-008
-5.075728e-008
-4.129105e-008
-3.275769e-008
-2.512552e-008
-1.811559e-008
-1.175893e-008
-6.562446e-009
-2.998878e-009
-8.869251e-010
5.340900e-010
1.816008e-009
2.707594e-009
2.535538e-009
1.193059e-009
-4.417650e-010
-1.239063e-009
-9.093101e-010
-1.777696e-010
1.702684e-010
2.146859e-010
6.532026e-010
1.681358e-009
2.434081e-009
1.818531e-009
-1.225724e-010
-1.940481e-009
-2.084765e-009
-4.767464e-010
1.339513e-009
1.677582e-009
3.136665e-010
-1.382270e-009
-1.829573e-009
-6.886565e-010
9.775694e-010
1.801608e-009
1.286297e-009
2.635999e-011
-9.945042e-010
-1.217493e-009
-7.549427e-010
-6.790530e-011
4.670644e-010
7.257588e-010
6.025873e-009
3.559045e-009
6.950779e-011
-2.273673e-009
-1.924950e-009
7.337604e-010
3.318119e-009
3.162359e-009
-2.753353e-010
-4.534303e-009
-5.988351e-009
-3.028783e-009
2.340074e-009
6.137480e-009
5.832128e-009
2.344966e-009
-1.145068e-009
-2.193987e-009
-8.918636e-010
9.833934e-010
2.080716e-009
2.462316e-009
2.729390e-009
2.745499e-009
1.609329e-009
-1.254255e-009
-5.441328e-009
-1.026717e-008
-1.593909e-008
-2.367961e-008
-3.456208e-008
-4.841729e-008
-6.410348e-008
-8.079895e-008
-9.877264e-008
-1.187431e-007
-1.406218e-007
-1.631349e-007
-1.847485e-007
-2.048097e-007
-2.236161e-007
-2.414106e-007
-2.575108e-007
-2.705665e-007
-2.796155e-007
-2.847304e-007
-2.865684e-007
-2.853913e-007
-2.806875e-007
-2.718021e-007
-2.588299e-007
-2.427482e-007
-2.246512e-007
-2.049743e-007
-1.836024e-007
-1.607213e-007
-1.373811e-007
-1.150482e-007
-9.460643e-008
-7.595692e-008
-5.869770e-008
-4.307725e-008
-3.004308e-008
-2.026472e-008
-1.328183e-008
-7.854503e-009
-3.183692e-009
4.078309e-010
2.146736e-009
2.035710e-009
1.156731e-009
6.780009e-010
7.646289e-010
7.095840e-010
9.987064e-011
-4.551133e-010
1.218686e-011
1.531171e-009
2.856512e-009
2.608141e-009
6.906052e-010
-1.546280e-009
-2.551918e-009
-1.893319e-009
-3.871029e-010
8.424361e-010
1.253884e-009
9.693740e-010
3.377551e-010
-3.304166e-010
-7.140015e-010
-5.274727e-010
1.612883e-010
7.717734e-010
6.462155e-010
-2.271556e-010
-1.046516e-009
-9.376932e-010
1.010134e-010
1.108810e-009
-2.280644e-008
-1.421335e-008
-2.560231e-009
5.510599e-009
7.080749e-009
4.097771e-009
4.812407e-010
-1.468648e-009
-2.009479e-009
-2.157303e-009
-1.873815e-009
-4.031739e-010
2.016845e-009
3.590907e-009
2.621640e-009
-3.856969e-010
-2.741051e-009
-2.009108e-009
1.592919e-009
5.360772e-009
6.610308e-009
4.856083e-009
1.530636e-009
-2.116555e-009
-6.499455e-009
-1.315863e-008
-2.322493e-008
-3.681114e-008
-5.382148e-008
-7.486240e-008
-1.009685e-007
-1.325021e-007
-1.686659e-007
-2.082504e-007
-2.506494e-007
-2.958422e-007
-3.433769e-007
-3.916724e-007
-4.385890e-007
-4.826452e-007
-5.234451e-007
-5.608246e-007
-5.937773e-007
-6.204966e-007
-6.395232e-007
-6.506557e-007
-6.545531e-007
-6.515187e-007
-6.409279e-007
-6.219930e-007
-5.949589e-007
-5.613092e-007
-5.227365e-007
-4.801048e-007
-4.336325e-007
-3.840491e-007
-3.332860e-007
-2.837924e-007
-2.372082e-007
-1.939076e-007
-1.538949e-007
-1.179048e-007
-8.731637e-008
-6.293805e-008
-4.412383e-008
-2.931999e-008
-1.743655e-008
-8.467042e-009
-2.721265e-009
2.745691e-010
1.799594e-009
2.864653e-009
3.415517e-009
2.839468e-009
1.166359e-009
-5.248819e-010
-1.024913e-009
-1.735698e-010
1.046071e-009
1.536738e-009
1.033492e-009
4.276736e-011
-8.588737e-010
-1.390725e-009
-1.352340e-009
-4.997527e-010
1.026976e-009
2.300454e-009
2.116040e-009
2.377120e-010
-1.985957e-009
-2.636729e-009
-1.090959e-009
1.225776e-009
2.166589e-009
1.004881e-009
-8.718073e-010
-1.485921e-009
-3.736665e-010
1.013581e-009
-3.618158e-008
-2.127659e-008
-1.535860e-009
1.086187e-008
1.071424e-008
2.512102e-009
-4.778275e-009
-5.544600e-009
-1.064295e-009
3.436027e-009
4.311814e-009
2.133535e-009
-2.578028e-010
-1.193864e-009
-1.238033e-009
-1.368381e-009
-1.142445e-009
7.094036e-010
4.110286e-009
6.779097e-009
5.978561e-009
9.469428e-010
-6.822438e-009
-1.583399e-008
-2.687387e-008
-4.287522e-008
-6.671100e-008
-9.945300e-008
-1.407850e-007
-1.906202e-007
-2.497569e-007
-3.188646e-007
-3.972123e-007
-4.827321e-007
-5.732269e-007
-6.671504e-007
-7.630869e-007
-8.588078e-007
-9.513020e-007
-1.037861e-006
-1.116897e-006
-1.187493e-006
-1.248308e-006
-1.297283e-006
-1.332580e-006
-1.353584e-006
-1.360702e-006
-1.354178e-006
-1.333419e-006
-1.297695e-006
-1.247398e-006
-1.184315e-006
-1.110588e-006
-1.027658e-006
-9.364825e-007
-8.387630e-007
-7.376134e-007
-6.367780e-007
-5.392303e-007
-4.467095e-007
-3.605649e-007
-2.826776e-007
-2.151755e-007
-1.592031e-007
-1.142149e-007
-7.864015e-008
-5.111972e-008
-3.090714e-008
-1.716900e-008
-8.330584e-009
-2.492310e-009
1.510911e-009
3.727958e-009
3.891329e-009
2.437277e-009
5.460207e-010
-7.430589e-010
-1.185519e-009
-1.041296e-009
-4.385982e-010
6.250728e-010
1.714081e-009
1.883692e-009
6.175332e-010
-1.228683e-009
-1.894470e-009
-4.908697e-010
1.785983e-009
2.601141e-009
8.669409e-010
-1.946259e-009
-3.147589e-009
-1.549836e-009
1.287370e-009
2.658229e-009
1.472783e-009
-7.497518e-010
-1.650959e-009
-5.708507e-010
9.078115e-010
-2.671816e-008
-1.374436e-008
2.685652e-009
1.125683e-008
7.755754e-009
-2.276918e-009
-9.044775e-009
-6.997667e-009
1.127450e-009
7.791033e-009
7.813561e-009
2.439285e-009
-2.897262e-009
-4.080095e-009
-1.458827e-009
1.798467e-009
3.434617e-009
3.641482e-009
3.319682e-009
1.810875e-009
-3.028371e-009
-1.283257e-008
-2.767969e-008
-4.754096e-008
-7.451264e-008
-1.130022e-007
-1.674135e-007
-2.397838e-007
-3.297722e-007
-4.365743e-007
-5.602157e-007
-7.007058e-007
-8.562553e-007
-1.022817e-006
-1.195492e-006
-1.370129e-006
-1.543451e-006
-1.712010e-006
-1.871674e-006
-2.018444e-006
-2.149588e-006
-2.263660e-006
-2.359465e-006
-2.435338e-006
-2.489626e-006
-2.521612e-006
-2.531549e-006
-2.519703e-006
-2.485618e-006
-2.428604e-006
-2.348844e-006
-2.247756e-006
-2.127222e-006
-1.988775e-006
-1.833903e-006
-1.665175e-006
-1.486824e-006
-1.304045e-006
-1.121793e-006
-9.443654e-007
-7.759193e-007
-6.208447e-007
-4.831143e-007
-3.651221e-007
-2.672460e-007
-1.885327e-007
-1.275921e-007
-8.270134e-008
-5.132236e-008
-3.010783e-008
-1.583069e-008
-6.378725e-009
-7.477860e-010
1.832963e-009
2.473968e-009
2.237761e-009
1.512112e-009
2.253335e-010
-1.235565e-009
-1.723306e-009
-3.748751e-010
2.079327e-009
3.527449e-009
2.424542e-009
-4.725909e-010
-2.626363e-009
-2.182447e-009
1.616395e-010
1.909647e-009
1.369204e-009
-6.666964e-010
-1.904747e-009
-1.052432e-009
8.848012e-010
1.818108e-009
8.625050e-010
-8.074925e-010
-1.363796e-009
-3.462131e-010
9.258761e-010
-3.763850e-009
7.202085e-010
5.619065e-009
6.234755e-009
1.378554e-009
-5.294378e-009
-8.174917e-009
-4.599783e-009
2.582754e-009
7.381176e-009
6.035423e-009
3.986918e-010
-3.946259e-009
-2.987994e-009
2.190582e-009
6.896164e-009
7.353362e-009
3.453518e-009
-2.739429e-009
-1.052515e-008
-2.221452e-008
-4.171275e-008
-7.246556e-008
-1.174103e-007
-1.805500e-007
-2.675156e-007
-3.837520e-007
-5.319947e-007
-7.116186e-007
-9.201869e-007
-1.154978e-006
-1.412581e-006
-1.687298e-006
-1.970710e-006
-2.253404e-006
-2.527334e-006
-2.786648e-006
-3.026752e-006
-3.243357e-006
-3.432867e-006
-3.593519e-006
-3.725637e-006
-3.830544e-006
-3.909319e-006
-3.962618e-006
-3.991298e-006
-3.996591e-006
-3.979362e-006
-3.939340e-006
-3.875277e-006
-3.785787e-006
-3.669837e-006
-3.526486e-006
-3.354651e-006
-3.153699e-006
-2.924595e-006
-2.670570e-006
-2.396844e-006
-2.110012e-006
-1.817810e-006
-1.529121e-006
-1.253405e-006
-9.993249e-007
-7.733602e-007
-5.793575e-007
-4.189312e-007
-2.918194e-007
-1.957294e-007
-1.262860e-007
-7.788824e-008
-4.520843e-008
-2.413330e-008
-1.148917e-008
-4.330131e-009
-2.293979e-011
2.857234e-009
4.159583e-009
3.258512e-009
7.083721e-010
-1.457361e-009
-1.365537e-009
8.035713e-010
2.852032e-009
2.685779e-009
3.635273e-010
-2.045457e-009
-2.562229e-009
-1.112745e-009
7.023915e-010
1.374918e-009
8.164853e-010
3.846809e-011
-1.474436e-010
1.162315e-010
1.733411e-010
-2.359857e-010
-6.767935e-010
-5.726514e-010
9.731704e-011
7.354154e-010
1.677942e-008
1.103102e-008
3.230940e-009
-2.398913e-009
-4.188345e-009
-3.212568e-009
-1.240600e-009
7.694643e-010
2.302441e-009
2.510212e-009
8.330835e-010
-1.604686e-009
-2.162848e-009
8.644640e-010
5.905373e-009
8.757240e-009
5.929813e-009
-2.851905e-009
-1.585234e-008
-3.311943e-008
-5.901534e-008
-1.012208e-007
-1.678199e-007
-2.656670e-007
-4.009838e-007
-5.801215e-007
-8.083331e-007
-1.087094e-006
-1.412439e-006
-1.775657e-006
-2.165086e-006
-2.567072e-006
-2.965932e-006
-3.344628e-006
-3.687187e-006
-3.981708e-006
-4.221770e-006
-4.405611e-006
-4.534607e-006
-4.612747e-006
-4.647023e-006
-4.647254e-006
-4.624551e-006
-4.589361e-006
-4.550435e-006
-4.514858e-006
-4.488082e-006
-4.473247e-006
-4.470302e-006
-4.475782e-006
-4.483299e-006
-4.484136e-006
-4.467662e-006
-4.422020e-006
-4.335487e-006
-4.198210e-006
-4.003680e-006
-3.749747e-006
-3.439449e-006
-3.081605e-006
-2.690543e-006
-2.284393e-006
-1.882368e-006
-1.502193e-006
-1.158461e-006
-8.616728e-007
-6.174012e-007
-4.257441e-007
-2.819430e-007
-1.784212e-007
-1.071541e-007
-6.086827e-008
-3.283540e-008
-1.655919e-008
-6.555308e-009
2.785662e-010
4.393224e-009
5.172641e-009
3.047317e-009
7.846238e-011
-1.464600e-009
-8.964118e-010
6.184630e-010
1.448152e-009
9.708674e-010
-2.048043e-010
-1.098462e-009
-1.175188e-009
-4.893661e-010
5.524072e-010
1.374151e-009
1.421263e-009
5.497851e-010
-6.804852e-010
-1.332888e-009
-9.375767e-010
1.877861e-011
5.969468e-010
4.071704e-010
-3.917410e-011
2.570696e-008
1.249583e-008
-3.515673e-009
-1.085388e-008
-6.594528e-009
2.583778e-009
7.812559e-009
5.878717e-009
3.616052e-010
-3.395652e-009
-3.249480e-009
-6.365160e-010
2.295481e-009
4.570489e-009
5.570708e-009
3.625719e-009
-3.681821e-009
-1.822227e-008
-4.160257e-008
-7.769766e-008
-1.349861e-007
-2.259902e-007
-3.640918e-007
-5.605018e-007
-8.232305e-007
-1.156927e-006
-1.561281e-006
-2.027736e-006
-2.536928e-006
-3.059314e-006
-3.558932e-006
-3.998166e-006
-4.341813e-006
-4.560547e-006
-4.634427e-006
-4.555898e-006
-4.330734e-006
-3.976240e-006
-3.517989e-006
-2.986997e-006
-2.417950e-006
-1.847494e-006
-1.311715e-006
-8.433405e-007
-4.698559e-007
-2.128598e-007
-8.777372e-008
-1.030907e-007
-2.593287e-007
-5.483459e-007
-9.532528e-007
-1.448736e-006
-2.001824e-006
-2.573466e-006
-3.121043e-006
-3.601557e-006
-3.975260e-006
-4.209776e-006
-4.284536e-006
-4.194416e-006
-3.951046e-006
-3.580998e-006
-3.121508e-006
-2.615096e-006
-2.104037e-006
-1.625013e-006
-1.204561e-006
-8.566691e-007
-5.836247e-007
-3.796007e-007
-2.347728e-007
-1.379133e-007
-7.730047e-008
-4.139103e-008
-2.030616e-008
-7.453894e-009
2.118959e-010
3.674414e-009
3.768377e-009
1.978842e-009
-5.021199e-011
-1.244109e-009
-1.252899e-009
-2.512654e-010
1.124619e-009
1.878153e-009
1.275481e-009
-3.128933e-010
-1.444361e-009
-9.336285e-010
7.563799e-010
1.787460e-009
8.923002e-010
-1.100019e-009
-2.048246e-009
-8.829335e-010
1.121864e-009
1.754434e-009
3.940788e-010
-1.285137e-009
2.457455e-008
8.862701e-009
-9.088446e-009
-1.485799e-008
-5.880536e-009
7.530687e-009
1.295594e-008
7.187104e-009
-2.489936e-009
-6.760398e-009
-2.999188e-009
3.880372e-009
7.500768e-009
5.587773e-009
-2.452953e-010
-8.855255e-009
-2.286870e-008
-4.849634e-008
-9.403487e-008
-1.700098e-007