# vtk DataFile Version 3.0
vtk output
ASCII
DATASET STRUCTURED_POINTS
DIMENSIONS 100 100 1
SPACING 1 1 1
ORIGIN 0 0 0
POINT_DATA 10000
SCALARS SFBox_profile double
LOOKUP_TABLE default 
9.439942e-003
9.439945e-003
9.439952e-003
9.439962e-003
9.439976e-003
9.439991e-003
9.440004e-003
9.440008e-003
9.439987e-003
9.439913e-003
9.439743e-003
9.439408e-003
9.438808e-003
9.437803e-003
9.436208e-003
9.433794e-003
9.430293e-003
9.425412e-003
9.418862e-003
9.410389e-003
9.399817e-003
9.387083e-003
9.372262e-003
9.355578e-003
9.337392e-003
9.318164e-003
9.298416e-003
9.278674e-003
9.259427e-003
9.241092e-003
9.223989e-003
9.208339e-003
9.194266e-003
9.181806e-003
9.170927e-003
9.161548e-003
9.153558e-003
9.146837e-003
9.141270e-003
9.136757e-003
9.133220e-003
9.130607e-003
9.128887e-003
9.128048e-003
9.128090e-003
9.129020e-003
9.130843e-003
9.133554e-003
9.137137e-003
9.141553e-003
9.146740e-003
9.152606e-003
9.159031e-003
9.165865e-003
9.172925e-003
9.180002e-003
9.186863e-003
9.193252e-003
9.198903e-003
9.203547e-003
9.206927e-003
9.208817e-003
9.209041e-003
9.207501e-003
9.204208e-003
9.199306e-003
9.193094e-003
9.186047e-003
9.178807e-003
9.172168e-003
9.167031e-003
9.164338e-003
9.164985e-003
9.169723e-003
9.179046e-003
9.193108e-003
9.211649e-003
9.233989e-003
9.259074e-003
9.285595e-003
9.312148e-003
9.337417e-003
9.360329e-003
9.380161e-003
9.396571e-003
9.409572e-003
9.419441e-003
9.426626e-003
9.431642e-003
9.434999e-003
9.437149e-003
9.438462e-003
9.439222e-003
9.439636e-003
9.439843e-003
9.439934e-003
9.439967e-003
9.439973e-003
9.439970e-003
9.439966e-003
9.439942e-003
9.439945e-003
9.439952e-003
9.439962e-003
9.439976e-003
9.439991e-003
9.440004e-003
9.440008e-003
9.439987e-003
9.439913e-003
9.439743e-003
9.439408e-003
9.438808e-003
9.437803e-003
9.436208e-003
9.433794e-003
9.430293e-003
9.425412e-003
9.418862e-003
9.410389e-003
9.399817e-003
9.387083e-003
9.372262e-003
9.355578e-003
9.337392e-003
9.318164e-003
9.298416e-003
9.278674e-003
9.259427e-003
9.241092e-003
9.223989e-003
9.208339e-003
9.194266e-003
9.181806e-003
9.170927e-003
9.161548e-003
9.153558e-003
9.146837e-003
9.141270e-003
9.136757e-003
9.133220e-003
9.130607e-003
9.128887e-003
9.128048e-003
9.128090e-003
9.129020e-003
9.130843e-003
9.133554e-003
9.137137e-003
9.141553e-003
9.146740e-003
9.152606e-003
9.159031e-003
9.165865e-003
9.172925e-003
9.180002e-003
9.186863e-003
9.193252e-003
9.198903e-003
9.203547e-003
9.206927e-003
9.208817e-003
9.209041e-003
9.207501e-003
9.204208e-003
9.199306e-003
9.193094e-003
9.186047e-003
9.178807e-003
9.172168e-003
9.167031e-003
9.164338e-003
9.164985e-003
9.169723e-003
9.179046e-003
9.193108e-003
9.211649e-003
9.233989e-003
9.259074e-003
9.285595e-003
9.312148e-003
9.337417e-003
9.360329e-003
9.380161e-003
9.396571e-003
9.409572e-003
9.419441e-003
9.426626e-003
9.431642e-003
9.434999e-003
9.437149e-003
9.438462e-003
9.439222e-003
9.439636e-003
9.439843e-003
9.439934e-003
9.439967e-003
9.439973e-003
9.439970e-003
9.439966e-003
9.439947e-003
9.439950e-003
9.439958e-003
9.439968e-003
9.439980e-003
9.439991e-003
9.439994e-003
9.439975e-003
9.439909e-003
9.439752e-003
9.439436e-003
9.438857e-003
9.437863e-003
9.436250e-003
9.433752e-003
9.430051e-003
9.424787e-003
9.417601e-003
9.408179e-003
9.396323e-003
9.382017e-003
9.365480e-003
9.347189e-003
9.327859e-003
9.308383e-003
9.289732e-003
9.272851e-003
9.258557e-003
9.247474e-003
9.239992e-003
9.236267e-003
9.236249e-003
9.239722e-003
9.246353e-003
9.255748e-003
9.267490e-003
9.281193e-003
9.296528e-003
9.313247e-003
9.331195e-003
9.350304e-003
9.370586e-003
9.392108e-003
9.414970e-003
9.439282e-003
9.465133e-003
9.492572e-003
9.521588e-003
9.552093e-003
9.583910e-003
9.616767e-003
9.650290e-003
9.684009e-003
9.717355e-003
9.749666e-003
9.780199e-003
9.808134e-003
9.832592e-003
9.852649e-003
9.867363e-003
9.875803e-003
9.877093e-003
9.870467e-003
9.855333e-003
9.831347e-003
9.798494e-003
9.757159e-003
9.708196e-003
9.652959e-003
9.593305e-003
9.531546e-003
9.470340e-003
9.412537e-003
9.360952e-003
9.318110e-003
9.285962e-003
9.265636e-003
9.257257e-003
9.259907e-003
9.271741e-003
9.290264e-003
9.312705e-003
9.336413e-003
9.359193e-003
9.379502e-003
9.396492e-003
9.409927e-003
9.420022e-003
9.427251e-003
9.432197e-003
9.435431e-003
9.437451e-003
9.438653e-003
9.439330e-003
9.439687e-003
9.439861e-003
9.439936e-003
9.439963e-003
9.439969e-003
9.439969e-003
9.439956e-003
9.439960e-003
9.439968e-003
9.439977e-003
9.439986e-003
9.439985e-003
9.439960e-003
9.439883e-003
9.439705e-003
9.439344e-003
9.438674e-003
9.437507e-003
9.435578e-003
9.432534e-003
9.427937e-003
9.421287e-003
9.412080e-003
9.399902e-003
9.384563e-003
9.366256e-003
9.345694e-003
9.324189e-003
9.303626e-003
9.286315e-003
9.274741e-003
9.271261e-003
9.277817e-003
9.295722e-003
9.325558e-003
9.367189e-003
9.419860e-003
9.482354e-003
9.553171e-003
9.630689e-003
9.713316e-003
9.799606e-003
9.888358e-003
9.978675e-003
1.006999e-002
1.016207e-002
1.025497e-002
1.034896e-002
1.044447e-002
1.054200e-002
1.064200e-002
1.074484e-002
1.085072e-002
1.095960e-002
1.107120e-002
1.118494e-002
1.129993e-002
1.141501e-002
1.152871e-002
1.163929e-002
1.174476e-002
1.184288e-002
1.193124e-002
1.200724e-002
1.206815e-002
1.211115e-002
1.213345e-002
1.213232e-002
1.210528e-002
1.205022e-002
1.196562e-002
1.185074e-002
1.170587e-002
1.153250e-002
1.133353e-002
1.111333e-002
1.087775e-002
1.063399e-002
1.039029e-002
1.015548e-002
9.938298e-003
9.746608e-003
9.586561e-003
9.461844e-003
9.373203e-003
9.318397e-003
9.292626e-003
9.289379e-003
9.301507e-003
9.322275e-003
9.346159e-003
9.369251e-003
9.389265e-003
9.405263e-003
9.417238e-003
9.425710e-003
9.431406e-003
9.435057e-003
9.437289e-003
9.438588e-003
9.439305e-003
9.439677e-003
9.439856e-003
9.439934e-003
9.439963e-003
9.439972e-003
9.439971e-003
9.439975e-003
9.439982e-003
9.439987e-003
9.439985e-003
9.439956e-003
9.439871e-003
9.439672e-003
9.439265e-003
9.438495e-003
9.437127e-003
9.434817e-003
9.431092e-003
9.425349e-003
9.416879e-003
9.404966e-003
9.389059e-003
9.369051e-003
9.345639e-003
9.320698e-003
9.297550e-003
9.281001e-003
9.277048e-003
9.292261e-003
9.332953e-003
9.404328e-003
9.509791e-003
9.650576e-003
9.825730e-003
1.003241e-002
1.026636e-002
1.052252e-002
1.079551e-002
1.108012e-002
1.137166e-002
1.166617e-002
1.196061e-002
1.225295e-002
1.254214e-002
1.282804e-002
1.311127e-002
1.339299e-002
1.367470e-002
1.395795e-002
1.424418e-002
1.453446e-002
1.482938e-002
1.512889e-002
1.543226e-002
1.573800e-002
1.604388e-002
1.634697e-002
1.664362e-002
1.692959e-002
1.720004e-002
1.744962e-002
1.767255e-002
1.786262e-002
1.801332e-002
1.811791e-002
1.816957e-002
1.816155e-002
1.808746e-002
1.794157e-002
1.771922e-002
1.741729e-002
1.703475e-002
1.657316e-002
1.603725e-002
1.543528e-002
1.477933e-002
1.408536e-002
1.337284e-002
1.266405e-002
1.198270e-002
1.135215e-002
1.079311e-002
1.032127e-002
9.945376e-003
9.666153e-003
9.476511e-003
9.363079e-003
9.308710e-003
9.295385e-003
9.306783e-003
9.329985e-003
9.356105e-003
9.379990e-003
9.399359e-003
9.413791e-003
9.423856e-003
9.430490e-003
9.434647e-003
9.437127e-003
9.438536e-003
9.439295e-003
9.439681e-003
9.439863e-003
9.439941e-003
9.439969e-003
9.439989e-003
9.439992e-003
9.439996e-003
9.439992e-003
9.439962e-003
9.439875e-003
9.439667e-003
9.439233e-003
9.438393e-003
9.436865e-003
9.434222e-003
9.429857e-003
9.422970e-003
9.412595e-003
9.397747e-003
9.377715e-003
9.352605e-003
9.324109e-003
9.296427e-003
9.277084e-003
9.277296e-003
9.311556e-003
9.396291e-003
9.547793e-003
9.779844e-003
1.010165e-002
1.051653e-002
1.102166e-002
1.160876e-002
1.226544e-002
1.297695e-002
1.372773e-002
1.450286e-002
1.528890e-002
1.607461e-002
1.685126e-002
1.761270e-002
1.835544e-002
1.907834e-002
1.978235e-002
2.047001e-002
2.114494e-002
2.181129e-002
2.247317e-002
2.313418e-002
2.379702e-002
2.446314e-002
2.513258e-002
2.580383e-002
2.647382e-002
2.713794e-002
2.779018e-002
2.842320e-002
2.902854e-002
2.959668e-002
3.011720e-002
3.057887e-002
3.096974e-002
3.127718e-002
3.148807e-002
3.158888e-002
3.156595e-002
3.140580e-002
3.109567e-002
3.062410e-002
2.998180e-002
2.916261e-002
2.816464e-002
2.699149e-002
2.565350e-002
2.416893e-002
2.256490e-002
2.087783e-002
1.915300e-002
1.744294e-002
1.580418e-002
1.429237e-002
1.295631e-002
1.183182e-002
1.093698e-002
1.027000e-002
9.810539e-003
9.524373e-003
9.370129e-003
9.306381e-003
9.297280e-003
9.315695e-003
9.343729e-003
9.371339e-003
9.394093e-003
9.410935e-003
9.422478e-003
9.429919e-003
9.434465e-003
9.437106e-003
9.438567e-003
9.439333e-003
9.439711e-003
9.439883e-003
9.439948e-003
9.440011e-003
9.440011e-003
9.440005e-003
9.439977e-003
9.439893e-003
9.439690e-003
9.439254e-003
9.438389e-003
9.436774e-003
9.433909e-003
9.429058e-003
9.421212e-003
9.409121e-003
9.391476e-003
9.367385e-003
9.337302e-003
9.304533e-003
9.277250e-003
9.270612e-003
9.308206e-003
9.421870e-003
9.649255e-003
1.002915e-002
1.059554e-002
1.137184e-002
1.236691e-002
1.357366e-002
1.497055e-002
1.652512e-002
1.819860e-002
1.995054e-002
2.174255e-002
2.354091e-002
2.531797e-002
2.705264e-002
2.873036e-002
3.034263e-002
3.188642e-002
3.336332e-002
3.477858e-002
3.614007e-002
3.745710e-002
3.873941e-002
3.999613e-002
4.123498e-002
4.246163e-002
4.367928e-002
4.488842e-002
4.608674e-002
4.726931e-002
4.842868e-002
4.955523e-002
5.063746e-002
5.166223e-002
5.261508e-002
5.348033e-002
5.424124e-002
5.488005e-002
5.537795e-002
5.571510e-002
5.587064e-002
5.582276e-002
5.554893e-002
5.502625e-002
5.423209e-002
5.314499e-002
5.174593e-002
5.001998e-002
4.795844e-002
4.556150e-002
4.284129e-002
3.982535e-002
3.655999e-002
3.311291e-002
2.957380e-002
2.605167e-002
2.266787e-002
1.954436e-002
1.678888e-002
1.447965e-002
1.265380e-002
1.130301e-002
1.037809e-002
9.801448e-003
9.483581e-003
9.338831e-003
9.296488e-003
9.305569e-003
9.334055e-003
9.364798e-003
9.390483e-003
9.409294e-003
9.421925e-003
9.429865e-003
9.434586e-003
9.437253e-003
9.438685e-003
9.439413e-003
9.439755e-003
9.439887e-003
9.440032e-003
9.440025e-003
9.439998e-003
9.439922e-003
9.439734e-003
9.439321e-003
9.438479e-003
9.436865e-003
9.433925e-003
9.428817e-003
9.420340e-003
9.406952e-003
9.386982e-003
9.359295e-003
9.324736e-003
9.288734e-003
9.265195e-003
9.281217e-003
9.381191e-003
9.628127e-003
1.010007e-002
1.088082e-002
1.204631e-002
1.365010e-002
1.571217e-002
1.821434e-002
2.110316e-002
2.429890e-002
2.770769e-002
3.123366e-002
3.478866e-002
3.829848e-002
4.170557e-002
4.496917e-002
4.806376e-002
5.097685e-002
5.370661e-002
5.625960e-002
5.864861e-002
6.089067e-002
6.300513e-002
6.501193e-002
6.693008e-002
6.877640e-002
7.056461e-002
7.230467e-002
7.400257e-002
7.566022e-002
7.727577e-002
7.884397e-002
8.035667e-002
8.180340e-002
8.317184e-002
8.444832e-002
8.561806e-002
8.666539e-002
8.757377e-002
8.832563e-002
8.890220e-002
8.928313e-002
8.944613e-002
8.936654e-002
8.901695e-002
8.836683e-002
8.738239e-002
8.602665e-002
8.425987e-002
8.204076e-002
7.932840e-002
7.608563e-002
7.228402e-002
6.791100e-002
6.297897e-002
5.753585e-002
5.167519e-002
4.554276e-002
3.933576e-002
3.329061e-002
2.765787e-002
2.266699e-002
1.848858e-002
1.520560e-002
1.280324e-002
1.118130e-002
1.018447e-002
9.639456e-003
9.387218e-003
9.302573e-003
9.299816e-003
9.327969e-003
9.361199e-003
9.389080e-003
9.409156e-003
9.422310e-003
9.430353e-003
9.434999e-003
9.437546e-003
9.438867e-003
9.439503e-003
9.439754e-003
9.440047e-003
9.440025e-003
9.439958e-003
9.439793e-003
9.439422e-003
9.438645e-003
9.437118e-003
9.434261e-003
9.429162e-003
9.420474e-003
9.406387e-003
9.384849e-003
9.354372e-003
9.316029e-003
9.277423e-003
9.259304e-003
9.304614e-003
9.487935e-003
9.921139e-003
1.074994e-002
1.213763e-002
1.423677e-002
1.715563e-002
2.092981e-002
2.550910e-002
3.076378e-002
3.650759e-002
4.252913e-002
4.862219e-002
5.460855e-002
6.035027e-002
6.575270e-002
7.076073e-002
7.535168e-002
7.952731e-002
8.330635e-002
8.671848e-002
8.979959e-002
9.258826e-002
9.512318e-002
9.744111e-002
9.957551e-002
1.015555e-001
1.034053e-001
1.051440e-001
1.067855e-001
1.083392e-001
1.098101e-001
1.111999e-001
1.125079e-001
1.137310e-001
1.148652e-001
1.159055e-001
1.168468e-001
1.176835e-001
1.184100e-001
1.190202e-001
1.195076e-001
1.198642e-001
1.200807e-001
1.201449e-001
1.200418e-001
1.197517e-001
1.192491e-001
1.185014e-001
1.174671e-001
1.160938e-001
1.143167e-001
1.120574e-001
1.092235e-001
1.057116e-001
1.014132e-001
9.622686e-002
9.007698e-002
8.293972e-002
7.487360e-002
6.604812e-002
5.675940e-002
4.741924e-002
3.850843e-002
3.049773e-002
2.375648e-002
1.848025e-002
1.466510e-002
1.213650e-002
1.061751e-002
9.806348e-003
9.437059e-003
9.310443e-003
9.297452e-003
9.325745e-003
9.360924e-003
9.390078e-003
9.410550e-003
9.423581e-003
9.431311e-003
9.435638e-003
9.437926e-003
9.439047e-003
9.439497e-003
9.440044e-003
9.439995e-003
9.439858e-003
9.439541e-003
9.438861e-003
9.437490e-003
9.434857e-003
9.430031e-003
9.421580e-003
9.407495e-003
9.385352e-003
9.353183e-003
9.311884e-003
9.270554e-003
9.256344e-003
9.329551e-003
9.601897e-003
1.025138e-002
1.152286e-002
1.370353e-002
1.706971e-002
2.181545e-002
2.798644e-002
3.544670e-002
4.389384e-002
5.291768e-002
6.207946e-002
7.098427e-002
7.932819e-002
8.691540e-002
9.365092e-002
9.951999e-002
1.045636e-001
1.088560e-001
1.124873e-001
1.155509e-001
1.181355e-001
1.203207e-001
1.221756e-001
1.237583e-001
1.251165e-001
1.262889e-001
1.273063e-001
1.281928e-001
1.289673e-001
1.296443e-001
1.302353e-001
1.307492e-001
1.311938e-001
1.315754e-001
1.318998e-001
1.321725e-001
1.323984e-001
1.325820e-001
1.327274e-001
1.328382e-001
1.329171e-001
1.329664e-001
1.329869e-001
1.329788e-001
1.329403e-001
1.328682e-001
1.327564e-001
1.325957e-001
1.323722e-001
1.320654e-001
1.316456e-001
1.310699e-001
1.302766e-001
1.291783e-001
1.276534e-001
1.255383e-001
1.226233e-001
1.186568e-001
1.133665e-001
1.065029e-001
9.791181e-002
8.762624e-002
7.594817e-002
6.347665e-002
5.104290e-002
3.954793e-002
2.975019e-002
2.208908e-002
1.661956e-002
1.307434e-002
1.100642e-002
9.939199e-003
9.470442e-003
9.314605e-003
9.297445e-003
9.327413e-003
9.363999e-003
9.393354e-003
9.413283e-003
9.425553e-003
9.432592e-003
9.436386e-003
9.438275e-003
9.439041e-003
9.440009e-003
9.439914e-003
9.439661e-003
9.439096e-003
9.437926e-003
9.435622e-003
9.431286e-003
9.423483e-003
9.410099e-003
9.388413e-003
9.355878e-003
9.312678e-003
9.268025e-003
9.253012e-003
9.342566e-003
9.685777e-003
1.053637e-002
1.226502e-002
1.532934e-002
2.018465e-002
2.714538e-002
3.624307e-002
4.714892e-002
5.921060e-002
7.159737e-002
8.349222e-002
9.425308e-002
1.034945e-001
1.110862e-001
1.170951e-001
1.217084e-001
1.251642e-001
1.277040e-001
1.295450e-001
1.308680e-001
1.318146e-001
1.324913e-001
1.329747e-001
1.333193e-001
1.335632e-001
1.337331e-001
1.338483e-001
1.339230e-001
1.339679e-001
1.339919e-001
1.340019e-001
1.340037e-001
1.340023e-001
1.340012e-001
1.340031e-001
1.340096e-001
1.340213e-001
1.340380e-001
1.340593e-001
1.340842e-001
1.341120e-001
1.341424e-001
1.341749e-001
1.342097e-001
1.342467e-001
1.342855e-001
1.343251e-001
1.343632e-001
1.343955e-001
1.344157e-001
1.344148e-001
1.343812e-001
1.343006e-001
1.341562e-001
1.339269e-001
1.335833e-001
1.330775e-001
1.323244e-001
1.311714e-001
1.293582e-001
1.264770e-001
1.219698e-001
1.152146e-001
1.057317e-001
9.346302e-002
7.898629e-002
6.350756e-002
4.856923e-002
3.558423e-002
2.542850e-002
1.828754e-002
1.378290e-002
1.124884e-002
9.996778e-003
9.474388e-003
9.312370e-003
9.299649e-003
9.332933e-003
9.370126e-003
9.398497e-003
9.416983e-003
9.427942e-003
9.433979e-003
9.437032e-003
9.438285e-003
9.439920e-003
9.439752e-003
9.439315e-003
9.438368e-003
9.436451e-003
9.432750e-003
9.425908e-003
9.413824e-003
9.393611e-003
9.362157e-003
9.318481e-003
9.270225e-003
9.248370e-003
9.335143e-003
9.707561e-003
1.068942e-002
1.278670e-002
1.666274e-002
2.300835e-002
3.230043e-002
4.452238e-002
5.899454e-002
7.445354e-002
8.939070e-002
1.024945e-001
1.129813e-001
1.206842e-001
1.259204e-001
1.292525e-001
1.312697e-001
1.324570e-001
1.331561e-001
1.335824e-001
1.338579e-001
1.340440e-001
1.341668e-001
1.342352e-001
1.342517e-001
1.342185e-001
1.341394e-001
1.340192e-001
1.338633e-001
1.336766e-001
1.334631e-001
1.332254e-001
1.329652e-001
1.326835e-001
1.323808e-001
1.320578e-001
1.317161e-001
1.313582e-001
1.309883e-001
1.306122e-001
1.302376e-001
1.298744e-001
1.295341e-001
1.292297e-001
1.289758e-001
1.287879e-001
1.286818e-001
1.286736e-001
1.287786e-001
1.290104e-001
1.293796e-001
1.298920e-001
1.305461e-001
1.313302e-001
1.322187e-001
1.331671e-001
1.341072e-001
1.349435e-001
1.355547e-001
1.358067e-001
1.355850e-001
1.348354e-001
1.335685e-001
1.317547e-001
1.290902e-001
1.247838e-001
1.176421e-001
1.066340e-001
9.168907e-002
7.411036e-002
5.619072e-002
4.026680e-002
2.784681e-002
1.929482e-002
1.408111e-002
1.127475e-002
9.960191e-003
9.447459e-003
9.305462e-003
9.304921e-003
9.342120e-003
9.378683e-003
9.404879e-003
9.421160e-003
9.430380e-003
9.435127e-003
9.437097e-003
9.439749e-003
9.439470e-003
9.438758e-003
9.437247e-003
9.434244e-003
9.428540e-003
9.418173e-003
9.400261e-003
9.371287e-003
9.328928e-003
9.277911e-003
9.244758e-003
9.308823e-003
9.656705e-003
1.065782e-002
1.293452e-002
1.736328e-002
2.491799e-002
3.630181e-002
5.145013e-002
6.917947e-002
8.732382e-002
1.034577e-001
1.158549e-001
1.240850e-001
1.288860e-001
1.314968e-001
1.329871e-001
1.339566e-001
1.345926e-001
1.348819e-001
1.347875e-001
1.343210e-001
1.335395e-001
1.325183e-001
1.313301e-001
1.300358e-001
1.286820e-001
1.273021e-001
1.259179e-001
1.245423e-001
1.231810e-001
1.218349e-001
1.205020e-001
1.191788e-001
1.178624e-001
1.165508e-001
1.152442e-001
1.139454e-001
1.126598e-001
1.113956e-001
1.101638e-001
1.089774e-001
1.078518e-001
1.068037e-001
1.058519e-001
1.050160e-001
1.043175e-001
1.037792e-001
1.034254e-001
1.032826e-001
1.033794e-001
1.037464e-001
1.044164e-001
1.054242e-001
1.068047e-001
1.085919e-001
1.108144e-001
1.134902e-001
1.166154e-001
1.201492e-001
1.239888e-001
1.279396e-001
1.316854e-001
1.347804e-001
1.367057e-001
1.370385e-001
1.357150e-001
1.331164e-001
1.295170e-001
1.241019e-001
1.149180e-001
1.005025e-001
8.164661e-002
6.132450e-002
4.297834e-002
2.884027e-002
1.939961e-002
1.388883e-002
1.107675e-002
9.841853e-003
9.400484e-003
9.298971e-003
9.314391e-003
9.354422e-003
9.388763e-003
9.411726e-003
9.425227e-003
9.432331e-003
9.435314e-003
9.439462e-003
9.439023e-003
9.437918e-003
9.435608e-003
9.431088e-003
9.422635e-003
9.407554e-003
9.382191e-003
9.343082e-003
9.291511e-003
9.246421e-003
9.274645e-003
9.550188e-003
1.044882e-002
1.265855e-002
1.723265e-002
2.544782e-002
3.832719e-002
5.586071e-002
7.632899e-002
9.644357e-002
1.127108e-001
1.233409e-001
1.290925e-001
1.321309e-001
1.340978e-001
1.353307e-001
1.354791e-001
1.343089e-001
1.319415e-001
1.287105e-001
1.249818e-001
1.210580e-001
1.171521e-001
1.133958e-001
1.098598e-001
1.065726e-001
1.035365e-001
1.007375e-001
9.815283e-002
9.575541e-002
9.351722e-002
9.141165e-002
8.941512e-002
8.750805e-002
8.567550e-002
8.390730e-002
8.219793e-002
8.054618e-002
7.895457e-002
7.742880e-002
7.597704e-002
7.460944e-002
7.333762e-002
7.217433e-002
7.113335e-002
7.022952e-002
6.947896e-002
6.889947e-002
6.851112e-002
6.833692e-002
6.840368e-002
6.874299e-002
6.939235e-002
7.039638e-002
7.180825e-002
7.369107e-002
7.611903e-002
7.917791e-002
8.296334e-002
8.757474e-002
9.310034e-002
9.958675e-002
1.069842e-001
1.150595e-001
1.232803e-001
1.307155e-001
1.360825e-001
1.381698e-001
1.367029e-001
1.328219e-001
1.275636e-001
1.194314e-001
1.055271e-001
8.563683e-002
6.334330e-002
4.325382e-002
2.819851e-002
1.857722e-002
1.325898e-002
1.071322e-002
9.679474e-003
9.350973e-003
9.298414e-003
9.328446e-003
9.368776e-003
9.399253e-003
9.418162e-003
9.428392e-003
9.432751e-003
9.439021e-003
9.438362e-003
9.436717e-003
9.433323e-003
9.426771e-003
9.414711e-003
9.393649e-003
9.359464e-003
9.310387e-003
9.256844e-003
9.247196e-003
9.424136e-003
1.012711e-002
1.203670e-002
1.629725e-002
2.445049e-002
3.793442e-002
5.703444e-002
7.971723e-002
1.015420e-001
1.178012e-001
1.269427e-001
1.314620e-001
1.343685e-001
1.359981e-001
1.351389e-001
1.313151e-001
1.251766e-001
1.177904e-001
1.100798e-001
1.026481e-001
9.581261e-002
8.969536e-002
8.430455e-002
7.959025e-002
7.547804e-002
7.188725e-002
6.873989e-002
6.596449e-002
6.349755e-002
6.128379e-002
5.927610e-002
5.743522e-002
5.572934e-002
5.413360e-002
5.262943e-002
5.120390e-002
4.984891e-002
4.856041e-002
4.733758e-002
4.618213e-002
4.509758e-002
4.408877e-002
4.316145e-002
4.232205e-002
4.157759e-002
4.093583e-002
4.040544e-002
3.999645e-002
3.972070e-002
3.959259e-002
3.962983e-002
3.985457e-002
4.029464e-002
4.098533e-002
4.197158e-002
4.331092e-002
4.507733e-002
4.736625e-002
5.030052e-002
5.403674e-002
5.876989e-002
6.473136e-002
7.217068e-002
8.130345e-002
9.219824e-002
1.045726e-001
1.174984e-001
1.291395e-001
1.369234e-001
1.388064e-001
1.353861e-001
1.295444e-001
1.214498e-001
1.073036e-001
8.601757e-002
6.203787e-002
4.105003e-002
2.606086e-002
1.702833e-002
1.235591e-002
1.028270e-002
9.518813e-003
9.314833e-003
9.306861e-003
9.346157e-003
9.383666e-003
9.408895e-003
9.423064e-003
9.429211e-003
9.438390e-003
9.437438e-003
9.435081e-003
9.430274e-003
9.421113e-003
9.404532e-003
9.376318e-003
9.332676e-003
9.276663e-003
9.237295e-003
9.316393e-003
9.784739e-003
1.124152e-002
1.480160e-002
2.215427e-002
3.517285e-002
5.474790e-002
7.906820e-002
1.028531e-001
1.198978e-001
1.285330e-001
1.328696e-001
1.358171e-001
1.355224e-001
1.300707e-001
1.203182e-001
1.084945e-001
9.654159e-002
8.559265e-002
7.610375e-002
6.812557e-002
6.151703e-002
5.607223e-002
5.158335e-002
4.786647e-002
4.476831e-002
4.216466e-002
3.995598e-002
3.806259e-002
3.642061e-002
3.497880e-002
3.369617e-002
3.254028e-002
3.148580e-002
3.051344e-002
2.960896e-002
2.876233e-002
2.796695e-002
2.721893e-002
2.651648e-002
2.585934e-002
2.524832e-002
2.468495e-002
2.417127e-002
2.370964e-002
2.330277e-002
2.295374e-002
2.266620e-002
2.244458e-002
2.229441e-002
2.222277e-002
2.223884e-002
2.235458e-002
2.258567e-002
2.295285e-002
2.348367e-002
2.421506e-002
2.519705e-002
2.649807e-002
2.821266e-002
3.047219e-002
3.345912e-002
3.742446e-002
4.270486e-002
4.972945e-002
5.899246e-002
7.094486e-002
8.573312e-002
1.027192e-001
1.198509e-001
1.333914e-001
1.392660e-001
1.368093e-001
1.303173e-001
1.216124e-001
1.061328e-001
8.280032e-002
5.755074e-002
3.674810e-002
2.287788e-002
1.510794e-002
1.139077e-002
9.883894e-003
9.395340e-003
9.300247e-003
9.323758e-003
9.365412e-003
9.397287e-003
9.416135e-003
9.424502e-003
9.437534e-003
9.436208e-003
9.432949e-003
9.426370e-003
9.413997e-003
9.392018e-003
9.355802e-003
9.303396e-003
9.247796e-003
9.250871e-003
9.501776e-003
1.046712e-002
1.311294e-002
1.909348e-002
3.059012e-002
4.929327e-002
7.433022e-002
1.004142e-001
1.196578e-001
1.289389e-001
1.334200e-001
1.361319e-001
1.331774e-001
1.225858e-001
1.071388e-001
9.068310e-002
7.573510e-002
6.329629e-002
5.342673e-002
4.577519e-002
3.988924e-002
3.535319e-002
3.183072e-002
2.906551e-002
2.686756e-002
2.509747e-002
2.365286e-002
2.245787e-002
2.145565e-002
2.060306e-002
1.986704e-002
1.922215e-002
1.864887e-002
1.813233e-002
1.766137e-002
1.722786e-002
1.682604e-002
1.645200e-002
1.610332e-002
1.577860e-002
1.547724e-002
1.519914e-002
1.494453e-002
1.471387e-002
1.450777e-002
1.432698e-002
1.417242e-002
1.404529e-002
1.394713e-002
1.388003e-002
1.384682e-002
1.385134e-002
1.389880e-002
1.399630e-002
1.415354e-002
1.438385e-002
1.470576e-002
1.514534e-002
1.573993e-002
1.654380e-002
1.763708e-002
1.913949e-002
2.123110e-002
2.418205e-002
2.839130e-002
3.442607e-002
4.303347e-002
5.505579e-002
7.112374e-002
9.097520e-002
1.124042e-001
1.305047e-001
1.392116e-001
1.369909e-001
1.298147e-001
1.199726e-001
1.018349e-001
7.602819e-002
5.041651e-002
3.110094e-002
1.928265e-002
1.320324e-002
1.054631e-002
9.582419e-003
9.324157e-003
9.306414e-003
9.345651e-003
9.383440e-003
9.407473e-003
9.418462e-003
9.436431e-003
9.434645e-003
9.430286e-003
9.421570e-003
9.405403e-003
9.377294e-003
9.332801e-003
9.274206e-003
9.231828e-003
9.319603e-003
9.856533e-003
1.158182e-002
1.592667e-002
2.511219e-002
4.152874e-002
6.577748e-002
9.384789e-002
1.168506e-001
1.283850e-001
1.330994e-001
1.358267e-001
1.312469e-001
1.166557e-001
9.658895e-002
7.659770e-002
5.976379e-002
4.685959e-002
3.745701e-002
3.076127e-002
2.601473e-002
2.262530e-002
2.016993e-002
1.835891e-002
1.699702e-002
1.595288e-002
1.513731e-002
1.448889e-002
1.396452e-002
1.353339e-002
1.317300e-002
1.286671e-002
1.260208e-002
1.236978e-002
1.216285e-002
1.197615e-002
1.180594e-002
1.164959e-002
1.150530e-002
1.137190e-002
1.124864e-002
1.113513e-002
1.103113e-002
1.093657e-002
1.085144e-002
1.077579e-002
1.070969e-002
1.065331e-002
1.060690e-002
1.057084e-002
1.054573e-002
1.053244e-002
1.053223e-002
1.054693e-002
1.057911e-002
1.063240e-002
1.071199e-002
1.082532e-002
1.098329e-002
1.120215e-002
1.150671e-002
1.193566e-002
1.255069e-002
1.345189e-002
1.480353e-002
1.687559e-002
2.010538e-002
2.517478e-002
3.306958e-002
4.502269e-002
6.214002e-002
8.444266e-002
1.092916e-001
1.302244e-001
1.393743e-001
1.359150e-001
1.280528e-001
1.160471e-001
9.390289e-002
6.606219e-002
4.162357e-002
2.507832e-002
1.590159e-002
1.161245e-002
9.926015e-003
9.398540e-003
9.300993e-003
9.326368e-003
9.367764e-003
9.397058e-003
9.410983e-003
9.435069e-003
9.432740e-003
9.427087e-003
9.415893e-003
9.395428e-003
9.360713e-003
9.308446e-003
9.248457e-003
9.237881e-003
9.465894e-003
1.042861e-002
1.321205e-002
1.977422e-002
3.280443e-002
5.436224e-002
8.284029e-002
1.102975e-001
1.265699e-001
1.321717e-001
1.352246e-001
1.312669e-001
1.149222e-001
9.140140e-002
6.831435e-002
4.977230e-002
3.650501e-002
2.761406e-002
2.184277e-002
1.812583e-002
1.571033e-002
1.410908e-002
1.301992e-002
1.225811e-002
1.171031e-002
1.130601e-002
1.100038e-002
1.076421e-002
1.057799e-002
1.042830e-002
1.030569e-002
1.020340e-002
1.011648e-002
1.004134e-002
9.975324e-003
9.916512e-003
9.863528e-003
9.815401e-003
9.771465e-003
9.731271e-003
9.694524e-003
9.661028e-003
9.630650e-003
9.603292e-003
9.578875e-003
9.557328e-003
9.538591e-003
9.522616e-003
9.509381e-003
9.498900e-003
9.491245e-003
9.486569e-003
9.485141e-003
9.487392e-003
9.493984e-003
9.505915e-003
9.524681e-003
9.552546e-003
9.592994e-003
9.651515e-003
9.737006e-003
9.864318e-003
1.005897e-002
1.036603e-002
1.086672e-002
1.170911e-002
1.316229e-002
1.570429e-002
2.014332e-002
2.772915e-002
4.010690e-002
5.879733e-002
8.379697e-002
1.113478e-001
1.327595e-001
1.392578e-001
1.335677e-001
1.248999e-001
1.087184e-001
8.207990e-002
5.392867e-002
3.249659e-002
1.960538e-002
1.317664e-002
1.047709e-002
9.545837e-003
9.315965e-003
9.310323e-003
9.351001e-003
9.385016e-003
9.402032e-003
9.433458e-003
9.430509e-003
9.423389e-003
9.409428e-003
9.384292e-003
9.342830e-003
9.284159e-003
9.229722e-003
9.274388e-003
9.707476e-003
1.124815e-002
1.538693e-002
2.460924e-002
4.183086e-002
6.806366e-002
9.853097e-002
1.218841e-001
1.310110e-001
1.341056e-001
1.328354e-001
1.180362e-001
9.262958e-002
6.640142e-002
4.550312e-002
3.121056e-002
2.230838e-002
1.705346e-002
1.402387e-002
1.227707e-002
1.125150e-002
1.063093e-002
1.024148e-002
9.987605e-003
9.816002e-003
9.696120e-003
9.609889e-003
9.546243e-003
9.498169e-003
9.461073e-003
9.431855e-003
9.408370e-003
9.389111e-003
9.373007e-003
9.359296e-003
9.347439e-003
9.337057e-003
9.327889e-003
9.319753e-003
9.312527e-003
9.306120e-003
9.300463e-003
9.295499e-003
9.291170e-003
9.287421e-003
9.284191e-003
9.281415e-003
9.279029e-003
9.276966e-003
9.275162e-003
9.273560e-003
9.272111e-003
9.270783e-003
9.269564e-003
9.268478e-003
9.267602e-003
9.267100e-003
9.267287e-003
9.268748e-003
9.272562e-003
9.280768e-003
9.297300e-003
9.329951e-003
9.394522e-003
9.523623e-003
9.785085e-003
1.031924e-002
1.140992e-002
1.360657e-002
1.789896e-002
2.587663e-002
3.963430e-002
6.093130e-002
8.907891e-002
1.180539e-001
1.365227e-001
1.376367e-001