# vtk DataFile Version 3.0
vtk output
ASCII
DATASET STRUCTURED_POINTS
DIMENSIONS 100 100 1
SPACING 1 1 1
ORIGIN 0 0 0
POINT_DATA 10000
SCALARS SFBox_profile double
LOOKUP_TABLE default 
9.439947e-003
9.439951e-003
9.439958e-003
9.439970e-003
9.439985e-003
9.440000e-003
9.440011e-003
9.440006e-003
9.439963e-003
9.439845e-003
9.439591e-003
9.439106e-003
9.438252e-003
9.436839e-003
9.434614e-003
9.431265e-003
9.426428e-003
9.419711e-003
9.410736e-003
9.399188e-003
9.384876e-003
9.367787e-003
9.348126e-003
9.326323e-003
9.303009e-003
9.278957e-003
9.255009e-003
9.231992e-003
9.210645e-003
9.191570e-003
9.175198e-003
9.161793e-003
9.151464e-003
9.144193e-003
9.139865e-003
9.138299e-003
9.139263e-003
9.142491e-003
9.147699e-003
9.154592e-003
9.162874e-003
9.172264e-003
9.182505e-003
9.193375e-003
9.204690e-003
9.216310e-003
9.228137e-003
9.240111e-003
9.252201e-003
9.264395e-003
9.276692e-003
9.289090e-003
9.301567e-003
9.314080e-003
9.326541e-003
9.338817e-003
9.350711e-003
9.361962e-003
9.372234e-003
9.381123e-003
9.388160e-003
9.392824e-003
9.394571e-003
9.392870e-003
9.387249e-003
9.377361e-003
9.363055e-003
9.344454e-003
9.322029e-003
9.296656e-003
9.269635e-003
9.242658e-003
9.217705e-003
9.196867e-003
9.182106e-003
9.174984e-003
9.176418e-003
9.186501e-003
9.204451e-003
9.228704e-003
9.257138e-003
9.287399e-003
9.317244e-003
9.344831e-003
9.368900e-003
9.388818e-003
9.404508e-003
9.416305e-003
9.424788e-003
9.430628e-003
9.434475e-003
9.436900e-003
9.438355e-003
9.439184e-003
9.439626e-003
9.439844e-003
9.439940e-003
9.439975e-003
9.439983e-003
9.439984e-003
9.439947e-003
9.439951e-003
9.439958e-003
9.439970e-003
9.439985e-003
9.440000e-003
9.440011e-003
9.440006e-003
9.439963e-003
9.439845e-003
9.439591e-003
9.439106e-003
9.438252e-003
9.436839e-003
9.434614e-003
9.431265e-003
9.426428e-003
9.419711e-003
9.410736e-003
9.399188e-003
9.384876e-003
9.367787e-003
9.348126e-003
9.326323e-003
9.303009e-003
9.278957e-003
9.255009e-003
9.231992e-003
9.210645e-003
9.191570e-003
9.175198e-003
9.161793e-003
9.151464e-003
9.144193e-003
9.139865e-003
9.138299e-003
9.139263e-003
9.142491e-003
9.147699e-003
9.154592e-003
9.162874e-003
9.172264e-003
9.182505e-003
9.193375e-003
9.204690e-003
9.216310e-003
9.228137e-003
9.240111e-003
9.252201e-003
9.264395e-003
9.276692e-003
9.289090e-003
9.301567e-003
9.314080e-003
9.326541e-003
9.338817e-003
9.350711e-003
9.361962e-003
9.372234e-003
9.381123e-003
9.388160e-003
9.392824e-003
9.394571e-003
9.392870e-003
9.387249e-003
9.377361e-003
9.363055e-003
9.344454e-003
9.322029e-003
9.296656e-003
9.269635e-003
9.242658e-003
9.217705e-003
9.196867e-003
9.182106e-003
9.174984e-003
9.176418e-003
9.186501e-003
9.204451e-003
9.228704e-003
9.257138e-003
9.287399e-003
9.317244e-003
9.344831e-003
9.368900e-003
9.388818e-003
9.404508e-003
9.416305e-003
9.424788e-003
9.430628e-003
9.434475e-003
9.436900e-003
9.438355e-003
9.439184e-003
9.439626e-003
9.439844e-003
9.439940e-003
9.439975e-003
9.439983e-003
9.439984e-003
9.439952e-003
9.439956e-003
9.439964e-003
9.439975e-003
9.439988e-003
9.439997e-003
9.439994e-003
9.439958e-003
9.439855e-003
9.439626e-003
9.439179e-003
9.438373e-003
9.437006e-003
9.434803e-003
9.431409e-003
9.426404e-003
9.419322e-003
9.409711e-003
9.397217e-003
9.381677e-003
9.363234e-003
9.342411e-003
9.320139e-003
9.297720e-003
9.276708e-003
9.258746e-003
9.245388e-003
9.237934e-003
9.237319e-003
9.244059e-003
9.258262e-003
9.279682e-003
9.307807e-003
9.341955e-003
9.381350e-003
9.425184e-003
9.472658e-003
9.522990e-003
9.575433e-003
9.629279e-003
9.683874e-003
9.738630e-003
9.793048e-003
9.846728e-003
9.899380e-003
9.950819e-003
1.000096e-002
1.004980e-002
1.009741e-002
1.014385e-002
1.018922e-002
1.023357e-002
1.027688e-002
1.031903e-002
1.035979e-002
1.039875e-002
1.043534e-002
1.046876e-002
1.049804e-002
1.052197e-002
1.053917e-002
1.054808e-002
1.054702e-002
1.053432e-002
1.050835e-002
1.046775e-002
1.041154e-002
1.033936e-002
1.025166e-002
1.014988e-002
1.003663e-002
9.915638e-003
9.791701e-003
9.670337e-003
9.557319e-003
9.458063e-003
9.376968e-003
9.316837e-003
9.278499e-003
9.260730e-003
9.260513e-003
9.273596e-003
9.295220e-003
9.320860e-003
9.346801e-003
9.370445e-003
9.390348e-003
9.406038e-003
9.417720e-003
9.425981e-003
9.431550e-003
9.435132e-003
9.437331e-003
9.438616e-003
9.439327e-003
9.439695e-003
9.439872e-003
9.439947e-003
9.439975e-003
9.439983e-003
9.439962e-003
9.439967e-003
9.439975e-003
9.439984e-003
9.439990e-003
9.439983e-003
9.439941e-003
9.439828e-003
9.439577e-003
9.439082e-003
9.438175e-003
9.436609e-003
9.434037e-003
9.429998e-003
9.423931e-003
9.415209e-003
9.403236e-003
9.387599e-003
9.368287e-003
9.345932e-003
9.322031e-003
9.299055e-003
9.280381e-003
9.270027e-003
9.272225e-003
9.290907e-003
9.329234e-003
9.389256e-003
9.471749e-003
9.576250e-003
9.701241e-003
9.844436e-003
1.000310e-002
1.017432e-002
1.035525e-002
1.054324e-002
1.073587e-002
1.093099e-002
1.112664e-002
1.132110e-002
1.151287e-002
1.170065e-002
1.188344e-002
1.206050e-002
1.223139e-002
1.239593e-002
1.255421e-002
1.270648e-002
1.285313e-002
1.299459e-002
1.313125e-002
1.326335e-002
1.339094e-002
1.351375e-002
1.363117e-002
1.374210e-002
1.384499e-002
1.393770e-002
1.401755e-002
1.408124e-002
1.412497e-002
1.414443e-002
1.413493e-002
1.409161e-002
1.400971e-002
1.388482e-002
1.371340e-002
1.349327e-002
1.322411e-002
1.290812e-002
1.255044e-002
1.215947e-002
1.174684e-002
1.132694e-002
1.091592e-002
1.053033e-002
1.018530e-002
9.892825e-003
9.660255e-003
9.489437e-003
9.376725e-003
9.313910e-003
9.289876e-003
9.292590e-003
9.310932e-003
9.335980e-003
9.361555e-003
9.384100e-003
9.402123e-003
9.415504e-003
9.424848e-003
9.431035e-003
9.434932e-003
9.437272e-003
9.438609e-003
9.439332e-003
9.439701e-003
9.439875e-003
9.439950e-003
9.439977e-003
9.439978e-003
9.439982e-003
9.439988e-003
9.439992e-003
9.439982e-003
9.439937e-003
9.439815e-003
9.439543e-003
9.438997e-003
9.437978e-003
9.436180e-003
9.433162e-003
9.428321e-003
9.420896e-003
9.410026e-003
9.394903e-003
9.375060e-003
9.350818e-003
9.323858e-003
9.297808e-003
9.278645e-003
9.274695e-003
9.296106e-003
9.353791e-003
9.458057e-003
9.617216e-003
9.836511e-003
1.011755e-002
1.045835e-002
1.085379e-002
1.129650e-002
1.177779e-002
1.228859e-002
1.282014e-002
1.336454e-002
1.391489e-002
1.446536e-002
1.501107e-002
1.554788e-002
1.607235e-002
1.658163e-002
1.707348e-002
1.754631e-002
1.799916e-002
1.843171e-002
1.884426e-002
1.923760e-002
1.961289e-002
1.997148e-002
2.031477e-002
2.064398e-002
2.095994e-002
2.126298e-002
2.155268e-002
2.182774e-002
2.208585e-002
2.232352e-002
2.253606e-002
2.271746e-002
2.286038e-002
2.295620e-002
2.299513e-002
2.296641e-002
2.285862e-002
2.266013e-002
2.235978e-002
2.194766e-002
2.141622e-002
2.076151e-002
1.998453e-002
1.909266e-002
1.810077e-002
1.703189e-002
1.591688e-002
1.479314e-002
1.370191e-002
1.268452e-002
1.177786e-002
1.100997e-002
1.039644e-002
9.938702e-003
9.624745e-003
9.432115e-003
9.332576e-003
9.297139e-003
9.300235e-003
9.322201e-003
9.349906e-003
9.375944e-003
9.397093e-003
9.412712e-003
9.423453e-003
9.430417e-003
9.434703e-003
9.437214e-003
9.438613e-003
9.439352e-003
9.439720e-003
9.439888e-003
9.439952e-003
9.439997e-003
9.440000e-003
9.440001e-003
9.439990e-003
9.439945e-003
9.439823e-003
9.439545e-003
9.438973e-003
9.437881e-003
9.435909e-003
9.432516e-003
9.426943e-003
9.418199e-003
9.405136e-003
9.386677e-003
9.362316e-003
9.332971e-003
9.302202e-003
9.277644e-003
9.272226e-003
9.304627e-003
9.398454e-003
9.579970e-003
9.874695e-003
1.030365e-002
1.088020e-002
1.160816e-002
1.248159e-002
1.348608e-002
1.460100e-002
1.580221e-002
1.706467e-002
1.836459e-002
1.968088e-002
2.099587e-002
2.229543e-002
2.356854e-002
2.480680e-002
2.600378e-002
2.715466e-002
2.825591e-002
2.930523e-002
3.030153e-002
3.124489e-002
3.213650e-002
3.297858e-002
3.377410e-002
3.452659e-002
3.523975e-002
3.591717e-002
3.656194e-002
3.717633e-002
3.776147e-002
3.831704e-002
3.884103e-002
3.932950e-002
3.977637e-002
4.017326e-002
4.050940e-002
4.077159e-002
4.094416e-002
4.100912e-002
4.094636e-002
4.073404e-002
4.034913e-002
3.976830e-002
3.896911e-002
3.793166e-002
3.664073e-002
3.508844e-002
3.327729e-002
3.122334e-002
2.895895e-002
2.653452e-002
2.401826e-002
2.149341e-002
1.905229e-002
1.678739e-002
1.478050e-002
1.309183e-002
1.175168e-002
1.075718e-002
1.007523e-002
9.651068e-003
9.420064e-003
9.319213e-003
9.295633e-003
9.310598e-003
9.339436e-003
9.368791e-003
9.392974e-003
9.410673e-003
9.422613e-003
9.430174e-003
9.434708e-003
9.437293e-003
9.438694e-003
9.439412e-003
9.439753e-003
9.439886e-003
9.440019e-003
9.440018e-003
9.440006e-003
9.439964e-003
9.439849e-003
9.439581e-003
9.439017e-003
9.437910e-003
9.435860e-003
9.432242e-003
9.426149e-003
9.416351e-003
9.401381e-003
9.379844e-003
9.351184e-003
9.317150e-003
9.284135e-003
9.266243e-003
9.288420e-003
9.388393e-003
9.615978e-003
1.002884e-002
1.068489e-002
1.163301e-002
1.290445e-002
1.450721e-002
1.642491e-002
1.861972e-002
2.103854e-002
2.362025e-002
2.630273e-002
2.902836e-002
3.174775e-002
3.442141e-002
3.701986e-002
3.952254e-002
4.191611e-002
4.419258e-002
4.634777e-002
4.838017e-002
5.029026e-002
5.208015e-002
5.375345e-002
5.531517e-002
5.677156e-002
5.812990e-002
5.939814e-002
6.058451e-002
6.169706e-002
6.274322e-002
6.372928e-002
6.466004e-002
6.553835e-002
6.636478e-002
6.713734e-002
6.785119e-002
6.849844e-002
6.906797e-002
6.954529e-002
6.991242e-002
7.014783e-002
7.022636e-002
7.011927e-002
6.979432e-002
6.921598e-002
6.834592e-002
6.714391e-002
6.556927e-002
6.358318e-002
6.115215e-002
5.825273e-002
5.487763e-002
5.104285e-002
4.679497e-002
4.221732e-002
3.743271e-002
3.260050e-002
2.790577e-002
2.354004e-002
1.967571e-002
1.643958e-002
1.389284e-002
1.202411e-002
1.075840e-002
9.978691e-003
9.553069e-003
9.358897e-003
9.298231e-003
9.302967e-003
9.331963e-003
9.364084e-003
9.390734e-003
9.409954e-003
9.422628e-003
9.430443e-003
9.435000e-003
9.437522e-003
9.438844e-003
9.439487e-003
9.439743e-003
9.440039e-003
9.440028e-003
9.439990e-003
9.439887e-003
9.439643e-003
9.439116e-003
9.438055e-003
9.436038e-003
9.432383e-003
9.426064e-003
9.415639e-003
9.399315e-003
9.375321e-003
9.342967e-003
9.304872e-003
9.270927e-003
9.264097e-003
9.327245e-003
9.528703e-003
9.963249e-003
1.074544e-002
1.199443e-002
1.381282e-002
1.626529e-002
1.936356e-002
2.306215e-002
2.726598e-002
3.184627e-002
3.666003e-002
4.156784e-002
4.644701e-002
5.119905e-002
5.575195e-002
6.005862e-002
6.409306e-002
6.784544e-002
7.131732e-002
7.451746e-002
7.745879e-002
8.015633e-002
8.262603e-002
8.488423e-002
8.694739e-002
8.883201e-002
9.055441e-002
9.213060e-002
9.357598e-002
9.490502e-002
9.613090e-002
9.726520e-002
9.831758e-002
9.929548e-002
1.002039e-001
1.010454e-001
1.018195e-001
1.025231e-001
1.031500e-001
1.036911e-001
1.041341e-001
1.044635e-001
1.046600e-001
1.047007e-001
1.045584e-001
1.042009e-001
1.035900e-001
1.026814e-001
1.014229e-001
9.975477e-002
9.760914e-002
9.491177e-002
9.158534e-002
8.755586e-002
8.276303e-002
7.717513e-002
7.080794e-002
6.374525e-002
5.615562e-002
4.829788e-002
4.050706e-002
3.315655e-002
2.659982e-002
2.110612e-002
1.681097e-002
1.369974e-002
1.162970e-002
1.038015e-002
9.710361e-003
9.406109e-003
9.304712e-003
9.299086e-003
9.328186e-003
9.362493e-003
9.390775e-003
9.410728e-003
9.423532e-003
9.431201e-003
9.435537e-003
9.437854e-003
9.439000e-003
9.439464e-003
9.440049e-003
9.440019e-003
9.439932e-003
9.439721e-003
9.439254e-003
9.438291e-003
9.436409e-003
9.432909e-003
9.426694e-003
9.416161e-003
9.399223e-003
9.373690e-003
9.338550e-003
9.296978e-003
9.262239e-003
9.267320e-003
9.377751e-003
9.704319e-003
1.040924e-002
1.169809e-002
1.379250e-002
1.688636e-002
2.109672e-002
2.642655e-002
3.275350e-002
3.984904e-002
4.742050e-002
5.516076e-002
6.279129e-002
7.008981e-002
7.690118e-002
8.313480e-002
8.875401e-002
9.376216e-002
9.818914e-002
1.020802e-001
1.054875e-001
1.084646e-001
1.110631e-001
1.133305e-001
1.153099e-001
1.170394e-001
1.185529e-001
1.198800e-001
1.210465e-001
1.220750e-001
1.229848e-001
1.237925e-001
1.245120e-001
1.251548e-001
1.257303e-001
1.262456e-001
1.267061e-001
1.271155e-001
1.274758e-001
1.277877e-001
1.280502e-001
1.282615e-001
1.284180e-001
1.285148e-001
1.285453e-001
1.285003e-001
1.283681e-001
1.281327e-001
1.277728e-001
1.272596e-001
1.265547e-001
1.256063e-001
1.243459e-001
1.226837e-001
1.205044e-001
1.176647e-001
1.139949e-001
1.093083e-001
1.034236e-001
9.620459e-002
8.761430e-002
7.777525e-002
6.701341e-002
5.586011e-002
4.499024e-002
3.509786e-002
2.674413e-002
2.023601e-002
1.558496e-002
1.255647e-002
1.077781e-002
9.852951e-003
9.444616e-003
9.309909e-003
9.298037e-003
9.328281e-003
9.364215e-003
9.393116e-003
9.412898e-003
9.425197e-003
9.432328e-003
9.436213e-003
9.438165e-003
9.438964e-003
9.440038e-003
9.439975e-003
9.439803e-003
9.439411e-003
9.438579e-003
9.436913e-003
9.433733e-003
9.427932e-003
9.417826e-003
9.401105e-003
9.375157e-003
9.338410e-003
9.293913e-003
9.257073e-003
9.269656e-003
9.420728e-003
9.870939e-003
1.086996e-002
1.275118e-002
1.588878e-002
2.061484e-002
2.711585e-002
3.534743e-002
4.500773e-002
5.558672e-002
6.647321e-002
7.707698e-002
8.692420e-002
9.570449e-002
1.032718e-001
1.096150e-001
1.148157e-001
1.190064e-001
1.223382e-001
1.249596e-001
1.270054e-001
1.285922e-001
1.298177e-001
1.307622e-001
1.314898e-001
1.320515e-001
1.324864e-001
1.328247e-001
1.330891e-001
1.332966e-001
1.334598e-001
1.335883e-001
1.336892e-001
1.337677e-001
1.338280e-001
1.338733e-001
1.339060e-001
1.339282e-001
1.339416e-001
1.339476e-001
1.339476e-001
1.339424e-001
1.339331e-001
1.339200e-001
1.339032e-001
1.338824e-001
1.338563e-001
1.338226e-001
1.337778e-001
1.337162e-001
1.336296e-001
1.335062e-001
1.333285e-001
1.330711e-001
1.326963e-001
1.321471e-001
1.313360e-001
1.301286e-001
1.283206e-001
1.256180e-001
1.216329e-001
1.159217e-001
1.080839e-001
9.791946e-002
8.560265e-002
7.178492e-002
5.753840e-002
4.411498e-002
3.260446e-002
2.364906e-002
1.734455e-002
1.334391e-002
1.107272e-002
9.938192e-003
9.459563e-003
9.310073e-003
9.299347e-003
9.332249e-003
9.369084e-003
9.397462e-003
9.416160e-003
9.427371e-003
9.433616e-003
9.436806e-003
9.438126e-003
9.439988e-003
9.439871e-003
9.439562e-003
9.438881e-003
9.437479e-003
9.434734e-003
9.429592e-003
9.420382e-003
9.404685e-003
9.379529e-003
9.342604e-003
9.295976e-003
9.255008e-003
9.266212e-003
9.437062e-003
9.975715e-003
1.122768e-002
1.368253e-002
1.791682e-002
2.445407e-002
3.356518e-002
4.508779e-002
5.836672e-002
7.237343e-002
8.596577e-002
9.817139e-002
1.083777e-001
1.163777e-001
1.222952e-001
1.264549e-001
1.292548e-001
1.310741e-001
1.322240e-001
1.329361e-001
1.333711e-001
1.336363e-001
1.338010e-001
1.339085e-001
1.339840e-001
1.340406e-001
1.340839e-001
1.341154e-001
1.341346e-001
1.341409e-001
1.341339e-001
1.341142e-001
1.340829e-001
1.340417e-001
1.339924e-001
1.339371e-001
1.338777e-001
1.338161e-001
1.337544e-001
1.336944e-001
1.336383e-001
1.335886e-001
1.335480e-001
1.335197e-001
1.335077e-001
1.335163e-001
1.335502e-001
1.336144e-001
1.337136e-001
1.338512e-001
1.340284e-001
1.342424e-001
1.344837e-001
1.347342e-001
1.349640e-001
1.351303e-001
1.351791e-001
1.350513e-001
1.346934e-001
1.340642e-001
1.331203e-001
1.317579e-001
1.297076e-001
1.264225e-001
1.210632e-001
1.127126e-001
1.008424e-001
8.580119e-002
6.895445e-002
5.229536e-002
3.772265e-002
2.641140e-002
1.859994e-002
1.379786e-002
1.118183e-002
9.938359e-003
9.444995e-003
9.305210e-003
9.303485e-003
9.339958e-003
9.376601e-003
9.403265e-003
9.420060e-003
9.429688e-003
9.434697e-003
9.436792e-003
9.439875e-003
9.439674e-003
9.439154e-003
9.438036e-003
9.435783e-003
9.431452e-003
9.423476e-003
9.409468e-003
9.386243e-003
9.350727e-003
9.303314e-003
9.256872e-003
9.256710e-003
9.417701e-003
9.980490e-003
1.137465e-002
1.425168e-002
1.942675e-002
2.767250e-002
3.937380e-002
5.417467e-002
7.084517e-002
8.754110e-002
1.023941e-001
1.141293e-001
1.223813e-001
1.275871e-001
1.305966e-001
1.322672e-001
1.332306e-001
1.338452e-001
1.342586e-001
1.345009e-001
1.345635e-001
1.344427e-001
1.341512e-001
1.337146e-001
1.331628e-001
1.325243e-001
1.318237e-001
1.310815e-001
1.303145e-001
1.295363e-001
1.287580e-001
1.279885e-001
1.272342e-001
1.264998e-001
1.257882e-001
1.251009e-001
1.244388e-001
1.238020e-001
1.231912e-001
1.226073e-001
1.220525e-001
1.215303e-001
1.210461e-001
1.206075e-001
1.202248e-001
1.199108e-001
1.196815e-001
1.195559e-001
1.195562e-001
1.197075e-001
1.200374e-001
1.205752e-001
1.213500e-001
1.223879e-001
1.237080e-001
1.253145e-001
1.271875e-001
1.292693e-001
1.314483e-001
1.335443e-001
1.353033e-001
1.364186e-001
1.366053e-001
1.357300e-001
1.338983e-001
1.312693e-001
1.275092e-001
1.213761e-001
1.112077e-001
9.626658e-002
7.774755e-002
5.841252e-002
4.119929e-002
2.795602e-002
1.905533e-002
1.379797e-002
1.107313e-002
9.853677e-003
9.406978e-003
9.299093e-003
9.311456e-003
9.350988e-003
9.385962e-003
9.409787e-003
9.423999e-003
9.431564e-003
9.434767e-003
9.439671e-003
9.439346e-003
9.438516e-003
9.436763e-003
9.433293e-003
9.426727e-003
9.414846e-003
9.394458e-003
9.361908e-003
9.315666e-003
9.264278e-003
9.245944e-003
9.368975e-003
9.880976e-003
1.126079e-002
1.429311e-002
2.003663e-002
2.956998e-002
4.346772e-002
6.117288e-002
8.069801e-002
9.910442e-002
1.137302e-001
1.234306e-001
1.288876e-001
1.317559e-001
1.334612e-001
1.346096e-001
1.351805e-001
1.349993e-001
1.340192e-001
1.323455e-001
1.301576e-001
1.276414e-001
1.249547e-001
1.222170e-001
1.195121e-001
1.168937e-001
1.143940e-001
1.120307e-001
1.098114e-001
1.077379e-001
1.058076e-001
1.040153e-001
1.023534e-001
1.008129e-001
9.938400e-002
9.805626e-002
9.681960e-002
9.566463e-002
9.458322e-002
9.356895e-002
9.261757e-002
9.172731e-002
9.089922e-002
9.013745e-002
8.944951e-002
8.884651e-002
8.834343e-002
8.795942e-002
8.771815e-002
8.764826e-002
8.778388e-002
8.816526e-002
8.883947e-002
8.986103e-002
9.129225e-002
9.320282e-002
9.566783e-002
9.876279e-002
1.025536e-001
1.070782e-001
1.123151e-001
1.181344e-001
1.242308e-001
1.300523e-001
1.347818e-001
1.374808e-001
1.375180e-001
1.351246e-001
1.312386e-001
1.259370e-001
1.172267e-001
1.028204e-001
8.314657e-002
6.165378e-002
4.242806e-002
2.795678e-002
1.860117e-002
1.334559e-002
1.077967e-002
9.712102e-003
9.360391e-003
9.297007e-003
9.323889e-003
9.364443e-003
9.396096e-003
9.416117e-003
9.427099e-003
9.431820e-003
9.439342e-003
9.438839e-003
9.437574e-003
9.434939e-003
9.429798e-003
9.420220e-003
9.403220e-003
9.374896e-003
9.332071e-003
9.278373e-003
9.241033e-003
9.309495e-003
9.709630e-003
1.091839e-002
1.378777e-002
1.957517e-002
2.969896e-002
4.506081e-002
6.505651e-002
8.693263e-002
1.064691e-001
1.202389e-001
1.278579e-001
1.317058e-001
1.341450e-001
1.356222e-001
1.354253e-001
1.331336e-001
1.290195e-001
1.237146e-001
1.178543e-001
1.119175e-001
1.062060e-001
1.008812e-001
9.601014e-002
9.160306e-002
8.763925e-002
8.408367e-002
8.089680e-002
7.803975e-002
7.547661e-002
7.317496e-002
7.110567e-002
6.924242e-002
6.756125e-002
6.604026e-002
6.465947e-002
6.340083e-002
6.224833e-002
6.118813e-002
6.020867e-002
5.930084e-002
5.845811e-002
5.767662e-002
5.695523e-002
5.629569e-002
5.570265e-002
5.518382e-002
5.475014e-002
5.441602e-002
5.419972e-002
5.412389e-002
5.421638e-002
5.451130e-002
5.505053e-002
5.588569e-002
5.708062e-002
5.871449e-002
6.088521e-002
6.371287e-002
6.734195e-002
7.194006e-002
7.768849e-002
8.475573e-002
9.323939e-002
1.030566e-001
1.137689e-001
1.243659e-001
1.331536e-001
1.381039e-001
1.380649e-001
1.341440e-001
1.284795e-001
1.202274e-001
1.058816e-001
8.494782e-002
6.165611e-002
4.120494e-002
2.641884e-002
1.735194e-002
1.256258e-002
1.038459e-002
9.556117e-003
9.321547e-003
9.302822e-003
9.340282e-003
9.378914e-003
9.405686e-003
9.420992e-003
9.427702e-003
9.438850e-003
9.438107e-003
9.436254e-003
9.432441e-003
9.425101e-003
9.411642e-003
9.388289e-003
9.350868e-003
9.298748e-003
9.247398e-003
9.260626e-003
9.520027e-003
1.044813e-002
1.287411e-002
1.815136e-002
2.800642e-002
4.382205e-002
6.529717e-002
8.922030e-002
1.100468e-001
1.234091e-001
1.299153e-001
1.335268e-001
1.358742e-001
1.353842e-001
1.308696e-001
1.230134e-001
1.133829e-001
1.033864e-001
9.391767e-002
8.540742e-002
7.798356e-002
7.160992e-002
6.617712e-002
6.155364e-002
5.761127e-002
5.423609e-002
5.133183e-002
4.881943e-002
4.663496e-002
4.472680e-002
4.305308e-002
4.157934e-002
4.027677e-002
3.912088e-002
3.809063e-002
3.716783e-002
3.633680e-002
3.558410e-002
3.489843e-002
3.427054e-002
3.369314e-002
3.316089e-002
3.267036e-002
3.221997e-002
3.181000e-002
3.144258e-002
3.112175e-002
3.085349e-002
3.064593e-002
3.050960e-002
3.045781e-002
3.050732e-002
3.067922e-002
3.100027e-002
3.150479e-002
3.223724e-002
3.325592e-002
3.463791e-002
3.648582e-002
3.893658e-002
4.217219e-002
4.643153e-002
5.201869e-002
5.929753e-002
6.864959e-002
8.035547e-002
9.434510e-002
1.097835e-001
1.246006e-001
1.354652e-001
1.392318e-001
1.360505e-001
1.297403e-001
1.211308e-001
1.058778e-001
8.315281e-002
5.843300e-002
3.775011e-002
2.367481e-002
1.560432e-002
1.164214e-002
9.985960e-003
9.424551e-003
9.301206e-003
9.317170e-003
9.358846e-003
9.392539e-003
9.412969e-003
9.422160e-003
9.438161e-003
9.437103e-003
9.434488e-003
9.429164e-003
9.419047e-003
9.400814e-003
9.370039e-003
9.323271e-003
9.266115e-003
9.236718e-003
9.362477e-003
9.974364e-003
1.179097e-002
1.611858e-002
2.486074e-002
3.994109e-002
6.180177e-002
8.746523e-002
1.103330e-001
1.244724e-001
1.308147e-001
1.346037e-001
1.361268e-001
1.320219e-001
1.218431e-001
1.081671e-001
9.385208e-002
8.070364e-002
6.947210e-002
6.025073e-002
5.282678e-002
4.689234e-002
4.214553e-002
3.832820e-002
3.523317e-002
3.269944e-002
3.060393e-002
2.885334e-002
2.737711e-002
2.612173e-002
2.504631e-002
2.411915e-002
2.331522e-002
2.261441e-002
2.200021e-002
2.145890e-002
2.097896e-002
2.055072e-002
2.016607e-002
1.981830e-002
1.950197e-002
1.921283e-002
1.894771e-002
1.870448e-002
1.848202e-002
1.828013e-002
1.809957e-002
1.794200e-002
1.781007e-002
1.770744e-002
1.763897e-002
1.761090e-002
1.763127e-002
1.771040e-002
1.786177e-002
1.810314e-002
1.845841e-002
1.896015e-002
1.965353e-002
2.060204e-002
2.189609e-002
2.366579e-002
2.609937e-002
2.946835e-002
3.415755e-002
4.068997e-002
4.971821e-002
6.192043e-002
7.769704e-002
9.655617e-002
1.162386e-001
1.322223e-001
1.393341e-001
1.367068e-001
1.297469e-001
1.202170e-001
1.028267e-001
7.779495e-002
5.236813e-002
3.267538e-002
2.028916e-002
1.373282e-002
1.077644e-002
9.660647e-003
9.339385e-003
9.301542e-003
9.337464e-003
9.376817e-003
9.402850e-003
9.414972e-003
9.437246e-003
9.435793e-003
9.432226e-003
9.425037e-003
9.411557e-003
9.387728e-003
9.348861e-003
9.293976e-003
9.240642e-003
9.265322e-003
9.595354e-003
1.078165e-002
1.394410e-002
2.094915e-002
3.412589e-002
5.494113e-002
8.156810e-002
1.072614e-001
1.238722e-001
1.308523e-001
1.347783e-001
1.354948e-001
1.279697e-001
1.126543e-001
9.415241e-002
7.650775e-002
6.169287e-002
5.010266e-002
4.136296e-002
3.487243e-002
3.005903e-002
2.646368e-002
2.374542e-002
2.165999e-002
2.003487e-002
1.874845e-002
1.771465e-002
1.687210e-002
1.617670e-002
1.559634e-002
1.510737e-002
1.469201e-002
1.433663e-002
1.403056e-002
1.376525e-002
1.353377e-002
1.333041e-002
1.315046e-002
1.299004e-002
1.284598e-002
1.271573e-002
1.259728e-002
1.248916e-002
1.239033e-002
1.230018e-002
1.221851e-002
1.214550e-002
1.208170e-002
1.202804e-002
1.198586e-002
1.195697e-002
1.194375e-002
1.194933e-002
1.197779e-002
1.203463e-002
1.212726e-002
1.226602e-002
1.246548e-002
1.274670e-002
1.314069e-002
1.369408e-002
1.447839e-002
1.560519e-002
1.725052e-002
1.969261e-002
2.336485e-002
2.891687e-002
3.725017e-002
4.943931e-002
6.636722e-002
8.786097e-002
1.113327e-001
1.308509e-001
1.393679e-001
1.361069e-001
1.284931e-001
1.172262e-001
9.634189e-002
6.910336e-002
4.427543e-002
2.686972e-002
1.689023e-002
1.206677e-002
1.009631e-002
9.444343e-003
9.302821e-003
9.317519e-003
9.359087e-003
9.390601e-003
9.405975e-003
9.436087e-003
9.434156e-003
9.429445e-003
9.420042e-003
9.402652e-003
9.372588e-003
9.325586e-003
9.265765e-003
9.230552e-003
9.354896e-003
1.000965e-002
1.204130e-002
1.705823e-002
2.747580e-002
4.568070e-002
7.168386e-002
1.001373e-001
1.211768e-001
1.301818e-001
1.341649e-001
1.350717e-001
1.259663e-001
1.069772e-001
8.461632e-002
6.437211e-002
4.850863e-002
3.705729e-002
2.914194e-002
2.376449e-002
2.010917e-002
1.759401e-002
1.583028e-002
1.456583e-002
1.363829e-002
1.294247e-002
1.240934e-002
1.199279e-002
1.166154e-002
1.139399e-002
1.117494e-002
1.099355e-002
1.084187e-002
1.071396e-002
1.060526e-002
1.051220e-002
1.043195e-002
1.036219e-002
1.030107e-002
1.024707e-002
1.019895e-002
1.015573e-002
1.011666e-002
1.008115e-002
1.004879e-002
1.001933e-002
9.992634e-003
9.968711e-003
9.947677e-003
9.929772e-003
9.915361e-003
9.904954e-003
9.899240e-003
9.899143e-003
9.905918e-003
9.921290e-003
9.947692e-003
9.988624e-003
1.004925e-002
1.013738e-002
1.026510e-002
1.045170e-002
1.072877e-002
1.114943e-002
1.180508e-002
1.285490e-002
1.457609e-002
1.744205e-002
2.222526e-002
3.008302e-002
4.249524e-002
6.078398e-002
8.487296e-002
1.113273e-001
1.322545e-001
1.393381e-001
1.342451e-001
1.259511e-001
1.112909e-001
8.604413e-002
5.784493e-002
3.535682e-002
2.127613e-002
1.398581e-002
1.080218e-002
9.647629e-003
9.333048e-003
9.302951e-003
9.340397e-003
9.376377e-003
9.395100e-003
9.434680e-003
9.432192e-003
9.426156e-003
9.414223e-003
9.392474e-003
9.355811e-003
9.301424e-003
9.241989e-003
9.244518e-003
9.525722e-003
1.064612e-002
1.381612e-002
2.117484e-002
3.554286e-002
5.876312e-002
8.829859e-002
1.148780e-001
1.286649e-001
1.330177e-001
1.349511e-001
1.271394e-001
1.066602e-001
8.115658e-002
5.823118e-002
4.102715e-002
2.942887e-002
2.207748e-002
1.755348e-002
1.478479e-002
1.306997e-002
1.198257e-002
1.127217e-002
1.079301e-002
1.045958e-002
1.022070e-002
1.004494e-002
9.912519e-003
9.810609e-003
9.730727e-003
9.667121e-003
9.615805e-003
9.573945e-003
9.539479e-003
9.510861e-003
9.486907e-003
9.466693e-003
9.449484e-003
9.434695e-003
9.421858e-003
9.410598e-003
9.400618e-003
9.391687e-003
9.383629e-003
9.376313e-003
9.369647e-003
9.363571e-003
9.358054e-003
9.353087e-003
9.348686e-003
9.344887e-003
9.341750e-003
9.339369e-003
9.337881e-003
9.337488e-003
9.338500e-003
9.341393e-003
9.346920e-003
9.356291e-003
9.371512e-003
9.395981e-003
9.435655e-003
9.501308e-003
9.613073e-003
9.809580e-003
1.016623e-002
1.083075e-002
1.208859e-002
1.447222e-002
1.891363e-002
2.687931e-002
4.028330e-002
6.075727e-002
8.780807e-002
1.161972e-001
1.355330e-001
1.382594e-001
1.313436e-001
1.214472e-001
1.011628e-001
7.228916e-002
4.546349e-002
2.692877e-002
1.662533e-002
1.184214e-002
9.981600e-003
9.405798e-003
9.298661e-003
9.322261e-003
9.360546e-003
9.382391e-003
9.433043e-003
9.429926e-003
9.422411e-003
9.407693e-003
9.381277e-003
9.337993e-003
9.277792e-003
9.225964e-003
9.289823e-003
9.791716e-003
1.152425e-002
1.610950e-002
2.619544e-002
4.473153e-002
7.229568e-002
1.030034e-001
1.246637e-001
1.318584e-001
1.342969e-001
1.304518e-001
1.118168e-001
8.428942e-002
5.815301e-002
3.860618e-002
2.597710e-002
1.854055e-002
1.439903e-002
1.215375e-002
1.094038e-002
1.027420e-002
9.897522e-003
9.676499e-003
9.541644e-003
9.456257e-003
9.400383e-003
9.362773e-003
9.336850e-003
9.318635e-003
9.305644e-003
9.296284e-003
9.289508e-003
9.284606e-003
9.281086e-003
9.278593e-003
9.276869e-003
9.275718e-003
9.274991e-003
9.274573e-003
9.274375e-003
9.274329e-003
9.274383e-003
9.274494e-003
9.274628e-003
9.274758e-003
9.274859e-003
9.274905e-003
9.274872e-003
9.274729e-003
9.274443e-003
9.273972e-003
9.273265e-003
9.272264e-003
9.270894e-003
9.269071e-003
9.266697e-003
9.263661e-003
9.259853e-003
9.255183e-003
9.249635e-003
9.243402e-003
9.237198e-003
9.233008e-003
9.235860e-003
9.257966e-003
9.328244e-003
9.513492e-003
9.963160e-003
1.099698e-002
1.325677e-002
1.791839e-002
2.685765e-002
4.243040e-002
6.623354e-002
9.636906e-002
1.244956e-001
1.382696e-001