# vtk DataFile Version 3.0
vtk output
ASCII
DATASET STRUCTURED_POINTS
DIMENSIONS 100 100 1
SPACING 1 1 1
ORIGIN 0 0 0
POINT_DATA 10000
SCALARS SFBox_profile double
LOOKUP_TABLE default 
0.000000e+000
0.000000e+000
0.000000e+000
0.000000e+000
0.000000e+000
0.000000e+000
0.000000e+000
0.000000e+000
0.000000e+000
0.000000e+000
0.000000e+000
0.000000e+000
0.000000e+000
0.000000e+000
0.000000e+000
0.000000e+000
0.000000e+000
0.000000e+000
0.000000e+000
0.000000e+000
0.000000e+000
0.000000e+000
0.000000e+000
0.000000e+000
0.000000e+000
0.000000e+000
0.000000e+000
0.000000e+000
0.000000e+000
0.000000e+000
0.000000e+000
0.000000e+000
0.000000e+000
0.000000e+000
0.000000e+000
0.000000e+000
0.000000e+000
0.000000e+000
0.000000e+000
0.000000e+000
0.000000e+000
0.000000e+000
0.000000e+000
0.000000e+000
0.000000e+000
0.000000e+000
0.000000e+000
0.000000e+000
0.000000e+000
0.000000e+000
0.000000e+000
0.000000e+000
0.000000e+000
0.000000e+000
0.000000e+000
0.000000e+000
0.000000e+000
0.000000e+000
0.000000e+000
0.000000e+000
0.000000e+000
0.000000e+000
0.000000e+000
0.000000e+000
0.000000e+000
0.000000e+000
0.000000e+000
0.000000e+000
0.000000e+000
0.000000e+000
0.000000e+000
0.000000e+000
0.000000e+000
0.000000e+000
0.000000e+000
0.000000e+000
0.000000e+000
0.000000e+000
0.000000e+000
0.000000e+000
0.000000e+000
0.000000e+000
0.000000e+000
0.000000e+000
0.000000e+000
0.000000e+000
0.000000e+000
0.000000e+000
0.000000e+000
0.000000e+000
0.000000e+000
0.000000e+000
0.000000e+000
0.000000e+000
0.000000e+000
0.000000e+000
0.000000e+000
0.000000e+000
0.000000e+000
0.000000e+000
3.382052e-011
3.891017e-011
5.033740e-011
7.070407e-011
1.041527e-010
1.565832e-010
2.358132e-010
3.515523e-010
5.150265e-010
7.380520e-010
1.031360e-009
1.402024e-009
1.849946e-009
2.363548e-009
2.915060e-009
3.456028e-009
3.913901e-009
4.190605e-009
4.163912e-009
3.692077e-009
2.621700e-009
7.981922e-010
-1.922323e-009
-5.661202e-009
-1.050713e-008
-1.650897e-008
-2.367244e-008
-3.196083e-008
-4.129940e-008
-5.158252e-008
-6.268259e-008
-7.445948e-008
-8.676954e-008
-9.947358e-008
-1.124432e-007
-1.255653e-007
-1.387447e-007
-1.519052e-007
-1.649883e-007
-1.779510e-007
-1.907618e-007
-2.033957e-007
-2.158284e-007
-2.280308e-007
-2.399624e-007
-2.515666e-007
-2.627662e-007
-2.734601e-007
-2.835219e-007
-2.928002e-007
-3.011196e-007
-3.082843e-007
-3.140829e-007
-3.182944e-007
-3.206963e-007
-3.210732e-007
-3.192274e-007
-3.149899e-007
-3.082331e-007
-2.988827e-007
-2.869305e-007
-2.724463e-007
-2.555868e-007
-2.366024e-007
-2.158385e-007
-1.937302e-007
-1.707901e-007
-1.475871e-007
-1.247176e-007
-1.027706e-007
-8.228871e-008
-6.373143e-008
-4.744260e-008
-3.362871e-008
-2.235031e-008
-1.352823e-008
-6.963525e-009
-2.368098e-009
5.990414e-010
2.295100e-009
3.061388e-009
3.199255e-009
2.955674e-009
2.518244e-009
2.017905e-009
1.536906e-009
1.119397e-009
7.824256e-010
5.257639e-010
3.397378e-010
2.108129e-010
1.251443e-010
7.050319e-011
3.705731e-011
1.744140e-011
6.451980e-012
6.013363e-013
-2.333212e-012
-3.689100e-012
-4.204573e-012
4.587326e-011
5.348360e-011
7.034991e-011
9.986567e-011
1.473302e-010
2.200776e-010
3.274248e-010
4.802328e-010
6.898113e-010
9.658654e-010
1.313208e-009
1.727060e-009
2.186984e-009
2.649831e-009
3.042464e-009
3.255464e-009
3.139245e-009
2.504092e-009
1.125256e-009
-1.246398e-009
-4.868658e-009
-9.988651e-009
-1.682225e-008
-2.553502e-008
-3.622722e-008
-4.892509e-008
-6.357912e-008
-8.006941e-008
-9.821668e-008
-1.177973e-007
-1.385603e-007
-1.602437e-007
-1.825900e-007
-2.053582e-007
-2.283334e-007
-2.513324e-007
-2.742062e-007
-2.968401e-007
-3.191502e-007
-3.410787e-007
-3.625863e-007
-3.836439e-007
-4.042230e-007
-4.242865e-007
-4.437791e-007
-4.626196e-007
-4.806945e-007
-4.978532e-007
-5.139059e-007
-5.286239e-007
-5.417421e-007
-5.529635e-007
-5.619664e-007
-5.684132e-007
-5.719611e-007
-5.722749e-007
-5.690416e-007
-5.619864e-007
-5.508901e-007
-5.356082e-007
-5.160900e-007
-4.923976e-007
-4.647232e-007
-4.334021e-007
-3.989208e-007
-3.619148e-007
-3.231569e-007
-2.835306e-007
-2.439914e-007
-2.055148e-007
-1.690357e-007
-1.353855e-007
-1.052332e-007
-7.903968e-008
-5.703093e-008
-3.919609e-008
-2.530929e-008
-1.497230e-008
-7.670731e-009
-2.834780e-009
1.043142e-010
1.668928e-009
2.304781e-009
2.366394e-009
2.116253e-009
1.733988e-009
1.331353e-009
9.691445e-010
6.732016e-010
4.477571e-010
2.854776e-010
1.742765e-010
1.014356e-010
5.573504e-011
2.826379e-011
1.246213e-011
3.791567e-012
-7.146581e-013
-2.882127e-012
-3.736798e-012
7.470952e-011
8.802356e-011
1.171306e-010
1.670499e-010
2.453732e-010
3.620802e-010
5.288294e-010
7.573128e-010
1.056152e-009
1.425794e-009
1.850946e-009
2.290368e-009
2.664359e-009
2.840957e-009
2.622733e-009
1.736793e-009
-1.689945e-010
-3.520670e-009
-8.801867e-009
-1.652624e-008
-2.720053e-008
-4.128223e-008
-5.913742e-008
-8.100485e-008
-1.069715e-007
-1.369628e-007
-1.707491e-007
-2.079656e-007
-2.481430e-007
-2.907438e-007
-3.351994e-007
-3.809446e-007
-4.274464e-007
-4.742255e-007
-5.208707e-007
-5.670460e-007
-6.124911e-007
-6.570168e-007
-7.004959e-007
-7.428501e-007
-7.840353e-007
-8.240239e-007
-8.627881e-007
-9.002823e-007
-9.364274e-007
-9.710975e-007
-1.004109e-006
-1.035216e-006
-1.064103e-006
-1.090389e-006
-1.113633e-006
-1.133337e-006
-1.148963e-006
-1.159939e-006
-1.165682e-006
-1.165613e-006
-1.159179e-006
-1.145874e-006
-1.125273e-006
-1.097055e-006
-1.061038e-006
-1.017214e-006
-9.657860e-007
-9.071965e-007
-8.421560e-007
-7.716564e-007
-6.969679e-007
-6.196138e-007
-5.413173e-007
-4.639214e-007
-3.892834e-007
-3.191521e-007
-2.550421e-007
-1.981203e-007
-1.491232e-007
-1.083187e-007
-7.551997e-008
-5.014652e-008
-3.132397e-008
-1.800242e-008
-9.075121e-009
-3.480409e-009
-2.761240e-010
1.317500e-009
1.904211e-009
1.921003e-009
1.662022e-009
1.309173e-009
9.630493e-010
6.700910e-010
4.439784e-010
2.809546e-010
1.697953e-010
9.763039e-011
5.286852e-011
2.630926e-011
1.125157e-011
3.142849e-012
-9.043416e-013
-2.550635e-012
1.305545e-010
1.541012e-010
2.049730e-010
2.906325e-010
4.218408e-010
6.115738e-010
8.726050e-010
1.212893e-009
1.627752e-009
2.087787e-009
2.521842e-009
2.794936e-009
2.682291e-009
1.842148e-009
-2.082106e-010
-4.107407e-009
-1.064947e-008
-2.076236e-008
-3.546238e-008
-5.578566e-008
-8.270237e-008
-1.170243e-007
-1.593194e-007
-2.098458e-007
-2.685173e-007
-3.349046e-007
-4.082701e-007
-4.876311e-007
-5.718389e-007
-6.596641e-007
-7.498753e-007
-8.413071e-007
-9.329107e-007
-1.023787e-006
-1.113206e-006
-1.200603e-006
-1.285576e-006
-1.367862e-006
-1.447314e-006
-1.523868e-006
-1.597516e-006
-1.668272e-006
-1.736143e-006
-1.801100e-006
-1.863057e-006
-1.921851e-006
-1.977228e-006
-2.028837e-006
-2.076223e-006
-2.118840e-006
-2.156046e-006
-2.187124e-006
-2.211290e-006
-2.227711e-006
-2.235521e-006
-2.233841e-006
-2.221801e-006
-2.198569e-006
-2.163376e-006
-2.115559e-006
-2.054607e-006
-1.980216e-006
-1.892355e-006
-1.791336e-006
-1.677889e-006
-1.553224e-006
-1.419082e-006
-1.277745e-006
-1.132008e-006
-9.850872e-007
-8.404630e-007
-7.016632e-007
-5.720027e-007
-4.543122e-007
-3.506995e-007
-2.623854e-007
-1.896455e-007
-1.318679e-007
-8.771292e-008
-5.534027e-008
-3.265931e-008
-1.756024e-008
-8.095508e-009
-2.596963e-009
2.709367e-010
1.510592e-009
1.827002e-009
1.682748e-009
1.358070e-009
1.006221e-009
6.988430e-010
4.597436e-010
2.879032e-010
1.717852e-010
9.733343e-011
5.182773e-011
2.528499e-011
1.058230e-011
3.043866e-012
-8.890538e-014
2.305430e-010
2.708604e-010
3.569605e-010
4.992192e-010
7.113982e-010
1.007293e-009
1.394241e-009
1.861752e-009
2.363276e-009
2.789253e-009
2.930373e-009
2.431629e-009
7.403798e-010
-2.944984e-009
-9.715654e-009
-2.096951e-008
-3.839138e-008
-6.388577e-008
-9.945779e-008
-1.470481e-007
-2.083388e-007
-2.845588e-007
-3.763194e-007
-4.835124e-007
-6.052879e-007
-7.401162e-007
-8.859209e-007
-1.040257e-006
-1.200509e-006
-1.364071e-006
-1.528504e-006
-1.691648e-006
-1.851695e-006
-2.007214e-006
-2.157153e-006
-2.300810e-006
-2.437781e-006
-2.567902e-006
-2.691187e-006
-2.807760e-006
-2.917803e-006
-3.021500e-006
-3.119004e-006
-3.210405e-006
-3.295709e-006
-3.374825e-006
-3.447563e-006
-3.513632e-006
-3.572650e-006
-3.624150e-006
-3.667593e-006
-3.702373e-006
-3.727823e-006
-3.743219e-006
-3.747772e-006
-3.740627e-006
-3.720845e-006
-3.687405e-006
-3.639198e-006
-3.575041e-006
-3.493709e-006
-3.393996e-006
-3.274808e-006
-3.135297e-006
-2.975032e-006
-2.794192e-006
-2.593785e-006
-2.375836e-006
-2.143541e-006
-1.901305e-006
-1.654634e-006
-1.409860e-006
-1.173666e-006
-9.524989e-007
-7.519264e-007
-5.760824e-007
-4.272954e-007
-3.059827e-007
-2.108183e-007
-1.391179e-007
-8.734459e-008
-5.162471e-008
-2.818530e-008
-1.366352e-008
-5.276713e-009
-8.710593e-010
1.117825e-009
1.755925e-009
1.721950e-009
1.415738e-009
1.050701e-009
7.249849e-010
4.716593e-010
2.912406e-010
1.709785e-010
9.513304e-011
4.967343e-011
2.386330e-011
1.033741e-011
4.624992e-012
4.004860e-010
4.666029e-010
6.059501e-010
8.310425e-010
1.155516e-009
1.585532e-009
2.104218e-009
2.645763e-009
3.055423e-009
3.032287e-009
2.053605e-009
-7.166781e-010
-6.526750e-009
-1.712754e-008
-3.483227e-008
-6.251722e-008
-1.035357e-007
-1.615246e-007
-2.401003e-007
-3.424662e-007
-4.709827e-007
-6.267763e-007
-8.094674e-007
-1.017082e-006
-1.246169e-006
-1.492106e-006
-1.749529e-006
-2.012811e-006
-2.276503e-006
-2.535688e-006
-2.786228e-006
-3.024878e-006
-3.249318e-006
-3.458090e-006
-3.650498e-006
-3.826461e-006
-3.986352e-006
-4.130840e-006
-4.260741e-006
-4.376901e-006
-4.480112e-006
-4.571061e-006
-4.650322e-006
-4.718367e-006
-4.775593e-006
-4.822373e-006
-4.859095e-006
-4.886207e-006
-4.904255e-006
-4.913898e-006
-4.915918e-006
-4.911200e-006
-4.900696e-006
-4.885352e-006
-4.866026e-006
-4.843368e-006
-4.817687e-006
-4.788810e-006
-4.755935e-006
-4.717501e-006
-4.671096e-006
-4.613415e-006
-4.540320e-006
-4.446998e-006
-4.328265e-006
-4.179021e-006
-3.994866e-006
-3.772826e-006
-3.512135e-006
-3.214919e-006
-2.886639e-006
-2.536090e-006
-2.174870e-006
-1.816287e-006
-1.473857e-006
-1.159674e-006
-8.829808e-007
-6.492614e-007
-4.600188e-007
-3.132148e-007
-2.041851e-007
-1.267519e-007
-7.427319e-008
-4.045547e-008
-1.986298e-008
-8.144106e-009
-2.041718e-009
7.322607e-010
1.686417e-009
1.750673e-009
1.455759e-009
1.076277e-009
7.347184e-010
4.711124e-010
2.860166e-010
1.648036e-010
8.996535e-011
4.641566e-011
2.312769e-011
1.315215e-011
6.763922e-010
7.797210e-010
9.938765e-010
1.329505e-009
1.789992e-009
2.351531e-009
2.928539e-009
3.318000e-009
3.116087e-009
1.602114e-009
-2.410321e-009
-1.074654e-008
-2.604724e-008
-5.191187e-008
-9.295721e-008
-1.547293e-007
-2.434080e-007
-3.652658e-007
-5.258904e-007
-7.292572e-007
-9.768125e-007
-1.266782e-006
-1.593897e-006
-1.949649e-006
-2.323046e-006
-2.701723e-006
-3.073179e-006
-3.425909e-006
-3.750264e-006
-4.038951e-006
-4.287185e-006
-4.492562e-006
-4.654749e-006
-4.775063e-006
-4.856024e-006
-4.900898e-006
-4.913283e-006
-4.896745e-006
-4.854553e-006
-4.789507e-006
-4.703885e-006
-4.599499e-006
-4.477827e-006
-4.340216e-006
-4.188097e-006
-4.023211e-006
-3.847801e-006
-3.664768e-006
-3.477764e-006
-3.291233e-006
-3.110378e-006
-2.941063e-006
-2.789643e-006
-2.662722e-006
-2.566846e-006
-2.508128e-006
-2.491817e-006
-2.521812e-006
-2.600145e-006
-2.726447e-006
-2.897447e-006
-3.106534e-006
-3.343461e-006
-3.594272e-006
-3.841555e-006
-4.065142e-006
-4.243348e-006
-4.354798e-006
-4.380774e-006
-4.307825e-006
-4.130233e-006
-3.851764e-006
-3.486164e-006
-3.056008e-006
-2.589920e-006
-2.118592e-006
-1.670461e-006
-1.268020e-006
-9.255789e-007
-6.488311e-007
-4.360253e-007
-2.801385e-007
-1.713138e-007
-9.897343e-008
-5.330160e-008
-2.606059e-008
-1.086351e-008
-3.086574e-009
4.105427e-010
1.629518e-009
1.763101e-009
1.469041e-009
1.075666e-009
7.235810e-010
4.559540e-010
2.716174e-010
1.536462e-010
8.309674e-011
4.457846e-011
2.784947e-011
1.104655e-009
1.257518e-009
1.567011e-009
2.030723e-009
2.616873e-009
3.221234e-009
3.594568e-009
3.228955e-009
1.191826e-009
-4.098773e-009
-1.515298e-008
-3.571794e-008
-7.106486e-008
-1.281681e-007
-2.156547e-007
-3.433800e-007
-5.214930e-007
-7.589325e-007
-1.061456e-006
-1.429524e-006
-1.856568e-006
-2.328202e-006
-2.822781e-006
-3.313328e-006
-3.770484e-006
-4.165825e-006
-4.474871e-006
-4.679245e-006
-4.767729e-006
-4.736252e-006
-4.587059e-006
-4.327399e-006
-3.968035e-006
-3.521794e-006
-3.002295e-006
-2.422883e-006
-1.795812e-006
-1.131671e-006
-4.390758e-007
2.753721e-007
1.006862e-006
1.751936e-006
2.507891e-006
3.272107e-006
4.041371e-006
4.811273e-006
5.575724e-006
6.326611e-006
7.053633e-006
7.744280e-006
8.383979e-006
8.956375e-006
9.443739e-006
9.827501e-006
1.008888e-005
1.020963e-005
1.017291e-005
9.964210e-006
9.572518e-006
8.991506e-006
8.220904e-006
7.267943e-006
6.148797e-006
4.889849e-006
3.528540e-006
2.113388e-006
7.027758e-007
-6.379565e-007
-1.841314e-006
-2.844225e-006
-3.595703e-006
-4.064355e-006
-4.244035e-006
-4.155968e-006
-3.846220e-006
-3.378560e-006
-2.824089e-006
-2.250099e-006
-1.710872e-006
-1.242474e-006
-8.621444e-007
-5.714205e-007
-3.612162e-007
-2.170446e-007
-1.231620e-007
-6.519978e-008
-3.142436e-008
-1.302260e-008
-3.824432e-009
2.197187e-010
1.603189e-009
1.760178e-009
1.453035e-009
1.047229e-009
6.915061e-010
4.272739e-010
2.499385e-010
1.403398e-010
7.909331e-011
5.210198e-011
1.739172e-009
1.950620e-009
2.363554e-009
2.936916e-009
3.550072e-009
3.914806e-009
3.430436e-009
9.621380e-010
-5.474749e-009
-1.912954e-008
-4.500938e-008
-9.038586e-008
-1.651857e-007
-2.820525e-007
-4.557783e-007
-7.017532e-007
-1.033152e-006
-1.456873e-006
-1.968800e-006
-2.549559e-006
-3.162330e-006
-3.753960e-006
-4.259770e-006
-4.611241e-006
-4.744850e-006
-4.610010e-006
-4.174524e-006
-3.426730e-006
-2.374481e-006
-1.041764e-006
5.359247e-007
2.316435e-006
4.255321e-006
6.309334e-006
8.438959e-006
1.061005e-005
1.279467e-005
1.497131e-005
1.712457e-005
1.924429e-005
2.132445e-005
2.336173e-005
2.535401e-005
2.729884e-005
2.919220e-005
3.102741e-005
3.279445e-005
3.447959e-005
3.606535e-005
3.753070e-005
3.885144e-005
4.000078e-005
4.094984e-005
4.166826e-005
4.212475e-005
4.228762e-005
4.212535e-005
4.160730e-005
4.070463e-005
3.939177e-005
3.764844e-005
3.546264e-005
3.283453e-005
2.978119e-005
2.634191e-005
2.258321e-005
1.860220e-005
1.452691e-005
1.051183e-005
6.727365e-006
3.343307e-006
5.077574e-007
-1.674658e-006
-3.160214e-006
-3.974024e-006
-4.205250e-006
-3.989718e-006
-3.484096e-006
-2.838515e-006
-2.174843e-006
-1.575370e-006
-1.082606e-006
-7.071819e-007
-4.391692e-007
-2.587120e-007
-1.437530e-007
-7.447054e-008
-3.511955e-008
-1.424935e-008
-4.111818e-009
2.038856e-010
1.615630e-009
1.741150e-009
1.407134e-009
9.922636e-010
6.412621e-010
3.888455e-010
2.260226e-010
1.324585e-010
9.053573e-011
2.632879e-009
2.899729e-009
3.388622e-009
3.967480e-009
4.320889e-009
3.778769e-009
1.040039e-009
-6.240799e-009
-2.202668e-008
-5.262318e-008
-1.074873e-007
-1.999462e-007
-3.474893e-007
-5.710845e-007
-8.927474e-007
-1.330556e-006
-1.890728e-006
-2.557526e-006
-3.283414e-006
-3.983256e-006
-4.536249e-006
-4.797298e-006
-4.616290e-006
-3.860770e-006
-2.436331e-006
-2.999012e-007
2.536466e-006
6.010893e-006
1.002353e-005
1.445147e-005
1.916349e-005
2.403232e-005
2.894347e-005
3.380061e-005
3.852794e-005
4.307008e-005
4.739038e-005
5.146799e-005
5.529442e-005
5.886999e-005
6.220036e-005
6.529361e-005
6.815787e-005
7.079964e-005
7.322285e-005
7.542864e-005
7.741576e-005
7.918137e-005
8.072212e-005
8.203521e-005
8.311921e-005
8.397437e-005
8.460228e-005
8.500482e-005
8.518208e-005
8.512957e-005
8.483468e-005
8.427276e-005
8.340333e-005
8.216711e-005
8.048499e-005
7.825977e-005
7.538226e-005
7.174226e-005
6.724526e-005
6.183402e-005
5.551300e-005
4.837184e-005
4.060164e-005
3.249704e-005
2.443757e-005
1.684603e-005
1.012853e-005
4.608408e-006
4.712979e-007
-2.263242e-006
-3.734723e-006
-4.200931e-006
-3.975690e-006
-3.364244e-006
-2.614288e-006
-1.892824e-006
-1.288202e-006
-8.284357e-007
-5.045697e-007
-2.907863e-007
-1.577726e-007
-7.966600e-008
-3.652337e-008
-1.431965e-008
-3.891465e-009
3.647804e-010
1.658377e-009
1.701260e-009
1.331825e-009
9.147508e-010
5.789016e-010
3.488072e-010
2.117783e-010
1.491427e-010
3.820516e-009
4.110705e-009
4.570662e-009
4.878321e-009
4.328245e-009
1.512712e-009
-6.182742e-009
-2.331603e-008
-5.737632e-008
-1.199677e-007
-2.279830e-007
-4.042954e-007
-6.770701e-007
-1.076251e-006
-1.625367e-006
-2.327189e-006
-3.143773e-006
-3.975225e-006
-4.645564e-006
-4.905396e-006
-4.457375e-006
-3.002364e-006
-2.955743e-007
3.802576e-006
9.294849e-006
1.604223e-005
2.378474e-005
3.218098e-005
4.085541e-005
4.944288e-005
5.762249e-005
6.513804e-005
7.180591e-005
7.751347e-005
8.221101e-005
8.589976e-005
8.861796e-005
9.042673e-005
9.139733e-005
9.160120e-005
9.110344e-005
8.995996e-005
8.821793e-005
8.591897e-005
8.310420e-005
7.982042e-005
7.612645e-005
7.209914e-005
6.783804e-005
6.346843e-005
5.914205e-005
5.503518e-005
5.134382e-005
4.827578e-005
4.603948e-005
4.482963e-005
4.480978e-005
4.609237e-005
4.871696e-005
5.262826e-005
5.765610e-005
6.350042e-005
6.972546e-005
7.576798e-005
8.096504e-005
8.460618e-005
8.601269e-005
8.464062e-005
8.019425e-005
7.272477e-005
6.268071e-005
5.088079e-005
3.839901e-005
2.638000e-005
1.582912e-005
7.436381e-006
1.484323e-006
-2.141303e-006
-3.852251e-006
-4.208330e-006
-3.768825e-006
-2.986534e-006
-2.162838e-006
-1.456153e-006
-9.203156e-007
-5.486369e-007
-3.086133e-007
-1.630468e-007
-7.993203e-008
-3.539291e-008
-1.322332e-008
-3.211911e-009
6.594442e-010
1.708369e-009
1.633844e-009
1.230187e-009
8.229776e-010
5.166319e-010
3.250480e-010
2.352217e-010
5.289147e-009
5.513716e-009
5.693434e-009
5.140818e-009
2.421140e-009
-5.216326e-009
-2.271948e-008
-5.848364e-008
-1.259514e-007
-2.453552e-007
-4.450111e-007
-7.608703e-007
-1.231947e-006
-1.888053e-006
-2.726095e-006
-3.674017e-006
-4.548861e-006
-5.025436e-006
-4.638482e-006
-2.836342e-006
9.134781e-007
6.989421e-006
1.548993e-005
2.615613e-005
3.836733e-005
5.121298e-005
6.362320e-005
7.452240e-005
8.296775e-005
8.824533e-005
8.991325e-005
8.779680e-005
8.195098e-005
7.260711e-005
6.011584e-005
4.489305e-005
2.737176e-005
7.962510e-006
-1.297515e-005
-3.514812e-005
-5.833172e-005
-8.235963e-005
-1.071047e-004
-1.324542e-004
-1.582835e-004
-1.844303e-004
-2.106730e-004
-2.367138e-004
-2.621689e-004
-2.865646e-004
-3.093404e-004
-3.298584e-004
-3.474188e-004
-3.612805e-004
-3.706871e-004
-3.748987e-004
-3.732288e-004
-3.650893e-004
-3.500426e-004
-3.278617e-004
-2.985992e-004
-2.626604e-004
-2.208774e-004
-1.745704e-004
-1.255814e-004
-7.625160e-005
-2.931211e-005
1.234364e-005
4.601362e-005
6.963184e-005
8.220684e-005
8.410921e-005
7.707264e-005
6.386106e-005
4.768522e-005
3.154160e-005
1.766794e-005
7.272715e-006
5.724805e-007
-2.947411e-006
-4.172848e-006
-4.029056e-006
-3.262440e-006
-2.358893e-006
-1.567013e-006
-9.708339e-007
-5.650962e-007
-3.094860e-007
-1.587372e-007
-7.523096e-008
-3.193224e-008
-1.116788e-008
-2.213673e-009
1.013695e-009
1.736694e-009
1.535315e-009
1.111456e-009
7.339998e-010
4.801747e-010
3.570112e-010
6.933583e-009
6.903277e-009
6.299760e-009
3.776290e-009
-3.389663e-009
-2.026844e-008
-5.574788e-008
-1.245381e-007
-2.495473e-007
-4.639795e-007
-8.115044e-007
-1.341056e-006
-2.090349e-006
-3.050518e-006
-4.107180e-006
-4.965193e-006
-5.085585e-006
-3.682637e-006
1.711829e-007
7.316820e-006
1.819476e-005
3.253298e-005
4.914413e-005
6.591819e-005
8.005376e-005
8.848460e-005
8.837795e-005
7.757318e-005
5.485691e-005
2.002598e-005
-2.623821e-005
-8.260791e-005
-1.473747e-004
-2.186824e-004
-2.947044e-004
-3.737672e-004
-4.544308e-004
-5.355326e-004
-6.161987e-004
-6.958247e-004
-7.740294e-004
-8.505907e-004
-9.253734e-004
-9.982567e-004
-1.069073e-003
-1.137559e-003
-1.203328e-003
-1.265856e-003
-1.324487e-003
-1.378448e-003
-1.426875e-003
-1.468833e-003
-1.503340e-003
-1.529378e-003
-1.545897e-003
-1.551807e-003
-1.545964e-003
-1.527162e-003
-1.494129e-003
-1.445568e-003
-1.380240e-003
-1.297124e-003
-1.195666e-003
-1.076127e-003
-9.399961e-004
-7.904070e-004
-6.324321e-004
-4.730894e-004
-3.208908e-004
-1.848503e-004
-7.302893e-005
9.094357e-006
5.994867e-005
8.232522e-005
8.259648e-005
6.894297e-005
4.933478e-005
2.994458e-005
1.441237e-005
4.002621e-006
-1.702047e-006
-3.958761e-006
-4.162576e-006
-3.429631e-006
-2.463323e-006
-1.607840e-006
-9.732207e-007
-5.515622e-007
-2.932899e-007
-1.455514e-007
-6.635091e-008
-2.673684e-008
-8.520550e-009
-1.088421e-009
1.345657e-009
1.720792e-009
1.412245e-009
9.977534e-010
6.832563e-010
5.228919e-010
8.495885e-009
7.858867e-009
5.568352e-009
-8.485267e-010
-1.627470e-008
-4.959305e-008
-1.160145e-007
-2.400657e-007
-4.586289e-007
-8.221801e-007
-1.389847e-006
-2.209765e-006
-3.271874e-006
-4.421240e-006
-5.236106e-006
-4.912309e-006
-2.242772e-006
4.197857e-006
1.559536e-005
3.220352e-005
5.258912e-005
7.308609e-005
8.776216e-005
8.912584e-005
6.946038e-005
2.240916e-005
-5.566176e-005
-1.649995e-004
-3.026505e-004
-4.632601e-004
-6.401147e-004
-8.261284e-004
-1.014611e-003
-1.199767e-003
-1.376958e-003
-1.542775e-003
-1.694988e-003
-1.832385e-003
-1.954554e-003
-2.061643e-003
-2.154119e-003
-2.232582e-003
-2.297631e-003
-2.349805e-003
-2.389576e-003
-2.417405e-003
-2.433822e-003
-2.439532e-003
-2.435503e-003
-2.423047e-003
-2.403852e-003
-2.379968e-003
-2.353739e-003
-2.327678e-003
-2.304289e-003
-2.285831e-003
-2.274034e-003
-2.269757e-003
-2.272605e-003
-2.280516e-003
-2.289361e-003
-2.292644e-003
-2.281432e-003
-2.244720e-003
-2.170478e-003
-2.047585e-003
-1.868658e-003
-1.633353e-003
-1.351054e-003
-1.041389e-003
-7.314261e-004
-4.499248e-004
-2.206983e-004
-5.731202e-005
3.947018e-005
8.045462e-005
8.311003e-005
6.557086e-005
4.219139e-005
2.164318e-005
7.411933e-006
-4.941697e-007
-3.720875e-006
-4.210741e-006
-3.487184e-006
-2.467694e-006
-1.573958e-006
-9.272186e-007
-5.100651e-007
-2.625266e-007
-1.255619e-007
-5.470026e-008
-2.063641e-008
-5.710155e-009
-2.603849e-011
1.591550e-009
1.657506e-009
1.291174e-009
9.359967e-010
7.400436e-010
9.491898e-009
7.650984e-009
2.173594e-009
-1.124395e-008
-4.093833e-008
-1.017597e-007
-2.185365e-007
-4.300588e-007
-7.917659e-007
-1.372239e-006
-2.232774e-006
-3.371335e-006
-4.608495e-006
-5.409397e-006
-4.691342e-006
-7.582780e-007
8.418512e-006
2.437417e-005
4.674748e-005
7.157423e-005
8.989882e-005
8.766503e-005
4.773999e-005
-4.612423e-005
-2.043999e-004
-4.279213e-004
-7.068022e-004
-1.021968e-003
-1.348373e-003
-1.659220e-003
-1.930288e-003
-2.143230e-003
-2.287159e-003
-2.358574e-003
-2.360168e-003
-2.299029e-003
-2.184685e-003
-2.027330e-003
-1.836486e-003
-1.620223e-003
-1.384904e-003
-1.135339e-003
-8.751745e-004
-6.073722e-004
-3.346721e-004
-5.996005e-005
2.134897e-004
4.819081e-004
7.410457e-004
9.862775e-004
1.212754e-003
1.415554e-003
1.589797e-003
1.730685e-003
1.833467e-003
1.893327e-003
1.905237e-003
1.863805e-003
1.763225e-003
1.597421e-003
1.360583e-003
1.048292e-003
6.595480e-004
1.998875e-004
-3.143919e-004
-8.515869e-004
-1.361462e-003
-1.777364e-003
-2.028223e-003
-2.061895e-003
-1.871767e-003
-1.508718e-003
-1.064846e-003
-6.370142e-004
-2.949775e-004
-6.873276e-005
4.826325e-005
8.530853e-005
7.722571e-005
5.229019e-005
2.753235e-005
9.959901e-006
2.733709e-007
-3.606414e-006
-4.208046e-006
-3.436823e-006
-2.371936e-006
-1.469475e-006
-8.391130e-007
-4.465857e-007
-2.217097e-007
-1.016943e-007
-4.195894e-008
-1.449106e-008
-3.122293e-009
8.337911e-010
1.727690e-009
1.576549e-009
1.232242e-009
1.012517e-009
9.133265e-009
5.144791e-009
-5.850319e-009
-3.099668e-008
-8.389859e-008
-1.882862e-007
-3.827518e-007
-7.250295e-007
-1.291014e-006
-2.156682e-006
-3.339390e-006
-4.664129e-006
-5.530453e-006
-4.622951e-006
2.451659e-007
1.178402e-005
3.192306e-005
5.927929e-005
8.568595e-005
9.302260e-005
5.294020e-005
-6.782893e-005
-2.963232e-004
-6.389835e-004
-1.070945e-003
-1.533359e-003
-1.940722e-003
-2.201702e-003
-2.247737e-003
-2.053641e-003
-1.639348e-003
-1.055799e-003
-3.661211e-004
3.691531e-004
1.100408e-003
1.792070e-003
2.422354e-003
2.981035e-003
3.466334e-003
3.881773e-003
4.233532e-003
4.528575e-003
4.773513e-003
4.974077e-003
5.135025e-003
5.260316e-003
5.353417e-003
5.417645e-003
5.456471e-003
5.473733e-003
5.473736e-003
5.461234e-003
5.441303e-003
5.419113e-003
5.399630e-003
5.387240e-003
5.385287e-003
5.395477e-003
5.417102e-003
5.445976e-003
5.473010e-003
5.482333e-003
5.448986e-003
5.336467e-003
5.095073e-003
4.663410e-003
3.977960e-003
2.997844e-003
1.748507e-003
3.694555e-004
-8.798158e-004
-1.706901e-003
-1.948723e-003
-1.681561e-003
-1.156367e-003
-6.248626e-004
-2.312613e-004
-9.164377e-006
7.679865e-005
8.351916e-005
5.882473e-005
3.091211e-005
1.098547e-005
3.353038e-007
-3.681003e-006
-4.157751e-006
-3.278272e-006
-2.184144e-006
-1.306748e-006
-7.205019e-007
-3.697283e-007
-1.763231e-007
-7.705331e-008
-2.970113e-008
-9.005538e-009
-1.018389e-009
1.434482e-009
1.786799e-009
1.553837e-009
1.338774e-009
6.259719e-009
-1.278381e-009
-2.120715e-008
-6.488439e-008
-1.535749e-007
-3.235170e-007
-6.315724e-007
-1.157352e-006
-1.990358e-006
-3.176379e-006
-4.578494e-006
-5.604784e-006
-4.817791e-006
3.675492e-007
1.337060e-005
3.669449e-005
6.794796e-005
9.363575e-005
8.274847e-005
-1.400886e-005
-2.518616e-004
-6.629722e-004
-1.216175e-003
-1.784448e-003
-2.145104e-003
-2.056939e-003
-1.400687e-003
-2.609766e-004
1.125728e-003
2.496801e-003
3.662588e-003
4.535460e-003
5.107543e-003
5.414694e-003
5.508956e-003
5.443176e-003
5.263951e-003
5.009022e-003
4.706974e-003
4.378180e-003
4.036360e-003
3.690328e-003
3.345621e-003
3.005841e-003
2.673659e-003
2.351484e-003
2.041835e-003
1.747495e-003
1.471496e-003
1.217025e-003
9.873051e-004
7.855006e-004
6.146982e-004
4.779716e-004
3.785451e-004
3.200495e-004
3.068575e-004
3.444760e-004
4.399579e-004
6.022631e-004
8.424345e-004
1.173332e-003
1.608444e-003
2.158920e-003
2.827373e-003
3.596292e-003
4.408764e-003
5.141876e-003
5.583399e-003
5.444279e-003
4.463406e-003
2.638960e-003
4.587901e-004
-1.233533e-003
-1.866395e-003
-1.591099e-003
-9.629667e-004
-4.063495e-004
-7.180498e-005
6.507790e-005
8.583838e-005
6.122398e-005
3.114319e-005
1.022176e-005
-3.264799e-007
-3.895304e-006
-4.030107e-006
-3.012676e-006
-1.921250e-006
-1.104679e-006
-5.860320e-007
-2.888964e-007
-1.316597e-007
-5.429321e-008
-1.909998e-008
-4.610361e-009
5.053643e-010
1.817270e-009
1.866248e-009
1.708919e-009
-6.980081e-010
-1.375466e-008
-4.735523e-008
-1.188297e-007
-2.600401e-007
-5.237609e-007
-9.887075e-007
-1.753497e-006
-2.894887e-006
-4.340718e-006
-5.587639e-006
-5.232920e-006
-4.906966e-007
1.269161e-005
3.769841e-005
7.190127e-005
9.701818e-005
6.763321e-005
-9.140529e-005
-4.607536e-004
-1.060069e-003
-1.744504e-003
-2.123604e-003
-1.674116e-003
-1.836189e-004
1.926088e-003
3.894720e-003
5.167420e-003
5.607155e-003
5.366707e-003
4.693296e-003
3.809057e-003
2.870899e-003
1.973530e-003
1.166063e-003
4.679967e-004
-1.190593e-004
-6.034382e-004
-9.981390e-004
-1.317437e-003
-1.574874e-003
-1.782247e-003
-1.949270e-003
-2.083646e-003
-2.191352e-003
-2.277011e-003
-2.344258e-003
-2.396066e-003
-2.435002e-003
-2.463405e-003
-2.483497e-003
-2.497431e-003
-2.507287e-003
-2.515038e-003
-2.522481e-003
-2.531138e-003
-2.542117e-003
-2.555897e-003
-2.571999e-003
-2.588456e-003
-2.600939e-003
-2.601343e-003
-2.575505e-003
-2.499644e-003
-2.335250e-003
-2.022895e-003
-1.477997e-003
-5.972493e-004
7.064646e-004
2.416503e-003
4.264349e-003
5.596003e-003
5.508564e-003
3.561605e-003
6.610996e-004
-1.392518e-003
-1.792274e-003
-1.219818e-003
-5.409344e-004
-1.138115e-004
5.917582e-005
8.590900e-005
5.939070e-005
2.819206e-005
7.877133e-006
-1.476570e-006
-4.111307e-006
-3.784223e-006
-2.651010e-006
-1.608795e-006
-8.857072e-007
-4.505860e-007
-2.124755e-007
-9.186583e-008
-3.519884e-008
-1.078012e-008
-1.426513e-009
1.519316e-009
2.114653e-009
2.101967e-009
-1.370187e-008
-3.489722e-008
-8.839857e-008
-1.996189e-007
-4.143020e-007
-8.054283e-007
-1.473793e-006
-2.521621e-006
-3.951673e-006
-5.409292e-006
-5.687425e-006
-2.076174e-006
9.867184e-006
3.465512e-005
7.084099e-005