# vtk DataFile Version 3.0
vtk output
ASCII
DATASET STRUCTURED_POINTS
DIMENSIONS 100 100 1
SPACING 1 1 1
ORIGIN 0 0 0
POINT_DATA 10000
SCALARS SFBox_profile double
LOOKUP_TABLE default 
0.000000e+000
0.000000e+000
0.000000e+000
0.000000e+000
0.000000e+000
0.000000e+000
0.000000e+000
0.000000e+000
0.000000e+000
0.000000e+000
0.000000e+000
0.000000e+000
0.000000e+000
0.000000e+000
0.000000e+000
0.000000e+000
0.000000e+000
0.000000e+000
0.000000e+000
0.000000e+000
0.000000e+000
0.000000e+000
0.000000e+000
0.000000e+000
0.000000e+000
0.000000e+000
0.000000e+000
0.000000e+000
0.000000e+000
0.000000e+000
0.000000e+000
0.000000e+000
0.000000e+000
0.000000e+000
0.000000e+000
0.000000e+000
0.000000e+000
0.000000e+000
0.000000e+000
0.000000e+000
0.000000e+000
0.000000e+000
0.000000e+000
0.000000e+000
0.000000e+000
0.000000e+000
0.000000e+000
0.000000e+000
0.000000e+000
0.000000e+000
0.000000e+000
0.000000e+000
0.000000e+000
0.000000e+000
0.000000e+000
0.000000e+000
0.000000e+000
0.000000e+000
0.000000e+000
0.000000e+000
0.000000e+000
0.000000e+000
0.000000e+000
0.000000e+000
0.000000e+000
0.000000e+000
0.000000e+000
0.000000e+000
0.000000e+000
0.000000e+000
0.000000e+000
0.000000e+000
0.000000e+000
0.000000e+000
0.000000e+000
0.000000e+000
0.000000e+000
0.000000e+000
0.000000e+000
0.000000e+000
0.000000e+000
0.000000e+000
0.000000e+000
0.000000e+000
0.000000e+000
0.000000e+000
0.000000e+000
0.000000e+000
0.000000e+000
0.000000e+000
0.000000e+000
0.000000e+000
0.000000e+000
0.000000e+000
0.000000e+000
0.000000e+000
0.000000e+000
0.000000e+000
0.000000e+000
0.000000e+000
-5.472690e-010
-2.463506e-010
-6.253229e-011
5.726678e-011
1.303684e-010
4.928602e-011
-1.960188e-011
-5.932468e-012
5.560230e-011
7.118731e-011
-2.109228e-011
-9.280635e-011
-7.619546e-011
-1.327330e-011
-1.035244e-011
-4.108031e-011
-6.941711e-012
7.631876e-011
1.034132e-010
4.124029e-011
-4.288759e-012
8.644882e-012
2.356231e-011
-6.909228e-012
-2.368469e-011
-2.907163e-012
1.398298e-011
-1.431106e-011
-3.888489e-011
-2.485550e-011
-1.456898e-012
-1.453172e-011
-2.758068e-011
-1.089160e-011
-3.001081e-012
-1.609597e-011
-1.715811e-011
-4.153828e-012
-7.251472e-012
1.705911e-012
7.008211e-012
7.512154e-012
1.714312e-011
5.838943e-012
-7.362840e-012
1.222071e-012
1.083220e-011
5.414776e-012
6.800044e-012
7.196035e-012
-9.752666e-012
-8.003748e-012
5.208824e-012
8.859691e-012
8.771485e-012
3.254820e-012
-4.041612e-012
-1.343965e-011
-1.181447e-012
8.411215e-012
-1.223591e-013
5.816855e-012
-2.283579e-012
-1.145215e-011
-7.553781e-012
9.426133e-013
6.594297e-013
-2.074121e-012
-4.458549e-012
-1.799282e-011
-2.099840e-011
-9.940690e-012
1.123238e-011
1.536198e-011
1.174155e-011
7.016890e-012
1.573303e-011
1.532979e-011
1.064762e-011
3.511634e-012
6.373839e-012
-4.678661e-012
-1.817602e-011
-2.434973e-011
-6.888963e-012
5.917881e-012
3.245222e-012
-5.752687e-012
-6.363099e-012
8.223312e-012
5.218986e-012
6.551985e-012
-1.581802e-012
5.731353e-012
6.895722e-012
-1.095892e-011
-2.415207e-011
-2.109874e-011
1.744554e-011
2.659455e-011
5.998615e-011
-9.119297e-011
-1.434308e-010
-4.193058e-011
5.900012e-011
9.022706e-011
6.662340e-011
9.053974e-012
-2.751519e-011
-3.872242e-011
-4.216712e-011
-2.385854e-011
1.248014e-011
4.705406e-011
3.538977e-011
-2.338642e-012
-1.726868e-011
-2.851397e-012
-4.161364e-012
-3.541469e-011
-4.757534e-011
-1.986446e-011
1.201875e-011
1.528202e-011
1.893064e-011
3.731031e-011
4.306031e-011
1.863360e-011
2.546277e-014
4.763882e-012
1.256034e-011
6.489811e-012
-3.274262e-012
-2.160330e-012
5.448410e-012
5.914443e-012
-6.570877e-012
-6.649231e-012
-5.301382e-013
-2.725589e-012
-3.897811e-012
3.175662e-012
3.947136e-012
-6.207220e-012
-9.922974e-012
-1.050727e-011
-6.467550e-012
4.388426e-012
2.334791e-012
-6.896738e-012
-5.333691e-012
-3.891005e-012
-2.772839e-012
1.045027e-011
1.503900e-011
5.904651e-012
4.672237e-012
1.893253e-012
-1.084801e-012
7.019016e-012
1.406397e-011
4.889451e-012
-1.017919e-011
-9.316673e-012
-7.490581e-012
-3.726221e-012
2.955241e-012
7.786921e-012
6.698084e-012
1.628115e-012
4.050581e-013
4.170102e-012
1.147938e-011
6.259473e-012
-5.978752e-012
-1.543195e-011
-1.127984e-011
-5.676482e-012
2.000281e-012
8.214870e-012
1.450003e-011
8.287574e-012
-3.188786e-012
-1.079503e-011
-6.385942e-012
-5.490876e-013
-1.731530e-012
-2.764088e-012
-2.818714e-012
5.915463e-012
7.058733e-012
8.655003e-012
2.429166e-012
-6.728821e-012
-1.302628e-011
-5.919836e-012
1.009727e-011
4.369669e-012
-1.137768e-012
-7.408570e-013
2.600073e-010
4.128803e-011
-2.828790e-011
-5.260074e-011
-6.942447e-011
3.703615e-011
9.422794e-011
3.015480e-011
-6.297381e-011
-9.218122e-011
-1.944770e-011
4.930809e-011
5.705011e-011
3.402449e-011
2.421327e-011
2.264643e-011
-7.307767e-012
-4.348696e-011
-5.668970e-011
-4.173895e-011
-2.983884e-011
-2.092015e-011
-6.730598e-012
1.192054e-011
2.052852e-011
2.099131e-011
1.251102e-011
5.799977e-012
7.211654e-012
1.332942e-011
1.203132e-011
1.617521e-011
1.817650e-011
1.552637e-011
1.840074e-011
2.173962e-011
6.131948e-012
-1.051296e-012
8.323108e-012
-4.573238e-012
-6.797505e-012
3.575610e-012
-6.574898e-012
-1.218611e-011
-6.520303e-012
-1.016985e-011
-1.122380e-011
1.652989e-012
-1.761643e-012
-1.118246e-011
-2.519601e-012
-7.031863e-012
-1.249824e-011
7.070975e-013
5.462195e-012
-1.404790e-012
-3.306307e-012
2.175383e-012
-3.185478e-012
5.608455e-013
1.831703e-011
8.648898e-012
-9.767295e-013
1.824581e-012
-5.859117e-013
1.532414e-012
7.752940e-012
9.450912e-012
3.595273e-012
4.867602e-012
4.969387e-012
5.634197e-012
4.529242e-012
7.328460e-013
-8.916762e-012
-1.684076e-011
-2.135212e-011
-1.697243e-011
-6.314638e-012
5.360812e-012
8.318984e-012
8.860465e-012
6.621783e-012
6.004363e-012
-1.060624e-012
-2.347674e-012
-1.253403e-012
6.100935e-012
3.420759e-012
-3.749161e-012
-3.909840e-012
-1.667147e-012
9.430827e-012
6.127909e-012
-4.707421e-012
-9.456363e-012
1.624680e-012
7.133620e-012
-7.989556e-012
-2.594995e-012
3.504527e-010
2.638226e-010
1.346405e-010
-8.999735e-011
-1.879840e-010
-6.140650e-011
3.415878e-011
3.223812e-011
-2.060868e-011
-2.966212e-011
5.397319e-011
8.460022e-011
1.962050e-011
-6.110628e-011
-4.926070e-011
1.357826e-011
1.768060e-011
-1.819451e-011
-1.730994e-011
3.286822e-011
4.201971e-011
3.848548e-012
-2.539124e-011
-1.325870e-011
-1.424798e-011
-3.755526e-011
-5.263143e-011
-3.252886e-011
-1.123313e-011
-9.206628e-013
-4.997928e-013
9.121052e-012
1.731036e-011
1.905057e-011
1.541410e-011
1.429489e-011
1.460538e-011
6.378022e-012
3.250686e-012
-5.788607e-012
-2.293826e-014
5.547698e-012
-3.120763e-012
9.313168e-014
4.277866e-013
-5.154538e-014
3.407515e-012
2.558587e-012
2.845728e-012
4.763078e-012
-7.584935e-013
-9.535270e-012
-7.013459e-012
-1.039015e-011
-1.149996e-011
-5.226271e-012
-1.623254e-011
-1.455527e-011
-8.821354e-012
-8.576419e-012
2.286664e-012
5.865767e-012
1.289269e-011
9.677330e-012
8.584379e-012
1.304707e-011
9.922322e-012
3.220175e-012
-6.165773e-012
-5.615973e-012
-8.098446e-012
-6.809124e-012
-9.366417e-012
-1.963429e-012
3.975419e-012
6.870587e-012
-3.922911e-012
-7.059749e-012
-6.760975e-012
-3.788177e-012
-1.223886e-011
-7.520485e-012
3.527053e-012
1.757595e-011
9.057391e-012
2.889407e-012
3.035390e-012
1.110586e-011
7.880838e-012
-8.657400e-012
-8.299372e-012
-1.188230e-011
-4.765123e-012
-3.927379e-012
8.083806e-012
1.309925e-011
1.040237e-011
1.769490e-011
-1.038414e-011
-2.700214e-011
2.357833e-010
2.678956e-010
1.639061e-010
-1.050431e-011
-1.014916e-010
-1.330430e-010
-1.105779e-010
-2.096491e-011
3.231996e-011
6.046868e-011
9.571378e-011
6.933683e-011
-1.473284e-011
-9.130157e-011
-6.083179e-011
1.556402e-011
2.754323e-011
-1.068086e-011
-8.517127e-012
4.567607e-011
5.062626e-011
-3.150817e-013
-3.374133e-011
-9.625310e-012
-4.585686e-012
-3.500095e-011
-4.775363e-011
-1.197212e-011
8.054824e-012
-1.746208e-013
-7.640292e-012
2.149809e-013
3.586642e-012
-8.371555e-013
-7.263748e-012
-6.392718e-012
9.392415e-012
-6.064011e-013
-1.146452e-011
-1.410331e-012
5.851573e-012
-1.209900e-012
7.644683e-013
1.108209e-011
2.340384e-012
4.010658e-012
1.370050e-011
5.019760e-012
8.248786e-012
1.705280e-011
3.981873e-012
1.980058e-012
1.151849e-011
-4.508437e-012
-9.815844e-012
4.571634e-012
-5.182371e-012
-1.241372e-011
-7.860464e-012
-1.003605e-011
-1.463872e-011
-9.599294e-012
3.515600e-012
-1.520145e-012
3.605543e-012
7.337118e-012
3.176197e-012
2.633669e-012
7.982034e-013
9.495316e-013
-2.895935e-012
-4.821674e-012
-1.567539e-011
-9.207249e-012
3.687948e-012
1.491722e-011
5.959186e-012
2.961482e-012
-1.026948e-012
-3.466670e-012
-1.858259e-011
-1.501431e-011
-1.707477e-013
1.912072e-011
1.379667e-011
6.036868e-012
5.358440e-012
6.143712e-012
1.614908e-012
-1.730111e-011
-1.180546e-011
-4.470509e-012
3.330980e-012
-7.087674e-012
1.482379e-012
1.821950e-011
8.940597e-012
1.011630e-011
-4.747236e-012
-1.872056e-011
-1.520828e-010
1.603153e-011
1.271692e-010
1.587681e-010
4.730540e-011
-1.478221e-010
-1.610171e-010
-3.439134e-011
4.023502e-011
4.579656e-011
1.658676e-011
3.107855e-012
7.907018e-012
4.971707e-012
2.621033e-011
4.128113e-011
1.820302e-011
-3.535149e-011
-5.047127e-011
-1.908439e-011
-5.881350e-012
-2.323515e-011
-2.161778e-011
1.952964e-011
3.573403e-011
1.237673e-011
2.887544e-012
3.287854e-011
4.051718e-011
7.645339e-012
-1.487939e-011
-9.289296e-012
-7.053103e-012
-2.226979e-011
-2.486235e-011
-1.526907e-011
-1.516549e-014
-7.809828e-012
-1.313776e-011
4.809298e-012
3.296532e-012
-5.876475e-012
2.293905e-012
7.654516e-012
3.911186e-012
3.078642e-012
2.747190e-012
5.886042e-013
4.305424e-012
7.324848e-012
7.774341e-012
1.258590e-011
1.101942e-011
6.218402e-012
5.697597e-012
7.332481e-012
1.441242e-011
1.325470e-011
3.459383e-012
-2.365473e-012
-1.431120e-011
-1.656820e-011
-9.912426e-012
-1.184230e-011
-1.001662e-011
-1.611182e-011
-1.144626e-011
-5.164084e-013
8.256044e-012
1.539630e-011
1.941598e-011
1.383285e-011
-6.229452e-012
-1.235050e-011
-7.855645e-012
7.083042e-013
-2.878913e-012
3.811247e-013
3.060933e-012
6.227582e-012
-2.192029e-012
-1.450093e-012
4.457728e-012
1.012262e-011
4.016857e-012
-4.266902e-012
-1.163536e-012
-2.250620e-012
1.928064e-012
-8.424028e-012
-1.281806e-011
-1.244258e-011
3.825441e-012
1.071946e-011
6.160604e-012
1.294429e-011
-1.331232e-012
-1.225602e-011
-2.000760e-012
8.440897e-012
-1.192903e-010
-6.294025e-011
1.093236e-011
8.391828e-011
4.507680e-011
-3.624926e-011
-1.940316e-011
1.178733e-011
1.549701e-011
-2.391024e-011
-9.300588e-011
-6.711359e-011
2.673036e-011
8.372605e-011
7.114644e-011
2.717199e-011
5.642230e-012
-1.875065e-011
-3.327287e-011
-3.102837e-011
-1.322333e-011
-3.278331e-012
7.876131e-012
2.169329e-011
2.313453e-011
7.938557e-012
4.945650e-012
1.970265e-011
2.407172e-011
-4.683485e-012
-2.344482e-011
-1.537951e-011
-6.163476e-012
-2.259787e-011
-2.051590e-011
-5.761458e-012
-1.133433e-012
-1.201225e-012
-1.168900e-012
5.395389e-012
1.607833e-012
2.904716e-012
4.792837e-012
-1.466142e-012
8.551119e-012
4.843205e-012
-1.147330e-011
-3.539446e-012
-9.205487e-013
-8.676011e-012
6.509136e-012
1.077458e-011
-8.306127e-012
2.673775e-013
5.138220e-012
-7.558322e-012
1.174753e-011
2.280328e-011
1.088514e-011
4.706717e-012
-4.756925e-012
-5.291255e-012
-1.601582e-012
2.290552e-012
-5.671449e-012
-2.287115e-011
-1.817184e-011
-1.414821e-011
-5.209866e-012
7.085081e-012
1.982917e-011
1.672435e-011
5.343805e-012
-2.217528e-012
-2.947008e-012
-4.720865e-013
-1.651136e-012
-1.294359e-012
6.292997e-013
4.488753e-012
8.148412e-012
1.045905e-011
9.097926e-012
-2.464026e-012
-8.267753e-012
-1.508706e-011
-1.006426e-011
-1.391930e-011
-4.041494e-013
1.706141e-011
1.981114e-011
-4.256928e-012
-2.277737e-011
-4.904540e-012
-4.317431e-014
8.579492e-012
1.136198e-011
-3.857942e-012
8.891470e-014
2.986897e-012
1.228622e-010
-2.470790e-011
-1.176274e-010
-7.683328e-011
1.945783e-011
8.803852e-011
6.696316e-011
1.721309e-011
2.651448e-011
-8.643781e-012
-8.920443e-011
-7.391936e-011
7.106791e-012
4.881946e-011
-2.313950e-012
-4.920664e-011
-1.208156e-011
3.432118e-011
3.980772e-011
1.952778e-011
3.238841e-011
4.298773e-011
2.848962e-011
-9.245180e-012
-2.716137e-011
-2.651946e-011
-1.309544e-011
-8.078603e-012
-1.782294e-012
-8.637630e-012
-1.043072e-011
-5.278149e-012
4.462038e-012
-3.555266e-012
-3.234240e-012
6.155829e-012
3.252690e-014
4.310911e-012
6.058653e-012
4.510294e-012
4.677912e-012
1.616871e-012
-4.721381e-012
-4.039726e-012
1.078740e-011
5.838578e-012
-9.922997e-012
-5.891017e-012
-6.846076e-012
-1.133099e-011
3.529858e-012
8.526184e-012
-6.517109e-012
-9.572287e-012
-1.088179e-011
-1.195421e-011
1.949739e-012
7.465207e-012
8.196610e-012
3.382850e-012
-3.835618e-012
3.944289e-012
1.110255e-011
2.212577e-011
1.439341e-011
-6.206778e-013
-5.764291e-012
-1.702178e-011
-1.417355e-011
-1.006248e-011
-2.416784e-012
-3.809175e-012
2.022356e-012
4.182045e-012
1.083126e-011
1.459406e-011
1.736013e-011
7.777730e-012
-3.561461e-012
-1.374999e-011
-4.931182e-012
2.601035e-012
5.623487e-012
-9.658734e-012
-7.520516e-012
-6.011556e-012
1.337692e-012
-7.157328e-012
-9.485480e-012
4.473113e-012
2.211555e-011
2.202297e-011
-1.210263e-011
-9.087619e-012
-5.588134e-012
-9.902232e-012
-1.665080e-014
-1.224630e-012
6.058556e-012
5.936490e-012
2.643505e-010
5.115246e-011
-1.200382e-010
-1.278344e-010
-2.681899e-012
8.510705e-011
3.291675e-011
-5.673221e-012
2.814688e-011
3.006593e-011
7.768611e-012
3.084335e-012
7.071530e-012
-8.934808e-012
-7.668873e-011
-9.780238e-011
-2.824949e-011
4.494988e-011
4.695990e-011
1.158879e-011
2.535014e-011
4.225463e-011
1.895583e-011
-3.023773e-011
-3.148059e-011
-3.968172e-012
1.929769e-011
1.326088e-011
1.290368e-011
1.594170e-011
1.894552e-011
1.127718e-011
1.142134e-011
1.561718e-011
1.078065e-011
1.042932e-011
1.406517e-012
2.368277e-012
4.484715e-012
4.006640e-012
2.982921e-012
-1.535025e-011
-1.982386e-011
-2.396936e-012
-6.764181e-013
-5.251145e-012
-3.300707e-012
-1.441310e-011
-1.837799e-011
-3.274646e-012
1.750703e-013
3.723652e-012
1.142225e-011
-7.160496e-012
-1.694492e-011
3.292294e-012
6.343811e-012
2.582118e-012
1.190703e-011
1.549325e-012
-7.679929e-012
-2.704779e-013
6.130456e-012
1.909348e-011
1.934470e-011
1.760612e-011
8.176127e-012
-1.049940e-012
3.100973e-012
-2.382730e-012
-5.967332e-012
-1.423308e-011
-8.733564e-012
-7.308934e-012
4.026804e-012
1.072015e-011
2.276993e-011
1.479763e-011
-9.543586e-013
-2.336817e-011
-1.690072e-011
-8.178540e-012
1.749905e-012
-7.024328e-012
5.803000e-013
4.629572e-012
7.176784e-012
6.467473e-012
6.068946e-012
3.072084e-012
-8.346686e-012
7.607428e-012
-6.865522e-013
-2.012911e-012
4.659754e-012
-6.554535e-012
-4.960328e-012
-2.536027e-012
1.036565e-012
3.993570e-013
-2.824599e-014
-5.908314e-011
-8.486939e-011
-3.711545e-011
6.946253e-011
9.993642e-011
6.920719e-012
-7.346669e-011
-7.080608e-011
1.313010e-011
8.993115e-011
6.386747e-011
1.026427e-011
-1.204224e-011
-3.597232e-011
-3.912054e-011
-1.578938e-011
9.124630e-012
-1.488139e-011
-4.747506e-011
-2.371698e-011
1.023092e-011
1.379018e-012
-2.645612e-011
-1.390215e-012
3.816790e-011
4.531456e-011
2.054652e-011
1.184886e-011
1.830224e-011
1.767143e-011
5.988922e-012
4.737348e-012
2.310083e-011
1.698213e-011
8.414084e-012
5.208629e-012
4.545953e-012
8.652059e-012
6.738421e-012
-2.004765e-013
-1.653056e-011
-1.796503e-011
-2.947410e-012
-6.481327e-012
-2.475273e-012
7.745142e-012
-1.452266e-011
-2.372056e-011
-2.261166e-012
-1.500244e-012
-6.415788e-013
1.284889e-011
-2.742812e-012
-1.101170e-011
4.562924e-012
5.414311e-012
1.271297e-011
1.946092e-011
6.111430e-012
6.854121e-013
-2.383462e-012
-2.235622e-012
4.566456e-012
6.147478e-012
1.100006e-011
1.808671e-012
4.653332e-012
1.437288e-011
1.491897e-011
1.200583e-011
-1.270019e-012
-6.754426e-012
-1.435881e-011
-1.188987e-011
-1.325325e-011
2.920058e-012
8.297940e-012
6.932898e-012
-9.234839e-012
-5.795801e-012
-4.446661e-012
1.069153e-012
-1.039927e-012
8.792611e-012
1.435966e-011
1.386266e-012
-1.061337e-011
-7.712490e-012
1.164619e-011
-4.633026e-012
2.751202e-012
1.585525e-011
5.762548e-012
-1.309783e-013
-1.392208e-011
-1.430104e-011
-2.767551e-012
2.230182e-012
4.966531e-012
-4.481921e-010
-2.519843e-010
-2.748403e-011
1.027570e-010
1.374864e-010
9.100688e-011
-2.808300e-012
-9.097662e-011
-9.661217e-011
7.925918e-012
6.463568e-011
6.067108e-012
-2.920090e-011
6.399264e-012
4.726861e-011
3.890265e-011
-2.005164e-012
-1.542648e-011
-2.661763e-011
-2.772608e-011
-7.629389e-012
1.724731e-011
6.292173e-012
-1.761453e-011
-5.722263e-012
1.512396e-011
-1.384970e-012
-3.127496e-011
-3.216006e-011
-1.220754e-011
-1.180356e-011
-1.360647e-011
-5.263075e-012
2.063264e-011
1.769565e-011
2.415479e-012
5.331053e-012
1.029125e-011
1.935342e-011
1.522541e-011
5.861180e-012
8.930262e-012
8.226100e-012
9.382905e-012
2.281251e-011
3.271877e-011
2.600754e-011
1.308262e-011
4.410680e-012
3.778157e-012
1.397346e-011
1.972016e-011
1.066314e-011
2.160417e-012
2.804972e-014
-7.758386e-012
-3.188835e-012
1.417581e-011
9.221596e-012
5.759120e-012
1.088006e-011
2.328257e-012
4.073672e-012
5.575782e-012
3.984236e-012
4.202063e-012
-8.431410e-012
-6.171957e-012
-1.753322e-012
9.435170e-012
1.293560e-011
7.464227e-012
6.285974e-012
3.156567e-012
-3.887647e-012
-1.776696e-011
-1.215759e-011
-3.331681e-012
7.740253e-012
8.765603e-012
1.309121e-011
6.751737e-012
-2.529195e-012
-7.932162e-012
-6.330676e-012
7.327308e-012
1.070884e-011
7.218723e-012
-1.550998e-011
-6.079491e-012
-8.258116e-012
-6.648594e-012
2.204408e-011
1.832349e-011
2.827549e-012
-1.283027e-011
-1.712679e-011
-3.471186e-012
2.763834e-012
7.323107e-012
-4.323266e-010
-1.743164e-010
5.122533e-011
8.076448e-011
3.303137e-012
-1.704944e-011
3.111604e-011
3.431899e-011
8.844861e-012
9.180978e-012
-1.175002e-011
-4.931077e-011
-5.470681e-011
-1.287075e-011
3.983207e-011
2.626076e-011
-1.948140e-011
-1.075831e-011
2.891845e-011
5.596414e-011
4.334774e-011
3.174102e-011
1.139341e-011
-1.220920e-011
-2.695201e-011
-2.475396e-011
-3.731636e-011
-4.433820e-011
-3.014327e-011
-2.282091e-012
-4.604698e-012
-3.041532e-012
7.870892e-012
2.397275e-011
2.384625e-011
8.634306e-012
1.782200e-011
3.384248e-011
4.606674e-011
4.790791e-011
4.486427e-011
5.869493e-011
6.167901e-011
5.815730e-011
8.176554e-011
8.968813e-011
7.125953e-011
7.725250e-011
7.631726e-011
5.462524e-011
6.738324e-011
7.993496e-011
6.040076e-011
5.526244e-011
4.915767e-011
2.701834e-011
2.960866e-011
3.296056e-011
1.846685e-011
2.112982e-011
2.026201e-011
1.261639e-011
1.930831e-011
1.822780e-011
2.057253e-011
1.975298e-011
9.594703e-012
3.895705e-012
-5.911752e-012
2.587128e-013
-3.611908e-012
-5.436278e-013
1.001307e-011
2.181674e-011
1.885205e-011
6.626250e-012
-2.645005e-012
-7.492726e-012
-3.333674e-012
7.556138e-012
1.398362e-011
1.120785e-011
-8.656144e-013
-1.232301e-012
-1.204481e-011
-1.759645e-011
-1.532122e-011
2.037515e-011
1.616169e-011
1.165346e-012
-2.705552e-012
-1.551228e-011
1.322858e-012
5.403761e-012
-1.939212e-012
-2.554671e-012
-2.063509e-012
4.633812e-012
3.334371e-012
1.646983e-012
-1.049697e-010
4.910840e-011
1.170798e-010
-6.602258e-013
-1.458594e-010
-1.137866e-010
3.933186e-011
1.026045e-010
5.250612e-011
-7.146872e-012
-1.026372e-011
1.606867e-012
-2.659401e-011
-2.905195e-011
4.898040e-012
-4.639826e-012
-3.108679e-011
-7.554045e-012
4.536986e-011
5.599164e-011
5.131561e-012
-1.662359e-011
-1.003780e-011
6.415357e-012
-4.141725e-012
6.939175e-012
2.137970e-011
4.232455e-011
5.530329e-011
6.940318e-011
6.165810e-011
6.128093e-011
7.573521e-011
8.668466e-011
1.004063e-010
1.080008e-010
1.365443e-010
1.729539e-010
1.899457e-010
2.063953e-010
2.223070e-010
2.351148e-010
2.465856e-010
2.522573e-010
2.637680e-010
2.734525e-010
2.699741e-010
2.692121e-010
2.669517e-010
2.597709e-010
2.638618e-010
2.670827e-010
2.637271e-010
2.600760e-010
2.401340e-010
2.190012e-010
2.068313e-010
1.814995e-010
1.600884e-010
1.412557e-010
1.094291e-010
9.233409e-011
7.846692e-011
5.939701e-011
5.861304e-011
5.650984e-011
5.707773e-011
5.249717e-011
3.852697e-011
3.104755e-011
1.084822e-011
7.955039e-012
8.838489e-012
2.008979e-011
2.102174e-011
2.588067e-011
1.053125e-011
-5.880258e-013
-1.026810e-011
6.162660e-013
2.788602e-012
3.362748e-012
-7.325901e-012
5.066629e-012
1.033741e-011
7.388984e-012
-2.074020e-011
-5.137013e-012
1.298559e-011
-3.600863e-012
-5.767158e-013
-6.573823e-012
-3.837379e-012
-8.705778e-013
-4.353696e-012
2.805522e-012
6.445141e-012
5.753123e-012
1.964177e-012
-1.052047e-012
1.255946e-010
1.551324e-010
1.124583e-010
-2.776250e-011
-1.419278e-010
-9.755187e-011
3.037243e-011
6.986096e-011
-7.311941e-013
-5.755496e-011
-9.270642e-012
4.151933e-011
2.008385e-011
8.555010e-012
2.476610e-011
2.446898e-011
8.250620e-012
4.374982e-012
1.098670e-011
-2.657260e-011
-7.841236e-011
-7.237711e-011
5.174974e-013
4.227787e-011
6.405109e-011
7.637467e-011
1.137000e-010
1.474378e-010
1.588875e-010
1.759873e-010
2.048681e-010
2.450952e-010
3.116093e-010
3.825054e-010
4.705172e-010
5.668587e-010
6.696159e-010
7.758611e-010
8.535832e-010
9.264814e-010
1.001417e-009
1.049361e-009
1.092195e-009
1.130796e-009
1.144980e-009
1.165590e-009
1.188079e-009
1.175827e-009
1.167202e-009
1.177160e-009
1.156315e-009
1.124620e-009
1.111965e-009
1.078642e-009
1.023630e-009
9.743144e-010
9.040833e-010
8.180457e-010
7.420999e-010
6.457340e-010
5.447328e-010
4.610402e-010
3.642149e-010
2.792219e-010
2.217639e-010
1.771322e-010
1.590794e-010
1.435547e-010
1.286815e-010
1.106592e-010
8.442317e-011
7.003365e-011
4.651831e-011
3.146546e-011
2.633482e-011
1.761813e-011
2.003365e-011
4.977841e-012
4.528628e-013
8.015904e-012
7.756528e-012
1.006340e-011
-1.191554e-012
-1.697566e-012
-7.342366e-012
8.428375e-012
2.232233e-012
-7.588670e-012
8.334076e-012
-4.770371e-012
-2.128484e-012
1.487645e-012
-4.869730e-012
-5.365436e-012
-4.865200e-012
3.823930e-012
6.889050e-012
1.171812e-012
-2.269184e-013
1.081731e-012
1.283736e-011
-9.008630e-012
-1.242195e-011
6.608613e-012
2.945693e-011
5.131593e-011
5.229234e-011
6.444235e-012
-7.627923e-011
-1.083292e-010
-4.033160e-011
2.233314e-011
2.275877e-011
9.534046e-012
3.276601e-011
7.909951e-011
7.424424e-011
2.440241e-011
-2.282886e-011
-5.740947e-011
-7.686717e-011
1.041789e-011
3.675783e-011
1.715863e-010
1.024478e-010
1.673242e-010
2.159364e-010
2.888657e-010
3.675505e-010
4.878515e-010
6.799954e-010
9.094863e-010
1.198003e-009
1.541931e-009
1.936006e-009
2.367033e-009
2.791962e-009
3.204803e-009
3.586340e-009
3.924882e-009
4.231245e-009
4.480657e-009
4.674861e-009
4.835080e-009
4.946136e-009
5.020242e-009
5.074350e-009
5.087602e-009
5.075150e-009
5.042247e-009
4.958943e-009
4.848807e-009
4.720127e-009
4.540825e-009
4.323332e-009
4.066810e-009
3.751213e-009
3.406187e-009
3.038219e-009
2.640005e-009
2.249370e-009
1.864171e-009
1.488554e-009
1.163414e-009
8.844254e-010
6.652406e-010
5.147634e-010
4.043712e-010
3.322035e-010
2.721304e-010
2.312894e-010
1.986106e-010
1.541271e-010
1.255790e-010
4.414371e-011
9.715147e-011
-4.214696e-012
4.032333e-011
1.009576e-012
2.091248e-011
9.832073e-012
9.183454e-012
7.743320e-012
1.690412e-011
-3.466150e-012
-1.322928e-011
-1.866379e-014
-1.215476e-011
-2.106747e-012
5.559866e-015
6.737160e-012
1.641188e-011
3.397393e-012
-5.886164e-012
-6.176204e-012
-2.061561e-012
-3.090486e-012
-8.447118e-012
-1.326413e-012
9.696759e-012
4.464637e-011
-5.909229e-011
-8.726534e-011
1.262770e-011
1.018982e-010
7.605348e-011
3.559963e-012
-1.980382e-011
-1.874148e-011
-2.173047e-011
-1.880696e-011
-1.974518e-011
-3.044761e-011
-3.905233e-011
1.120903e-011
7.637501e-011
5.400301e-011
-1.711050e-011
-2.891463e-011
-2.061465e-011
1.184260e-010
1.264697e-011
4.139955e-010
-3.591971e-011
5.317291e-010
4.446613e-010
6.782045e-010
9.225713e-010
1.272710e-009
1.793996e-009
2.527468e-009
3.462789e-009
4.622390e-009
6.026276e-009
7.618301e-009
9.332036e-009
1.105785e-008
1.272146e-008
1.428541e-008
1.567983e-008
1.688450e-008
1.790079e-008
1.870397e-008
1.932241e-008
1.979277e-008
2.010470e-008
2.028376e-008
2.036800e-008
2.033313e-008
2.016000e-008
1.987177e-008
1.946066e-008
1.889454e-008
1.818006e-008
1.730986e-008
1.624365e-008
1.499547e-008
1.359671e-008
1.205949e-008
1.045202e-008
8.838053e-009
7.253877e-009
5.789235e-009
4.497593e-009
3.398534e-009
2.534485e-009
1.883327e-009
1.410777e-009
1.084082e-009
8.503150e-010
6.912399e-010
5.864694e-010
4.982764e-010
3.619187e-010
4.583700e-010
-1.128678e-010
2.979033e-010
-4.690157e-011
7.711764e-011
7.917992e-012
2.420665e-011
2.929982e-012
-1.011461e-011
4.501984e-013
8.919533e-012
-6.027389e-012
1.113966e-011
2.773492e-012
-3.594900e-012
6.452791e-013
4.205591e-012
9.725546e-012
-3.922359e-012
-1.133407e-011
-9.007733e-013
8.657247e-012
4.559973e-012
-7.189880e-012
-6.812713e-012
1.406925e-012
3.467949e-010
1.122903e-010
-5.784406e-011
-2.670748e-011
3.113665e-011
-2.877612e-011
-8.792732e-011
-1.934501e-011
7.719042e-011
7.534066e-011
6.274894e-012
-2.437710e-011
-1.456768e-011
-1.604742e-011
-1.269045e-012
5.923820e-012
-2.798983e-011
-3.774460e-011
-3.766048e-011
1.908677e-010
-7.587245e-011
8.788048e-010
-9.107349e-010
2.582440e-009
-5.862470e-010
8.131678e-010
1.324786e-009
2.157298e-009
3.483594e-009
5.344125e-009
7.986530e-009
1.146110e-008
1.581609e-008
2.102640e-008
2.689118e-008
3.312768e-008
3.943336e-008
4.551032e-008
5.114909e-008
5.617560e-008
6.048504e-008
6.408152e-008
6.697031e-008
6.918657e-008
7.083079e-008
7.196063e-008
7.261959e-008
7.287249e-008
7.271563e-008
7.213040e-008
7.112513e-008
6.965148e-008
6.765946e-008
6.512980e-008
6.199098e-008
5.818734e-008
5.374382e-008
4.869740e-008
4.314972e-008
3.729837e-008
3.133801e-008
2.551051e-008
2.009237e-008
1.527807e-008
1.122602e-008
8.006642e-009
5.565961e-009
3.815576e-009
2.607682e-009
1.766756e-009
1.233972e-009
7.999995e-010
5.593001e-010
3.860537e-010
-7.976908e-010
2.351854e-009
-9.323105e-010
7.142967e-010
-1.451075e-010
1.219126e-010
-5.889886e-012
2.764790e-011
1.232700e-011
-1.559409e-012
6.169205e-012
-5.125691e-012
7.103843e-012
7.059869e-012
-7.855510e-012
-3.716885e-012
2.187680e-012
5.203728e-012
-5.614402e-012
-1.143503e-011
3.012196e-012
1.704091e-011
1.438173e-011
8.587170e-015
-9.970521e-012
-1.133355e-011
4.933867e-010
2.178866e-010
-1.067471e-011
-2.822153e-011
-6.221265e-012
-8.673167e-011
-1.382726e-010
-3.984936e-011
7.953443e-011
7.010390e-011
-3.587924e-012
2.250957e-012
4.910907e-011
3.802551e-011
-6.458279e-012
-3.902137e-011
-1.630051e-011
-3.464564e-011
2.004519e-010
-2.361372e-010
1.561816e-009
-2.973967e-009
9.255409e-009
-1.238921e-008
1.094006e-008
5.935452e-009
7.103164e-009
1.060462e-008
1.470161e-008
2.119452e-008
3.011198e-008
4.197856e-008
5.674689e-008
7.414318e-008
9.349239e-008
1.138550e-007
1.342797e-007
1.538616e-007
1.718695e-007
1.878360e-007
2.014984e-007
2.128152e-007
2.219038e-007
2.289180e-007
2.340718e-007
2.376116e-007
2.397069e-007
2.404600e-007
2.399318e-007
2.381197e-007
2.349528e-007
2.303214e-007
2.240978e-007
2.161049e-007
2.061596e-007
1.941605e-007
1.800822e-007
1.640256e-007
1.463129e-007
1.274411e-007
1.080592e-007
8.897786e-008
7.101572e-008
5.490488e-008
4.121052e-008
3.017603e-008
2.177009e-008
1.573048e-008
1.156188e-008
8.852460e-009
6.935701e-009
5.999069e-009
4.390867e-009
4.552366e-009
1.003517e-008
-1.221793e-008
8.444905e-009
-2.754080e-009
1.306370e-009
-2.488078e-010
1.435569e-010
-1.974255e-011
3.323032e-011
1.093670e-011
1.202845e-011
2.935994e-012
4.044296e-012
6.248477e-012
-1.133613e-011
-1.261014e-011
-5.774287e-012
-1.259679e-012
-2.671499e-012
-3.167741e-012
7.458976e-012
1.814369e-011
1.795271e-011
7.069327e-012
-8.926814e-012
-2.002948e-011
1.668442e-010
1.099693e-011
-7.848971e-011
-9.636541e-012
5.666261e-011
3.869634e-012
-5.514645e-011
-1.398233e-011
3.745708e-011
-2.414075e-012
-5.265811e-011
-2.391003e-012
6.430977e-011
3.889389e-011
-3.716011e-011
-3.729050e-011
-5.554817e-012
2.427246e-010
-2.956501e-010
2.150488e-009
-5.537354e-009
2.147357e-008
-5.041348e-008
8.520052e-008
-4.718829e-008
-5.612572e-009
5.387887e-009
7.588004e-009
2.283950e-008
4.214793e-008
6.974273e-008
1.055280e-007
1.494916e-007
2.003072e-007
2.559217e-007
3.136965e-007
3.709593e-007
4.253413e-007
4.749642e-007