# vtk DataFile Version 3.0
vtk output
ASCII
DATASET STRUCTURED_POINTS
DIMENSIONS 100 100 1
SPACING 1 1 1
ORIGIN 0 0 0
POINT_DATA 10000
SCALARS SFBox_profile double
LOOKUP_TABLE default 
0.000000e+000
0.000000e+000
0.000000e+000
0.000000e+000
0.000000e+000
0.000000e+000
0.000000e+000
0.000000e+000
0.000000e+000
0.000000e+000
0.000000e+000
0.000000e+000
0.000000e+000
0.000000e+000
0.000000e+000
0.000000e+000
0.000000e+000
0.000000e+000
0.000000e+000
0.000000e+000
0.000000e+000
0.000000e+000
0.000000e+000
0.000000e+000
0.000000e+000
0.000000e+000
0.000000e+000
0.000000e+000
0.000000e+000
0.000000e+000
0.000000e+000
0.000000e+000
0.000000e+000
0.000000e+000
0.000000e+000
0.000000e+000
0.000000e+000
0.000000e+000
0.000000e+000
0.000000e+000
0.000000e+000
0.000000e+000
0.000000e+000
0.000000e+000
0.000000e+000
0.000000e+000
0.000000e+000
0.000000e+000
0.000000e+000
0.000000e+000
0.000000e+000
0.000000e+000
0.000000e+000
0.000000e+000
0.000000e+000
0.000000e+000
0.000000e+000
0.000000e+000
0.000000e+000
0.000000e+000
0.000000e+000
0.000000e+000
0.000000e+000
0.000000e+000
0.000000e+000
0.000000e+000
0.000000e+000
0.000000e+000
0.000000e+000
0.000000e+000
0.000000e+000
0.000000e+000
0.000000e+000
0.000000e+000
0.000000e+000
0.000000e+000
0.000000e+000
0.000000e+000
0.000000e+000
0.000000e+000
0.000000e+000
0.000000e+000
0.000000e+000
0.000000e+000
0.000000e+000
0.000000e+000
0.000000e+000
0.000000e+000
0.000000e+000
0.000000e+000
0.000000e+000
0.000000e+000
0.000000e+000
0.000000e+000
0.000000e+000
0.000000e+000
0.000000e+000
0.000000e+000
0.000000e+000
0.000000e+000
9.943485e-011
5.301372e-011
-1.236772e-011
-6.275243e-011
-7.516040e-011
-4.924299e-011
-5.979238e-012
2.687472e-011
3.353893e-011
1.972812e-011
5.441561e-012
6.619249e-012
2.085778e-011
2.943879e-011
1.418329e-011
-2.515940e-011
-6.782315e-011
-8.598700e-011
-6.456913e-011
-1.157976e-011
4.790368e-011
8.833614e-011
9.829362e-011
8.373845e-011
5.985392e-011
3.899613e-011
2.353967e-011
7.588280e-012
-1.520457e-011
-4.442948e-011
-7.192653e-011
-8.747847e-011
-8.644015e-011
-7.314151e-011
-5.742960e-011
-4.730828e-011
-4.366841e-011
-4.110303e-011
-3.360613e-011
-2.010862e-011
-5.416153e-012
3.753098e-012
4.056632e-012
-2.041184e-012
-8.278315e-012
-9.280034e-012
-4.440083e-012
1.770180e-012
3.380710e-012
-2.091715e-012
-1.113728e-011
-1.670416e-011
-1.420627e-011
-6.126837e-012
-6.508398e-013
-4.727689e-012
-1.749834e-011
-3.052119e-011
-3.530665e-011
-3.146824e-011
-2.755961e-011
-3.326672e-011
-5.002879e-011
-6.902954e-011
-7.868207e-011
-7.471439e-011
-6.350809e-011
-5.572995e-011
-5.629209e-011
-5.981715e-011
-5.550511e-011
-3.689336e-011
-8.050006e-012
1.884333e-011
3.238075e-011
3.026324e-011
2.075617e-011
1.612372e-011
2.272511e-011
3.522781e-011
4.011354e-011
2.700917e-011
-6.302846e-013
-2.539223e-011
-2.884396e-011
-8.195176e-012
1.844417e-011
2.548137e-011
2.380767e-012
-3.471290e-011
-5.461178e-011
-3.749397e-011
7.129034e-012
4.757703e-011
5.630468e-011
3.180981e-011
-2.965709e-012
-2.280573e-011
-2.147918e-011
-1.286077e-011
2.773625e-011
1.448495e-011
-4.588474e-012
-1.953001e-011
-2.249148e-011
-1.234936e-011
3.813689e-012
1.468199e-011
1.255965e-011
-4.624863e-013
-1.349463e-011
-1.515355e-011
-2.914572e-012
1.438704e-011
2.342742e-011
1.714708e-011
3.997404e-013
-1.416558e-011
-1.633082e-011
-6.071300e-012
7.189934e-012
1.258136e-011
6.169962e-012
-6.723336e-012
-1.638264e-011
-1.630977e-011
-7.645330e-012
2.500241e-012
6.920935e-012
3.632800e-012
-3.236104e-012
-7.228634e-012
-4.746241e-012
2.419490e-012
8.942324e-012
1.043270e-011
6.854192e-012
2.289567e-012
1.478798e-012
6.019040e-012
1.317484e-011
1.808522e-011
1.756705e-011
1.259363e-011
7.560489e-012
6.829193e-012
1.113690e-011
1.677022e-011
1.845135e-011
1.386169e-011
5.996230e-012
9.423211e-013
2.570054e-012
8.754814e-012
1.289499e-011
9.824904e-012
8.450266e-013
-7.053081e-012
-7.440154e-012
-4.902018e-013
6.998750e-012
7.841228e-012
1.171986e-012
-6.717364e-012
-8.229955e-012
-1.535729e-012
7.658428e-012
1.113623e-011
5.328517e-012
-5.745324e-012
-1.406965e-011
-1.436572e-011
-8.189856e-012
-2.201928e-012
-2.299532e-012
-8.486167e-012
-1.460407e-011
-1.329345e-011
-2.465928e-012
1.193908e-011
1.979540e-011
1.499005e-011
1.471559e-012
-8.769481e-012
-5.451871e-012
1.018364e-011
2.466390e-011
2.275424e-011
9.777850e-013
-2.774534e-011
-4.321230e-011
-3.360050e-011
-4.575863e-012
2.546689e-011
3.934735e-011
3.241172e-011
1.294179e-011
-6.624139e-012
-1.888427e-011
-2.372730e-011
-6.220990e-011
-3.489193e-011
3.332807e-012
3.323265e-011
4.325416e-011
3.433288e-011
1.640918e-011
-2.192109e-013
-1.176776e-011
-2.077301e-011
-2.985050e-011
-3.596500e-011
-3.129418e-011
-1.038822e-011
2.294657e-011
5.567365e-011
7.291460e-011
6.674512e-011
3.975319e-011
1.756459e-012
-3.642537e-011
-6.715982e-011
-8.642449e-011
-9.235600e-011
-8.449002e-011
-6.428957e-011
-3.564884e-011
-4.137395e-012
2.481102e-011
4.753554e-011
6.269852e-011
7.081960e-011
7.338454e-011
7.198535e-011
6.768927e-011
6.088528e-011
5.181579e-011
4.148076e-011
3.198291e-011
2.558208e-011
2.298959e-011
2.255606e-011
2.154843e-011
1.868659e-011
1.551257e-011
1.495048e-011
1.818454e-011
2.296360e-011
2.531802e-011
2.326820e-011
1.886869e-011
1.637513e-011
1.818280e-011
2.254926e-011
2.541149e-011
2.450982e-011
2.171630e-011
2.129791e-011
2.591171e-011
3.427782e-011
4.263942e-011
4.834626e-011
5.199031e-011
5.621123e-011
6.259693e-011
6.971339e-011
7.391835e-011
7.196951e-011
6.307908e-011
4.893642e-011
3.212617e-011
1.451816e-011
-3.103871e-012
-2.012708e-011
-3.492889e-011
-4.469497e-011
-4.678012e-011
-4.080714e-011
-2.967800e-011
-1.809387e-011
-9.267056e-012
-2.627015e-012
4.921752e-012
1.485291e-011
2.405044e-011
2.665268e-011
1.960278e-011
6.356837e-012
-5.565915e-012
-1.111481e-011
-1.147431e-011
-1.095604e-011
-1.070653e-011
-6.951374e-012
3.495312e-012
1.662093e-011
2.210233e-011
1.258579e-011
-7.590618e-012
-2.402371e-011
-1.037322e-010
-5.864794e-011
5.556213e-012
5.678537e-011
7.323182e-011
5.416970e-011
1.817037e-011
-1.100940e-011
-2.120951e-011
-1.838340e-011
-1.762670e-011
-2.678656e-011
-3.763735e-011
-3.295246e-011
-3.225506e-012
4.212121e-011
7.917439e-011
8.586750e-011
5.676974e-011
5.407653e-012
-4.582670e-011
-7.916463e-011
-8.901819e-011
-8.066146e-011
-6.352558e-011
-4.465814e-011
-2.597999e-011
-5.798487e-012
1.735737e-011
4.157964e-011
6.156026e-011
7.192268e-011
7.132368e-011
6.369356e-011
5.519619e-011
4.940346e-011
4.507168e-011
3.854637e-011
2.829412e-011
1.695021e-011
8.895056e-012
6.073564e-012
6.491440e-012
6.772050e-012
5.730133e-012
5.058545e-012
6.715865e-012
1.033426e-011
1.365464e-011
1.522932e-011
1.598710e-011
1.781362e-011
2.104701e-011
2.408066e-011
2.558136e-011
2.648312e-011
2.910436e-011
3.428970e-011
4.007036e-011
4.371763e-011
4.499507e-011
4.675885e-011
5.190491e-011
5.986429e-011
6.658506e-011
6.823467e-011
6.479055e-011
5.973186e-011
5.612403e-011
5.309568e-011
4.627408e-011
3.184139e-011
1.050875e-011
-1.205042e-011
-2.865953e-011
-3.532864e-011
-3.381316e-011
-3.017737e-011
-3.000557e-011
-3.334831e-011
-3.359145e-011
-2.258362e-011
7.131906e-013
2.562112e-011
3.562344e-011
2.235793e-011
-4.278020e-012
-2.151055e-011
-1.285240e-011
1.552433e-011
3.806752e-011
3.213938e-011
-6.334264e-013
-3.476766e-011
-4.363012e-011
-2.308026e-011
6.459885e-012
2.075877e-011
1.426066e-011
2.321193e-012
-6.806987e-011
-3.832728e-011
4.698522e-012
3.903165e-011
4.767606e-011
2.887491e-011
-1.505336e-012
-2.018995e-011
-1.395566e-011
9.355440e-012
2.682893e-011
1.988488e-011
-9.212752e-012
-3.858108e-011
-4.502806e-011
-2.346218e-011
9.344261e-012
2.913000e-011
2.354033e-011
4.349091e-013
-2.016927e-011
-2.219802e-011
-4.549794e-012
2.002921e-011
3.541368e-011
3.331593e-011
1.775179e-011
7.641236e-013
-6.796741e-012
-2.745087e-012
5.930398e-012
9.628906e-012
4.376564e-012
-5.140804e-012
-1.029258e-011
-6.619666e-012
2.163455e-012
7.918850e-012
5.788368e-012
-1.631407e-012
-7.361085e-012
-6.790946e-012
-1.284055e-012
4.319665e-012
6.834726e-012
7.007557e-012
7.435337e-012
9.460980e-012
1.259721e-011
1.616406e-011
2.016864e-011
2.421244e-011
2.656959e-011
2.568023e-011
2.272652e-011
2.157645e-011
2.493289e-011
3.052420e-011
3.223208e-011
2.602904e-011
1.475272e-011
6.106397e-012
5.216626e-012
9.282720e-012
1.022701e-011
3.096758e-012
-8.188055e-012
-1.372887e-011
-6.646913e-012
1.031073e-011
2.667448e-011
3.280266e-011
2.744330e-011
1.801702e-011
1.378725e-011
1.771915e-011
2.351918e-011
2.037630e-011
2.338634e-012
-2.462739e-011
-4.443336e-011
-4.231385e-011
-1.825188e-011
9.664051e-012
1.802836e-011
-1.141076e-012
-3.012273e-011
-3.801325e-011
-8.123980e-012
4.383333e-011
7.929809e-011
6.801486e-011
1.383784e-011
-4.784288e-011
-7.843485e-011
-6.480191e-011
-2.430337e-011
1.468691e-011
3.611567e-011
4.252744e-011
1.319103e-011
1.064578e-011
6.867600e-012
1.380847e-012
-8.346386e-012
-2.247948e-011
-3.399641e-011
-3.049607e-011
-4.271973e-012
3.707008e-011
7.068045e-011
7.264076e-011
3.634209e-011
-2.065977e-011
-6.833834e-011
-8.532763e-011
-7.200133e-011
-4.548458e-011
-2.269841e-011
-7.090345e-012
1.032995e-011
3.862068e-011
7.540328e-011
1.061579e-010
1.142694e-010
9.327239e-011
5.186242e-011
8.304152e-012
-2.134282e-011
-3.261100e-011
-3.308651e-011
-3.417122e-011
-4.101975e-011
-4.886815e-011
-4.846876e-011
-3.538025e-011
-1.450020e-011
4.177858e-012
1.427827e-011
1.788702e-011
2.235537e-011
3.285121e-011
4.806119e-011
6.244590e-011
7.166531e-011
7.550188e-011
7.643478e-011
7.677475e-011
7.758563e-011
7.921915e-011
8.127872e-011
8.173183e-011
7.742902e-011
6.712692e-011
5.416581e-011
4.471980e-011
4.191201e-011
4.162230e-011
3.541844e-011
1.883272e-011
-3.292971e-012
-2.062534e-011
-2.723297e-011
-2.760572e-011
-3.220437e-011
-4.648667e-011
-6.420684e-011
-7.181567e-011
-6.004111e-011
-3.198522e-011
-5.883626e-013
2.184310e-011
3.263989e-011
3.887469e-011
4.911463e-011
6.415870e-011
7.460874e-011
6.769488e-011
3.852379e-011
-3.190178e-012
-3.754203e-011
-4.834864e-011
-3.607749e-011
-1.797239e-011
-1.324609e-011
-2.519359e-011
-3.697010e-011
-2.664840e-011
1.110025e-011
5.681855e-011
7.992233e-011
6.248455e-011
1.272093e-011
-4.188691e-011
-7.390124e-011
-7.147387e-011
-4.073510e-011
2.125262e-012
4.040514e-011
6.233906e-011
7.430986e-011
4.911049e-011
1.134028e-011
-2.401048e-011
-4.678040e-011
-5.452130e-011
-4.945193e-011
-3.312292e-011
-5.105879e-012
3.196056e-011
6.654760e-011
8.034111e-011
6.013890e-011
1.033668e-011
-4.643076e-011
-8.328195e-011
-8.675976e-011
-6.339750e-011
-3.066314e-011
-1.824429e-012
2.156481e-011
4.465167e-011
6.888004e-011
8.715163e-011
8.888905e-011
6.973534e-011
3.684354e-011
5.037269e-012
-1.301780e-011
-1.476944e-011
-7.788395e-012
-2.233462e-012
-2.155768e-012
-2.719238e-012
4.737932e-012
2.462321e-011
5.322305e-011
8.219373e-011
1.057211e-010
1.245947e-010
1.438764e-010
1.671319e-010
1.929680e-010
2.165366e-010
2.335913e-010
2.429838e-010
2.461923e-010
2.456410e-010
2.436347e-010
2.416703e-010
2.392858e-010
2.334008e-010
2.201441e-010
1.988247e-010
1.741909e-010
1.534456e-010
1.397179e-010
1.284829e-010
1.115442e-010
8.551623e-011
5.625977e-011
3.406136e-011
2.373928e-011
1.953602e-011
1.031467e-011
-9.640427e-012
-3.457071e-011
-5.171077e-011
-5.201566e-011
-3.729348e-011
-1.771348e-011
-2.615924e-012
6.840049e-012
1.692123e-011
3.358059e-011
5.480661e-011
7.003697e-011
6.778623e-011
4.557860e-011
1.353612e-011
-1.248414e-011
-2.317702e-011
-2.254597e-011
-2.218873e-011
-2.811631e-011
-3.355678e-011
-2.608055e-011
-2.286326e-012
2.579623e-011
4.032940e-011
3.363745e-011
1.375455e-011
-5.426776e-012
-1.725398e-011
-2.411468e-011
-2.814452e-011
-2.463135e-011
-7.704784e-012
1.860654e-011
3.893601e-011
7.049565e-011
4.597329e-011
9.065205e-012
-2.365302e-011
-3.893856e-011
-3.491128e-011
-2.195863e-011
-1.329546e-011
-1.264703e-011
-1.149552e-011
2.854674e-013
2.109439e-011
3.636056e-011
3.200923e-011
9.259114e-012
-1.479405e-011
-2.196039e-011
-8.702115e-012
1.199361e-011
2.314956e-011
1.785936e-011
2.449587e-012
-1.175007e-011
-1.835047e-011
-1.858218e-011
-1.637716e-011
-1.248163e-011
-3.546495e-012
1.381529e-011
3.877279e-011
6.614323e-011
9.040984e-011
1.101449e-010
1.289828e-010
1.524909e-010
1.837538e-010
2.212866e-010
2.606202e-010
2.977542e-010
3.314475e-010
3.628264e-010
3.932760e-010
4.227035e-010
4.493425e-010
4.707487e-010
4.850787e-010
4.921143e-010
4.937017e-010
4.930216e-010
4.924352e-010
4.911307e-010
4.849735e-010
4.696773e-010
4.450468e-010
4.160646e-010
3.889658e-010
3.655618e-010
3.415568e-010
3.111234e-010
2.735714e-010
2.353094e-010
2.046722e-010
1.843504e-010
1.687464e-010
1.488387e-010
1.199164e-010
8.505202e-011
5.159884e-011
2.460277e-011
3.433274e-012
-1.563910e-011
-3.389767e-011
-4.722667e-011
-4.882971e-011
-3.554565e-011
-1.221230e-011
1.036355e-011
2.301253e-011
2.510997e-011
2.400368e-011
2.653050e-011
3.060870e-011
2.654496e-011
8.556133e-012
-1.516779e-011
-2.681769e-011
-1.640511e-011
5.310694e-012
1.467795e-011
-1.133556e-012
-2.876515e-011
-3.985074e-011
-1.926433e-011
1.864009e-011
4.334419e-011
3.734696e-011
1.088051e-011
-1.178996e-011
-1.765347e-011
-1.406422e-011
1.464980e-011
5.724603e-012
-5.978723e-012
-1.053288e-011
-6.771575e-014
2.198890e-011
3.818632e-011
2.848093e-011
-1.089184e-011
-5.905544e-011
-8.379169e-011
-6.699740e-011
-1.932925e-011
2.976012e-011
5.689606e-011
6.105306e-011
5.751667e-011
5.830675e-011
5.962717e-011
4.745022e-011
1.348893e-011
-3.484643e-011
-7.879112e-011
-1.010567e-010
-9.542019e-011
-6.690946e-011
-2.542264e-011
2.066092e-011
6.708081e-011
1.130426e-010
1.594891e-010
2.075693e-010
2.575876e-010
3.087060e-010
3.596709e-010
4.099978e-010
4.602754e-010
5.109197e-010
5.605359e-010
6.059298e-010
6.443389e-010
6.759037e-010
7.036677e-010
7.306724e-010
7.568801e-010
7.791832e-010
7.947268e-010
8.041642e-010
8.112274e-010
8.187208e-010
8.249928e-010
8.247798e-010
8.138955e-010
7.930803e-010
7.669790e-010
7.392202e-010
7.087179e-010
6.711001e-010
6.238218e-010
5.696805e-010
5.151837e-010
4.655367e-010
4.212339e-010
3.791735e-010
3.364476e-010
2.926255e-010
2.485684e-010
2.037314e-010
1.553503e-010
1.007535e-010
4.088759e-011
-1.802535e-011
-6.633233e-011
-9.541182e-011
-1.020291e-010
-8.964945e-011
-6.552723e-011
-3.565293e-011
-2.116076e-012
3.399659e-011
6.673363e-011
8.386139e-011
7.465521e-011
4.160397e-011
3.319683e-012
-1.826398e-011
-1.702887e-011
-8.855682e-012
-1.575463e-011
-4.162601e-011
-6.462577e-011
-5.627872e-011
-1.002758e-011
4.911837e-011
8.401029e-011
7.531927e-011
3.410425e-011
-1.215607e-011
-4.322002e-011
-5.615627e-011
-3.786852e-011
-3.478690e-011
-2.537301e-011
-4.847505e-012
2.791387e-011
6.386438e-011
8.304146e-011
6.526641e-011
7.609391e-012
-6.614372e-011
-1.161632e-010
-1.129458e-010
-5.892982e-011
1.357298e-011
6.700069e-011
8.449385e-011
7.563796e-011
6.021938e-011
4.805760e-011
3.373053e-011
8.083826e-012
-2.757127e-011
-5.870700e-011
-6.745533e-011
-4.498060e-011
3.814953e-012
6.521416e-011
1.259618e-010
1.803953e-010
2.319635e-010
2.892165e-010
3.589469e-010
4.407559e-010
5.269373e-010
6.081124e-010
6.801873e-010
7.464654e-010
8.128419e-010
8.807597e-010
9.451167e-010
9.993984e-010
1.042654e-009
1.080779e-009
1.120528e-009
1.162563e-009
1.200941e-009
1.229432e-009
1.247635e-009
1.260292e-009
1.270924e-009
1.277227e-009
1.273445e-009
1.256799e-009
1.230440e-009
1.199495e-009
1.164832e-009
1.121805e-009
1.065487e-009
9.964457e-010
9.205790e-010
8.434437e-010
7.657407e-010
6.851258e-010
6.020630e-010
5.226732e-010
4.547830e-010
4.008585e-010
3.549604e-010
3.067985e-010
2.490903e-010
1.818548e-010
1.108995e-010
4.314731e-011
-1.657416e-011
-6.504766e-011
-9.796767e-011
-1.085180e-010
-9.003060e-011
-4.252628e-011
2.122689e-011
7.687644e-011
1.001548e-010
8.303783e-011
4.093782e-011
1.885826e-012
-1.543291e-011
-1.533670e-011
-1.705067e-011
-3.258408e-011
-5.294773e-011
-5.660062e-011
-3.103572e-011
1.429506e-011
5.522719e-011
7.138207e-011
5.846138e-011
2.645025e-011
-1.010072e-011
-3.969911e-011
-5.582889e-011
-4.250397e-011
-3.984820e-011
-3.022377e-011
-1.004291e-011
1.897564e-011
4.881603e-011
6.719937e-011
6.201886e-011
2.861158e-011
-2.272504e-011
-6.673761e-011
-7.660721e-011
-4.431301e-011
9.582055e-012
4.894235e-011
4.947884e-011
1.688344e-011
-2.036744e-011
-3.573018e-011
-2.357392e-011
2.849881e-012
2.854579e-011
5.091328e-011
7.930514e-011
1.237452e-010
1.849162e-010
2.536840e-010
3.190505e-010
3.773241e-010
4.355394e-010
5.066836e-010
5.999156e-010
7.128402e-010
8.322146e-010
9.433456e-010
1.040774e-009
1.130789e-009
1.223245e-009
1.320434e-009
1.414042e-009
1.493198e-009
1.555111e-009
1.607017e-009
1.657501e-009
1.706782e-009
1.746531e-009
1.769064e-009
1.775379e-009
1.773224e-009
1.768010e-009
1.757421e-009
1.735757e-009
1.702310e-009
1.663292e-009
1.624729e-009
1.584771e-009
1.534809e-009
1.468478e-009
1.388176e-009
1.301436e-009
1.211392e-009
1.112712e-009
9.984075e-010
8.705314e-010
7.429851e-010
6.327852e-010
5.481438e-010
4.846497e-010
4.321370e-010
3.842381e-010
3.409752e-010
3.027977e-010
2.633964e-010
2.099398e-010
1.325695e-010
3.636485e-011
-5.468465e-011
-1.080177e-010
-1.033037e-010
-4.969707e-011
1.594250e-011
5.290510e-011
4.592592e-011
1.448614e-011
-7.990432e-012
-6.163691e-012
5.762198e-012
4.305847e-012
-1.459182e-011
-3.093115e-011
-2.438424e-011
2.189576e-012
2.638565e-011
3.081062e-011
1.888165e-011
5.810285e-012
-4.251698e-013
-4.273653e-012
-1.120255e-011
-1.806541e-011
-5.897549e-012
-7.887986e-012
-9.428609e-012
-1.024604e-011
-1.201273e-011
-1.297109e-011
-6.729274e-012
9.768844e-012
2.847406e-011
3.553358e-011
2.680975e-011
1.482865e-011
1.535694e-011
2.657560e-011
2.609799e-011
-6.814495e-012
-6.551157e-011
-1.146119e-010
-1.164736e-010
-6.065370e-011
3.045788e-011
1.224562e-010
1.951400e-010
2.521302e-010
3.102280e-010
3.821040e-010
4.677203e-010
5.589708e-010
6.505732e-010
7.467984e-010
8.584425e-010
9.926705e-010
1.144308e-009
1.296551e-009
1.431532e-009
1.542134e-009
1.634314e-009
1.717462e-009
1.792067e-009
1.847209e-009
1.870688e-009
1.861367e-009
1.830722e-009
1.792102e-009
1.749523e-009
1.698111e-009
1.634981e-009
1.567570e-009
1.509669e-009
1.469905e-009
1.446155e-009
1.432017e-009
1.426972e-009
1.437466e-009
1.467264e-009
1.508713e-009
1.545950e-009
1.567082e-009
1.571530e-009
1.564054e-009
1.542492e-009
1.493948e-009
1.404967e-009
1.275545e-009
1.122267e-009
9.672530e-010
8.242505e-010
6.953396e-010
5.798787e-010
4.845229e-010
4.224065e-010
4.006998e-010
4.074609e-010
4.105839e-010
3.729000e-010
2.752894e-010
1.324132e-010
-1.165611e-011
-1.082445e-010
-1.341022e-010
-1.044865e-010
-5.796313e-011
-2.508185e-011
-8.692375e-012
6.755431e-012
2.923195e-011
4.674830e-011
4.275425e-011
1.957524e-011
-7.635992e-013
-1.231417e-012
1.014693e-011
1.057283e-011
-9.011142e-012
-3.230934e-011
-3.667050e-011
-1.843774e-011
5.613691e-012
1.932535e-011
2.232539e-011
2.518474e-011
2.810789e-011
2.621431e-011
8.908096e-012
-2.707313e-011
-6.760213e-011
-8.505473e-011
-5.941522e-011
1.338828e-012
6.409880e-011
9.676960e-011
9.208539e-011
6.568944e-011
3.380840e-011
-2.247330e-012
-4.768236e-011
-9.417517e-011
-1.144892e-010
-8.130657e-011
7.772171e-012
1.248797e-010
2.325066e-010
3.114398e-010
3.720559e-010
4.420413e-010
5.440304e-010
6.819538e-010
8.439599e-010
1.015287e-009
1.188488e-009
1.363122e-009
1.536748e-009
1.696203e-009
1.817830e-009
1.877550e-009
1.862596e-009
1.774476e-009
1.620662e-009
1.403714e-009
1.119553e-009
7.671997e-010
3.596701e-010
-7.628354e-011
-5.121807e-010
-9.292383e-010
-1.317505e-009
-1.665005e-009
-1.950697e-009
-2.150494e-009
-2.250057e-009
-2.249925e-009
-2.157577e-009
-1.976579e-009
-1.706420e-009
-1.353546e-009
-9.401554e-010
-4.992425e-010
-6.019511e-011
3.596485e-010
7.489575e-010
1.090230e-009
1.357109e-009
1.526142e-009
1.591495e-009
1.567505e-009
1.476709e-009
1.335903e-009
1.153965e-009
9.422622e-010
7.254953e-010
5.403147e-010
4.202184e-010
3.768996e-010
3.910255e-010
4.190463e-010
4.130006e-010
3.432773e-010
2.127360e-010
5.487145e-011
-8.294203e-011
-1.619753e-010
-1.684494e-010
-1.161154e-010
-3.620644e-011
3.764206e-011
8.166092e-011
8.808131e-011
6.540523e-011
3.280166e-011
8.660420e-012
-1.421872e-012
-6.738310e-012
-1.922285e-011
-3.806146e-011
-4.866039e-011
-3.842386e-011
-1.140141e-011
1.552563e-011
2.990277e-011
3.335935e-011
1.390897e-011
3.331053e-011
5.018246e-011
3.963950e-011
-6.432057e-012
-6.854732e-011
-1.084333e-010
-9.506402e-011
-2.941041e-011
5.292974e-011
1.052240e-010
1.013951e-010
5.147496e-011
-9.625806e-012
-4.814523e-011
-5.003639e-011
-1.991714e-011
3.214636e-011
9.957769e-011
1.771734e-010
2.564116e-010
3.290151e-010
3.973766e-010
4.797152e-010
6.016688e-010
7.795534e-010
1.008559e-009
1.264147e-009
1.513298e-009
1.725281e-009
1.874081e-009
1.932936e-009
1.868347e-009
1.641200e-009
1.216332e-009
5.739503e-010
-2.859059e-010
-1.348637e-009
-2.593570e-009
-3.996302e-009
-5.522742e-009
-7.122865e-009
-8.733740e-009
-1.029165e-008
-1.174258e-008
-1.304153e-008
-1.414389e-008
-1.500110e-008
-1.556829e-008
-1.581684e-008
-1.573884e-008
-1.533952e-008
-1.462812e-008
-1.361919e-008
-1.234376e-008
-1.085670e-008
-9.230213e-009
-7.538234e-009
-5.846342e-009
-4.214484e-009
-2.704352e-009
-1.377871e-009
-2.837859e-010
5.563054e-010
1.149302e-009
1.518370e-009
1.688893e-009
1.684496e-009
1.533859e-009
1.278832e-009
9.745409e-010
6.802846e-010
4.469248e-010
3.064325e-010
2.651218e-010
3.001558e-010
3.617160e-010
3.865816e-010
3.255421e-010
1.746413e-010
-1.243619e-011
-1.498959e-010
-1.752037e-010
-9.458087e-011
2.213932e-011
9.663903e-011
9.904312e-011
5.690779e-011
1.573531e-011
-3.470710e-012
-1.039533e-011
-2.076949e-011
-3.502238e-011
-4.088935e-011
-3.015847e-011
-8.268433e-012
1.137317e-011
1.949327e-011
1.719097e-011
1.255040e-011
-2.830030e-011
4.553119e-012
4.229363e-011
5.477731e-011
3.001061e-011
-1.895549e-011
-6.202692e-011
-6.955767e-011
-3.218489e-011
2.740535e-011
6.385545e-011
4.206631e-011
-2.832891e-011
-9.126409e-011
-8.543939e-011
4.993003e-012
1.379388e-010
2.507892e-010
3.109984e-010
3.346773e-010
3.646783e-010
4.371431e-010
5.666023e-010
7.525746e-010
9.896379e-010
1.266560e-009
1.556798e-009
1.811907e-009
1.964553e-009
1.937827e-009
1.653365e-009
1.034582e-009
7.785656e-012
-1.493528e-009
-3.519124e-009
-6.090890e-009
-9.196488e-009
-1.279093e-008
-1.680289e-008
-2.113966e-008
-2.568815e-008
-3.031620e-008
-3.487944e-008
-3.923323e-008
-4.324239e-008
-4.678281e-008
-4.973798e-008
-5.199939e-008
-5.347524e-008
-5.410166e-008
-5.384678e-008
-5.270648e-008
-5.070011e-008
-4.787460e-008
-4.431439e-008
-4.014570e-008
-3.552808e-008
-3.063792e-008
-2.565535e-008
-2.075891e-008
-1.612150e-008
-1.189898e-008
-8.212059e-009
-5.131576e-009
-2.676684e-009
-8.251335e-010
4.730452e-010
1.285907e-009
1.693974e-009
1.784298e-009
1.642839e-009
1.349301e-009
9.789604e-010
6.090576e-010
3.190137e-010
1.735493e-010
1.907453e-010
3.168247e-010
4.382206e-010
4.421122e-010
2.936130e-010
6.723076e-011
-1.062436e-010
-1.427184e-010
-6.730464e-011
2.242814e-011
5.226484e-011
2.682370e-011
-3.116146e-012
-8.416350e-012
-3.370728e-012
-1.022061e-011
-2.458746e-011
-2.489942e-011
-4.365145e-012
1.974819e-011
2.717503e-011
1.525942e-011
-3.321911e-012
-1.550363e-011
-5.276653e-011
-2.789232e-011
5.824420e-012
3.220473e-011
4.264860e-011
3.561644e-011
1.653406e-011
-5.764722e-013
-1.203799e-012
1.066680e-011
6.624048e-012
-3.816907e-011
-1.046117e-010
-1.279016e-010
-5.138932e-011
1.135161e-010
2.876740e-010
3.910198e-010
4.124025e-010
4.175735e-010
4.940415e-010
6.879447e-010
9.836429e-010
1.327841e-009
1.661872e-009
1.929862e-009
2.061401e-009
1.950324e-009
1.449191e-009
3.820271e-010
-1.435024e-009
-4.175616e-009
-7.990413e-009
-1.299622e-008
-1.926355e-008
-2.680340e-008
-3.555744e-008
-4.539577e-008
-5.612296e-008
-6.748946e-008
-7.920485e-008
-9.095178e-008
-1.024006e-007
-1.132240e-007
-1.231085e-007
-1.317621e-007
-1.389193e-007
-1.443476e-007
-1.478570e-007
-1.493089e-007
-1.486206e-007
-1.457680e-007
-1.407904e-007
-1.337994e-007
-1.249874e-007
-1.146285e-007
-1.030671e-007
-9.069966e-008
-7.795530e-008
-6.527465e-008
-5.308431e-008
-4.176544e-008
-3.162279e-008
-2.286341e-008
-1.558977e-008
-9.804518e-009
-5.422295e-009
-2.286794e-009
-1.950580e-010
1.071284e-009
1.714419e-009
1.899759e-009
1.755611e-009
1.392485e-009
9.281056e-010
4.957188e-010
2.189310e-010
1.595413e-010
2.744850e-010
4.277582e-010
4.709858e-010
3.449745e-010
1.192802e-010
-7.168821e-011
-1.418072e-010
-1.094428e-010
-5.074945e-011
-1.523856e-011
1.558624e-012
1.774892e-011
2.842188e-011
1.954573e-011
-1.528722e-012
-1.045671e-011
2.412522e-012
2.025054e-011
2.216692e-011
6.463435e-012
-1.297530e-011
-2.436050e-011
-2.192578e-011
-3.065170e-011
-3.594464e-011
-2.291493e-011
1.206159e-011
5.277116e-011
7.408454e-011
6.459298e-011
3.421589e-011
-2.367850e-012
-4.106620e-011
-7.804925e-011
-8.987510e-011
-4.128753e-011
7.707734e-011
2.251938e-010
3.409310e-010
3.986214e-010
4.420447e-010
5.581110e-010
8.129701e-010
1.202620e-009
1.650551e-009
2.040274e-009
2.243708e-009
2.117704e-009
1.474173e-009
5.197069e-011
-2.485587e-009
-6.524845e-009
-1.246131e-008
-2.065947e-008
-3.141927e-008
-4.494792e-008
-6.133480e-008
-8.052996e-008
-1.023304e-007
-1.263791e-007
-1.521801e-007
-1.791278e-007
-2.065445e-007
-2.337181e-007
-2.599326e-007
-2.844915e-007
-3.067352e-007
-3.260569e-007
-3.419168e-007
-3.538553e-007
-3.615005e-007
-3.645741e-007
-3.628987e-007
-3.564110e-007
-3.451805e-007
-3.294287e-007
-3.095392e-007
-2.860575e-007
-2.596791e-007
-2.312299e-007
-2.016339e-007
-1.718670e-007
-1.428929e-007
-1.155926e-007
-9.070122e-008
-6.876260e-008
-5.010515e-008
-3.483484e-008
-2.284576e-008
-1.385041e-008
-7.430647e-009
-3.102660e-009
-3.828501e-010
1.159086e-009
1.869579e-009
2.007315e-009
1.764241e-009
1.301341e-009
7.787789e-010
3.556953e-010
1.487587e-010
1.729999e-010
3.203624e-010
4.199659e-010
3.561354e-010
1.510070e-010
-6.638587e-011
-1.763973e-010
-1.569098e-010
-6.958994e-011
1.430886e-011
6.087946e-011
6.784069e-011
4.573334e-011
1.289450e-011
-9.454852e-012
-1.185680e-011
-3.386908e-012
1.471948e-012
-1.255597e-012
-5.905689e-012
-8.138565e-012
5.221251e-011
7.919911e-013
-5.901192e-011
-7.920749e-011
-4.131463e-011
2.976241e-011
8.484789e-011
8.747333e-011
3.828816e-011
-2.842295e-011
-6.681446e-011
-4.462080e-011
3.812007e-011
1.469669e-010
2.365050e-010
2.880794e-010
3.305848e-010
4.252827e-010
6.292466e-010
9.652324e-010
1.408132e-009
1.879703e-009
2.243663e-009
2.299652e-009
1.772925e-009
2.946742e-010
-2.623231e-009
-7.602365e-009
-1.538284e-008
-2.677451e-008
-4.258394e-008
-6.353208e-008
-9.017421e-008
-1.228301e-007
-1.615304e-007
-2.059850e-007
-2.555772e-007
-3.093857e-007
-3.662357e-007
-4.247729e-007
-4.835485e-007
-5.410983e-007
-5.960010e-007
-6.469162e-007
-6.926075e-007
-7.319639e-007
-7.640182e-007
-7.879589e-007
-8.031324e-007
-8.090424e-007
-8.053601e-007
-7.919508e-007
-7.689119e-007
-7.366089e-007
-6.956975e-007
-6.471332e-007
-5.921707e-007
-5.323503e-007
-4.694577e-007
-4.054436e-007
-3.423045e-007
-2.819419e-007
-2.260275e-007
-1.758899e-007
-1.324332e-007
-9.609153e-008
-6.683084e-008
-4.420347e-008
-2.745063e-008
-1.562944e-008
-7.735730e-009
-2.802988e-009
2.650752e-011
1.452737e-009
1.990259e-009
1.973076e-009
1.605405e-009
1.047607e-009
4.853989e-010
1.173384e-010
5.374301e-011
2.208915e-010
3.955524e-010
3.804723e-010
1.676992e-010
-7.574335e-011
-1.812045e-010
-1.233929e-010
-2.612950e-012
7.661416e-011
8.484609e-011
5.153151e-011
1.272629e-011
-1.438716e-011
-2.711902e-011
-2.769450e-011
-1.936272e-011
-5.811088e-012
8.361398e-012
1.758407e-011
1.150026e-010
3.845791e-011
-5.522914e-011
-1.018172e-010
-7.523934e-011
-1.497826e-012
6.183437e-011
6.552544e-011
6.016471e-012
-6.286313e-011
-6.236967e-011
4.434649e-011
2.070861e-010
3.248693e-010
3.466270e-010
3.359121e-010
4.245106e-010
7.001539e-010
1.141621e-009
1.646885e-009
2.089146e-009
2.315642e-009
2.078573e-009
9.527982e-010
-1.712884e-009
-6.809749e-009
-1.546791e-008
-2.904210e-008
-4.906469e-008
-7.714723e-008
-1.148309e-007
-1.634067e-007
-2.237370e-007
-2.961093e-007
-3.801483e-007