# vtk DataFile Version 3.0
vtk output
ASCII
DATASET STRUCTURED_POINTS
DIMENSIONS 100 100 1
SPACING 1 1 1
ORIGIN 0 0 0
POINT_DATA 10000
SCALARS SFBox_profile double
LOOKUP_TABLE default 
0.000000e+000
0.000000e+000
0.000000e+000
0.000000e+000
0.000000e+000
0.000000e+000
0.000000e+000
0.000000e+000
0.000000e+000
0.000000e+000
0.000000e+000
0.000000e+000
0.000000e+000
0.000000e+000
0.000000e+000
0.000000e+000
0.000000e+000
0.000000e+000
0.000000e+000
0.000000e+000
0.000000e+000
0.000000e+000
0.000000e+000
0.000000e+000
0.000000e+000
0.000000e+000
0.000000e+000
0.000000e+000
0.000000e+000
0.000000e+000
0.000000e+000
0.000000e+000
0.000000e+000
0.000000e+000
0.000000e+000
0.000000e+000
0.000000e+000
0.000000e+000
0.000000e+000
0.000000e+000
0.000000e+000
0.000000e+000
0.000000e+000
0.000000e+000
0.000000e+000
0.000000e+000
0.000000e+000
0.000000e+000
0.000000e+000
0.000000e+000
0.000000e+000
0.000000e+000
0.000000e+000
0.000000e+000
0.000000e+000
0.000000e+000
0.000000e+000
0.000000e+000
0.000000e+000
0.000000e+000
0.000000e+000
0.000000e+000
0.000000e+000
0.000000e+000
0.000000e+000
0.000000e+000
0.000000e+000
0.000000e+000
0.000000e+000
0.000000e+000
0.000000e+000
0.000000e+000
0.000000e+000
0.000000e+000
0.000000e+000
0.000000e+000
0.000000e+000
0.000000e+000
0.000000e+000
0.000000e+000
0.000000e+000
0.000000e+000
0.000000e+000
0.000000e+000
0.000000e+000
0.000000e+000
0.000000e+000
0.000000e+000
0.000000e+000
0.000000e+000
0.000000e+000
0.000000e+000
0.000000e+000
0.000000e+000
0.000000e+000
0.000000e+000
0.000000e+000
0.000000e+000
0.000000e+000
0.000000e+000
-3.347380e-009
-1.177319e-009
1.622985e-009
3.206334e-009
2.666135e-009
5.472847e-010
-1.670866e-009
-2.659043e-009
-2.068517e-009
-5.604990e-010
8.549877e-010
1.559827e-009
1.577732e-009
1.259534e-009
8.179968e-010
1.818772e-010
-7.448467e-010
-1.757442e-009
-2.350586e-009
-2.085916e-009
-9.811340e-010
4.594322e-010
1.608628e-009
2.140452e-009
2.148330e-009
1.908445e-009
1.569045e-009
1.068534e-009
3.117884e-010
-6.284973e-010
-1.509349e-009
-2.101454e-009
-2.354563e-009
-2.383008e-009
-2.313389e-009
-2.167805e-009
-1.889881e-009
-1.455222e-009
-9.307740e-010
-4.255257e-010
-9.698621e-013
3.580249e-010
6.923096e-010
1.006963e-009
1.267707e-009
1.447597e-009
1.560585e-009
1.643122e-009
1.711495e-009
1.749072e-009
1.736360e-009
1.682200e-009
1.614130e-009
1.539432e-009
1.428501e-009
1.246876e-009
9.996892e-010
7.305175e-010
4.688428e-010
1.882177e-010
-1.657355e-010
-5.995406e-010
-1.037336e-009
-1.380534e-009
-1.603922e-009
-1.773697e-009
-1.951157e-009
-2.083459e-009
-2.017796e-009
-1.647672e-009
-1.040915e-009
-3.974785e-010
1.349477e-010
5.885527e-010
1.089690e-009
1.635904e-009
1.986158e-009
1.822256e-009
1.055115e-009
-2.791671e-011
-9.441514e-010
-1.370219e-009
-1.335953e-009
-1.083824e-009
-7.627714e-010
-2.944352e-010
4.368763e-010
1.276692e-009
1.740519e-009
1.348206e-009
9.973613e-011
-1.353934e-009
-2.074550e-009
-1.510314e-009
4.061502e-011
1.570425e-009
2.042670e-009
1.128408e-009
-5.444996e-010
-1.820062e-009
-6.644125e-010
-1.849233e-010
3.987756e-010
6.516503e-010
4.029433e-010
-1.329281e-010
-5.279642e-010
-4.756244e-010
-3.068069e-011
4.376260e-010
5.450943e-010
2.022601e-010
-3.208490e-010
-6.246912e-010
-5.031590e-010
-8.350375e-011
3.206027e-010
4.872543e-010
4.359631e-010
3.328962e-010
2.788097e-010
2.071820e-010
-1.329894e-011
-3.969229e-010
-7.812910e-010
-9.540484e-010
-8.334534e-010
-5.214613e-010
-1.886557e-010
7.867829e-011
3.167786e-010
5.908467e-010
8.891983e-010
1.120033e-009
1.201621e-009
1.138531e-009
1.005015e-009
8.652263e-010
7.220707e-010
5.419510e-010
3.142563e-010
7.395919e-011
-1.320699e-010
-2.888539e-010
-4.166159e-010
-5.362455e-010
-6.424150e-010
-7.144072e-010
-7.458195e-010
-7.532260e-010
-7.537073e-010
-7.419267e-010
-6.976966e-010
-6.149188e-010
-5.134735e-010
-4.156751e-010
-3.153799e-010
-1.817179e-010
1.086742e-012
2.047232e-010
3.791759e-010
5.063132e-010
6.203327e-010
7.626807e-010
9.179123e-010
1.009294e-009
9.708281e-010
8.199184e-010
6.429339e-010
5.001834e-010
3.556944e-010
1.208893e-010
-2.244337e-010
-5.678159e-010
-7.414148e-010
-6.728755e-010
-4.525783e-010
-2.411159e-010
-1.119881e-010
1.199665e-012
1.938571e-010
4.373531e-010
5.603682e-010
4.047063e-010
6.854050e-012
-3.856710e-010
-5.004689e-010
-2.681057e-010
1.155520e-010
3.504280e-010
2.748874e-010
-1.689252e-011
-2.706491e-010
-2.854090e-010
-6.414910e-011
2.076226e-010
3.181683e-010
1.885341e-010
-7.994585e-011
-2.893087e-010
2.523015e-009
9.439358e-010
-1.127260e-009
-2.379937e-009
-2.137713e-009
-7.017414e-010
9.831119e-010
2.002590e-009
1.974908e-009
1.100754e-009
-1.278862e-010
-1.243553e-009
-1.931494e-009
-2.005444e-009
-1.393910e-009
-2.101611e-010
1.188733e-009
2.289667e-009
2.659814e-009
2.171949e-009
1.046989e-009
-3.062657e-010
-1.512282e-009
-2.350360e-009
-2.738175e-009
-2.662473e-009
-2.150644e-009
-1.290814e-009
-2.404630e-010
8.158777e-010
1.731605e-009
2.429536e-009
2.883209e-009
3.083733e-009
3.031793e-009
2.753423e-009
2.307318e-009
1.765649e-009
1.185845e-009
6.013523e-010
3.505772e-011
-4.867693e-010
-9.380463e-010
-1.306749e-009
-1.599117e-009
-1.828201e-009
-2.001005e-009
-2.118532e-009
-2.184903e-009
-2.210404e-009
-2.203272e-009
-2.161676e-009
-2.077582e-009
-1.947696e-009
-1.776255e-009
-1.565212e-009
-1.305586e-009
-9.841880e-010
-6.001245e-010
-1.707665e-010
2.814195e-010
7.447404e-010
1.214832e-009
1.673818e-009
2.078378e-009
2.374889e-009
2.526348e-009
2.519405e-009
2.344583e-009
1.979847e-009
1.408095e-009
6.571225e-010
-1.829683e-010
-9.890919e-010
-1.650893e-009
-2.083031e-009
-2.200780e-009
-1.914615e-009
-1.190729e-009
-1.428742e-010
9.436155e-010
1.715967e-009
1.929070e-009
1.559336e-009
7.786061e-010
-1.606536e-010
-1.011352e-009
-1.540635e-009
-1.534542e-009
-8.932682e-010
2.114204e-010
1.285261e-009
1.715810e-009
1.170669e-009
-9.485930e-011
-1.311544e-009
-1.676260e-009
-9.232518e-010
4.484052e-010
1.496624e-009
3.673174e-009
1.250047e-009
-1.828292e-009
-3.484530e-009
-2.780223e-009
-4.364030e-010
1.858910e-009
2.722892e-009
1.938423e-009
3.461599e-010
-9.761866e-010
-1.489206e-009
-1.343530e-009
-9.554059e-010
-5.300945e-010
1.409543e-011
7.452731e-010
1.445193e-009
1.694449e-009
1.238249e-009
2.543967e-010
-7.516531e-010
-1.324423e-009
-1.355918e-009
-1.059329e-009
-7.025286e-010
-3.868004e-010
-5.525919e-011
3.421577e-010
7.355805e-010
9.841288e-010
1.007654e-009
8.506419e-010
6.242959e-010
4.058754e-010
2.001482e-010
-1.794057e-011
-2.457340e-010
-4.444939e-010
-5.769053e-010
-6.399932e-010
-6.598050e-010
-6.618314e-010
-6.523633e-010
-6.257451e-010
-5.822903e-010
-5.348724e-010
-4.993761e-010
-4.820257e-010
-4.773831e-010
-4.778694e-010
-4.836367e-010
-5.018057e-010
-5.355557e-010
-5.753720e-010
-6.041225e-010
-6.126197e-010
-6.077436e-010
-6.002208e-010
-5.832640e-010
-5.295610e-010
-4.174120e-010
-2.597597e-010
-9.749749e-011
4.429204e-011
1.881723e-010
3.768964e-010
6.057230e-010
7.930942e-010
8.398818e-010
7.260217e-010
5.335160e-010
3.533758e-010
1.720774e-010
-1.196571e-010
-5.751451e-010
-1.051451e-009
-1.258970e-009
-9.954500e-010
-3.480892e-010
3.511703e-010
7.922904e-010
9.151232e-010
8.692161e-010
7.612481e-010
4.878577e-010
-1.248304e-010
-9.941381e-010
-1.638485e-009
-1.465569e-009
-3.150957e-010
1.233732e-009
2.150804e-009
1.700973e-009
7.162890e-011
-1.662525e-009
-2.276974e-009
-1.304305e-009
5.874333e-010
2.055826e-009
1.951370e-009
5.053971e-010
-1.215386e-009
-1.893991e-009
-1.084557e-009
4.843725e-010
1.532263e-009
1.259147e-009
-4.188862e-011
-1.269359e-009
-1.433367e-009
-4.361839e-010
9.150306e-010
1.618863e-009
1.265664e-009
2.447569e-010
-7.158987e-010
-1.177121e-009
-1.210293e-009
-1.104132e-009
-9.517922e-010
-5.668069e-010
2.254107e-010
1.278238e-009
2.147746e-009
2.428039e-009
2.055598e-009
1.297196e-009
4.745184e-010
-2.769155e-010
-1.001870e-009
-1.741803e-009
-2.405762e-009
-2.825551e-009
-2.907613e-009
-2.706484e-009
-2.355215e-009
-1.946112e-009
-1.487548e-009
-9.591144e-010
-3.821050e-010
1.748667e-010
6.492196e-010
1.028646e-009
1.340553e-009
1.607661e-009
1.822811e-009
1.965702e-009
2.034524e-009
2.052520e-009
2.042682e-009
2.002011e-009
1.906873e-009
1.743856e-009
1.528779e-009
1.288287e-009
1.023660e-009
7.030941e-010
3.000039e-010
-1.625266e-010
-6.183252e-010
-1.018664e-009
-1.379122e-009
-1.747457e-009
-2.116124e-009
-2.381897e-009
-2.418558e-009
-2.198687e-009
-1.824764e-009
-1.416236e-009
-9.702726e-010
-3.696705e-010
4.398583e-010
1.288603e-009
1.842586e-009
1.864940e-009
1.423946e-009
8.210369e-010
3.025011e-010
-1.369709e-010
-6.380750e-010
-1.175842e-009
-1.434843e-009
-1.061133e-009
-7.898733e-011
9.687929e-010
1.373913e-009
8.445811e-010
-2.086153e-010
-9.723519e-010
-8.823585e-010
-7.312814e-011
7.531578e-010
9.149395e-010
2.972768e-010
-5.819254e-010
-1.009638e-009
-6.456457e-010
2.250737e-010
9.293065e-010
-1.184180e-009
-6.103415e-010
2.536294e-010
1.019493e-009
1.352878e-009
1.069558e-009
1.953068e-010
-9.764141e-010
-1.897262e-009
-1.969980e-009
-9.320515e-010
8.385683e-010
2.415862e-009
2.867436e-009
1.887481e-009
1.567609e-011
-1.752190e-009
-2.641846e-009
-2.513969e-009
-1.735367e-009
-7.343682e-010
2.967466e-010
1.326122e-009
2.230057e-009
2.716182e-009
2.529318e-009
1.705979e-009
5.866961e-010
-4.360194e-010
-1.178627e-009
-1.694044e-009
-2.086477e-009
-2.342993e-009
-2.352755e-009
-2.057173e-009
-1.542652e-009
-9.776047e-010
-4.771319e-010
-4.344036e-011
3.730982e-010
7.811163e-010
1.128714e-009
1.363591e-009
1.491232e-009
1.565384e-009
1.630371e-009
1.685385e-009
1.706276e-009
1.690534e-009
1.668458e-009
1.668907e-009
1.684003e-009
1.677843e-009
1.629783e-009
1.558429e-009
1.493122e-009
1.424754e-009
1.299538e-009
1.072964e-009
7.647286e-010
4.430950e-010
1.461548e-010
-1.683591e-010
-5.722778e-010
-1.059949e-009
-1.511398e-009
-1.786713e-009
-1.857668e-009
-1.820119e-009
-1.755468e-009
-1.594391e-009
-1.159073e-009
-3.686534e-010
6.083001e-010
1.438298e-009
1.875539e-009
1.919177e-009
1.710308e-009
1.301138e-009
5.875688e-010
-4.827847e-010
-1.649022e-009
-2.354798e-009
-2.117181e-009
-9.444438e-010
5.887968e-010
1.701713e-009
1.906803e-009
1.255667e-009
1.984309e-010
-7.465386e-010
-1.233506e-009
-1.144358e-009
-5.577968e-010
2.670426e-010
9.316707e-010
1.059440e-009
5.436933e-010
-3.154638e-010
-9.620075e-010
-3.288580e-009
-1.135528e-009
1.571283e-009
3.008056e-009
2.427418e-009
5.102353e-010
-1.356767e-009
-2.144364e-009
-1.726414e-009
-6.503426e-010
4.439102e-010
1.186096e-009
1.447336e-009
1.183896e-009
4.398664e-010
-5.248275e-010
-1.243982e-009
-1.313092e-009
-7.057843e-010
1.837384e-010
8.402420e-010
9.944825e-010
7.306419e-010
2.911298e-010
-1.677835e-010
-6.214316e-010
-1.040029e-009
-1.288553e-009
-1.204659e-009
-7.610201e-010
-1.144284e-010
5.195053e-010
1.027744e-009
1.430710e-009
1.775514e-009
2.033422e-009
2.116866e-009
1.980113e-009
1.677039e-009
1.312966e-009
9.538484e-010
5.951064e-010
2.120614e-010
-1.796706e-010
-5.252833e-010
-7.837133e-010
-9.633898e-010
-1.099632e-009
-1.205834e-009
-1.259217e-009
-1.235541e-009
-1.145698e-009
-1.025842e-009
-8.923935e-010
-7.200585e-010
-4.752157e-010
-1.668924e-010
1.502359e-010
4.314411e-010
6.906686e-010
9.762579e-010
1.293686e-009
1.568398e-009
1.704580e-009
1.680363e-009
1.564623e-009
1.425277e-009
1.234020e-009
8.913482e-010
3.592623e-010
-2.484760e-010
-7.342794e-010
-9.777302e-010
-1.009351e-009
-9.159615e-010
-7.021010e-010
-2.941072e-010
2.983318e-010
8.586212e-010
1.061699e-009
7.370845e-010
3.901728e-011
-6.542001e-010
-1.011508e-009
-9.289616e-010
-4.894970e-010
1.674163e-010
8.690636e-010
1.331806e-009
1.195734e-009
2.993544e-010
-1.007054e-009
-1.900522e-009
-1.624594e-009
-1.665216e-010
1.551954e-009
2.268206e-009
1.365185e-009
-5.640053e-010
-2.105080e-009
-2.916394e-009
-6.768204e-010
1.897179e-009
2.763286e-009
1.400578e-009
-8.878835e-010
-2.183066e-009
-1.555101e-009
2.906263e-010
1.761255e-009
1.745793e-009
4.067752e-010
-1.159074e-009
-1.913026e-009
-1.583944e-009
-5.985881e-010
4.760386e-010
1.340458e-009
1.917594e-009
2.099362e-009
1.689050e-009
6.203143e-010
-8.358893e-010
-2.156696e-009
-2.889522e-009
-2.902172e-009
-2.352613e-009
-1.473379e-009
-4.185366e-010
7.127629e-010
1.783923e-009
2.616179e-009
3.083551e-009
3.185978e-009
3.013415e-009
2.650117e-009
2.129721e-009
1.474848e-009
7.499906e-010
5.209730e-011
-5.489661e-010
-1.045646e-009
-1.464725e-009
-1.816295e-009
-2.081928e-009
-2.248770e-009
-2.338809e-009
-2.393635e-009
-2.434981e-009
-2.451550e-009
-2.426779e-009
-2.368638e-009
-2.300751e-009
-2.226071e-009
-2.112695e-009
-1.924704e-009
-1.661423e-009
-1.353490e-009
-1.017689e-009
-6.289731e-010
-1.516688e-010
4.034834e-010
9.691400e-010
1.476751e-009
1.910619e-009
2.288325e-009
2.587193e-009
2.713389e-009
2.566109e-009
2.128845e-009
1.476824e-009
6.920816e-010
-1.963706e-010
-1.151265e-009
-2.011461e-009
-2.492066e-009
-2.360798e-009
-1.635700e-009
-5.919589e-010
4.374598e-010
1.249840e-009
1.753422e-009
1.817435e-009
1.262703e-009
1.070885e-010
-1.186085e-009
-1.841713e-009
-1.338557e-009
5.059798e-011
1.319423e-009
1.476146e-009
3.916237e-010
-1.026342e-009
-1.559018e-009
-7.171352e-010
8.121833e-010
1.727979e-009
1.222383e-009
-3.188628e-010
-1.630137e-009
-6.026186e-010
2.835322e-010
1.052382e-009
7.421781e-010
-5.937770e-010
-1.826874e-009
-1.703843e-009
-5.569413e-012
2.120027e-009
3.006787e-009
1.823934e-009
-7.146691e-010
-2.894959e-009
-3.324367e-009
-1.907901e-009
2.735948e-010
1.932869e-009
2.468714e-009
2.092408e-009
1.308971e-009
4.118435e-010
-5.506593e-010
-1.482162e-009
-2.081026e-009
-2.033469e-009
-1.321139e-009
-2.815857e-010
6.452993e-010
1.215415e-009
1.446470e-009
1.455425e-009
1.292555e-009
9.376687e-010
4.055888e-010
-1.988128e-010
-7.394411e-010
-1.138960e-009
-1.397680e-009
-1.540745e-009
-1.572340e-009
-1.485522e-009
-1.296711e-009
-1.050751e-009
-7.917422e-010
-5.404868e-010
-3.039850e-010
-9.649516e-011
5.987988e-011
1.534629e-010
1.910483e-010
1.830548e-010
1.275181e-010
1.683292e-011
-1.422545e-010
-3.257214e-010
-5.133180e-010
-7.043186e-010
-9.027544e-010
-1.090149e-009
-1.226422e-009
-1.284260e-009
-1.272040e-009
-1.208516e-009
-1.078492e-009
-8.354287e-010
-4.627400e-010
-2.010506e-011
3.963429e-010
7.431057e-010
1.049773e-009
1.323197e-009
1.446494e-009
1.227914e-009
5.935369e-010
-2.770336e-010
-1.048305e-009
-1.481607e-009
-1.569154e-009
-1.400155e-009
-9.414709e-010
-5.538487e-011
1.191345e-009
2.278715e-009
2.445112e-009
1.311961e-009
-6.313876e-010
-2.223819e-009
-2.455325e-009
-1.246187e-009
4.976429e-010
1.602728e-009
1.498891e-009
5.332231e-010
-4.490621e-010
-8.138902e-010
-5.362319e-010
-4.744718e-011
2.230804e-010
1.816739e-010
4.328449e-011
1.832286e-009
8.759722e-010
-4.644164e-010
-1.488085e-009
-1.751156e-009
-1.193367e-009
-6.259259e-011
1.175088e-009
1.921229e-009
1.675504e-009
4.155209e-010
-1.190881e-009
-2.097243e-009
-1.630849e-009
-8.511587e-011
1.435457e-009
1.862743e-009
9.846661e-010
-4.744661e-010
-1.526352e-009
-1.676356e-009
-1.110852e-009
-2.921162e-010
5.079703e-010
1.275145e-009
1.983832e-009
2.407273e-009
2.254176e-009
1.457984e-009
2.762023e-010
-9.049549e-010
-1.839698e-009
-2.501465e-009
-2.949555e-009
-3.179986e-009
-3.122126e-009
-2.744399e-009
-2.120345e-009
-1.383309e-009
-6.363028e-010
8.344727e-011
7.690557e-010
1.399904e-009
1.939728e-009
2.364307e-009
2.677112e-009
2.898331e-009
3.046567e-009
3.131902e-009
3.158355e-009
3.126681e-009
3.037024e-009
2.893114e-009
2.701555e-009
2.461492e-009
2.156868e-009
1.768974e-009
1.302241e-009
7.898552e-010
2.627612e-010
-2.832710e-010
-8.712180e-010
-1.482556e-009
-2.027471e-009
-2.400657e-009
-2.571761e-009
-2.595417e-009
-2.508312e-009
-2.232364e-009
-1.629055e-009
-6.820310e-010
3.939024e-010
1.272035e-009
1.759334e-009
1.897423e-009
1.800107e-009
1.434150e-009
6.526756e-010
-4.999261e-010
-1.567042e-009
-1.891759e-009
-1.163742e-009
2.138641e-010
1.348495e-009
1.523708e-009
7.204995e-010
-4.434724e-010
-1.233782e-009
-1.278408e-009
-6.633869e-010
2.629242e-010
1.083786e-009
1.402421e-009
9.628582e-010
-1.256707e-010
-1.273489e-009
-1.685831e-009
-9.608581e-010
4.844377e-010
1.630902e-009
2.839150e-009
6.436393e-010
-1.818182e-009
-2.571468e-009
-1.252035e-009
7.889543e-010
1.839916e-009
1.268420e-009
-1.930131e-010
-1.318031e-009
-1.411524e-009
-6.100856e-010
5.229762e-010
1.472134e-009
1.888950e-009
1.520969e-009
3.048815e-010
-1.392897e-009
-2.770852e-009
-3.035907e-009
-1.982318e-009
-1.570453e-010
1.563873e-009
2.584892e-009
2.840335e-009
2.560199e-009
1.916020e-009
9.384296e-010
-2.934331e-010
-1.506165e-009
-2.345390e-009
-2.624147e-009
-2.427024e-009
-1.973311e-009
-1.411300e-009
-7.577325e-010
-8.308262e-013
7.917837e-010
1.487732e-009
1.990775e-009
2.302619e-009
2.487335e-009
2.595536e-009
2.633081e-009
2.590825e-009
2.484906e-009
2.360703e-009
2.263430e-009
2.210533e-009
2.190907e-009
2.186851e-009
2.196084e-009
2.232801e-009
2.305176e-009
2.391254e-009
2.443342e-009
2.424927e-009
2.342292e-009
2.227263e-009
2.080912e-009
1.846179e-009
1.458248e-009
9.273216e-010
3.503272e-010
-1.816038e-010
-6.780421e-010
-1.216526e-009
-1.795631e-009
-2.245846e-009
-2.332819e-009
-1.965314e-009
-1.273914e-009
-4.608825e-010
3.972901e-010
1.333488e-009
2.255124e-009
2.792577e-009
2.495599e-009
1.255467e-009
-4.719995e-010
-1.909206e-009
-2.463444e-009
-2.042201e-009
-9.633131e-010
3.233279e-010
1.382322e-009
1.796057e-009
1.281347e-009
-1.298355e-012
-1.288575e-009
-1.609660e-009
-6.017537e-010
9.944489e-010
1.802575e-009
1.001849e-009
-8.248174e-010
-2.086481e-009
-1.586791e-009
3.345246e-010
2.037228e-009
2.152208e-009
-9.419377e-011
-2.269247e-009
-2.171454e-009
1.743066e-010
2.581429e-009
2.783030e-009
5.065170e-010
-2.351782e-009
-3.473645e-009
-2.074621e-009
6.451831e-010
2.720198e-009
2.999768e-009
1.729078e-009
-5.906922e-011
-1.469031e-009
-2.132048e-009
-2.018461e-009
-1.202589e-009
9.053331e-011
1.365997e-009
2.017642e-009
1.729184e-009
7.163049e-010
-4.607698e-010
-1.324895e-009
-1.729744e-009
-1.753122e-009
-1.456219e-009
-8.135940e-010
1.519596e-010
1.253528e-009
2.215251e-009
2.857352e-009
3.182854e-009
3.289259e-009
3.230165e-009
2.982512e-009
2.527936e-009
1.927685e-009
1.300605e-009
7.390044e-010
2.605673e-010
-1.612743e-010
-5.364272e-010
-8.361543e-010
-1.024720e-009
-1.100583e-009
-1.099857e-009
-1.059655e-009
-9.813374e-010
-8.334522e-010
-5.927979e-010
-2.792670e-010
5.801323e-011
3.930021e-010
7.524761e-010
1.178300e-009
1.656533e-009
2.100185e-009
2.420555e-009
2.610875e-009
2.733492e-009
2.810156e-009
2.746642e-009
2.403510e-009
1.751587e-009
9.296497e-010
1.239644e-010
-5.883422e-010
-1.228907e-009
-1.743740e-009
-1.901775e-009
-1.452922e-009
-4.207297e-010
7.962916e-010
1.659671e-009
1.838243e-009
1.334314e-009
3.445866e-010
-8.732407e-010
-1.939572e-009
-2.291677e-009
-1.455990e-009
4.085132e-010
2.272153e-009
2.801610e-009
1.456276e-009
-8.707694e-010
-2.425921e-009
-2.035749e-009
-1.436746e-010
1.567508e-009
1.679945e-009
2.911068e-010
-1.157725e-009
-1.293926e-009
-1.036521e-010
1.126942e-009
5.736999e-010
-6.156528e-010
-1.510630e-009
-8.166178e-010
1.142198e-009
2.602102e-009
2.014494e-009
-3.992377e-010
-2.711213e-009
-2.966412e-009
-9.330398e-010
1.697241e-009
2.815246e-009
1.683864e-009
-5.877774e-010
-2.163346e-009
-2.018341e-009
-5.323027e-010
1.147709e-009
2.119686e-009
2.168604e-009
1.504625e-009
3.658548e-010
-1.042121e-009
-2.377345e-009
-3.158557e-009
-3.040803e-009
-2.075352e-009
-6.546662e-010
7.932932e-010
2.038193e-009
3.019642e-009
3.686994e-009
3.942442e-009
3.737566e-009
3.166850e-009
2.422815e-009
1.662784e-009
9.383085e-010
2.468173e-010
-3.819276e-010
-8.743873e-010
-1.179000e-009
-1.319144e-009
-1.369521e-009
-1.387718e-009
-1.379049e-009
-1.326007e-009
-1.238545e-009
-1.163277e-009
-1.141570e-009
-1.166108e-009
-1.187611e-009
-1.166353e-009
-1.109754e-009
-1.049755e-009
-9.840580e-010
-8.544232e-010
-5.977935e-010
-2.158949e-010
2.244784e-010
6.700561e-010
1.143529e-009
1.700995e-009
2.323923e-009
2.880918e-009
3.221073e-009
3.292116e-009
3.131302e-009
2.737412e-009
2.006372e-009
8.581980e-010
-5.643377e-010
-1.875076e-009
-2.668530e-009
-2.763060e-009
-2.214475e-009
-1.152073e-009
2.738067e-010
1.719975e-009
2.543693e-009
2.120542e-009
4.694412e-010
-1.453992e-009
-2.301675e-009
-1.413949e-009
5.301397e-010
1.992196e-009
1.842169e-009
2.890861e-010
-1.359279e-009
-1.850251e-009
-9.849782e-010
3.771448e-010
1.178599e-009
1.025553e-009
3.278281e-010
-2.520056e-010
-4.149855e-010
-3.481025e-010
-9.514071e-010
-4.967292e-010
1.720120e-010
7.373949e-010
9.322161e-010
6.167642e-010
-1.195121e-010
-8.638403e-010
-1.013707e-009
-2.462028e-010
1.012950e-009
1.701383e-009
9.593166e-010
-9.671352e-010
-2.697132e-009
-2.768952e-009
-8.966581e-010
1.737188e-009
3.432418e-009
3.274339e-009
1.642546e-009
-3.598211e-010
-1.833148e-009
-2.501898e-009
-2.476808e-009
-1.875294e-009
-7.653547e-010
6.401734e-010
1.920390e-009
2.666628e-009
2.748820e-009
2.337768e-009
1.692478e-009
9.687094e-010
2.226694e-010
-4.732994e-010
-9.891389e-010
-1.217820e-009
-1.160109e-009
-9.044574e-010
-5.349535e-010
-8.043138e-011
4.499567e-010
1.010012e-009
1.518521e-009
1.915720e-009
2.201471e-009
2.409597e-009
2.552756e-009
2.605099e-009
2.540310e-009
2.374145e-009
2.155863e-009
1.916900e-009
1.640577e-009
1.293854e-009
8.848058e-010
4.723900e-010
1.112598e-010
-1.997849e-010
-4.937434e-010
-7.593389e-010
-9.136945e-010
-8.722732e-010
-6.353992e-010
-2.752867e-010
1.669186e-010
7.299249e-010
1.433049e-009
2.135168e-009
2.550170e-009
2.447841e-009
1.827976e-009
8.676350e-010
-2.702590e-010
-1.480596e-009
-2.521903e-009
-2.881340e-009
-2.047633e-009
-8.070777e-011
2.112422e-009
3.249418e-009
2.619273e-009
6.728612e-010
-1.308495e-009
-2.176707e-009
-1.667853e-009
-3.864859e-010
7.804705e-010
1.228941e-009
8.426296e-010
-6.807481e-011
-9.156028e-010
-1.093593e-009
-3.795093e-010
7.723883e-010
1.445757e-009
9.926035e-010
-3.228921e-010
-1.452049e-009
-1.962929e-009
4.745443e-011
1.983144e-009
1.928029e-009
-2.829398e-011
-2.022265e-009
-2.282647e-009
-6.769095e-010
1.418903e-009
2.479799e-009
1.965889e-009
3.866586e-010
-1.332599e-009
-2.388372e-009
-2.289189e-009
-9.828513e-010
9.611829e-010
2.448000e-009
2.488033e-009
9.803775e-010
-1.106523e-009
-2.433903e-009
-2.278976e-009
-9.332242e-010
7.428854e-010
2.050739e-009
2.773641e-009
2.966499e-009
2.651013e-009
1.801710e-009
5.446250e-010
-7.694459e-010
-1.750747e-009
-2.209849e-009
-2.198748e-009
-1.855768e-009
-1.262926e-009
-4.551568e-010
4.889000e-010
1.422869e-009
2.207587e-009
2.785839e-009
3.172315e-009
3.389460e-009
3.437323e-009
3.324843e-009
3.105395e-009
2.860085e-009
2.646501e-009
2.476060e-009
2.343449e-009
2.263079e-009
2.260459e-009
2.329433e-009
2.415681e-009
2.455279e-009
2.422711e-009
2.325345e-009
2.151526e-009
1.848211e-009
1.372208e-009
7.566474e-010
9.891788e-011
-5.269046e-010
-1.117550e-009
-1.667882e-009
-2.062252e-009
-2.093887e-009
-1.635130e-009
-7.741533e-010
2.559053e-010
1.273447e-009
2.206182e-009
2.915345e-009
3.042977e-009
2.202785e-009
4.430314e-010
-1.510190e-009
-2.613259e-009
-2.249021e-009
-6.944421e-010
1.101658e-009
2.178506e-009
2.073201e-009
9.035008e-010
-7.789249e-010
-2.140474e-009
-2.332347e-009
-1.030927e-009
1.064551e-009
2.453821e-009
1.962264e-009
-9.605428e-011
-1.972559e-009
-1.988098e-009
-1.619726e-010
1.718939e-009
1.814000e-009
7.001921e-011
-1.713224e-009
-2.376326e-009
4.604573e-010
2.973673e-009
2.396060e-009
-8.024537e-010
-3.484560e-009
-3.058251e-009
3.738764e-011
2.949336e-009
3.239016e-009
9.950653e-010
-1.620301e-009
-2.543773e-009
-1.435340e-009
5.060022e-010
1.853184e-009
1.939082e-009
9.033477e-010
-7.188087e-010
-2.245524e-009
-2.937983e-009
-2.270691e-009
-3.527509e-010
1.969566e-009
3.604210e-009
3.934527e-009
3.124021e-009
1.791369e-009
4.711661e-010
-6.119600e-010
-1.380944e-009
-1.704440e-009
-1.437879e-009
-6.132083e-010
5.013273e-010
1.560292e-009
2.337565e-009
2.763437e-009
2.818556e-009
2.451380e-009
1.611954e-009
3.307723e-010
-1.269994e-009
-3.041462e-009
-4.864670e-009
-6.643665e-009
-8.270937e-009
-9.627612e-009
-1.062061e-008
-1.120536e-008
-1.136724e-008
-1.109591e-008
-1.039453e-008
-9.310802e-009
-7.938960e-009
-6.379996e-009
-4.710526e-009
-3.005150e-009
-1.380007e-009
1.754221e-011
1.082898e-009
1.804250e-009
2.213230e-009
2.291000e-009
1.965625e-009
1.235060e-009
2.723178e-010
-6.420330e-010
-1.306521e-009
-1.677474e-009
-1.732195e-009
-1.310708e-009
-2.168665e-010
1.444588e-009
3.076153e-009
3.856052e-009
3.301369e-009
1.615030e-009
-4.756466e-010
-2.159701e-009
-2.848524e-009
-2.267337e-009
-5.750014e-010
1.448021e-009
2.549335e-009
1.803963e-009
-4.209393e-010
-2.404977e-009
-2.380491e-009
-2.147716e-010
2.240613e-009
2.747087e-009
8.270722e-010
-1.704803e-009
-2.487773e-009
-9.411437e-010
1.214525e-009
1.792097e-009
4.023296e-010
-1.236511e-009
-2.077288e-009
4.149329e-010
2.547890e-009
1.914632e-009
-8.723881e-010
-2.880879e-009
-1.991301e-009
8.897056e-010
2.808953e-009
1.822347e-009
-1.071469e-009
-3.011039e-009
-2.113140e-009
8.214448e-010
3.247736e-009
3.263206e-009
1.065590e-009
-1.610481e-009
-3.114355e-009
-2.921372e-009
-1.490237e-009
4.126401e-010
2.109598e-009
3.043841e-009
2.852195e-009
1.614959e-009
-4.593455e-011
-1.293037e-009
-1.600386e-009
-9.982420e-010
1.370808e-010
1.443917e-009
2.706465e-009
3.726528e-009
4.206511e-009
3.830607e-009
2.439803e-009
8.592848e-011
-3.079834e-009
-6.933004e-009
-1.138252e-008
-1.629256e-008
-2.144416e-008
-2.658374e-008
-3.149059e-008
-3.598944e-008
-3.991929e-008
-4.311849e-008
-4.544613e-008
-4.680490e-008
-4.713817e-008
-4.642087e-008
-4.467189e-008
-4.197295e-008
-3.845763e-008
-3.427442e-008
-2.957390e-008
-2.454231e-008
-1.942864e-008
-1.450052e-008
-9.954471e-009
-5.885974e-009
-2.367061e-009
4.652913e-010
2.443844e-009
3.511752e-009
3.792869e-009
3.479855e-009
2.670903e-009
1.390821e-009
-1.840935e-010
-1.576452e-009
-2.190978e-009
-1.717601e-009
-3.634002e-010
1.296838e-009
2.639524e-009
3.158008e-009
2.492201e-009
6.124995e-010
-1.829164e-009
-3.489255e-009
-3.112219e-009
-6.895562e-010
2.159385e-009
3.293389e-009
1.881015e-009
-7.701736e-010
-2.339948e-009
-1.612030e-009
4.619812e-010
1.796134e-009
1.235019e-009
-4.340059e-010
-1.460512e-009
-9.692387e-010
2.802050e-010
8.942568e-010
3.959882e-010
-3.784533e-010
-8.830069e-010
6.549877e-011
8.266469e-010
5.238030e-010
-4.258260e-010
-7.670997e-010
1.106495e-010
1.318863e-009
1.304670e-009
-3.973285e-010
-2.394028e-009
-2.637390e-009
-5.058910e-010
2.380990e-009
3.552248e-009
1.964327e-009
-1.058019e-009
-3.070732e-009
-2.638848e-009
-3.375853e-010
2.058749e-009
3.126664e-009
2.614475e-009
1.135766e-009
-5.417875e-010
-1.845426e-009
-2.353751e-009
-1.788339e-009
-2.071815e-010
1.875234e-009
3.695997e-009
4.628989e-009
4.379983e-009
2.863203e-009
-1.270261e-011
-4.385033e-009
-1.030939e-008
-1.767024e-008
-2.624482e-008
-3.582268e-008
-4.623118e-008
-5.725787e-008
-6.858518e-008
-7.981570e-008
-9.054627e-008
-1.004087e-007
-1.090600e-007
-1.161698e-007
-1.214367e-007
-1.246185e-007
-1.255522e-007
-1.241665e-007
-1.204983e-007
-1.146983e-007
-1.070062e-007
-9.771543e-008
-8.717163e-008
-7.580152e-008
-6.410821e-008
-5.258739e-008
-4.162281e-008
-3.146943e-008
-2.233750e-008
-1.445531e-008
-8.003978e-009
-2.996539e-009
7.162240e-010
3.269388e-009
4.634170e-009
4.708149e-009
3.581570e-009
1.681115e-009
-3.750066e-010
-2.027860e-009
-2.859239e-009
-2.541641e-009
-9.654962e-010
1.392347e-009
3.325757e-009
3.495464e-009
1.534397e-009
-1.355781e-009
-3.125737e-009
-2.499296e-009
-6.481470e-011
2.218054e-009
2.671378e-009
1.205580e-009
-8.198494e-010
-1.878357e-009
-1.452534e-009
-1.848550e-010
8.642949e-010
1.052912e-009
4.696145e-010
-3.132003e-010
-7.124137e-010
-5.035642e-010
8.457588e-011
5.681290e-010
1.052886e-009
-2.140366e-010
-1.399759e-009
-1.276419e-009
9.570710e-011
1.532638e-009
1.866642e-009
8.701275e-010
-7.270887e-010
-1.856442e-009
-1.771003e-009
-4.615444e-010
1.246825e-009
2.081466e-009
1.215474e-009
-8.937169e-010
-2.602638e-009
-2.330602e-009
2.512636e-011
2.867792e-009
4.177950e-009
3.133715e-009
6.203508e-010
-1.672030e-009
-2.550298e-009