# vtk DataFile Version 3.0
vtk output
ASCII
DATASET STRUCTURED_POINTS
DIMENSIONS 100 100 1
SPACING 1 1 1
ORIGIN 0 0 0
POINT_DATA 10000
SCALARS SFBox_profile double
LOOKUP_TABLE default 
0.000000e+000
0.000000e+000
0.000000e+000
0.000000e+000
0.000000e+000
0.000000e+000
0.000000e+000
0.000000e+000
0.000000e+000
0.000000e+000
0.000000e+000
0.000000e+000
0.000000e+000
0.000000e+000
0.000000e+000
0.000000e+000
0.000000e+000
0.000000e+000
0.000000e+000
0.000000e+000
0.000000e+000
0.000000e+000
0.000000e+000
0.000000e+000
0.000000e+000
0.000000e+000
0.000000e+000
0.000000e+000
0.000000e+000
0.000000e+000
0.000000e+000
0.000000e+000
0.000000e+000
0.000000e+000
0.000000e+000
0.000000e+000
0.000000e+000
0.000000e+000
0.000000e+000
0.000000e+000
0.000000e+000
0.000000e+000
0.000000e+000
0.000000e+000
0.000000e+000
0.000000e+000
0.000000e+000
0.000000e+000
0.000000e+000
0.000000e+000
0.000000e+000
0.000000e+000
0.000000e+000
0.000000e+000
0.000000e+000
0.000000e+000
0.000000e+000
0.000000e+000
0.000000e+000
0.000000e+000
0.000000e+000
0.000000e+000
0.000000e+000
0.000000e+000
0.000000e+000
0.000000e+000
0.000000e+000
0.000000e+000
0.000000e+000
0.000000e+000
0.000000e+000
0.000000e+000
0.000000e+000
0.000000e+000
0.000000e+000
0.000000e+000
0.000000e+000
0.000000e+000
0.000000e+000
0.000000e+000
0.000000e+000
0.000000e+000
0.000000e+000
0.000000e+000
0.000000e+000
0.000000e+000
0.000000e+000
0.000000e+000
0.000000e+000
0.000000e+000
0.000000e+000
0.000000e+000
0.000000e+000
0.000000e+000
0.000000e+000
0.000000e+000
0.000000e+000
0.000000e+000
0.000000e+000
0.000000e+000
2.520568e-011
2.626524e-011
2.336409e-011
1.117948e-011
-1.008103e-011
-3.240843e-011
-4.360201e-011
-3.484480e-011
-7.137659e-012
2.821477e-011
5.601304e-011
6.657232e-011
6.195430e-011
5.488228e-011
6.124983e-011
9.145941e-011
1.463163e-010
2.195950e-010
3.045962e-010
3.995873e-010
5.085153e-010
6.372365e-010
7.886085e-010
9.599972e-010
1.144442e-009
1.334002e-009
1.522702e-009
1.707406e-009
1.886775e-009
2.059639e-009
2.224105e-009
2.377763e-009
2.518536e-009
2.645378e-009
2.758390e-009
2.858395e-009
2.946364e-009
3.023013e-009
3.088745e-009
3.143830e-009
3.188654e-009
3.223870e-009
3.250386e-009
3.269213e-009
3.281271e-009
3.287231e-009
3.287454e-009
3.282033e-009
3.270901e-009
3.253941e-009
3.231053e-009
3.202130e-009
3.166977e-009
3.125188e-009
3.076050e-009
3.018519e-009
2.951254e-009
2.872733e-009
2.781402e-009
2.675847e-009
2.554989e-009
2.418286e-009
2.265897e-009
2.098799e-009
1.918797e-009
1.728471e-009
1.531075e-009
1.330452e-009
1.130990e-009
9.375709e-010
7.554446e-010
5.899231e-010
4.458106e-010
3.265942e-010
2.335964e-010
1.654540e-010
1.183221e-010
8.691920e-011
6.606371e-011
5.191332e-011
4.218034e-011
3.525922e-011
2.909359e-011
2.098972e-011
8.926886e-012
-6.445845e-012
-2.094786e-011
-2.850592e-011
-2.483576e-011
-1.081825e-011
7.064583e-012
2.000314e-011
2.192328e-011
1.298120e-011
-8.114842e-013
-1.145797e-011
-1.367790e-011
-7.546884e-012
2.169726e-012
9.153818e-012
-4.772208e-011
-3.210912e-011
-9.117518e-012
9.468726e-012
1.504681e-011
7.105193e-012
-6.618966e-012
-1.487260e-011
-9.620701e-012
9.535415e-012
3.613622e-011
6.227133e-011
8.484717e-011
1.083663e-010
1.424332e-010
1.959835e-010
2.724441e-010
3.690138e-010
4.799992e-010
6.012400e-010
7.322968e-010
8.752084e-010
1.031327e-009
1.198892e-009
1.372978e-009
1.547465e-009
1.717285e-009
1.879453e-009
2.032560e-009
2.175561e-009
2.306935e-009
2.424727e-009
2.527204e-009
2.613532e-009
2.683993e-009
2.739704e-009
2.782124e-009
2.812633e-009
2.832378e-009
2.842316e-009
2.843347e-009
2.836414e-009
2.822527e-009
2.802737e-009
2.778101e-009
2.749681e-009
2.718567e-009
2.685910e-009
2.652948e-009
2.620978e-009
2.591273e-009
2.564953e-009
2.542803e-009
2.525085e-009
2.511358e-009
2.500346e-009
2.489880e-009
2.476935e-009
2.457788e-009
2.428296e-009
2.384300e-009
2.322093e-009
2.238896e-009
2.133245e-009
2.005240e-009
1.856601e-009
1.690574e-009
1.511689e-009
1.325435e-009
1.137876e-009
9.552022e-010
7.832416e-010
6.269229e-010
4.897523e-010
3.734209e-010
2.777410e-010
2.010357e-010
1.409201e-010
9.512225e-011
6.186643e-011
3.957131e-011
2.613504e-011
1.853763e-011
1.336901e-011
8.154771e-012
2.491429e-012
-2.109251e-012
-3.837853e-012
-2.506063e-012
-7.788824e-014
8.280301e-013
-7.310407e-013
-3.025413e-012
-3.156331e-012
9.196374e-014
4.683193e-012
6.732988e-012
3.897105e-012
-2.267043e-012
-7.257035e-012
-1.127097e-010
-8.724519e-011
-4.427624e-011
2.429793e-012
3.773422e-011
5.108081e-011
4.161124e-011
1.936970e-011
1.056919e-012
2.112020e-012
2.967984e-011
8.082933e-011
1.469904e-010
2.212774e-010
3.035140e-010
3.997266e-010
5.170821e-010
6.583585e-010
8.197975e-010
9.931792e-010
1.169813e-009
1.343284e-009
1.509451e-009
1.664584e-009
1.803726e-009
1.920623e-009
2.009041e-009
2.064249e-009
2.083628e-009
2.066292e-009
2.012348e-009
1.922480e-009
1.798068e-009
1.641539e-009
1.456548e-009
1.247790e-009
1.020539e-009
7.801616e-010
5.317709e-010
2.800710e-010
2.933509e-011
-2.165396e-010
-4.539165e-010
-6.792518e-010
-8.888846e-010
-1.078835e-009
-1.244670e-009
-1.381485e-009
-1.484034e-009
-1.546983e-009
-1.565286e-009
-1.534614e-009
-1.451844e-009
-1.315551e-009
-1.126510e-009
-8.881508e-010
-6.068868e-010
-2.922352e-010
4.338875e-011
3.852540e-010
7.172775e-010
1.023276e-009
1.288361e-009
1.500277e-009
1.650520e-009
1.735062e-009
1.754598e-009
1.714272e-009
1.622909e-009
1.491860e-009
1.333616e-009
1.160415e-009
9.830532e-010
8.101279e-010
6.478509e-010
5.004116e-010
3.706775e-010
2.608110e-010
1.723842e-010
1.058781e-010
5.995163e-011
3.124297e-011
1.522441e-011
7.833507e-012
6.702207e-012
1.080068e-011
1.848777e-011
2.564917e-011
2.619443e-011
1.563681e-011
-4.427217e-012
-2.495993e-011
-3.381954e-011
-2.398445e-011
1.352577e-013
2.392163e-011
3.176511e-011
1.820835e-011
-7.450353e-012
-2.723036e-011
-7.968033e-011
-6.964841e-011
-4.719398e-011
-1.234870e-011
2.772485e-011
5.965996e-011
7.155559e-011
6.247274e-011
4.633593e-011
4.626720e-011
8.245364e-011
1.617741e-010
2.763575e-010
4.116450e-010
5.575586e-010
7.144848e-010
8.901962e-010
1.090771e-009
1.312519e-009
1.540209e-009
1.751681e-009
1.924529e-009
2.040251e-009
2.084272e-009
2.043689e-009
1.905693e-009
1.658228e-009
1.292241e-009
8.037677e-010
1.945831e-010
-5.285762e-010
-1.355362e-009
-2.272929e-009
-3.266551e-009
-4.319990e-009
-5.415942e-009
-6.536661e-009
-7.664654e-009
-8.783253e-009
-9.876961e-009
-1.093152e-008
-1.193379e-008
-1.287137e-008
-1.373217e-008
-1.450391e-008
-1.517369e-008
-1.572777e-008
-1.615154e-008
-1.642981e-008
-1.654741e-008
-1.649003e-008
-1.624540e-008
-1.580452e-008
-1.516315e-008
-1.432325e-008
-1.329435e-008
-1.209452e-008
-1.075095e-008
-9.299639e-009
-7.784169e-009
-6.253537e-009
-4.759095e-009
-3.350929e-009
-2.074051e-009
-9.648568e-010
-4.830675e-011
6.637852e-010
1.173085e-009
1.493610e-009
1.649284e-009
1.670505e-009
1.590314e-009
1.440777e-009
1.250258e-009
1.041975e-009
8.338882e-010
6.394223e-010
4.682605e-010
3.265440e-010
2.164779e-010
1.361066e-010
8.025385e-011
4.288491e-011
1.978564e-011
9.584983e-012
1.190206e-011
2.366352e-011
3.677712e-011
4.021177e-011
2.640980e-011
-2.140182e-012
-3.190762e-011
-4.550348e-011
-3.338227e-011
-1.844158e-012
2.948485e-011
4.023660e-011
2.354187e-011
-8.604985e-012
-3.342140e-011
6.531185e-011
3.425432e-011
-6.713229e-012
-2.942806e-011
-1.721545e-011
2.504708e-011
7.629950e-011
1.162091e-010
1.414921e-010
1.699830e-010
2.298000e-010
3.418326e-010
5.082451e-010
7.144249e-010
9.411576e-010
1.176356e-009
1.416987e-009
1.660281e-009
1.891575e-009
2.077916e-009
2.171304e-009
2.118254e-009
1.868967e-009
1.381601e-009
6.219559e-010
-4.378961e-010
-1.818981e-009
-3.532514e-009
-5.576748e-009
-7.935803e-009
-1.058115e-008
-1.347485e-008
-1.657295e-008
-1.982823e-008
-2.319201e-008
-2.661550e-008
-3.005101e-008
-3.345303e-008
-3.677900e-008
-3.998977e-008
-4.304941e-008
-4.592460e-008
-4.858373e-008
-5.099581e-008
-5.312943e-008
-5.495193e-008
-5.642889e-008
-5.752411e-008
-5.820000e-008
-5.841877e-008
-5.814425e-008
-5.734449e-008
-5.599503e-008
-5.408266e-008
-5.160923e-008
-4.859529e-008
-4.508291e-008
-4.113735e-008
-3.684688e-008
-3.232055e-008
-2.768365e-008
-2.307094e-008
-1.861822e-008
-1.445289e-008
-1.068468e-008
-7.397509e-009
-4.643710e-009
-2.441346e-009
-7.750854e-010
3.994480e-010
1.148483e-009
1.551174e-009
1.690388e-009
1.644658e-009
1.482490e-009
1.259451e-009
1.017635e-009
7.865113e-010
5.841480e-010
4.185116e-010
2.893324e-010
1.911660e-010
1.174218e-010
6.382523e-011
2.934382e-011
1.387217e-011
1.436460e-011
2.276244e-011
2.816529e-011
2.249481e-011
5.698021e-012
-1.382115e-011
-2.465613e-011
-2.033498e-011
-4.112722e-012
1.300337e-011
1.973918e-011
1.226534e-011
-3.329982e-012
-1.551555e-011
2.318714e-010
1.610801e-010
5.544612e-011
-3.208163e-011
-5.901650e-011
-1.387413e-011
8.203916e-011
1.923710e-010
2.915485e-010
3.818676e-010
4.909575e-010
6.522599e-010
8.825843e-010
1.171476e-009
1.486908e-009
1.789085e-009
2.039161e-009
2.195616e-009
2.202174e-009
1.978018e-009
1.418730e-009
4.080901e-010
-1.166141e-009
-3.399990e-009
-6.367427e-009
-1.011865e-008
-1.467871e-008
-2.004495e-008
-2.618457e-008
-3.303497e-008
-4.050789e-008
-4.849646e-008
-5.688291e-008
-6.554524e-008
-7.436201e-008
-8.321576e-008
-9.199526e-008
-1.005973e-007
-1.089275e-007
-1.169003e-007
-1.244385e-007
-1.314704e-007
-1.379284e-007
-1.437458e-007
-1.488548e-007
-1.531839e-007
-1.566573e-007
-1.591943e-007
-1.607102e-007
-1.611181e-007
-1.603332e-007
-1.582785e-007
-1.548918e-007
-1.501345e-007
-1.440006e-007
-1.365258e-007
-1.277943e-007
-1.179436e-007
-1.071659e-007
-9.570441e-008
-8.384505e-008
-7.190261e-008
-6.020281e-008
-4.906112e-008
-3.876082e-008
-2.953264e-008
-2.153888e-008
-1.486389e-008
-9.512603e-009
-5.417079e-009
-2.450219e-009
-4.443780e-010
7.880212e-010
1.435003e-009
1.669306e-009
1.637912e-009
1.456977e-009
1.211217e-009
9.564241e-010
7.240786e-010
5.274149e-010
3.682591e-010
2.433949e-010
1.488734e-010
8.137860e-011
3.738870e-011
1.217737e-011
3.232163e-013
-2.584226e-012
9.496520e-013
8.966622e-012
1.762975e-011
2.084928e-011
1.372784e-011
-2.474797e-012
-1.892747e-011
-2.435379e-011
-1.376784e-011
6.428160e-012
2.218155e-011
2.825600e-010
2.125782e-010
1.030512e-010
3.574231e-012
-3.685046e-011
9.207383e-012
1.361708e-010
3.118672e-010
4.999756e-010
6.848873e-010
8.816385e-010
1.122671e-009
1.429161e-009
1.785042e-009
2.128195e-009
2.359096e-009
2.354496e-009
1.972838e-009
1.048455e-009
-6.166054e-010
-3.251055e-009
-7.097909e-009
-1.238810e-008
-1.931437e-008
-2.801308e-008
-3.855529e-008
-5.094405e-008
-6.511454e-008
-8.093696e-008
-9.822326e-008
-1.167389e-007
-1.362180e-007
-1.563797e-007
-1.769418e-007
-1.976314e-007
-2.181919e-007
-2.383872e-007
-2.580039e-007
-2.768517e-007
-2.947617e-007
-3.115834e-007
-3.271796e-007
-3.414209e-007
-3.541795e-007
-3.653234e-007
-3.747122e-007
-3.821935e-007
-3.876022e-007
-3.907616e-007
-3.914877e-007
-3.895971e-007
-3.849183e-007
-3.773065e-007
-3.666614e-007
-3.529466e-007
-3.362088e-007
-3.165947e-007
-2.943637e-007
-2.698935e-007
-2.436777e-007
-2.163118e-007
-1.884695e-007
-1.608667e-007
-1.342188e-007
-1.091919e-007
-8.635620e-008
-6.614586e-008
-4.883102e-008
-3.450676e-008
-2.309992e-008
-1.439283e-008
-8.059715e-009
-3.709988e-009
-9.315970e-010
6.712362e-010
1.449870e-009
1.694226e-009
1.626434e-009
1.403481e-009
1.126528e-009
8.541300e-010
6.160315e-010
4.242964e-010
2.799686e-010
1.762303e-010
1.012824e-010
4.362304e-011
-1.381911e-012
-2.868580e-011
-2.905370e-011
-1.027789e-012
4.003524e-011
6.604803e-011
5.417710e-011
6.185168e-012
-4.819964e-011
-7.056399e-011
-4.315881e-011
1.524599e-011
6.174892e-011
1.387535e-010
1.325184e-010
1.169114e-010
9.713728e-011
9.628742e-011
1.497072e-010
2.851913e-010
5.048484e-010
7.851275e-010
1.095955e-009
1.421670e-009
1.762182e-009
2.107013e-009
2.395665e-009
2.487260e-009
2.153547e-009
1.091145e-009
-1.062249e-009
-4.718713e-009
-1.033520e-008
-1.840045e-008
-2.940393e-008
-4.378898e-008
-6.190265e-008
-8.395646e-008
-1.100055e-007
-1.399452e-007
-1.735212e-007
-2.103475e-007
-2.499321e-007
-2.917072e-007
-3.350629e-007
-3.793797e-007
-4.240559e-007
-4.685277e-007
-5.122816e-007
-5.548603e-007
-5.958639e-007
-6.349467e-007
-6.718106e-007
-7.061965e-007
-7.378723e-007
-7.666204e-007
-7.922248e-007
-8.144590e-007
-8.330759e-007
-8.478014e-007
-8.583313e-007
-8.643331e-007
-8.654541e-007
-8.613343e-007
-8.516273e-007
-8.360264e-007
-8.142973e-007
-7.863147e-007
-7.521000e-007
-7.118576e-007
-6.660051e-007
-6.151936e-007
-5.603136e-007
-5.024824e-007
-4.430086e-007
-3.833344e-007
-3.249548e-007
-2.693218e-007
-2.177425e-007
-1.712827e-007
-1.306922e-007
-9.635967e-008
-6.830769e-008
-4.622591e-008
-2.953703e-008
-1.748349e-008
-9.220360e-009
-3.901051e-009
-7.457086e-010
9.127752e-010
1.606172e-009
1.729375e-009
1.555277e-009
1.259503e-009
9.472878e-010
6.755381e-010
4.669290e-010
3.184385e-010
2.104508e-010
1.205849e-010
3.910878e-011
-2.382549e-011
-4.718281e-011
-2.070540e-011
3.732206e-011
8.400449e-011
7.964780e-011
1.981349e-011
-5.626980e-011
-9.256662e-011
-6.016432e-011
1.744509e-011
8.072614e-011
-1.407335e-010
-3.738015e-011
1.156146e-010
2.521115e-010
3.443196e-010
4.244301e-010
5.616922e-010
8.138101e-010
1.189127e-009
1.643116e-009
2.100876e-009
2.473903e-009
2.643624e-009
2.411442e-009
1.441394e-009
-7.739388e-010
-4.911539e-009
-1.178940e-008
-2.232809e-008
-3.750935e-008
-5.832459e-008
-8.570356e-008
-1.204244e-007
-1.630218e-007
-2.137156e-007
-2.723768e-007
-3.385348e-007
-4.114164e-007
-4.900071e-007
-5.731227e-007
-6.594844e-007
-7.477907e-007
-8.367799e-007
-9.252796e-007
-1.012238e-006
-1.096743e-006
-1.178020e-006
-1.255430e-006
-1.328447e-006
-1.396646e-006
-1.459673e-006
-1.517221e-006
-1.569006e-006
-1.614742e-006
-1.654117e-006
-1.686778e-006
-1.712316e-006
-1.730259e-006
-1.740078e-006
-1.741191e-006
-1.732989e-006
-1.714856e-006
-1.686218e-006
-1.646581e-006
-1.595597e-006
-1.533124e-006
-1.459290e-006
-1.374567e-006
-1.279819e-006
-1.176352e-006
-1.065925e-006
-9.507359e-007
-8.333508e-007
-7.165890e-007
-6.033560e-007
-4.964398e-007
-3.982966e-007
-3.108531e-007
-2.353598e-007
-1.723199e-007
-1.215061e-007
-8.206040e-008
-5.265523e-008
-3.168524e-008
-1.745634e-008
-8.346141e-009
-2.919531e-009
5.675047e-012
1.339770e-009
1.739366e-009
1.649311e-009
1.353091e-009
1.018335e-009
7.303247e-010
5.150555e-010
3.594776e-010
2.351162e-010
1.226549e-010
2.650428e-011
-3.081348e-011
-3.192000e-011
1.246634e-011
6.206789e-011
7.263268e-011
3.017390e-011
-3.559157e-011
-7.337262e-011
-5.239814e-011
1.063914e-011
6.410241e-011
-3.678095e-010
-1.641872e-010
1.511527e-010
4.543294e-010
6.694763e-010
8.154567e-010
9.882626e-010
1.291122e-009
1.757410e-009
2.309887e-009
2.764908e-009
2.850358e-009
2.193574e-009
2.603845e-010
-3.732779e-009
-1.088775e-008
-2.263754e-008
-4.069568e-008
-6.695798e-008
-1.033752e-007
-1.518036e-007
-2.138354e-007
-2.906187e-007
-3.826958e-007
-4.898970e-007
-6.113169e-007
-7.453787e-007
-8.899687e-007
-1.042610e-006
-1.200646e-006
-1.361409e-006
-1.522366e-006
-1.681219e-006
-1.835982e-006
-1.985010e-006
-2.127003e-006
-2.260978e-006
-2.386233e-006
-2.502287e-006
-2.608831e-006
-2.705663e-006
-2.792648e-006
-2.869663e-006
-2.936561e-006
-2.993145e-006
-3.039137e-006
-3.074162e-006
-3.097741e-006
-3.109289e-006
-3.108116e-006
-3.093440e-006
-3.064411e-006
-3.020136e-006
-2.959725e-006
-2.882346e-006
-2.787298e-006
-2.674112e-006
-2.542667e-006
-2.393329e-006
-2.227102e-006
-2.045774e-006
-1.852026e-006
-1.649463e-006
-1.442550e-006
-1.236396e-006
-1.036425e-006
-8.479269e-007
-6.755773e-007
-5.229955e-007
-3.924248e-007
-2.845991e-007
-1.988155e-007
-1.331879e-007
-8.501673e-008
-5.119474e-008
-2.857817e-008
-1.427216e-008
-5.810553e-009
-1.233037e-009
9.213079e-010
1.676328e-009
1.707647e-009
1.432909e-009
1.087691e-009
7.830070e-010
5.493523e-010
3.741571e-010
2.343228e-010
1.185432e-010
3.267969e-011
-1.146741e-011
-1.316322e-011
9.560091e-012
2.900918e-011
2.669328e-011
5.701110e-012
-1.460747e-011
-1.718888e-011
-2.603852e-012
1.264295e-011
-3.207853e-010
-9.091179e-011
2.851632e-010
6.870344e-010
1.026823e-009
1.300469e-009
1.584734e-009
1.971162e-009
2.465284e-009
2.898146e-009
2.879425e-009
1.778964e-009
-1.307069e-009
-7.638855e-009
-1.895216e-008
-3.755698e-008
-6.634879e-008
-1.086943e-007
-1.681956e-007
-2.483630e-007
-3.522351e-007
-4.819871e-007
-6.385771e-007
-8.214972e-007
-1.028688e-006
-1.256654e-006
-1.500760e-006
-1.755651e-006
-2.015711e-006
-2.275492e-006
-2.530048e-006
-2.775164e-006
-3.007479e-006
-3.224524e-006
-3.424682e-006
-3.607097e-006
-3.771549e-006
-3.918309e-006
-4.047991e-006
-4.161410e-006
-4.259471e-006
-4.343077e-006
-4.413072e-006
-4.470202e-006
-4.515098e-006
-4.548274e-006
-4.570117e-006
-4.580889e-006
-4.580709e-006
-4.569531e-006
-4.547105e-006
-4.512926e-006
-4.466168e-006
-4.405624e-006
-4.329650e-006
-4.236155e-006
-4.122647e-006
-3.986380e-006
-3.824622e-006
-3.635052e-006
-3.416277e-006
-3.168397e-006
-2.893530e-006
-2.596154e-006
-2.283158e-006
-1.963501e-006
-1.647473e-006
-1.345635e-006
-1.067625e-006
-8.210536e-007
-6.107313e-007
-4.383681e-007
-3.027828e-007
-2.005143e-007
-1.266511e-007
-7.567715e-008
-4.217955e-008
-2.133736e-008
-9.180744e-009
-2.657554e-009
4.343840e-010
1.588870e-009
1.757105e-009
1.503805e-009
1.135870e-009
7.984486e-010
5.412666e-010
3.622772e-010
2.368312e-010
1.386032e-010
5.397849e-011
-1.283702e-011
-4.681639e-011
-3.814627e-011
3.450045e-012
4.832383e-011
6.364540e-011
3.633850e-011
-1.598648e-011
-5.663031e-011
1.306966e-010
2.793097e-010
5.651492e-010
9.574945e-010
1.409351e-009
1.879762e-009
2.350369e-009
2.793025e-009
3.067674e-009
2.774704e-009
1.109321e-009
-3.256420e-009
-1.228078e-008
-2.868007e-008
-5.607139e-008
-9.906183e-008
-1.631780e-007
-2.545477e-007
-3.793104e-007
-5.428091e-007
-7.486816e-007
-9.980133e-007
-1.288729e-006
-1.615382e-006
-1.969426e-006
-2.339959e-006
-2.714786e-006
-3.081615e-006
-3.429147e-006
-3.747905e-006
-4.030730e-006
-4.272946e-006
-4.472270e-006
-4.628553e-006
-4.743416e-006
-4.819848e-006
-4.861795e-006
-4.873770e-006
-4.860502e-006
-4.826663e-006
-4.776676e-006
-4.714615e-006
-4.644196e-006
-4.568820e-006
-4.491670e-006
-4.415806e-006
-4.344247e-006
-4.280009e-006
-4.226084e-006
-4.185341e-006
-4.160336e-006
-4.153033e-006
-4.164438e-006
-4.194159e-006
-4.239938e-006
-4.297221e-006
-4.358847e-006
-4.414986e-006
-4.453447e-006
-4.460441e-006
-4.421859e-006
-4.324984e-006
-4.160446e-006
-3.924103e-006
-3.618446e-006
-3.253143e-006
-2.844421e-006
-2.413271e-006
-1.982700e-006
-1.574583e-006
-1.206793e-006
-8.912505e-007
-6.332445e-007
-4.320093e-007
-2.822048e-007
-1.757691e-007
-1.036628e-007
-5.719788e-008
-2.885300e-008
-1.262586e-008
-4.050664e-009
-1.431357e-011
1.518460e-009
1.795302e-009
1.534793e-009
1.126602e-009
7.636554e-010
5.155887e-010
3.696658e-010
2.687336e-010
1.585810e-010
2.954891e-011
-7.617460e-011
-1.023739e-010
-3.497351e-011
7.235234e-011
1.316202e-010
9.020303e-011
-2.281563e-011
-1.175972e-010
9.489646e-010
9.352953e-010
1.017018e-009
1.317918e-009
1.868256e-009
2.563925e-009
3.194015e-009
3.453007e-009
2.843485e-009
4.450670e-010
-5.392809e-009
-1.735270e-008
-3.940221e-008
-7.699394e-008
-1.371870e-007
-2.285860e-007
-3.609175e-007
-5.440741e-007
-7.865688e-007
-1.093556e-006
-1.464794e-006
-1.893072e-006
-2.363606e-006
-2.854722e-006
-3.339797e-006
-3.790115e-006
-4.178037e-006
-4.479870e-006
-4.677937e-006
-4.761615e-006
-4.727387e-006
-4.578122e-006
-4.321904e-006
-3.970692e-006
-3.539008e-006
-3.042756e-006
-2.498230e-006
-1.921313e-006
-1.326883e-006
-7.284468e-007
-1.379941e-007
4.339235e-007
9.779369e-007
1.485476e-006
1.948332e-006
2.358237e-006
2.706527e-006
2.983945e-006
3.180630e-006
3.286322e-006
3.290823e-006
3.184722e-006
2.960403e-006
2.613311e-006
2.143429e-006
1.556847e-006
8.672314e-007
9.692324e-008
-7.226700e-007
-1.551756e-006
-2.344201e-006
-3.051080e-006
-3.625566e-006
-4.028671e-006
-4.234924e-006
-4.236840e-006
-4.046976e-006
-3.696745e-006
-3.231852e-006
-2.705096e-006
-2.168148e-006
-1.664234e-006
-1.223396e-006
-8.611110e-007
-5.799457e-007
-3.731188e-007
-2.285868e-007
-1.325734e-007
-7.201387e-008
-3.588217e-008
-1.564621e-008
-5.169540e-009
-3.268978e-010
1.481161e-009
1.799149e-009
1.503434e-009
1.069837e-009
7.249513e-010
5.227206e-010
4.049153e-010
2.809316e-010
1.111060e-010
-5.739563e-011
-1.336334e-010
-7.279559e-011
6.742064e-011
1.623813e-010
1.240877e-010
-1.947823e-011
-1.458682e-010
1.946577e-009
1.773890e-009
1.654267e-009
1.859454e-009
2.480276e-009
3.299814e-009
3.797414e-009
3.168259e-009
1.921319e-010
-7.133141e-009
-2.213751e-008
-5.005827e-008
-9.851087e-008
-1.777445e-007
-3.005523e-007
-4.815954e-007
-7.357898e-007
-1.075457e-006
-1.506277e-006
-2.022687e-006
-2.603946e-006
-3.212355e-006
-3.794749e-006
-4.287442e-006
-4.623754e-006
-4.742449e-006
-4.595232e-006
-4.151854e-006
-3.402143e-006
-2.355099e-006
-1.035801e-006
5.188534e-007
2.264632e-006
4.154024e-006
6.139531e-006
8.176090e-006
1.022270e-005
1.224338e-005
1.420748e-005
1.608959e-005
1.786900e-005
1.952882e-005
2.105491e-005
2.243466e-005
2.365583e-005
2.470544e-005
2.556898e-005
2.622975e-005
2.666873e-005
2.686466e-005
2.679461e-005
2.643510e-005
2.576363e-005
2.476092e-005
2.341374e-005
2.171845e-005
1.968496e-005
1.734083e-005
1.473493e-005
1.193985e-005
9.051834e-006
6.187325e-006
3.475232e-006
1.044871e-006
-9.892505e-007
-2.543370e-006
-3.577712e-006
-4.103484e-006
-4.181065e-006
-3.908927e-006
-3.405531e-006
-2.788754e-006
-2.158142e-006
-1.584135e-006
-1.105690e-006
-7.348535e-007
-4.650319e-007
-2.796574e-007
-1.590416e-007
-8.469379e-008
-4.139643e-008
-1.774074e-008
-5.802234e-009
-4.409637e-010
1.476614e-009
1.766200e-009
1.438711e-009
1.019583e-009
7.199825e-010
5.438319e-010
3.986006e-010
2.138718e-010
1.319796e-011
-1.097797e-010
-8.853084e-011
3.732017e-011
1.422068e-010
1.227122e-010
-7.142126e-012
-1.281105e-010
2.888635e-009
2.666389e-009
2.488124e-009
2.665796e-009
3.254800e-009
3.832474e-009
3.405103e-009
3.256292e-010
-7.979214e-009
-2.560424e-008
-5.903831e-008
-1.180980e-007
-2.166139e-007
-3.725097e-007
-6.068018e-007
-9.408603e-007
-1.391209e-006
-1.961575e-006
-2.633078e-006
-3.355071e-006
-4.040333e-006
-4.567981e-006
-4.795348e-006
-4.576998e-006
-3.786419e-006
-2.335111e-006
-1.847512e-007
2.649580e-006
6.104585e-006
1.007997e-005
1.445249e-005
1.908983e-005
2.386230e-005
2.865137e-005
3.335505e-005
3.789046e-005
4.219422e-005
4.622120e-005
4.994210e-005
5.334056e-005
5.640991e-005
5.915017e-005
6.156521e-005
6.366033e-005
6.544028e-005
6.690764e-005
6.806159e-005
6.889682e-005
6.940275e-005
6.956265e-005
6.935289e-005
6.874227e-005
6.769160e-005
6.615404e-005
6.407666e-005
6.140400e-005
5.808446e-005
5.408001e-005
4.937933e-005
4.401329e-005
3.807019e-005
3.170659e-005
2.514880e-005
1.868042e-005
1.261444e-005
7.252590e-006
2.839329e-006
-4.785958e-007
-2.676008e-006
-3.849107e-006
-4.190125e-006
-3.943586e-006
-3.357036e-006
-2.640058e-006
-1.941148e-006
-1.344435e-006
-8.811718e-007
-5.477144e-007
-3.226927e-007
-1.794832e-007
-9.335511e-008
-4.449733e-008
-1.853671e-008
-5.831099e-009
-3.372211e-010
1.514556e-009
1.731265e-009
1.385048e-009
9.871646e-010
7.023435e-010
5.041751e-010
3.176172e-010
1.232128e-010
-2.473828e-011
-6.406167e-011
-2.542472e-012
7.495055e-011
8.130990e-011
9.057534e-012
-6.620565e-011
3.620692e-009
3.531614e-009
3.518167e-009
3.727704e-009
3.993265e-009
3.511160e-009
5.298962e-010
-8.023621e-009
-2.714504e-008
-6.471703e-008
-1.327901e-007
-2.488447e-007
-4.363812e-007
-7.238333e-007
-1.140400e-006
-1.707138e-006
-2.422182e-006
-3.241077e-006
-4.056903e-006
-4.688498e-006
-4.885723e-006
-4.356559e-006
-2.812960e-006
-2.462819e-008
4.133693e-006
9.653996e-006
1.639204e-005
2.408832e-005
3.240617e-005
4.097685e-005
4.944205e-005
5.748647e-005
6.485823e-005
7.137757e-005
7.693679e-005
8.149399e-005
8.506288e-005
8.770035e-005
8.949344e-005
9.054727e-005
9.097500e-005
9.089072e-005
9.040512e-005
8.962383e-005
8.864742e-005
8.757230e-005
8.649173e-005
8.549572e-005
8.466948e-005
8.408941e-005
8.381633e-005
8.388571e-005
8.429517e-005
8.499004e-005
8.584917e-005
8.667377e-005
8.718405e-005
8.702890e-005
8.581396e-005
8.315105e-005
7.872678e-005
7.238022e-005
6.417200e-005
5.442253e-005
4.370050e-005
3.275355e-005
2.238952e-005
1.333396e-005
6.101227e-006
9.157093e-007
-2.296988e-006
-3.851049e-006
-4.195594e-006
-3.799656e-006
-3.061109e-006
-2.259402e-006
-1.552353e-006
-1.002069e-006
-6.107093e-007
-3.517581e-007
-1.908502e-007
-9.661280e-008
-4.466242e-008
-1.790129e-008
-5.254667e-009
-2.196214e-011
1.613437e-009
1.711986e-009
1.320458e-009
9.073153e-010
6.123038e-010
4.133317e-010
2.526088e-010
1.099720e-010
7.379656e-012
-3.247135e-011
-2.029815e-011
7.427254e-012
2.266015e-011
2.452085e-011
4.151799e-009
4.368906e-009
4.690886e-009
4.832261e-009
4.120454e-009
1.043889e-009
-7.446686e-009
-2.686200e-008
-6.635831e-008
-1.402406e-007
-2.696454e-007
-4.837314e-007
-8.188477e-007
-1.313062e-006
-1.992493e-006
-2.846218e-006
-3.789926e-006
-4.626023e-006
-5.017189e-006
-4.494939e-006
-2.518297e-006
1.420162e-006
7.664589e-006
1.627923e-005
2.698096e-005
3.914145e-005
5.186077e-005
6.409421e-005
7.479905e-005
8.306641e-005
8.821376e-005
8.982826e-005
8.776581e-005
8.211946e-005
7.317249e-005
6.134710e-005
4.715455e-005
3.114959e-005
1.389153e-005
-4.085343e-006
-2.229013e-005
-4.028192e-005
-5.766603e-005
-7.408270e-005
-8.919166e-005
-1.026562e-004
-1.141297e-004
-1.232473e-004
-1.296247e-004
-1.328664e-004
-1.325838e-004
-1.284267e-004
-1.201260e-004
-1.075513e-004
-9.077722e-005
-7.015634e-005
-4.638571e-005
-2.055087e-005
5.875953e-006
3.110842e-005
5.320772e-005
7.033242e-005
8.104562e-005
8.461436e-005
8.121366e-005
7.195313e-005
5.868894e-005
4.365543e-005
2.901359e-005
1.644461e-005
6.908063e-006
6.150432e-007
-2.818664e-006
-4.116784e-006
-4.078906e-006
-3.385925e-006
-2.508413e-006
-1.706530e-006
-1.082537e-006
-6.454152e-007
-3.625750e-007
-1.913744e-007
-9.395380e-008
-4.188816e-008
-1.595504e-008
-4.161478e-009
4.669508e-010
1.742284e-009
1.647993e-009
1.171436e-009
7.525518e-010
5.097319e-010
3.843316e-010
2.706800e-010
1.182552e-010
-3.641812e-011
-1.162195e-010
-8.125723e-011
2.881696e-011
1.212233e-010
4.647101e-009
5.225501e-009
5.827265e-009
5.443870e-009
2.501263e-009
-5.802574e-009
-2.479411e-008
-6.409517e-008
-1.396735e-007
-2.759942e-007
-5.077248e-007
-8.792809e-007
-1.438414e-006
-2.217554e-006
-3.195622e-006
-4.237273e-006
-5.019831e-006
-4.978784e-006
-3.318879e-006
8.673046e-007
8.365983e-006
1.953738e-005
3.402607e-005
5.058587e-005
6.709572e-005
8.080041e-005
8.872634e-005
8.815592e-005
7.704073e-005
5.425963e-005
1.967934e-005
-2.595928e-005
-8.125999e-005
-1.444169e-004
-2.134327e-004
-2.862871e-004
-3.610592e-004
-4.360099e-004
-5.096331e-004
-5.806770e-004
-6.481359e-004
-7.112182e-004
-7.692959e-004
-8.218454e-004
-8.683874e-004
-9.084317e-004
-9.414334e-004
-9.667607e-004
-9.836764e-004
-9.913352e-004
-9.887963e-004
-9.750566e-004
-9.491091e-004
-9.100357e-004
-8.571428e-004
-7.901492e-004
-7.094240e-004
-6.162583e-004
-5.131209e-004
-4.038210e-004
-2.934717e-004
-1.881584e-004
-9.426621e-005
-1.751180e-005
3.814475e-005
7.141195e-005
8.403699e-005
8.038283e-005
6.630641e-005
4.776062e-005
2.957998e-005
1.479450e-005
4.591194e-006
-1.259217e-006
-3.780460e-006
-4.208514e-006
-3.599801e-006
-2.666941e-006
-1.789882e-006
-1.112216e-006
-6.469261e-007
-3.535403e-007
-1.810210e-007
-8.585527e-008
-3.665076e-008
-1.300984e-008
-2.724324e-009
1.011380e-009
1.790602e-009
1.462144e-009
9.501813e-010
6.295141e-010
5.121147e-010
4.312646e-010
2.499276e-010
-6.988511e-012
-1.856823e-010
-1.620387e-010
2.612504e-011
2.006880e-010
5.327538e-009
6.102868e-009
6.531004e-009
4.588466e-009
-2.752422e-009
-2.055513e-008
-5.804858e-008
-1.315315e-007
-2.674985e-007
-5.052014e-007
-8.968096e-007
-1.500575e-006
-2.357912e-006
-3.441355e-006
-4.563368e-006
-5.255292e-006
-4.664625e-006
-1.561454e-006
5.444108e-006
1.742341e-005
3.444606e-005
5.487193e-005
7.487879e-005