# vtk DataFile Version 3.0
vtk output
ASCII
DATASET STRUCTURED_POINTS
DIMENSIONS 100 100 1
SPACING 1 1 1
ORIGIN 0 0 0
POINT_DATA 10000
SCALARS SFBox_profile double
LOOKUP_TABLE default 
0.000000e+000
0.000000e+000
0.000000e+000
0.000000e+000
0.000000e+000
0.000000e+000
0.000000e+000
0.000000e+000
0.000000e+000
0.000000e+000
0.000000e+000
0.000000e+000
0.000000e+000
0.000000e+000
0.000000e+000
0.000000e+000
0.000000e+000
0.000000e+000
0.000000e+000
0.000000e+000
0.000000e+000
0.000000e+000
0.000000e+000
0.000000e+000
0.000000e+000
0.000000e+000
0.000000e+000
0.000000e+000
0.000000e+000
0.000000e+000
0.000000e+000
0.000000e+000
0.000000e+000
0.000000e+000
0.000000e+000
0.000000e+000
0.000000e+000
0.000000e+000
0.000000e+000
0.000000e+000
0.000000e+000
0.000000e+000
0.000000e+000
0.000000e+000
0.000000e+000
0.000000e+000
0.000000e+000
0.000000e+000
0.000000e+000
0.000000e+000
0.000000e+000
0.000000e+000
0.000000e+000
0.000000e+000
0.000000e+000
0.000000e+000
0.000000e+000
0.000000e+000
0.000000e+000
0.000000e+000
0.000000e+000
0.000000e+000
0.000000e+000
0.000000e+000
0.000000e+000
0.000000e+000
0.000000e+000
0.000000e+000
0.000000e+000
0.000000e+000
0.000000e+000
0.000000e+000
0.000000e+000
0.000000e+000
0.000000e+000
0.000000e+000
0.000000e+000
0.000000e+000
0.000000e+000
0.000000e+000
0.000000e+000
0.000000e+000
0.000000e+000
0.000000e+000
0.000000e+000
0.000000e+000
0.000000e+000
0.000000e+000
0.000000e+000
0.000000e+000
0.000000e+000
0.000000e+000
0.000000e+000
0.000000e+000
0.000000e+000
0.000000e+000
0.000000e+000
0.000000e+000
0.000000e+000
0.000000e+000
3.755515e-011
2.495403e-011
4.137955e-012
-1.882545e-011
-3.703920e-011
-4.475238e-011
-3.985723e-011
-2.516706e-011
-7.179746e-012
7.096606e-012
1.346940e-011
1.212701e-011
6.683885e-012
1.571017e-012
-5.135558e-013
2.554439e-013
1.593105e-012
9.088921e-013
-2.876607e-012
-8.683706e-012
-1.406973e-011
-1.675508e-011
-1.584614e-011
-1.219315e-011
-7.645519e-012
-3.869130e-012
-1.562104e-012
-3.724467e-013
7.508896e-013
3.002565e-012
7.229598e-012
1.364982e-011
2.166080e-011
2.984607e-011
3.643599e-011
4.013870e-011
4.101661e-011
4.084242e-011
4.246503e-011
4.830792e-011
5.877439e-011
7.159035e-011
8.260523e-011
8.778847e-011
8.526620e-011
7.625327e-011
6.434057e-011
5.356162e-011
4.649948e-011
4.348554e-011
4.319675e-011
4.415292e-011
4.583572e-011
4.878398e-011
5.378765e-011
6.072102e-011
6.804032e-011
7.339637e-011
7.485665e-011
7.202548e-011
6.624026e-011
5.971560e-011
5.419610e-011
4.990594e-011
4.551067e-011
3.907528e-011
2.942671e-011
1.724763e-011
5.111964e-012
-3.590800e-012
-6.226288e-012
-2.430835e-012
5.412602e-012
1.308224e-011
1.636379e-011
1.302825e-011
3.962594e-012
-7.194932e-012
-1.579980e-011
-1.845468e-011
-1.452204e-011
-6.229209e-012
2.617205e-012
8.585262e-012
1.013178e-011
8.110252e-012
5.072821e-012
3.514497e-012
4.090195e-012
4.906788e-012
2.888540e-012
-3.408591e-012
-1.182169e-011
-1.755706e-011
-1.675543e-011
-9.729252e-012
-7.434409e-013
5.486370e-012
7.428690e-012
7.127363e-012
1.440650e-011
7.866262e-012
-3.006136e-012
-1.507889e-011
-2.463564e-011
-2.842951e-011
-2.521306e-011
-1.662664e-011
-6.509349e-012
1.023100e-012
3.703313e-012
2.094400e-012
-1.164604e-012
-3.247238e-012
-2.863801e-012
-7.830286e-013
1.073251e-012
1.049556e-012
-1.140362e-012
-4.356158e-012
-6.897808e-012
-7.586441e-012
-6.340733e-012
-4.068161e-012
-1.914245e-012
-4.788730e-013
4.395793e-013
1.560801e-012
3.695827e-012
7.393935e-012
1.276377e-011
1.947414e-011
2.669477e-011
3.309616e-011
3.717646e-011
3.792780e-011
3.561552e-011
3.209908e-011
3.027295e-011
3.269050e-011
4.009533e-011
5.078545e-011
6.130112e-011
6.816533e-011
6.966166e-011
6.663109e-011
6.181879e-011
5.819729e-011
5.736905e-011
5.897000e-011
6.135043e-011
6.299884e-011
6.351527e-011
6.362777e-011
6.439705e-011
6.612106e-011
6.785679e-011
6.797847e-011
6.524065e-011
5.971882e-011
5.288815e-011
4.679338e-011
4.284608e-011
4.095740e-011
3.959602e-011
3.672160e-011
3.098303e-011
2.262610e-011
1.350188e-011
6.220519e-012
2.964382e-012
4.307448e-012
8.814735e-012
1.362018e-011
1.566788e-011
1.312848e-011
6.269382e-012
-2.623941e-012
-1.027657e-011
-1.390920e-011
-1.241573e-011
-6.772370e-012
4.652329e-013
6.343521e-012
8.805277e-012
7.563721e-012
4.141440e-012
8.632634e-013
-6.107955e-013
-3.496682e-013
6.265819e-014
-1.084416e-012
-4.201784e-012
-8.015556e-012
-1.043824e-011
-9.930848e-012
-6.329022e-012
-8.694313e-013
4.428574e-012
7.654401e-012
-2.022594e-011
-1.751755e-011
-1.328087e-011
-8.967399e-012
-5.777701e-012
-4.215141e-012
-4.079397e-012
-4.830704e-012
-6.014743e-012
-7.471842e-012
-9.102742e-012
-1.049938e-011
-1.094780e-011
-9.916134e-012
-7.563862e-012
-4.739194e-012
-2.309548e-012
-5.427974e-013
1.028358e-012
3.066636e-012
5.714410e-012
8.361202e-012
1.003609e-011
1.008864e-011
8.735938e-012
7.068503e-012
6.467579e-012
7.884673e-012
1.146815e-011
1.669447e-011
2.277933e-011
2.906909e-011
3.510042e-011
4.040156e-011
4.445196e-011
4.696804e-011
4.842645e-011
5.037108e-011
5.503750e-011
6.435549e-011
7.882248e-011
9.700677e-011
1.160820e-010
1.331704e-010
1.466916e-010
1.569237e-010
1.654227e-010
1.737310e-010
1.822158e-010
1.897953e-010
1.946661e-010
1.955259e-010
1.922787e-010
1.859041e-010
1.777068e-010
1.683961e-010
1.577437e-010
1.450653e-010
1.300544e-010
1.134268e-010
9.682258e-011
8.207926e-011
7.033233e-011
6.148482e-011
5.439149e-011
4.762214e-011
4.025232e-011
3.231227e-011
2.463258e-011
1.832197e-011
1.424646e-011
1.259712e-011
1.283687e-011
1.394684e-011
1.476624e-011
1.437936e-011
1.235379e-011
8.809873e-012
4.378500e-012
1.049418e-014
-3.286317e-012
-4.783813e-012
-4.356948e-012
-2.559687e-012
-3.786073e-013
1.152658e-012
1.362907e-012
1.840674e-013
-1.704265e-012
-3.003947e-012
-2.453526e-012
4.160255e-014
2.656646e-012
2.583003e-012
-1.496480e-012
-7.449813e-012
-1.068413e-011
-8.010909e-012
-9.627984e-013
4.993121e-012
-4.914128e-011
-3.829848e-011
-2.098245e-011
-2.863372e-012
1.055598e-011
1.576337e-011
1.249824e-011
3.655160e-012
-6.372917e-012
-1.394865e-011
-1.759928e-011
-1.789206e-011
-1.632281e-011
-1.419397e-011
-1.213589e-011
-1.012431e-011
-7.575260e-012
-3.620518e-012
2.348954e-012
9.995043e-012
1.776027e-011
2.349310e-011
2.561718e-011
2.413864e-011
2.079603e-011
1.821930e-011
1.861940e-011
2.281385e-011
3.013080e-011
3.913811e-011
4.864330e-011
5.837209e-011
6.893060e-011
8.120624e-011
9.579029e-011
1.127888e-010
1.321258e-010
1.539523e-010
1.786851e-010
2.066174e-010
2.373212e-010
2.693402e-010
3.005391e-010
3.289431e-010
3.535643e-010
3.746179e-010
3.929640e-010
4.091738e-010
4.228664e-010
4.327552e-010
4.373548e-010
4.358788e-010
4.285968e-010
4.165323e-010
4.008078e-010
3.820305e-010
3.602249e-010
3.352755e-010
3.074759e-010
2.777978e-010
2.476038e-010
2.181071e-010
1.899712e-010
1.632801e-010
1.379126e-010
1.140191e-010
9.219190e-011
7.322396e-011
5.758586e-011
4.508274e-011
3.500995e-011
2.662488e-011
1.970313e-011
1.469278e-011
1.230155e-011
1.286060e-011
1.573340e-011
1.918874e-011
2.098997e-011
1.929236e-011
1.347621e-011
4.564004e-012
-5.040382e-012
-1.234203e-011
-1.486326e-011
-1.194877e-011
-5.512237e-012
6.598747e-013
3.209293e-012
1.764124e-012
-6.791315e-013
-5.136198e-013
2.773097e-012
5.756496e-012
4.389512e-012
-1.592455e-012
-7.909401e-012
-9.810209e-012
-6.815755e-012
-3.108867e-012
-5.842157e-011
-4.423516e-011
-2.198059e-011
6.697583e-013
1.673194e-011
2.211852e-011
1.692483e-011
5.124070e-012
-7.491436e-012
-1.615259e-011
-1.908711e-011
-1.760929e-011
-1.454087e-011
-1.220958e-011
-1.136658e-011
-1.123550e-011
-1.015774e-011
-6.459052e-012
7.048886e-013
1.065307e-011
2.116575e-011
2.947479e-011
3.381179e-011
3.459020e-011
3.438111e-011
3.663016e-011
4.399509e-011
5.723950e-011
7.533799e-011
9.654704e-011
1.196922e-010
1.448957e-010
1.733360e-010
2.062996e-010
2.442558e-010
2.864357e-010
3.311729e-010
3.766135e-010
4.212483e-010
4.640810e-010
5.044018e-010
5.415311e-010
5.748644e-010
6.041542e-010
6.297372e-010
6.523710e-010
6.726530e-010
6.904648e-010
7.048575e-010
7.144558e-010
7.181427e-010
7.156122e-010
7.073458e-010
6.941425e-010
6.765906e-010
6.548349e-010
6.288494e-010
5.988852e-010
5.656654e-010
5.301683e-010
4.930634e-010
4.543323e-010
4.134369e-010
3.699622e-010
3.243252e-010
2.780700e-010
2.334694e-010
1.926473e-010
1.566626e-010
1.251840e-010
9.705623e-011
7.134962e-011
4.830644e-011
2.942948e-011
1.663185e-011
1.105309e-011
1.210779e-011
1.734637e-011
2.326764e-011
2.642498e-011
2.440368e-011
1.656709e-011
4.386920e-012
-8.649348e-012
-1.791145e-011
-1.972290e-011
-1.372019e-011
-3.638897e-012
4.724578e-012
7.408269e-012
4.885987e-012
1.077345e-012
-2.964990e-013
1.352435e-012
3.594275e-012
3.548924e-012
2.338672e-013
-5.108146e-012
-1.022672e-011
-1.323356e-011
-4.386677e-011
-3.270202e-011
-1.597716e-011
-1.187772e-013
1.007214e-011
1.262542e-011
8.287996e-012
-1.783331e-013
-8.982047e-012
-1.458739e-011
-1.513286e-011
-1.132578e-011
-6.011522e-012
-2.442753e-012
-2.448246e-012
-5.512583e-012
-9.130841e-012
-1.009932e-011
-6.017929e-012
3.491171e-012
1.654457e-011
3.009431e-011
4.180536e-011
5.167630e-011
6.227458e-011
7.744525e-011
1.003822e-010
1.322365e-010
1.720849e-010
2.180120e-010
2.684636e-010
3.229844e-010
3.819546e-010
4.456271e-010
5.132521e-010
5.827702e-010
6.513236e-010
7.161866e-010
7.754814e-010
8.284587e-010
8.752814e-010
9.166731e-010
9.537026e-010
9.876242e-010
1.019605e-009
1.050281e-009
1.079283e-009
1.105167e-009
1.125884e-009
1.139564e-009
1.145166e-009
1.142700e-009
1.132816e-009
1.116164e-009
1.092996e-009
1.063271e-009
1.027244e-009
9.859397e-010
9.410335e-010
8.941429e-010
8.458796e-010
7.954333e-010
7.410995e-010
6.815082e-010
6.167386e-010
5.485810e-010
4.798219e-010
4.130286e-010
3.495436e-010
2.893555e-010
2.319454e-010
1.775302e-010
1.278437e-010
8.575154e-011
5.382376e-011
3.290158e-011
2.148386e-011
1.644701e-011
1.465794e-011
1.408478e-011
1.375609e-011
1.301993e-011
1.089059e-011
6.417443e-012
-1.492793e-013
-6.798092e-012
-1.056188e-011
-9.389454e-012
-3.846352e-012
2.813994e-012
6.477826e-012
5.022929e-012
2.560673e-013
-3.117478e-012
-1.555632e-012
3.499935e-012
6.119660e-012
1.311684e-012
-9.374864e-012
-1.825581e-011
-1.218185e-011
-9.572962e-012
-6.703129e-012
-5.508264e-012
-6.062815e-012
-7.177183e-012
-8.101353e-012
-9.113759e-012
-1.039521e-011
-1.073013e-011
-7.998052e-012
-1.487458e-012
6.397696e-012
1.114997e-011
9.296918e-012
1.175350e-012
-8.882453e-012
-1.487155e-011
-1.213415e-011
5.986908e-013
2.110915e-011
4.545365e-011
7.053923e-011
9.617039e-011
1.253278e-010
1.625847e-010
2.117048e-010
2.739006e-010
3.477391e-010
4.303644e-010
5.190355e-010
6.120149e-010
7.084219e-010
8.074365e-010
9.076113e-010
1.006677e-009
1.102044e-009
1.191557e-009
1.273929e-009
1.348802e-009
1.416534e-009
1.478001e-009
1.534477e-009
1.587298e-009
1.637290e-009
1.684214e-009
1.726527e-009
1.761784e-009
1.787529e-009
1.802183e-009
1.805471e-009
1.798198e-009
1.781470e-009
1.755943e-009
1.721611e-009
1.678180e-009
1.625864e-009
1.565914e-009
1.500409e-009
1.431399e-009
1.359808e-009
1.284913e-009
1.204917e-009
1.118371e-009
1.025471e-009
9.282517e-010
8.296064e-010
7.318559e-010
6.358594e-010
5.412999e-010
4.480372e-010
3.576100e-010
2.738149e-010
2.016264e-010
1.448154e-010
1.037484e-010
7.480255e-011
5.218805e-011
3.136297e-011
1.166733e-011
-3.615598e-012
-9.910579e-012
-5.367010e-012
6.502485e-012
1.778295e-011
2.056925e-011
1.243614e-011
-1.256905e-012
-1.105795e-011
-1.090537e-011
-3.247307e-012
3.482983e-012
3.254164e-012
-1.733710e-012
-4.203996e-012
-5.982396e-013
4.397150e-012
3.188262e-012
-5.366798e-012
-1.376034e-011
2.262344e-011
1.392023e-011
9.610539e-014
-1.409767e-011
-2.400889e-011
-2.693639e-011
-2.350700e-011
-1.701481e-011
-1.074489e-011
-5.418942e-012
6.784757e-013
8.669598e-012
1.635644e-011
1.905663e-011
1.364057e-011
2.133070e-012
-8.607230e-012
-1.077996e-011
2.331490e-013
2.422190e-011
5.751600e-011
9.603703e-011
1.380948e-010
1.856170e-010
2.432680e-010
3.160388e-010
4.066860e-010
5.144634e-010
6.357486e-010
7.657669e-010
9.002753e-010
1.036335e-009
1.172016e-009
1.305597e-009
1.434988e-009
1.557594e-009
1.670704e-009
1.771925e-009
1.859306e-009
1.931435e-009
1.987676e-009
2.028537e-009
2.055813e-009
2.072059e-009
2.079682e-009
2.080228e-009
2.074279e-009
2.062029e-009
2.044171e-009
2.022458e-009
1.999564e-009
1.978305e-009
1.960557e-009
1.946587e-009
1.935149e-009
1.924120e-009
1.911338e-009
1.895068e-009
1.873892e-009
1.846222e-009
1.809766e-009
1.761394e-009
1.697791e-009
1.616857e-009
1.518957e-009
1.407049e-009
1.285443e-009
1.157994e-009
1.026929e-009
8.930927e-010
7.574648e-010
6.229783e-010
4.953701e-010
3.822019e-010
2.900748e-010
2.214033e-010
1.725692e-010
1.349921e-010
9.919714e-011
5.988273e-011
1.924500e-011
-1.363290e-011
-2.813517e-011
-1.980976e-011
4.490778e-012
2.858884e-011
3.669239e-011
2.440329e-011
1.681053e-012
-1.548673e-011
-1.796119e-011
-9.366536e-012
-2.908652e-013
2.292190e-012
-2.966839e-013
-2.726731e-012
-2.451758e-012
-1.287067e-012
-1.472885e-012
-2.478760e-012
4.546086e-011
2.686320e-011
3.380948e-013
-2.269395e-011
-3.535287e-011
-3.671263e-011
-2.994168e-011
-1.943712e-011
-8.679786e-012
6.364609e-013
8.242082e-012
1.388344e-011
1.629275e-011
1.406274e-011
8.037706e-012
2.783984e-012
4.964481e-012
1.963493e-011
4.777311e-011
8.694947e-011
1.343756e-010
1.898914e-010
2.569016e-010
3.410298e-010
4.474173e-010
5.781714e-010
7.311245e-010
9.003782e-010
1.078083e-009
1.256261e-009
1.427856e-009
1.586819e-009
1.727529e-009
1.844256e-009
1.931195e-009
1.982908e-009
1.994948e-009
1.964189e-009
1.888876e-009
1.769010e-009
1.607133e-009
1.408946e-009
1.183135e-009
9.401743e-010
6.907964e-010
4.449737e-010
2.116966e-010
-5.633237e-013
-1.832024e-010
-3.274123e-010
-4.249270e-010
-4.692954e-010
-4.571905e-010
-3.889561e-010
-2.682476e-010
-1.012683e-010
1.039518e-010
3.377050e-010
5.884069e-010
8.426685e-010
1.085942e-009
1.303640e-009
1.482559e-009
1.612550e-009
1.688013e-009
1.708535e-009
1.678121e-009
1.603380e-009
1.491770e-009
1.350757e-009
1.188027e-009
1.012236e-009
8.335792e-010
6.635339e-010
5.133457e-010
3.915094e-010
3.010126e-010
2.376768e-010
1.910228e-010
1.481547e-010
9.983465e-011
4.612902e-011
-2.436805e-012
-3.066794e-011
-2.941462e-011
-4.258494e-012
2.571034e-011
3.976829e-011
2.955552e-011
4.145453e-012
-1.805146e-011
-2.370398e-011
-1.360626e-011
1.479506e-013
5.503011e-012
3.904838e-013
-7.069967e-012
-7.602131e-012
-1.177301e-013
7.684487e-012
4.647186e-011
2.418513e-011
-5.158790e-012
-2.681433e-011
-3.496066e-011
-3.239547e-011
-2.448848e-011
-1.446750e-011
-3.694734e-012
5.774811e-012
1.086769e-011
9.960485e-012
5.090017e-012
1.484364e-012
4.956653e-012
1.943348e-011
4.594241e-011
8.324630e-011
1.297247e-010
1.856513e-010
2.548026e-010
3.442288e-010
4.618086e-010
6.126634e-010
7.962572e-010
1.005547e-009
1.228267e-009
1.449176e-009
1.651942e-009
1.819946e-009
1.936324e-009
1.983930e-009
1.945698e-009
1.805806e-009
1.551509e-009
1.174800e-009
6.733156e-010
5.020256e-011
-6.864099e-010
-1.523338e-009
-2.441934e-009
-3.418261e-009
-4.424375e-009
-5.430458e-009
-6.406893e-009
-7.325623e-009
-8.160670e-009
-8.887890e-009
-9.484481e-009
-9.929163e-009
-1.020334e-008
-1.029283e-008
-1.018959e-008
-9.892655e-009
-9.408193e-009
-8.749132e-009
-7.934704e-009
-6.990553e-009
-5.949049e-009
-4.848756e-009
-3.732392e-009
-2.643665e-009
-1.623977e-009
-7.095613e-010
7.103067e-011
6.991002e-010
1.166994e-009
1.477829e-009
1.644041e-009
1.685279e-009
1.625849e-009
1.491937e-009
1.309054e-009
1.100413e-009
8.864860e-010
6.852746e-010
5.120598e-010
3.775558e-010
2.847311e-010
2.262746e-010
1.857294e-010
1.441497e-010
9.036402e-011
2.887828e-011
-2.160189e-011
-4.100917e-011
-2.437498e-011
1.118877e-011
3.686679e-011
3.369306e-011
7.206076e-012
-1.872380e-011
-2.417091e-011
-1.059234e-011
3.591431e-012
3.995250e-012
-5.244624e-012
-8.979455e-012
-5.750895e-013
1.026550e-011
2.541598e-011
9.177758e-012
-1.072317e-011
-2.269915e-011
-2.369114e-011
-1.808371e-011
-1.101450e-011
-4.021318e-012
3.043061e-012
7.975706e-012
6.880986e-012
-3.599426e-013
-6.640820e-012
-1.281689e-012
2.229043e-011
6.268712e-011
1.140574e-010
1.730257e-010
2.429008e-010
3.328006e-010
4.538542e-010
6.150420e-010
8.195327e-010
1.061877e-009
1.326837e-009
1.590322e-009
1.821633e-009
1.985430e-009
2.042646e-009
1.950997e-009
1.666211e-009
1.144609e-009
3.469158e-010
-7.572065e-010
-2.184914e-009
-3.937690e-009
-6.001337e-009
-8.347963e-009
-1.093833e-008
-1.372334e-008
-1.664519e-008
-1.963920e-008
-2.263624e-008
-2.556549e-008
-2.835692e-008
-3.094324e-008
-3.326125e-008
-3.525215e-008
-3.686146e-008
-3.803960e-008
-3.874375e-008
-3.894037e-008
-3.860810e-008
-3.774008e-008
-3.634574e-008
-3.445190e-008
-3.210305e-008
-2.936129e-008
-2.630586e-008
-2.303137e-008
-1.964369e-008
-1.625356e-008
-1.296946e-008
-9.891414e-009
-7.105663e-009
-4.679580e-009
-2.656957e-009
-1.055044e-009
1.357437e-010
9.492209e-010
1.437954e-009
1.665404e-009
1.696970e-009
1.592208e-009
1.400471e-009
1.160990e-009
9.062292e-010
6.654140e-010
4.647633e-010
3.227582e-010
2.423726e-010
2.061358e-010
1.811854e-010
1.366501e-010
6.474615e-011
-1.153159e-011
-5.514316e-011
-4.658202e-011
-3.049874e-012
3.488635e-011
3.829277e-011
1.264992e-011
-1.341558e-011
-1.922734e-011
-9.082317e-012
-1.880235e-013
-4.088772e-013
-2.898014e-012
6.760409e-015
5.325625e-012
-7.518357e-012
-8.720729e-012
-1.028046e-011
-1.050823e-011
-7.928105e-012
-2.790892e-012
3.025326e-012
7.498403e-012
9.076031e-012
6.325747e-012
-6.102558e-013
-6.816255e-012
-2.382066e-012
2.197942e-011
6.819560e-011
1.310501e-010
2.062873e-010
2.983780e-010
4.201514e-010
5.853568e-010
8.011135e-010
1.064194e-009
1.359677e-009
1.659471e-009
1.920602e-009
2.084359e-009
2.076744e-009
1.809895e-009
1.184859e-009
9.655584e-011
-1.558950e-009
-3.875532e-009
-6.927483e-009
-1.076065e-008
-1.538607e-008
-2.077784e-008
-2.687573e-008
-3.359056e-008
-4.080984e-008
-4.840237e-008
-5.622247e-008
-6.411433e-008
-7.191608e-008
-7.946371e-008
-8.659499e-008
-9.315327e-008
-9.899038e-008
-1.039682e-007
-1.079597e-007
-1.108510e-007
-1.125446e-007
-1.129640e-007
-1.120586e-007
-1.098086e-007
-1.062299e-007
-1.013788e-007
-9.535427e-008
-8.829871e-008
-8.039597e-008
-7.186630e-008
-6.295802e-008
-5.393519e-008
-4.506265e-008
-3.659120e-008
-2.874420e-008
-2.170507e-008
-1.560598e-008
-1.051949e-008
-6.455779e-009
-3.366212e-009
-1.152948e-009
3.166019e-010
1.192175e-009
1.622551e-009
1.740250e-009
1.652188e-009
1.438242e-009
1.157317e-009
8.573726e-010
5.830731e-010
3.742457e-010
2.531633e-010
2.092506e-010
1.983842e-010
1.675705e-010
9.284670e-011
-1.219970e-012
-6.289623e-011
-6.033346e-011
-1.061154e-011
3.718899e-011
4.647372e-011
2.039197e-011
-1.077035e-011
-2.232662e-011
-1.359756e-011
7.534357e-014
5.941222e-012
3.144518e-012
-1.321327e-012
-3.582079e-011
-2.000301e-011
-3.282736e-012
4.142500e-012
4.910483e-012
7.067367e-012
1.260447e-011
1.582905e-011
1.144063e-011
1.559380e-012
-4.882899e-012
2.191821e-012
2.899294e-011
7.651350e-011
1.432647e-010
2.308741e-010
3.485040e-010
5.109540e-010
7.303067e-010
1.007203e-009
1.327035e-009
1.659293e-009
1.954733e-009
2.138463e-009
2.102020e-009
1.698511e-009
7.432326e-010
-9.796269e-010
-3.704470e-009
-7.667317e-009
-1.308669e-008
-2.014413e-008
-2.896588e-008
-3.960762e-008
-5.204545e-008
-6.617541e-008
-8.182083e-008
-9.874438e-008
-1.166609e-007
-1.352494e-007
-1.541650e-007
-1.730488e-007
-1.915364e-007
-2.092661e-007
-2.258860e-007
-2.410611e-007
-2.544765e-007
-2.658405e-007
-2.748864e-007
-2.813767e-007
-2.851095e-007
-2.859256e-007
-2.837175e-007
-2.784384e-007
-2.701121e-007
-2.588433e-007
-2.448266e-007
-2.283520e-007
-2.098028e-007
-1.896474e-007
-1.684237e-007
-1.467171e-007
-1.251311e-007
-1.042544e-007
-8.462750e-008
-6.671045e-008
-5.085429e-008
-3.727929e-008
-2.606571e-008
-1.715928e-008
-1.039002e-008
-5.500453e-009
-2.178655e-009
-9.219176e-011
1.080123e-009
1.621198e-009
1.756498e-009
1.646813e-009
1.396217e-009
1.073784e-009
7.390641e-010
4.541403e-010
2.702339e-010
1.981496e-010
1.933217e-010
1.817548e-010
1.160715e-010
1.377602e-011
-6.208771e-011
-6.502821e-011
-9.647909e-012
4.481591e-011
5.187245e-011
1.642235e-011
-2.010861e-011
-2.599985e-011
-6.888454e-012
9.236231e-012
6.754058e-012
-3.535506e-012
-4.537436e-011
-2.133244e-011
3.575307e-012
1.343951e-011
1.244391e-011
1.307047e-011
1.782104e-011
1.773977e-011
7.569108e-012
-3.314795e-012
2.405680e-012
3.466747e-011
9.048486e-011
1.639186e-010
2.599265e-010
3.974716e-010
5.988285e-010
8.742316e-010
1.212844e-009
1.582347e-009
1.929334e-009
2.171216e-009
2.178439e-009
1.754221e-009
6.204548e-010
-1.585256e-009
-5.299611e-009
-1.101079e-008
-1.922525e-008
-3.042847e-008
-4.504407e-008
-6.339394e-008
-8.566251e-008
-1.118702e-007
-1.418620e-007
-1.753134e-007
-2.117520e-007
-2.505864e-007
-2.911393e-007
-3.326786e-007
-3.744455e-007
-4.156773e-007
-4.556247e-007
-4.935661e-007
-5.288198e-007
-5.607501e-007
-5.887691e-007
-6.123365e-007
-6.309614e-007
-6.442071e-007
-6.516998e-007
-6.531401e-007
-6.483176e-007
-6.371269e-007
-6.195863e-007
-5.958574e-007
-5.662675e-007
-5.313271e-007
-4.917364e-007
-4.483785e-007
-4.022990e-007
-3.546720e-007
-3.067505e-007
-2.598032e-007
-2.150415e-007
-1.735440e-007
-1.361847e-007
-1.035741e-007
-7.602488e-008
-5.355077e-008
-3.589744e-008
-2.259876e-008
-1.304590e-008
-6.557547e-009
-2.443029e-009
-5.536847e-011
1.165666e-009
1.661636e-009
1.739745e-009
1.582160e-009
1.285196e-009
9.163350e-010
5.565445e-010
2.953119e-010
1.812730e-010
1.792145e-010
1.908667e-010
1.372744e-010
2.749240e-011
-5.957338e-011
-6.318139e-011
-3.246282e-012
4.756308e-011
4.314982e-011
3.345836e-012
-2.272289e-011
-1.569555e-011
2.354473e-012
6.446236e-012
-1.566178e-013
-3.369024e-011
-1.737219e-011
1.910881e-012
1.417143e-011
1.951199e-011
2.188857e-011
2.028770e-011
1.096197e-011
-1.374683e-012
2.492817e-014
3.188150e-011
9.661878e-011
1.852220e-010
2.966919e-010
4.516593e-010
6.818337e-010
1.003201e-009
1.396862e-009
1.808205e-009
2.149986e-009
2.287929e-009
2.004601e-009
9.570182e-010
-1.353880e-009
-5.593908e-009
-1.258566e-008
-2.327662e-008
-3.868444e-008
-5.982304e-008
-8.761730e-008
-1.228145e-007
-1.659012e-007
-2.170355e-007
-2.760088e-007
-3.422442e-007
-4.148315e-007
-4.925910e-007
-5.741500e-007
-6.580227e-007
-7.426820e-007
-8.266176e-007
-9.083785e-007
-9.865998e-007
-1.060022e-006
-1.127500e-006
-1.188001e-006
-1.240591e-006
-1.284432e-006
-1.318764e-006
-1.342915e-006
-1.356299e-006
-1.358432e-006
-1.348951e-006
-1.327637e-006
-1.294448e-006
-1.249552e-006
-1.193374e-006
-1.126639e-006
-1.050403e-006
-9.660762e-007
-8.754096e-007
-7.804683e-007
-6.835663e-007
-5.871663e-007
-4.937466e-007
-4.056434e-007
-3.248861e-007
-2.530452e-007
-1.911199e-007
-1.394879e-007
-9.792943e-008
-6.571781e-008
-4.175673e-008
-2.473517e-008
-1.327218e-008
-6.033927e-009
-1.817474e-009
3.931841e-010
1.389812e-009
1.719614e-009
1.696082e-009
1.459953e-009
1.082869e-009
6.601641e-010
3.243405e-010
1.693415e-010
1.695817e-010
1.987595e-010
1.495608e-010
3.151340e-011
-5.985853e-011
-6.000745e-011
-5.042020e-014
4.322081e-011
3.468505e-011
1.745917e-012
-1.591730e-011
-1.101591e-011
-6.460455e-013
4.003822e-012
-1.288154e-011
-1.621424e-011
-9.317867e-012
1.175390e-011
3.267586e-011
3.572582e-011
1.866056e-011
-2.277337e-012
-4.363007e-012
2.771415e-011
9.614204e-011
1.950892e-010
3.242317e-010
5.010483e-010
7.568284e-010
1.111934e-009
1.547216e-009
1.990720e-009
2.313042e-009
2.303537e-009
1.612523e-009
-3.235717e-010
-4.343494e-009
-1.159201e-008
-2.351927e-008
-4.184652e-008
-6.848815e-008
-1.054242e-007
-1.545311e-007
-2.173894e-007
-2.950929e-007
-3.880866e-007
-4.960648e-007
-6.179498e-007
-7.519565e-007
-8.957282e-007
-1.046517e-006
-1.201372e-006
-1.357323e-006
-1.511513e-006
-1.661309e-006
-1.804351e-006
-1.938585e-006
-2.062260e-006
-2.173908e-006
-2.272312e-006
-2.356452e-006
-2.425461e-006
-2.478589e-006
-2.515167e-006
-2.534593e-006
-2.536325e-006
-2.519888e-006
-2.484894e-006
-2.431077e-006
-2.358348e-006
-2.266871e-006
-2.157157e-006
-2.030175e-006
-1.887450e-006
-1.731152e-006
-1.564135e-006
-1.389931e-006
-1.212653e-006
-1.036809e-006
-8.670195e-007
-7.076743e-007
-5.625637e-007
-4.345460e-007
-3.253171e-007
-2.353278e-007
-1.638639e-007
-1.092683e-007
-6.925022e-008
-4.121753e-008
-2.256835e-008
-1.090416e-008
-4.151938e-009
-6.149913e-010
1.009798e-009
1.623362e-009
1.740900e-009
1.577449e-009
1.210942e-009
7.445579e-010
3.498299e-010
1.631035e-010
1.648641e-010
2.025552e-010
1.497840e-010
2.358690e-011
-6.650187e-011
-5.745092e-011
8.476535e-012
5.019376e-011
3.647900e-011
-1.271014e-012
-2.084959e-011
-1.282449e-011
2.011143e-012
-2.434802e-012
-2.151309e-011
-1.968778e-011
1.606417e-011
5.060654e-011
4.632270e-011
1.153982e-011
-8.429220e-012
2.084158e-011
9.743724e-011
2.034287e-010
3.382133e-010
5.278911e-010
8.077890e-010
1.195143e-009
1.664693e-009
2.130026e-009
2.420370e-009
2.230876e-009
1.032645e-009
-2.043324e-009
-8.314857e-009
-1.962416e-008
-3.837138e-008
-6.749588e-008
-1.103780e-007
-1.706321e-007
-2.517868e-007
-3.568833e-007
-4.880479e-007
-6.461123e-007
-8.303584e-007
-1.038451e-006
-1.266576e-006
-1.509763e-006
-1.762323e-006
-2.018322e-006
-2.272017e-006
-2.518199e-006
-2.752422e-006
-2.971112e-006
-3.171583e-006
-3.351994e-006
-3.511257e-006
-3.648907e-006
-3.764963e-006
-3.859775e-006
-3.933882e-006
-3.987877e-006
-4.022293e-006
-4.037508e-006
-4.033663e-006
-4.010600e-006
-3.967819e-006
-3.904462e-006
-3.819358e-006
-3.711115e-006
-3.578304e-006
-3.419714e-006
-3.234697e-006
-3.023532e-006
-2.787804e-006
-2.530694e-006
-2.257140e-006
-1.973755e-006
-1.688485e-006
-1.409995e-006
-1.146849e-006
-9.066123e-007
-6.950486e-007
-5.155806e-007
-3.691130e-007
-2.542433e-007
-1.677779e-007
-1.054137e-007
-6.242972e-008
-3.425898e-008
-1.686471e-008
-6.906175e-009
-1.747293e-009
5.958242e-010
1.493134e-009
1.734006e-009
1.638524e-009
1.291274e-009
7.954559e-010
3.584104e-010
1.554487e-010
1.650956e-010
2.047708e-010
1.377947e-010
2.692033e-012
-7.293056e-011
-3.871198e-011
3.556715e-011
6.025905e-011
2.395041e-011
-1.796835e-011
-2.411413e-011
-9.571907e-012
-1.520045e-011
-2.779285e-011
-1.365194e-011
3.111524e-011
6.019360e-011
4.153064e-011
6.983029e-012
1.756955e-011
9.528688e-011
2.137249e-010
3.527057e-010
5.391918e-010
8.262527e-010
1.240735e-009
1.747787e-009
2.236289e-009
2.489538e-009
2.103063e-009
3.403198e-010
-4.047938e-009
-1.300278e-008
-2.930938e-008
-5.670670e-008
-9.992244e-008
-1.645684e-007
-2.568172e-007
-3.828184e-007
-5.478842e-007
-7.555526e-007
-1.006702e-006
-1.298924e-006
-1.626325e-006
-1.979874e-006
-2.348213e-006
-2.718800e-006
-3.079154e-006
-3.417966e-006
-3.725940e-006
-3.996282e-006
-4.224845e-006
-4.410020e-006
-4.552453e-006
-4.654685e-006
-4.720744e-006
-4.755745e-006
-4.765492e-006
-4.756103e-006
-4.733668e-006
-4.703930e-006
-4.671995e-006
-4.642066e-006
-4.617186e-006
-4.598965e-006
-4.587330e-006
-4.580303e-006
-4.573864e-006
-4.561952e-006
-4.536681e-006
-4.488814e-006
-4.408544e-006
-4.286546e-006
-4.115228e-006
-3.890054e-006
-3.610723e-006
-3.281946e-006
-2.913595e-006
-2.520022e-006
-2.118581e-006
-1.727504e-006
-1.363559e-006
-1.039970e-006
-7.650597e-007
-5.418507e-007
-3.686140e-007
-2.400825e-007
-1.489450e-007
-8.726050e-008
-4.754465e-008
-2.341471e-008
-9.803395e-009
-2.867333e-009
2.115485e-010
1.364551e-009
1.703224e-009
1.661959e-009
1.325614e-009
8.013565e-010
3.411723e-010
1.487378e-010
1.754172e-010
2.036116e-010
1.117777e-010
-1.947789e-011
-5.935338e-011
-7.976380e-013
5.652543e-011
4.640589e-011
-8.502619e-013
-2.768027e-011
-2.735668e-011
-4.582764e-011
-2.336043e-011
1.607488e-011
4.794882e-011
4.551321e-011
2.118850e-011
2.641827e-011
9.718650e-011
2.187492e-010
3.626013e-010
5.451609e-010
8.270206e-010
1.252519e-009
1.791640e-009
2.312200e-009
2.544771e-009
1.979675e-009
-3.344905e-010
-6.065426e-009
-1.789065e-008
-3.977516e-008
-7.721328e-008
-1.373757e-007
-2.290299e-007
-3.620544e-007
-5.464028e-007
-7.904943e-007
-1.099200e-006
-1.471791e-006
-1.900379e-006
-2.369373e-006
-2.856287e-006
-3.333872e-006