# vtk DataFile Version 3.0
vtk output
ASCII
DATASET STRUCTURED_POINTS
DIMENSIONS 100 100 1
SPACING 1 1 1
ORIGIN 0 0 0
POINT_DATA 10000
SCALARS SFBox_profile double
LOOKUP_TABLE default 
0.000000e+000
0.000000e+000
0.000000e+000
0.000000e+000
0.000000e+000
0.000000e+000
0.000000e+000
0.000000e+000
0.000000e+000
0.000000e+000
0.000000e+000
0.000000e+000
0.000000e+000
0.000000e+000
0.000000e+000
0.000000e+000
0.000000e+000
0.000000e+000
0.000000e+000
0.000000e+000
0.000000e+000
0.000000e+000
0.000000e+000
0.000000e+000
0.000000e+000
0.000000e+000
0.000000e+000
0.000000e+000
0.000000e+000
0.000000e+000
0.000000e+000
0.000000e+000
0.000000e+000
0.000000e+000
0.000000e+000
0.000000e+000
0.000000e+000
0.000000e+000
0.000000e+000
0.000000e+000
0.000000e+000
0.000000e+000
0.000000e+000
0.000000e+000
0.000000e+000
0.000000e+000
0.000000e+000
0.000000e+000
0.000000e+000
0.000000e+000
0.000000e+000
0.000000e+000
0.000000e+000
0.000000e+000
0.000000e+000
0.000000e+000
0.000000e+000
0.000000e+000
0.000000e+000
0.000000e+000
0.000000e+000
0.000000e+000
0.000000e+000
0.000000e+000
0.000000e+000
0.000000e+000
0.000000e+000
0.000000e+000
0.000000e+000
0.000000e+000
0.000000e+000
0.000000e+000
0.000000e+000
0.000000e+000
0.000000e+000
0.000000e+000
0.000000e+000
0.000000e+000
0.000000e+000
0.000000e+000
0.000000e+000
0.000000e+000
0.000000e+000
0.000000e+000
0.000000e+000
0.000000e+000
0.000000e+000
0.000000e+000
0.000000e+000
0.000000e+000
0.000000e+000
0.000000e+000
0.000000e+000
0.000000e+000
0.000000e+000
0.000000e+000
0.000000e+000
0.000000e+000
0.000000e+000
0.000000e+000
-5.224220e-008
-3.758639e-008
-1.510205e-008
5.058619e-009
1.507390e-008
1.405149e-008
7.871022e-009
3.641914e-009
3.210640e-009
2.023752e-009
-4.902772e-009
-1.563519e-008
-2.086122e-008
-1.228594e-008
7.779902e-009
2.597036e-008
2.855026e-008
1.367531e-008
-6.835161e-009
-1.825766e-008
-1.575295e-008
-6.820463e-009
-1.918729e-009
-3.728927e-009
-6.002024e-009
-1.982214e-009
7.615161e-009
1.556513e-008
1.607290e-008
1.044990e-008
4.756608e-009
2.957780e-009
3.472848e-009
2.216400e-009
-2.261212e-009
-7.489401e-009
-1.036621e-008
-1.055108e-008
-1.017162e-008
-1.089521e-008
-1.221255e-008
-1.264657e-008
-1.184972e-008
-1.088586e-008
-1.070072e-008
-1.102804e-008
-1.104566e-008
-1.061910e-008
-1.034730e-008
-1.048300e-008
-1.042278e-008
-9.611219e-009
-8.600851e-009
-8.615955e-009
-9.952045e-009
-1.130002e-008
-1.112781e-008
-9.595241e-009
-8.528563e-009
-9.204611e-009
-1.052465e-008
-9.983570e-009
-6.567931e-009
-2.185416e-009
3.072223e-010
3.991029e-010
6.352263e-010
3.621252e-009
8.600017e-009
1.169622e-008
9.907188e-009
4.496715e-009
-1.699864e-010
-1.272609e-009
-5.019797e-010
-1.854935e-009
-6.554667e-009
-1.084591e-008
-9.482422e-009
-1.458840e-009
8.164285e-009
1.254102e-008
9.211012e-009
1.967167e-009
-3.246170e-009
-3.955297e-009
-2.601325e-009
-2.796805e-009
-4.817606e-009
-5.253213e-009
-1.084220e-009
6.259822e-009
1.127031e-008
9.068777e-009
8.358544e-011
-9.666101e-009
-1.305195e-008
-7.370981e-009
3.494432e-009
1.187660e-008
-7.975937e-009
-4.610435e-009
6.019951e-010
4.738176e-009
4.844891e-009
4.760972e-010
-5.014367e-009
-6.683761e-009
-2.516213e-009
4.125128e-009
7.214415e-009
3.862144e-009
-2.623875e-009
-5.937258e-009
-3.232571e-009
1.945620e-009
3.561983e-009
-2.662884e-010
-5.132255e-009
-5.134604e-009
6.122736e-010
6.892885e-009
7.862537e-009
3.021010e-009
-2.707111e-009
-4.489950e-009
-2.394680e-009
-4.567265e-010
-1.662967e-009
-4.762420e-009
-6.153067e-009
-4.132240e-009
-5.282061e-010
1.725738e-009
1.821972e-009
1.442166e-009
2.340384e-009
4.328946e-009
5.855623e-009
6.029796e-009
5.493917e-009
5.351451e-009
5.795596e-009
6.138693e-009
5.925907e-009
5.516823e-009
5.457849e-009
5.662560e-009
5.579302e-009
5.070904e-009
4.715899e-009
5.039702e-009
5.698111e-009
5.795620e-009
5.043800e-009
4.262892e-009
4.446767e-009
5.446882e-009
5.959741e-009
4.999372e-009
3.150547e-009
1.999101e-009
2.264460e-009
2.824504e-009
1.923697e-009
-7.039577e-010
-3.287650e-009
-3.844317e-009
-2.395706e-009
-9.919712e-010
-1.378629e-009
-2.910014e-009
-3.180196e-009
-8.082129e-010
2.729101e-009
4.400896e-009
2.772744e-009
-4.291603e-010
-2.108630e-009
-1.034529e-009
9.897676e-010
1.259826e-009
-7.763742e-010
-2.894644e-009
-2.546220e-009
3.145793e-010
3.073621e-009
3.102786e-009
4.008561e-010
-2.455247e-009
-2.870862e-009
-6.538149e-010
1.994951e-009
2.670299e-009
8.937657e-010
-1.681863e-009
-2.876202e-009
-1.779472e-009
6.885230e-010
2.637489e-009
4.065939e-008
2.992064e-008
1.433283e-008
8.752977e-010
-7.307132e-009
-1.146227e-008
-1.362674e-008
-1.324965e-008
-7.846687e-009
3.065980e-009
1.520453e-008
2.137555e-008
1.678499e-008
3.091864e-009
-1.242317e-008
-2.177706e-008
-2.115993e-008
-1.230688e-008
-2.835002e-010
9.848728e-009
1.518117e-008
1.533992e-008
1.173256e-008
6.381266e-009
8.420504e-010
-4.286228e-009
-8.960393e-009
-1.282831e-008
-1.489756e-008
-1.423861e-008
-1.100707e-008
-6.563639e-009
-2.416615e-009
9.296465e-010
4.005644e-009
7.357302e-009
1.071232e-008
1.324450e-008
1.449974e-008
1.483507e-008
1.492619e-008
1.504317e-008
1.496703e-008
1.452651e-008
1.397790e-008
1.374107e-008
1.387244e-008
1.397209e-008
1.364531e-008
1.295353e-008
1.233547e-008
1.213257e-008
1.228287e-008
1.248494e-008
1.257051e-008
1.263990e-008
1.284956e-008
1.313956e-008
1.320706e-008
1.272768e-008
1.158000e-008
9.869515e-009
7.768037e-009
5.342821e-009
2.534177e-009
-6.942685e-010
-4.151479e-009
-7.338204e-009
-9.591419e-009
-1.038182e-008
-9.553249e-009
-7.328605e-009
-4.109997e-009
-2.903948e-010
3.721785e-009
7.293151e-009
9.442933e-009
9.100163e-009
5.754378e-009
1.096901e-010
-5.840043e-009
-9.617214e-009
-9.592146e-009
-5.951216e-009
-5.501457e-010
4.263646e-009
6.929690e-009
7.099172e-009
5.134865e-009
1.525360e-009
-3.012254e-009
-6.989296e-009
-8.235572e-009
-5.234931e-009
1.153308e-009
7.381288e-009
9.245743e-009
5.065290e-009
-2.617359e-009
-8.542372e-009
5.366087e-008
3.566538e-008
1.064678e-008
-7.759734e-009
-1.299272e-008
-8.867040e-009
-4.258933e-009
-4.373638e-009
-6.522687e-009
-4.027416e-009
5.723660e-009
1.703684e-008
2.001801e-008
9.623886e-009
-8.739477e-009
-2.265537e-008
-2.254358e-008
-9.321768e-009
6.798533e-009
1.505377e-008
1.247531e-008
4.749184e-009
-2.965188e-010
1.196441e-010
2.435660e-009
1.669781e-009
-3.045750e-009
-7.858084e-009
-8.540588e-009
-4.828137e-009
-3.100601e-010
1.523250e-009
5.837540e-010
-4.517809e-010
5.179180e-010
2.885568e-009
4.468022e-009
4.139654e-009
2.847252e-009
2.175867e-009
2.502122e-009
2.888691e-009
2.509222e-009
1.657181e-009
1.223502e-009
1.543619e-009
2.109068e-009
2.315397e-009
2.119001e-009
1.830362e-009
1.558887e-009
1.192382e-009
8.468230e-010
9.422466e-010
1.625912e-009
2.357547e-009
2.431000e-009
1.921053e-009
1.756475e-009
2.592338e-009
3.795689e-009
3.965690e-009
2.584498e-009
8.161924e-010
2.764759e-010
1.050150e-009
1.372743e-009
-3.897052e-010
-3.613206e-009
-5.723675e-009
-4.850852e-009
-1.928912e-009
2.496773e-010
1.438000e-010
-7.329853e-010
4.765721e-010
4.432643e-009
8.154025e-009
7.570423e-009
1.704639e-009
-5.824902e-009
-9.727789e-009
-7.658929e-009
-2.050476e-009
2.518789e-009
3.639670e-009
2.751214e-009
2.728408e-009
4.181984e-009
4.539086e-009
9.993495e-010
-5.679157e-009
-1.069418e-008
-9.031503e-009
-3.317938e-010
9.817484e-009
1.379163e-008
8.042826e-009
-3.696240e-009
-1.295929e-008
2.779111e-008
1.298465e-008
-6.095812e-009
-1.613133e-008
-1.091051e-008
4.024265e-009
1.579553e-008
1.456989e-008
1.608947e-009
-1.197122e-008
-1.498448e-008
-5.955051e-009
6.051953e-009
1.034532e-008
4.723779e-009
-3.031405e-009
-3.639147e-009
3.876741e-009
1.107580e-008
8.833622e-009
-3.035046e-009
-1.513217e-008
-1.743280e-008
-8.676265e-009
3.150880e-009
9.178095e-009
7.877575e-009
4.992176e-009
6.196842e-009
1.092142e-008
1.366797e-008
1.054343e-008
3.396523e-009
-2.629094e-009
-4.702669e-009
-4.631118e-009
-5.875334e-009
-9.340580e-009
-1.278117e-008
-1.387825e-008
-1.288712e-008
-1.190168e-008
-1.217624e-008
-1.296975e-008
-1.297515e-008
-1.209931e-008
-1.132608e-008
-1.120648e-008
-1.122372e-008
-1.079148e-008
-1.027095e-008
-1.044999e-008
-1.123293e-008
-1.153709e-008
-1.075318e-008
-9.804266e-009
-1.012724e-008
-1.165418e-008
-1.247721e-008
-1.096716e-008
-7.885475e-009
-5.688624e-009
-5.553749e-009
-5.686028e-009
-3.243826e-009
2.112283e-009
7.288573e-009
8.866131e-009
6.863483e-009
4.714603e-009
5.246904e-009
7.197603e-009
6.459654e-009
9.411709e-010
-6.378722e-009
-9.883557e-009
-6.911980e-009
-5.478729e-010
3.475504e-009
2.530489e-009
-5.754857e-010
-1.077460e-009
2.308788e-009
5.874334e-009
4.950737e-009
-8.265251e-010
-6.650283e-009
-7.096624e-009
-1.522340e-009
5.123244e-009
6.885781e-009
2.329031e-009
-4.226508e-009
-6.747132e-009
-2.923030e-009
3.897323e-009
7.761831e-009
5.258413e-009
-1.676685e-009
-7.457658e-009
-7.285141e-009
-1.161443e-008
-1.628813e-008
-1.545487e-008
-5.499636e-009
1.086557e-008
2.437490e-008
2.495730e-008
1.008560e-008
-1.163682e-008
-2.608849e-008
-2.450161e-008
-1.002055e-008
6.050204e-009
1.445428e-008
1.466709e-008
1.218669e-008
1.057905e-008
7.565373e-009
-7.529862e-010
-1.300366e-008
-2.160675e-008
-1.959357e-008
-7.927118e-009
4.893920e-009
1.082775e-008
9.450577e-009
6.892457e-009
8.270282e-009
1.221808e-008
1.320576e-008
8.348019e-009
7.143864e-010
-4.262779e-009
-4.655070e-009
-3.433918e-009
-4.358839e-009
-7.637337e-009
-1.025835e-008
-9.951356e-009
-7.702924e-009
-6.143894e-009
-6.339322e-009
-7.019874e-009
-6.738003e-009
-5.776497e-009
-5.420143e-009
-5.933098e-009
-6.170505e-009
-5.295606e-009
-4.106952e-009
-4.038216e-009
-5.150653e-009
-5.927870e-009
-5.313317e-009
-4.313931e-009
-4.860723e-009
-7.181562e-009
-9.104793e-009
-8.474035e-009
-5.847681e-009
-4.002756e-009
-4.563308e-009
-5.773958e-009
-4.332408e-009
6.418829e-010
6.199614e-009
8.590875e-009
7.359458e-009
5.697749e-009
6.510777e-009
8.704835e-009
8.130757e-009
2.339954e-009
-6.132924e-009
-1.173954e-008
-1.113029e-008
-6.055060e-009
-1.023724e-009
1.446902e-009
2.730493e-009
5.312171e-009
8.830644e-009
9.684341e-009
4.861223e-009
-4.132807e-009
-1.162637e-008
-1.235829e-008
-5.916814e-009
3.066138e-009
8.839553e-009
8.764155e-009
4.372038e-009
-8.190180e-010
-4.108238e-009
-4.742333e-009
-3.319060e-009
-8.417837e-010
1.668702e-009
3.247254e-009
-2.509281e-008
-1.687009e-008
-6.954392e-009
-1.467835e-009
-8.000542e-011
2.348582e-009
8.439289e-009
1.391189e-008
1.160407e-008
-1.698211e-010
-1.417624e-008
-1.997167e-008
-1.325362e-008
4.956269e-010
1.136774e-008
1.354937e-008
8.720411e-009
2.261313e-009
-2.374906e-009
-5.148309e-009
-6.677404e-009
-6.021386e-009
-2.130004e-009
3.356740e-009
6.380350e-009
4.327588e-009
-9.044320e-010
-4.601145e-009
-4.115525e-009
-1.435268e-009
-4.957149e-010
-2.437995e-009
-4.364712e-009
-2.908586e-009
1.755734e-009
6.163884e-009
7.557279e-009
6.757510e-009
6.709222e-009
8.803765e-009
1.149456e-008
1.254471e-008
1.177607e-008
1.094112e-008
1.124332e-008
1.190406e-008
1.151364e-008
1.015658e-008
9.400666e-009
1.019571e-008
1.153188e-008
1.169077e-008
1.047983e-008
9.505478e-009
1.006458e-008
1.135456e-008
1.136951e-008
9.434532e-009
7.168021e-009
6.550215e-009
7.411203e-009
7.484383e-009
5.088402e-009
1.249351e-009
-1.336630e-009
-1.332694e-009
-2.078207e-010
-3.873636e-010
-2.299843e-009
-3.810296e-009
-2.713508e-009
6.065327e-010
3.396160e-009
3.338760e-009
7.871803e-010
-1.906383e-009
-2.928686e-009
-2.465792e-009
-1.717518e-009
-1.055461e-009
2.840498e-010
2.699601e-009
4.969067e-009
5.015417e-009
2.007384e-009
-2.545373e-009
-5.944285e-009
-6.453440e-009
-4.259309e-009
-6.316304e-010
3.264394e-009
6.433306e-009
7.422700e-009
4.682943e-009
-1.634329e-009
-8.337599e-009
-1.061030e-008
-5.855144e-009
3.390891e-009
1.070410e-008
-2.746320e-008
-8.316624e-009
1.328997e-008
1.927012e-008
6.217841e-009
-1.257908e-008
-2.023257e-008
-1.135766e-008
4.724912e-009
1.422902e-008
1.153216e-008
2.363049e-009
-3.820908e-009
-3.318625e-009
-2.866093e-010
-7.898594e-010
-5.965544e-009
-1.109095e-008
-1.052979e-008
-3.004244e-009
7.568856e-009
1.546063e-008
1.703275e-008
1.224881e-008
3.778465e-009
-4.774705e-009
-1.049773e-008
-1.235452e-008
-1.146891e-008
-9.967634e-009
-8.966756e-009
-7.555402e-009
-4.022602e-009
1.830450e-009
7.919543e-009
1.171941e-008
1.275055e-008
1.286240e-008
1.398053e-008
1.596462e-008
1.704412e-008
1.616471e-008
1.432890e-008
1.336405e-008
1.374832e-008
1.419363e-008
1.340442e-008
1.174145e-008
1.074497e-008
1.120096e-008
1.219822e-008
1.230495e-008
1.134964e-008
1.061229e-008
1.124556e-008
1.288100e-008
1.406326e-008
1.390847e-008
1.298496e-008
1.245141e-008
1.256981e-008
1.234103e-008
1.059446e-008
7.213519e-009
3.181025e-009
-4.269236e-010
-3.284826e-009
-5.687357e-009
-7.809803e-009
-9.251403e-009
-9.240105e-009
-7.174251e-009
-3.072872e-009
2.198622e-009
6.988636e-009
9.415508e-009
8.420006e-009
4.649339e-009
2.181973e-010
-2.782567e-009
-3.810570e-009
-3.901144e-009
-4.090965e-009
-3.948395e-009
-2.028414e-009
1.992487e-009
5.897029e-009
6.298647e-009
1.997021e-009
-4.042742e-009
-6.667885e-009
-3.223026e-009
3.460836e-009
7.123819e-009
3.800801e-009
-4.075633e-009
-9.419848e-009
-6.884802e-009
1.963248e-009
9.722889e-009
-3.154412e-008
-6.345852e-009
2.297201e-008
3.215625e-008
1.397638e-008
-1.650996e-008
-3.532724e-008
-2.920406e-008
-4.740265e-009
1.922027e-008
2.763389e-008
1.948100e-008
4.959017e-009
-5.415903e-009
-8.910980e-009
-9.579396e-009
-1.126792e-008
-1.270219e-008
-9.345141e-009
6.660499e-010
1.309005e-008
2.031747e-008
1.767213e-008
7.339641e-009
-3.554673e-009
-8.734890e-009
-7.228544e-009
-2.951608e-009
-4.454395e-010
-9.365655e-010
-2.061861e-009
-9.467015e-010
2.660475e-009
6.191177e-009
6.920402e-009
4.631481e-009
1.611012e-009
1.616145e-010
3.499546e-010
2.898051e-010
-1.558380e-009
-4.688192e-009
-7.206028e-009
-7.907932e-009
-7.399583e-009
-7.189350e-009
-8.007448e-009
-9.249191e-009
-9.914723e-009
-9.744251e-009
-9.308115e-009
-9.204837e-009
-9.420129e-009
-9.438770e-009
-8.766751e-009
-7.281684e-009
-5.264174e-009
-3.256416e-009
-1.777746e-009
-9.130434e-010
-1.203775e-010
1.307864e-009
3.349871e-009
4.909235e-009
4.703732e-009
2.680901e-009
3.417087e-010
-6.898128e-010
-4.595415e-010
-6.991721e-010
-2.708740e-009
-5.319082e-009
-5.474123e-009
-1.292379e-009
5.468905e-009
1.040256e-008
1.025658e-008
5.800471e-009
7.828665e-010
-1.922280e-009
-2.861970e-009
-4.522631e-009
-7.540244e-009
-9.012843e-009
-5.219901e-009
3.775456e-009
1.260664e-008
1.441438e-008
6.907848e-009
-5.000254e-009
-1.278291e-008
-1.119425e-008
-2.428070e-009
6.075222e-009
8.085426e-009
3.516225e-009
-2.336311e-009
-4.132593e-009
-1.260914e-009
2.254726e-009
-3.856926e-008
-1.694185e-008
1.084446e-008
2.550131e-008
1.820463e-008
-3.430864e-009
-2.197946e-008
-2.383179e-008
-8.997109e-009
1.024222e-008
1.995239e-008
1.528440e-008
2.733104e-009
-6.951938e-009
-8.102106e-009
-3.430340e-009
6.397256e-010
9.743125e-010
-1.015383e-010
1.055418e-009
4.239635e-009
5.250042e-009
9.602842e-010
-6.187235e-009
-9.612128e-009
-4.879761e-009
5.637853e-009
1.468366e-008
1.674282e-008
1.266330e-008
7.815541e-009
6.131510e-009
6.399749e-009
4.366992e-009
-2.138988e-009
-1.078101e-008
-1.733002e-008
-2.007530e-008
-2.114922e-008
-2.369372e-008
-2.839988e-008
-3.320312e-008
-3.597066e-008
-3.675478e-008
-3.722095e-008
-3.845772e-008
-4.000131e-008
-4.091975e-008
-4.113723e-008
-4.124630e-008
-4.138504e-008
-4.098142e-008
-3.971663e-008
-3.816095e-008
-3.697520e-008
-3.575035e-008
-3.331113e-008
-2.935900e-008
-2.524789e-008
-2.251785e-008
-2.078526e-008
-1.781204e-008
-1.209924e-008
-5.026855e-009
2.885320e-010
2.405190e-009
3.233850e-009
5.722499e-009
1.001818e-008
1.269026e-008
1.031025e-008
3.580162e-009
-2.745413e-009
-4.356133e-009
-1.530140e-009
1.560384e-009
1.541846e-009
-7.017376e-010
-1.554311e-009
7.220757e-010
3.640951e-009
3.170572e-009
-1.476290e-009
-6.304659e-009
-6.178718e-009
-3.986633e-011
7.611513e-009
1.051385e-008
6.087439e-009
-2.483091e-009
-9.097857e-009
-9.607157e-009
-4.490978e-009
2.318809e-009
6.743646e-009
7.070610e-009
4.184814e-009
1.647604e-010
-3.203514e-009
-5.014238e-009
-2.651335e-008
-2.163872e-008
-1.185159e-008
7.529114e-010
1.108486e-008
1.396210e-008
8.632067e-009
2.356008e-011
-5.355867e-009
-5.199242e-009
-2.899019e-009
-3.075124e-009
-5.950162e-009
-6.851985e-009
-1.574234e-009
8.258714e-009
1.587411e-008
1.555544e-008
7.805445e-009
-1.807694e-009
-8.333174e-009
-1.115566e-008
-1.215420e-008
-1.151051e-008
-6.919834e-009
2.658602e-009
1.360858e-008
1.951882e-008
1.698534e-008
8.994861e-009
1.833988e-009
-1.318811e-009
-3.162776e-009
-8.533563e-009
-1.858227e-008
-2.945261e-008
-3.668021e-008
-4.002285e-008
-4.325927e-008
-4.957558e-008
-5.813860e-008
-6.560953e-008
-7.028114e-008
-7.369375e-008
-7.813486e-008
-8.357449e-008
-8.790607e-008
-8.982225e-008
-9.033569e-008
-9.103741e-008
-9.166516e-008
-9.040637e-008
-8.653486e-008
-8.170123e-008
-7.793939e-008
-7.494021e-008
-7.033619e-008
-6.287359e-008
-5.440433e-008
-4.789815e-008
-4.375326e-008
-3.909281e-008
-3.119901e-008
-2.102072e-008
-1.236377e-008
-7.543936e-009
-4.693400e-009
-9.102475e-011
7.096329e-009
1.325982e-008
1.395529e-008
8.666821e-009
1.406947e-009
-3.364303e-009
-4.784231e-009
-5.223800e-009
-6.426749e-009
-6.993264e-009
-4.183519e-009
2.212872e-009
8.610938e-009
1.059625e-008
6.968792e-009
6.519654e-010
-4.172541e-009
-5.457035e-009
-3.997077e-009
-1.613139e-009
5.581759e-010
2.027548e-009
2.192365e-009
6.179488e-010
-1.806880e-009
-2.799758e-009
-6.673606e-010
3.456756e-009
5.922681e-009
3.802420e-009
-1.955391e-009
-6.880091e-009
2.048838e-008
-4.357701e-010
-2.322965e-008
-2.713679e-008
-8.193824e-009
1.798209e-008
3.077453e-008
2.217206e-008
1.482968e-009
-1.529894e-008
-1.956342e-008
-1.438686e-008
-7.452398e-009
-2.265622e-009
3.048781e-009
1.006845e-008
1.577484e-008
1.507652e-008
6.823688e-009
-4.069490e-009
-1.087729e-008
-1.079120e-008
-6.106020e-009
-6.222882e-010
3.768097e-009
6.717641e-009
7.129423e-009
3.055386e-009
-5.656029e-009
-1.578072e-008
-2.319463e-008
-2.717388e-008
-3.139542e-008
-4.000741e-008
-5.305909e-008
-6.661505e-008
-7.746015e-008
-8.682185e-008
-9.869537e-008
-1.148581e-007
-1.326226e-007
-1.479551e-007
-1.600078e-007
-1.715025e-007
-1.846913e-007
-1.981086e-007
-2.081555e-007
-2.133312e-007
-2.156439e-007
-2.175164e-007
-2.183577e-007
-2.153139e-007
-2.071733e-007
-1.962455e-007
-1.856708e-007
-1.755961e-007
-1.631974e-007
-1.466232e-007
-1.278769e-007
-1.109405e-007
-9.741473e-008
-8.506163e-008
-7.101258e-008
-5.564310e-008
-4.236353e-008
-3.362880e-008
-2.802492e-008
-2.187850e-008
-1.339473e-008
-4.502570e-009
1.471754e-009
3.315094e-009
2.649794e-009
1.568355e-009
4.501025e-010
-1.486753e-009
-4.038313e-009
-5.328139e-009
-3.581456e-009
8.245789e-010
5.513678e-009
8.171346e-009
8.033474e-009
5.423497e-009
6.952783e-010
-5.442685e-009
-1.063829e-008
-1.119109e-008
-5.073819e-009
4.933417e-009
1.203148e-008
1.069260e-008
1.908665e-009
-7.088806e-009
-9.084059e-009
-3.385590e-009
3.812143e-009
5.661663e-009
1.289342e-009
-3.802096e-009
8.014482e-008
3.856008e-008
-1.365636e-008
-4.013051e-008
-2.782220e-008
5.362020e-009
2.888703e-008
2.587699e-008
4.187761e-009
-1.501949e-008
-1.771934e-008
-7.018353e-009
4.039258e-009
6.616253e-009
2.529262e-009
-1.158162e-009
-1.003443e-009
4.636633e-010
-1.952990e-010
-2.229841e-009
-1.643767e-009
3.617685e-009
1.068648e-008
1.417097e-008
1.079428e-008
1.308760e-009
-1.138736e-008
-2.488931e-008
-3.799931e-008
-5.013954e-008
-6.148814e-008
-7.383789e-008
-9.018400e-008
-1.123772e-007
-1.392155e-007
-1.676392e-007
-1.961472e-007
-2.264455e-007
-2.610288e-007
-2.993422e-007
-3.372726e-007
-3.709321e-007
-4.003614e-007
-4.286076e-007
-4.571826e-007
-4.834328e-007
-5.030809e-007
-5.148038e-007
-5.211790e-007
-5.249061e-007
-5.251259e-007
-5.184444e-007
-5.032627e-007
-4.818953e-007
-4.578775e-007
-4.319639e-007
-4.018408e-007
-3.657945e-007
-3.256924e-007
-2.856941e-007
-2.484592e-007
-2.134644e-007
-1.791390e-007
-1.458651e-007
-1.161971e-007
-9.232327e-008
-7.396412e-008
-5.894148e-008
-4.530856e-008
-3.250642e-008
-2.079832e-008
-1.042030e-008
-1.681275e-009
4.590876e-009
7.492606e-009
7.170095e-009
5.096506e-009
2.855061e-009
8.418539e-010
-1.352182e-009
-3.289730e-009
-3.175997e-009
1.762553e-010
4.880696e-009
6.466001e-009
1.972579e-009
-6.146125e-009
-1.099296e-008
-7.227088e-009
3.331910e-009
1.239895e-008
1.229575e-008
2.970412e-009
-7.841873e-009
-1.162287e-008
-6.566388e-009
1.518555e-009
5.398861e-009
3.290645e-009
-3.317971e-010
1.004210e-007
5.962024e-008
5.099462e-009
-3.000227e-008
-3.095803e-008
-9.475556e-009
9.904916e-009
1.166901e-008
1.350790e-010
-8.635923e-009
-4.082913e-009
9.351762e-009
1.818721e-008
1.367913e-008
-5.841163e-010
-1.344284e-008
-1.682391e-008
-1.137975e-008
-3.094227e-009
3.610546e-009
8.598190e-009
1.300809e-008
1.542278e-008
1.206171e-008
4.707229e-010
-1.779762e-008
-3.850001e-008
-5.849754e-008
-7.827277e-008
-1.012886e-007
-1.314765e-007
-1.711708e-007
-2.204866e-007
-2.777553e-007
-3.405284e-007
-4.069188e-007
-4.765759e-007
-5.501802e-007
-6.274318e-007
-7.054664e-007
-7.798426e-007
-8.476009e-007
-9.091480e-007
-9.665547e-007
-1.019929e-006
-1.066073e-006
-1.101158e-006
-1.124349e-006
-1.138015e-006
-1.144270e-006
-1.142061e-006
-1.128263e-006
-1.101327e-006
-1.063007e-006
-1.016319e-006
-9.624868e-007
-9.005898e-007
-8.299823e-007
-7.523475e-007
-6.711237e-007
-5.894189e-007
-5.089508e-007
-4.307549e-007
-3.562429e-007
-2.873249e-007
-2.258804e-007
-1.734052e-007
-1.307849e-007
-9.769390e-008
-7.205017e-008
-5.071300e-008
-3.151043e-008
-1.476121e-008
-2.424855e-009
4.485939e-009
7.375992e-009
8.610617e-009
8.791226e-009
6.232653e-009
-2.470971e-010
-8.227712e-009
-1.229039e-008
-8.603768e-009
8.738550e-010
9.235696e-009
1.034805e-008
4.211362e-009
-3.217717e-009
-5.601922e-009
-1.842176e-009
3.488091e-009
4.933140e-009
1.276478e-009
-3.802908e-009
-5.682819e-009
-3.153627e-009
9.467208e-010
2.963656e-009
1.978192e-009
2.105290e-010
4.824712e-008
3.431444e-008
1.377429e-008
-3.504505e-009
-1.141384e-008
-1.088840e-008
-7.622074e-009
-6.173629e-009
-5.847426e-009
-2.371008e-009
6.259967e-009
1.592325e-008
1.901836e-008
1.152383e-008
-2.488520e-009
-1.363711e-008
-1.489134e-008
-6.947340e-009
3.338426e-009
9.212695e-009
8.653862e-009
3.577717e-009
-4.279778e-009
-1.585070e-008
-3.336099e-008
-5.755292e-008
-8.731351e-008
-1.223553e-007
-1.658063e-007
-2.234636e-007
-3.000291e-007
-3.958334e-007
-5.069831e-007
-6.284243e-007
-7.568735e-007
-8.912743e-007
-1.031083e-006
-1.174391e-006
-1.317466e-006
-1.455808e-006
-1.585802e-006
-1.705765e-006
-1.815586e-006
-1.915148e-006
-2.002883e-006
-2.075985e-006
-2.132234e-006
-2.171493e-006
-2.195110e-006
-2.203830e-006
-2.196578e-006
-2.171446e-006
-2.127579e-006
-2.065792e-006
-1.987562e-006
-1.893963e-006
-1.785715e-006
-1.663865e-006
-1.530041e-006
-1.386372e-006
-1.235742e-006
-1.082139e-006
-9.301054e-007
-7.833085e-007
-6.438985e-007
-5.138045e-007
-3.965434e-007
-2.968257e-007
-2.175319e-007
-1.571124e-007
-1.106173e-007
-7.365369e-008
-4.508786e-008
-2.563647e-008
-1.430569e-008
-7.222889e-009
-5.452204e-010
5.881327e-009
8.638628e-009
4.999213e-009
-3.084616e-009
-9.641038e-009
-9.529386e-009
-2.734489e-009
5.890507e-009
1.079440e-008
9.722309e-009
4.386111e-009
-1.738591e-009
-5.843426e-009
-6.720855e-009
-4.568127e-009
-6.792141e-010
2.901266e-009
4.303671e-009
3.091436e-009
6.293050e-010
-1.123109e-009
-1.357765e-009
-8.924355e-010
-4.999328e-008
-2.501974e-008
6.571858e-009
2.348120e-008
1.817792e-008
4.710680e-010
-1.341137e-008
-1.462311e-008
-6.253357e-009
2.875794e-009
6.887488e-009
5.875520e-009
2.856527e-009
5.048692e-011
-1.608987e-009
-1.093024e-009
2.565369e-009
8.200324e-009
1.162066e-008
8.084655e-009
-3.909908e-009
-2.174109e-008
-4.202780e-008
-6.488991e-008
-9.479767e-008
-1.376410e-007
-1.977571e-007
-2.780664e-007
-3.821095e-007
-5.142072e-007
-6.764628e-007
-8.657555e-007
-1.074545e-006
-1.295158e-006
-1.523218e-006
-1.756863e-006
-1.993203e-006
-2.226341e-006
-2.449106e-006
-2.656355e-006
-2.846292e-006
-3.018849e-006
-3.173324e-006
-3.307714e-006
-3.419987e-006
-3.509564e-006
-3.577438e-006
-3.624944e-006
-3.652500e-006
-3.659527e-006
-3.645411e-006
-3.610182e-006
-3.553992e-006
-3.476105e-006
-3.375001e-006
-3.249830e-006
-3.101466e-006
-2.931597e-006
-2.740940e-006
-2.529315e-006
-2.298227e-006
-2.053085e-006
-1.801989e-006
-1.552046e-006
-1.307475e-006
-1.071818e-006
-8.513743e-007
-6.550422e-007
-4.898961e-007
-3.571090e-007
-2.526821e-007
-1.719253e-007
-1.124507e-007
-7.264145e-008
-4.828997e-008
-3.228879e-008
-1.838839e-008
-4.989452e-009
5.212426e-009
9.247753e-009
7.295177e-009
2.491251e-009
-1.692305e-009
-3.343249e-009
-2.081220e-009
1.453275e-009
5.378830e-009
6.654639e-009
3.009909e-009
-4.271199e-009
-1.003352e-008
-9.087698e-009
-1.256385e-009
7.627137e-009
1.057803e-008
5.841602e-009
-1.631395e-009
-5.266716e-009
-3.298146e-009
1.271692e-010
-1.225912e-007
-7.119819e-008
-3.980311e-009
3.702667e-008
3.554585e-008
8.911483e-009
-1.241115e-008
-1.229375e-008
1.352742e-009
9.890532e-009
3.941094e-009
-9.484635e-009
-1.668123e-008
-1.119922e-008
1.921312e-009
1.321427e-008
1.743828e-008
1.508997e-008
7.759188e-009
-5.441986e-009
-2.654804e-008
-5.593387e-008
-9.312251e-008
-1.409201e-007
-2.076660e-007
-3.043128e-007
-4.391709e-007
-6.155785e-007
-8.336497e-007
-1.092241e-006
-1.387871e-006
-1.712380e-006
-2.053541e-006
-2.399203e-006
-2.740665e-006
-3.071594e-006
-3.384338e-006
-3.668893e-006
-3.916505e-006
-4.124035e-006
-4.294111e-006
-4.430994e-006
-4.536839e-006
-4.612175e-006
-4.659308e-006
-4.684225e-006
-4.694627e-006
-4.696174e-006
-4.690832e-006
-4.678707e-006
-4.660844e-006
-4.639449e-006
-4.615014e-006
-4.583667e-006
-4.538113e-006
-4.471446e-006
-4.379541e-006
-4.259358e-006
-4.105730e-006
-3.911561e-006
-3.672378e-006
-3.390592e-006
-3.074709e-006
-2.734638e-006
-2.378743e-006
-2.015783e-006
-1.658377e-006
-1.322498e-006
-1.022318e-006
-7.654495e-007
-5.530856e-007
-3.837520e-007
-2.556683e-007
-1.654344e-007
-1.059223e-007
-6.721913e-008
-4.040110e-008
-2.037385e-008
-5.396756e-009
5.055234e-009
1.118929e-008
1.244481e-008
8.073533e-009
-4.972057e-010
-8.354673e-009
-9.835366e-009
-3.741832e-009
4.528613e-009
7.357840e-009
2.268196e-009
-5.295973e-009
-7.244203e-009
-1.162462e-009
7.005281e-009
8.992008e-009
2.791050e-009
-5.276485e-009
-7.250128e-009
-1.862174e-009
4.368612e-009
-1.133216e-007
-6.497622e-008
-2.929541e-009
3.262326e-008
2.787321e-008
2.267917e-009
-1.356611e-008
-6.329010e-009
1.137970e-008
1.774701e-008
4.815781e-009
-1.487052e-008
-2.245378e-008
-1.149272e-008
7.412368e-009
1.845282e-008
1.481315e-008
1.170620e-009
-1.543767e-008
-3.479653e-008
-6.389502e-008
-1.111790e-007
-1.833313e-007
-2.878401e-007
-4.361115e-007
-6.411787e-007
-9.112129e-007
-1.245298e-006
-1.634808e-006
-2.066968e-006
-2.525757e-006
-2.990442e-006
-3.436176e-006
-3.838421e-006
-4.177527e-006
-4.439266e-006
-4.612511e-006
-4.689008e-006
-4.667080e-006
-4.555034e-006
-4.369368e-006
-4.128667e-006
-3.849115e-006
-3.545521e-006
-3.235299e-006
-2.939711e-006
-2.680149e-006
-2.472924e-006
-2.327550e-006
-2.249606e-006
-2.244247e-006
-2.315853e-006
-2.463629e-006
-2.677817e-006
-2.940859e-006
-3.232450e-006
-3.532955e-006
-3.821889e-006
-4.074577e-006
-4.262964e-006
-4.361924e-006
-4.355890e-006
-4.240352e-006
-4.018883e-006
-3.700944e-006
-3.303268e-006
-2.851558e-006
-2.377875e-006
-1.913825e-006
-1.484486e-006
-1.106747e-006
-7.907283e-007
-5.405876e-007
-3.539126e-007
-2.221681e-007
-1.337494e-007
-7.754672e-008
-4.405318e-008
-2.439580e-008
-1.058471e-008
1.679930e-009
1.088644e-008
1.233564e-008
4.520388e-009
-6.991915e-009
-1.299645e-008
-8.709274e-009
1.697339e-009
9.084491e-009
8.058965e-009
1.598849e-009
-2.902236e-009
-1.640508e-009
2.106226e-009
2.400255e-009
-2.227069e-009
-6.888843e-009
-5.737168e-009
1.329403e-009
8.044735e-009
-3.127457e-008
-1.232345e-008
9.015090e-009
1.494287e-008
2.739026e-009
-1.329381e-008
-1.602913e-008
-2.114357e-009
1.517883e-008
1.949894e-008
7.690513e-009
-7.531960e-009
-1.091217e-008
-8.624668e-011