# vtk DataFile Version 3.0
vtk output
ASCII
DATASET STRUCTURED_POINTS
DIMENSIONS 100 100 1
SPACING 1 1 1
ORIGIN 0 0 0
POINT_DATA 10000
SCALARS SFBox_profile double
LOOKUP_TABLE default 
0.000000e+000
0.000000e+000
0.000000e+000
0.000000e+000
0.000000e+000
0.000000e+000
0.000000e+000
0.000000e+000
0.000000e+000
0.000000e+000
0.000000e+000
0.000000e+000
0.000000e+000
0.000000e+000
0.000000e+000
0.000000e+000
0.000000e+000
0.000000e+000
0.000000e+000
0.000000e+000
0.000000e+000
0.000000e+000
0.000000e+000
0.000000e+000
0.000000e+000
0.000000e+000
0.000000e+000
0.000000e+000
0.000000e+000
0.000000e+000
0.000000e+000
0.000000e+000
0.000000e+000
0.000000e+000
0.000000e+000
0.000000e+000
0.000000e+000
0.000000e+000
0.000000e+000
0.000000e+000
0.000000e+000
0.000000e+000
0.000000e+000
0.000000e+000
0.000000e+000
0.000000e+000
0.000000e+000
0.000000e+000
0.000000e+000
0.000000e+000
0.000000e+000
0.000000e+000
0.000000e+000
0.000000e+000
0.000000e+000
0.000000e+000
0.000000e+000
0.000000e+000
0.000000e+000
0.000000e+000
0.000000e+000
0.000000e+000
0.000000e+000
0.000000e+000
0.000000e+000
0.000000e+000
0.000000e+000
0.000000e+000
0.000000e+000
0.000000e+000
0.000000e+000
0.000000e+000
0.000000e+000
0.000000e+000
0.000000e+000
0.000000e+000
0.000000e+000
0.000000e+000
0.000000e+000
0.000000e+000
0.000000e+000
0.000000e+000
0.000000e+000
0.000000e+000
0.000000e+000
0.000000e+000
0.000000e+000
0.000000e+000
0.000000e+000
0.000000e+000
0.000000e+000
0.000000e+000
0.000000e+000
0.000000e+000
0.000000e+000
0.000000e+000
0.000000e+000
0.000000e+000
0.000000e+000
0.000000e+000
-6.797394e-009
-4.343870e-009
-6.968638e-010
2.329758e-009
3.362622e-009
2.174339e-009
-2.840782e-010
-2.495307e-009
-3.235140e-009
-2.179374e-009
4.005272e-011
2.278005e-009
3.500179e-009
3.234439e-009
1.668359e-009
-5.568882e-010
-2.669967e-009
-4.036054e-009
-4.294741e-009
-3.389807e-009
-1.538753e-009
8.331642e-010
3.193394e-009
5.029920e-009
5.974683e-009
5.879273e-009
4.817705e-009
3.026342e-009
8.170194e-010
-1.499759e-009
-3.662952e-009
-5.482000e-009
-6.841234e-009
-7.695903e-009
-8.062435e-009
-8.003293e-009
-7.608419e-009
-6.977315e-009
-6.205516e-009
-5.376802e-009
-4.560119e-009
-3.809261e-009
-3.163855e-009
-2.651041e-009
-2.287627e-009
-2.082396e-009
-2.038084e-009
-2.152597e-009
-2.419281e-009
-2.826334e-009
-3.355557e-009
-3.980737e-009
-4.665963e-009
-5.364276e-009
-6.017152e-009
-6.555457e-009
-6.902549e-009
-6.980176e-009
-6.717564e-009
-6.063603e-009
-5.001146e-009
-3.561322e-009
-1.834527e-009
2.623512e-011
1.814114e-009
3.292434e-009
4.233959e-009
4.470556e-009
3.943061e-009
2.737115e-009
1.090119e-009
-6.414011e-010
-2.055570e-009
-2.808556e-009
-2.721730e-009
-1.856010e-009
-5.167661e-010
8.303729e-010
1.718277e-009
1.857393e-009
1.257410e-009
2.268778e-010
-7.614817e-010
-1.283814e-009
-1.155252e-009
-5.033476e-010
3.099996e-010
8.755036e-010
9.369092e-010
5.072523e-010
-1.518317e-010
-6.738897e-010
-7.822980e-010
-4.373169e-010
1.438625e-010
6.113305e-010
6.875329e-010
3.350425e-010
-2.187977e-010
-6.226475e-010
-4.636139e-010
-2.635572e-010
7.999411e-012
1.786769e-010
1.484839e-010
-3.847357e-011
-2.187079e-010
-2.213470e-010
3.757009e-012
3.321394e-010
5.315258e-010
4.134638e-010
-2.953838e-011
-5.964281e-010
-9.823853e-010
-9.500034e-010
-4.597788e-010
3.139890e-010
1.077781e-009
1.555865e-009
1.592210e-009
1.179540e-009
4.279478e-010
-4.896637e-010
-1.385789e-009
-2.092029e-009
-2.483227e-009
-2.495362e-009
-2.133267e-009
-1.462835e-009
-5.887379e-010
3.736368e-010
1.321451e-009
2.177060e-009
2.890816e-009
3.438415e-009
3.816561e-009
4.038409e-009
4.128660e-009
4.118313e-009
4.039732e-009
3.922962e-009
3.793639e-009
3.672204e-009
3.573817e-009
3.508477e-009
3.481175e-009
3.492047e-009
3.536538e-009
3.605534e-009
3.685457e-009
3.758423e-009
3.802627e-009
3.793197e-009
3.703754e-009
3.508868e-009
3.187521e-009
2.727476e-009
2.130165e-009
1.415289e-009
6.238793e-010
-1.816900e-010
-9.221727e-010
-1.511154e-009
-1.869536e-009
-1.942825e-009
-1.717694e-009
-1.233268e-009
-5.822990e-010
1.014188e-010
6.701160e-010
9.993902e-010
1.025854e-009
7.712095e-010
3.401721e-010
-1.120442e-010
-4.338357e-010
-5.324898e-010
-4.071339e-010
-1.443137e-010
1.225709e-010
2.727982e-010
2.513610e-010
9.215697e-011
-1.007822e-010
-2.086727e-010
-1.655110e-010
-9.563030e-013
1.723447e-010
2.286300e-010
1.172413e-010
-9.247295e-011
-2.507915e-010
-2.338291e-010
-4.155594e-011
1.916547e-010
2.917443e-010
1.781012e-010
-6.937271e-011
-2.669386e-010
6.565092e-009
4.197704e-009
6.712152e-010
-2.276044e-009
-3.322428e-009
-2.225060e-009
1.521850e-010
2.396892e-009
3.320046e-009
2.506949e-009
4.075723e-010
-1.986021e-009
-3.635791e-009
-3.873607e-009
-2.596787e-009
-2.361517e-010
2.433661e-009
4.556311e-009
5.453159e-009
4.814870e-009
2.774048e-009
-1.598794e-010
-3.274042e-009
-5.864340e-009
-7.410059e-009
-7.663115e-009
-6.647656e-009
-4.597942e-009
-1.871064e-009
1.137952e-009
4.064542e-009
6.621247e-009
8.621347e-009
9.980953e-009
1.070431e-008
1.085973e-008
1.055390e-008
9.909645e-009
9.049538e-009
8.085023e-009
7.110233e-009
6.199513e-009
5.407815e-009
4.772992e-009
4.318956e-009
4.058761e-009
3.997007e-009
4.131253e-009
4.452382e-009
4.943955e-009
5.580742e-009
6.326702e-009
7.132884e-009
7.935833e-009
8.657239e-009
9.205713e-009
9.481595e-009
9.385695e-009
8.832411e-009
7.766813e-009
6.183902e-009
4.146532e-009
1.797008e-009
-6.433660e-010
-2.891905e-009
-4.641984e-009
-5.618554e-009
-5.643749e-009
-4.697822e-009
-2.955667e-009
-7.794420e-010
1.344002e-009
2.915994e-009
3.564116e-009
3.163795e-009
1.896967e-009
2.141495e-010
-1.303655e-009
-2.146820e-009
-2.070964e-009
-1.198856e-009
2.812471e-011
1.044803e-009
1.423052e-009
1.070991e-009
2.613064e-010
-5.330209e-010
-9.054418e-010
-7.298288e-010
-1.975441e-010
3.336562e-010
5.703371e-010
4.422145e-010
9.994015e-011
-2.199484e-010
-3.514450e-010
-2.729959e-010
-7.487175e-011
1.247507e-010
2.423670e-010
7.895909e-009
4.923431e-009
5.852558e-010
-2.858527e-009
-3.801620e-009
-2.149098e-009
7.614685e-010
3.055683e-009
3.429210e-009
1.797907e-009
-8.192571e-010
-2.997587e-009
-3.695274e-009
-2.692611e-009
-5.382379e-010
1.837759e-009
3.562092e-009
4.103002e-009
3.353922e-009
1.576475e-009
-7.217310e-010
-2.933848e-009
-4.507441e-009
-5.079608e-009
-4.554908e-009
-3.098661e-009
-1.053842e-009
1.176558e-009
3.232679e-009
4.857463e-009
5.911993e-009
6.362600e-009
6.256477e-009
5.694924e-009
4.807245e-009
3.727075e-009
2.573886e-009
1.442081e-009
3.978196e-010
-5.185779e-010
-1.287597e-009
-1.904970e-009
-2.376499e-009
-2.713429e-009
-2.928471e-009
-3.032696e-009
-3.033485e-009
-2.933602e-009
-2.731269e-009
-2.421103e-009
-1.995835e-009
-1.448758e-009
-7.768962e-010
1.519942e-011
9.112156e-010
1.878783e-009
2.865872e-009
3.799062e-009
4.585302e-009
5.118847e-009
5.294513e-009
5.027139e-009
4.275173e-009
3.064087e-009
1.503221e-009
-2.116042e-010
-1.816723e-009
-3.023942e-009
-3.584892e-009
-3.363550e-009
-2.395708e-009
-9.110123e-010
7.013888e-010
1.987687e-009
2.566808e-009
2.269391e-009
1.223017e-009
-1.660220e-010
-1.350940e-009
-1.864358e-009
-1.528574e-009
-5.484178e-010
5.778131e-010
1.301486e-009
1.300804e-009
6.407088e-010
-2.768566e-010
-9.448780e-010
-1.031161e-009
-5.464458e-010
1.879463e-010
7.417666e-010
8.221235e-010
4.247819e-010
-1.853096e-010
-6.410691e-010
-6.866606e-010
-3.171786e-010
2.295453e-010
6.192778e-010
1.958276e-009
1.052052e-009
-1.554817e-010
-8.757056e-010
-6.872946e-010
1.678296e-010
9.563447e-010
9.807655e-010
9.546643e-011
-1.155398e-009
-1.884125e-009
-1.457006e-009
6.313860e-011
1.921829e-009
3.107488e-009
2.921278e-009
1.332852e-009
-1.050276e-009
-3.317427e-009
-4.660954e-009
-4.647164e-009
-3.280704e-009
-9.151625e-010
1.897209e-009
4.553679e-009
6.526166e-009
7.457636e-009
7.217453e-009
5.901174e-009
3.775646e-009
1.192384e-009
-1.497602e-009
-4.003041e-009
-6.119469e-009
-7.731969e-009
-8.804835e-009
-9.365638e-009
-9.486861e-009
-9.266895e-009
-8.812692e-009
-8.226500e-009
-7.597761e-009
-6.999567e-009
-6.488043e-009
-6.103154e-009
-5.870001e-009
-5.800157e-009
-5.892776e-009
-6.135221e-009
-6.503073e-009
-6.959631e-009
-7.455252e-009
-7.927103e-009
-8.300048e-009
-8.489542e-009
-8.407427e-009
-7.971412e-009
-7.118406e-009
-5.820819e-009
-4.103519e-009
-2.057590e-009
1.539721e-010
2.303676e-009
4.123846e-009
5.348575e-009
5.769165e-009
5.292771e-009
3.988477e-009
2.102697e-009
2.921201e-011
-1.770524e-009
-2.884886e-009
-3.077148e-009
-2.374543e-009
-1.078388e-009
3.261718e-010
1.342022e-009
1.651179e-009
1.240615e-009
3.974120e-010
-4.333406e-010
-8.639385e-010
-7.466613e-010
-2.305935e-010
3.364988e-010
6.093280e-010
4.413645e-010
-3.319602e-011
-4.839139e-010
-5.942446e-010
-2.742962e-010
2.649516e-010
6.424692e-010
5.722242e-010
8.138685e-011
-4.884975e-010
-7.195594e-010
-4.302926e-010
1.766073e-010
6.567346e-010
-6.491417e-009
-4.181554e-009
-7.165505e-010
2.235909e-009
3.382421e-009
2.420377e-009
8.290089e-011
-2.324752e-009
-3.581766e-009
-3.070381e-009
-9.790273e-010
1.818673e-009
4.122841e-009
4.880280e-009
3.618351e-009
6.707597e-010
-2.923452e-009
-5.828766e-009
-6.950397e-009
-5.847708e-009
-2.845273e-009
1.166462e-009
5.098348e-009
8.012462e-009
9.334148e-009
8.906151e-009
6.931011e-009
3.859036e-009
2.602627e-010
-3.297868e-009
-6.349632e-009
-8.590849e-009
-9.892281e-009
-1.027419e-008
-9.860429e-009
-8.830775e-009
-7.382627e-009
-5.704545e-009
-3.959759e-009
-2.277391e-009
-7.501416e-010
5.627032e-010
1.628729e-009
2.434522e-009
2.978314e-009
3.264125e-009
3.297688e-009
3.084181e-009
2.627773e-009
1.933030e-009
1.008058e-009
-1.309004e-010
-1.453882e-009
-2.911257e-009
-4.428307e-009
-5.901663e-009
-7.199512e-009
-8.167827e-009
-8.644657e-009
-8.483347e-009
-7.583453e-009
-5.925251e-009
-3.600759e-009
-8.317393e-010
2.035850e-009
4.569593e-009
6.323387e-009
6.937886e-009
6.248277e-009
4.367374e-009
1.707578e-009
-1.085762e-009
-3.292017e-009
-4.329893e-009
-3.960262e-009
-2.394414e-009
-2.460047e-010
1.678882e-009
2.687373e-009
2.480142e-009
1.278254e-009
-2.779302e-010
-1.431364e-009
-1.679146e-009
-1.022116e-009
5.495771e-011
8.806042e-010
1.006379e-009
4.718948e-010
-2.574082e-010
-6.433087e-010
-4.653120e-010
4.445520e-011
4.229536e-010
3.694899e-010
-1.759255e-011
-3.557717e-010
-3.345146e-010
8.530430e-012
3.367760e-010
-1.021083e-008
-6.163690e-009
-3.869089e-010
3.954184e-009
4.786734e-009
2.266505e-009
-1.549305e-009
-4.138497e-009
-4.036541e-009
-1.515037e-009
1.836775e-009
4.173129e-009
4.372754e-009
2.450666e-009
-6.433684e-010
-3.568663e-009
-5.158775e-009
-4.809150e-009
-2.623066e-009
6.755556e-010
4.016541e-009
6.355165e-009
7.010480e-009
5.846479e-009
3.244005e-009
-9.125034e-011
-3.377803e-009
-5.963097e-009
-7.434586e-009
-7.641989e-009
-6.661551e-009
-4.731937e-009
-2.180643e-009
6.467011e-010
3.443466e-009
5.977566e-009
8.103591e-009
9.756641e-009
1.093634e-008
1.168834e-008
1.208708e-008
1.222102e-008
1.218032e-008
1.204714e-008
1.188873e-008
1.175314e-008
1.166697e-008
1.163463e-008
1.163878e-008
1.164184e-008
1.158863e-008
1.141040e-008
1.103050e-008
1.037194e-008
9.367629e-009
7.973340e-009
6.182815e-009
4.043072e-009
1.666266e-009
-7.665164e-010
-3.014274e-009
-4.801469e-009
-5.860724e-009
-5.989691e-009
-5.113143e-009
-3.334853e-009
-9.589775e-010
1.538568e-009
3.598411e-009
4.716303e-009
4.598893e-009
3.284912e-009
1.176992e-009
-1.050550e-009
-2.660709e-009
-3.120331e-009
-2.323860e-009
-6.672314e-010
1.091260e-009
2.155635e-009
2.070616e-009
9.613976e-010
-5.190467e-010
-1.542566e-009
-1.578760e-009
-7.036858e-010
4.655228e-010
1.183482e-009
1.064259e-009
3.055372e-010
-5.029780e-010
-8.291589e-010
-5.582502e-010
-3.177400e-012
4.010477e-010
4.376152e-010
2.086111e-010
-3.897908e-011
-1.557234e-010
-1.700332e-010
-5.451285e-009
-2.835505e-009
6.105431e-010
2.613877e-009
2.042366e-009
-3.356371e-010
-2.489784e-009
-2.650480e-009
-5.802993e-010
2.299360e-009
3.946076e-009
3.101218e-009
8.888293e-011
-3.446616e-009
-5.568863e-009
-5.117140e-009
-2.206626e-009
1.981723e-009
5.842968e-009
8.014043e-009
7.792516e-009
5.248472e-009
1.099986e-009
-3.550909e-009
-7.539195e-009
-9.937120e-009
-1.025719e-008
-8.507621e-009
-5.104847e-009
-7.004209e-010
4.001713e-009
8.382883e-009
1.198506e-008
1.453427e-008
1.593052e-008
1.621809e-008
1.554556e-008
1.412298e-008
1.218375e-008
9.956716e-009
7.649431e-009
5.440270e-009
3.475712e-009
1.870111e-009
7.065985e-010
3.859126e-011
-1.085543e-010
2.638328e-010
1.128556e-009
2.432792e-009
4.097914e-009
6.019087e-009
8.064964e-009
1.007817e-008
1.187798e-008
1.326730e-008
1.404629e-008
1.403417e-008
1.309891e-008
1.119190e-008
8.382022e-009
4.880782e-009
1.048118e-009
-2.632406e-009
-5.617097e-009
-7.403742e-009
-7.656307e-009
-6.321822e-009
-3.698384e-009
-4.158711e-010
2.689900e-009
4.795413e-009
5.346080e-009
4.264778e-009
2.018309e-009
-5.188961e-010
-2.387641e-009
-2.940074e-009
-2.128414e-009
-5.231502e-010
9.811439e-010
1.638149e-009
1.241232e-009
1.992629e-010
-7.544525e-010
-1.036442e-009
-5.630499e-010
2.468343e-010
7.986787e-010
7.369083e-010
1.598847e-010
-4.924775e-010
-7.694955e-010
-5.122478e-010
7.048408e-011
5.746454e-010
6.787589e-010
3.390066e-010
-2.066204e-010
-6.039143e-010
4.816499e-009
3.482127e-009
1.217036e-009
-1.218797e-009
-2.877928e-009
-2.970165e-009
-1.300716e-009
1.445769e-009
3.854713e-009
4.438012e-009
2.510005e-009
-1.256195e-009
-5.027159e-009
-6.742047e-009
-5.256474e-009
-1.003393e-009
4.219801e-009
8.173650e-009
9.238877e-009
7.049983e-009
2.472935e-009
-2.908239e-009
-7.443032e-009
-9.913847e-009
-9.773002e-009
-7.149545e-009
-2.705104e-009
2.592323e-009
7.719581e-009
1.181699e-008
1.432411e-008
1.501214e-008
1.393230e-008
1.132381e-008
7.522726e-009
2.892879e-009
-2.218456e-009
-7.505730e-009
-1.271600e-008
-1.764871e-008
-2.214786e-008
-2.609140e-008
-2.938237e-008
-3.194384e-008
-3.371759e-008
-3.466464e-008
-3.476645e-008
-3.402571e-008
-3.246647e-008
-3.013350e-008
-2.709110e-008
-2.342186e-008
-1.922653e-008
-1.462630e-008
-9.767993e-009
-4.831387e-009
-3.588554e-011
4.357807e-009
8.055868e-009
1.075368e-008
1.217485e-008
1.212634e-008
1.056339e-008
7.650315e-009
3.794940e-009
-3.679862e-010
-4.062397e-009
-6.525338e-009
-7.204365e-009
-5.946105e-009
-3.107493e-009
4.754427e-010
3.693702e-009
5.515217e-009
5.369960e-009
3.408143e-009
4.846229e-010
-2.173596e-009
-3.500919e-009
-3.081637e-009
-1.335522e-009
7.183911e-010
2.010904e-009
1.989257e-009
8.810034e-010
-4.980648e-010
-1.275002e-009
-1.060862e-009
-1.587968e-010
6.945362e-010
8.749947e-010
3.172443e-010
-4.662739e-010
-8.103027e-010
-4.367234e-010
3.236079e-010
8.140262e-010
6.101334e-010
-1.175570e-010
-7.495209e-010
1.296552e-008
7.847040e-009
5.393300e-010
-4.970378e-009
-6.079430e-009
-2.965939e-009
1.838923e-009
5.205028e-009
5.235030e-009
2.115707e-009
-2.274310e-009
-5.532164e-009
-5.952741e-009
-3.264342e-009
1.331701e-009
5.747018e-009
7.948795e-009
6.862198e-009
2.834409e-009
-2.549687e-009
-7.188401e-009
-9.340933e-009
-8.242471e-009
-4.236228e-009
1.518652e-009
7.530181e-009
1.241570e-008
1.518220e-008
1.533428e-008
1.285068e-008
8.074605e-009
1.558551e-009
-6.094218e-009
-1.435163e-008
-2.281484e-008
-3.122270e-008
-3.941965e-008
-4.731160e-008
-5.482588e-008
-6.188202e-008
-6.837476e-008
-7.416957e-008
-7.910968e-008
-8.303200e-008
-8.578725e-008
-8.725959e-008
-8.738192e-008
-8.614482e-008
-8.359826e-008
-7.984608e-008
-7.503386e-008
-6.933156e-008
-6.291388e-008
-5.594220e-008
-4.855304e-008
-4.085721e-008
-3.295167e-008
-2.494322e-008
-1.697978e-008
-9.281654e-009
-2.162584e-009
3.972892e-009
8.668247e-009
1.149628e-008
1.217539e-008
1.069535e-008
7.411656e-009
3.062093e-009
-1.330915e-009
-4.679687e-009
-6.134322e-009
-5.379807e-009
-2.804081e-009
5.717149e-010
3.430856e-009
4.671904e-009
3.885321e-009
1.559004e-009
-1.128117e-009
-2.869232e-009
-2.890540e-009
-1.358285e-009
7.213708e-010
2.092864e-009
2.008288e-009
6.801583e-010
-8.892074e-010
-1.616861e-009
-1.102380e-009
1.187819e-010
1.036120e-009
9.818849e-010
1.407959e-010
-6.706399e-010
-7.522836e-010
-1.259410e-010
5.410358e-010
6.018110e-010
4.359012e-011
-5.333824e-010
1.236347e-008
6.541706e-009
-1.158440e-009
-5.757814e-009
-4.806203e-009
7.753052e-011
4.700030e-009
5.494337e-009
1.965201e-009
-3.262876e-009
-6.522827e-009
-5.607439e-009
-1.006239e-009
4.663926e-009
8.340790e-009
8.141905e-009
4.119993e-009
-1.984020e-009
-7.633548e-009
-1.054530e-008
-9.502318e-009
-4.701998e-009
2.417907e-009
9.755604e-009
1.526428e-008
1.752591e-008
1.599923e-008
1.093554e-008
3.089884e-009
-6.612259e-009
-1.734117e-008
-2.851889e-008
-3.986775e-008
-5.137297e-008
-6.318800e-008
-7.551599e-008
-8.849990e-008
-1.021448e-007
-1.162811e-007
-1.305655e-007
-1.445107e-007
-1.575339e-007
-1.690164e-007
-1.783650e-007
-1.850700e-007
-1.887524e-007
-1.891978e-007
-1.863750e-007
-1.804378e-007
-1.717115e-007
-1.606645e-007
-1.478655e-007
-1.339305e-007
-1.194625e-007
-1.049919e-007
-9.092667e-008
-7.752052e-008
-6.486674e-008
-5.292277e-008
-4.156595e-008
-3.067617e-008
-2.023169e-008
-1.039401e-008
-1.550083e-009
5.718444e-009
1.075404e-008
1.301924e-008
1.232562e-008
9.021947e-009
4.053289e-009
-1.179126e-009
-5.167789e-009
-6.776347e-009
-5.672734e-009
-2.512632e-009
1.267529e-009
4.027485e-009
4.651915e-009
3.083347e-009
3.492527e-010
-1.992824e-009
-2.730906e-009
-1.691456e-009
2.038182e-010
1.590920e-009
1.605094e-009
4.450352e-010
-8.603826e-010
-1.298757e-009
-6.550618e-010
4.013017e-010
9.606924e-010
6.569421e-010
-9.813792e-011
-5.875721e-010
-4.704729e-010
-1.889193e-011
2.596592e-010
1.667422e-010
-4.714965e-011
2.284938e-009
-6.099787e-011
-2.457745e-009
-2.413789e-009
4.194770e-010
3.753478e-009
4.503162e-009
1.434304e-009
-3.610592e-009
-6.952004e-009
-5.807539e-009
-3.950177e-010
6.142379e-009
9.824290e-009
8.356189e-009
2.404450e-009
-4.991149e-009
-1.021557e-008
-1.087051e-008
-6.659969e-009
8.029194e-010
8.877074e-009
1.492207e-008
1.708106e-008
1.464548e-008
7.997260e-009
-1.767535e-009
-1.336065e-008
-2.577794e-008
-3.858679e-008
-5.197614e-008
-6.661301e-008
-8.339648e-008
-1.031974e-007
-1.266422e-007
-1.539688e-007
-1.849579e-007
-2.189360e-007
-2.548323e-007
-2.912762e-007
-3.267156e-007
-3.595417e-007
-3.882085e-007
-4.113383e-007
-4.278091e-007
-4.368196e-007
-4.379344e-007
-4.311051e-007
-4.166715e-007
-3.953413e-007
-3.681500e-007
-3.364002e-007
-3.015811e-007
-2.652689e-007
-2.290134e-007
-1.942187e-007
-1.620304e-007
-1.332416e-007
-1.082328e-007
-8.695888e-008
-6.899732e-008
-5.366421e-008
-4.019190e-008
-2.793969e-008
-1.658928e-008
-6.265255e-009
2.474616e-009
8.809666e-009
1.197132e-008
1.162498e-008
8.182588e-009
2.888475e-009
-2.430906e-009
-5.935613e-009
-6.473626e-009
-4.102052e-009
-1.228546e-010
3.481529e-009
5.009070e-009
3.913427e-009
1.075833e-009
-1.742560e-009
-2.977462e-009
-2.194621e-009
-2.594252e-010
1.364424e-009
1.667987e-009
7.285820e-010
-5.110751e-010
-1.070640e-009
-6.685023e-010
1.905239e-010
7.491087e-010
6.290450e-010
4.298263e-011
-4.936115e-010
-6.089870e-010
-2.977704e-010
1.739449e-010
4.997934e-010
-1.140359e-008
-7.718313e-009
-1.904925e-009
3.520175e-009
6.137332e-009
4.792111e-009
3.306123e-010
-4.625318e-009
-6.980515e-009
-4.977329e-009
5.658181e-010
6.511641e-009
9.188887e-009
6.667011e-009
4.962274e-011
-7.083490e-009
-1.072571e-008
-8.670283e-009
-1.591819e-009
7.488010e-009
1.480528e-008
1.749947e-008
1.449973e-008
6.456013e-009
-4.977879e-009
-1.804165e-008
-3.159380e-008
-4.550746e-008
-6.072233e-008
-7.901241e-008
-1.025692e-007
-1.335220e-007
-1.735131e-007
-2.234061e-007
-2.831547e-007
-3.518079e-007
-4.276129e-007
-5.081745e-007
-5.906462e-007
-6.719342e-007
-7.488998e-007
-8.185442e-007
-8.781640e-007
-9.254715e-007
-9.586798e-007
-9.765577e-007
-9.784617e-007
-9.643484e-007
-9.347708e-007
-8.908611e-007
-8.342963e-007
-7.672464e-007
-6.922950e-007
-6.123313e-007
-5.304063e-007
-4.495613e-007
-3.726363e-007
-3.020740e-007
-2.397358e-007
-1.867501e-007
-1.434177e-007
-1.092045e-007
-8.284723e-008
-6.258112e-008
-4.647300e-008
-3.280929e-008
-2.045928e-008
-9.110987e-009
7.218641e-010
7.981158e-009
1.159966e-008
1.112986e-008
7.204198e-009
1.562602e-009
-3.469342e-009
-5.900357e-009
-4.975634e-009
-1.558668e-009
2.303295e-009
4.481012e-009
3.944099e-009
1.309047e-009
-1.616499e-009
-3.026198e-009
-2.265215e-009
-1.638595e-010
1.656586e-009
1.981425e-009
8.204460e-010
-7.325955e-010
-1.435751e-009
-8.653507e-010
3.387570e-010
1.093539e-009
8.018285e-010
-1.889934e-010
-9.513352e-010
-8.138403e-010
6.491589e-011
8.688848e-010
-2.001084e-008
-1.126405e-008
6.541472e-010
8.521135e-009
8.367369e-009
1.808886e-009
-5.603835e-009
-8.470588e-009
-5.026739e-009
2.149126e-009
8.223391e-009
9.282458e-009
4.586176e-009
-3.199063e-009
-9.627003e-009
-1.090991e-008
-5.879329e-009
3.461656e-009
1.297371e-008
1.837598e-008
1.711712e-008
9.193150e-009
-3.364114e-009
-1.788340e-008
-3.253879e-008
-4.727421e-008
-6.395158e-008
-8.589220e-008
-1.171318e-007
-1.616536e-007
-2.227414e-007
-3.025070e-007
-4.016154e-007
-5.192070e-007
-6.529943e-007
-7.994857e-007
-9.542794e-007
-1.112389e-006
-1.268572e-006
-1.417653e-006
-1.554805e-006
-1.675774e-006
-1.777024e-006
-1.855793e-006
-1.910093e-006
-1.938657e-006
-1.940887e-006
-1.916806e-006
-1.867048e-006
-1.792867e-006
-1.696183e-006
-1.579615e-006
-1.446501e-006
-1.300860e-006
-1.147282e-006
-9.907382e-007
-8.363224e-007
-6.889425e-007
-5.529942e-007
-4.320436e-007
-3.285483e-007
-2.436527e-007
-1.770959e-007
-1.272656e-007
-9.142284e-008
-6.610467e-008
-4.768279e-008
-3.300736e-008
-1.999869e-008
-7.995957e-009
2.319392e-009
9.494077e-009
1.222766e-008
1.029377e-008
5.005175e-009
-1.093108e-009
-5.256698e-009
-5.826573e-009
-3.056882e-009
1.059584e-009
3.965535e-009
4.067533e-009
1.666840e-009
-1.345841e-009
-2.860308e-009
-2.034221e-009
1.872802e-010
1.912807e-009
1.843450e-009
2.659660e-010
-1.309131e-009
-1.526473e-009
-3.556188e-010
9.828141e-010
1.226699e-009
2.558392e-010
-8.693339e-010
-1.012101e-009
-9.044244e-011
8.868289e-010
-1.746096e-008
-8.020254e-009
3.678780e-009
9.135524e-009
5.285756e-009
-3.430821e-009
-9.116812e-009
-6.905530e-009
1.449688e-009
9.403477e-009
1.088923e-008
4.714445e-009
-4.949317e-009
-1.174065e-008
-1.127117e-008
-3.526401e-009
7.543804e-009
1.643580e-008
1.884398e-008
1.335674e-008
1.519245e-009
-1.350046e-008
-2.888744e-008
-4.390884e-008
-6.073957e-008
-8.420154e-008
-1.207071e-007
-1.769341e-007
-2.586859e-007
-3.701354e-007
-5.134165e-007
-6.884445e-007
-8.928891e-007
-1.122293e-006
-1.370361e-006
-1.629416e-006
-1.890991e-006
-2.146488e-006
-2.387841e-006
-2.608090e-006
-2.801796e-006
-2.965214e-006
-3.096226e-006
-3.194044e-006
-3.258778e-006
-3.290960e-006
-3.291142e-006
-3.259637e-006
-3.196465e-006
-3.101507e-006
-2.974841e-006
-2.817169e-006
-2.630264e-006
-2.417308e-006
-2.183068e-006
-1.933820e-006
-1.677045e-006
-1.420922e-006
-1.173692e-006
-9.430000e-007
-7.352751e-007
-5.552422e-007
-4.055948e-007
-2.868512e-007
-1.973919e-007
-1.336808e-007
-9.069467e-008
-6.259366e-008
-4.361584e-008
-2.906650e-008
-1.613742e-008
-4.226783e-009
5.473902e-009
1.108630e-008
1.144803e-008
7.163908e-009
7.092931e-010
-4.586871e-009
-6.211287e-009
-3.829467e-009
5.705585e-010
3.975564e-009
4.325055e-009
1.829754e-009
-1.343487e-009
-2.811651e-009
-1.795269e-009
4.363469e-010
1.821706e-009
1.329879e-009
-2.712677e-010
-1.327226e-009
-9.353022e-010
2.922657e-010
1.012018e-009
5.804381e-010
-3.699359e-010
-7.398881e-010
-1.992402e-010
5.153428e-010
-3.908351e-009
6.105566e-010
4.889872e-009
4.132949e-009
-1.620802e-009
-7.201734e-009
-6.972803e-009
-1.485795e-010
8.131997e-009
1.098231e-008
5.536391e-009
-4.583353e-009
-1.198627e-008
-1.100830e-008
-1.660415e-009
1.061751e-008
1.867348e-008
1.787324e-008
8.135474e-009
-7.004041e-009
-2.320772e-008
-3.826267e-008
-5.382076e-008
-7.555956e-008
-1.120873e-007
-1.732295e-007
-2.683154e-007
-4.048642e-007
-5.877755e-007
-8.188897e-007
-1.096709e-006
-1.416181e-006
-1.768621e-006
-2.141985e-006
-2.521643e-006
-2.891681e-006
-3.236568e-006
-3.542902e-006
-3.800949e-006
-4.005665e-006
-4.157025e-006
-4.259595e-006
-4.321408e-006
-4.352361e-006
-4.362389e-006
-4.359728e-006
-4.349517e-006
-4.332977e-006
-4.307256e-006
-4.265982e-006
-4.200424e-006
-4.101078e-006
-3.959441e-006
-3.769690e-006
-3.529996e-006
-3.243241e-006
-2.917021e-006
-2.562924e-006
-2.195232e-006
-1.829269e-006
-1.479711e-006
-1.159126e-006
-8.769689e-007
-6.390786e-007
-4.476391e-007
-3.014360e-007
-1.962861e-007
-1.256045e-007
-8.118293e-008
-5.426953e-008
-3.691336e-008
-2.331105e-008
-1.069437e-008
7.068540e-010
8.802213e-009
1.152765e-008
8.622579e-009
2.307521e-009
-3.642850e-009
-5.978587e-009
-3.897700e-009
5.556759e-010
4.016386e-009
4.219955e-009
1.524432e-009
-1.628871e-009
-2.825696e-009
-1.569622e-009
6.007393e-010
1.710282e-009
1.091345e-009
-2.915419e-010
-1.031547e-009
-6.474337e-010
1.927784e-010
5.929810e-010
3.505136e-010
-5.891340e-011
-1.981032e-010
-1.269066e-010
1.437592e-008
1.012942e-008
2.899887e-009
-4.536448e-009
-8.499529e-009
-6.470979e-009
5.956463e-010
8.005532e-009
1.015534e-008
4.776821e-009
-4.808614e-009
-1.161951e-008
-9.995773e-009
9.718446e-011
1.274297e-008
1.993441e-008
1.668058e-008
3.707356e-009
-1.389283e-008
-3.083178e-008
-4.583467e-008
-6.365042e-008
-9.437661e-008
-1.511068e-007
-2.473192e-007
-3.949121e-007
-6.030131e-007
-8.771836e-007
-1.218565e-006
-1.622755e-006
-2.078589e-006
-2.567311e-006
-3.062785e-006
-3.533199e-006
-3.944353e-006
-4.264068e-006
-4.466933e-006
-4.538431e-006
-4.477622e-006
-4.297898e-006
-4.025669e-006
-3.697248e-006
-3.354448e-006
-3.039567e-006
-2.790436e-006
-2.636121e-006
-2.593709e-006
-2.666486e-006
-2.843663e-006
-3.101648e-006
-3.406747e-006
-3.719031e-006
-3.996990e-006
-4.202449e-006
-4.305148e-006
-4.286335e-006
-4.140800e-006
-3.876997e-006
-3.515214e-006
-3.084122e-006
-2.616363e-006
-2.144037e-006
-1.694938e-006
-1.290136e-006
-9.430891e-007
-6.600285e-007
-4.410834e-007
-2.815962e-007
-1.733190e-007
-1.055142e-007
-6.620475e-008
-4.378038e-008
-2.884857e-008
-1.579638e-008
-3.304911e-009
6.695290e-009
1.139559e-008
9.699881e-009
3.552200e-009
-2.890101e-009
-5.755561e-009
-3.897940e-009
5.427813e-010
3.932779e-009
3.928932e-009
1.077356e-009
-1.972514e-009
-2.835556e-009
-1.260804e-009
9.977912e-010
1.956864e-009
1.089738e-009
-5.053806e-010
-1.342718e-009
-8.714700e-010
2.592584e-010
9.848438e-010
7.687585e-010
-8.182092e-011
-8.015678e-010
2.834750e-008
1.554871e-008
-1.688060e-009
-1.258307e-008
-1.140086e-008
-1.028125e-009
9.669938e-009
1.246631e-008
5.485815e-009
-5.850174e-009
-1.295638e-008
-1.017604e-008
1.345748e-009
1.444154e-008
2.059374e-008
1.523127e-008
1.235659e-010
-1.862616e-008
-3.562855e-008
-5.118519e-008
-7.347642e-008
-1.172499e-007
-2.003550e-007
-3.402187e-007
-5.515848e-007
-8.454025e-007
-1.227749e-006
-1.697683e-006
-2.243782e-006
-2.840228e-006
-3.444080e-006
-3.995474e-006
-4.421891e-006
-4.646495e-006
-4.599314e-006
-4.229081e-006
-3.513230e-006
-2.463971e-006
-1.129279e-006
4.112084e-007
2.054406e-006
3.684512e-006
5.184472e-006
6.446606e-006
7.381338e-006
7.923580e-006
8.036781e-006
7.714908e-006
6.982602e-006
5.893612e-006
4.527367e-006
2.983488e-006
1.374117e-006
-1.857197e-007
-1.588948e-006
-2.747207e-006
-3.599891e-006
-4.119853e-006
-4.314556e-006
-4.222262e-006
-3.903869e-006
-3.432036e-006
-2.879862e-006
-2.311400e-006
-1.775663e-006
-1.304634e-006
-9.146618e-007
-6.097917e-007
-3.854876e-007
-2.316523e-007
-1.347105e-007
-7.920862e-008
-4.960992e-008
-3.256377e-008
-1.916474e-008
-6.123087e-009
5.099988e-009
1.114205e-008
1.019391e-008
4.012154e-009
-2.827145e-009
-5.892116e-009
-3.856869e-009
8.394820e-010
4.164589e-009
3.733717e-009
4.845119e-010
-2.488583e-009
-2.767318e-009
-5.712946e-010
1.768104e-009
2.126532e-009
4.607771e-010
-1.405961e-009
-1.684166e-009
-2.893300e-010
1.247775e-009
1.393451e-009
1.002351e-010
-1.238603e-009
3.066179e-008
1.393820e-008
-6.495766e-009
-1.557034e-008
-8.451299e-009
6.317243e-009
1.492436e-008
1.007419e-008
-3.582582e-009
-1.417212e-008
-1.264180e-008
3.172624e-010
1.535286e-008
2.169706e-008
1.452195e-008
-2.785804e-009