# vtk DataFile Version 3.0
vtk output
ASCII
DATASET STRUCTURED_POINTS
DIMENSIONS 100 100 1
SPACING 1 1 1
ORIGIN 0 0 0
POINT_DATA 10000
SCALARS SFBox_profile double
LOOKUP_TABLE default 
9.439918e-003
9.439918e-003
9.439919e-003
9.439921e-003
9.439921e-003
9.439921e-003
9.439920e-003
9.439919e-003
9.439919e-003
9.439919e-003
9.439920e-003
9.439921e-003
9.439921e-003
9.439921e-003
9.439920e-003
9.439920e-003
9.439920e-003
9.439920e-003
9.439920e-003
9.439920e-003
9.439920e-003
9.439920e-003
9.439920e-003
9.439920e-003
9.439920e-003
9.439920e-003
9.439920e-003
9.439920e-003
9.439920e-003
9.439921e-003
9.439921e-003
9.439921e-003
9.439921e-003
9.439921e-003
9.439921e-003
9.439922e-003
9.439922e-003
9.439922e-003
9.439922e-003
9.439922e-003
9.439923e-003
9.439923e-003
9.439923e-003
9.439923e-003
9.439923e-003
9.439923e-003
9.439923e-003
9.439923e-003
9.439923e-003
9.439923e-003
9.439923e-003
9.439923e-003
9.439922e-003
9.439922e-003
9.439922e-003
9.439922e-003
9.439922e-003
9.439922e-003
9.439921e-003
9.439921e-003
9.439921e-003
9.439921e-003
9.439921e-003
9.439921e-003
9.439920e-003
9.439920e-003
9.439920e-003
9.439920e-003
9.439920e-003
9.439920e-003
9.439920e-003
9.439920e-003
9.439920e-003
9.439920e-003
9.439920e-003
9.439920e-003
9.439920e-003
9.439920e-003
9.439920e-003
9.439920e-003
9.439920e-003
9.439920e-003
9.439920e-003
9.439920e-003
9.439920e-003
9.439920e-003
9.439920e-003
9.439920e-003
9.439920e-003
9.439920e-003
9.439920e-003
9.439920e-003
9.439920e-003
9.439920e-003
9.439920e-003
9.439920e-003
9.439920e-003
9.439920e-003
9.439920e-003
9.439920e-003
9.439918e-003
9.439918e-003
9.439919e-003
9.439921e-003
9.439921e-003
9.439921e-003
9.439920e-003
9.439919e-003
9.439919e-003
9.439919e-003
9.439920e-003
9.439921e-003
9.439921e-003
9.439921e-003
9.439920e-003
9.439920e-003
9.439920e-003
9.439920e-003
9.439920e-003
9.439920e-003
9.439920e-003
9.439920e-003
9.439920e-003
9.439920e-003
9.439920e-003
9.439920e-003
9.439920e-003
9.439920e-003
9.439920e-003
9.439921e-003
9.439921e-003
9.439921e-003
9.439921e-003
9.439921e-003
9.439921e-003
9.439922e-003
9.439922e-003
9.439922e-003
9.439922e-003
9.439922e-003
9.439923e-003
9.439923e-003
9.439923e-003
9.439923e-003
9.439923e-003
9.439923e-003
9.439923e-003
9.439923e-003
9.439923e-003
9.439923e-003
9.439923e-003
9.439923e-003
9.439922e-003
9.439922e-003
9.439922e-003
9.439922e-003
9.439922e-003
9.439922e-003
9.439921e-003
9.439921e-003
9.439921e-003
9.439921e-003
9.439921e-003
9.439921e-003
9.439920e-003
9.439920e-003
9.439920e-003
9.439920e-003
9.439920e-003
9.439920e-003
9.439920e-003
9.439920e-003
9.439920e-003
9.439920e-003
9.439920e-003
9.439920e-003
9.439920e-003
9.439920e-003
9.439920e-003
9.439920e-003
9.439920e-003
9.439920e-003
9.439920e-003
9.439920e-003
9.439920e-003
9.439920e-003
9.439920e-003
9.439920e-003
9.439920e-003
9.439920e-003
9.439920e-003
9.439920e-003
9.439920e-003
9.439920e-003
9.439920e-003
9.439920e-003
9.439920e-003
9.439920e-003
9.439920e-003
9.439920e-003
9.439920e-003
9.439920e-003
9.439920e-003
9.439920e-003
9.439920e-003
9.439920e-003
9.439920e-003
9.439920e-003
9.439920e-003
9.439920e-003
9.439920e-003
9.439920e-003
9.439920e-003
9.439920e-003
9.439920e-003
9.439920e-003
9.439920e-003
9.439920e-003
9.439920e-003
9.439920e-003
9.439920e-003
9.439920e-003
9.439920e-003
9.439920e-003
9.439920e-003
9.439920e-003
9.439920e-003
9.439920e-003
9.439921e-003
9.439921e-003
9.439921e-003
9.439921e-003
9.439922e-003
9.439922e-003
9.439922e-003
9.439923e-003
9.439923e-003
9.439923e-003
9.439923e-003
9.439924e-003
9.439924e-003
9.439924e-003
9.439924e-003
9.439924e-003
9.439924e-003
9.439925e-003
9.439925e-003
9.439925e-003
9.439924e-003
9.439924e-003
9.439924e-003
9.439924e-003
9.439924e-003
9.439923e-003
9.439923e-003
9.439923e-003
9.439923e-003
9.439922e-003
9.439922e-003
9.439922e-003
9.439921e-003
9.439921e-003
9.439921e-003
9.439921e-003
9.439921e-003
9.439920e-003
9.439920e-003
9.439920e-003
9.439920e-003
9.439920e-003
9.439920e-003
9.439920e-003
9.439920e-003
9.439920e-003
9.439920e-003
9.439920e-003
9.439920e-003
9.439920e-003
9.439920e-003
9.439920e-003
9.439920e-003
9.439920e-003
9.439920e-003
9.439920e-003
9.439920e-003
9.439920e-003
9.439920e-003
9.439920e-003
9.439920e-003
9.439920e-003
9.439920e-003
9.439920e-003
9.439920e-003
9.439920e-003
9.439920e-003
9.439920e-003
9.439920e-003
9.439920e-003
9.439920e-003
9.439920e-003
9.439922e-003
9.439922e-003
9.439920e-003
9.439919e-003
9.439919e-003
9.439919e-003
9.439920e-003
9.439921e-003
9.439921e-003
9.439921e-003
9.439920e-003
9.439920e-003
9.439919e-003
9.439919e-003
9.439920e-003
9.439920e-003
9.439920e-003
9.439920e-003
9.439920e-003
9.439920e-003
9.439920e-003
9.439920e-003
9.439920e-003
9.439920e-003
9.439921e-003
9.439921e-003
9.439921e-003
9.439921e-003
9.439922e-003
9.439922e-003
9.439922e-003
9.439923e-003
9.439923e-003
9.439924e-003
9.439924e-003
9.439925e-003
9.439925e-003
9.439926e-003
9.439926e-003
9.439927e-003
9.439927e-003
9.439927e-003
9.439928e-003
9.439928e-003
9.439928e-003
9.439928e-003
9.439928e-003
9.439928e-003
9.439928e-003
9.439928e-003
9.439928e-003
9.439927e-003
9.439927e-003
9.439926e-003
9.439926e-003
9.439925e-003
9.439925e-003
9.439925e-003
9.439924e-003
9.439923e-003
9.439923e-003
9.439922e-003
9.439922e-003
9.439922e-003
9.439921e-003
9.439921e-003
9.439921e-003
9.439921e-003
9.439920e-003
9.439920e-003
9.439920e-003
9.439920e-003
9.439920e-003
9.439920e-003
9.439920e-003
9.439920e-003
9.439920e-003
9.439920e-003
9.439920e-003
9.439920e-003
9.439920e-003
9.439920e-003
9.439920e-003
9.439920e-003
9.439920e-003
9.439920e-003
9.439920e-003
9.439920e-003
9.439920e-003
9.439920e-003
9.439920e-003
9.439920e-003
9.439920e-003
9.439920e-003
9.439920e-003
9.439920e-003
9.439920e-003
9.439920e-003
9.439920e-003
9.439920e-003
9.439923e-003
9.439922e-003
9.439921e-003
9.439919e-003
9.439919e-003
9.439919e-003
9.439920e-003
9.439921e-003
9.439921e-003
9.439921e-003
9.439920e-003
9.439919e-003
9.439919e-003
9.439920e-003
9.439920e-003
9.439920e-003
9.439920e-003
9.439920e-003
9.439920e-003
9.439920e-003
9.439921e-003
9.439921e-003
9.439921e-003
9.439921e-003
9.439921e-003
9.439922e-003
9.439922e-003
9.439923e-003
9.439923e-003
9.439924e-003
9.439925e-003
9.439926e-003
9.439926e-003
9.439927e-003
9.439928e-003
9.439929e-003
9.439930e-003
9.439930e-003
9.439931e-003
9.439932e-003
9.439932e-003
9.439933e-003
9.439933e-003
9.439934e-003
9.439934e-003
9.439934e-003
9.439934e-003
9.439934e-003
9.439934e-003
9.439933e-003
9.439933e-003
9.439933e-003
9.439932e-003
9.439931e-003
9.439931e-003
9.439930e-003
9.439929e-003
9.439928e-003
9.439927e-003
9.439927e-003
9.439926e-003
9.439925e-003
9.439924e-003
9.439923e-003
9.439923e-003
9.439922e-003
9.439922e-003
9.439921e-003
9.439921e-003
9.439921e-003
9.439921e-003
9.439920e-003
9.439920e-003
9.439920e-003
9.439920e-003
9.439920e-003
9.439920e-003
9.439920e-003
9.439920e-003
9.439920e-003
9.439920e-003
9.439920e-003
9.439920e-003
9.439920e-003
9.439920e-003
9.439920e-003
9.439920e-003
9.439920e-003
9.439920e-003
9.439920e-003
9.439920e-003
9.439920e-003
9.439920e-003
9.439920e-003
9.439920e-003
9.439920e-003
9.439920e-003
9.439920e-003
9.439920e-003
9.439920e-003
9.439921e-003
9.439921e-003
9.439920e-003
9.439920e-003
9.439920e-003
9.439919e-003
9.439920e-003
9.439920e-003
9.439920e-003
9.439920e-003
9.439920e-003
9.439920e-003
9.439920e-003
9.439920e-003
9.439921e-003
9.439921e-003
9.439920e-003
9.439920e-003
9.439920e-003
9.439920e-003
9.439921e-003
9.439921e-003
9.439922e-003
9.439922e-003
9.439922e-003
9.439923e-003
9.439925e-003
9.439926e-003
9.439927e-003
9.439927e-003
9.439929e-003
9.439930e-003
9.439932e-003
9.439933e-003
9.439934e-003
9.439935e-003
9.439936e-003
9.439937e-003
9.439938e-003
9.439939e-003
9.439940e-003
9.439940e-003
9.439941e-003
9.439941e-003
9.439941e-003
9.439941e-003
9.439941e-003
9.439941e-003
9.439941e-003
9.439941e-003
9.439940e-003
9.439939e-003
9.439939e-003
9.439938e-003
9.439937e-003
9.439936e-003
9.439935e-003
9.439934e-003
9.439933e-003
9.439932e-003
9.439930e-003
9.439929e-003
9.439928e-003
9.439926e-003
9.439925e-003
9.439924e-003
9.439923e-003
9.439923e-003
9.439922e-003
9.439921e-003
9.439921e-003
9.439921e-003
9.439920e-003
9.439920e-003
9.439920e-003
9.439920e-003
9.439920e-003
9.439920e-003
9.439920e-003
9.439920e-003
9.439920e-003
9.439920e-003
9.439920e-003
9.439920e-003
9.439920e-003
9.439920e-003
9.439920e-003
9.439920e-003
9.439920e-003
9.439920e-003
9.439920e-003
9.439920e-003
9.439920e-003
9.439920e-003
9.439920e-003
9.439920e-003
9.439920e-003
9.439920e-003
9.439920e-003
9.439920e-003
9.439918e-003
9.439919e-003
9.439920e-003
9.439921e-003
9.439921e-003
9.439920e-003
9.439920e-003
9.439919e-003
9.439919e-003
9.439920e-003
9.439920e-003
9.439920e-003
9.439920e-003
9.439920e-003
9.439921e-003
9.439921e-003
9.439920e-003
9.439920e-003
9.439920e-003
9.439921e-003
9.439922e-003
9.439923e-003
9.439923e-003
9.439924e-003
9.439925e-003
9.439927e-003
9.439928e-003
9.439930e-003
9.439932e-003
9.439933e-003
9.439935e-003
9.439937e-003
9.439939e-003
9.439940e-003
9.439942e-003
9.439943e-003
9.439944e-003
9.439945e-003
9.439945e-003
9.439945e-003
9.439945e-003
9.439945e-003
9.439946e-003
9.439946e-003
9.439945e-003
9.439945e-003
9.439945e-003
9.439945e-003
9.439945e-003
9.439945e-003
9.439944e-003
9.439944e-003
9.439944e-003
9.439944e-003
9.439943e-003
9.439942e-003
9.439941e-003
9.439940e-003
9.439939e-003
9.439938e-003
9.439937e-003
9.439935e-003
9.439933e-003
9.439931e-003
9.439930e-003
9.439928e-003
9.439926e-003
9.439925e-003
9.439924e-003
9.439923e-003
9.439922e-003
9.439922e-003
9.439921e-003
9.439920e-003
9.439920e-003
9.439920e-003
9.439920e-003
9.439920e-003
9.439920e-003
9.439920e-003
9.439920e-003
9.439920e-003
9.439920e-003
9.439920e-003
9.439920e-003
9.439920e-003
9.439920e-003
9.439920e-003
9.439920e-003
9.439920e-003
9.439920e-003
9.439920e-003
9.439920e-003
9.439920e-003
9.439920e-003
9.439920e-003
9.439920e-003
9.439920e-003
9.439920e-003
9.439920e-003
9.439916e-003
9.439917e-003
9.439919e-003
9.439921e-003
9.439922e-003
9.439921e-003
9.439920e-003
9.439919e-003
9.439919e-003
9.439919e-003
9.439920e-003
9.439921e-003
9.439921e-003
9.439920e-003
9.439920e-003
9.439920e-003
9.439921e-003
9.439921e-003
9.439922e-003
9.439922e-003
9.439923e-003
9.439925e-003
9.439926e-003
9.439928e-003
9.439929e-003
9.439932e-003
9.439934e-003
9.439937e-003
9.439939e-003
9.439941e-003
9.439943e-003
9.439944e-003
9.439946e-003
9.439946e-003
9.439946e-003
9.439945e-003
9.439945e-003
9.439943e-003
9.439942e-003
9.439939e-003
9.439937e-003
9.439934e-003
9.439932e-003
9.439930e-003
9.439929e-003
9.439927e-003
9.439927e-003
9.439927e-003
9.439927e-003
9.439928e-003
9.439930e-003
9.439931e-003
9.439933e-003
9.439936e-003
9.439938e-003
9.439939e-003
9.439941e-003
9.439942e-003
9.439943e-003
9.439943e-003
9.439942e-003
9.439941e-003
9.439939e-003
9.439937e-003
9.439935e-003
9.439933e-003
9.439931e-003
9.439929e-003
9.439927e-003
9.439926e-003
9.439924e-003
9.439923e-003
9.439922e-003
9.439921e-003
9.439921e-003
9.439921e-003
9.439920e-003
9.439920e-003
9.439920e-003
9.439920e-003
9.439920e-003
9.439920e-003
9.439920e-003
9.439920e-003
9.439920e-003
9.439920e-003
9.439920e-003
9.439920e-003
9.439920e-003
9.439920e-003
9.439920e-003
9.439920e-003
9.439920e-003
9.439920e-003
9.439920e-003
9.439920e-003
9.439920e-003
9.439920e-003
9.439920e-003
9.439920e-003
9.439917e-003
9.439918e-003
9.439919e-003
9.439921e-003
9.439921e-003
9.439921e-003
9.439920e-003
9.439919e-003
9.439919e-003
9.439920e-003
9.439920e-003
9.439921e-003
9.439921e-003
9.439920e-003
9.439920e-003
9.439920e-003
9.439921e-003
9.439923e-003
9.439924e-003
9.439925e-003
9.439926e-003
9.439928e-003
9.439931e-003
9.439933e-003
9.439936e-003
9.439939e-003
9.439942e-003
9.439944e-003
9.439946e-003
9.439947e-003
9.439946e-003
9.439945e-003
9.439942e-003
9.439938e-003
9.439931e-003
9.439924e-003
9.439915e-003
9.439906e-003
9.439895e-003
9.439885e-003
9.439874e-003
9.439864e-003
9.439855e-003
9.439847e-003
9.439841e-003
9.439837e-003
9.439835e-003
9.439835e-003
9.439838e-003
9.439843e-003
9.439849e-003
9.439857e-003
9.439867e-003
9.439878e-003
9.439889e-003
9.439899e-003
9.439909e-003
9.439918e-003
9.439926e-003
9.439933e-003
9.439937e-003
9.439940e-003
9.439942e-003
9.439942e-003
9.439941e-003
9.439939e-003
9.439937e-003
9.439934e-003
9.439932e-003
9.439930e-003
9.439928e-003
9.439926e-003
9.439924e-003
9.439923e-003
9.439922e-003
9.439921e-003
9.439921e-003
9.439920e-003
9.439920e-003
9.439920e-003
9.439920e-003
9.439920e-003
9.439920e-003
9.439920e-003
9.439920e-003
9.439920e-003
9.439920e-003
9.439920e-003
9.439920e-003
9.439920e-003
9.439920e-003
9.439920e-003
9.439920e-003
9.439920e-003
9.439920e-003
9.439920e-003
9.439920e-003
9.439920e-003
9.439920e-003
9.439920e-003
9.439921e-003
9.439921e-003
9.439920e-003
9.439919e-003
9.439919e-003
9.439920e-003
9.439920e-003
9.439920e-003
9.439920e-003
9.439920e-003
9.439921e-003
9.439921e-003
9.439920e-003
9.439920e-003
9.439920e-003
9.439921e-003
9.439923e-003
9.439925e-003
9.439927e-003
9.439929e-003
9.439931e-003
9.439934e-003
9.439938e-003
9.439941e-003
9.439944e-003
9.439946e-003
9.439948e-003
9.439947e-003
9.439944e-003
9.439938e-003
9.439929e-003
9.439915e-003
9.439898e-003
9.439876e-003
9.439851e-003
9.439822e-003
9.439791e-003
9.439757e-003
9.439723e-003
9.439688e-003
9.439655e-003
9.439624e-003
9.439597e-003
9.439574e-003
9.439556e-003
9.439545e-003
9.439539e-003
9.439541e-003
9.439549e-003
9.439564e-003
9.439585e-003
9.439611e-003
9.439642e-003
9.439676e-003
9.439711e-003
9.439747e-003
9.439783e-003
9.439816e-003
9.439846e-003
9.439873e-003
9.439895e-003
9.439912e-003
9.439925e-003
9.439934e-003
9.439940e-003
9.439942e-003
9.439942e-003
9.439940e-003
9.439938e-003
9.439935e-003
9.439932e-003
9.439930e-003
9.439927e-003
9.439925e-003
9.439924e-003
9.439923e-003
9.439922e-003
9.439921e-003
9.439920e-003
9.439920e-003
9.439920e-003
9.439920e-003
9.439920e-003
9.439920e-003
9.439920e-003
9.439920e-003
9.439920e-003
9.439920e-003
9.439920e-003
9.439920e-003
9.439920e-003
9.439920e-003
9.439920e-003
9.439920e-003
9.439920e-003
9.439920e-003
9.439920e-003
9.439920e-003
9.439920e-003
9.439920e-003
9.439924e-003
9.439923e-003
9.439920e-003
9.439919e-003
9.439918e-003
9.439919e-003
9.439920e-003
9.439921e-003
9.439921e-003
9.439920e-003
9.439920e-003
9.439920e-003
9.439921e-003
9.439921e-003
9.439922e-003
9.439924e-003
9.439926e-003
9.439929e-003
9.439931e-003
9.439934e-003
9.439938e-003
9.439942e-003
9.439946e-003
9.439948e-003
9.439949e-003
9.439946e-003
9.439939e-003
9.439927e-003
9.439907e-003
9.439879e-003
9.439841e-003
9.439793e-003
9.439735e-003
9.439667e-003
9.439589e-003
9.439504e-003
9.439413e-003
9.439318e-003
9.439223e-003
9.439128e-003
9.439039e-003
9.438956e-003
9.438884e-003
9.438823e-003
9.438777e-003
9.438747e-003
9.438734e-003
9.438739e-003
9.438762e-003
9.438803e-003
9.438859e-003
9.438930e-003
9.439013e-003
9.439106e-003
9.439204e-003
9.439305e-003
9.439405e-003
9.439501e-003
9.439591e-003
9.439671e-003
9.439741e-003
9.439800e-003
9.439847e-003
9.439883e-003
9.439909e-003
9.439926e-003
9.439936e-003
9.439941e-003
9.439942e-003
9.439941e-003
9.439938e-003
9.439935e-003
9.439932e-003
9.439929e-003
9.439927e-003
9.439925e-003
9.439923e-003
9.439922e-003
9.439921e-003
9.439921e-003
9.439920e-003
9.439920e-003
9.439920e-003
9.439920e-003
9.439920e-003
9.439920e-003
9.439920e-003
9.439920e-003
9.439920e-003
9.439920e-003
9.439920e-003
9.439920e-003
9.439920e-003
9.439920e-003
9.439920e-003
9.439920e-003
9.439920e-003
9.439920e-003
9.439920e-003
9.439920e-003
9.439924e-003
9.439923e-003
9.439921e-003
9.439919e-003
9.439918e-003
9.439919e-003
9.439920e-003
9.439921e-003
9.439921e-003
9.439920e-003
9.439920e-003
9.439921e-003
9.439922e-003
9.439924e-003
9.439925e-003
9.439927e-003
9.439930e-003
9.439934e-003
9.439938e-003
9.439942e-003
9.439946e-003
9.439949e-003
9.439950e-003
9.439946e-003
9.439936e-003
9.439916e-003
9.439883e-003
9.439834e-003
9.439767e-003
9.439678e-003
9.439566e-003
9.439429e-003
9.439267e-003
9.439082e-003
9.438877e-003
9.438656e-003
9.438422e-003
9.438181e-003
9.437941e-003
9.437707e-003
9.437486e-003
9.437285e-003
9.437108e-003
9.436962e-003
9.436852e-003
9.436780e-003
9.436751e-003
9.436764e-003
9.436821e-003
9.436920e-003
9.437059e-003
9.437234e-003
9.437438e-003
9.437667e-003
9.437912e-003
9.438166e-003
9.438421e-003
9.438669e-003
9.438902e-003
9.439116e-003
9.439305e-003
9.439468e-003
9.439603e-003
9.439711e-003
9.439793e-003
9.439852e-003
9.439893e-003
9.439920e-003
9.439934e-003
9.439941e-003
9.439942e-003
9.439941e-003
9.439938e-003
9.439934e-003
9.439931e-003
9.439928e-003
9.439925e-003
9.439924e-003
9.439923e-003
9.439922e-003
9.439921e-003
9.439920e-003
9.439920e-003
9.439920e-003
9.439920e-003
9.439920e-003
9.439920e-003
9.439920e-003
9.439920e-003
9.439920e-003
9.439920e-003
9.439920e-003
9.439920e-003
9.439920e-003
9.439920e-003
9.439920e-003
9.439920e-003
9.439920e-003
9.439920e-003
9.439920e-003
9.439921e-003
9.439921e-003
9.439920e-003
9.439920e-003
9.439920e-003
9.439920e-003
9.439921e-003
9.439921e-003
9.439921e-003
9.439920e-003
9.439921e-003
9.439922e-003
9.439924e-003
9.439926e-003
9.439929e-003
9.439932e-003
9.439936e-003
9.439941e-003
9.439946e-003
9.439950e-003
9.439952e-003
9.439948e-003
9.439936e-003
9.439910e-003
9.439866e-003
9.439796e-003
9.439694e-003
9.439552e-003
9.439365e-003
9.439127e-003
9.438834e-003
9.438485e-003
9.438081e-003
9.437627e-003
9.437130e-003
9.436599e-003
9.436045e-003
9.435482e-003
9.434923e-003
9.434383e-003
9.433877e-003
9.433418e-003
9.433018e-003
9.432689e-003
9.432441e-003
9.432282e-003
9.432217e-003
9.432250e-003
9.432380e-003
9.432606e-003
9.432923e-003
9.433321e-003
9.433790e-003
9.434316e-003
9.434883e-003
9.435475e-003
9.436074e-003
9.436661e-003
9.437221e-003
9.437740e-003
9.438207e-003
9.438614e-003
9.438958e-003
9.439239e-003
9.439460e-003
9.439628e-003
9.439749e-003
9.439833e-003
9.439887e-003
9.439919e-003
9.439935e-003
9.439942e-003
9.439943e-003
9.439940e-003
9.439936e-003
9.439932e-003
9.439929e-003
9.439926e-003
9.439925e-003
9.439923e-003
9.439922e-003
9.439921e-003
9.439920e-003
9.439920e-003
9.439920e-003
9.439920e-003
9.439920e-003
9.439920e-003
9.439920e-003
9.439920e-003
9.439920e-003
9.439920e-003
9.439920e-003
9.439920e-003
9.439920e-003
9.439920e-003
9.439920e-003
9.439920e-003
9.439920e-003
9.439920e-003
9.439917e-003
9.439918e-003
9.439920e-003
9.439921e-003
9.439921e-003
9.439921e-003
9.439920e-003
9.439920e-003
9.439921e-003
9.439921e-003
9.439922e-003
9.439924e-003
9.439927e-003
9.439930e-003
9.439934e-003
9.439939e-003
9.439944e-003
9.439949e-003
9.439953e-003
9.439952e-003
9.439941e-003
9.439914e-003
9.439864e-003
9.439779e-003
9.439646e-003
9.439453e-003
9.439182e-003
9.438821e-003
9.438354e-003
9.437774e-003
9.437073e-003
9.436252e-003
9.435316e-003
9.434278e-003
9.433153e-003
9.431966e-003
9.430740e-003
9.429505e-003
9.428290e-003
9.427126e-003
9.426041e-003
9.425063e-003
9.424217e-003
9.423525e-003
9.423006e-003
9.422674e-003
9.422542e-003
9.422614e-003
9.422892e-003
9.423372e-003
9.424044e-003
9.424892e-003
9.425894e-003
9.427025e-003
9.428252e-003
9.429541e-003
9.430856e-003
9.432158e-003
9.433411e-003
9.434586e-003
9.435655e-003
9.436600e-003
9.437411e-003
9.438084e-003
9.438625e-003
9.439044e-003
9.439357e-003
9.439582e-003
9.439734e-003
9.439833e-003
9.439892e-003
9.439924e-003
9.439939e-003
9.439943e-003
9.439942e-003
9.439938e-003
9.439934e-003
9.439930e-003
9.439927e-003
9.439925e-003
9.439923e-003
9.439922e-003
9.439921e-003
9.439920e-003
9.439920e-003
9.439920e-003
9.439920e-003
9.439920e-003
9.439920e-003
9.439920e-003
9.439920e-003
9.439920e-003
9.439920e-003
9.439920e-003
9.439920e-003
9.439920e-003
9.439920e-003
9.439920e-003
9.439920e-003
9.439920e-003
9.439915e-003
9.439917e-003
9.439920e-003
9.439921e-003
9.439922e-003
9.439921e-003
9.439920e-003
9.439920e-003
9.439922e-003
9.439923e-003
9.439925e-003
9.439927e-003
9.439931e-003
9.439935e-003
9.439941e-003
9.439947e-003
9.439952e-003
9.439954e-003
9.439948e-003
9.439927e-003
9.439880e-003
9.439792e-003
9.439646e-003
9.439417e-003
9.439078e-003
9.438599e-003
9.437948e-003
9.437097e-003
9.436021e-003
9.434703e-003
9.433138e-003
9.431330e-003
9.429298e-003
9.427071e-003
9.424691e-003
9.422208e-003
9.419674e-003
9.417150e-003
9.414694e-003
9.412362e-003
9.410210e-003
9.408285e-003
9.406633e-003
9.405291e-003
9.404292e-003
9.403659e-003
9.403413e-003
9.403561e-003
9.404108e-003
9.405047e-003
9.406362e-003
9.408028e-003
9.410008e-003
9.412256e-003
9.414717e-003
9.417327e-003
9.420014e-003
9.422706e-003
9.425330e-003
9.427819e-003
9.430114e-003
9.432170e-003
9.433959e-003
9.435467e-003
9.436698e-003
9.437670e-003
9.438410e-003
9.438953e-003
9.439335e-003
9.439591e-003
9.439755e-003
9.439853e-003
9.439907e-003
9.439933e-003
9.439942e-003
9.439943e-003
9.439940e-003
9.439935e-003
9.439931e-003
9.439927e-003
9.439925e-003
9.439923e-003
9.439922e-003
9.439921e-003
9.439920e-003
9.439920e-003
9.439920e-003
9.439920e-003
9.439920e-003
9.439920e-003
9.439920e-003
9.439920e-003
9.439920e-003
9.439920e-003
9.439920e-003
9.439920e-003
9.439920e-003
9.439920e-003
9.439920e-003
9.439920e-003
9.439916e-003
9.439918e-003
9.439920e-003
9.439922e-003
9.439921e-003
9.439920e-003
9.439920e-003
9.439921e-003
9.439923e-003
9.439926e-003
9.439929e-003
9.439932e-003
9.439937e-003
9.439943e-003
9.439950e-003
9.439955e-003
9.439955e-003
9.439942e-003
9.439907e-003
9.439832e-003
9.439695e-003
9.439462e-003
9.439094e-003
9.438542e-003
9.437748e-003
9.436651e-003
9.435192e-003
9.433317e-003
9.430986e-003
9.428179e-003
9.424896e-003
9.421167e-003
9.417042e-003
9.412599e-003
9.407929e-003
9.403137e-003
9.398333e-003
9.393626e-003
9.389120e-003
9.384911e-003
9.381085e-003
9.377713e-003
9.374858e-003
9.372568e-003
9.370886e-003
9.369839e-003
9.369451e-003
9.369734e-003
9.370692e-003
9.372321e-003
9.374603e-003
9.377509e-003
9.380994e-003
9.384997e-003
9.389439e-003
9.394220e-003
9.399225e-003
9.404326e-003
9.409387e-003
9.414272e-003
9.418857e-003
9.423038e-003
9.426737e-003
9.429908e-003
9.432540e-003
9.434653e-003
9.436290e-003
9.437514e-003
9.438394e-003
9.439002e-003
9.439403e-003
9.439655e-003
9.439804e-003
9.439885e-003
9.439925e-003
9.439940e-003
9.439944e-003
9.439941e-003
9.439936e-003
9.439931e-003
9.439928e-003
9.439925e-003
9.439924e-003
9.439922e-003
9.439921e-003
9.439920e-003
9.439920e-003
9.439920e-003
9.439920e-003
9.439920e-003
9.439920e-003
9.439920e-003
9.439920e-003
9.439920e-003
9.439920e-003
9.439920e-003
9.439920e-003
9.439920e-003
9.439920e-003
9.439920e-003
9.439919e-003
9.439920e-003
9.439921e-003
9.439921e-003
9.439921e-003
9.439920e-003
9.439921e-003
9.439922e-003
9.439925e-003
9.439929e-003
9.439933e-003
9.439938e-003
9.439944e-003
9.439951e-003
9.439957e-003
9.439955e-003
9.439935e-003
9.439883e-003
9.439775e-003
9.439575e-003
9.439232e-003
9.438680e-003
9.437835e-003
9.436597e-003
9.434857e-003
9.432499e-003
9.429419e-003
9.425533e-003
9.420793e-003
9.415195e-003
9.408789e-003
9.401676e-003
9.394006e-003
9.385961e-003
9.377748e-003
9.369573e-003
9.361637e-003
9.354118e-003
9.347163e-003
9.340892e-003
9.335387e-003
9.330705e-003
9.326876e-003
9.323913e-003
9.321816e-003
9.320582e-003
9.320207e-003
9.320689e-003
9.322032e-003
9.324247e-003
9.327346e-003
9.331340e-003
9.336228e-003
9.341993e-003
9.348587e-003
9.355925e-003
9.363875e-003
9.372261e-003
9.380867e-003
9.389450e-003
9.397757e-003
9.405549e-003
9.412626e-003
9.418841e-003
9.424114e-003
9.428432e-003
9.431843e-003
9.434440e-003
9.436343e-003
9.437684e-003
9.438590e-003
9.439177e-003
9.439538e-003
9.439748e-003
9.439861e-003
9.439916e-003
9.439938e-003
9.439944e-003
9.439941e-003
9.439936e-003
9.439932e-003
9.439928e-003
9.439925e-003
9.439923e-003
9.439922e-003
9.439921e-003
9.439920e-003
9.439920e-003
9.439920e-003
9.439920e-003
9.439920e-003
9.439920e-003
9.439920e-003
9.439920e-003
9.439920e-003
9.439920e-003
9.439920e-003
9.439920e-003
9.439920e-003
9.439920e-003
9.439922e-003
9.439922e-003
9.439921e-003
9.439920e-003
9.439920e-003
9.439921e-003
9.439923e-003
9.439925e-003
9.439928e-003
9.439933e-003
9.439939e-003
9.439946e-003
9.439953e-003
9.439958e-003
9.439954e-003
9.439928e-003
9.439860e-003
9.439715e-003
9.439442e-003
9.438969e-003
9.438191e-003
9.436976e-003
9.435159e-003
9.432551e-003
9.428953e-003
9.424175e-003
9.418063e-003
9.410529e-003
9.401580e-003
9.391335e-003
9.380027e-003
9.367990e-003
9.355633e-003
9.343394e-003
9.331703e-003
9.320938e-003
9.311395e-003
9.303274e-003
9.296664e-003
9.291555e-003
9.287850e-003
9.285380e-003
9.283935e-003
9.283285e-003
9.283204e-003
9.283498e-003
9.284022e-003
9.284691e-003
9.285500e-003
9.286519e-003
9.287898e-003
9.289852e-003
9.292638e-003
9.296529e-003
9.301768e-003
9.308533e-003
9.316893e-003
9.326780e-003
9.337976e-003
9.350124e-003
9.362758e-003
9.375357e-003
9.387405e-003
9.398457e-003
9.408184e-003
9.416401e-003
9.423064e-003
9.428253e-003
9.432136e-003
9.434927e-003
9.436852e-003
9.438126e-003
9.438931e-003
9.439416e-003
9.439692e-003
9.439838e-003
9.439908e-003
9.439937e-003
9.439944e-003
9.439942e-003
9.439937e-003
9.439932e-003
9.439928e-003
9.439925e-003
9.439923e-003
9.439922e-003
9.439921e-003
9.439920e-003
9.439920e-003
9.439920e-003
9.439920e-003
9.439920e-003
9.439920e-003
9.439920e-003
9.439920e-003
9.439920e-003
9.439920e-003
9.439920e-003
9.439920e-003
9.439920e-003
9.439924e-003
9.439922e-003
9.439920e-003
9.439919e-003
9.439921e-003
9.439923e-003
9.439926e-003
9.439929e-003
9.439933e-003
9.439939e-003
9.439947e-003
9.439955e-003
9.439960e-003
9.439954e-003
9.439922e-003
9.439839e-003
9.439659e-003
9.439313e-003
9.438699e-003
9.437667e-003
9.436018e-003
9.433498e-003
9.429806e-003
9.424614e-003
9.417606e-003
9.408531e-003
9.397271e-003
9.383909e-003
9.368779e-003
9.352487e-003
9.335880e-003
9.319973e-003
9.305837e-003
9.294477e-003
9.286712e-003
9.283088e-003
9.283817e-003
9.288774e-003
9.297508e-003
9.309293e-003
9.323192e-003
9.338126e-003
9.352963e-003
9.366588e-003
9.377983e-003
9.386294e-003
9.390880e-003
9.391372e-003
9.387699e-003
9.380118e-003
9.369218e-003
9.355897e-003
9.341313e-003
9.326801e-003
9.313754e-003
9.303489e-003
9.297095e-003
9.295300e-003
9.298378e-003
9.306099e-003
9.317770e-003
9.332328e-003
9.348510e-003
9.365035e-003
9.380776e-003
9.394892e-003
9.406878e-003
9.416554e-003
9.424005e-003
9.429490e-003
9.433356e-003
9.435965e-003
9.437651e-003
9.438692e-003
9.439304e-003
9.439644e-003
9.439820e-003
9.439903e-003
9.439935e-003
9.439943e-003
9.439942e-003
9.439936e-003
9.439931e-003
9.439927e-003
9.439925e-003
9.439923e-003
9.439922e-003
9.439921e-003
9.439920e-003
9.439920e-003
9.439920e-003
9.439920e-003
9.439920e-003
9.439920e-003
9.439920e-003
9.439920e-003
9.439920e-003
9.439920e-003
9.439920e-003
9.439920e-003
9.439924e-003
9.439922e-003
9.439920e-003
9.439920e-003
9.439922e-003
9.439926e-003
9.439930e-003
9.439933e-003
9.439939e-003
9.439946e-003
9.439955e-003
9.439961e-003
9.439955e-003
9.439920e-003
9.439825e-003
9.439616e-003
9.439205e-003
9.438455e-003
9.437163e-003
9.435050e-003
9.431746e-003
9.426799e-003
9.419706e-003
9.409978e-003
9.397251e-003
9.381430e-003
9.362862e-003
9.342475e-003
9.321863e-003
9.303237e-003
9.289261e-003
9.282752e-003
9.286332e-003
9.302070e-003
9.331206e-003
9.373986e-003
9.429612e-003
9.496316e-003
9.571498e-003
9.651926e-003
9.733945e-003
9.813698e-003
9.887348e-003
9.951268e-003
1.000223e-002
1.003755e-002
1.005524e-002
1.005410e-002
1.003385e-002
9.995172e-003
9.939789e-003
9.870422e-003
9.790716e-003
9.705051e-003
9.618263e-003
9.535265e-003
9.460621e-003
9.398101e-003
9.350284e-003
9.318295e-003
9.301719e-003
9.298742e-003
9.306511e-003
9.321629e-003
9.340697e-003
9.360775e-003
9.379668e-003
9.396029e-003
9.409269e-003
9.419379e-003
9.426708e-003
9.431772e-003
9.435114e-003
9.437223e-003
9.438492e-003
9.439219e-003
9.439612e-003
9.439810e-003
9.439900e-003
9.439935e-003
9.439944e-003
9.439941e-003
9.439936e-003
9.439931e-003
9.439927e-003
9.439924e-003