# vtk DataFile Version 3.0
vtk output
ASCII
DATASET STRUCTURED_POINTS
DIMENSIONS 100 100 1
SPACING 1 1 1
ORIGIN 0 0 0
POINT_DATA 10000
SCALARS SFBox_profile double
LOOKUP_TABLE default 
9.439918e-003
9.439919e-003
9.439920e-003
9.439920e-003
9.439921e-003
9.439921e-003
9.439920e-003
9.439920e-003
9.439920e-003
9.439920e-003
9.439920e-003
9.439920e-003
9.439920e-003
9.439920e-003
9.439920e-003
9.439920e-003
9.439920e-003
9.439920e-003
9.439920e-003
9.439920e-003
9.439920e-003
9.439920e-003
9.439920e-003
9.439920e-003
9.439920e-003
9.439921e-003
9.439921e-003
9.439922e-003
9.439922e-003
9.439923e-003
9.439923e-003
9.439924e-003
9.439924e-003
9.439925e-003
9.439926e-003
9.439926e-003
9.439927e-003
9.439927e-003
9.439928e-003
9.439929e-003
9.439929e-003
9.439930e-003
9.439930e-003
9.439931e-003
9.439931e-003
9.439932e-003
9.439932e-003
9.439932e-003
9.439932e-003
9.439933e-003
9.439933e-003
9.439933e-003
9.439933e-003
9.439933e-003
9.439932e-003
9.439932e-003
9.439932e-003
9.439931e-003
9.439931e-003
9.439930e-003
9.439930e-003
9.439929e-003
9.439928e-003
9.439928e-003
9.439927e-003
9.439926e-003
9.439926e-003
9.439925e-003
9.439924e-003
9.439924e-003
9.439923e-003
9.439923e-003
9.439922e-003
9.439922e-003
9.439921e-003
9.439921e-003
9.439920e-003
9.439920e-003
9.439920e-003
9.439920e-003
9.439920e-003
9.439920e-003
9.439920e-003
9.439920e-003
9.439920e-003
9.439920e-003
9.439920e-003
9.439920e-003
9.439920e-003
9.439920e-003
9.439920e-003
9.439920e-003
9.439920e-003
9.439920e-003
9.439920e-003
9.439920e-003
9.439920e-003
9.439920e-003
9.439920e-003
9.439920e-003
9.439918e-003
9.439919e-003
9.439920e-003
9.439920e-003
9.439921e-003
9.439921e-003
9.439920e-003
9.439920e-003
9.439920e-003
9.439920e-003
9.439920e-003
9.439920e-003
9.439920e-003
9.439920e-003
9.439920e-003
9.439920e-003
9.439920e-003
9.439920e-003
9.439920e-003
9.439920e-003
9.439920e-003
9.439920e-003
9.439920e-003
9.439920e-003
9.439920e-003
9.439921e-003
9.439921e-003
9.439922e-003
9.439922e-003
9.439923e-003
9.439923e-003
9.439924e-003
9.439924e-003
9.439925e-003
9.439926e-003
9.439926e-003
9.439927e-003
9.439927e-003
9.439928e-003
9.439929e-003
9.439929e-003
9.439930e-003
9.439930e-003
9.439931e-003
9.439931e-003
9.439932e-003
9.439932e-003
9.439932e-003
9.439932e-003
9.439933e-003
9.439933e-003
9.439933e-003
9.439933e-003
9.439933e-003
9.439932e-003
9.439932e-003
9.439932e-003
9.439931e-003
9.439931e-003
9.439930e-003
9.439930e-003
9.439929e-003
9.439928e-003
9.439928e-003
9.439927e-003
9.439926e-003
9.439926e-003
9.439925e-003
9.439924e-003
9.439924e-003
9.439923e-003
9.439923e-003
9.439922e-003
9.439922e-003
9.439921e-003
9.439921e-003
9.439920e-003
9.439920e-003
9.439920e-003
9.439920e-003
9.439920e-003
9.439920e-003
9.439920e-003
9.439920e-003
9.439920e-003
9.439920e-003
9.439920e-003
9.439920e-003
9.439920e-003
9.439920e-003
9.439920e-003
9.439920e-003
9.439920e-003
9.439920e-003
9.439920e-003
9.439920e-003
9.439920e-003
9.439920e-003
9.439920e-003
9.439920e-003
9.439919e-003
9.439920e-003
9.439920e-003
9.439920e-003
9.439920e-003
9.439920e-003
9.439920e-003
9.439920e-003
9.439920e-003
9.439920e-003
9.439920e-003
9.439920e-003
9.439920e-003
9.439920e-003
9.439920e-003
9.439920e-003
9.439920e-003
9.439920e-003
9.439920e-003
9.439920e-003
9.439920e-003
9.439920e-003
9.439921e-003
9.439921e-003
9.439921e-003
9.439921e-003
9.439922e-003
9.439922e-003
9.439923e-003
9.439923e-003
9.439924e-003
9.439925e-003
9.439925e-003
9.439926e-003
9.439927e-003
9.439928e-003
9.439929e-003
9.439930e-003
9.439931e-003
9.439932e-003
9.439932e-003
9.439933e-003
9.439934e-003
9.439935e-003
9.439935e-003
9.439936e-003
9.439936e-003
9.439937e-003
9.439937e-003
9.439937e-003
9.439937e-003
9.439937e-003
9.439937e-003
9.439937e-003
9.439937e-003
9.439936e-003
9.439936e-003
9.439935e-003
9.439935e-003
9.439934e-003
9.439933e-003
9.439932e-003
9.439931e-003
9.439930e-003
9.439929e-003
9.439928e-003
9.439927e-003
9.439926e-003
9.439925e-003
9.439925e-003
9.439924e-003
9.439923e-003
9.439922e-003
9.439922e-003
9.439922e-003
9.439921e-003
9.439921e-003
9.439921e-003
9.439921e-003
9.439920e-003
9.439920e-003
9.439920e-003
9.439920e-003
9.439920e-003
9.439920e-003
9.439920e-003
9.439920e-003
9.439920e-003
9.439920e-003
9.439920e-003
9.439920e-003
9.439920e-003
9.439920e-003
9.439920e-003
9.439920e-003
9.439920e-003
9.439920e-003
9.439920e-003
9.439920e-003
9.439920e-003
9.439921e-003
9.439921e-003
9.439920e-003
9.439920e-003
9.439919e-003
9.439919e-003
9.439920e-003
9.439920e-003
9.439920e-003
9.439920e-003
9.439920e-003
9.439920e-003
9.439920e-003
9.439920e-003
9.439920e-003
9.439919e-003
9.439920e-003
9.439920e-003
9.439920e-003
9.439921e-003
9.439921e-003
9.439921e-003
9.439922e-003
9.439922e-003
9.439922e-003
9.439923e-003
9.439923e-003
9.439924e-003
9.439925e-003
9.439926e-003
9.439927e-003
9.439928e-003
9.439929e-003
9.439930e-003
9.439931e-003
9.439933e-003
9.439934e-003
9.439935e-003
9.439937e-003
9.439938e-003
9.439939e-003
9.439940e-003
9.439941e-003
9.439942e-003
9.439942e-003
9.439943e-003
9.439943e-003
9.439944e-003
9.439944e-003
9.439944e-003
9.439944e-003
9.439944e-003
9.439944e-003
9.439944e-003
9.439944e-003
9.439943e-003
9.439943e-003
9.439942e-003
9.439941e-003
9.439940e-003
9.439939e-003
9.439938e-003
9.439937e-003
9.439936e-003
9.439935e-003
9.439933e-003
9.439932e-003
9.439930e-003
9.439929e-003
9.439928e-003
9.439926e-003
9.439925e-003
9.439924e-003
9.439923e-003
9.439923e-003
9.439922e-003
9.439922e-003
9.439922e-003
9.439921e-003
9.439921e-003
9.439921e-003
9.439920e-003
9.439920e-003
9.439920e-003
9.439920e-003
9.439920e-003
9.439920e-003
9.439920e-003
9.439920e-003
9.439920e-003
9.439920e-003
9.439920e-003
9.439920e-003
9.439920e-003
9.439920e-003
9.439920e-003
9.439920e-003
9.439920e-003
9.439920e-003
9.439920e-003
9.439922e-003
9.439921e-003
9.439920e-003
9.439920e-003
9.439919e-003
9.439919e-003
9.439920e-003
9.439920e-003
9.439920e-003
9.439920e-003
9.439920e-003
9.439920e-003
9.439920e-003
9.439920e-003
9.439920e-003
9.439920e-003
9.439920e-003
9.439920e-003
9.439921e-003
9.439921e-003
9.439922e-003
9.439922e-003
9.439923e-003
9.439923e-003
9.439924e-003
9.439925e-003
9.439926e-003
9.439928e-003
9.439929e-003
9.439931e-003
9.439932e-003
9.439934e-003
9.439936e-003
9.439938e-003
9.439939e-003
9.439941e-003
9.439942e-003
9.439943e-003
9.439945e-003
9.439946e-003
9.439946e-003
9.439947e-003
9.439947e-003
9.439948e-003
9.439948e-003
9.439948e-003
9.439948e-003
9.439948e-003
9.439948e-003
9.439948e-003
9.439948e-003
9.439947e-003
9.439947e-003
9.439947e-003
9.439947e-003
9.439947e-003
9.439946e-003
9.439946e-003
9.439946e-003
9.439945e-003
9.439945e-003
9.439944e-003
9.439943e-003
9.439943e-003
9.439941e-003
9.439940e-003
9.439939e-003
9.439937e-003
9.439935e-003
9.439933e-003
9.439932e-003
9.439930e-003
9.439928e-003
9.439927e-003
9.439925e-003
9.439924e-003
9.439923e-003
9.439923e-003
9.439922e-003
9.439922e-003
9.439921e-003
9.439921e-003
9.439920e-003
9.439920e-003
9.439920e-003
9.439920e-003
9.439920e-003
9.439920e-003
9.439920e-003
9.439920e-003
9.439920e-003
9.439920e-003
9.439920e-003
9.439920e-003
9.439920e-003
9.439920e-003
9.439920e-003
9.439920e-003
9.439920e-003
9.439920e-003
9.439921e-003
9.439921e-003
9.439920e-003
9.439920e-003
9.439919e-003
9.439920e-003
9.439920e-003
9.439920e-003
9.439920e-003
9.439920e-003
9.439920e-003
9.439920e-003
9.439920e-003
9.439920e-003
9.439920e-003
9.439921e-003
9.439921e-003
9.439921e-003
9.439921e-003
9.439922e-003
9.439922e-003
9.439923e-003
9.439924e-003
9.439926e-003
9.439927e-003
9.439929e-003
9.439931e-003
9.439934e-003
9.439936e-003
9.439938e-003
9.439941e-003
9.439943e-003
9.439944e-003
9.439946e-003
9.439947e-003
9.439948e-003
9.439948e-003
9.439948e-003
9.439947e-003
9.439946e-003
9.439945e-003
9.439943e-003
9.439941e-003
9.439939e-003
9.439937e-003
9.439935e-003
9.439933e-003
9.439931e-003
9.439930e-003
9.439928e-003
9.439927e-003
9.439927e-003
9.439926e-003
9.439927e-003
9.439927e-003
9.439928e-003
9.439929e-003
9.439931e-003
9.439933e-003
9.439935e-003
9.439937e-003
9.439939e-003
9.439941e-003
9.439942e-003
9.439943e-003
9.439944e-003
9.439944e-003
9.439943e-003
9.439942e-003
9.439941e-003
9.439939e-003
9.439937e-003
9.439934e-003
9.439932e-003
9.439930e-003
9.439928e-003
9.439926e-003
9.439924e-003
9.439923e-003
9.439922e-003
9.439922e-003
9.439921e-003
9.439921e-003
9.439921e-003
9.439920e-003
9.439920e-003
9.439920e-003
9.439920e-003
9.439920e-003
9.439920e-003
9.439920e-003
9.439920e-003
9.439920e-003
9.439920e-003
9.439920e-003
9.439920e-003
9.439920e-003
9.439920e-003
9.439920e-003
9.439920e-003
9.439920e-003
9.439920e-003
9.439920e-003
9.439920e-003
9.439920e-003
9.439920e-003
9.439920e-003
9.439920e-003
9.439920e-003
9.439920e-003
9.439919e-003
9.439920e-003
9.439920e-003
9.439921e-003
9.439921e-003
9.439921e-003
9.439922e-003
9.439922e-003
9.439923e-003
9.439923e-003
9.439924e-003
9.439926e-003
9.439928e-003
9.439930e-003
9.439933e-003
9.439936e-003
9.439939e-003
9.439942e-003
9.439944e-003
9.439946e-003
9.439947e-003
9.439948e-003
9.439947e-003
9.439946e-003
9.439943e-003
9.439939e-003
9.439934e-003
9.439927e-003
9.439920e-003
9.439912e-003
9.439903e-003
9.439894e-003
9.439885e-003
9.439876e-003
9.439867e-003
9.439858e-003
9.439850e-003
9.439843e-003
9.439837e-003
9.439832e-003
9.439829e-003
9.439827e-003
9.439827e-003
9.439828e-003
9.439832e-003
9.439836e-003
9.439843e-003
9.439850e-003
9.439859e-003
9.439869e-003
9.439880e-003
9.439890e-003
9.439900e-003
9.439910e-003
9.439919e-003
9.439927e-003
9.439933e-003
9.439938e-003
9.439941e-003
9.439943e-003
9.439943e-003
9.439942e-003
9.439941e-003
9.439939e-003
9.439936e-003
9.439933e-003
9.439931e-003
9.439928e-003
9.439926e-003
9.439924e-003
9.439923e-003
9.439922e-003
9.439922e-003
9.439921e-003
9.439921e-003
9.439921e-003
9.439921e-003
9.439920e-003
9.439920e-003
9.439920e-003
9.439920e-003
9.439920e-003
9.439920e-003
9.439920e-003
9.439920e-003
9.439920e-003
9.439920e-003
9.439920e-003
9.439920e-003
9.439920e-003
9.439918e-003
9.439919e-003
9.439920e-003
9.439920e-003
9.439921e-003
9.439921e-003
9.439920e-003
9.439920e-003
9.439920e-003
9.439920e-003
9.439920e-003
9.439920e-003
9.439920e-003
9.439921e-003
9.439921e-003
9.439922e-003
9.439922e-003
9.439923e-003
9.439925e-003
9.439926e-003
9.439929e-003
9.439931e-003
9.439934e-003
9.439938e-003
9.439941e-003
9.439944e-003
9.439946e-003
9.439948e-003
9.439948e-003
9.439946e-003
9.439941e-003
9.439934e-003
9.439924e-003
9.439911e-003
9.439895e-003
9.439875e-003
9.439853e-003
9.439829e-003
9.439802e-003
9.439773e-003
9.439744e-003
9.439714e-003
9.439684e-003
9.439654e-003
9.439626e-003
9.439600e-003
9.439576e-003
9.439555e-003
9.439537e-003
9.439524e-003
9.439514e-003
9.439510e-003
9.439510e-003
9.439515e-003
9.439525e-003
9.439541e-003
9.439561e-003
9.439585e-003
9.439614e-003
9.439645e-003
9.439678e-003
9.439713e-003
9.439748e-003
9.439782e-003
9.439814e-003
9.439844e-003
9.439870e-003
9.439892e-003
9.439909e-003
9.439923e-003
9.439933e-003
9.439939e-003
9.439942e-003
9.439943e-003
9.439942e-003
9.439940e-003
9.439937e-003
9.439934e-003
9.439931e-003
9.439928e-003
9.439926e-003
9.439924e-003
9.439923e-003
9.439922e-003
9.439921e-003
9.439921e-003
9.439921e-003
9.439920e-003
9.439920e-003
9.439920e-003
9.439920e-003
9.439920e-003
9.439920e-003
9.439920e-003
9.439920e-003
9.439920e-003
9.439920e-003
9.439920e-003
9.439920e-003
9.439920e-003
9.439918e-003
9.439919e-003
9.439920e-003
9.439921e-003
9.439921e-003
9.439920e-003
9.439920e-003
9.439920e-003
9.439920e-003
9.439920e-003
9.439920e-003
9.439921e-003
9.439921e-003
9.439921e-003
9.439922e-003
9.439923e-003
9.439924e-003
9.439926e-003
9.439928e-003
9.439932e-003
9.439935e-003
9.439939e-003
9.439943e-003
9.439946e-003
9.439949e-003
9.439949e-003
9.439947e-003
9.439941e-003
9.439930e-003
9.439913e-003
9.439890e-003
9.439860e-003
9.439821e-003
9.439775e-003
9.439721e-003
9.439659e-003
9.439591e-003
9.439517e-003
9.439439e-003
9.439357e-003
9.439274e-003
9.439190e-003
9.439108e-003
9.439028e-003
9.438952e-003
9.438882e-003
9.438819e-003
9.438764e-003
9.438718e-003
9.438683e-003
9.438659e-003
9.438648e-003
9.438649e-003
9.438664e-003
9.438692e-003
9.438734e-003
9.438788e-003
9.438854e-003
9.438931e-003
9.439016e-003
9.439109e-003
9.439205e-003
9.439303e-003
9.439400e-003
9.439493e-003
9.439580e-003
9.439659e-003
9.439729e-003
9.439788e-003
9.439836e-003
9.439874e-003
9.439902e-003
9.439921e-003
9.439933e-003
9.439940e-003
9.439943e-003
9.439942e-003
9.439940e-003
9.439937e-003
9.439934e-003
9.439931e-003
9.439928e-003
9.439925e-003
9.439924e-003
9.439922e-003
9.439922e-003
9.439921e-003
9.439921e-003
9.439920e-003
9.439920e-003
9.439920e-003
9.439920e-003
9.439920e-003
9.439920e-003
9.439920e-003
9.439920e-003
9.439920e-003
9.439920e-003
9.439920e-003
9.439920e-003
9.439919e-003
9.439919e-003
9.439920e-003
9.439921e-003
9.439920e-003
9.439920e-003
9.439919e-003
9.439919e-003
9.439920e-003
9.439921e-003
9.439921e-003
9.439922e-003
9.439922e-003
9.439922e-003
9.439923e-003
9.439925e-003
9.439927e-003
9.439931e-003
9.439934e-003
9.439939e-003
9.439943e-003
9.439947e-003
9.439950e-003
9.439950e-003
9.439945e-003
9.439935e-003
9.439916e-003
9.439887e-003
9.439844e-003
9.439786e-003
9.439711e-003
9.439618e-003
9.439505e-003
9.439372e-003
9.439222e-003
9.439055e-003
9.438873e-003
9.438679e-003
9.438476e-003
9.438268e-003
9.438057e-003
9.437848e-003
9.437643e-003
9.437446e-003
9.437261e-003
9.437091e-003
9.436938e-003
9.436805e-003
9.436696e-003
9.436612e-003
9.436556e-003
9.436530e-003
9.436535e-003
9.436572e-003
9.436641e-003
9.436743e-003
9.436876e-003
9.437039e-003
9.437227e-003
9.437439e-003
9.437667e-003
9.437908e-003
9.438156e-003
9.438402e-003
9.438643e-003
9.438870e-003
9.439080e-003
9.439269e-003
9.439432e-003
9.439570e-003
9.439682e-003
9.439769e-003
9.439834e-003
9.439881e-003
9.439911e-003
9.439930e-003
9.439939e-003
9.439943e-003
9.439943e-003
9.439940e-003
9.439937e-003
9.439933e-003
9.439929e-003
9.439926e-003
9.439924e-003
9.439923e-003
9.439922e-003
9.439921e-003
9.439921e-003
9.439921e-003
9.439921e-003
9.439920e-003
9.439920e-003
9.439920e-003
9.439920e-003
9.439920e-003
9.439920e-003
9.439920e-003
9.439920e-003
9.439920e-003
9.439920e-003
9.439920e-003
9.439920e-003
9.439920e-003
9.439920e-003
9.439920e-003
9.439919e-003
9.439920e-003
9.439920e-003
9.439921e-003
9.439922e-003
9.439922e-003
9.439923e-003
9.439924e-003
9.439926e-003
9.439929e-003
9.439933e-003
9.439938e-003
9.439943e-003
9.439947e-003
9.439951e-003
9.439951e-003
9.439946e-003
9.439932e-003
9.439906e-003
9.439863e-003
9.439798e-003
9.439705e-003
9.439579e-003
9.439415e-003
9.439210e-003
9.438961e-003
9.438668e-003
9.438332e-003
9.437956e-003
9.437544e-003
9.437101e-003
9.436635e-003
9.436153e-003
9.435662e-003
9.435169e-003
9.434684e-003
9.434213e-003
9.433764e-003
9.433343e-003
9.432957e-003
9.432613e-003
9.432316e-003
9.432072e-003
9.431885e-003
9.431762e-003
9.431705e-003
9.431718e-003
9.431803e-003
9.431962e-003
9.432193e-003
9.432495e-003
9.432864e-003
9.433294e-003
9.433778e-003
9.434305e-003
9.434863e-003
9.435439e-003
9.436020e-003
9.436590e-003
9.437136e-003
9.437646e-003
9.438109e-003
9.438518e-003
9.438869e-003
9.439160e-003
9.439394e-003
9.439575e-003
9.439709e-003
9.439804e-003
9.439868e-003
9.439907e-003
9.439930e-003
9.439940e-003
9.439943e-003
9.439942e-003
9.439939e-003
9.439935e-003
9.439931e-003
9.439928e-003
9.439925e-003
9.439923e-003
9.439922e-003
9.439921e-003
9.439921e-003
9.439921e-003
9.439920e-003
9.439920e-003
9.439920e-003
9.439920e-003
9.439920e-003
9.439920e-003
9.439920e-003
9.439920e-003
9.439920e-003
9.439921e-003
9.439921e-003
9.439920e-003
9.439920e-003
9.439920e-003
9.439920e-003
9.439920e-003
9.439920e-003
9.439921e-003
9.439921e-003
9.439922e-003
9.439923e-003
9.439925e-003
9.439927e-003
9.439931e-003
9.439936e-003
9.439941e-003
9.439947e-003
9.439951e-003
9.439952e-003
9.439948e-003
9.439935e-003
9.439905e-003
9.439852e-003
9.439767e-003
9.439638e-003
9.439455e-003
9.439205e-003
9.438878e-003
9.438465e-003
9.437958e-003
9.437356e-003
9.436658e-003
9.435869e-003
9.434998e-003
9.434054e-003
9.433053e-003
9.432009e-003
9.430938e-003
9.429858e-003
9.428785e-003
9.427734e-003
9.426721e-003
9.425761e-003
9.424867e-003
9.424052e-003
9.423329e-003
9.422707e-003
9.422199e-003
9.421813e-003
9.421559e-003
9.421444e-003
9.421475e-003
9.421657e-003
9.421993e-003
9.422481e-003
9.423120e-003
9.423902e-003
9.424817e-003
9.425850e-003
9.426981e-003
9.428188e-003
9.429444e-003
9.430718e-003
9.431981e-003
9.433203e-003
9.434356e-003
9.435416e-003
9.436365e-003
9.437190e-003
9.437886e-003
9.438456e-003
9.438907e-003
9.439250e-003
9.439502e-003
9.439678e-003
9.439796e-003
9.439869e-003
9.439912e-003
9.439933e-003
9.439942e-003
9.439943e-003
9.439941e-003
9.439937e-003
9.439933e-003
9.439929e-003
9.439926e-003
9.439924e-003
9.439922e-003
9.439921e-003
9.439921e-003
9.439921e-003
9.439920e-003
9.439920e-003
9.439920e-003
9.439920e-003
9.439920e-003
9.439920e-003
9.439920e-003
9.439920e-003
9.439922e-003
9.439921e-003
9.439920e-003
9.439919e-003
9.439919e-003
9.439920e-003
9.439921e-003
9.439921e-003
9.439921e-003
9.439922e-003
9.439923e-003
9.439925e-003
9.439928e-003
9.439933e-003
9.439938e-003
9.439944e-003
9.439950e-003
9.439954e-003
9.439953e-003
9.439942e-003
9.439915e-003
9.439861e-003
9.439766e-003
9.439614e-003
9.439383e-003
9.439051e-003
9.438593e-003
9.437986e-003
9.437209e-003
9.436245e-003
9.435084e-003
9.433724e-003
9.432171e-003
9.430439e-003
9.428550e-003
9.426529e-003
9.424409e-003
9.422223e-003
9.420006e-003
9.417790e-003
9.415610e-003
9.413496e-003
9.411476e-003
9.409576e-003
9.407820e-003
9.406231e-003
9.404829e-003
9.403632e-003
9.402658e-003
9.401925e-003
9.401446e-003
9.401236e-003
9.401306e-003
9.401665e-003
9.402319e-003
9.403270e-003
9.404514e-003
9.406043e-003
9.407840e-003
9.409879e-003
9.412130e-003
9.414550e-003
9.417091e-003
9.419696e-003
9.422307e-003
9.424862e-003
9.427302e-003
9.429573e-003
9.431633e-003
9.433449e-003
9.435005e-003
9.436298e-003
9.437338e-003
9.438146e-003
9.438753e-003
9.439190e-003
9.439492e-003
9.439691e-003
9.439814e-003
9.439885e-003
9.439923e-003
9.439939e-003
9.439944e-003
9.439942e-003
9.439938e-003
9.439934e-003
9.439930e-003
9.439926e-003
9.439924e-003
9.439922e-003
9.439921e-003
9.439921e-003
9.439921e-003
9.439920e-003
9.439920e-003
9.439920e-003
9.439920e-003
9.439920e-003
9.439920e-003
9.439920e-003
9.439922e-003
9.439921e-003
9.439919e-003
9.439919e-003
9.439920e-003
9.439921e-003
9.439922e-003
9.439922e-003
9.439922e-003
9.439923e-003
9.439925e-003
9.439929e-003
9.439934e-003
9.439940e-003
9.439946e-003
9.439952e-003
9.439955e-003
9.439951e-003
9.439932e-003
9.439886e-003
9.439798e-003
9.439643e-003
9.439393e-003
9.439009e-003
9.438448e-003
9.437664e-003
9.436608e-003
9.435236e-003
9.433511e-003
9.431406e-003
9.428911e-003
9.426032e-003
9.422795e-003
9.419240e-003
9.415419e-003
9.411395e-003
9.407237e-003
9.403013e-003
9.398792e-003
9.394638e-003
9.390607e-003
9.386752e-003
9.383118e-003
9.379745e-003
9.376667e-003
9.373913e-003
9.371510e-003
9.369483e-003
9.367852e-003
9.366638e-003
9.365862e-003
9.365540e-003
9.365691e-003
9.366328e-003
9.367464e-003
9.369105e-003
9.371255e-003
9.373907e-003
9.377046e-003
9.380644e-003
9.384660e-003
9.389035e-003
9.393694e-003
9.398549e-003
9.403493e-003
9.408413e-003
9.413193e-003
9.417721e-003
9.421896e-003
9.425640e-003
9.428900e-003
9.431654e-003
9.433906e-003
9.435687e-003
9.437048e-003
9.438049e-003
9.438759e-003
9.439240e-003
9.439551e-003
9.439742e-003
9.439851e-003
9.439909e-003
9.439935e-003
9.439943e-003
9.439943e-003
9.439939e-003
9.439935e-003
9.439930e-003
9.439927e-003
9.439924e-003
9.439922e-003
9.439921e-003
9.439921e-003
9.439921e-003
9.439921e-003
9.439920e-003
9.439920e-003
9.439920e-003
9.439920e-003
9.439920e-003
9.439921e-003
9.439920e-003
9.439920e-003
9.439920e-003
9.439920e-003
9.439921e-003
9.439922e-003
9.439923e-003
9.439924e-003
9.439926e-003
9.439930e-003
9.439935e-003
9.439942e-003
9.439949e-003
9.439954e-003
9.439956e-003
9.439947e-003
9.439918e-003
9.439850e-003
9.439718e-003
9.439485e-003
9.439101e-003
9.438504e-003
9.437618e-003
9.436357e-003
9.434629e-003
9.432346e-003
9.429432e-003
9.425831e-003
9.421516e-003
9.416497e-003
9.410821e-003
9.404569e-003
9.397852e-003
9.390799e-003
9.383551e-003
9.376248e-003
9.369022e-003
9.361991e-003
9.355260e-003
9.348911e-003
9.343010e-003
9.337606e-003
9.332733e-003
9.328414e-003
9.324662e-003
9.321482e-003
9.318877e-003
9.316849e-003
9.315398e-003
9.314530e-003
9.314250e-003
9.314569e-003
9.315503e-003
9.317071e-003
9.319298e-003
9.322208e-003
9.325829e-003
9.330182e-003
9.335278e-003
9.341111e-003
9.347652e-003
9.354836e-003
9.362562e-003
9.370689e-003
9.379040e-003
9.387408e-003
9.395571e-003
9.403312e-003
9.410437e-003
9.416791e-003
9.422278e-003
9.426857e-003
9.430549e-003
9.433421e-003
9.435575e-003
9.437131e-003
9.438210e-003
9.438928e-003
9.439384e-003
9.439658e-003
9.439813e-003
9.439893e-003
9.439929e-003
9.439942e-003
9.439943e-003
9.439940e-003
9.439935e-003
9.439930e-003
9.439927e-003
9.439924e-003
9.439922e-003
9.439921e-003
9.439921e-003
9.439921e-003
9.439920e-003
9.439920e-003
9.439920e-003
9.439920e-003
9.439920e-003
9.439920e-003
9.439920e-003
9.439920e-003
9.439920e-003
9.439921e-003
9.439921e-003
9.439922e-003
9.439924e-003
9.439926e-003
9.439930e-003
9.439936e-003
9.439943e-003
9.439950e-003
9.439956e-003
9.439957e-003
9.439944e-003
9.439903e-003
9.439810e-003
9.439627e-003
9.439299e-003
9.438750e-003
9.437879e-003
9.436561e-003
9.434647e-003
9.431978e-003
9.428391e-003
9.423743e-003
9.417929e-003
9.410904e-003
9.402697e-003
9.393419e-003
9.383260e-003
9.372471e-003
9.361345e-003
9.350190e-003
9.339303e-003
9.328948e-003
9.319344e-003
9.310654e-003
9.302987e-003
9.296401e-003
9.290904e-003
9.286462e-003
9.283010e-003
9.280455e-003
9.278687e-003
9.277587e-003
9.277032e-003
9.276905e-003
9.277097e-003
9.277515e-003
9.278088e-003
9.278766e-003
9.279534e-003
9.280411e-003
9.281458e-003
9.282780e-003
9.284525e-003
9.286878e-003
9.290049e-003
9.294251e-003
9.299678e-003
9.306471e-003
9.314689e-003
9.324286e-003
9.335097e-003
9.346836e-003
9.359115e-003
9.371482e-003
9.383469e-003
9.394645e-003
9.404665e-003
9.413301e-003
9.420458e-003
9.426160e-003
9.430528e-003
9.433746e-003
9.436023e-003
9.437569e-003
9.438576e-003
9.439201e-003
9.439570e-003
9.439774e-003
9.439878e-003
9.439924e-003
9.439941e-003
9.439944e-003
9.439940e-003
9.439935e-003
9.439930e-003
9.439926e-003
9.439924e-003
9.439922e-003
9.439921e-003
9.439921e-003
9.439920e-003
9.439920e-003
9.439920e-003
9.439920e-003
9.439920e-003
9.439918e-003
9.439919e-003
9.439921e-003
9.439922e-003
9.439922e-003
9.439922e-003
9.439923e-003
9.439926e-003
9.439930e-003
9.439936e-003
9.439943e-003
9.439951e-003
9.439958e-003
9.439958e-003
9.439941e-003
9.439890e-003
9.439771e-003
9.439535e-003
9.439103e-003
9.438365e-003
9.437169e-003
9.435319e-003
9.432578e-003
9.428679e-003
9.423349e-003
9.416341e-003
9.407487e-003
9.396741e-003
9.384222e-003
9.370238e-003
9.355279e-003
9.339985e-003
9.325087e-003
9.311331e-003
9.299405e-003
9.289881e-003
9.283171e-003
9.279512e-003
9.278968e-003
9.281445e-003
9.286716e-003
9.294443e-003
9.304197e-003
9.315486e-003
9.327770e-003
9.340484e-003
9.353058e-003
9.364930e-003
9.375571e-003
9.384490e-003
9.391252e-003
9.395493e-003
9.396937e-003
9.395417e-003
9.390901e-003
9.383515e-003
9.373567e-003
9.361564e-003
9.348205e-003
9.334364e-003
9.321042e-003
9.309293e-003
9.300135e-003
9.294441e-003
9.292833e-003
9.295597e-003
9.302626e-003
9.313417e-003
9.327128e-003
9.342683e-003
9.358926e-003
9.374771e-003
9.389336e-003
9.402021e-003
9.412529e-003
9.420834e-003
9.427108e-003
9.431648e-003
9.434796e-003
9.436888e-003
9.438218e-003
9.439025e-003
9.439489e-003
9.439741e-003
9.439866e-003
9.439921e-003
9.439941e-003
9.439944e-003
9.439940e-003
9.439935e-003
9.439930e-003
9.439926e-003
9.439924e-003
9.439922e-003
9.439921e-003
9.439921e-003
9.439920e-003
9.439920e-003
9.439920e-003
9.439920e-003
9.439918e-003
9.439919e-003
9.439921e-003
9.439922e-003
9.439923e-003
9.439923e-003
9.439925e-003
9.439930e-003
9.439936e-003
9.439944e-003
9.439952e-003
9.439959e-003
9.439959e-003
9.439940e-003
9.439881e-003
9.439741e-003
9.439456e-003
9.438922e-003
9.437988e-003
9.436438e-003
9.433986e-003
9.430272e-003
9.424882e-003
9.417381e-003
9.407389e-003
9.394673e-003
9.379267e-003
9.361580e-003
9.342470e-003
9.323256e-003
9.305640e-003
9.291552e-003
9.282945e-003
9.281577e-003
9.288826e-003
9.305562e-003
9.332099e-003
9.368212e-003
9.413201e-003
9.465985e-003
9.525196e-003
9.589255e-003
9.656437e-003
9.724925e-003
9.792851e-003
9.858345e-003
9.919570e-003
9.974760e-003
1.002225e-002
1.006050e-002
1.008812e-002
1.010393e-002
1.010696e-002
1.009656e-002
1.007245e-002
1.003480e-002
9.984336e-003
9.922418e-003
9.851050e-003
9.772885e-003
9.691139e-003
9.609421e-003
9.531502e-003
9.461005e-003
9.401076e-003
9.354051e-003
9.321185e-003
9.302499e-003
9.296799e-003
9.301869e-003
9.314833e-003
9.332601e-003
9.352301e-003
9.371614e-003
9.388949e-003
9.403447e-003
9.414864e-003
9.423388e-003
9.429449e-003
9.433566e-003
9.436238e-003
9.437897e-003
9.438878e-003
9.439429e-003
9.439719e-003
9.439860e-003
9.439920e-003
9.439941e-003
9.439943e-003
9.439940e-003
9.439934e-003
9.439929e-003
9.439926e-003
9.439923e-003
9.439922e-003
9.439921e-003
9.439921e-003
9.439921e-003
9.439920e-003
9.439920e-003
9.439918e-003
9.439920e-003
9.439922e-003
9.439923e-003
9.439924e-003
9.439925e-003
9.439929e-003
9.439935e-003
9.439943e-003
9.439952e-003
9.439960e-003
9.439960e-003
9.439941e-003
9.439878e-003
9.439725e-003
9.439401e-003
9.438780e-003
9.437666e-003
9.435770e-003
9.432696e-003
9.427933e-003
9.420871e-003
9.410869e-003
9.397379e-003
9.380147e-003
9.359478e-003
9.336524e-003
9.313516e-003
9.293847e-003
9.281939e-003
9.282876e-003
9.301845e-003
9.343520e-003
9.411489e-003
9.507858e-003
9.633073e-003
9.785969e-003
9.963985e-003
1.016349e-002
1.038010e-002
1.060901e-002
1.084513e-002
1.108332e-002
1.131842e-002
1.154537e-002
1.175921e-002
1.195523e-002
1.212894e-002
1.227613e-002
1.239291e-002
1.247575e-002
1.252152e-002
1.252761e-002
1.249206e-002
1.241374e-002
1.229260e-002
1.212995e-002
1.192866e-002
1.169341e-002
1.143070e-002
1.114883e-002
1.085762e-002
1.056788e-002
1.029076e-002
1.003682e-002
9.815100e-003
9.632150e-003
9.491303e-003
9.392337e-003
9.331649e-003
9.302962e-003
9.298432e-003
9.309906e-003
9.330041e-003
9.353066e-003
9.375070e-003
9.393894e-003
9.408741e-003
9.419711e-003
9.427378e-003
9.432473e-003
9.435703e-003
9.437657e-003
9.438783e-003
9.439398e-003
9.439712e-003
9.439860e-003
9.439922e-003
9.439941e-003
9.439943e-003
9.439939e-003
9.439933e-003
9.439929e-003
9.439925e-003
9.439922e-003
9.439921e-003
9.439921e-003
9.439921e-003
9.439920e-003
9.439920e-003
9.439919e-003
9.439921e-003
9.439922e-003
9.439924e-003
9.439926e-003
9.439929e-003
9.439934e-003
9.439942e-003
9.439952e-003
9.439960e-003
9.439962e-003
9.439945e-003
9.439883e-003
9.439725e-003
9.439381e-003
9.438701e-003
9.437446e-003
9.435253e-003
9.431608e-003
9.425820e-003
9.417048e-003
9.404392e-003
9.387115e-003
9.365029e-003
9.339061e-003
9.311949e-003
9.288889e-003
9.277921e-003
9.289789e-003
9.337164e-003
9.433287e-003
9.590284e-003
9.817539e-003
1.012046e-002
1.049989e-002
1.095214e-002
1.146966e-002
1.204196e-002
1.265671e-002
1.330074e-002
1.396067e-002
1.462348e-002
1.527666e-002
1.590831e-002
1.650719e-002
1.706273e-002
1.756503e-002
1.800485e-002
1.837360e-002
1.866330e-002
1.886660e-002
1.897679e-002
1.898798e-002
1.889532e-002
1.869542e-002
1.838688e-002
1.797088e-002
1.745191e-002
1.683833e-002
1.614291e-002
1.538299e-002
1.458033e-002
1.376041e-002
1.295120e-002
1.218130e-002
1.147760e-002
1.086259e-002
1.035193e-002
9.952527e-003
9.662020e-003
9.469570e-003
9.358128e-003
9.307540e-003
9.297778e-003
9.311533e-003
9.335702e-003
9.361684e-003
9.384770e-003
9.403086e-003
9.416488e-003
9.425687e-003
9.431664e-003
9.435359e-003
9.437535e-003
9.438755e-003
9.439401e-003