# vtk DataFile Version 3.0
vtk output
ASCII
DATASET STRUCTURED_POINTS
DIMENSIONS 100 100 1
SPACING 1 1 1
ORIGIN 0 0 0
POINT_DATA 10000
SCALARS SFBox_profile double
LOOKUP_TABLE default 
0.000000e+000
0.000000e+000
0.000000e+000
0.000000e+000
0.000000e+000
0.000000e+000
0.000000e+000
0.000000e+000
0.000000e+000
0.000000e+000
0.000000e+000
0.000000e+000
0.000000e+000
0.000000e+000
0.000000e+000
0.000000e+000
0.000000e+000
0.000000e+000
0.000000e+000
0.000000e+000
0.000000e+000
0.000000e+000
0.000000e+000
0.000000e+000
0.000000e+000
0.000000e+000
0.000000e+000
0.000000e+000
0.000000e+000
0.000000e+000
0.000000e+000
0.000000e+000
0.000000e+000
0.000000e+000
0.000000e+000
0.000000e+000
0.000000e+000
0.000000e+000
0.000000e+000
0.000000e+000
0.000000e+000
0.000000e+000
0.000000e+000
0.000000e+000
0.000000e+000
0.000000e+000
0.000000e+000
0.000000e+000
0.000000e+000
0.000000e+000
0.000000e+000
0.000000e+000
0.000000e+000
0.000000e+000
0.000000e+000
0.000000e+000
0.000000e+000
0.000000e+000
0.000000e+000
0.000000e+000
0.000000e+000
0.000000e+000
0.000000e+000
0.000000e+000
0.000000e+000
0.000000e+000
0.000000e+000
0.000000e+000
0.000000e+000
0.000000e+000
0.000000e+000
0.000000e+000
0.000000e+000
0.000000e+000
0.000000e+000
0.000000e+000
0.000000e+000
0.000000e+000
0.000000e+000
0.000000e+000
0.000000e+000
0.000000e+000
0.000000e+000
0.000000e+000
0.000000e+000
0.000000e+000
0.000000e+000
0.000000e+000
0.000000e+000
0.000000e+000
0.000000e+000
0.000000e+000
0.000000e+000
0.000000e+000
0.000000e+000
0.000000e+000
0.000000e+000
0.000000e+000
0.000000e+000
0.000000e+000
-1.337603e-009
-9.384192e-010
-4.176226e-010
1.609325e-011
2.774483e-010
4.114068e-010
5.006714e-010
5.554082e-010
4.859294e-010
1.892956e-010
-3.200539e-010
-8.528481e-010
-1.127608e-009
-9.481822e-010
-3.475107e-010
4.146359e-010
1.004701e-009
1.210189e-009
1.039035e-009
6.648419e-010
2.782485e-010
-3.329466e-011
-2.952469e-010
-5.630869e-010
-8.359794e-010
-1.043139e-009
-1.103708e-009
-9.961859e-010
-7.739106e-010
-5.192069e-010
-2.833658e-010
-6.458938e-011
1.654447e-010
4.196034e-010
6.780109e-010
9.057664e-010
1.082671e-009
1.215676e-009
1.326054e-009
1.427669e-009
1.517485e-009
1.584088e-009
1.622459e-009
1.639841e-009
1.648782e-009
1.656211e-009
1.659733e-009
1.653756e-009
1.638086e-009
1.619842e-009
1.606881e-009
1.599837e-009
1.591527e-009
1.575038e-009
1.552377e-009
1.533840e-009
1.527148e-009
1.526861e-009
1.516348e-009
1.482795e-009
1.430879e-009
1.379075e-009
1.338813e-009
1.296356e-009
1.218684e-009
1.082394e-009
8.987503e-010
7.067633e-010
5.358249e-010
3.731364e-010
1.727386e-010
-9.500222e-011
-3.980205e-010
-6.494661e-010
-7.690628e-010
-7.463081e-010
-6.445578e-010
-5.371566e-010
-4.335231e-010
-2.692562e-010
2.116142e-011
4.101580e-010
7.516661e-010
8.618155e-010
6.510417e-010
2.029530e-010
-2.669604e-010
-5.450654e-010
-5.463282e-010
-3.443142e-010
-9.409116e-011
8.172194e-011
1.559659e-010
1.740275e-010
1.828577e-010
1.815075e-010
1.327638e-010
1.608564e-011
-1.334735e-010
-2.393216e-010
-6.926146e-010
-3.767898e-010
4.638842e-013
2.342309e-010
2.407334e-010
8.905713e-011
-6.722240e-011
-1.078965e-010
-2.673867e-011
8.106306e-011
1.081416e-010
2.614811e-011
-9.420705e-011
-1.473703e-010
-8.501326e-011
4.222681e-011
1.275834e-010
9.781907e-011
-2.664488e-011
-1.502586e-010
-1.806388e-010
-9.872883e-011
3.568361e-011
1.410018e-010
1.792975e-010
1.752587e-010
1.799857e-010
2.193242e-010
2.739969e-010
3.038786e-010
2.878387e-010
2.410571e-010
1.977580e-010
1.802054e-010
1.837146e-010
1.880128e-010
1.798043e-010
1.640863e-010
1.561991e-010
1.656841e-010
1.884316e-010
2.128203e-010
2.314859e-010
2.466374e-010
2.650724e-010
2.895312e-010
3.155279e-010
3.361577e-010
3.490868e-010
3.581887e-010
3.682575e-010
3.786309e-010
3.828694e-010
3.753843e-010
3.582153e-010
3.401313e-010
3.278028e-010
3.178349e-010
2.991077e-010
2.648764e-010
2.227364e-010
1.904903e-010
1.795273e-010
1.818566e-010
1.761454e-010
1.498498e-010
1.159537e-010
1.046245e-010
1.339675e-010
1.875892e-010
2.241267e-010
2.139417e-010
1.688359e-010
1.331745e-010
1.406463e-010
1.768026e-010
1.864344e-010
1.240550e-010
2.575961e-012
-1.075677e-010
-1.332475e-010
-6.129564e-011
4.714500e-011
1.052772e-010
7.121362e-011
-2.012996e-011
-9.015182e-011
-8.438609e-011
-1.610149e-011
4.994467e-011
5.649895e-011
3.054553e-012
-5.611716e-011
-6.124523e-011
-1.051810e-013
8.009221e-011
1.112011e-010
6.060985e-011
-4.055022e-011
-1.200796e-010
2.201899e-010
3.420696e-010
4.454705e-010
3.988241e-010
1.418760e-010
-2.626172e-010
-6.403722e-010
-7.876838e-010
-5.864304e-010
-8.473829e-011
5.119464e-010
9.415106e-010
1.019393e-009
7.251770e-010
1.935756e-010
-3.730763e-010
-8.059948e-010
-1.023568e-009
-1.022212e-009
-8.359774e-010
-5.072714e-010
-8.478083e-011
3.677687e-010
7.762448e-010
1.078842e-009
1.248805e-009
1.296870e-009
1.252146e-009
1.139493e-009
9.718486e-010
7.591725e-010
5.197829e-010
2.803379e-010
6.460244e-011
-1.170450e-010
-2.672212e-010
-3.918562e-010
-4.915262e-010
-5.615315e-010
-5.987273e-010
-6.068425e-010
-5.948714e-010
-5.709204e-010
-5.381483e-010
-4.964115e-010
-4.469457e-010
-3.946563e-010
-3.457668e-010
-3.037990e-010
-2.684909e-010
-2.387770e-010
-2.163167e-010
-2.053436e-010
-2.087090e-010
-2.245019e-010
-2.474353e-010
-2.740392e-010
-3.059872e-010
-3.471586e-010
-3.967115e-010
-4.455906e-010
-4.812146e-010
-4.964431e-010
-4.933443e-010
-4.767624e-010
-4.436642e-010
-3.801180e-010
-2.710456e-010
-1.144245e-010
7.430868e-011
2.726912e-010
4.658191e-010
6.490673e-010
8.151052e-010
9.392741e-010
9.816420e-010
9.085522e-010
7.162722e-010
4.358142e-010
1.159326e-010
-1.975079e-010
-4.659081e-010
-6.467787e-010
-6.890164e-010
-5.540456e-010
-2.550227e-010
1.198621e-010
4.309269e-010
5.540026e-010
4.499061e-010
1.877831e-010
-9.557719e-011
-2.734933e-010
-2.934236e-010
-1.901315e-010
-4.811466e-011
5.520695e-011
8.879115e-011
7.155533e-011
4.657513e-011
9.450870e-010
7.530361e-010
4.868473e-010
2.153291e-010
-5.415474e-011
-3.424540e-010
-6.225632e-010
-7.791571e-010
-6.628032e-010
-2.144916e-010
4.384417e-010
1.008885e-009
1.203348e-009
9.027322e-010
2.406060e-010
-4.787332e-010
-9.621257e-010
-1.080111e-009
-8.938507e-010
-5.619893e-010
-2.174737e-010
9.282651e-011
3.817806e-010
6.583498e-010
8.931889e-010
1.037756e-009
1.067519e-009
1.003714e-009
8.961497e-010
7.877863e-010
6.938535e-010
6.086022e-010
5.258852e-010
4.514845e-010
3.986029e-010
3.756817e-010
3.803082e-010
4.035518e-010
4.380964e-010
4.818122e-010
5.351035e-010
5.967264e-010
6.627260e-010
7.285609e-010
7.912828e-010
8.496363e-010
9.028022e-010
9.496106e-010
9.887348e-010
1.019002e-009
1.039282e-009
1.048525e-009
1.046463e-009
1.034165e-009
1.013164e-009
9.834899e-010
9.429778e-010
8.895255e-010
8.245711e-010
7.536312e-010
6.821649e-010
6.106597e-010
5.352064e-010
4.547386e-010
3.778151e-010
3.200505e-010
2.922635e-010
2.909583e-010
3.031764e-010
3.234336e-010
3.648810e-010
4.485535e-010
5.760963e-010
7.123719e-010
8.003468e-010
8.004917e-010
7.188772e-010
5.938406e-010
4.506902e-010
2.704841e-010
1.227010e-011
-3.223782e-010
-6.426791e-010
-7.965563e-010
-6.689944e-010
-2.793680e-010
2.047184e-010
5.587229e-010
6.356814e-010
4.468721e-010
1.345783e-010
-1.334056e-010
-2.637576e-010
-2.648782e-010
-2.003086e-010
-1.229599e-010
-4.628254e-011
3.652679e-011
1.191561e-010
1.737697e-010
1.253423e-009
6.968825e-010
4.731097e-011
-3.376286e-010
-3.429007e-010
-1.254627e-010
4.885849e-011
2.716143e-011
-1.266042e-010
-2.182409e-010
-1.140511e-010
1.325055e-010
3.250237e-010
2.964096e-010
5.753574e-011
-2.055754e-010
-2.815222e-010
-1.016011e-010
2.123227e-010
4.513532e-010
4.795519e-010
3.188311e-010
1.032991e-010
-3.961052e-011
-7.413251e-011
-4.723842e-011
-1.511127e-011
1.735179e-011
9.397405e-011
2.573816e-010
5.063829e-010
7.979121e-010
1.083636e-009
1.342578e-009
1.582945e-009
1.819451e-009
2.052433e-009
2.266793e-009
2.446465e-009
2.587256e-009
2.696853e-009
2.785227e-009
2.856402e-009
2.908300e-009
2.938436e-009
2.948762e-009
2.945570e-009
2.935579e-009
2.922180e-009
2.904878e-009
2.882066e-009
2.854674e-009
2.827356e-009
2.805545e-009
2.790345e-009
2.776131e-009
2.754350e-009
2.721032e-009
2.680345e-009
2.638730e-009
2.593811e-009
2.530021e-009
2.428630e-009
2.284880e-009
2.114227e-009
1.937487e-009
1.756858e-009
1.548932e-009
1.287988e-009
9.811745e-010
6.786940e-010
4.411107e-010
2.892959e-010
1.868478e-010
7.927275e-011
-4.271222e-011
-1.204694e-010
-7.840672e-011
9.058423e-011
2.878963e-010
3.683628e-010
2.560293e-010
1.655055e-011
-1.845557e-010
-2.103045e-010
-6.052206e-011
1.326754e-010
2.175557e-010
1.454221e-010
-8.937691e-013
-9.135413e-011
-6.582844e-011
2.027880e-011
5.768308e-011
-8.834718e-012
-1.258101e-010
-1.784190e-010
-9.609986e-011
7.850312e-011
2.191059e-010
1.178129e-009
3.786853e-010
-5.123345e-010
-9.168691e-010
-6.187075e-010
1.338503e-010
8.222210e-010
1.011357e-009
6.168658e-010
-8.578851e-011
-6.873519e-010
-9.197097e-010
-7.810065e-010
-4.507146e-010
-1.031377e-010
2.110720e-010
5.321529e-010
8.699789e-010
1.130040e-009
1.164099e-009
8.972033e-010
4.099722e-010
-1.011594e-010
-4.507224e-010
-5.695402e-010
-5.086121e-010
-3.566677e-010
-1.560190e-010
1.130230e-010
4.821982e-010
9.403271e-010
1.426580e-009
1.871107e-009
2.238853e-009
2.537490e-009
2.790085e-009
3.004370e-009
3.166374e-009
3.257963e-009
3.276318e-009
3.236839e-009
3.160303e-009
3.059178e-009
2.935260e-009
2.787873e-009
2.622701e-009
2.452983e-009
2.293220e-009
2.152106e-009
2.031109e-009
1.929569e-009
1.851271e-009
1.805871e-009
1.802938e-009
1.843471e-009
1.917463e-009
2.011399e-009
2.119463e-009
2.246330e-009
2.396005e-009
2.556149e-009
2.695471e-009
2.781385e-009
2.803349e-009
2.776894e-009
2.719556e-009
2.620455e-009
2.437979e-009
2.136055e-009
1.728104e-009
1.282274e-009
8.747450e-010
5.318319e-010
2.205563e-010
-9.561269e-011
-3.871870e-010
-5.503532e-010
-4.828120e-010
-1.830546e-010
2.201085e-010
5.441035e-010
6.745959e-010
6.279571e-010
5.031110e-010
3.745291e-010
2.315185e-010
2.074849e-011
-2.548658e-010
-4.869741e-010
-5.245323e-010
-3.034949e-010
7.210263e-011
3.800160e-010
4.330348e-010
2.170438e-010
-9.767841e-011
-2.839652e-010
-2.262383e-010
-4.758523e-013
1.937419e-010
8.028916e-010
9.461387e-011
-6.955295e-010
-1.032078e-009
-6.778946e-010
1.716872e-010
1.010535e-009
1.334994e-009
9.520695e-010
8.458133e-011
-7.887048e-010
-1.238534e-009
-1.123054e-009
-6.095971e-010
-1.157249e-012
4.747429e-010
7.582892e-010
8.982072e-010
9.377380e-010
8.656667e-010
6.643943e-010
3.836120e-010
1.486279e-010
8.624243e-011
2.370213e-010
5.354110e-010
8.718086e-010
1.175027e-009
1.442493e-009
1.702606e-009
1.957272e-009
2.162347e-009
2.258503e-009
2.215568e-009
2.046973e-009
1.786164e-009
1.453471e-009
1.045233e-009
5.501106e-010
-2.861932e-011
-6.671295e-010
-1.334058e-009
-2.006972e-009
-2.676772e-009
-3.338636e-009
-3.980671e-009
-4.581357e-009
-5.116968e-009
-5.570829e-009
-5.935536e-009
-6.206625e-009
-6.374456e-009
-6.423069e-009
-6.338381e-009
-6.118615e-009
-5.776337e-009
-5.328691e-009
-4.784965e-009
-4.145632e-009
-3.416873e-009
-2.627190e-009
-1.826572e-009
-1.063882e-009
-3.621563e-010
2.817285e-010
8.688964e-010
1.369561e-009
1.727692e-009
1.902155e-009
1.906410e-009
1.803272e-009
1.653223e-009
1.465173e-009
1.202798e-009
8.464462e-010
4.504913e-010
1.328823e-010
-3.140014e-012
5.387719e-011
2.200477e-010
3.886372e-010
5.069116e-010
5.834845e-010
6.264847e-010
5.882369e-010
3.892341e-010
1.169551e-011
-4.281477e-010
-7.157351e-010
-6.761614e-010
-3.112564e-010
1.792709e-010
5.198202e-010
5.380031e-010
2.705597e-010
-7.667286e-011
-2.787616e-010
-2.409571e-010
-4.620433e-011
1.224731e-010
1.011821e-010
-7.392463e-011
-2.985727e-010
-4.308343e-010
-3.451420e-010
-2.281811e-011
3.930254e-010
6.548294e-010
5.721507e-010
1.651315e-010
-3.227276e-010
-5.838403e-010
-4.646942e-010
-7.166997e-011
3.191767e-010
4.715425e-010
3.480222e-010
1.035721e-010
-5.640744e-011
-1.945997e-011
1.991591e-010
5.269268e-010
9.173258e-010
1.365516e-009
1.860279e-009
2.340110e-009
2.706079e-009
2.877107e-009
2.829583e-009
2.584143e-009
2.158700e-009
1.537391e-009
6.828003e-010
-4.271839e-010
-1.777454e-009
-3.327405e-009
-5.039400e-009
-6.893956e-009
-8.879926e-009
-1.097443e-008
-1.313465e-008
-1.530833e-008
-1.745042e-008
-1.952953e-008
-2.152017e-008
-2.339085e-008
-2.510026e-008
-2.660449e-008
-2.786704e-008
-2.886185e-008
-2.956718e-008
-2.995781e-008
-3.000512e-008
-2.968681e-008
-2.899800e-008
-2.795263e-008
-2.657352e-008
-2.488162e-008
-2.289809e-008
-2.065986e-008
-1.823310e-008
-1.570705e-008
-1.316892e-008
-1.068200e-008
-8.288855e-009
-6.036375e-009
-3.993350e-009
-2.235304e-009
-8.054648e-010
3.092299e-010
1.157987e-009
1.777297e-009
2.162217e-009
2.289702e-009
2.171668e-009
1.880786e-009
1.517734e-009
1.151309e-009
7.951638e-010
4.474579e-010
1.483848e-010
-1.690210e-011
1.057865e-011
1.828514e-010
3.447082e-010
3.363641e-010
1.206433e-010
-1.779739e-010
-3.639995e-010
-3.195664e-010
-8.895906e-011
1.653079e-010
2.893243e-010
2.400211e-010
9.001480e-011
-4.869814e-011
-1.069442e-010
-8.633569e-011
-3.226977e-011
7.745792e-012
-9.430127e-010
-2.818744e-010
4.064028e-010
6.452072e-010
3.382022e-010
-2.164129e-010
-5.964587e-010
-5.771963e-010
-2.487120e-010
1.289213e-010
3.666423e-010
4.625468e-010
5.178660e-010
5.724959e-010
5.406792e-010
3.098261e-010
-1.041176e-010
-5.066337e-010
-6.372760e-010
-3.479238e-010
3.055785e-010
1.123252e-009
1.901510e-009
2.528681e-009
2.973691e-009
3.211653e-009
3.173812e-009
2.763246e-009
1.903734e-009
5.640249e-010
-1.262310e-009
-3.590828e-009
-6.453945e-009
-9.876164e-009
-1.384532e-008
-1.830840e-008
-2.319176e-008
-2.842211e-008
-3.392912e-008
-3.963353e-008
-4.543892e-008
-5.123823e-008
-5.692872e-008
-6.242066e-008
-6.763275e-008
-7.248160e-008
-7.687694e-008
-8.072722e-008
-8.394899e-008
-8.647062e-008
-8.822789e-008
-8.915871e-008
-8.920564e-008
-8.832714e-008
-8.650870e-008
-8.376439e-008
-8.012929e-008
-7.565381e-008
-7.041005e-008
-6.450650e-008
-5.809496e-008
-5.135743e-008
-4.448032e-008
-3.763713e-008
-3.099237e-008
-2.471413e-008
-1.896959e-008
-1.389376e-008
-9.554945e-009
-5.951188e-009
-3.044964e-009
-8.026414e-010
8.018097e-010
1.820107e-009
2.355352e-009
2.537797e-009
2.463842e-009
2.162298e-009
1.635673e-009
9.469602e-010
2.622338e-010
-2.121106e-010
-3.583627e-010
-2.293652e-010
-2.675676e-012
1.576391e-010
2.091913e-010
2.171912e-010
2.456419e-010
2.719034e-010
2.132527e-010
3.467925e-011
-1.806379e-010
-2.826399e-010
-1.884053e-010
2.975661e-011
1.946900e-010
1.757072e-010
3.993315e-012
-1.560845e-010
-2.047579e-009
-6.462871e-010
8.899632e-010
1.557611e-009
1.035990e-009
-1.888451e-010
-1.239895e-009
-1.476510e-009
-8.718310e-010
8.792838e-011
8.300139e-010
1.079363e-009
9.325728e-010
6.478785e-010
3.965896e-010
1.935080e-010
1.302071e-011
-7.875981e-011
6.901715e-011
5.545463e-010
1.300456e-009
2.069322e-009
2.600493e-009
2.738830e-009
2.446910e-009
1.710678e-009
4.408683e-010
-1.542860e-009
-4.448387e-009
-8.439505e-009
-1.361489e-008
-2.003300e-008
-2.773583e-008
-3.673952e-008
-4.700379e-008
-5.841492e-008
-7.079960e-008
-8.395520e-008
-9.767102e-008
-1.117309e-007
-1.259086e-007
-1.399709e-007
-1.536893e-007
-1.668510e-007
-1.792580e-007
-1.907190e-007
-2.010435e-007
-2.100444e-007
-2.175450e-007
-2.233831e-007
-2.274098e-007
-2.294885e-007
-2.295015e-007
-2.273642e-007
-2.230363e-007
-2.165265e-007
-2.078902e-007
-1.972334e-007
-1.847247e-007
-1.706091e-007
-1.552072e-007
-1.388947e-007
-1.220771e-007
-1.051756e-007
-8.862481e-008
-7.286240e-008
-5.829035e-008
-4.521979e-008
-3.383598e-008
-2.420978e-008
-1.633874e-008
-1.017078e-008
-5.585219e-009
-2.362766e-009
-2.045704e-010
1.181215e-009
1.984185e-009
2.275493e-009
2.094952e-009
1.563676e-009
9.096194e-010
3.720355e-010
7.147329e-011
-2.890883e-011
-3.386299e-011
7.905746e-012
1.322805e-010
3.644952e-010
6.101901e-010
6.717417e-010
4.077421e-010
-1.033005e-010
-5.663037e-010
-6.730881e-010
-3.509390e-010
1.596112e-010
4.806158e-010
3.924953e-010
6.509084e-012
-3.320947e-010
-2.554886e-009
-9.871041e-010
7.914301e-010
1.683344e-009
1.280227e-009
3.817414e-011
-1.110765e-009
-1.425663e-009
-8.221688e-010
1.689758e-010
8.638906e-010
9.224688e-010
5.148550e-010
9.145533e-011
3.926392e-012
2.959728e-010
7.836399e-010
1.281151e-009
1.737065e-009
2.178999e-009
2.565102e-009
2.710488e-009
2.351815e-009
1.262192e-009
-7.129088e-010
-3.733096e-009
-8.068213e-009
-1.412194e-008
-2.234832e-008
-3.313197e-008
-4.671905e-008
-6.322225e-008
-8.265474e-008
-1.049403e-007
-1.298921e-007
-1.571953e-007
-1.864229e-007
-2.170827e-007
-2.486636e-007
-2.806604e-007
-3.125774e-007
-3.439305e-007
-3.742554e-007
-4.031169e-007
-4.301121e-007
-4.548624e-007
-4.770053e-007
-4.961913e-007
-5.120870e-007
-5.243779e-007
-5.327707e-007
-5.369987e-007
-5.368341e-007
-5.321058e-007
-5.227144e-007
-5.086429e-007
-4.899660e-007
-4.668677e-007
-4.396639e-007
-4.088185e-007
-3.749378e-007
-3.387474e-007
-3.010681e-007
-2.628014e-007
-2.249118e-007
-1.883794e-007
-1.541129e-007
-1.228573e-007
-9.514216e-008
-7.128787e-008
-5.143470e-008
-3.554195e-008
-2.335404e-008
-1.439132e-008
-8.027961e-009
-3.644433e-009
-7.595462e-010
9.514210e-010
1.747054e-009
1.911997e-009
1.748629e-009
1.478888e-009
1.172534e-009
7.992469e-010
3.690833e-010
1.700659e-011
-7.353944e-011
1.485541e-010
4.972914e-010
6.522925e-010
4.106561e-010
-1.244044e-010
-5.963572e-010
-6.659064e-010
-2.835983e-010
2.619880e-010
5.649909e-010
4.166080e-010
-3.735957e-011
-4.186459e-010
-1.804987e-009
-9.004482e-010
1.868750e-010
8.498078e-010
8.053423e-010
2.375172e-010
-3.536833e-010
-5.172901e-010
-1.751768e-010
3.411660e-010
5.754005e-010
3.283359e-010
-1.724626e-010
-4.503716e-010
-1.491578e-010
7.126241e-010
1.790782e-009
2.685710e-009
3.177637e-009
3.238846e-009
2.855310e-009
1.844471e-009
-1.849260e-010
-3.748857e-009
-9.407018e-009
-1.777039e-008
-2.955855e-008
-4.560111e-008
-6.673069e-008
-9.362018e-008
-1.266635e-007
-1.659511e-007
-2.113078e-007
-2.623317e-007
-3.184040e-007
-3.786966e-007
-4.422122e-007
-5.078623e-007
-5.745500e-007
-6.412247e-007
-7.069029e-007
-7.706688e-007
-8.316769e-007
-8.891551e-007
-9.424031e-007
-9.907816e-007
-1.033696e-006
-1.070582e-006
-1.100901e-006
-1.124140e-006
-1.139810e-006
-1.147464e-006
-1.146708e-006
-1.137225e-006
-1.118797e-006
-1.091326e-006
-1.054859e-006
-1.009632e-006
-9.561077e-007
-8.950090e-007
-8.273207e-007
-7.542793e-007
-6.773598e-007
-5.982636e-007
-5.188778e-007
-4.411768e-007
-3.670697e-007
-2.982436e-007
-2.360573e-007
-1.814965e-007
-1.351480e-007
-9.715398e-008
-6.716950e-008
-4.439464e-008
-2.772821e-008
-1.599145e-008
-8.103644e-009
-3.130878e-009
-2.464687e-010
1.284103e-009
2.032602e-009
2.317317e-009
2.217967e-009
1.736221e-009
9.880678e-010
2.559131e-010
-1.576218e-010
-1.460404e-010
1.183046e-010
3.231616e-010
2.643142e-010
-7.249884e-012
-2.553713e-010
-2.721374e-010
-4.833232e-011
2.312666e-010
3.449930e-010
2.060825e-010
-8.041614e-011
-3.040075e-010
2.529782e-010
-1.488233e-010
-5.115398e-010
-5.312240e-010
-2.030839e-010
2.310419e-010
5.217866e-010
5.956075e-010
5.294591e-010
3.977806e-010
1.937444e-010
-8.523717e-011
-3.062300e-010
-2.109424e-010
3.942249e-010
1.434030e-009
2.547735e-009
3.284410e-009
3.324926e-009
2.515719e-009
6.750474e-010
-2.665959e-009
-8.388576e-009
-1.772081e-008
-3.208412e-008
-5.298190e-008
-8.195350e-008
-1.205132e-007
-1.700009e-007
-2.313690e-007
-3.050043e-007
-3.906664e-007
-4.875371e-007
-5.943167e-007
-7.093183e-007
-8.305570e-007
-9.558634e-007
-1.083024e-006
-1.209919e-006
-1.334617e-006
-1.455406e-006
-1.570797e-006
-1.679496e-006
-1.780392e-006
-1.872533e-006
-1.955099e-006
-2.027366e-006
-2.088674e-006
-2.138398e-006
-2.175935e-006
-2.200695e-006
-2.212112e-006
-2.209649e-006
-2.192821e-006
-2.161210e-006
-2.114502e-006
-2.052533e-006
-1.975361e-006
-1.883342e-006
-1.777209e-006
-1.658113e-006
-1.527680e-006
-1.388044e-006
-1.241881e-006
-1.092367e-006
-9.430408e-007
-7.975750e-007
-6.595108e-007
-5.320193e-007
-4.176985e-007
-3.183867e-007
-2.349969e-007
-1.674339e-007
-1.146763e-007
-7.503010e-008
-4.645622e-008
-2.683132e-008
-1.408694e-008
-6.289956e-009
-1.760815e-009
7.673130e-010
2.060950e-009
2.479042e-009
2.215007e-009
1.517316e-009
7.296860e-010
1.556599e-010
-9.147056e-011
-9.823779e-011
-1.920253e-011
5.883461e-011
1.356752e-010
2.175315e-010
2.576395e-010
1.949260e-010
3.957144e-011
-1.080435e-010
-1.434512e-010
-6.278667e-011
3.041483e-011
2.755660e-009
9.972665e-010
-9.040242e-010
-1.728032e-009
-1.177663e-009
8.486371e-011
1.078563e-009
1.252826e-009
7.619445e-010
1.594160e-010
-1.083984e-010
4.324004e-011
4.575021e-010
9.918265e-010
1.614190e-009
2.281960e-009
2.783592e-009
2.718716e-009
1.589391e-009
-1.177657e-009
-6.394042e-009
-1.537346e-008
-3.009252e-008
-5.312210e-008
-8.738002e-008
-1.358501e-007
-2.013518e-007
-2.863275e-007
-3.925762e-007
-5.209448e-007
-6.710827e-007
-8.413721e-007
-1.029065e-006
-1.230558e-006
-1.441705e-006
-1.658127e-006
-1.875490e-006
-2.089764e-006
-2.297421e-006
-2.495546e-006
-2.681846e-006
-2.854596e-006
-3.012543e-006
-3.154833e-006
-3.280928e-006
-3.390545e-006
-3.483576e-006
-3.560019e-006
-3.619906e-006
-3.663249e-006
-3.689992e-006
-3.699977e-006
-3.692910e-006
-3.668335e-006
-3.625621e-006
-3.563970e-006
-3.482476e-006
-3.380218e-006
-3.256400e-006
-3.110506e-006
-2.942484e-006
-2.752961e-006
-2.543480e-006
-2.316716e-006
-2.076599e-006
-1.828264e-006
-1.577819e-006
-1.331961e-006
-1.097481e-006
-8.806759e-007
-6.867356e-007
-5.191892e-007
-3.795906e-007
-2.675478e-007
-1.810713e-007
-1.170770e-007
-7.186400e-008
-4.149851e-008
-2.215220e-008
-1.044058e-008
-3.703539e-009
-9.969275e-011
1.537882e-009
1.973250e-009
1.772940e-009
1.347100e-009
9.075088e-010
4.946729e-010
1.140122e-010
-1.429557e-010
-1.349878e-010
1.579754e-010
5.241200e-010
6.356217e-010
3.292299e-010
-2.098286e-010
-5.683745e-010
-4.565289e-010
2.317166e-011
4.497016e-010
4.310797e-009
1.838469e-009
-8.774154e-010
-2.146589e-009
-1.540314e-009
3.385868e-011
1.210600e-009
1.244785e-009
4.432021e-010
-2.787254e-010
-2.174179e-010
6.349940e-010
1.750687e-009
2.585754e-009
2.933579e-009
2.838591e-009
2.224165e-009
5.727786e-010
-3.174267e-009
-1.060967e-008
-2.394124e-008
-4.619188e-008
-8.134529e-008
-1.342378e-007
-2.101541e-007
-3.142458e-007
-4.509156e-007
-6.232268e-007
-8.323459e-007
-1.077078e-006
-1.353638e-006
-1.655812e-006
-1.975508e-006
-2.303595e-006
-2.630787e-006
-2.948422e-006
-3.249051e-006
-3.526801e-006
-3.777533e-006
-3.998805e-006
-4.189665e-006
-4.350370e-006
-4.482097e-006
-4.586696e-006
-4.666520e-006
-4.724283e-006
-4.762935e-006
-4.785529e-006
-4.795081e-006
-4.794426e-006
-4.786064e-006
-4.772001e-006
-4.753579e-006
-4.731295e-006
-4.704649e-006
-4.672029e-006
-4.630673e-006
-4.576731e-006
-4.505414e-006
-4.411280e-006
-4.288643e-006
-4.132171e-006
-3.937626e-006
-3.702698e-006
-3.427777e-006
-3.116516e-006
-2.776043e-006
-2.416717e-006
-2.051356e-006
-1.693933e-006
-1.357926e-006
-1.054641e-006
-7.919457e-007
-5.736934e-007
-3.998955e-007
-2.674190e-007
-1.709341e-007
-1.039105e-007
-5.956375e-008
-3.166245e-008
-1.506036e-008
-5.853717e-009
-1.223244e-009
8.248647e-010
1.619817e-009
1.878779e-009
1.810162e-009
1.385060e-009
6.745686e-010
-1.597302e-012
-2.547866e-010
2.826936e-011
5.278216e-010
7.237493e-010
3.492957e-010
-3.451730e-010
-7.862583e-010
-5.814846e-010
1.157450e-010
7.205842e-010
3.888128e-009
1.747064e-009
-5.875404e-010
-1.647979e-009
-1.097121e-009
2.125232e-010
1.054042e-009
8.331364e-010
-1.946857e-011
-5.203112e-010
2.700302e-012
1.397025e-009
2.887241e-009
3.707290e-009
3.541971e-009
2.384947e-009
-5.807525e-011
-4.974015e-009
-1.473207e-008
-3.289876e-008
-6.422934e-008
-1.147638e-007
-1.918709e-007
-3.039390e-007
-4.595293e-007
-6.660636e-007
-9.282994e-007
-1.246892e-006
-1.617325e-006
-2.029468e-006
-2.467985e-006
-2.913658e-006
-3.345442e-006
-3.742809e-006
-4.087891e-006
-4.367017e-006
-4.571499e-006
-4.697712e-006
-4.746621e-006
-4.722968e-006
-4.634293e-006
-4.489998e-006
-4.300578e-006
-4.077098e-006
-3.830888e-006
-3.573388e-006
-3.316026e-006
-3.070087e-006
-2.846505e-006
-2.655610e-006
-2.506791e-006
-2.408104e-006
-2.365805e-006
-2.383839e-006
-2.463327e-006
-2.602079e-006
-2.794202e-006
-3.029832e-006
-3.295053e-006
-3.572097e-006
-3.839921e-006
-4.075304e-006
-4.254514e-006
-4.355514e-006
-4.360522e-006
-4.258595e-006
-4.047817e-006
-3.736517e-006
-3.343040e-006
-2.893768e-006
-2.419583e-006
-1.951461e-006
-1.516247e-006
-1.133563e-006
-8.144171e-007
-5.614992e-007
-3.707757e-007
-2.337768e-007
-1.399969e-007
-7.890489e-008
-4.123005e-008
-1.946813e-008
-7.842894e-009
-2.099402e-009
6.304044e-010
1.934022e-009
2.397759e-009
2.126509e-009
1.286023e-009
3.308240e-010
-2.056002e-010
-1.117927e-010
3.250038e-010
5.693669e-010
3.112821e-010
-2.614794e-010
-6.410415e-010
-4.675749e-010
1.353266e-010
6.602124e-010
1.553812e-009
6.812436e-010
-2.243815e-010
-5.343737e-010
-1.478624e-010
4.781186e-010
7.396478e-010
4.205003e-010
-9.688782e-011
-1.380452e-010
6.860416e-010
2.118570e-009
3.405676e-009
3.770634e-009
2.706139e-009
-2.943247e-010
-6.489543e-009
-1.869529e-008
-4.175576e-008
-8.264159e-008
-1.503896e-007
-2.559978e-007
-4.120408e-007
-6.315297e-007
-9.256709e-007
-1.300640e-006
-1.754026e-006
-2.271937e-006
-2.827762e-006
-3.383263e-006
-3.892076e-006
-4.305066e-006
-4.576438e-006
-4.669285e-006
-4.559498e-006
-4.237468e-006
-3.707628e-006
-2.986368e-006
-2.099022e-006
-1.076637e-006
4.695480e-008
1.237411e-006
2.461365e-006
3.687158e-006
4.884984e-006
6.026710e-006
7.085610e-006
8.036177e-006
8.854114e-006
9.516520e-006
1.000226e-005
1.029255e-005
1.037168e-005
1.022795e-005
9.854712e-006
9.251568e-006
8.425601e-006
7.392694e-006
6.178745e-006
4.820603e-006
3.366394e-006
1.874799e-006
4.128693e-007
-9.479389e-007
-2.137557e-006
-3.094551e-006
-3.773939e-006
-4.154099e-006
-4.241011e-006
-4.068244e-006
-3.692061e-006
-3.182351e-006
-2.611431e-006
-2.043373e-006
-1.526324e-006
-1.089191e-006
-7.426810e-007
-4.834769e-007
-2.997138e-007
-1.760373e-007
-9.717610e-008
-4.981573e-008
-2.322471e-008
-9.289353e-009
-2.380918e-009
9.018102e-010
2.243770e-009
2.359078e-009
1.695683e-009
7.783685e-010
1.204148e-010
-4.422678e-011
1.336743e-010
3.058519e-010
2.403534e-010
-1.052864e-011
-2.082364e-010
-1.718938e-010
5.837607e-011
2.686405e-010
-1.541825e-009
-7.421345e-010
1.736967e-010
7.152641e-010
7.623900e-010
5.235777e-010
2.866133e-010
2.335765e-010
4.459855e-010
9.750732e-010
1.804949e-009
2.716991e-009
3.208592e-009
2.516837e-009
-4.434578e-010
-7.494036e-009
-2.200557e-008
-4.983996e-008
-1.000565e-007
-1.851865e-007
-3.210456e-007
-5.259257e-007
-8.186220e-007
-1.214537e-006
-1.719509e-006
-2.322117e-006
-2.986575e-006
-3.649045e-006
-4.219777e-006
-4.591797e-006
-4.654731e-006
-4.310614e-006
-3.487982e-006
-2.151217e-006
-3.036023e-007
2.015672e-006
4.739027e-006
7.780332e-006
1.104491e-005
1.443804e-005
1.787114e-005
2.126529e-005
2.455260e-005
2.767588e-005
3.058730e-005
3.324658e-005
3.561918e-005
3.767480e-005
3.938607e-005
4.072768e-005
4.167570e-005
4.220725e-005
4.230043e-005
4.193464e-005
4.109140e-005
3.975584e-005
3.791908e-005
3.558167e-005
3.275805e-005
2.948190e-005
2.581158e-005
2.183467e-005
1.767020e-005
1.346679e-005
9.395297e-006
5.635176e-006
2.355250e-006
-3.085915e-007
-2.274129e-006
-3.526599e-006
-4.121044e-006
-4.171446e-006
-3.828656e-006
-3.252700e-006
-2.586737e-006
-1.939072e-006
-1.376472e-006
-9.278764e-007
-5.945218e-007
-3.616356e-007
-2.080773e-007
-1.125206e-007
-5.654799e-008
-2.576924e-008
-9.902856e-009
-2.290660e-009
9.534150e-010
1.935837e-009
1.817313e-009
1.290678e-009
7.496154e-010
3.521151e-010
1.194287e-010
4.240102e-011
1.054790e-010
2.375105e-010
3.018086e-010
1.911061e-010
-5.621184e-011
-2.623321e-010
-3.923390e-009
-1.696499e-009
6.756717e-010
1.716538e-009
1.230553e-009
1.838153e-010
-2.737497e-010
2.815988e-010
1.430767e-009
2.483487e-009
3.045588e-009
3.034933e-009
2.179078e-009
-6.152607e-010
-7.788547e-009
-2.368920e-008
-5.542092e-008
-1.139658e-007
-2.152079e-007
-3.802772e-007
-6.345173e-007
-1.004120e-006