# vtk DataFile Version 3.0
vtk output
ASCII
DATASET STRUCTURED_POINTS
DIMENSIONS 100 100 1
SPACING 1 1 1
ORIGIN 0 0 0
POINT_DATA 10000
SCALARS SFBox_profile double
LOOKUP_TABLE default 
0.000000e+000
0.000000e+000
0.000000e+000
0.000000e+000
0.000000e+000
0.000000e+000
0.000000e+000
0.000000e+000
0.000000e+000
0.000000e+000
0.000000e+000
0.000000e+000
0.000000e+000
0.000000e+000
0.000000e+000
0.000000e+000
0.000000e+000
0.000000e+000
0.000000e+000
0.000000e+000
0.000000e+000
0.000000e+000
0.000000e+000
0.000000e+000
0.000000e+000
0.000000e+000
0.000000e+000
0.000000e+000
0.000000e+000
0.000000e+000
0.000000e+000
0.000000e+000
0.000000e+000
0.000000e+000
0.000000e+000
0.000000e+000
0.000000e+000
0.000000e+000
0.000000e+000
0.000000e+000
0.000000e+000
0.000000e+000
0.000000e+000
0.000000e+000
0.000000e+000
0.000000e+000
0.000000e+000
0.000000e+000
0.000000e+000
0.000000e+000
0.000000e+000
0.000000e+000
0.000000e+000
0.000000e+000
0.000000e+000
0.000000e+000
0.000000e+000
0.000000e+000
0.000000e+000
0.000000e+000
0.000000e+000
0.000000e+000
0.000000e+000
0.000000e+000
0.000000e+000
0.000000e+000
0.000000e+000
0.000000e+000
0.000000e+000
0.000000e+000
0.000000e+000
0.000000e+000
0.000000e+000
0.000000e+000
0.000000e+000
0.000000e+000
0.000000e+000
0.000000e+000
0.000000e+000
0.000000e+000
0.000000e+000
0.000000e+000
0.000000e+000
0.000000e+000
0.000000e+000
0.000000e+000
0.000000e+000
0.000000e+000
0.000000e+000
0.000000e+000
0.000000e+000
0.000000e+000
0.000000e+000
0.000000e+000
0.000000e+000
0.000000e+000
0.000000e+000
0.000000e+000
0.000000e+000
0.000000e+000
6.947512e-010
5.813944e-010
3.809723e-010
1.401907e-010
-8.433453e-011
-2.395386e-010
-2.903894e-010
-2.320833e-010
-9.472192e-011
6.447365e-011
1.815886e-010
2.117451e-010
1.479186e-010
2.289720e-011
-1.068042e-010
-1.867804e-010
-1.877337e-010
-1.155003e-010
-4.507312e-012
1.018734e-010
1.747673e-010
2.146731e-010
2.478162e-010
3.039465e-010
3.893132e-010
4.758798e-010
5.191843e-010
4.950278e-010
4.261751e-010
3.733183e-010
3.920448e-010
4.884172e-010
6.116860e-010
6.940783e-010
7.065559e-010
6.826772e-010
6.881861e-010
7.616661e-010
8.787940e-010
9.730089e-010
9.947043e-010
9.553704e-010
9.161553e-010
9.312245e-010
9.982218e-010
1.061668e-009
1.065756e-009
1.006887e-009
9.367489e-010
9.134652e-010
9.471062e-010
9.906895e-010
9.844886e-010
9.113440e-010
8.111025e-010
7.416799e-010
7.245494e-010
7.260896e-010
6.912123e-010
5.962572e-010
4.711479e-010
3.712512e-010
3.270521e-010
3.193175e-010
3.015611e-010
2.464278e-010
1.712622e-010
1.196312e-010
1.178947e-010
1.485970e-010
1.651822e-010
1.333457e-010
6.055075e-011
-1.206893e-011
-4.592252e-011
-3.554015e-011
-7.700533e-012
6.463981e-012
-1.349635e-012
-1.397173e-011
-9.750890e-012
1.475581e-011
4.120523e-011
4.627461e-011
2.198010e-011
-1.817170e-011
-5.032984e-011
-5.721971e-011
-3.730847e-011
-2.200078e-012
3.189356e-011
5.125297e-011
4.826086e-011
2.362730e-011
-1.217950e-011
-4.133710e-011
-4.725461e-011
-2.570582e-011
1.017922e-011
3.705570e-011
1.437426e-010
1.240260e-010
8.582301e-011
3.374724e-011
-2.197774e-011
-6.614257e-011
-8.363367e-011
-6.724199e-011
-2.338338e-011
2.905242e-011
6.734796e-011
7.628998e-011
5.520556e-011
1.685885e-011
-1.992328e-011
-3.873848e-011
-3.132088e-011
1.612495e-013
4.372485e-011
8.193069e-011
1.008547e-010
1.004678e-010
9.836645e-011
1.201347e-010
1.798167e-010
2.653639e-010
3.441364e-010
3.882721e-010
4.004068e-010
4.156779e-010
4.741277e-010
5.848559e-010
7.141646e-010
8.113629e-010
8.519980e-010
8.600733e-010
8.874187e-010
9.669134e-010
1.081618e-009
1.178935e-009
1.217956e-009
1.206717e-009
1.194479e-009
1.225670e-009
1.298239e-009
1.365438e-009
1.379454e-009
1.335848e-009
1.277065e-009
1.251992e-009
1.270057e-009
1.293105e-009
1.272133e-009
1.193542e-009
1.091204e-009
1.013776e-009
9.791377e-010
9.591622e-010
9.082622e-010
8.075083e-010
6.823227e-010
5.780597e-010
5.179773e-010
4.837545e-010
4.359120e-010
3.532207e-010
2.531948e-010
1.751155e-010
1.430059e-010
1.439651e-010
1.413060e-010
1.086769e-010
5.275303e-011
4.555203e-012
-1.047104e-011
5.119672e-012
2.544464e-011
2.634739e-011
6.241538e-012
-1.558139e-011
-1.919267e-011
-2.477181e-012
1.853565e-011
2.548571e-011
1.346518e-011
-6.975392e-012
-2.092928e-011
-2.125635e-011
-1.133507e-011
1.159479e-012
1.104195e-011
1.663895e-011
1.673825e-011
9.504255e-012
-4.326766e-012
-1.828345e-011
-2.266536e-011
-1.235689e-011
7.179306e-012
2.253105e-011
-5.330221e-010
-4.354057e-010
-2.710694e-010
-8.875994e-011
6.387635e-011
1.555772e-010
1.771558e-010
1.383879e-010
6.138643e-011
-2.513238e-011
-9.079814e-011
-1.107332e-010
-7.532872e-011
2.679099e-012
9.148675e-011
1.557690e-010
1.760559e-010
1.580672e-010
1.244907e-010
9.596304e-011
7.762653e-011
6.276456e-011
4.894146e-011
4.965806e-011
8.827947e-011
1.783791e-010
3.090941e-010
4.508394e-010
5.777166e-010
6.863028e-010
7.930934e-010
9.131871e-010
1.041381e-009
1.154919e-009
1.235762e-009
1.290191e-009
1.345107e-009
1.423098e-009
1.520022e-009
1.607720e-009
1.660477e-009
1.680162e-009
1.695273e-009
1.733840e-009
1.795840e-009
1.851876e-009
1.869959e-009
1.845071e-009
1.803253e-009
1.776418e-009
1.772149e-009
1.767378e-009
1.731577e-009
1.656664e-009
1.564782e-009
1.486951e-009
1.433706e-009
1.386105e-009
1.315160e-009
1.210251e-009
1.088956e-009
9.794490e-010
8.932810e-010
8.151061e-010
7.188489e-010
5.941780e-010
4.578188e-010
3.395840e-010
2.572971e-010
2.044474e-010
1.609197e-010
1.146083e-010
7.222547e-011
4.956835e-011
5.220792e-011
6.647103e-011
6.972384e-011
4.977125e-011
1.474743e-011
-1.529776e-011
-2.622629e-011
-2.010759e-011
-9.640175e-012
-4.171265e-012
-1.939406e-012
4.579293e-012
1.726795e-011
2.774575e-011
2.473288e-011
5.904694e-012
-1.799164e-011
-3.125167e-011
-2.605914e-011
-8.212166e-012
8.893511e-012
1.557623e-011
1.201451e-011
4.977339e-012
2.255451e-013
-1.359181e-012
-8.190978e-010
-6.670626e-010
-4.106197e-010
-1.247291e-010
1.170508e-010
2.647758e-010
3.000820e-010
2.329377e-010
9.533040e-011
-6.404160e-011
-1.877216e-010
-2.256706e-010
-1.575183e-010
-7.787706e-012
1.610305e-010
2.800047e-010
3.127899e-010
2.754262e-010
2.214488e-010
2.025180e-010
2.344013e-010
2.941763e-010
3.489636e-010
3.903407e-010
4.444899e-010
5.497716e-010
7.219059e-010
9.372616e-010
1.148240e-009
1.316743e-009
1.437248e-009
1.532034e-009
1.626235e-009
1.726363e-009
1.819579e-009
1.890258e-009
1.935626e-009
1.966208e-009
1.993435e-009
2.018778e-009
2.035151e-009
2.037456e-009
2.029987e-009
2.022756e-009
2.021228e-009
2.020838e-009
2.012256e-009
1.991729e-009
1.965558e-009
1.944047e-009
1.931365e-009
1.921886e-009
1.906550e-009
1.882258e-009
1.854276e-009
1.829177e-009
1.805942e-009
1.774848e-009
1.725587e-009
1.656280e-009
1.573974e-009
1.485971e-009
1.391010e-009
1.279696e-009
1.144263e-009
9.880995e-010
8.255773e-010
6.723564e-010
5.358696e-010
4.151096e-010
3.089211e-010
2.228758e-010
1.662203e-010
1.410901e-010
1.352689e-010
1.274780e-010
1.021729e-010
6.085043e-011
1.925796e-011
-7.148707e-012
-1.602466e-011
-1.749166e-011
-2.146359e-011
-2.619450e-011
-2.011611e-011
4.286181e-012
3.831779e-011
5.972850e-011
4.964002e-011
9.394596e-012
-3.792328e-011
-6.345228e-011
-5.311583e-011
-1.639891e-011
2.245209e-011
4.211837e-011
3.652997e-011
1.444316e-011
-9.704753e-012
-2.446904e-011
-5.082640e-010
-4.024794e-010
-2.296665e-010
-4.665534e-011
9.818758e-011
1.800478e-010
1.954873e-010
1.519410e-010
6.257178e-011
-4.910266e-011
-1.442773e-010
-1.772423e-010
-1.192032e-010
1.802948e-011
1.807071e-010
3.027042e-010
3.492854e-010
3.429416e-010
3.490846e-010
4.294578e-010
5.976394e-010
8.110894e-010
1.005979e-009
1.146829e-009
1.251130e-009
1.369790e-009
1.540538e-009
1.753012e-009
1.953569e-009
2.084605e-009
2.125480e-009
2.102663e-009
2.063433e-009
2.036935e-009
2.014364e-009
1.961749e-009
1.851446e-009
1.685118e-009
1.490994e-009
1.300911e-009
1.128151e-009
9.637352e-010
7.916826e-010
6.083148e-010
4.292918e-010
2.799295e-010
1.783589e-010
1.257169e-010
1.103601e-010
1.211203e-010
1.578989e-010
2.310858e-010
3.509191e-010
5.159165e-010
7.097856e-010
9.091014e-010
1.095418e-009
1.262238e-009
1.411739e-009
1.544636e-009
1.652262e-009
1.718011e-009
1.727389e-009
1.678401e-009
1.583353e-009
1.460284e-009
1.321183e-009
1.167247e-009
9.954220e-010
8.102779e-010
6.297420e-010
4.779337e-010
3.697161e-010
2.998618e-010
2.469684e-010
1.900664e-010
1.245523e-010
6.396581e-011
2.604226e-011
1.530849e-011
1.787233e-011
1.338990e-011
-6.380593e-012
-2.948970e-011
-3.434446e-011
-1.030269e-011
2.988110e-011
5.754814e-011
5.017133e-011
9.753466e-012
-3.778059e-011
-6.166403e-011
-4.828600e-011
-9.134244e-012
2.979208e-011
4.682435e-011
3.686510e-011
1.015393e-011
-1.763788e-011
-3.435705e-011
1.437764e-010
1.413009e-010
1.228433e-010
7.757853e-011
1.388077e-011
-4.090276e-011
-5.952102e-011
-3.695042e-011
4.552843e-012
3.367496e-011
3.706928e-011
3.173541e-011
5.093911e-011
1.149636e-010
2.125367e-010
3.110276e-010
3.887866e-010
4.620980e-010
5.810493e-010
7.933499e-010
1.102910e-009
1.457040e-009
1.775057e-009
1.998116e-009
2.122155e-009
2.188497e-009
2.240159e-009
2.279322e-009
2.260157e-009
2.122201e-009
1.836516e-009
1.426880e-009
9.492862e-010
4.473976e-010
-7.905408e-011
-6.674331e-010
-1.353667e-009
-2.134728e-009
-2.963069e-009
-3.776520e-009
-4.537522e-009
-5.248682e-009
-5.932692e-009
-6.595325e-009
-7.204027e-009
-7.700402e-009
-8.035298e-009
-8.196224e-009
-8.204440e-009
-8.086131e-009
-7.844413e-009
-7.457179e-009
-6.902176e-009
-6.186492e-009
-5.354244e-009
-4.466122e-009
-3.569217e-009
-2.683136e-009
-1.812672e-009
-9.730038e-010
-2.026520e-010
4.487033e-010
9.472370e-010
1.293146e-009
1.514393e-009
1.642117e-009
1.689434e-009
1.651333e-009
1.524031e-009
1.324938e-009
1.094374e-009
8.766879e-010
6.965567e-010
5.502779e-010
4.187435e-010
2.902840e-010
1.736716e-010
9.061429e-011
5.497679e-011
5.731980e-011
6.865744e-011
6.089746e-011
2.721701e-011
-1.440719e-011
-3.726859e-011
-2.826225e-011
1.697267e-012
2.705450e-011
2.824567e-011
6.353958e-012
-1.957443e-011
-2.904600e-011
-1.605698e-011
8.107547e-012
2.572318e-011
2.652055e-011
1.318355e-011
-4.090769e-012
-1.684978e-011
-2.272081e-011
6.305065e-010
5.418361e-010
3.718597e-010
1.469074e-010
-7.974115e-011
-2.392545e-010
-2.780315e-010
-1.890304e-010
-1.968485e-011
1.529607e-010
2.655624e-010
3.017653e-010
2.940503e-010
2.957586e-010
3.460160e-010
4.531776e-010
6.054363e-010
7.945908e-010
1.028988e-009
1.322314e-009
1.666985e-009
2.015911e-009
2.291315e-009
2.417533e-009
2.354033e-009
2.102891e-009
1.684581e-009
1.101863e-009
3.222382e-010
-7.051740e-010
-2.011358e-009
-3.579837e-009
-5.354176e-009
-7.275513e-009
-9.318604e-009
-1.149486e-008
-1.381864e-008
-1.626555e-008
-1.875963e-008
-2.120228e-008
-2.351890e-008
-2.568310e-008
-2.769718e-008
-2.954638e-008
-3.116809e-008
-3.246437e-008
-3.334795e-008
-3.378205e-008
-3.378039e-008
-3.336986e-008
-3.255190e-008
-3.129902e-008
-2.958989e-008
-2.745117e-008
-2.496815e-008
-2.225522e-008
-1.941309e-008
-1.650992e-008
-1.359947e-008
-1.075411e-008
-8.076985e-009
-5.678360e-009
-3.634458e-009
-1.963675e-009
-6.389627e-010
3.768436e-010
1.104495e-009
1.551568e-009
1.737781e-009
1.715039e-009
1.561222e-009
1.351633e-009
1.131944e-009
9.141924e-010
6.963653e-010
4.861792e-010
3.079628e-010
1.881151e-010
1.337156e-010
1.240911e-010
1.231894e-010
1.029143e-010
5.919142e-011
9.497352e-012
-2.417213e-011
-3.231169e-011
-2.230157e-011
-9.146893e-012
-2.381382e-012
-4.951670e-013
3.709773e-012
1.331891e-011
2.280012e-011
2.291020e-011
1.010673e-011
-8.664190e-012
-2.073377e-011
-1.815520e-011
-4.621652e-012
7.466925e-012
5.926399e-010
5.041054e-010
3.355714e-010
1.138441e-010
-1.089617e-010
-2.646528e-010
-2.960773e-010
-1.878435e-010
2.042372e-011
2.506771e-010
4.263160e-010
5.127023e-010
5.339766e-010
5.561253e-010
6.472886e-010
8.401186e-010
1.118318e-009
1.432119e-009
1.727427e-009
1.964984e-009
2.115494e-009
2.137071e-009
1.956592e-009
1.473746e-009
5.874868e-010
-7.750907e-010
-2.650089e-009
-5.053386e-009
-8.004533e-009
-1.153292e-008
-1.565769e-008
-2.035865e-008
-2.556641e-008
-3.118387e-008
-3.712207e-008
-4.331792e-008
-4.971698e-008
-5.623702e-008
-6.274816e-008
-6.909181e-008
-7.512459e-008
-8.074828e-008
-8.589755e-008
-9.049600e-008
-9.442178e-008
-9.751692e-008
-9.963554e-008
-1.006901e-007
-1.006565e-007
-9.953775e-008
-9.732380e-008
-9.398892e-008
-8.953218e-008
-8.402516e-008
-7.762385e-008
-7.053467e-008
-6.296561e-008
-5.510420e-008
-4.713552e-008
-3.927290e-008
-3.176142e-008
-2.484022e-008
-1.868870e-008
-1.339735e-008
-8.981404e-009
-5.418937e-009
-2.677279e-009
-7.085764e-010
5.720158e-010
1.295092e-009
1.615862e-009
1.675404e-009
1.573065e-009
1.368164e-009
1.103141e-009
8.236425e-010
5.778030e-010
3.986749e-010
2.892703e-010
2.258879e-010
1.778143e-010
1.273646e-010
7.559976e-011
3.274734e-011
4.854931e-012
-1.115728e-011
-2.178237e-011
-2.852507e-011
-2.617899e-011
-9.659201e-012
1.742718e-011
4.124335e-011
4.586880e-011
2.526960e-011
-1.048785e-011
-4.032236e-011
-4.561947e-011
-2.286020e-011
1.351367e-011
4.021444e-011
8.744976e-011
8.032484e-011
5.919612e-011
1.847463e-011
-3.562602e-011
-8.043233e-011
-8.338495e-011
-1.829615e-011
1.176578e-010
2.982267e-010
4.809737e-010
6.344732e-010
7.634780e-010
9.125308e-010
1.139522e-009
1.471228e-009
1.868496e-009
2.225489e-009
2.404224e-009
2.278570e-009
1.753441e-009
7.443455e-010
-8.640113e-010
-3.241876e-009
-6.595661e-009
-1.111578e-008
-1.692849e-008
-2.408444e-008
-3.258417e-008
-4.240907e-008
-5.352585e-008
-6.586155e-008
-7.927767e-008
-9.357352e-008
-1.085213e-007
-1.239030e-007
-1.395180e-007
-1.551586e-007
-1.705817e-007
-1.855116e-007
-1.996721e-007
-2.128202e-007
-2.247470e-007
-2.352453e-007
-2.440763e-007
-2.509736e-007
-2.556861e-007
-2.580258e-007
-2.578817e-007
-2.551935e-007
-2.499205e-007
-2.420427e-007
-2.316040e-007
-2.187601e-007
-2.037921e-007
-1.870732e-007
-1.690205e-007
-1.500710e-007
-1.306925e-007
-1.113998e-007
-9.273891e-008
-7.522862e-008
-5.929070e-008
-4.520983e-008
-3.313902e-008
-2.312908e-008
-1.514817e-008
-9.078646e-009
-4.709804e-009
-1.754520e-009
1.035356e-010
1.154936e-009
1.633209e-009
1.718506e-009
1.559043e-009
1.283217e-009
9.914041e-010
7.404995e-010
5.424532e-010
3.838115e-010
2.522935e-010
1.498255e-010
8.483114e-011
5.594468e-011
4.584720e-011
3.228576e-011
5.748913e-012
-2.330937e-011
-3.492047e-011
-1.863720e-011
1.544605e-011
4.294889e-011
4.319939e-011
1.435546e-011
-2.557602e-011
-5.143466e-011
-4.728291e-011
-1.549546e-011
2.585950e-011
5.404607e-011
-4.712677e-010
-3.867052e-010
-2.361027e-010
-5.608116e-011
1.059187e-010
2.098085e-010
2.451767e-010
2.420078e-010
2.577811e-010
3.457513e-010
5.261117e-010
7.823425e-010
1.085182e-009
1.420996e-009
1.793111e-009
2.184678e-009
2.505752e-009
2.565684e-009
2.095283e-009
8.026196e-010
-1.583260e-009
-5.316547e-009
-1.067880e-008
-1.801508e-008
-2.771520e-008
-4.013750e-008
-5.552134e-008
-7.394551e-008
-9.535131e-008
-1.195971e-007
-1.464913e-007
-1.757812e-007
-2.071200e-007
-2.400605e-007
-2.740930e-007
-3.087053e-007
-3.434183e-007
-3.777757e-007
-4.113088e-007
-4.435174e-007
-4.738866e-007
-5.019216e-007
-5.271645e-007
-5.491778e-007
-5.675166e-007
-5.817247e-007
-5.913684e-007
-5.960831e-007
-5.955991e-007
-5.897344e-007
-5.783803e-007
-5.615118e-007
-5.392322e-007
-5.118224e-007
-4.797592e-007
-4.436916e-007
-4.044012e-007
-3.627792e-007
-3.198243e-007
-2.766331e-007
-2.343506e-007
-1.940781e-007
-1.567732e-007
-1.231813e-007
-9.381171e-008
-6.893914e-008
-4.860466e-008
-3.261414e-008
-2.055685e-008
-1.186498e-008
-5.905272e-009
-2.066781e-009
1.892146e-010
1.321347e-009
1.717094e-009
1.691321e-009
1.471418e-009
1.189613e-009
9.018442e-010
6.283998e-010
3.897916e-010
2.144101e-010
1.199151e-010
9.346757e-011
9.486374e-011
8.319080e-011
4.454010e-011
-2.963313e-012
-2.996084e-011
-2.317549e-011
4.050442e-012
2.478512e-011
2.130629e-011
-2.457424e-012
-2.733593e-011
-3.575015e-011
-2.370428e-011
-2.901212e-014
2.268493e-011
3.573552e-011
-6.377819e-010
-5.349012e-010
-3.331007e-010
-5.905531e-011
2.246254e-010
4.364268e-010
5.220623e-010
4.982446e-010
4.562495e-010
5.143673e-010
7.486125e-010
1.150222e-009
1.637306e-009
2.101748e-009
2.440299e-009
2.530703e-009
2.161766e-009
9.693795e-010
-1.570585e-009
-6.087591e-009
-1.324509e-008
-2.370557e-008
-3.814227e-008
-5.725435e-008
-8.172869e-008
-1.121352e-007
-1.488040e-007
-1.917575e-007
-2.407314e-007
-2.952550e-007
-3.547226e-007
-4.184139e-007
-4.854787e-007
-5.549398e-007
-6.257455e-007
-6.968541e-007
-7.672963e-007
-8.361782e-007
-9.026396e-007
-9.658136e-007
-1.024826e-006
-1.078825e-006
-1.127013e-006
-1.168640e-006
-1.202979e-006
-1.229317e-006
-1.246970e-006
-1.255328e-006
-1.253893e-006
-1.242291e-006
-1.220280e-006
-1.187772e-006
-1.144885e-006
-1.091999e-006
-1.029794e-006
-9.592525e-007
-8.816491e-007
-7.985406e-007
-7.117592e-007
-6.233767e-007
-5.356113e-007
-4.506832e-007
-3.706536e-007
-2.972857e-007
-2.319442e-007
-1.755235e-007
-1.283968e-007
-9.040232e-008
-6.089294e-008
-3.886000e-008
-2.310093e-008
-1.237707e-008
-5.519882e-009
-1.483387e-009
6.287934e-010
1.536991e-009
1.763273e-009
1.637065e-009
1.341486e-009
9.818031e-010
6.377743e-010
3.748690e-010
2.245928e-010
1.685951e-010
1.529002e-010
1.265250e-010
7.397085e-011
1.609757e-011
-1.762401e-011
-1.830494e-011
-3.069141e-012
4.239873e-012
-4.366956e-012
-1.679415e-011
-1.669581e-011
-1.645441e-012
1.462213e-011
1.692496e-011
4.358461e-012
-9.062363e-012
-2.618312e-010
-2.467565e-010
-1.737578e-010
-4.619968e-012
2.431107e-010
4.915288e-010
6.565199e-010
7.210578e-010
7.660550e-010
9.258189e-010
1.293281e-009
1.839890e-009
2.401445e-009
2.723423e-009
2.505927e-009
1.386398e-009
-1.148278e-009
-5.864394e-009
-1.382351e-008
-2.633087e-008
-4.482263e-008
-7.075535e-008
-1.055320e-007
-1.504417e-007
-2.065641e-007
-2.746217e-007
-3.548271e-007
-4.468044e-007
-5.496278e-007
-6.619524e-007
-7.821575e-007
-9.084443e-007
-1.038885e-006
-1.171470e-006
-1.304193e-006
-1.435163e-006
-1.562675e-006
-1.685230e-006
-1.801472e-006
-1.910139e-006
-2.010028e-006
-2.100022e-006
-2.179107e-006
-2.246368e-006
-2.300958e-006
-2.342054e-006
-2.368860e-006
-2.380626e-006
-2.376680e-006
-2.356445e-006
-2.319459e-006
-2.265402e-006
-2.194153e-006
-2.105881e-006
-2.001119e-006
-1.880840e-006
-1.746525e-006
-1.600227e-006
-1.444616e-006
-1.282961e-006
-1.119034e-006
-9.569014e-007
-8.006730e-007
-6.542100e-007
-5.208412e-007
-4.030991e-007
-3.025107e-007
-2.194942e-007
-1.534072e-007
-1.027461e-007
-6.544154e-008
-3.916234e-008
-2.156251e-008
-1.045413e-008
-3.925211e-009
-4.211448e-010
1.216416e-009
1.771475e-009
1.735622e-009
1.415080e-009
1.013683e-009
6.654903e-010
4.322219e-010
3.041892e-010
2.294626e-010
1.605779e-010
8.600909e-011
2.514458e-011
-2.354032e-012
-9.167898e-013
5.058017e-012
-3.480350e-012
-2.128941e-011
-2.595077e-011
-3.740366e-012
3.218785e-011
5.051865e-011
3.030093e-011
-1.757574e-011
-5.708620e-011
4.224841e-010
2.896112e-010
1.271049e-010
6.667510e-011
1.764227e-010
4.221067e-010
7.105103e-010
9.781297e-010
1.250182e-009
1.614968e-009
2.122132e-009
2.669422e-009
2.944610e-009
2.434791e-009
4.506936e-010
-3.903907e-009
-1.183940e-008
-2.501030e-008
-4.557454e-008
-7.611878e-008
-1.194596e-007
-1.783865e-007
-2.554089e-007
-3.525264e-007
-4.710061e-007
-6.111687e-007
-7.722318e-007
-9.522852e-007
-1.148439e-006
-1.357108e-006
-1.574331e-006
-1.796053e-006
-2.018314e-006
-2.237395e-006
-2.449943e-006
-2.653084e-006
-2.844476e-006
-3.022299e-006
-3.185166e-006
-3.332033e-006
-3.462138e-006
-3.574978e-006
-3.670296e-006
-3.748031e-006
-3.808233e-006
-3.850962e-006
-3.876214e-006
-3.883863e-006
-3.873632e-006
-3.845050e-006
-3.797417e-006
-3.729803e-006
-3.641089e-006
-3.530087e-006
-3.395709e-006
-3.237186e-006
-3.054345e-006
-2.847905e-006
-2.619779e-006
-2.373284e-006
-2.113218e-006
-1.845739e-006
-1.578036e-006
-1.317817e-006
-1.072630e-006
-8.491211e-007
-6.523404e-007
-4.852588e-007
-3.486110e-007
-2.410925e-007
-1.598278e-007
-1.009593e-007
-6.021809e-008
-3.339549e-008
-1.669001e-008
-6.931091e-009
-1.676233e-009
8.167053e-010
1.714029e-009
1.768990e-009
1.460025e-009
1.074105e-009
7.497224e-010
5.153592e-010
3.430221e-010
2.034909e-010
9.468654e-011
3.156547e-011
1.711612e-011
2.773225e-011
2.881669e-011
4.907636e-012
-2.653698e-011
-3.299955e-011
-7.610893e-013
4.737006e-011
6.864725e-011
3.780316e-011
-2.820753e-011
-8.138535e-011
9.866879e-010
7.436408e-010
3.996776e-010
1.546665e-010
1.534489e-010
4.183804e-010
8.670847e-010
1.392386e-009
1.933515e-009
2.470267e-009
2.923796e-009
3.009424e-009
2.109247e-009
-8.019068e-010
-7.203319e-009
-1.910333e-008
-3.916403e-008
-7.082315e-008
-1.183057e-007
-1.864308e-007
-2.801932e-007
-4.041858e-007
-5.619716e-007
-7.555080e-007
-9.846999e-007
-1.247144e-006
-1.538128e-006
-1.850924e-006
-2.177362e-006
-2.508587e-006
-2.835821e-006
-3.151003e-006
-3.447226e-006
-3.718965e-006
-3.962173e-006
-4.174260e-006
-4.354002e-006
-4.501386e-006
-4.617418e-006
-4.703953e-006
-4.763564e-006
-4.799437e-006
-4.815261e-006
-4.815071e-006
-4.803019e-006
-4.783124e-006
-4.759000e-006
-4.733606e-006
-4.708995e-006
-4.686055e-006
-4.664273e-006
-4.641547e-006
-4.614110e-006
-4.576598e-006
-4.522314e-006
-4.443683e-006
-4.332932e-006
-4.182969e-006
-3.988405e-006
-3.746587e-006
-3.458490e-006
-3.129271e-006
-2.768312e-006
-2.388625e-006
-2.005594e-006
-1.635196e-006
-1.292010e-006
-9.874556e-007
-7.286360e-007
-5.180293e-007
-3.539728e-007
-2.316998e-007
-1.445969e-007
-8.539168e-008
-4.709574e-008
-2.362933e-008
-1.012602e-008
-2.964565e-009
3.874705e-010
1.613447e-009
1.779991e-009
1.516977e-009
1.149332e-009
8.058951e-010
5.170239e-010
2.882220e-010
1.314106e-010
5.587741e-011
4.661650e-011
6.180857e-011
5.789832e-011
2.109712e-011
-2.435158e-011
-4.051915e-011
-1.221695e-011
3.675718e-011
6.241850e-011
3.837855e-011
-2.037760e-011
-6.877585e-011
1.111008e-009
8.837695e-010
5.574110e-010
3.249342e-010
3.509193e-010
6.976915e-010
1.308423e-009
2.045918e-009
2.741149e-009
3.185727e-009
3.025369e-009
1.563718e-009
-2.471047e-009
-1.114267e-008
-2.748684e-008
-5.566490e-008
-1.010846e-007
-1.704171e-007
-2.713750e-007
-4.121150e-007
-6.002156e-007
-8.413290e-007
-1.137753e-006
-1.487240e-006
-1.882356e-006
-2.310557e-006
-2.755063e-006
-3.196362e-006
-3.614120e-006
-3.989123e-006
-4.304943e-006
-4.549078e-006
-4.713475e-006
-4.794517e-006
-4.792622e-006
-4.711642e-006
-4.558215e-006
-4.341181e-006
-4.071116e-006
-3.759993e-006
-3.420938e-006
-3.068021e-006
-2.716008e-006
-2.380016e-006
-2.075067e-006
-1.815549e-006
-1.614620e-006
-1.483563e-006
-1.431115e-006
-1.462734e-006
-1.579878e-006
-1.779311e-006
-2.052564e-006
-2.385633e-006
-2.759034e-006
-3.148329e-006
-3.525235e-006
-3.859403e-006
-4.120877e-006
-4.283091e-006
-4.326118e-006
-4.239670e-006
-4.025251e-006
-3.696829e-006
-3.279567e-006
-2.806573e-006
-2.314163e-006
-1.836639e-006
-1.401764e-006
-1.027945e-006
-7.235532e-007
-4.881545e-007
-3.149531e-007
-1.935911e-007
-1.126193e-007
-6.126926e-008
-3.045325e-008
-1.311310e-008
-4.128765e-009
-1.656301e-012
1.521572e-009
1.793885e-009
1.554687e-009
1.161857e-009
7.702041e-010
4.480861e-010
2.295953e-010
1.205368e-010
9.262095e-011
9.400841e-011
7.866937e-011
3.358000e-011
-1.871655e-011
-4.444406e-011
-2.943255e-011
8.764143e-012
3.615824e-011
3.073739e-011
-2.890691e-013
-2.822630e-011
7.803795e-010
7.192658e-010
6.495031e-010
6.667783e-010
8.804265e-010
1.360460e-009
2.079011e-009
2.870066e-009
3.404830e-009
3.136936e-009
1.151601e-009
-4.118949e-009
-1.529018e-008
-3.645476e-008
-7.355756e-008
-1.346343e-007
-2.298170e-007
-3.709493e-007
-5.705860e-007
-8.401713e-007
-1.187380e-006
-1.612963e-006
-2.107812e-006
-2.651173e-006
-3.210750e-006
-3.744990e-006
-4.207217e-006
-4.550768e-006
-4.734119e-006
-4.725052e-006
-4.503261e-006
-4.061232e-006
-3.403542e-006
-2.545048e-006
-1.508511e-006
-3.221871e-007
9.822290e-007
2.371124e-006
3.809924e-006
5.263621e-006
6.697029e-006
8.074966e-006
9.362492e-006
1.052528e-005
1.153015e-005
1.234571e-005
1.294315e-005
1.329715e-005
1.338686e-005
1.319715e-005
1.271994e-005
1.195576e-005
1.091545e-005
9.621709e-006
8.110496e-006
6.431825e-006
4.649576e-006
2.839798e-006
1.087049e-006
-5.214838e-007
-1.903892e-006
-2.992711e-006
-3.743932e-006
-4.143934e-006
-4.212360e-006
-3.999523e-006
-3.578261e-006
-3.031788e-006
-2.440385e-006
-1.870201e-006
-1.366639e-006
-9.531697e-007
-6.346285e-007
-4.029743e-007
-2.433467e-007
-1.389531e-007
-7.421217e-008
-3.629003e-008
-1.548725e-008
-4.973057e-009
-2.413568e-010
1.485462e-009
1.796121e-009
1.529977e-009
1.100192e-009
6.997341e-010
4.085979e-010
2.391090e-010
1.596592e-010
1.208435e-010
8.375431e-011
3.665172e-011
-8.713790e-012
-3.491301e-011
-3.534948e-011
-1.815973e-011
1.851049e-012
1.407450e-011
1.713926e-011
1.616295e-011
2.657157e-010
4.689391e-010
8.105429e-010
1.226178e-009
1.713747e-009
2.316612e-009
3.012052e-009
3.551634e-009
3.302640e-009
1.076384e-009
-5.139509e-009
-1.863128e-008
-4.459826e-008
-9.086978e-008
-1.684917e-007
-2.919110e-007
-4.784209e-007
-7.464354e-007
-1.112132e-006
-1.584231e-006
-2.157340e-006
-2.805259e-006
-3.476478e-006
-4.094080e-006
-4.561289e-006
-4.772108e-006
-4.624841e-006
-4.035432e-006
-2.947812e-006
-1.339492e-006
7.779796e-007
3.362912e-006
6.350284e-006
9.659799e-006
1.320365e-005
1.689293e-005
2.064212e-005
2.437171e-005
2.800939e-005
3.149017e-005
3.475603e-005
3.775534e-005
4.044220e-005
4.277583e-005
4.471984e-005
4.624152e-005
4.731108e-005
4.790094e-005
4.798521e-005
4.753956e-005
4.654187e-005
4.497392e-005
4.282444e-005
4.009378e-005
3.679994e-005
3.298577e-005
2.872598e-005
2.413245e-005
1.935572e-005
1.458042e-005
1.001338e-005
5.864099e-006
2.319613e-006
-4.819778e-007
-2.473359e-006
-3.668981e-006
-4.161050e-006
-4.100326e-006
-3.666290e-006
-3.034741e-006
-2.351387e-006
-1.717337e-006
-1.187684e-006
-7.799048e-007
-4.866627e-007
-2.881300e-007
-1.610755e-007
-8.416978e-008
-4.027183e-008
-1.682236e-008
-5.285551e-009
-2.456468e-010
1.510783e-009
1.769178e-009
1.459470e-009
1.029959e-009
6.660248e-010
4.129934e-010
2.515000e-010
1.473750e-010
7.777813e-011
3.365972e-011
9.301130e-012
-4.667626e-012
-1.703601e-011
-2.768182e-011
-2.754757e-011
-9.651668e-012
1.970324e-011
4.230773e-011
-5.394152e-011
4.162357e-010
1.171318e-009
1.978000e-009
2.702883e-009
3.321999e-009
3.735191e-009
3.445543e-009
1.197618e-009
-5.409040e-009
-2.042483e-008
-5.029467e-008
-1.048508e-007
-1.983438e-007
-3.500499e-007
-5.837415e-007
-9.250592e-007
-1.395675e-006
-2.003439e-006
-2.728907e-006
-3.510877e-006
-4.235865e-006
-4.737335e-006
-4.808568e-006
-4.228733e-006
-2.796846e-006
-3.653323e-007
3.134982e-006
7.683720e-006
1.317466e-005
1.943171e-005
2.623248e-005
3.333418e-005
4.049741e-005
4.750440e-005
5.417059e-005
6.034989e-005
6.593529e-005
7.085698e-005
7.507933e-005
7.859756e-005
8.143418e-005
8.363469e-005
8.526242e-005
8.639216e-005
8.710270e-005
8.746835e-005
8.754978e-005
8.738460e-005
8.697847e-005
8.629773e-005
8.526518e-005
8.376072e-005
8.162878e-005
7.869410e-005
7.478642e-005
6.977285e-005
6.359440e-005
5.630057e-005
4.807389e-005
3.923573e-005
3.022586e-005
2.155305e-005
1.372223e-005
7.152382e-006
2.106184e-006
-1.349064e-006
-3.338240e-006
-4.134146e-006
-4.086085e-006
-3.543592e-006
-2.796856e-006
-2.046591e-006
-1.403576e-006
-9.080419e-007
-5.559333e-007
-3.220717e-007
-1.758526e-007
-8.959075e-008
-4.167473e-008
-1.680959e-008
-4.973501e-009
-2.601812e-011
1.568521e-009
1.721510e-009
1.386734e-009
9.795663e-010
6.360025e-010
3.746440e-010
1.884937e-010
7.646846e-011
3.388625e-011
3.585591e-011
4.202935e-011
2.318656e-011
-1.621982e-011
-4.442686e-011
-3.457275e-011
7.063100e-012
4.446662e-011
1.118643e-010
7.652699e-010
1.800502e-009
2.854533e-009
3.664276e-009
4.062656e-009
3.684005e-009
1.435314e-009
-5.153774e-009
-2.067032e-008
-5.274087e-008
-1.132484e-007
-2.197560e-007
-3.966312e-007
-6.747673e-007
-1.088089e-006
-1.664406e-006
-2.408331e-006
-3.275947e-006
-4.145556e-006
-4.794733e-006
-4.897568e-006
-4.053233e-006
-1.847233e-006
2.066272e-006
7.881956e-006
1.558339e-005
2.492143e-005