# vtk DataFile Version 3.0
vtk output
ASCII
DATASET STRUCTURED_POINTS
DIMENSIONS 100 100 1
SPACING 1 1 1
ORIGIN 0 0 0
POINT_DATA 10000
SCALARS SFBox_profile double
LOOKUP_TABLE default 
0.000000e+000
0.000000e+000
0.000000e+000
0.000000e+000
0.000000e+000
0.000000e+000
0.000000e+000
0.000000e+000
0.000000e+000
0.000000e+000
0.000000e+000
0.000000e+000
0.000000e+000
0.000000e+000
0.000000e+000
0.000000e+000
0.000000e+000
0.000000e+000
0.000000e+000
0.000000e+000
0.000000e+000
0.000000e+000
0.000000e+000
0.000000e+000
0.000000e+000
0.000000e+000
0.000000e+000
0.000000e+000
0.000000e+000
0.000000e+000
0.000000e+000
0.000000e+000
0.000000e+000
0.000000e+000
0.000000e+000
0.000000e+000
0.000000e+000
0.000000e+000
0.000000e+000
0.000000e+000
0.000000e+000
0.000000e+000
0.000000e+000
0.000000e+000
0.000000e+000
0.000000e+000
0.000000e+000
0.000000e+000
0.000000e+000
0.000000e+000
0.000000e+000
0.000000e+000
0.000000e+000
0.000000e+000
0.000000e+000
0.000000e+000
0.000000e+000
0.000000e+000
0.000000e+000
0.000000e+000
0.000000e+000
0.000000e+000
0.000000e+000
0.000000e+000
0.000000e+000
0.000000e+000
0.000000e+000
0.000000e+000
0.000000e+000
0.000000e+000
0.000000e+000
0.000000e+000
0.000000e+000
0.000000e+000
0.000000e+000
0.000000e+000
0.000000e+000
0.000000e+000
0.000000e+000
0.000000e+000
0.000000e+000
0.000000e+000
0.000000e+000
0.000000e+000
0.000000e+000
0.000000e+000
0.000000e+000
0.000000e+000
0.000000e+000
0.000000e+000
0.000000e+000
0.000000e+000
0.000000e+000
0.000000e+000
0.000000e+000
0.000000e+000
0.000000e+000
0.000000e+000
0.000000e+000
0.000000e+000
-1.546415e-010
-2.754593e-010
-3.820433e-010
-2.944027e-010
8.546278e-011
6.589015e-010
1.118087e-009
1.093437e-009
4.080903e-010
-7.273559e-010
-1.751962e-009
-2.052441e-009
-1.350359e-009
8.872938e-011
1.586118e-009
2.442592e-009
2.325627e-009
1.397430e-009
1.328568e-010
-1.000246e-009
-1.758287e-009
-2.121489e-009
-2.151113e-009
-1.870688e-009
-1.270191e-009
-3.931207e-010
6.082431e-010
1.517394e-009
2.160562e-009
2.481892e-009
2.530471e-009
2.386444e-009
2.099041e-009
1.682043e-009
1.150515e-009
5.495561e-010
-5.427803e-011
-6.054222e-010
-1.081607e-009
-1.488205e-009
-1.836227e-009
-2.127329e-009
-2.356273e-009
-2.522146e-009
-2.634079e-009
-2.706955e-009
-2.753684e-009
-2.781768e-009
-2.794905e-009
-2.795363e-009
-2.784622e-009
-2.763720e-009
-2.734705e-009
-2.701017e-009
-2.663992e-009
-2.617608e-009
-2.548182e-009
-2.442313e-009
-2.296411e-009
-2.116247e-009
-1.903854e-009
-1.644795e-009
-1.313119e-009
-8.950376e-010
-4.097775e-010
9.663697e-011
5.830274e-010
1.038029e-009
1.466798e-009
1.846450e-009
2.097321e-009
2.112213e-009
1.831255e-009
1.297253e-009
6.347675e-010
-3.287093e-011
-6.483573e-010
-1.198842e-009
-1.628727e-009
-1.788219e-009
-1.502112e-009
-7.302083e-010
3.162202e-010
1.228519e-009
1.619427e-009
1.356431e-009
6.347794e-010
-1.623289e-010
-7.035438e-010
-8.699120e-010
-7.405681e-010
-4.591863e-010
-1.201407e-010
2.358719e-010
5.495214e-010
7.019475e-010
5.737197e-010
1.613408e-010
-3.632860e-010
-7.274124e-010
-3.091364e-010
-1.005471e-010
1.481117e-010
2.564186e-010
1.726863e-010
-2.812217e-012
-1.202356e-010
-1.095329e-010
-2.337836e-011
3.416965e-011
1.617308e-011
-2.740563e-011
-1.342061e-011
7.442715e-011
1.523035e-010
1.085529e-010
-8.273499e-011
-3.149460e-010
-4.188211e-010
-2.928891e-010
1.662865e-011
3.517670e-010
5.583041e-010
5.811900e-010
4.689145e-010
3.021041e-010
1.223808e-010
-7.815389e-011
-3.131599e-010
-5.593336e-010
-7.588247e-010
-8.598877e-010
-8.526950e-010
-7.678829e-010
-6.449768e-010
-5.039223e-010
-3.432617e-010
-1.589658e-010
3.963522e-011
2.318573e-010
3.998537e-010
5.388241e-010
6.546367e-010
7.541932e-010
8.390999e-010
9.069524e-010
9.561025e-010
9.881187e-010
1.006699e-009
1.015668e-009
1.017942e-009
1.014790e-009
1.004761e-009
9.838589e-010
9.485647e-010
8.996539e-010
8.419138e-010
7.780601e-010
7.024971e-010
6.032727e-010
4.731184e-010
3.191858e-010
1.594497e-010
6.745687e-012
-1.431014e-010
-3.032272e-010
-4.721074e-010
-6.188440e-010
-6.977382e-010
-6.835259e-010
-5.933548e-010
-4.700744e-010
-3.402876e-010
-1.910272e-010
5.154174e-012
2.370716e-010
4.303765e-010
4.881491e-010
3.700151e-010
1.382045e-010
-7.853792e-011
-1.782342e-010
-1.556612e-010
-8.774115e-011
-5.138553e-011
-5.363878e-011
-3.990600e-011
3.179520e-011
1.286642e-010
1.605852e-010
6.677446e-011
-1.099505e-010
-2.381604e-010
-2.002077e-010
1.881381e-012
2.313936e-010
3.142542e-010
1.752533e-010
-9.648773e-011
-3.086242e-010
-3.783919e-010
1.131980e-010
6.614898e-010
7.616331e-010
2.171611e-010
-6.945891e-010
-1.384255e-009
-1.334979e-009
-4.546763e-010
8.390539e-010
1.857397e-009
2.043273e-009
1.279166e-009
-8.003695e-011
-1.436015e-009
-2.263816e-009
-2.322267e-009
-1.675034e-009
-5.768245e-010
6.617252e-010
1.756921e-009
2.484778e-009
2.702304e-009
2.374712e-009
1.588551e-009
5.246820e-010
-6.047834e-010
-1.620645e-009
-2.408052e-009
-2.910989e-009
-3.112297e-009
-3.021989e-009
-2.676814e-009
-2.138472e-009
-1.481121e-009
-7.730623e-010
-6.492888e-011
6.097567e-010
1.227230e-009
1.768852e-009
2.222648e-009
2.586717e-009
2.868870e-009
3.081821e-009
3.237835e-009
3.346510e-009
3.415718e-009
3.453261e-009
3.467317e-009
3.465523e-009
3.453533e-009
3.433795e-009
3.405234e-009
3.364378e-009
3.307466e-009
3.231611e-009
3.133260e-009
3.004932e-009
2.833953e-009
2.605914e-009
2.310701e-009
1.945447e-009
1.511499e-009
1.009754e-009
4.421375e-010
-1.787914e-010
-8.201096e-010
-1.429275e-009
-1.946517e-009
-2.317982e-009
-2.498529e-009
-2.447011e-009
-2.129523e-009
-1.540765e-009
-7.324148e-010
1.773178e-010
1.028057e-009
1.662562e-009
1.963734e-009
1.868542e-009
1.373356e-009
5.531587e-010
-4.115091e-010
-1.242570e-009
-1.647121e-009
-1.457995e-009
-7.488810e-010
1.693122e-010
8.938474e-010
1.138048e-009
8.714387e-010
3.065643e-010
-2.471708e-010
-5.579187e-010
-5.666542e-010
-3.657711e-010
-1.039435e-010
1.064723e-010
2.273942e-010
2.752205e-010
-1.015620e-010
2.214734e-010
5.691140e-010
5.748861e-010
7.093480e-011
-7.468169e-010
-1.381998e-009
-1.331024e-009
-4.419071e-010
9.107250e-010
1.992969e-009
2.147254e-009
1.213716e-009
-3.563803e-010
-1.776590e-009
-2.394324e-009
-2.030974e-009
-9.904500e-010
2.108693e-010
1.158344e-009
1.685795e-009
1.818130e-009
1.633023e-009
1.184014e-009
5.235661e-010
-2.428897e-010
-9.552536e-010
-1.462172e-009
-1.691631e-009
-1.667721e-009
-1.467673e-009
-1.164307e-009
-7.998330e-010
-3.977867e-010
1.450865e-011
4.002931e-010
7.266711e-010
9.791702e-010
1.162628e-009
1.290045e-009
1.371740e-009
1.413328e-009
1.420332e-009
1.401774e-009
1.368685e-009
1.329985e-009
1.290436e-009
1.252243e-009
1.217804e-009
1.190445e-009
1.172773e-009
1.165092e-009
1.166028e-009
1.174744e-009
1.191849e-009
1.217353e-009
1.247577e-009
1.274901e-009
1.291531e-009
1.293328e-009
1.278307e-009
1.239892e-009
1.162462e-009
1.026908e-009
8.238591e-010
5.617081e-010
2.592103e-010
-7.082208e-011
-4.264630e-010
-7.981364e-010
-1.141420e-009
-1.373803e-009
-1.411646e-009
-1.222805e-009
-8.471154e-010
-3.628444e-010
1.668275e-010
7.062913e-010
1.198390e-009
1.509004e-009
1.451143e-009
9.117483e-010
-5.522902e-012
-9.578994e-010
-1.521906e-009
-1.443246e-009
-7.972924e-010
6.347695e-011
7.346384e-010
9.869952e-010
8.401839e-010
4.662362e-010
3.980749e-011
-3.355839e-010
-5.986714e-010
-6.791873e-010
-5.118260e-010
-1.135121e-010
3.646725e-010
6.905701e-010
5.224817e-010
1.932202e-010
-1.955883e-010
-3.703248e-010
-2.752649e-010
-7.498712e-011
3.951616e-011
3.448826e-011
2.756320e-011
1.156985e-010
2.320064e-010
1.958408e-010
-8.196117e-011
-4.478602e-010
-5.824990e-010
-2.653733e-010
4.020570e-010
1.023638e-009
1.179612e-009
7.233009e-010
-1.311754e-010
-9.797619e-010
-1.496980e-009
-1.589174e-009
-1.350643e-009
-9.149733e-010
-3.538237e-010
3.087732e-010
1.022370e-009
1.675154e-009
2.136648e-009
2.331183e-009
2.270920e-009
2.025174e-009
1.663594e-009
1.224790e-009
7.262741e-010
1.906365e-010
-3.442179e-010
-8.380691e-010
-1.266897e-009
-1.627830e-009
-1.928936e-009
-2.176824e-009
-2.373259e-009
-2.519977e-009
-2.623115e-009
-2.691899e-009
-2.734163e-009
-2.754308e-009
-2.755093e-009
-2.739491e-009
-2.709224e-009
-2.661736e-009
-2.590480e-009
-2.489698e-009
-2.358449e-009
-2.197769e-009
-2.002523e-009
-1.757897e-009
-1.448206e-009
-1.072347e-009
-6.496141e-010
-2.066537e-010
2.424974e-010
6.987921e-010
1.153443e-009
1.558665e-009
1.830711e-009
1.895410e-009
1.739871e-009
1.418184e-009
1.000252e-009
5.156981e-010
-4.023110e-011
-6.333686e-010
-1.127598e-009
-1.322348e-009
-1.092151e-009
-5.167111e-010
1.290638e-010
5.435982e-010
5.972303e-010
3.942696e-010
1.500532e-010
2.223805e-012
-6.930425e-011
-1.526759e-010
-2.553068e-010
-2.648594e-010
-7.267098e-011
2.645378e-010
5.069213e-010
4.117807e-010
-3.270107e-011
-5.414211e-010
-7.247776e-010
-4.007894e-010
2.338416e-010
7.315595e-010
1.120778e-009
1.046275e-010
-1.056253e-009
-1.399018e-009
-6.138479e-010
7.461361e-010
1.709768e-009
1.605030e-009
4.986867e-010
-9.238509e-010
-1.871455e-009
-1.927978e-009
-1.184291e-009
-3.435403e-011
1.109300e-009
1.952840e-009
2.296953e-009
1.999526e-009
1.036871e-009
-3.887124e-010
-1.844122e-009
-2.834741e-009
-3.049768e-009
-2.501120e-009
-1.459096e-009
-2.568946e-010
8.729035e-010
1.826909e-009
2.557077e-009
3.003383e-009
3.101903e-009
2.842025e-009
2.298371e-009
1.598904e-009
8.594039e-010
1.425408e-010
-5.326895e-010
-1.155458e-009
-1.702141e-009
-2.145161e-009
-2.473710e-009
-2.701168e-009
-2.853279e-009
-2.951491e-009
-3.006937e-009
-3.026148e-009
-3.018084e-009
-2.994436e-009
-2.965190e-009
-2.936254e-009
-2.911360e-009
-2.893954e-009
-2.885283e-009
-2.881202e-009
-2.873507e-009
-2.856198e-009
-2.829145e-009
-2.792213e-009
-2.733943e-009
-2.628364e-009
-2.447859e-009
-2.181832e-009
-1.840386e-009
-1.435424e-009
-9.586580e-010
-3.864021e-010
2.834287e-010
9.952911e-010
1.643101e-009
2.123558e-009
2.387393e-009
2.435231e-009
2.262015e-009
1.818155e-009
1.051454e-009
1.115275e-011
-1.086457e-009
-1.919169e-009
-2.224953e-009
-1.946506e-009
-1.238648e-009
-3.468609e-010
5.202194e-010
1.215397e-009
1.594414e-009
1.498137e-009
8.572186e-010
-1.546080e-010
-1.097401e-009
-1.474368e-009
-1.064911e-009
-1.212983e-010
7.626442e-010
1.049002e-009
6.298578e-010
-1.120297e-010
-6.070730e-010
-5.318844e-010
-3.552635e-011
4.106138e-010
1.145165e-009
2.894169e-011
-1.241065e-009
-1.583065e-009
-6.275138e-010
1.001717e-009
2.145714e-009
1.952544e-009
4.799039e-010
-1.364411e-009
-2.464421e-009
-2.226559e-009
-8.876192e-010
7.502424e-010
1.882025e-009
2.128687e-009
1.593688e-009
6.349409e-010
-3.883248e-010
-1.218973e-009
-1.680790e-009
-1.660698e-009
-1.156410e-009
-3.278888e-010
5.406582e-010
1.173215e-009
1.432232e-009
1.347255e-009
1.036750e-009
6.078175e-010
1.176347e-010
-3.963595e-010
-8.763830e-010
-1.246707e-009
-1.453306e-009
-1.494796e-009
-1.412970e-009
-1.255807e-009
-1.049960e-009
-8.031112e-010
-5.237453e-010
-2.328404e-010
4.299311e-011
2.857697e-010
4.917779e-010
6.652566e-010
8.094646e-010
9.240531e-010
1.008015e-009
1.061803e-009
1.085957e-009
1.079807e-009
1.043432e-009
9.800974e-010
8.939211e-010
7.835395e-010
6.399419e-010
4.543987e-010
2.304247e-010
-1.417307e-011
-2.605490e-010
-5.041424e-010
-7.519865e-010
-9.994065e-010
-1.209623e-009
-1.323506e-009
-1.297490e-009
-1.133859e-009
-8.699463e-010
-5.361617e-010
-1.323988e-010
3.412143e-010
8.246257e-010
1.179152e-009
1.250702e-009
9.737423e-010
4.249432e-010
-2.221988e-010
-7.944956e-010
-1.174559e-009
-1.279823e-009
-1.030427e-009
-3.935539e-010
5.044106e-010
1.323531e-009
1.635520e-009
1.196822e-009
1.701020e-010
-9.126903e-010
-1.463918e-009
-1.218036e-009
-3.940341e-010
4.752433e-010
9.101687e-010
7.747725e-010
2.990883e-010
-1.436542e-010
-3.129098e-010
-2.306924e-010
-9.947682e-011
3.037066e-010
-4.145787e-011
-4.339407e-010
-5.189335e-010
-1.539656e-010
4.498058e-010
8.416163e-010
6.601444e-010
-5.155027e-011
-8.140896e-010
-1.038490e-009
-4.872056e-010
5.008174e-010
1.226696e-009
1.138176e-009
2.320367e-010
-9.538797e-010
-1.726797e-009
-1.682883e-009
-8.889683e-010
2.641685e-010
1.347076e-009
2.080576e-009
2.348911e-009
2.127904e-009
1.448507e-009
4.191169e-010
-7.602377e-010
-1.848086e-009
-2.652627e-009
-3.091351e-009
-3.178593e-009
-2.969136e-009
-2.516008e-009
-1.869265e-009
-1.093821e-009
-2.711847e-010
5.226272e-010
1.240722e-009
1.868117e-009
2.405271e-009
2.851864e-009
3.204793e-009
3.466243e-009
3.648730e-009
3.771020e-009
3.850270e-009
3.898120e-009
3.921927e-009
3.926847e-009
3.916144e-009
3.891401e-009
3.854179e-009
3.806730e-009
3.748623e-009
3.671530e-009
3.559171e-009
3.395363e-009
3.172792e-009
2.891524e-009
2.546861e-009
2.120968e-009
1.592661e-009
9.606968e-010
2.575362e-010
-4.629033e-010
-1.151334e-009
-1.772044e-009
-2.281462e-009
-2.602617e-009
-2.636855e-009
-2.319730e-009
-1.676276e-009
-8.223677e-010
8.901059e-011
9.197387e-010
1.547120e-009
1.835784e-009
1.657387e-009
9.918594e-010
3.360627e-011
-8.294833e-010
-1.210644e-009
-9.725061e-010
-3.270889e-010
3.107130e-010
6.064513e-010
5.000893e-010
1.731950e-010
-1.420617e-010
-3.219348e-010
-3.593230e-010
-2.746968e-010
-6.895888e-011
2.247779e-010
4.769691e-010
5.050814e-010
2.245814e-010
-2.340285e-010
-5.817349e-010
-1.086901e-009
-1.497715e-010
9.133685e-010
1.239578e-009
5.949334e-010
-5.105795e-010
-1.292420e-009
-1.283695e-009
-5.721782e-010
4.046059e-010
1.212044e-009
1.597006e-009
1.446641e-009
7.232366e-010
-4.699829e-010
-1.772248e-009
-2.610926e-009
-2.487495e-009
-1.319301e-009
4.517240e-010
2.096947e-009
3.010724e-009
2.990123e-009
2.221117e-009
1.058330e-009
-1.865697e-010
-1.312309e-009
-2.183218e-009
-2.686785e-009
-2.754438e-009
-2.407999e-009
-1.763301e-009
-9.751052e-010
-1.702017e-010
5.796818e-010
1.240064e-009
1.786011e-009
2.195284e-009
2.460338e-009
2.596912e-009
2.636225e-009
2.608817e-009
2.535399e-009
2.429555e-009
2.304572e-009
2.175639e-009
2.056586e-009
1.956184e-009
1.877635e-009
1.820684e-009
1.784295e-009
1.768884e-009
1.777274e-009
1.812954e-009
1.875823e-009
1.959264e-009
2.052760e-009
2.148453e-009
2.243595e-009
2.333331e-009
2.399787e-009
2.410912e-009
2.334101e-009
2.151853e-009
1.861426e-009
1.458552e-009
9.286747e-010
2.668394e-010
-4.854010e-010
-1.225920e-009
-1.825407e-009
-2.182646e-009
-2.247786e-009
-1.995178e-009
-1.395013e-009
-4.497130e-010
7.115321e-010
1.781168e-009
2.366798e-009
2.208629e-009
1.362073e-009
1.853276e-010
-8.693849e-010
-1.491233e-009
-1.594904e-009
-1.240282e-009
-5.351418e-010
3.526365e-010
1.124929e-009
1.399955e-009
9.499553e-010
-3.907938e-011
-9.721926e-010
-1.218247e-009
-6.029106e-010
4.038706e-010
1.021178e-009
7.779214e-010
-9.472593e-011
-8.499573e-010
-2.163106e-009
-2.681140e-010
1.872744e-009
2.488531e-009
1.096707e-009
-1.201092e-009
-2.676945e-009
-2.319780e-009
-4.884398e-010
1.523429e-009
2.509467e-009
2.101422e-009
7.776158e-010
-6.673514e-010
-1.644285e-009
-1.931583e-009
-1.552023e-009
-6.456134e-010
5.243396e-010
1.545175e-009
1.973839e-009
1.582987e-009
5.317451e-010
-7.099034e-010
-1.638605e-009
-1.979242e-009
-1.749039e-009
-1.131700e-009
-3.150033e-010
5.751993e-010
1.441789e-009
2.173206e-009
2.656871e-009
2.831827e-009
2.718532e-009
2.394727e-009
1.944034e-009
1.423582e-009
8.677288e-010
3.075975e-010
-2.208827e-010
-6.862613e-010
-1.073656e-009
-1.385686e-009
-1.632885e-009
-1.824121e-009
-1.964468e-009
-2.058970e-009
-2.115976e-009
-2.146053e-009
-2.157431e-009
-2.152050e-009
-2.125770e-009
-2.072845e-009
-1.990499e-009
-1.878397e-009
-1.732540e-009
-1.540350e-009
-1.284883e-009
-9.570348e-010
-5.636580e-010
-1.213351e-010
3.578554e-010
8.686428e-010
1.392810e-009
1.875316e-009
2.228377e-009
2.371741e-009
2.275230e-009
1.959366e-009
1.454160e-009
7.715489e-010
-5.731437e-011
-9.052497e-010
-1.528838e-009
-1.672628e-009
-1.243864e-009
-4.095832e-010
4.843518e-010
1.112640e-009
1.318623e-009
1.105403e-009
5.388667e-010
-2.812293e-010
-1.137523e-009
-1.644616e-009
-1.409336e-009
-3.662078e-010
1.004916e-009
1.872465e-009
1.620026e-009
3.639868e-010
-1.049069e-009
-1.640880e-009
-1.050557e-009
1.837138e-010
1.064927e-009
9.483699e-010
4.977183e-011
-7.730173e-010
-2.051837e-009
-2.751862e-010
1.708835e-009
2.232988e-009
8.947437e-010
-1.176089e-009
-2.301617e-009
-1.626920e-009
2.485724e-010
1.834193e-009
1.964614e-009
6.524365e-010
-1.046967e-009
-1.927011e-009
-1.488969e-009
-1.401188e-010
1.264316e-009
2.035428e-009
1.947287e-009
1.143439e-009
-8.856848e-011
-1.430250e-009
-2.528210e-009
-3.024280e-009
-2.694050e-009
-1.592385e-009
-5.273198e-011
1.485385e-009
2.687842e-009
3.421907e-009
3.704154e-009
3.594928e-009
3.146043e-009
2.420464e-009
1.523727e-009
5.916760e-010
-2.588688e-010
-9.681612e-010
-1.529130e-009
-1.954743e-009
-2.252929e-009
-2.426957e-009
-2.489345e-009
-2.467863e-009
-2.396601e-009
-2.302561e-009
-2.200737e-009
-2.099668e-009
-2.009026e-009
-1.940808e-009
-1.903960e-009
-1.899384e-009
-1.921511e-009
-1.965175e-009
-2.029869e-009
-2.115225e-009
-2.211233e-009
-2.294421e-009
-2.336726e-009
-2.319080e-009
-2.233183e-009
-2.066189e-009
-1.785642e-009
-1.349135e-009
-7.396316e-010
5.491083e-012
8.053720e-010
1.579197e-009
2.272930e-009
2.832136e-009
3.149885e-009
3.067186e-009
2.465636e-009
1.390806e-009
8.835929e-011
-1.099659e-009
-1.897966e-009
-2.183435e-009
-1.947374e-009
-1.232166e-009
-1.610166e-010
9.644655e-010
1.671921e-009
1.554054e-009
6.102040e-010
-6.220352e-010
-1.355758e-009
-1.111862e-009
-1.028685e-010
9.066036e-010
1.183254e-009
5.837649e-010
-3.681609e-010
-9.345333e-010
-7.525733e-010
-7.704851e-011
4.913062e-010
5.271019e-010
1.068289e-010
-3.092384e-010
-5.442977e-010
-7.482803e-011
4.100710e-010
4.518369e-010
1.286295e-011
-4.608937e-010
-4.252253e-010
2.320483e-010
9.921939e-010
1.077799e-009
1.384550e-010
-1.336567e-009
-2.288626e-009
-1.879269e-009
-1.663687e-010
1.891900e-009
3.102465e-009
2.827472e-009
1.305910e-009
-6.435758e-010
-2.195684e-009
-2.906786e-009
-2.737770e-009
-1.870425e-009
-5.626820e-010
8.786658e-010
2.105806e-009
2.815103e-009
2.874409e-009
2.375370e-009
1.554932e-009
6.535372e-010
-1.758551e-010
-8.616277e-010
-1.359709e-009
-1.626241e-009
-1.637228e-009
-1.416859e-009
-1.033316e-009
-5.634550e-010
-6.070148e-011
4.484334e-010
9.464542e-010
1.410702e-009
1.816637e-009
2.150189e-009
2.412819e-009
2.613900e-009
2.759568e-009
2.849490e-009
2.882656e-009
2.863071e-009
2.797136e-009
2.685245e-009
2.518232e-009
2.285008e-009
1.984445e-009
1.627554e-009
1.225772e-009
7.792740e-010
2.837512e-010
-2.450321e-010
-7.542668e-010
-1.168966e-009
-1.429943e-009
-1.515747e-009
-1.422381e-009
-1.125771e-009
-5.838011e-010
2.005013e-010
1.108244e-009
1.909726e-009
2.364719e-009
2.339153e-009
1.839410e-009
9.576280e-010
-1.762806e-010
-1.358812e-009
-2.252050e-009
-2.448284e-009
-1.715157e-009
-2.574936e-010
1.272872e-009
2.120224e-009
1.904257e-009
8.609813e-010
-3.492871e-010
-1.100028e-009
-1.154857e-009
-6.903134e-010
-6.366242e-011
4.240432e-010
6.154342e-010
4.801820e-010
1.049243e-010
-3.038344e-010
-4.913096e-010
-3.218388e-010
8.736247e-011
4.244262e-010
1.620186e-009
2.592052e-010
-1.301111e-009
-1.826818e-009
-9.721663e-010
5.721434e-010
1.729859e-009
1.830125e-009
9.246617e-010
-4.344747e-010
-1.592967e-009
-2.051608e-009
-1.575865e-009
-2.893612e-010
1.268612e-009
2.299428e-009
2.172595e-009
8.728664e-010
-9.144856e-010
-2.210386e-009
-2.353763e-009
-1.358484e-009
2.090795e-010
1.655420e-009
2.523228e-009
2.679527e-009
2.198230e-009
1.235124e-009
-3.084933e-012
-1.250252e-009
-2.224230e-009
-2.724350e-009
-2.701465e-009
-2.238910e-009
-1.470347e-009
-5.111955e-010
5.523002e-010
1.638851e-009
2.660840e-009
3.543159e-009
4.248389e-009
4.779390e-009
5.158518e-009
5.406469e-009
5.538779e-009
5.575413e-009
5.546322e-009
5.484587e-009
5.415036e-009
5.350784e-009
5.299519e-009
5.269566e-009
5.266835e-009
5.286034e-009
5.308042e-009
5.308871e-009
5.270755e-009
5.180993e-009
5.017980e-009
4.742292e-009
4.309988e-009
3.701182e-009
2.935273e-009
2.054767e-009
1.096637e-009
9.087228e-011
-9.022300e-010
-1.756948e-009
-2.303871e-009
-2.409995e-009
-2.051307e-009
-1.312893e-009
-3.308366e-010
7.424722e-010
1.705169e-009
2.272626e-009
2.159435e-009
1.284869e-009
-6.058503e-011
-1.284845e-009
-1.814936e-009
-1.444151e-009
-4.349636e-010
6.823652e-010
1.420292e-009
1.518943e-009
9.606928e-010
-5.826126e-011
-1.124874e-009
-1.683060e-009
-1.315684e-009
-1.206861e-010
1.183454e-009
1.678097e-009
9.670029e-010
-4.166374e-010
-1.370511e-009
-1.130697e-009
5.402010e-011
1.119689e-009
3.147787e-009
4.864552e-010
-2.446854e-009
-3.205736e-009
-1.329600e-009
1.461632e-009
2.898942e-009
2.043415e-009
-1.695458e-010
-1.949790e-009
-2.135417e-009
-8.845511e-010
7.533827e-010
1.747195e-009
1.667326e-009
6.865933e-010
-7.056649e-010
-1.929676e-009
-2.439224e-009
-1.887680e-009
-3.476462e-010
1.614438e-009
3.174702e-009
3.692206e-009
3.036679e-009
1.575542e-009
-1.160118e-010
-1.559739e-009
-2.494661e-009
-2.825775e-009
-2.543800e-009
-1.710194e-009
-4.788321e-010
9.213153e-010
2.259407e-009
3.376112e-009
4.200927e-009
4.717189e-009
4.923508e-009
4.826550e-009
4.455774e-009
3.869491e-009
3.139821e-009
2.331833e-009
1.496476e-009
6.782668e-010
-7.706842e-011
-7.255581e-010
-1.233614e-009
-1.580846e-009
-1.754487e-009
-1.744322e-009
-1.546105e-009
-1.169463e-009
-6.390473e-010
1.447629e-011
7.627797e-010
1.575057e-009
2.403507e-009
3.178093e-009
3.822729e-009
4.279569e-009
4.514228e-009
4.495103e-009
4.175518e-009
3.513307e-009
2.522213e-009
1.305259e-009
3.009833e-011
-1.130842e-009
-2.030195e-009
-2.520952e-009
-2.439318e-009
-1.677776e-009
-3.324918e-010
1.214292e-009
2.409107e-009
2.804339e-009
2.296106e-009
1.143945e-009
-2.061916e-010
-1.314202e-009
-1.830949e-009
-1.543274e-009
-5.015742e-010
8.320787e-010
1.672935e-009
1.382266e-009
4.279728e-011
-1.416305e-009
-1.837605e-009
-8.008026e-010
9.162907e-010
1.904627e-009
1.322524e-009
-3.291186e-010
-1.609388e-009
-1.411660e-009
3.617597e-011
1.379502e-009
3.030876e-009
3.897637e-010
-2.388015e-009
-2.844212e-009
-7.552399e-010
1.821740e-009
2.539233e-009
8.622545e-010
-1.589018e-009
-2.606271e-009
-1.326606e-009
1.161078e-009
2.883188e-009
2.608246e-009
6.413339e-010
-1.661822e-009
-2.993380e-009
-2.842505e-009
-1.503576e-009
3.497757e-010
2.039368e-009
3.032940e-009
3.011134e-009
1.977430e-009
3.283012e-010
-1.272482e-009
-2.204637e-009
-2.178683e-009
-1.298626e-009
1.006431e-010
1.667059e-009
3.136043e-009
4.314519e-009
5.041081e-009
5.195138e-009
4.736778e-009
3.717012e-009
2.237954e-009
4.001349e-010
-1.718584e-009
-4.048521e-009
-6.508710e-009
-9.006954e-009
-1.145457e-008
-1.377603e-008
-1.590534e-008
-1.777857e-008
-1.933396e-008
-2.051864e-008
-2.129303e-008
-2.162938e-008
-2.151056e-008
-2.093447e-008
-1.992004e-008
-1.850597e-008
-1.674164e-008
-1.468100e-008
-1.238797e-008
-9.945839e-009
-7.453737e-009
-5.006481e-009
-2.677548e-009
-5.276665e-010
1.367135e-009
2.903187e-009
3.976557e-009
4.527597e-009
4.553714e-009
4.077937e-009
3.125439e-009
1.767462e-009
2.110094e-010
-1.173907e-009
-1.973398e-009
-1.940938e-009
-1.136586e-009
1.160587e-010
1.393206e-009
2.298887e-009
2.502917e-009
1.799530e-009
2.860169e-010
-1.465634e-009
-2.539374e-009
-2.219956e-009
-6.122377e-010
1.254483e-009
2.097437e-009
1.378682e-009
-2.268414e-010
-1.374110e-009
-1.184614e-009
2.152319e-011
1.063827e-009
9.998983e-010
-3.133045e-011
-9.923700e-010
-9.589034e-010
8.711000e-012
9.513270e-010
1.231084e-009
-1.022233e-011
-1.142109e-009
-9.612678e-010
3.550134e-010
1.408849e-009
9.726140e-010
-7.443223e-010
-2.193682e-009
-1.891867e-009
1.724143e-010
2.437493e-009
3.072966e-009
1.513320e-009
-1.110578e-009
-2.933580e-009
-2.797309e-009
-9.726077e-010
1.265175e-009
2.649872e-009
2.653095e-009
1.525643e-009
-1.008286e-010
-1.589094e-009
-2.444658e-009
-2.349166e-009
-1.228258e-009
6.732543e-010
2.840518e-009
4.693370e-009
5.813529e-009
6.034568e-009
5.368270e-009
3.877944e-009
1.614710e-009
-1.367767e-009
-4.984883e-009
-9.130340e-009
-1.370996e-008
-1.865587e-008
-2.390476e-008
-2.936537e-008
-3.490705e-008
-4.037340e-008
-4.560161e-008
-5.043126e-008
-5.470486e-008
-5.827078e-008
-6.099233e-008
-6.275772e-008
-6.348680e-008
-6.313648e-008
-6.170714e-008
-5.924631e-008
-5.584458e-008
-5.162632e-008
-4.674428e-008
-4.138040e-008
-3.574166e-008
-3.003843e-008
-2.445198e-008
-1.911658e-008
-1.413210e-008
-9.589780e-009
-5.575897e-009
-2.146581e-009
6.871685e-010
2.923162e-009
4.501417e-009
5.288301e-009
5.165351e-009
4.169530e-009
2.559525e-009
7.422535e-010
-8.682655e-010
-1.934028e-009
-2.199045e-009
-1.533946e-009
-9.696644e-011
1.524512e-009
2.459312e-009
2.061400e-009
4.564362e-010
-1.390135e-009
-2.281361e-009
-1.664250e-009
-5.169312e-011
1.387847e-009
1.734768e-009
9.583326e-010
-1.984300e-010
-9.003857e-010
-8.374796e-010
-3.069435e-010
1.792857e-010
3.313831e-010
2.084267e-010
3.292455e-011
-5.232461e-011
-6.077687e-011
-1.297820e-009
-4.311834e-010
7.079331e-010
1.389875e-009
1.190883e-009
2.130047e-010
-9.823965e-010
-1.658497e-009
-1.307139e-009
-2.084365e-011
1.424539e-009
1.982140e-009
1.094642e-009
-7.544528e-010
-2.249420e-009
-2.182842e-009
-4.175666e-010
1.943865e-009
3.351271e-009
2.913179e-009
9.431335e-010
-1.390369e-009
-2.897464e-009
-2.995543e-009
-1.787786e-009
2.344854e-010
2.493788e-009
4.451348e-009
5.634641e-009
5.695923e-009
4.494916e-009
2.102229e-009
-1.317732e-009
-5.659447e-009
-1.094617e-008
-1.728606e-008
-2.478334e-008
-3.348412e-008
-4.337185e-008
-5.437283e-008
-6.634137e-008
-7.903577e-008
-9.211535e-008
-1.051686e-007
-1.177546e-007
-1.294346e-007
-1.397897e-007
-1.484328e-007
-1.550232e-007
-1.592849e-007
-1.610228e-007
-1.601362e-007
-1.566281e-007
-1.506075e-007
-1.422837e-007
-1.319589e-007
-1.200237e-007
-1.069493e-007
-9.326346e-008
-7.950141e-008
-6.614963e-008
-5.361098e-008
-4.219925e-008
-3.213794e-008
-2.353571e-008
-1.635374e-008
-1.041995e-008
-5.520816e-009
-1.522031e-009
1.578166e-009
3.704927e-009
4.806460e-009
4.898576e-009
4.047996e-009
2.393786e-009
2.659169e-010
-1.716357e-009
-2.780400e-009
-2.417683e-009
-8.084959e-010
1.151277e-009
2.355455e-009
2.192843e-009
9.132117e-010
-6.102694e-010
-1.491839e-009
-1.343126e-009
-3.918065e-010
7.366920e-010
1.365314e-009
1.100054e-009
7.245222e-011
-1.055327e-009
-1.461778e-009
-7.819844e-010
5.080342e-010
1.379526e-009
1.094098e-009
-1.134937e-010
-1.191349e-009
-3.242350e-009
-5.446571e-010
2.363643e-009
3.029461e-009
1.148242e-009
-1.417829e-009
-2.484116e-009
-1.391082e-009
7.094714e-010
2.065793e-009
1.741333e-009
1.086903e-010
-1.660076e-009
-2.442772e-009
-1.753540e-009
9.083046e-011
2.141543e-009
3.262778e-009
2.748024e-009
8.011699e-010
-1.498177e-009
-2.819766e-009
-2.391810e-009
-4.119175e-010
2.189650e-009
4.360225e-009
5.410557e-009
5.104387e-009
3.460386e-009
5.367701e-010
-3.659546e-009
-9.190507e-009
-1.622403e-008
-2.508591e-008
-3.624738e-008
-5.021188e-008
-6.735878e-008
-8.783476e-008
-1.115281e-007
-1.380923e-007
-1.669718e-007
-1.974209e-007
-2.285356e-007
-2.593134e-007
-2.887262e-007
-3.157824e-007
-3.395661e-007
-3.592601e-007
-3.741667e-007
-3.837315e-007
-3.875674e-007
-3.854761e-007
-3.774605e-007
-3.637284e-007
-3.446910e-007
-3.209615e-007
-2.933551e-007
-2.628735e-007
-2.306584e-007
-1.979104e-007
-1.657993e-007
-1.353935e-007
-1.076098e-007
-8.315429e-008
-6.244101e-008
-4.552741e-008
-3.213221e-008
-2.175350e-008
-1.382143e-008
-7.797514e-009
-3.208705e-009
3.096290e-010
2.915921e-009
4.495511e-009
4.778688e-009
3.665565e-009
1.539948e-009
-7.270290e-010
-2.163613e-009
-2.216723e-009
-1.026915e-009
7.010824e-010
2.080613e-009
2.430524e-009
1.551176e-009
-1.332355e-010
-1.670171e-009
-2.055506e-009
-9.610336e-010
8.396379e-010
1.905280e-009
1.292015e-009
-5.153581e-010
-1.893977e-009
-1.521116e-009
3.250263e-010
1.930038e-009
1.742195e-009
-1.019174e-010
-1.861658e-009
-3.725339e-009
-2.501793e-010
3.170610e-009
3.301868e-009
2.751733e-010
-2.789278e-009
-2.970048e-009
-2.619148e-010
2.679609e-009
3.195808e-009
9.659151e-010
-2.003289e-009
-3.344980e-009
-2.238129e-009
2.754497e-010
2.410114e-009
2.957205e-009
1.842129e-009
-1.262096e-010
-1.820747e-009
-2.300099e-009
-1.169644e-009
1.229061e-009
3.921131e-009