# vtk DataFile Version 3.0
vtk output
ASCII
DATASET STRUCTURED_POINTS
DIMENSIONS 100 100 1
SPACING 1 1 1
ORIGIN 0 0 0
POINT_DATA 10000
SCALARS SFBox_profile double
LOOKUP_TABLE default 
9.439919e-003
9.439919e-003
9.439920e-003
9.439921e-003
9.439921e-003
9.439920e-003
9.439920e-003
9.439920e-003
9.439920e-003
9.439920e-003
9.439920e-003
9.439920e-003
9.439920e-003
9.439920e-003
9.439920e-003
9.439921e-003
9.439921e-003
9.439920e-003
9.439920e-003
9.439919e-003
9.439920e-003
9.439920e-003
9.439920e-003
9.439920e-003
9.439920e-003
9.439920e-003
9.439920e-003
9.439920e-003
9.439921e-003
9.439921e-003
9.439921e-003
9.439921e-003
9.439921e-003
9.439921e-003
9.439921e-003
9.439921e-003
9.439921e-003
9.439921e-003
9.439921e-003
9.439921e-003
9.439921e-003
9.439921e-003
9.439921e-003
9.439921e-003
9.439921e-003
9.439921e-003
9.439921e-003
9.439921e-003
9.439921e-003
9.439921e-003
9.439921e-003
9.439921e-003
9.439921e-003
9.439921e-003
9.439921e-003
9.439921e-003
9.439921e-003
9.439921e-003
9.439921e-003
9.439921e-003
9.439921e-003
9.439921e-003
9.439921e-003
9.439921e-003
9.439921e-003
9.439921e-003
9.439921e-003
9.439921e-003
9.439921e-003
9.439920e-003
9.439921e-003
9.439921e-003
9.439921e-003
9.439920e-003
9.439920e-003
9.439920e-003
9.439920e-003
9.439920e-003
9.439920e-003
9.439920e-003
9.439920e-003
9.439920e-003
9.439920e-003
9.439920e-003
9.439921e-003
9.439920e-003
9.439920e-003
9.439920e-003
9.439920e-003
9.439920e-003
9.439920e-003
9.439920e-003
9.439920e-003
9.439920e-003
9.439920e-003
9.439920e-003
9.439920e-003
9.439920e-003
9.439920e-003
9.439920e-003
9.439919e-003
9.439919e-003
9.439920e-003
9.439921e-003
9.439921e-003
9.439920e-003
9.439920e-003
9.439920e-003
9.439920e-003
9.439920e-003
9.439920e-003
9.439920e-003
9.439920e-003
9.439920e-003
9.439920e-003
9.439921e-003
9.439921e-003
9.439920e-003
9.439920e-003
9.439919e-003
9.439920e-003
9.439920e-003
9.439920e-003
9.439920e-003
9.439920e-003
9.439920e-003
9.439920e-003
9.439920e-003
9.439921e-003
9.439921e-003
9.439921e-003
9.439921e-003
9.439921e-003
9.439921e-003
9.439921e-003
9.439921e-003
9.439921e-003
9.439921e-003
9.439921e-003
9.439921e-003
9.439921e-003
9.439921e-003
9.439921e-003
9.439921e-003
9.439921e-003
9.439921e-003
9.439921e-003
9.439921e-003
9.439921e-003
9.439921e-003
9.439921e-003
9.439921e-003
9.439921e-003
9.439921e-003
9.439921e-003
9.439921e-003
9.439921e-003
9.439921e-003
9.439921e-003
9.439921e-003
9.439921e-003
9.439921e-003
9.439921e-003
9.439921e-003
9.439921e-003
9.439921e-003
9.439921e-003
9.439921e-003
9.439921e-003
9.439920e-003
9.439921e-003
9.439921e-003
9.439921e-003
9.439920e-003
9.439920e-003
9.439920e-003
9.439920e-003
9.439920e-003
9.439920e-003
9.439920e-003
9.439920e-003
9.439920e-003
9.439920e-003
9.439920e-003
9.439921e-003
9.439920e-003
9.439920e-003
9.439920e-003
9.439920e-003
9.439920e-003
9.439920e-003
9.439920e-003
9.439920e-003
9.439920e-003
9.439920e-003
9.439920e-003
9.439920e-003
9.439920e-003
9.439920e-003
9.439920e-003
9.439920e-003
9.439920e-003
9.439920e-003
9.439920e-003
9.439920e-003
9.439920e-003
9.439920e-003
9.439920e-003
9.439920e-003
9.439920e-003
9.439920e-003
9.439920e-003
9.439920e-003
9.439920e-003
9.439920e-003
9.439920e-003
9.439920e-003
9.439920e-003
9.439920e-003
9.439920e-003
9.439920e-003
9.439920e-003
9.439920e-003
9.439920e-003
9.439920e-003
9.439920e-003
9.439920e-003
9.439920e-003
9.439920e-003
9.439920e-003
9.439920e-003
9.439920e-003
9.439920e-003
9.439921e-003
9.439921e-003
9.439921e-003
9.439921e-003
9.439921e-003
9.439921e-003
9.439922e-003
9.439922e-003
9.439922e-003
9.439922e-003
9.439922e-003
9.439922e-003
9.439922e-003
9.439923e-003
9.439923e-003
9.439923e-003
9.439923e-003
9.439923e-003
9.439923e-003
9.439923e-003
9.439923e-003
9.439923e-003
9.439923e-003
9.439922e-003
9.439922e-003
9.439922e-003
9.439922e-003
9.439922e-003
9.439922e-003
9.439921e-003
9.439921e-003
9.439921e-003
9.439921e-003
9.439921e-003
9.439921e-003
9.439920e-003
9.439920e-003
9.439920e-003
9.439920e-003
9.439920e-003
9.439920e-003
9.439920e-003
9.439920e-003
9.439920e-003
9.439920e-003
9.439920e-003
9.439920e-003
9.439920e-003
9.439920e-003
9.439920e-003
9.439920e-003
9.439920e-003
9.439920e-003
9.439920e-003
9.439920e-003
9.439920e-003
9.439920e-003
9.439920e-003
9.439920e-003
9.439920e-003
9.439920e-003
9.439920e-003
9.439920e-003
9.439920e-003
9.439920e-003
9.439920e-003
9.439920e-003
9.439921e-003
9.439920e-003
9.439920e-003
9.439919e-003
9.439919e-003
9.439920e-003
9.439920e-003
9.439920e-003
9.439920e-003
9.439920e-003
9.439920e-003
9.439920e-003
9.439920e-003
9.439920e-003
9.439919e-003
9.439919e-003
9.439920e-003
9.439920e-003
9.439920e-003
9.439920e-003
9.439920e-003
9.439921e-003
9.439921e-003
9.439921e-003
9.439920e-003
9.439920e-003
9.439920e-003
9.439920e-003
9.439920e-003
9.439920e-003
9.439920e-003
9.439920e-003
9.439920e-003
9.439921e-003
9.439921e-003
9.439921e-003
9.439922e-003
9.439922e-003
9.439923e-003
9.439923e-003
9.439923e-003
9.439924e-003
9.439924e-003
9.439924e-003
9.439925e-003
9.439925e-003
9.439925e-003
9.439925e-003
9.439925e-003
9.439925e-003
9.439926e-003
9.439925e-003
9.439925e-003
9.439925e-003
9.439925e-003
9.439925e-003
9.439925e-003
9.439925e-003
9.439924e-003
9.439924e-003
9.439924e-003
9.439923e-003
9.439923e-003
9.439922e-003
9.439922e-003
9.439922e-003
9.439921e-003
9.439921e-003
9.439921e-003
9.439920e-003
9.439920e-003
9.439920e-003
9.439920e-003
9.439920e-003
9.439920e-003
9.439920e-003
9.439920e-003
9.439920e-003
9.439920e-003
9.439920e-003
9.439920e-003
9.439920e-003
9.439920e-003
9.439920e-003
9.439920e-003
9.439920e-003
9.439920e-003
9.439920e-003
9.439920e-003
9.439920e-003
9.439920e-003
9.439920e-003
9.439920e-003
9.439920e-003
9.439920e-003
9.439920e-003
9.439920e-003
9.439920e-003
9.439920e-003
9.439920e-003
9.439921e-003
9.439921e-003
9.439920e-003
9.439919e-003
9.439919e-003
9.439920e-003
9.439920e-003
9.439920e-003
9.439920e-003
9.439920e-003
9.439920e-003
9.439920e-003
9.439920e-003
9.439920e-003
9.439920e-003
9.439919e-003
9.439919e-003
9.439920e-003
9.439920e-003
9.439920e-003
9.439920e-003
9.439920e-003
9.439920e-003
9.439920e-003
9.439921e-003
9.439921e-003
9.439921e-003
9.439921e-003
9.439921e-003
9.439921e-003
9.439922e-003
9.439922e-003
9.439922e-003
9.439923e-003
9.439923e-003
9.439924e-003
9.439924e-003
9.439925e-003
9.439925e-003
9.439926e-003
9.439926e-003
9.439927e-003
9.439927e-003
9.439928e-003
9.439928e-003
9.439928e-003
9.439929e-003
9.439929e-003
9.439929e-003
9.439929e-003
9.439929e-003
9.439929e-003
9.439929e-003
9.439929e-003
9.439929e-003
9.439929e-003
9.439928e-003
9.439928e-003
9.439928e-003
9.439927e-003
9.439926e-003
9.439926e-003
9.439925e-003
9.439925e-003
9.439924e-003
9.439924e-003
9.439923e-003
9.439922e-003
9.439922e-003
9.439922e-003
9.439921e-003
9.439921e-003
9.439921e-003
9.439921e-003
9.439921e-003
9.439920e-003
9.439920e-003
9.439920e-003
9.439920e-003
9.439920e-003
9.439920e-003
9.439920e-003
9.439920e-003
9.439920e-003
9.439920e-003
9.439920e-003
9.439920e-003
9.439920e-003
9.439920e-003
9.439920e-003
9.439920e-003
9.439920e-003
9.439920e-003
9.439920e-003
9.439920e-003
9.439920e-003
9.439920e-003
9.439920e-003
9.439920e-003
9.439920e-003
9.439921e-003
9.439920e-003
9.439920e-003
9.439919e-003
9.439920e-003
9.439920e-003
9.439920e-003
9.439920e-003
9.439920e-003
9.439920e-003
9.439920e-003
9.439920e-003
9.439920e-003
9.439920e-003
9.439920e-003
9.439920e-003
9.439920e-003
9.439920e-003
9.439920e-003
9.439920e-003
9.439920e-003
9.439920e-003
9.439920e-003
9.439920e-003
9.439921e-003
9.439921e-003
9.439921e-003
9.439922e-003
9.439922e-003
9.439923e-003
9.439924e-003
9.439925e-003
9.439925e-003
9.439926e-003
9.439927e-003
9.439928e-003
9.439929e-003
9.439929e-003
9.439930e-003
9.439931e-003
9.439932e-003
9.439932e-003
9.439933e-003
9.439933e-003
9.439934e-003
9.439934e-003
9.439935e-003
9.439935e-003
9.439935e-003
9.439935e-003
9.439935e-003
9.439935e-003
9.439935e-003
9.439935e-003
9.439935e-003
9.439934e-003
9.439934e-003
9.439933e-003
9.439933e-003
9.439932e-003
9.439931e-003
9.439931e-003
9.439930e-003
9.439929e-003
9.439928e-003
9.439927e-003
9.439926e-003
9.439926e-003
9.439925e-003
9.439924e-003
9.439923e-003
9.439923e-003
9.439922e-003
9.439922e-003
9.439921e-003
9.439921e-003
9.439920e-003
9.439920e-003
9.439920e-003
9.439920e-003
9.439920e-003
9.439920e-003
9.439920e-003
9.439920e-003
9.439920e-003
9.439920e-003
9.439920e-003
9.439920e-003
9.439920e-003
9.439920e-003
9.439920e-003
9.439920e-003
9.439920e-003
9.439920e-003
9.439920e-003
9.439920e-003
9.439920e-003
9.439920e-003
9.439920e-003
9.439920e-003
9.439920e-003
9.439920e-003
9.439920e-003
9.439920e-003
9.439920e-003
9.439921e-003
9.439920e-003
9.439920e-003
9.439920e-003
9.439919e-003
9.439919e-003
9.439920e-003
9.439920e-003
9.439921e-003
9.439921e-003
9.439920e-003
9.439920e-003
9.439920e-003
9.439920e-003
9.439920e-003
9.439920e-003
9.439920e-003
9.439920e-003
9.439921e-003
9.439922e-003
9.439922e-003
9.439923e-003
9.439924e-003
9.439925e-003
9.439926e-003
9.439927e-003
9.439929e-003
9.439930e-003
9.439931e-003
9.439932e-003
9.439934e-003
9.439935e-003
9.439936e-003
9.439937e-003
9.439938e-003
9.439939e-003
9.439940e-003
9.439941e-003
9.439941e-003
9.439942e-003
9.439942e-003
9.439943e-003
9.439943e-003
9.439943e-003
9.439943e-003
9.439943e-003
9.439943e-003
9.439943e-003
9.439943e-003
9.439942e-003
9.439942e-003
9.439941e-003
9.439941e-003
9.439940e-003
9.439939e-003
9.439938e-003
9.439937e-003
9.439936e-003
9.439935e-003
9.439934e-003
9.439932e-003
9.439931e-003
9.439930e-003
9.439929e-003
9.439927e-003
9.439926e-003
9.439925e-003
9.439924e-003
9.439923e-003
9.439922e-003
9.439922e-003
9.439921e-003
9.439920e-003
9.439920e-003
9.439920e-003
9.439920e-003
9.439920e-003
9.439920e-003
9.439920e-003
9.439920e-003
9.439920e-003
9.439920e-003
9.439920e-003
9.439920e-003
9.439920e-003
9.439920e-003
9.439920e-003
9.439920e-003
9.439920e-003
9.439920e-003
9.439920e-003
9.439920e-003
9.439920e-003
9.439920e-003
9.439920e-003
9.439919e-003
9.439920e-003
9.439920e-003
9.439920e-003
9.439920e-003
9.439920e-003
9.439920e-003
9.439920e-003
9.439920e-003
9.439920e-003
9.439920e-003
9.439920e-003
9.439920e-003
9.439920e-003
9.439920e-003
9.439920e-003
9.439920e-003
9.439920e-003
9.439920e-003
9.439921e-003
9.439921e-003
9.439921e-003
9.439922e-003
9.439923e-003
9.439923e-003
9.439925e-003
9.439926e-003
9.439927e-003
9.439928e-003
9.439930e-003
9.439932e-003
9.439934e-003
9.439935e-003
9.439937e-003
9.439939e-003
9.439941e-003
9.439942e-003
9.439943e-003
9.439944e-003
9.439945e-003
9.439946e-003
9.439947e-003
9.439947e-003
9.439947e-003
9.439947e-003
9.439947e-003
9.439947e-003
9.439947e-003
9.439946e-003
9.439946e-003
9.439946e-003
9.439946e-003
9.439946e-003
9.439945e-003
9.439945e-003
9.439945e-003
9.439945e-003
9.439945e-003
9.439945e-003
9.439944e-003
9.439944e-003
9.439943e-003
9.439942e-003
9.439941e-003
9.439940e-003
9.439939e-003
9.439937e-003
9.439935e-003
9.439934e-003
9.439932e-003
9.439930e-003
9.439928e-003
9.439927e-003
9.439925e-003
9.439924e-003
9.439923e-003
9.439922e-003
9.439922e-003
9.439921e-003
9.439921e-003
9.439920e-003
9.439920e-003
9.439920e-003
9.439920e-003
9.439920e-003
9.439920e-003
9.439920e-003
9.439920e-003
9.439920e-003
9.439920e-003
9.439920e-003
9.439920e-003
9.439920e-003
9.439920e-003
9.439920e-003
9.439920e-003
9.439920e-003
9.439920e-003
9.439920e-003
9.439920e-003
9.439919e-003
9.439920e-003
9.439920e-003
9.439921e-003
9.439920e-003
9.439920e-003
9.439920e-003
9.439920e-003
9.439920e-003
9.439921e-003
9.439920e-003
9.439920e-003
9.439920e-003
9.439920e-003
9.439920e-003
9.439920e-003
9.439920e-003
9.439920e-003
9.439921e-003
9.439921e-003
9.439922e-003
9.439923e-003
9.439924e-003
9.439925e-003
9.439927e-003
9.439928e-003
9.439930e-003
9.439932e-003
9.439934e-003
9.439936e-003
9.439939e-003
9.439941e-003
9.439943e-003
9.439944e-003
9.439945e-003
9.439946e-003
9.439946e-003
9.439946e-003
9.439945e-003
9.439943e-003
9.439942e-003
9.439940e-003
9.439937e-003
9.439935e-003
9.439932e-003
9.439929e-003
9.439927e-003
9.439925e-003
9.439923e-003
9.439921e-003
9.439920e-003
9.439920e-003
9.439920e-003
9.439920e-003
9.439921e-003
9.439923e-003
9.439925e-003
9.439928e-003
9.439930e-003
9.439933e-003
9.439935e-003
9.439938e-003
9.439940e-003
9.439941e-003
9.439942e-003
9.439942e-003
9.439942e-003
9.439941e-003
9.439940e-003
9.439938e-003
9.439936e-003
9.439933e-003
9.439931e-003
9.439929e-003
9.439928e-003
9.439926e-003
9.439925e-003
9.439924e-003
9.439923e-003
9.439922e-003
9.439921e-003
9.439921e-003
9.439920e-003
9.439920e-003
9.439920e-003
9.439920e-003
9.439920e-003
9.439920e-003
9.439920e-003
9.439920e-003
9.439920e-003
9.439920e-003
9.439920e-003
9.439920e-003
9.439920e-003
9.439920e-003
9.439920e-003
9.439920e-003
9.439920e-003
9.439920e-003
9.439920e-003
9.439920e-003
9.439921e-003
9.439920e-003
9.439920e-003
9.439919e-003
9.439919e-003
9.439920e-003
9.439920e-003
9.439921e-003
9.439921e-003
9.439920e-003
9.439920e-003
9.439920e-003
9.439920e-003
9.439920e-003
9.439921e-003
9.439921e-003
9.439922e-003
9.439923e-003
9.439924e-003
9.439926e-003
9.439927e-003
9.439929e-003
9.439931e-003
9.439934e-003
9.439937e-003
9.439940e-003
9.439942e-003
9.439944e-003
9.439946e-003
9.439946e-003
9.439946e-003
9.439944e-003
9.439941e-003
9.439936e-003
9.439930e-003
9.439923e-003
9.439914e-003
9.439904e-003
9.439893e-003
9.439882e-003
9.439870e-003
9.439858e-003
9.439847e-003
9.439836e-003
9.439827e-003
9.439818e-003
9.439812e-003
9.439806e-003
9.439803e-003
9.439802e-003
9.439803e-003
9.439806e-003
9.439811e-003
9.439818e-003
9.439828e-003
9.439838e-003
9.439850e-003
9.439863e-003
9.439876e-003
9.439889e-003
9.439901e-003
9.439912e-003
9.439922e-003
9.439930e-003
9.439935e-003
9.439939e-003
9.439942e-003
9.439942e-003
9.439941e-003
9.439940e-003
9.439938e-003
9.439935e-003
9.439933e-003
9.439930e-003
9.439928e-003
9.439926e-003
9.439925e-003
9.439924e-003
9.439922e-003
9.439921e-003
9.439921e-003
9.439920e-003
9.439920e-003
9.439920e-003
9.439920e-003
9.439920e-003
9.439920e-003
9.439920e-003
9.439921e-003
9.439920e-003
9.439920e-003
9.439920e-003
9.439920e-003
9.439920e-003
9.439920e-003
9.439920e-003
9.439920e-003
9.439920e-003
9.439920e-003
9.439920e-003
9.439920e-003
9.439920e-003
9.439920e-003
9.439919e-003
9.439919e-003
9.439920e-003
9.439920e-003
9.439921e-003
9.439921e-003
9.439920e-003
9.439920e-003
9.439920e-003
9.439920e-003
9.439921e-003
9.439922e-003
9.439922e-003
9.439923e-003
9.439925e-003
9.439927e-003
9.439929e-003
9.439932e-003
9.439935e-003
9.439938e-003
9.439941e-003
9.439945e-003
9.439947e-003
9.439947e-003
9.439946e-003
9.439942e-003
9.439936e-003
9.439926e-003
9.439912e-003
9.439893e-003
9.439871e-003
9.439845e-003
9.439816e-003
9.439783e-003
9.439749e-003
9.439712e-003
9.439675e-003
9.439638e-003
9.439602e-003
9.439568e-003
9.439536e-003
9.439507e-003
9.439483e-003
9.439463e-003
9.439448e-003
9.439439e-003
9.439436e-003
9.439440e-003
9.439450e-003
9.439467e-003
9.439489e-003
9.439518e-003
9.439551e-003
9.439589e-003
9.439629e-003
9.439671e-003
9.439714e-003
9.439755e-003
9.439793e-003
9.439829e-003
9.439859e-003
9.439885e-003
9.439906e-003
9.439921e-003
9.439932e-003
9.439939e-003
9.439942e-003
9.439943e-003
9.439941e-003
9.439939e-003
9.439936e-003
9.439933e-003
9.439930e-003
9.439928e-003
9.439926e-003
9.439924e-003
9.439922e-003
9.439922e-003
9.439921e-003
9.439921e-003
9.439920e-003
9.439920e-003
9.439920e-003
9.439920e-003
9.439920e-003
9.439920e-003
9.439920e-003
9.439920e-003
9.439920e-003
9.439920e-003
9.439920e-003
9.439920e-003
9.439920e-003
9.439920e-003
9.439920e-003
9.439920e-003
9.439920e-003
9.439920e-003
9.439920e-003
9.439920e-003
9.439920e-003
9.439920e-003
9.439920e-003
9.439920e-003
9.439920e-003
9.439920e-003
9.439920e-003
9.439920e-003
9.439921e-003
9.439921e-003
9.439922e-003
9.439923e-003
9.439925e-003
9.439926e-003
9.439928e-003
9.439931e-003
9.439935e-003
9.439939e-003
9.439942e-003
9.439945e-003
9.439948e-003
9.439948e-003
9.439944e-003
9.439936e-003
9.439921e-003
9.439899e-003
9.439869e-003
9.439829e-003
9.439779e-003
9.439719e-003
9.439649e-003
9.439569e-003
9.439482e-003
9.439389e-003
9.439291e-003
9.439190e-003
9.439088e-003
9.438988e-003
9.438892e-003
9.438801e-003
9.438717e-003
9.438643e-003
9.438580e-003
9.438529e-003
9.438492e-003
9.438470e-003
9.438464e-003
9.438474e-003
9.438501e-003
9.438546e-003
9.438606e-003
9.438682e-003
9.438771e-003
9.438871e-003
9.438980e-003
9.439095e-003
9.439211e-003
9.439326e-003
9.439436e-003
9.439539e-003
9.439631e-003
9.439711e-003
9.439778e-003
9.439832e-003
9.439873e-003
9.439903e-003
9.439923e-003
9.439935e-003
9.439941e-003
9.439943e-003
9.439941e-003
9.439939e-003
9.439935e-003
9.439932e-003
9.439929e-003
9.439926e-003
9.439925e-003
9.439923e-003
9.439922e-003
9.439922e-003
9.439921e-003
9.439920e-003
9.439920e-003
9.439920e-003
9.439920e-003
9.439920e-003
9.439920e-003
9.439920e-003
9.439920e-003
9.439920e-003
9.439920e-003
9.439920e-003
9.439920e-003
9.439920e-003
9.439920e-003
9.439920e-003
9.439920e-003
9.439919e-003
9.439920e-003
9.439920e-003
9.439921e-003
9.439921e-003
9.439920e-003
9.439920e-003
9.439919e-003
9.439920e-003
9.439920e-003
9.439921e-003
9.439922e-003
9.439922e-003
9.439924e-003
9.439926e-003
9.439928e-003
9.439931e-003
9.439934e-003
9.439938e-003
9.439943e-003
9.439947e-003
9.439949e-003
9.439948e-003
9.439942e-003
9.439928e-003
9.439905e-003
9.439867e-003
9.439814e-003
9.439741e-003
9.439646e-003
9.439528e-003
9.439386e-003
9.439220e-003
9.439031e-003
9.438822e-003
9.438596e-003
9.438356e-003
9.438108e-003
9.437855e-003
9.437604e-003
9.437358e-003
9.437123e-003
9.436903e-003
9.436702e-003
9.436524e-003
9.436374e-003
9.436253e-003
9.436166e-003
9.436115e-003
9.436102e-003
9.436129e-003
9.436196e-003
9.436303e-003
9.436449e-003
9.436633e-003
9.436849e-003
9.437094e-003
9.437362e-003
9.437645e-003
9.437935e-003
9.438224e-003
9.438504e-003
9.438768e-003
9.439009e-003
9.439223e-003
9.439406e-003
9.439558e-003
9.439679e-003
9.439772e-003
9.439840e-003
9.439886e-003
9.439916e-003
9.439933e-003
9.439941e-003
9.439943e-003
9.439941e-003
9.439938e-003
9.439934e-003
9.439931e-003
9.439928e-003
9.439926e-003
9.439924e-003
9.439923e-003
9.439922e-003
9.439921e-003
9.439921e-003
9.439920e-003
9.439920e-003
9.439920e-003
9.439920e-003
9.439920e-003
9.439920e-003
9.439920e-003
9.439920e-003
9.439920e-003
9.439920e-003
9.439920e-003
9.439920e-003
9.439920e-003
9.439920e-003
9.439919e-003
9.439919e-003
9.439920e-003
9.439921e-003
9.439921e-003
9.439920e-003
9.439920e-003
9.439920e-003
9.439920e-003
9.439921e-003
9.439922e-003
9.439923e-003
9.439924e-003
9.439926e-003
9.439929e-003
9.439933e-003
9.439937e-003
9.439942e-003
9.439947e-003
9.439950e-003
9.439950e-003
9.439943e-003
9.439926e-003
9.439894e-003
9.439842e-003
9.439763e-003
9.439649e-003
9.439495e-003
9.439294e-003
9.439042e-003
9.438737e-003
9.438376e-003
9.437962e-003
9.437499e-003
9.436993e-003
9.436453e-003
9.435887e-003
9.435306e-003
9.434721e-003
9.434142e-003
9.433580e-003
9.433046e-003
9.432550e-003
9.432099e-003
9.431702e-003
9.431367e-003
9.431101e-003
9.430910e-003
9.430799e-003
9.430772e-003
9.430834e-003
9.430985e-003
9.431227e-003
9.431557e-003
9.431970e-003
9.432460e-003
9.433016e-003
9.433627e-003
9.434276e-003
9.434947e-003
9.435621e-003
9.436280e-003
9.436907e-003
9.437487e-003
9.438008e-003
9.438463e-003
9.438846e-003
9.439159e-003
9.439406e-003
9.439592e-003
9.439727e-003
9.439820e-003
9.439880e-003
9.439916e-003
9.439935e-003
9.439942e-003
9.439943e-003
9.439941e-003
9.439937e-003
9.439933e-003
9.439929e-003
9.439926e-003
9.439924e-003
9.439923e-003
9.439922e-003
9.439921e-003
9.439921e-003
9.439920e-003
9.439920e-003
9.439920e-003
9.439920e-003
9.439920e-003
9.439920e-003
9.439920e-003
9.439920e-003
9.439920e-003
9.439920e-003
9.439920e-003
9.439921e-003
9.439920e-003
9.439920e-003
9.439919e-003
9.439920e-003
9.439920e-003
9.439920e-003
9.439920e-003
9.439920e-003
9.439920e-003
9.439921e-003
9.439922e-003
9.439923e-003
9.439925e-003
9.439927e-003
9.439930e-003
9.439934e-003
9.439940e-003
9.439945e-003
9.439950e-003
9.439951e-003
9.439946e-003
9.439930e-003
9.439896e-003
9.439834e-003
9.439734e-003
9.439583e-003
9.439366e-003
9.439069e-003
9.438678e-003
9.438181e-003
9.437571e-003
9.436842e-003
9.435997e-003
9.435040e-003
9.433984e-003
9.432844e-003
9.431638e-003
9.430388e-003
9.429117e-003
9.427848e-003
9.426603e-003
9.425404e-003
9.424272e-003
9.423225e-003
9.422281e-003
9.421454e-003
9.420760e-003
9.420211e-003
9.419818e-003
9.419593e-003
9.419543e-003
9.419676e-003
9.419995e-003
9.420502e-003
9.421193e-003
9.422061e-003
9.423094e-003
9.424273e-003
9.425573e-003
9.426964e-003
9.428413e-003
9.429881e-003
9.431331e-003
9.432724e-003
9.434027e-003
9.435212e-003
9.436259e-003
9.437156e-003
9.437900e-003
9.438497e-003
9.438958e-003
9.439302e-003
9.439548e-003
9.439715e-003
9.439823e-003
9.439887e-003
9.439922e-003
9.439939e-003
9.439943e-003
9.439942e-003
9.439939e-003
9.439934e-003
9.439930e-003
9.439927e-003
9.439924e-003
9.439923e-003
9.439922e-003
9.439921e-003
9.439921e-003
9.439920e-003
9.439920e-003
9.439920e-003
9.439920e-003
9.439920e-003
9.439920e-003
9.439920e-003
9.439920e-003
9.439920e-003
9.439920e-003
9.439920e-003
9.439920e-003
9.439920e-003
9.439920e-003
9.439920e-003
9.439920e-003
9.439920e-003
9.439920e-003
9.439921e-003
9.439921e-003
9.439922e-003
9.439924e-003
9.439926e-003
9.439928e-003
9.439931e-003
9.439936e-003
9.439942e-003
9.439948e-003
9.439952e-003
9.439951e-003
9.439939e-003
9.439909e-003
9.439848e-003
9.439742e-003
9.439568e-003
9.439304e-003
9.438921e-003
9.438389e-003
9.437680e-003
9.436765e-003
9.435624e-003
9.434244e-003
9.432623e-003
9.430768e-003
9.428697e-003
9.426440e-003
9.424034e-003
9.421520e-003
9.418944e-003
9.416354e-003
9.413795e-003
9.411311e-003
9.408941e-003
9.406723e-003
9.404689e-003
9.402868e-003
9.401286e-003
9.399966e-003
9.398929e-003
9.398195e-003
9.397779e-003
9.397698e-003
9.397962e-003
9.398581e-003
9.399557e-003
9.400889e-003
9.402567e-003
9.404571e-003
9.406871e-003
9.409427e-003
9.412188e-003
9.415091e-003
9.418065e-003
9.421036e-003
9.423926e-003
9.426666e-003
9.429190e-003
9.431450e-003
9.433414e-003
9.435068e-003
9.436417e-003
9.437478e-003
9.438285e-003
9.438875e-003
9.439288e-003
9.439566e-003
9.439742e-003
9.439847e-003
9.439904e-003
9.439932e-003
9.439942e-003
9.439943e-003
9.439940e-003
9.439935e-003
9.439931e-003
9.439927e-003
9.439925e-003
9.439923e-003
9.439922e-003
9.439921e-003
9.439921e-003
9.439920e-003
9.439920e-003
9.439920e-003
9.439920e-003
9.439920e-003
9.439920e-003
9.439920e-003
9.439920e-003
9.439920e-003
9.439920e-003
9.439920e-003
9.439921e-003
9.439921e-003
9.439920e-003
9.439919e-003
9.439920e-003
9.439920e-003
9.439921e-003
9.439922e-003
9.439923e-003
9.439925e-003
9.439928e-003
9.439933e-003
9.439938e-003
9.439944e-003
9.439950e-003
9.439953e-003
9.439949e-003
9.439928e-003
9.439879e-003
9.439783e-003
9.439614e-003
9.439337e-003
9.438908e-003
9.438277e-003
9.437386e-003
9.436177e-003
9.434593e-003
9.432588e-003
9.430129e-003
9.427202e-003
9.423817e-003
9.420006e-003
9.415822e-003
9.411337e-003
9.406634e-003
9.401803e-003
9.396937e-003
9.392125e-003
9.387448e-003
9.382979e-003
9.378783e-003
9.374914e-003
9.371415e-003
9.368324e-003
9.365674e-003
9.363491e-003
9.361800e-003
9.360622e-003
9.359978e-003
9.359887e-003
9.360366e-003
9.361429e-003
9.363088e-003
9.365344e-003
9.368195e-003
9.371624e-003
9.375600e-003
9.380073e-003
9.384974e-003
9.390212e-003
9.395675e-003
9.401232e-003
9.406743e-003
9.412064e-003
9.417060e-003
9.421616e-003
9.425646e-003
9.429099e-003
9.431961e-003
9.434254e-003
9.436027e-003
9.437347e-003
9.438294e-003
9.438945e-003
9.439372e-003
9.439640e-003
9.439797e-003
9.439882e-003
9.439924e-003
9.439941e-003
9.439944e-003
9.439941e-003
9.439936e-003
9.439932e-003
9.439928e-003
9.439925e-003
9.439923e-003
9.439922e-003
9.439921e-003
9.439921e-003
9.439920e-003
9.439920e-003
9.439920e-003
9.439920e-003
9.439920e-003
9.439920e-003
9.439920e-003
9.439920e-003
9.439919e-003
9.439920e-003
9.439921e-003
9.439921e-003
9.439920e-003
9.439920e-003
9.439920e-003
9.439921e-003
9.439922e-003
9.439924e-003
9.439925e-003
9.439928e-003
9.439933e-003
9.439939e-003
9.439946e-003
9.439952e-003
9.439954e-003
9.439946e-003
9.439915e-003
9.439844e-003
9.439705e-003
9.439456e-003
9.439043e-003
9.438392e-003
9.437416e-003
9.436013e-003
9.434072e-003
9.431487e-003
9.428162e-003
9.424030e-003
9.419056e-003
9.413257e-003
9.406694e-003
9.399476e-003
9.391750e-003
9.383687e-003
9.375470e-003
9.367281e-003
9.359288e-003
9.351637e-003
9.344447e-003
9.337810e-003
9.331791e-003
9.326431e-003
9.321753e-003
9.317765e-003
9.314466e-003
9.311849e-003
9.309907e-003
9.308634e-003
9.308029e-003
9.308093e-003
9.308836e-003
9.310274e-003
9.312432e-003
9.315339e-003
9.319030e-003
9.323539e-003
9.328891e-003
9.335094e-003
9.342124e-003
9.349918e-003
9.358361e-003
9.367284e-003
9.376469e-003
9.385659e-003
9.394581e-003
9.402971e-003
9.410603e-003
9.417311e-003
9.423001e-003
9.427655e-003
9.431323e-003
9.434107e-003
9.436141e-003
9.437568e-003
9.438528e-003
9.439145e-003
9.439524e-003
9.439742e-003
9.439859e-003
9.439916e-003
9.439939e-003
9.439944e-003
9.439942e-003
9.439937e-003
9.439932e-003
9.439928e-003
9.439925e-003
9.439923e-003
9.439922e-003
9.439921e-003
9.439920e-003
9.439920e-003
9.439920e-003
9.439920e-003
9.439920e-003
9.439920e-003
9.439920e-003
9.439920e-003
9.439918e-003
9.439920e-003
9.439921e-003
9.439921e-003
9.439921e-003
9.439920e-003
9.439921e-003
9.439922e-003
9.439924e-003
9.439926e-003
9.439928e-003
9.439933e-003
9.439939e-003
9.439947e-003
9.439954e-003
9.439955e-003
9.439942e-003
9.439902e-003
9.439807e-003
9.439620e-003
9.439280e-003
9.438702e-003
9.437775e-003
9.436354e-003
9.434269e-003
9.431330e-003
9.427344e-003
9.422140e-003
9.415590e-003
9.407645e-003
9.398348e-003
9.387852e-003
9.376412e-003
9.364363e-003
9.352096e-003
9.340012e-003
9.328491e-003
9.317859e-003
9.308367e-003
9.300182e-003
9.293386e-003
9.287979e-003
9.283898e-003
9.281024e-003
9.279202e-003
9.278260e-003
9.278014e-003
9.278285e-003
9.278906e-003
9.279727e-003
9.280622e-003
9.281495e-003
9.282286e-003
9.282985e-003
9.283635e-003
9.284345e-003
9.285293e-003
9.286718e-003
9.288915e-003
9.292198e-003
9.296869e-003
9.303167e-003
9.311221e-003
9.321009e-003
9.332335e-003
9.344834e-003
9.358006e-003
9.371272e-003
9.384049e-003
9.395823e-003
9.406211e-003
9.414991e-003
9.422105e-003
9.427633e-003
9.431757e-003
9.434708e-003
9.436734e-003
9.438067e-003
9.438905e-003
9.439406e-003
9.439689e-003
9.439838e-003
9.439909e-003
9.439937e-003
9.439944e-003
9.439942e-003
9.439937e-003
9.439931e-003
9.439927e-003
9.439924e-003
9.439923e-003
9.439922e-003
9.439921e-003
9.439920e-003
9.439920e-003
9.439920e-003
9.439920e-003
9.439920e-003
9.439920e-003
9.439919e-003
9.439919e-003
9.439920e-003
9.439920e-003
9.439921e-003
9.439920e-003
9.439921e-003
9.439921e-003
9.439923e-003
9.439926e-003
9.439929e-003
9.439933e-003
9.439939e-003
9.439947e-003
9.439954e-003
9.439955e-003
9.439940e-003
9.439890e-003
9.439774e-003
9.439539e-003
9.439102e-003
9.438344e-003
9.437099e-003
9.435148e-003
9.432222e-003
9.428014e-003
9.422205e-003
9.414507e-003
9.404723e-003
9.392812e-003
9.378946e-003
9.363541e-003
9.347263e-003
9.330972e-003
9.315648e-003
9.302278e-003
9.291749e-003
9.284761e-003
9.281768e-003
9.282947e-003
9.288211e-003
9.297232e-003
9.309485e-003
9.324297e-003
9.340899e-003
9.358472e-003
9.376189e-003
9.393246e-003
9.408883e-003
9.422401e-003
9.433172e-003
9.440646e-003
9.444377e-003
9.444044e-003
9.439486e-003
9.430748e-003
9.418120e-003
9.402179e-003
9.383800e-003
9.364143e-003
9.344592e-003
9.326652e-003
9.311798e-003
9.301309e-003
9.296089e-003
9.296541e-003
9.302492e-003
9.313213e-003
9.327528e-003
9.344000e-003
9.361151e-003
9.377671e-003
9.392570e-003
9.405248e-003
9.415480e-003
9.423340e-003
9.429105e-003
9.433149e-003
9.435864e-003
9.437609e-003
9.438678e-003
9.439302e-003
9.439646e-003
9.439822e-003
9.439904e-003
9.439936e-003
9.439944e-003