# vtk DataFile Version 3.0
vtk output
ASCII
DATASET STRUCTURED_POINTS
DIMENSIONS 100 100 1
SPACING 1 1 1
ORIGIN 0 0 0
POINT_DATA 10000
SCALARS SFBox_profile double
LOOKUP_TABLE default 
9.439914e-003
9.439917e-003
9.439921e-003
9.439925e-003
9.439926e-003
9.439924e-003
9.439921e-003
9.439917e-003
9.439915e-003
9.439914e-003
9.439915e-003
9.439917e-003
9.439920e-003
9.439922e-003
9.439924e-003
9.439925e-003
9.439925e-003
9.439924e-003
9.439922e-003
9.439920e-003
9.439918e-003
9.439917e-003
9.439917e-003
9.439917e-003
9.439918e-003
9.439919e-003
9.439919e-003
9.439919e-003
9.439919e-003
9.439919e-003
9.439919e-003
9.439919e-003
9.439920e-003
9.439920e-003
9.439920e-003
9.439920e-003
9.439920e-003
9.439921e-003
9.439922e-003
9.439923e-003
9.439924e-003
9.439925e-003
9.439926e-003
9.439927e-003
9.439928e-003
9.439928e-003
9.439929e-003
9.439929e-003
9.439929e-003
9.439929e-003
9.439929e-003
9.439929e-003
9.439929e-003
9.439928e-003
9.439928e-003
9.439927e-003
9.439927e-003
9.439927e-003
9.439926e-003
9.439926e-003
9.439925e-003
9.439924e-003
9.439923e-003
9.439922e-003
9.439922e-003
9.439921e-003
9.439921e-003
9.439920e-003
9.439920e-003
9.439919e-003
9.439919e-003
9.439919e-003
9.439919e-003
9.439920e-003
9.439920e-003
9.439919e-003
9.439918e-003
9.439918e-003
9.439918e-003
9.439918e-003
9.439919e-003
9.439920e-003
9.439921e-003
9.439922e-003
9.439922e-003
9.439923e-003
9.439922e-003
9.439921e-003
9.439920e-003
9.439919e-003
9.439918e-003
9.439917e-003
9.439918e-003
9.439919e-003
9.439921e-003
9.439922e-003
9.439922e-003
9.439921e-003
9.439920e-003
9.439919e-003
9.439914e-003
9.439917e-003
9.439921e-003
9.439925e-003
9.439926e-003
9.439924e-003
9.439921e-003
9.439917e-003
9.439915e-003
9.439914e-003
9.439915e-003
9.439917e-003
9.439920e-003
9.439922e-003
9.439924e-003
9.439925e-003
9.439925e-003
9.439924e-003
9.439922e-003
9.439920e-003
9.439918e-003
9.439917e-003
9.439917e-003
9.439917e-003
9.439918e-003
9.439919e-003
9.439919e-003
9.439919e-003
9.439919e-003
9.439919e-003
9.439919e-003
9.439919e-003
9.439920e-003
9.439920e-003
9.439920e-003
9.439920e-003
9.439920e-003
9.439921e-003
9.439922e-003
9.439923e-003
9.439924e-003
9.439925e-003
9.439926e-003
9.439927e-003
9.439928e-003
9.439928e-003
9.439929e-003
9.439929e-003
9.439929e-003
9.439929e-003
9.439929e-003
9.439929e-003
9.439929e-003
9.439928e-003
9.439928e-003
9.439927e-003
9.439927e-003
9.439927e-003
9.439926e-003
9.439926e-003
9.439925e-003
9.439924e-003
9.439923e-003
9.439922e-003
9.439922e-003
9.439921e-003
9.439921e-003
9.439920e-003
9.439920e-003
9.439919e-003
9.439919e-003
9.439919e-003
9.439919e-003
9.439920e-003
9.439920e-003
9.439919e-003
9.439918e-003
9.439918e-003
9.439918e-003
9.439918e-003
9.439919e-003
9.439920e-003
9.439921e-003
9.439922e-003
9.439922e-003
9.439923e-003
9.439922e-003
9.439921e-003
9.439920e-003
9.439919e-003
9.439918e-003
9.439917e-003
9.439918e-003
9.439919e-003
9.439921e-003
9.439922e-003
9.439922e-003
9.439921e-003
9.439920e-003
9.439919e-003
9.439918e-003
9.439919e-003
9.439921e-003
9.439922e-003
9.439922e-003
9.439921e-003
9.439920e-003
9.439919e-003
9.439918e-003
9.439918e-003
9.439919e-003
9.439920e-003
9.439920e-003
9.439921e-003
9.439922e-003
9.439922e-003
9.439922e-003
9.439921e-003
9.439920e-003
9.439919e-003
9.439919e-003
9.439918e-003
9.439919e-003
9.439919e-003
9.439920e-003
9.439920e-003
9.439920e-003
9.439920e-003
9.439920e-003
9.439920e-003
9.439921e-003
9.439921e-003
9.439921e-003
9.439921e-003
9.439921e-003
9.439922e-003
9.439922e-003
9.439922e-003
9.439922e-003
9.439923e-003
9.439923e-003
9.439924e-003
9.439924e-003
9.439924e-003
9.439924e-003
9.439924e-003
9.439924e-003
9.439925e-003
9.439925e-003
9.439925e-003
9.439925e-003
9.439925e-003
9.439925e-003
9.439925e-003
9.439924e-003
9.439924e-003
9.439924e-003
9.439924e-003
9.439924e-003
9.439924e-003
9.439924e-003
9.439923e-003
9.439923e-003
9.439922e-003
9.439922e-003
9.439922e-003
9.439922e-003
9.439922e-003
9.439921e-003
9.439920e-003
9.439920e-003
9.439920e-003
9.439921e-003
9.439921e-003
9.439921e-003
9.439920e-003
9.439920e-003
9.439919e-003
9.439919e-003
9.439919e-003
9.439919e-003
9.439920e-003
9.439920e-003
9.439920e-003
9.439921e-003
9.439921e-003
9.439921e-003
9.439921e-003
9.439920e-003
9.439920e-003
9.439919e-003
9.439919e-003
9.439919e-003
9.439920e-003
9.439920e-003
9.439920e-003
9.439921e-003
9.439920e-003
9.439920e-003
9.439920e-003
9.439923e-003
9.439922e-003
9.439920e-003
9.439918e-003
9.439917e-003
9.439917e-003
9.439919e-003
9.439920e-003
9.439922e-003
9.439923e-003
9.439923e-003
9.439922e-003
9.439921e-003
9.439919e-003
9.439918e-003
9.439917e-003
9.439917e-003
9.439917e-003
9.439918e-003
9.439919e-003
9.439920e-003
9.439921e-003
9.439922e-003
9.439922e-003
9.439923e-003
9.439922e-003
9.439922e-003
9.439922e-003
9.439922e-003
9.439922e-003
9.439922e-003
9.439923e-003
9.439923e-003
9.439924e-003
9.439924e-003
9.439924e-003
9.439924e-003
9.439924e-003
9.439924e-003
9.439924e-003
9.439923e-003
9.439923e-003
9.439923e-003
9.439922e-003
9.439922e-003
9.439922e-003
9.439922e-003
9.439922e-003
9.439922e-003
9.439922e-003
9.439922e-003
9.439922e-003
9.439923e-003
9.439923e-003
9.439923e-003
9.439923e-003
9.439923e-003
9.439923e-003
9.439923e-003
9.439924e-003
9.439924e-003
9.439924e-003
9.439924e-003
9.439924e-003
9.439924e-003
9.439924e-003
9.439924e-003
9.439923e-003
9.439923e-003
9.439923e-003
9.439922e-003
9.439922e-003
9.439922e-003
9.439922e-003
9.439922e-003
9.439922e-003
9.439921e-003
9.439921e-003
9.439921e-003
9.439921e-003
9.439920e-003
9.439920e-003
9.439919e-003
9.439918e-003
9.439918e-003
9.439918e-003
9.439919e-003
9.439920e-003
9.439921e-003
9.439921e-003
9.439922e-003
9.439922e-003
9.439921e-003
9.439920e-003
9.439919e-003
9.439919e-003
9.439919e-003
9.439920e-003
9.439921e-003
9.439921e-003
9.439927e-003
9.439923e-003
9.439919e-003
9.439915e-003
9.439914e-003
9.439915e-003
9.439918e-003
9.439922e-003
9.439925e-003
9.439926e-003
9.439925e-003
9.439923e-003
9.439920e-003
9.439917e-003
9.439915e-003
9.439914e-003
9.439915e-003
9.439916e-003
9.439918e-003
9.439920e-003
9.439922e-003
9.439923e-003
9.439924e-003
9.439924e-003
9.439924e-003
9.439923e-003
9.439923e-003
9.439923e-003
9.439923e-003
9.439923e-003
9.439924e-003
9.439924e-003
9.439925e-003
9.439926e-003
9.439927e-003
9.439927e-003
9.439927e-003
9.439928e-003
9.439928e-003
9.439928e-003
9.439927e-003
9.439927e-003
9.439927e-003
9.439927e-003
9.439927e-003
9.439927e-003
9.439927e-003
9.439927e-003
9.439927e-003
9.439928e-003
9.439928e-003
9.439928e-003
9.439928e-003
9.439928e-003
9.439928e-003
9.439928e-003
9.439928e-003
9.439928e-003
9.439928e-003
9.439928e-003
9.439928e-003
9.439928e-003
9.439927e-003
9.439927e-003
9.439927e-003
9.439927e-003
9.439926e-003
9.439926e-003
9.439925e-003
9.439925e-003
9.439924e-003
9.439923e-003
9.439923e-003
9.439922e-003
9.439922e-003
9.439922e-003
9.439922e-003
9.439922e-003
9.439922e-003
9.439922e-003
9.439921e-003
9.439920e-003
9.439919e-003
9.439918e-003
9.439917e-003
9.439917e-003
9.439917e-003
9.439918e-003
9.439920e-003
9.439922e-003
9.439923e-003
9.439923e-003
9.439922e-003
9.439920e-003
9.439919e-003
9.439918e-003
9.439918e-003
9.439919e-003
9.439921e-003
9.439922e-003
9.439927e-003
9.439923e-003
9.439918e-003
9.439915e-003
9.439914e-003
9.439916e-003
9.439919e-003
9.439923e-003
9.439926e-003
9.439926e-003
9.439924e-003
9.439921e-003
9.439919e-003
9.439916e-003
9.439915e-003
9.439916e-003
9.439916e-003
9.439918e-003
9.439920e-003
9.439922e-003
9.439923e-003
9.439924e-003
9.439924e-003
9.439923e-003
9.439922e-003
9.439922e-003
9.439922e-003
9.439923e-003
9.439924e-003
9.439925e-003
9.439926e-003
9.439926e-003
9.439928e-003
9.439929e-003
9.439930e-003
9.439931e-003
9.439932e-003
9.439933e-003
9.439934e-003
9.439935e-003
9.439936e-003
9.439937e-003
9.439938e-003
9.439938e-003
9.439939e-003
9.439939e-003
9.439940e-003
9.439941e-003
9.439941e-003
9.439941e-003
9.439941e-003
9.439941e-003
9.439941e-003
9.439941e-003
9.439941e-003
9.439940e-003
9.439940e-003
9.439939e-003
9.439938e-003
9.439937e-003
9.439936e-003
9.439936e-003
9.439935e-003
9.439934e-003
9.439932e-003
9.439931e-003
9.439930e-003
9.439929e-003
9.439928e-003
9.439927e-003
9.439926e-003
9.439925e-003
9.439923e-003
9.439922e-003
9.439922e-003
9.439922e-003
9.439922e-003
9.439922e-003
9.439923e-003
9.439922e-003
9.439922e-003
9.439921e-003
9.439920e-003
9.439919e-003
9.439918e-003
9.439918e-003
9.439917e-003
9.439918e-003
9.439919e-003
9.439921e-003
9.439922e-003
9.439923e-003
9.439922e-003
9.439921e-003
9.439919e-003
9.439918e-003
9.439918e-003
9.439919e-003
9.439920e-003
9.439921e-003
9.439923e-003
9.439921e-003
9.439919e-003
9.439917e-003
9.439917e-003
9.439919e-003
9.439921e-003
9.439923e-003
9.439923e-003
9.439922e-003
9.439920e-003
9.439918e-003
9.439917e-003
9.439918e-003
9.439919e-003
9.439920e-003
9.439921e-003
9.439922e-003
9.439923e-003
9.439923e-003
9.439923e-003
9.439923e-003
9.439922e-003
9.439921e-003
9.439921e-003
9.439921e-003
9.439923e-003
9.439924e-003
9.439926e-003
9.439928e-003
9.439929e-003
9.439931e-003
9.439932e-003
9.439934e-003
9.439936e-003
9.439938e-003
9.439940e-003
9.439941e-003
9.439943e-003
9.439944e-003
9.439946e-003
9.439947e-003
9.439949e-003
9.439950e-003
9.439951e-003
9.439951e-003
9.439952e-003
9.439952e-003
9.439953e-003
9.439953e-003
9.439952e-003
9.439952e-003
9.439951e-003
9.439951e-003
9.439951e-003
9.439950e-003
9.439949e-003
9.439948e-003
9.439947e-003
9.439946e-003
9.439945e-003
9.439944e-003
9.439943e-003
9.439941e-003
9.439940e-003
9.439938e-003
9.439936e-003
9.439934e-003
9.439932e-003
9.439931e-003
9.439930e-003
9.439928e-003
9.439926e-003
9.439924e-003
9.439922e-003
9.439922e-003
9.439922e-003
9.439922e-003
9.439922e-003
9.439922e-003
9.439922e-003
9.439922e-003
9.439922e-003
9.439921e-003
9.439921e-003
9.439920e-003
9.439919e-003
9.439918e-003
9.439918e-003
9.439919e-003
9.439920e-003
9.439921e-003
9.439921e-003
9.439921e-003
9.439920e-003
9.439920e-003
9.439919e-003
9.439919e-003
9.439920e-003
9.439920e-003
9.439917e-003
9.439918e-003
9.439919e-003
9.439921e-003
9.439922e-003
9.439923e-003
9.439922e-003
9.439921e-003
9.439919e-003
9.439917e-003
9.439916e-003
9.439916e-003
9.439918e-003
9.439920e-003
9.439923e-003
9.439924e-003
9.439925e-003
9.439925e-003
9.439924e-003
9.439923e-003
9.439922e-003
9.439921e-003
9.439920e-003
9.439920e-003
9.439921e-003
9.439923e-003
9.439926e-003
9.439929e-003
9.439932e-003
9.439934e-003
9.439936e-003
9.439938e-003
9.439940e-003
9.439941e-003
9.439943e-003
9.439945e-003
9.439946e-003
9.439947e-003
9.439948e-003
9.439948e-003
9.439948e-003
9.439948e-003
9.439947e-003
9.439946e-003
9.439945e-003
9.439944e-003
9.439943e-003
9.439941e-003
9.439940e-003
9.439939e-003
9.439938e-003
9.439937e-003
9.439936e-003
9.439936e-003
9.439936e-003
9.439937e-003
9.439937e-003
9.439938e-003
9.439939e-003
9.439940e-003
9.439941e-003
9.439942e-003
9.439943e-003
9.439944e-003
9.439943e-003
9.439942e-003
9.439941e-003
9.439940e-003
9.439939e-003
9.439937e-003
9.439936e-003
9.439933e-003
9.439931e-003
9.439928e-003
9.439926e-003
9.439924e-003
9.439923e-003
9.439922e-003
9.439921e-003
9.439921e-003
9.439921e-003
9.439921e-003
9.439922e-003
9.439923e-003
9.439923e-003
9.439923e-003
9.439922e-003
9.439920e-003
9.439919e-003
9.439918e-003
9.439918e-003
9.439918e-003
9.439920e-003
9.439921e-003
9.439922e-003
9.439922e-003
9.439921e-003
9.439920e-003
9.439919e-003
9.439918e-003
9.439913e-003
9.439916e-003
9.439921e-003
9.439925e-003
9.439926e-003
9.439925e-003
9.439922e-003
9.439918e-003
9.439915e-003
9.439914e-003
9.439914e-003
9.439917e-003
9.439920e-003
9.439924e-003
9.439926e-003
9.439926e-003
9.439925e-003
9.439924e-003
9.439922e-003
9.439921e-003
9.439920e-003
9.439921e-003
9.439922e-003
9.439924e-003
9.439927e-003
9.439930e-003
9.439934e-003
9.439938e-003
9.439941e-003
9.439943e-003
9.439945e-003
9.439946e-003
9.439946e-003
9.439946e-003
9.439945e-003
9.439943e-003
9.439939e-003
9.439935e-003
9.439929e-003
9.439923e-003
9.439916e-003
9.439909e-003
9.439901e-003
9.439893e-003
9.439884e-003
9.439876e-003
9.439869e-003
9.439862e-003
9.439856e-003
9.439851e-003
9.439848e-003
9.439845e-003
9.439845e-003
9.439846e-003
9.439849e-003
9.439853e-003
9.439859e-003
9.439866e-003
9.439874e-003
9.439883e-003
9.439893e-003
9.439902e-003
9.439912e-003
9.439920e-003
9.439927e-003
9.439933e-003
9.439937e-003
9.439940e-003
9.439942e-003
9.439942e-003
9.439942e-003
9.439941e-003
9.439938e-003
9.439935e-003
9.439932e-003
9.439929e-003
9.439927e-003
9.439925e-003
9.439923e-003
9.439921e-003
9.439920e-003
9.439920e-003
9.439921e-003
9.439922e-003
9.439923e-003
9.439924e-003
9.439924e-003
9.439922e-003
9.439920e-003
9.439918e-003
9.439916e-003
9.439916e-003
9.439918e-003
9.439920e-003
9.439922e-003
9.439923e-003
9.439923e-003
9.439921e-003
9.439919e-003
9.439917e-003
9.439912e-003
9.439916e-003
9.439922e-003
9.439926e-003
9.439927e-003
9.439925e-003
9.439920e-003
9.439916e-003
9.439914e-003
9.439914e-003
9.439916e-003
9.439920e-003
9.439923e-003
9.439925e-003
9.439926e-003
9.439924e-003
9.439922e-003
9.439921e-003
9.439920e-003
9.439920e-003
9.439922e-003
9.439925e-003
9.439928e-003
9.439932e-003
9.439936e-003
9.439940e-003
9.439944e-003
9.439947e-003
9.439949e-003
9.439949e-003
9.439947e-003
9.439943e-003
9.439936e-003
9.439927e-003
9.439915e-003
9.439900e-003
9.439882e-003
9.439860e-003
9.439837e-003
9.439811e-003
9.439785e-003
9.439757e-003
9.439729e-003
9.439701e-003
9.439674e-003
9.439648e-003
9.439625e-003
9.439604e-003
9.439587e-003
9.439573e-003
9.439563e-003
9.439557e-003
9.439557e-003
9.439561e-003
9.439571e-003
9.439586e-003
9.439605e-003
9.439629e-003
9.439656e-003
9.439686e-003
9.439718e-003
9.439752e-003
9.439785e-003
9.439816e-003
9.439845e-003
9.439870e-003
9.439892e-003
9.439910e-003
9.439924e-003
9.439933e-003
9.439940e-003
9.439943e-003
9.439943e-003
9.439942e-003
9.439940e-003
9.439937e-003
9.439934e-003
9.439930e-003
9.439927e-003
9.439924e-003
9.439922e-003
9.439920e-003
9.439920e-003
9.439920e-003
9.439921e-003
9.439923e-003
9.439924e-003
9.439924e-003
9.439922e-003
9.439920e-003
9.439917e-003
9.439916e-003
9.439917e-003
9.439919e-003
9.439921e-003
9.439923e-003
9.439923e-003
9.439921e-003
9.439919e-003
9.439917e-003
9.439914e-003
9.439918e-003
9.439922e-003
9.439925e-003
9.439925e-003
9.439922e-003
9.439918e-003
9.439915e-003
9.439915e-003
9.439917e-003
9.439921e-003
9.439924e-003
9.439925e-003
9.439925e-003
9.439923e-003
9.439920e-003
9.439919e-003
9.439919e-003
9.439921e-003
9.439924e-003
9.439928e-003
9.439933e-003
9.439938e-003
9.439943e-003
9.439947e-003
9.439950e-003
9.439950e-003
9.439949e-003
9.439944e-003
9.439934e-003
9.439919e-003
9.439898e-003
9.439869e-003
9.439833e-003
9.439789e-003
9.439738e-003
9.439679e-003
9.439613e-003
9.439542e-003
9.439467e-003
9.439390e-003
9.439312e-003
9.439234e-003
9.439158e-003
9.439085e-003
9.439017e-003
9.438955e-003
9.438900e-003
9.438854e-003
9.438818e-003
9.438793e-003
9.438780e-003
9.438780e-003
9.438792e-003
9.438819e-003
9.438858e-003
9.438911e-003
9.438975e-003
9.439049e-003
9.439132e-003
9.439221e-003
9.439314e-003
9.439407e-003
9.439498e-003
9.439584e-003
9.439662e-003
9.439731e-003
9.439790e-003
9.439838e-003
9.439876e-003
9.439904e-003
9.439923e-003
9.439935e-003
9.439942e-003
9.439944e-003
9.439944e-003
9.439941e-003
9.439938e-003
9.439934e-003
9.439930e-003
9.439926e-003
9.439923e-003
9.439920e-003
9.439919e-003
9.439919e-003
9.439921e-003
9.439922e-003
9.439923e-003
9.439923e-003
9.439922e-003
9.439920e-003
9.439918e-003
9.439917e-003
9.439918e-003
9.439920e-003
9.439921e-003
9.439922e-003
9.439921e-003
9.439920e-003
9.439919e-003
9.439919e-003
9.439920e-003
9.439922e-003
9.439922e-003
9.439921e-003
9.439918e-003
9.439917e-003
9.439917e-003
9.439919e-003
9.439922e-003
9.439924e-003
9.439926e-003
9.439924e-003
9.439922e-003
9.439919e-003
9.439918e-003
9.439918e-003
9.439921e-003
9.439926e-003
9.439932e-003
9.439938e-003
9.439944e-003
9.439948e-003
9.439952e-003
9.439952e-003
9.439949e-003
9.439940e-003
9.439923e-003
9.439897e-003
9.439858e-003
9.439804e-003
9.439734e-003
9.439646e-003
9.439539e-003
9.439412e-003
9.439268e-003
9.439107e-003
9.438932e-003
9.438746e-003
9.438553e-003
9.438356e-003
9.438158e-003
9.437964e-003
9.437775e-003
9.437596e-003
9.437430e-003
9.437279e-003
9.437148e-003
9.437037e-003
9.436951e-003
9.436892e-003
9.436862e-003
9.436862e-003
9.436894e-003
9.436959e-003
9.437056e-003
9.437185e-003
9.437343e-003
9.437527e-003
9.437733e-003
9.437955e-003
9.438188e-003
9.438424e-003
9.438658e-003
9.438881e-003
9.439089e-003
9.439276e-003
9.439439e-003
9.439576e-003
9.439687e-003
9.439774e-003
9.439839e-003
9.439884e-003
9.439914e-003
9.439932e-003
9.439941e-003
9.439945e-003
9.439944e-003
9.439941e-003
9.439938e-003
9.439933e-003
9.439928e-003
9.439924e-003
9.439921e-003
9.439919e-003
9.439919e-003
9.439920e-003
9.439922e-003
9.439923e-003
9.439923e-003
9.439922e-003
9.439921e-003
9.439919e-003
9.439918e-003
9.439918e-003
9.439919e-003
9.439920e-003
9.439920e-003
9.439921e-003
9.439921e-003
9.439923e-003
9.439922e-003
9.439920e-003
9.439918e-003
9.439916e-003
9.439916e-003
9.439917e-003
9.439920e-003
9.439923e-003
9.439925e-003
9.439926e-003
9.439924e-003
9.439922e-003
9.439919e-003
9.439918e-003
9.439919e-003
9.439923e-003
9.439929e-003
9.439936e-003
9.439942e-003
9.439948e-003
9.439952e-003
9.439953e-003
9.439950e-003
9.439939e-003
9.439916e-003
9.439879e-003
9.439821e-003
9.439736e-003
9.439621e-003
9.439468e-003
9.439275e-003
9.439038e-003
9.438758e-003
9.438435e-003
9.438072e-003
9.437674e-003
9.437248e-003
9.436801e-003
9.436340e-003
9.435874e-003
9.435411e-003
9.434958e-003
9.434522e-003
9.434111e-003
9.433732e-003
9.433390e-003
9.433092e-003
9.432844e-003
9.432652e-003
9.432520e-003
9.432453e-003
9.432456e-003
9.432531e-003
9.432679e-003
9.432902e-003
9.433197e-003
9.433559e-003
9.433983e-003
9.434459e-003
9.434976e-003
9.435520e-003
9.436076e-003
9.436630e-003
9.437166e-003
9.437670e-003
9.438130e-003
9.438538e-003
9.438887e-003
9.439177e-003
9.439409e-003
9.439588e-003
9.439720e-003
9.439812e-003
9.439874e-003
9.439911e-003
9.439932e-003
9.439942e-003
9.439945e-003
9.439944e-003
9.439941e-003
9.439936e-003
9.439931e-003
9.439926e-003
9.439921e-003
9.439919e-003
9.439918e-003
9.439919e-003
9.439921e-003
9.439923e-003
9.439924e-003
9.439923e-003
9.439922e-003
9.439920e-003
9.439918e-003
9.439917e-003
9.439918e-003
9.439919e-003
9.439921e-003
9.439922e-003
9.439927e-003
9.439923e-003
9.439918e-003
9.439915e-003
9.439914e-003
9.439916e-003
9.439920e-003
9.439924e-003
9.439926e-003
9.439926e-003
9.439924e-003
9.439921e-003
9.439919e-003
9.439918e-003
9.439920e-003
9.439925e-003
9.439932e-003
9.439940e-003
9.439947e-003
9.439952e-003
9.439954e-003
9.439952e-003
9.439941e-003
9.439917e-003
9.439874e-003
9.439801e-003
9.439689e-003
9.439525e-003
9.439298e-003
9.438996e-003
9.438608e-003
9.438128e-003
9.437552e-003
9.436880e-003
9.436117e-003
9.435272e-003
9.434358e-003
9.433390e-003
9.432383e-003
9.431356e-003
9.430326e-003
9.429309e-003
9.428322e-003
9.427380e-003
9.426497e-003
9.425686e-003
9.424960e-003
9.424330e-003
9.423808e-003
9.423405e-003
9.423131e-003
9.422995e-003
9.423005e-003
9.423168e-003
9.423487e-003
9.423964e-003
9.424594e-003
9.425371e-003
9.426282e-003
9.427310e-003
9.428432e-003
9.429620e-003
9.430846e-003
9.432076e-003
9.433277e-003
9.434418e-003
9.435473e-003
9.436419e-003
9.437242e-003
9.437936e-003
9.438501e-003
9.438946e-003
9.439283e-003
9.439528e-003
9.439697e-003
9.439809e-003
9.439877e-003
9.439916e-003
9.439936e-003
9.439944e-003
9.439946e-003
9.439943e-003
9.439939e-003
9.439933e-003
9.439927e-003
9.439922e-003
9.439919e-003
9.439918e-003
9.439919e-003
9.439921e-003
9.439923e-003
9.439925e-003
9.439924e-003
9.439921e-003
9.439918e-003
9.439916e-003
9.439916e-003
9.439918e-003
9.439921e-003
9.439923e-003
9.439929e-003
9.439924e-003
9.439917e-003
9.439913e-003
9.439913e-003
9.439917e-003
9.439922e-003
9.439926e-003
9.439927e-003
9.439924e-003
9.439921e-003
9.439918e-003
9.439918e-003
9.439921e-003
9.439927e-003
9.439935e-003
9.439943e-003
9.439951e-003
9.439955e-003
9.439955e-003
9.439947e-003
9.439926e-003
9.439884e-003
9.439808e-003
9.439681e-003
9.439483e-003
9.439191e-003
9.438780e-003
9.438224e-003
9.437501e-003
9.436593e-003
9.435486e-003
9.434179e-003
9.432677e-003
9.430994e-003
9.429154e-003
9.427187e-003
9.425126e-003
9.423007e-003
9.420868e-003
9.418743e-003
9.416665e-003
9.414666e-003
9.412774e-003
9.411014e-003
9.409410e-003
9.407983e-003
9.406753e-003
9.405741e-003
9.404964e-003
9.404442e-003
9.404189e-003
9.404221e-003
9.404549e-003
9.405182e-003
9.406123e-003
9.407367e-003
9.408906e-003
9.410718e-003
9.412774e-003
9.415034e-003
9.417450e-003
9.419963e-003
9.422511e-003
9.425027e-003
9.427446e-003
9.429709e-003
9.431766e-003
9.433580e-003
9.435131e-003
9.436415e-003
9.437442e-003
9.438236e-003
9.438825e-003
9.439245e-003
9.439531e-003
9.439716e-003
9.439829e-003
9.439893e-003
9.439926e-003
9.439941e-003
9.439946e-003
9.439945e-003
9.439941e-003
9.439935e-003
9.439929e-003
9.439923e-003
9.439919e-003
9.439918e-003
9.439919e-003
9.439922e-003
9.439924e-003
9.439925e-003
9.439923e-003
9.439920e-003
9.439917e-003
9.439916e-003
9.439918e-003
9.439921e-003
9.439923e-003
9.439928e-003
9.439923e-003
9.439917e-003
9.439914e-003
9.439915e-003
9.439919e-003
9.439924e-003
9.439926e-003
9.439925e-003
9.439921e-003
9.439918e-003
9.439918e-003
9.439921e-003
9.439928e-003
9.439937e-003
9.439946e-003
9.439954e-003
9.439957e-003
9.439954e-003
9.439940e-003
9.439906e-003
9.439839e-003
9.439717e-003
9.439513e-003
9.439191e-003
9.438706e-003
9.438012e-003
9.437057e-003
9.435793e-003
9.434179e-003
9.432184e-003
9.429794e-003
9.427013e-003
9.423865e-003
9.420393e-003
9.416653e-003
9.412714e-003
9.408648e-003
9.404530e-003
9.400430e-003
9.396415e-003
9.392544e-003
9.388868e-003
9.385433e-003
9.382278e-003
9.379435e-003
9.376935e-003
9.374806e-003
9.373073e-003
9.371761e-003
9.370895e-003
9.370497e-003
9.370589e-003
9.371190e-003
9.372315e-003
9.373974e-003
9.376168e-003
9.378889e-003
9.382116e-003
9.385812e-003
9.389921e-003
9.394370e-003
9.399068e-003
9.403904e-003
9.408759e-003
9.413505e-003
9.418020e-003
9.422193e-003
9.425936e-003
9.429190e-003
9.431928e-003
9.434155e-003
9.435904e-003
9.437227e-003
9.438191e-003
9.438863e-003
9.439312e-003
9.439597e-003
9.439769e-003
9.439865e-003
9.439915e-003
9.439938e-003
9.439946e-003
9.439946e-003
9.439942e-003
9.439936e-003
9.439929e-003
9.439923e-003
9.439919e-003
9.439918e-003
9.439920e-003
9.439922e-003
9.439924e-003
9.439923e-003
9.439921e-003
9.439918e-003
9.439917e-003
9.439918e-003
9.439920e-003
9.439922e-003
9.439925e-003
9.439922e-003
9.439918e-003
9.439916e-003
9.439918e-003
9.439922e-003
9.439924e-003
9.439924e-003
9.439922e-003
9.439919e-003
9.439918e-003
9.439922e-003
9.439929e-003
9.439938e-003
9.439948e-003
9.439955e-003
9.439958e-003
9.439953e-003
9.439932e-003
9.439883e-003
9.439786e-003
9.439607e-003
9.439301e-003
9.438810e-003
9.438057e-003
9.436958e-003
9.435417e-003
9.433339e-003
9.430639e-003
9.427251e-003
9.423138e-003
9.418302e-003
9.412784e-003
9.406667e-003
9.400063e-003
9.393113e-003
9.385962e-003
9.378761e-003
9.371649e-003
9.364748e-003
9.358164e-003
9.351980e-003
9.346263e-003
9.341060e-003
9.336407e-003
9.332326e-003
9.328836e-003
9.325945e-003
9.323665e-003
9.322003e-003
9.320970e-003
9.320578e-003
9.320843e-003
9.321783e-003
9.323421e-003
9.325782e-003
9.328892e-003
9.332772e-003
9.337436e-003
9.342883e-003
9.349087e-003
9.355990e-003
9.363497e-003
9.371467e-003
9.379719e-003
9.388037e-003
9.396186e-003
9.403931e-003
9.411062e-003
9.417411e-003
9.422872e-003
9.427405e-003
9.431032e-003
9.433829e-003
9.435903e-003
9.437380e-003
9.438390e-003
9.439050e-003
9.439460e-003
9.439702e-003
9.439835e-003
9.439902e-003
9.439933e-003
9.439945e-003
9.439946e-003
9.439943e-003
9.439937e-003
9.439929e-003
9.439923e-003
9.439920e-003
9.439919e-003
9.439920e-003
9.439922e-003
9.439923e-003
9.439922e-003
9.439920e-003
9.439919e-003
9.439919e-003
9.439920e-003
9.439921e-003
9.439921e-003
9.439920e-003
9.439919e-003
9.439919e-003
9.439921e-003
9.439923e-003
9.439923e-003
9.439922e-003
9.439919e-003
9.439919e-003
9.439922e-003
9.439929e-003
9.439939e-003
9.439949e-003
9.439956e-003
9.439959e-003
9.439951e-003
9.439924e-003
9.439860e-003
9.439729e-003
9.439484e-003
9.439058e-003
9.438355e-003
9.437258e-003
9.435621e-003
9.433278e-003
9.430058e-003
9.425801e-003
9.420380e-003
9.413723e-003
9.405838e-003
9.396820e-003
9.386849e-003
9.376181e-003
9.365119e-003
9.353983e-003
9.343085e-003
9.332697e-003
9.323041e-003
9.314280e-003
9.306517e-003
9.299804e-003
9.294148e-003
9.289517e-003
9.285854e-003
9.283077e-003
9.281092e-003
9.279798e-003
9.279091e-003
9.278870e-003
9.279046e-003
9.279542e-003
9.280304e-003
9.281309e-003
9.282567e-003
9.284133e-003
9.286109e-003
9.288640e-003
9.291910e-003
9.296122e-003
9.301477e-003
9.308136e-003
9.316194e-003
9.325639e-003
9.336334e-003
9.348008e-003
9.360273e-003
9.372661e-003
9.384677e-003
9.395865e-003
9.405859e-003
9.414424e-003
9.421468e-003
9.427025e-003
9.431235e-003
9.434295e-003
9.436430e-003
9.437855e-003
9.438765e-003
9.439318e-003
9.439636e-003
9.439807e-003
9.439892e-003
9.439930e-003
9.439944e-003
9.439946e-003
9.439943e-003
9.439936e-003
9.439929e-003
9.439923e-003
9.439920e-003
9.439919e-003
9.439920e-003
9.439921e-003
9.439922e-003
9.439922e-003
9.439921e-003
9.439920e-003
9.439919e-003
9.439919e-003
9.439917e-003
9.439918e-003
9.439920e-003
9.439923e-003
9.439924e-003
9.439924e-003
9.439922e-003
9.439920e-003
9.439919e-003
9.439922e-003
9.439929e-003
9.439938e-003
9.439948e-003
9.439956e-003
9.439959e-003
9.439950e-003
9.439917e-003
9.439840e-003
9.439676e-003
9.439364e-003
9.438805e-003
9.437863e-003
9.436357e-003
9.434058e-003
9.430699e-003
9.425989e-003
9.419654e-003
9.411477e-003
9.401354e-003
9.389347e-003
9.375716e-003
9.360924e-003
9.345609e-003
9.330517e-003
9.316420e-003
9.304032e-003
9.293935e-003
9.286535e-003
9.282044e-003
9.280488e-003
9.281739e-003
9.285544e-003
9.291556e-003
9.299363e-003
9.308508e-003
9.318498e-003
9.328825e-003
9.338972e-003
9.348424e-003
9.356687e-003
9.363296e-003
9.367841e-003
9.369987e-003
9.369507e-003
9.366314e-003
9.360499e-003
9.352356e-003
9.342402e-003
9.331376e-003
9.320205e-003
9.309941e-003
9.301671e-003
9.296391e-003
9.294883e-003
9.297592e-003
9.304539e-003
9.315302e-003
9.329059e-003
9.344712e-003
9.361049e-003
9.376933e-003
9.391445e-003
9.403977e-003
9.414250e-003
9.422270e-003
9.428248e-003
9.432508e-003
9.435413e-003
9.437309e-003
9.438489e-003
9.439189e-003
9.439580e-003
9.439785e-003
9.439885e-003
9.439928e-003
9.439944e-003
9.439946e-003
9.439942e-003
9.439936e-003
9.439929e-003
9.439923e-003
9.439919e-003
9.439918e-003
9.439920e-003
9.439922e-003
9.439923e-003
9.439923e-003
9.439921e-003
9.439919e-003
9.439918e-003
9.439913e-003
9.439916e-003
9.439921e-003
9.439925e-003
9.439926e-003
9.439924e-003
9.439921e-003
9.439919e-003
9.439921e-003
9.439928e-003
9.439937e-003
9.439948e-003
9.439956e-003
9.439959e-003
9.439950e-003
9.439914e-003
9.439826e-003
9.439636e-003
9.439261e-003
9.438574e-003
9.437386e-003
9.435439e-003
9.432393e-003
9.427842e-003
9.421330e-003
9.412423e-003
9.400791e-003
9.386340e-003
9.369334e-003
9.350505e-003
9.331087e-003
9.312763e-003
9.297502e-003
9.287336e-003
9.284098e-003
9.289207e-003
9.303511e-003
9.327234e-003
9.360011e-003
9.400987e-003
9.448943e-003
9.502426e-003
9.559844e-003
9.619533e-003
9.679799e-003
9.738932e-003
9.795224e-003
9.846980e-003
9.892533e-003
9.930267e-003
9.958653e-003
9.976298e-003
9.982018e-003
9.974921e-003
9.954523e-003
9.920867e-003
9.874635e-003
9.817241e-003
9.750876e-003
9.678475e-003
9.603591e-003
9.530164e-003
9.462197e-003
9.403351e-003
9.356526e-003
9.323489e-003
9.304640e-003
9.298980e-003
9.304318e-003
9.317675e-003
9.335809e-003
9.355714e-003
9.375003e-003
9.392088e-003
9.406170e-003
9.417087e-003
9.425103e-003
9.430705e-003
9.434439e-003
9.436816e-003
9.438258e-003
9.439090e-003
9.439543e-003
9.439774e-003
9.439882e-003
9.439928e-003