# vtk DataFile Version 3.0
vtk output
ASCII
DATASET STRUCTURED_POINTS
DIMENSIONS 100 100 1
SPACING 1 1 1
ORIGIN 0 0 0
POINT_DATA 10000
SCALARS SFBox_profile double
LOOKUP_TABLE default 
0.000000e+000
0.000000e+000
0.000000e+000
0.000000e+000
0.000000e+000
0.000000e+000
0.000000e+000
0.000000e+000
0.000000e+000
0.000000e+000
0.000000e+000
0.000000e+000
0.000000e+000
0.000000e+000
0.000000e+000
0.000000e+000
0.000000e+000
0.000000e+000
0.000000e+000
0.000000e+000
0.000000e+000
0.000000e+000
0.000000e+000
0.000000e+000
0.000000e+000
0.000000e+000
0.000000e+000
0.000000e+000
0.000000e+000
0.000000e+000
0.000000e+000
0.000000e+000
0.000000e+000
0.000000e+000
0.000000e+000
0.000000e+000
0.000000e+000
0.000000e+000
0.000000e+000
0.000000e+000
0.000000e+000
0.000000e+000
0.000000e+000
0.000000e+000
0.000000e+000
0.000000e+000
0.000000e+000
0.000000e+000
0.000000e+000
0.000000e+000
0.000000e+000
0.000000e+000
0.000000e+000
0.000000e+000
0.000000e+000
0.000000e+000
0.000000e+000
0.000000e+000
0.000000e+000
0.000000e+000
0.000000e+000
0.000000e+000
0.000000e+000
0.000000e+000
0.000000e+000
0.000000e+000
0.000000e+000
0.000000e+000
0.000000e+000
0.000000e+000
0.000000e+000
0.000000e+000
0.000000e+000
0.000000e+000
0.000000e+000
0.000000e+000
0.000000e+000
0.000000e+000
0.000000e+000
0.000000e+000
0.000000e+000
0.000000e+000
0.000000e+000
0.000000e+000
0.000000e+000
0.000000e+000
0.000000e+000
0.000000e+000
0.000000e+000
0.000000e+000
0.000000e+000
0.000000e+000
0.000000e+000
0.000000e+000
0.000000e+000
0.000000e+000
0.000000e+000
0.000000e+000
0.000000e+000
0.000000e+000
-3.055031e-008
-1.981361e-008
-3.539199e-009
1.038023e-008
1.536987e-008
9.790397e-009
-1.981952e-009
-1.206793e-008
-1.399884e-008
-6.886483e-009
4.169106e-009
1.186446e-008
1.186951e-008
5.454220e-009
-2.269614e-009
-6.686453e-009
-6.818171e-009
-4.903045e-009
-3.417423e-009
-2.674925e-009
-1.155504e-009
2.184885e-009
6.249208e-009
8.523399e-009
7.384720e-009
3.616495e-009
-3.501208e-010
-2.624820e-009
-3.282701e-009
-3.737253e-009
-4.906752e-009
-6.165128e-009
-6.112869e-009
-4.224393e-009
-1.531930e-009
3.890965e-010
9.936439e-010
1.169415e-009
2.069170e-009
3.731540e-009
5.053555e-009
5.104056e-009
4.224684e-009
3.636767e-009
4.035943e-009
4.838478e-009
4.951729e-009
4.123277e-009
3.249501e-009
3.292612e-009
4.129786e-009
4.721547e-009
4.377289e-009
3.573535e-009
3.340313e-009
3.974862e-009
4.647528e-009
4.370925e-009
3.155295e-009
1.962636e-009
1.529847e-009
1.483980e-009
8.083085e-010
-8.991234e-010
-2.865354e-009
-3.936661e-009
-3.796679e-009
-3.203505e-009
-2.999477e-009
-3.066136e-009
-2.447230e-009
-5.180845e-010
2.114735e-009
4.011945e-009
4.203717e-009
3.023693e-009
1.622378e-009
7.305390e-010
2.525484e-011
-1.231940e-009
-3.015710e-009
-4.167756e-009
-3.364495e-009
-5.273628e-010
2.763193e-009
4.378164e-009
3.333723e-009
5.519944e-010
-1.959525e-009
-2.718722e-009
-1.749026e-009
-2.128792e-010
7.558120e-010
8.792680e-010
6.090720e-010
4.189981e-010
3.378136e-010
1.145575e-010
-3.226022e-010
-7.012602e-010
-2.871068e-009
-2.457245e-009
-1.425642e-009
1.489094e-010
1.584225e-009
1.961743e-009
9.730683e-010
-6.158786e-010
-1.495230e-009
-9.707735e-010
3.450147e-010
1.066646e-009
3.721348e-010
-1.135007e-009
-1.927961e-009
-9.977153e-010
1.138442e-009
2.842252e-009
2.796121e-009
1.119753e-009
-8.513942e-010
-1.835718e-009
-1.670580e-009
-1.205995e-009
-1.250828e-009
-1.694477e-009
-1.678455e-009
-5.899627e-010
1.186531e-009
2.558744e-009
2.765868e-009
2.083764e-009
1.456107e-009
1.454392e-009
1.697464e-009
1.359831e-009
1.851513e-010
-1.156120e-009
-1.785603e-009
-1.589712e-009
-1.314990e-009
-1.671330e-009
-2.498073e-009
-2.978747e-009
-2.641627e-009
-1.940652e-009
-1.717505e-009
-2.199741e-009
-2.749995e-009
-2.662803e-009
-2.029117e-009
-1.615055e-009
-1.914595e-009
-2.542168e-009
-2.701778e-009
-2.146671e-009
-1.455574e-009
-1.302683e-009
-1.625823e-009
-1.702834e-009
-1.029117e-009
7.142507e-011
8.245791e-010
8.988308e-010
7.439636e-010
9.949927e-010
1.671879e-009
2.120719e-009
1.751927e-009
7.134699e-010
-2.582161e-010
-6.137967e-010
-5.123897e-010
-5.353315e-010
-9.549813e-010
-1.389665e-009
-1.218869e-009
-2.959877e-010
8.125889e-010
1.320371e-009
9.440368e-010
1.363319e-010
-3.789993e-010
-2.845803e-010
1.037945e-010
2.405334e-010
-6.517413e-011
-4.781163e-010
-5.210192e-010
-8.938982e-011
4.351001e-010
5.718934e-010
2.183540e-010
-2.656071e-010
-4.304957e-010
-1.739272e-010
1.934253e-010
2.927282e-010
6.159263e-011
-2.102727e-010
2.870121e-008
1.774102e-008
1.794680e-009
-1.072728e-008
-1.387937e-008
-7.451606e-009
3.330215e-009
1.133648e-008
1.193368e-008
5.452720e-009
-3.646879e-009
-1.002591e-008
-1.074459e-008
-6.470545e-009
-2.272722e-010
4.951303e-009
7.612965e-009
7.871743e-009
6.389135e-009
3.595181e-009
-2.098074e-010
-4.315457e-009
-7.497060e-009
-8.634413e-009
-7.464503e-009
-4.697939e-009
-1.408315e-009
1.658137e-009
4.227967e-009
6.163560e-009
7.209818e-009
7.152502e-009
6.113581e-009
4.530195e-009
2.803414e-009
1.048814e-009
-7.605100e-010
-2.494995e-009
-3.850399e-009
-4.651452e-009
-5.062161e-009
-5.392696e-009
-5.730200e-009
-5.871843e-009
-5.652822e-009
-5.238278e-009
-4.983470e-009
-5.028701e-009
-5.150926e-009
-5.069859e-009
-4.818564e-009
-4.702733e-009
-4.902361e-009
-5.227173e-009
-5.333577e-009
-5.117795e-009
-4.785647e-009
-4.527852e-009
-4.232989e-009
-3.603948e-009
-2.516134e-009
-1.159941e-009
1.895450e-010
1.451758e-009
2.708257e-009
3.926697e-009
4.825267e-009
5.064787e-009
4.529039e-009
3.361158e-009
1.763799e-009
-1.275017e-010
-2.123398e-009
-3.814477e-009
-4.664841e-009
-4.350946e-009
-3.000094e-009
-1.074966e-009
9.414336e-010
2.695744e-009
3.840018e-009
3.924004e-009
2.619995e-009
1.737036e-010
-2.413162e-009
-3.828213e-009
-3.299672e-009
-1.182148e-009
1.239881e-009
2.610208e-009
2.363492e-009
9.671235e-010
-5.522999e-010
-1.353973e-009
-1.240005e-009
-5.874354e-010
6.066806e-011
3.799500e-010
3.854576e-010
2.944757e-010
3.630492e-008
2.340699e-008
4.139156e-009
-1.191553e-008
-1.730100e-008
-1.077976e-008
2.111024e-009
1.258177e-008
1.414607e-008
6.602945e-009
-4.297975e-009
-1.124142e-008
-1.050004e-008
-4.019062e-009
2.890760e-009
6.011128e-009
5.022058e-009
2.622773e-009
1.344364e-009
1.296788e-009
7.822546e-010
-1.299932e-009
-3.978425e-009
-5.146195e-009
-3.748402e-009
-8.415425e-010
1.500474e-009
2.146438e-009
1.683532e-009
1.403157e-009
1.804382e-009
2.233228e-009
1.843971e-009
6.376887e-010
-5.640228e-010
-1.035761e-009
-8.443649e-010
-6.161125e-010
-7.720929e-010
-1.130567e-009
-1.229324e-009
-8.926902e-010
-3.950392e-010
-1.190318e-010
-1.562988e-010
-2.741399e-010
-2.165870e-010
2.366220e-011
2.300660e-010
2.135154e-010
1.005598e-011
-1.687749e-010
-1.692589e-010
-6.746098e-011
-9.267255e-011
-3.678263e-010
-7.432673e-010
-9.308701e-010
-8.210656e-010
-6.235638e-010
-6.300350e-010
-8.371367e-010
-8.860970e-010
-4.497459e-010
3.491900e-010
1.008113e-009
1.179991e-009
1.061683e-009
1.131773e-009
1.496391e-009
1.633324e-009
9.272213e-010
-5.499692e-010
-1.934076e-009
-2.351667e-009
-1.770641e-009
-9.565771e-010
-5.577615e-010
-3.614568e-010
3.811295e-010
1.873695e-009
3.181020e-009
2.928201e-009
7.067079e-010
-2.248443e-009
-3.905483e-009
-3.103065e-009
-5.109316e-010
1.971936e-009
2.778488e-009
1.784526e-009
1.087544e-010
-1.007401e-009
-1.132867e-009
-6.741516e-010
-2.274386e-010
-1.945642e-011
9.286580e-011
2.600904e-010
4.179040e-010
1.166774e-008
8.721731e-009
3.617871e-009
-1.875069e-009
-5.365685e-009
-5.152931e-009
-1.687604e-009
2.323720e-009
3.789533e-009
1.789635e-009
-1.503339e-009
-2.676632e-009
-2.678466e-010
3.654614e-009
5.199847e-009
2.245820e-009
-3.432062e-009
-7.583904e-009
-7.174725e-009
-2.872102e-009
1.917866e-009
4.315768e-009
4.251219e-009
3.716346e-009
4.139803e-009
4.806748e-009
3.872296e-009
6.428015e-010
-3.444503e-009
-6.136907e-009
-6.460588e-009
-5.373452e-009
-4.456733e-009
-4.218591e-009
-3.812606e-009
-2.276869e-009
2.278962e-010
2.534280e-009
3.691492e-009
3.876057e-009
4.038600e-009
4.783335e-009
5.756584e-009
6.155276e-009
5.698850e-009
4.955268e-009
4.700651e-009
5.078345e-009
5.503403e-009
5.384103e-009
4.814725e-009
4.452660e-009
4.736224e-009
5.351440e-009
5.566827e-009
5.054339e-009
4.244977e-009
3.794109e-009
3.767541e-009
3.509523e-009
2.383418e-009
5.484140e-010
-1.146084e-009
-2.063103e-009
-2.442453e-009
-3.026810e-009
-4.051597e-009
-4.789865e-009
-4.257297e-009
-2.339980e-009
-5.610152e-011
1.405034e-009
1.827321e-009
2.006852e-009
2.633629e-009
3.308777e-009
2.887223e-009
8.466997e-010
-1.835070e-009
-3.362017e-009
-2.756319e-009
-7.786489e-010
8.248246e-010
9.737002e-010
1.318136e-010
-3.977508e-010
7.861953e-011
9.825714e-010
1.194821e-009
3.113667e-010
-9.169234e-010
-1.367088e-009
-6.763679e-010
4.426467e-010
9.631989e-010
5.456384e-010
-2.276842e-010
-5.431492e-010
-1.955319e-010
2.841838e-010
-2.580001e-008
-1.495214e-008
1.009097e-010
1.066696e-008
1.174686e-008
4.771633e-009
-4.305569e-009
-9.603069e-009
-8.899515e-009
-3.908682e-009
2.063633e-009
6.524947e-009
8.446645e-009
7.540522e-009
3.783301e-009
-2.047514e-009
-7.774619e-009
-1.052903e-008
-8.687715e-009
-3.306245e-009
2.537199e-009
6.083073e-009
6.779714e-009
6.020021e-009
5.219099e-009
4.346835e-009
2.374556e-009
-1.058655e-009
-4.741774e-009
-6.805007e-009
-6.460993e-009
-4.686879e-009
-3.142669e-009
-2.527188e-009
-2.113671e-009
-8.534370e-010
1.268769e-009
3.138265e-009
3.720649e-009
3.175926e-009
2.632190e-009
2.912602e-009
3.672150e-009
3.894760e-009
3.135359e-009
2.061523e-009
1.687929e-009
2.216979e-009
2.839848e-009
2.715110e-009
1.964177e-009
1.515382e-009
1.992025e-009
2.964384e-009
3.447488e-009
3.048438e-009
2.400252e-009
2.369296e-009
2.979961e-009
3.336923e-009
2.645245e-009
1.129933e-009
-2.262956e-010
-8.156351e-010
-1.070524e-009
-1.870278e-009
-3.375875e-009
-4.662415e-009
-4.610729e-009
-3.073226e-009
-1.011884e-009
5.247891e-010
1.411102e-009
2.308433e-009
3.582571e-009
4.565775e-009
4.076519e-009
1.694555e-009
-1.576620e-009
-3.996240e-009
-4.448501e-009
-3.157774e-009
-1.189423e-009
5.703957e-010
1.871013e-009
2.708585e-009
2.809968e-009
1.765735e-009
-2.941522e-010
-2.348147e-009
-3.061446e-009
-1.891377e-009
3.390945e-010
2.030308e-009
2.089472e-009
7.703903e-010
-6.605656e-010
-1.086321e-009
-4.613420e-010
3.008903e-010
-4.416239e-008
-2.761000e-008
-3.782943e-009
1.458997e-008
1.912002e-008
1.039716e-008
-3.400662e-009
-1.259725e-008
-1.231415e-008
-4.683558e-009
3.979044e-009
8.247395e-009
6.897175e-009
2.490712e-009
-1.512530e-009
-3.285714e-009
-3.048018e-009
-1.858663e-009
-4.632950e-010
8.345492e-010
1.711541e-009
1.712128e-009
7.005650e-010
-7.816724e-010
-1.847071e-009
-2.012683e-009
-1.539561e-009
-9.767732e-010
-4.599969e-010
3.847017e-010
1.804054e-009
3.334128e-009
4.056514e-009
3.504053e-009
2.195365e-009
1.120860e-009
6.991572e-010
3.870798e-010
-5.846440e-010
-2.196453e-009
-3.559808e-009
-3.904704e-009
-3.479175e-009
-3.269086e-009
-3.841693e-009
-4.687533e-009
-4.860973e-009
-4.155601e-009
-3.388821e-009
-3.439465e-009
-4.199243e-009
-4.709819e-009
-4.316522e-009
-3.435790e-009
-3.013716e-009
-3.351194e-009
-3.728556e-009
-3.270139e-009
-1.983784e-009
-7.265482e-010
-1.731129e-010
-5.523046e-011
4.288367e-010
1.566257e-009
2.715635e-009
3.001400e-009
2.271129e-009
1.208635e-009
5.354657e-010
2.801160e-010
-6.562160e-011
-7.744409e-010
-1.457077e-009
-1.470942e-009
-6.559865e-010
4.486739e-010
1.109401e-009
1.023181e-009
4.213772e-010
-3.158534e-010
-9.760726e-010
-1.422768e-009
-1.372396e-009
-5.186064e-010
9.998921e-010
2.357466e-009
2.502592e-009
1.061397e-009
-1.162289e-009
-2.674508e-009
-2.438477e-009
-6.980168e-010
1.240968e-009
2.061323e-009
1.408582e-009
2.181410e-011
-9.750576e-010
-9.606166e-010
-1.924082e-010
5.223592e-010
-2.588593e-008
-1.732180e-008
-4.491833e-009
6.292907e-009
1.021016e-008
6.724021e-009
-2.137038e-010
-5.000570e-009
-4.448594e-009
-1.465180e-011
3.680476e-009
2.919554e-009
-1.870450e-009
-6.499569e-009
-6.662802e-009
-1.623453e-009
5.251392e-009
9.381017e-009
8.551952e-009
4.109490e-009
-8.600103e-010
-4.237129e-009
-5.931843e-009
-6.792253e-009
-7.030403e-009
-5.967389e-009
-3.131330e-009
7.960886e-010
4.344328e-009
6.460414e-009
7.164114e-009
7.041290e-009
6.372036e-009
4.986866e-009
2.875282e-009
5.850815e-010
-1.199230e-009
-2.350744e-009
-3.318677e-009
-4.419101e-009
-5.338783e-009
-5.535997e-009
-5.025205e-009
-4.482807e-009
-4.475549e-009
-4.784693e-009
-4.721062e-009
-4.056104e-009
-3.374111e-009
-3.372790e-009
-3.992996e-009
-4.490713e-009
-4.362697e-009
-3.947770e-009
-3.949234e-009
-4.503871e-009
-4.981653e-009
-4.744021e-009
-3.875445e-009
-2.981159e-009
-2.363563e-009
-1.655330e-009
-3.507527e-010
1.482175e-009
3.210389e-009
4.300741e-009
4.761857e-009
4.849177e-009
4.519833e-009
3.423546e-009
1.456429e-009
-8.732022e-010
-2.783614e-009
-3.857479e-009
-4.188383e-009
-3.909104e-009
-2.817063e-009
-7.098977e-010
1.922228e-009
3.811824e-009
3.812282e-009
1.980602e-009
-3.270039e-010
-1.571806e-009
-1.314195e-009
-4.142320e-010
-1.362285e-011
-3.897713e-010
-8.283250e-010
-5.383222e-010
4.341787e-010
1.248616e-009
1.154147e-009
2.395497e-010
-7.036659e-010
-9.782116e-010
-5.686355e-010
1.948132e-011
3.605931e-010
4.414018e-010
1.600949e-008
8.678319e-009
-1.099450e-009
-7.359054e-009
-7.344270e-009
-2.769883e-009
2.473545e-009
5.566019e-009
6.027323e-009
4.569206e-009
1.579596e-009
-2.798407e-009
-7.355065e-009
-9.418027e-009
-6.633439e-009
4.723219e-010
7.957994e-009
1.110462e-008
8.146394e-009
1.638839e-009
-3.876821e-009
-5.678122e-009
-4.551253e-009
-3.065978e-009
-2.606418e-009
-2.320083e-009
-7.600358e-010
1.984176e-009
4.162329e-009
4.238692e-009
2.488531e-009
5.476137e-010
-3.803948e-010
-5.292441e-010
-8.230298e-010
-1.541123e-009
-2.053079e-009
-1.751752e-009
-8.441042e-010
-2.991052e-011
3.765577e-010
6.966999e-010
1.284800e-009
1.984948e-009
2.372519e-009
2.369487e-009
2.343543e-009
2.576924e-009
2.877552e-009
2.873600e-009
2.554435e-009
2.286219e-009
2.287750e-009
2.315101e-009
2.001443e-009
1.370198e-009
7.975416e-010
4.824646e-010
1.832539e-010
-3.947636e-010
-1.105609e-009
-1.480554e-009
-1.322525e-009
-9.473110e-010
-7.060250e-010
-4.442174e-010
2.948041e-010
1.515054e-009
2.484854e-009
2.425674e-009
1.393804e-009
2.240141e-010
-4.626990e-010
-9.560007e-010
-1.917538e-009
-3.216263e-009
-3.648026e-009
-2.098052e-009
1.046688e-009
3.882847e-009
4.559952e-009
2.874960e-009
2.894150e-010
-1.540772e-009
-2.117363e-009
-2.030770e-009
-1.832993e-009
-1.314945e-009
-9.971948e-012
1.794363e-009
2.890489e-009
2.210159e-009
2.969770e-011
-2.045173e-009
-2.448318e-009
-1.069138e-009
6.980179e-010
1.326457e-009
5.826402e-010
-3.967734e-010
4.749034e-008
2.897099e-008
3.174435e-009
-1.536380e-008
-1.855399e-008
-9.035383e-009
3.532825e-009
1.035334e-008
9.050404e-009
3.277304e-009
-1.878625e-009
-3.962400e-009
-3.606909e-009
-2.312294e-009
-6.823447e-010
1.200615e-009
2.536075e-009
1.921032e-009
-9.542045e-010
-4.161411e-009
-4.789853e-009
-1.696906e-009
3.147660e-009
6.352015e-009
6.183173e-009
3.837501e-009
1.701254e-009
7.062655e-010
-2.746888e-010
-2.553091e-009
-5.675877e-009
-7.709240e-009
-7.307878e-009
-5.081957e-009
-2.769785e-009
-1.358159e-009
-3.542712e-010
1.176344e-009
3.286515e-009
5.112581e-009
5.951011e-009
6.000701e-009
5.966600e-009
6.200220e-009
6.458009e-009
6.399642e-009
6.051562e-009
5.705573e-009
5.548699e-009
5.552368e-009
5.640026e-009
5.778052e-009
5.891003e-009
5.856871e-009
5.677006e-009
5.527533e-009
5.493207e-009
5.309409e-009
4.567377e-009
3.231025e-009
1.771844e-009
6.291528e-010
-3.582336e-010
-1.725992e-009
-3.530400e-009
-4.964091e-009
-5.082412e-009
-3.868944e-009
-2.307524e-009
-1.274677e-009
-5.736089e-010
6.483147e-010
2.548855e-009
4.001414e-009
3.640682e-009
1.440148e-009
-1.022876e-009
-2.013519e-009
-1.245858e-009
6.303568e-011
6.217111e-010
2.981637e-010
-1.242981e-010
-1.430714e-010
-1.241397e-010
-6.123559e-010
-1.336781e-009
-1.278364e-009
1.345515e-010
2.072352e-009
2.826576e-009
1.447870e-009
-1.156184e-009
-2.877975e-009
-2.291413e-009
2.554220e-011
2.006817e-009
1.981932e-009
1.698576e-010
-1.590054e-009
4.193494e-008
2.600042e-008
3.832794e-009
-1.195497e-008
-1.437989e-008
-6.114130e-009
3.726237e-009
7.134616e-009
2.982387e-009
-3.337041e-009
-5.442852e-009
-1.524474e-009
4.737654e-009
8.026139e-009
5.974230e-009
4.275243e-010
-4.974633e-009
-7.855957e-009
-7.949908e-009
-5.863871e-009
-2.006178e-009
3.009045e-009
7.546878e-009
9.461778e-009
7.834140e-009
3.961290e-009
2.391885e-010
-1.982628e-009
-3.230416e-009
-4.613656e-009
-6.092750e-009
-6.411501e-009
-4.693489e-009
-1.687039e-009
8.614834e-010
1.936820e-009
2.068106e-009
2.411343e-009
3.329672e-009
4.116635e-009
3.992354e-009
3.048251e-009
2.085375e-009
1.707231e-009
1.783716e-009
1.774225e-009
1.379576e-009
7.919571e-010
4.196016e-010
4.907366e-010
8.951738e-010
1.306805e-009
1.456151e-009
1.377148e-009
1.414828e-009
1.893338e-009
2.703519e-009
3.300317e-009
3.240572e-009
2.701275e-009
2.292277e-009
2.272006e-009
2.105210e-009
1.021420e-009
-9.853890e-010
-2.940033e-009
-3.823312e-009
-3.605176e-009
-3.115505e-009
-2.884730e-009
-2.395372e-009
-7.381941e-010
2.058587e-009
4.647979e-009
5.476565e-009
4.184620e-009
1.778719e-009
-4.728927e-010
-2.054413e-009
-3.070421e-009
-3.445298e-009
-2.714047e-009
-7.600421e-010
1.516064e-009
2.666586e-009
2.005070e-009
3.340171e-010
-7.965595e-010
-5.851372e-010
3.259657e-010
6.482654e-010
-1.492982e-010
-1.295186e-009
-1.531278e-009
-4.023227e-010
1.260448e-009
2.071640e-009
1.305633e-009
-4.884065e-010
-1.938212e-009
3.162978e-009
1.764650e-009
2.998959e-011
-5.648506e-010
6.899445e-010
2.754340e-009
3.215967e-009
3.356558e-010
-4.778661e-009
-8.242701e-009
-6.387954e-009
6.666451e-010
8.369090e-009
1.111975e-008
6.888063e-009
-1.145073e-009
-7.386689e-009
-8.353805e-009
-4.820568e-009
-1.593108e-010
2.864368e-009
3.680653e-009
3.079733e-009
1.725259e-009
-1.676222e-010
-2.150768e-009
-3.284850e-009
-2.877836e-009
-1.244701e-009
5.943230e-010
1.962171e-009
3.026304e-009
4.185348e-009
5.216318e-009
5.335087e-009
4.115841e-009
2.105828e-009
3.501605e-010
-6.227009e-010
-1.187497e-009
-2.006779e-009
-3.198101e-009
-4.222835e-009
-4.529431e-009
-4.163898e-009
-3.702908e-009
-3.658066e-009
-4.010298e-009
-4.310442e-009
-4.184793e-009
-3.725874e-009
-3.395907e-009
-3.539714e-009
-3.987337e-009
-4.174249e-009
-3.704339e-009
-2.776516e-009
-1.968558e-009
-1.561504e-009
-1.171417e-009
-1.807390e-010
1.468428e-009
3.058199e-009
3.775479e-009
3.532224e-009
2.956667e-009
2.569921e-009
2.166368e-009
1.174471e-009
-4.482055e-010
-1.915510e-009
-2.315411e-009
-1.496287e-009
-1.260173e-010
1.038840e-009
1.715772e-009
1.896719e-009
1.393153e-009
-3.432720e-011
-2.019456e-009
-3.379032e-009
-2.946414e-009
-7.424382e-010
1.828477e-009
3.114169e-009
2.578088e-009
1.035163e-009
-3.410945e-010
-1.058889e-009
-1.351850e-009
-1.456393e-009
-1.182217e-009
-2.951482e-010
8.919588e-010
1.597588e-009
1.320152e-009
3.738311e-010
-4.472008e-010
-6.892299e-010
-5.879556e-010
-3.767713e-008
-2.347960e-008
-3.872812e-009
1.026510e-008
1.350573e-008
8.159231e-009
4.931771e-010
-4.662626e-009
-6.173279e-009
-5.105179e-009
-2.525264e-009
8.222516e-010
3.577335e-009
3.886571e-009
1.185935e-009
-2.460095e-009
-3.627448e-009
-6.839187e-010
4.343301e-009
7.322515e-009
5.621945e-009
2.711826e-010
-5.244321e-009
-8.051282e-009
-7.750745e-009
-5.711108e-009
-3.182217e-009
-4.034213e-010
2.748556e-009
5.836413e-009
7.913772e-009
8.364387e-009
7.413268e-009
5.757179e-009
3.883240e-009
1.894470e-009
-1.134237e-010
-1.774929e-009
-2.698414e-009
-2.898485e-009
-2.814190e-009
-2.837590e-009
-2.905081e-009
-2.645041e-009
-1.908497e-009
-1.044683e-009
-5.773533e-010
-6.463121e-010
-8.696083e-010
-8.039625e-010
-4.780479e-010
-3.689883e-010
-8.328132e-010
-1.652048e-009
-2.247004e-009
-2.317450e-009
-2.153152e-009
-2.229849e-009
-2.567128e-009
-2.628605e-009
-1.899907e-009
-4.577324e-010
1.140695e-009
2.475904e-009
3.604505e-009
4.718362e-009
5.617729e-009
5.733246e-009
4.706507e-009
2.797492e-009
6.143573e-010
-1.438278e-009
-3.237179e-009
-4.489084e-009
-4.525163e-009
-2.888067e-009
-1.494786e-010
2.153958e-009
2.702342e-009
1.564094e-009
7.176433e-011
-5.113024e-010
-1.045231e-010
4.356355e-010
4.714273e-010
2.132772e-010
1.617075e-010
2.370574e-010
-1.580184e-010
-1.162283e-009
-1.887293e-009
-1.215141e-009
7.779832e-010
2.495380e-009
2.250246e-009
8.270393e-011
-2.057829e-009
-2.158142e-009
-1.882607e-010
1.819814e-009
-4.901438e-008
-2.910395e-008
-2.681346e-009
1.410807e-008
1.441925e-008
4.156127e-009
-5.038188e-009
-6.009397e-009
-5.463322e-010
4.521170e-009
4.449899e-009
4.650434e-011
-4.580493e-009
-6.345568e-009
-5.053826e-009
-2.025361e-009
1.771454e-009
5.728301e-009
8.475536e-009
7.970473e-009
3.389882e-009
-3.278783e-009
-8.188945e-009
-8.628945e-009
-5.153261e-009
-7.336996e-010
2.071166e-009
2.994126e-009
3.348536e-009
3.975869e-009
4.298167e-009
3.318567e-009
1.103929e-009
-1.074020e-009
-2.001141e-009
-1.624554e-009
-7.958605e-010
-1.518698e-010
4.619525e-010
1.473087e-009
2.807512e-009
3.891456e-009
4.353545e-009
4.451843e-009
4.678539e-009
5.104491e-009
5.338151e-009
5.120785e-009
4.730296e-009
4.642986e-009
4.911096e-009
5.096052e-009
4.848300e-009
4.355182e-009
4.055973e-009
4.010054e-009
3.775497e-009
2.974260e-009
1.796972e-009
7.779003e-010
1.518373e-010
-3.322150e-010
-8.940827e-010
-1.238737e-009
-8.332223e-010
3.614323e-010
1.686340e-009
2.449155e-009
2.629414e-009
2.678150e-009
2.647604e-009
1.863494e-009
-2.401299e-010
-3.037381e-009
-4.819507e-009
-4.247497e-009
-1.660537e-009
1.214226e-009
2.845393e-009
3.045251e-009
2.557481e-009
1.837726e-009
6.400754e-010
-1.150309e-009
-2.697754e-009
-2.730145e-009
-9.949329e-010
1.110066e-009
1.740301e-009
5.157231e-010
-9.958770e-010
-9.241740e-010
8.090887e-010
2.264565e-009
1.514931e-009
-1.157905e-009
-3.294822e-009
-2.642125e-009
4.926757e-010
3.364208e-009
-2.525443e-008
-1.229757e-008
3.425813e-009
1.030264e-008
5.015313e-009
-5.312332e-009
-1.009570e-008
-4.780183e-009
5.674855e-009
1.195293e-008
8.889569e-009
-5.071746e-010
-8.554347e-009
-9.843826e-009
-5.055036e-009
1.060471e-009
4.453306e-009
4.435412e-009
2.581832e-009
3.125242e-010
-1.870821e-009
-3.377064e-009
-2.967521e-009
7.615349e-011
4.473737e-009
7.383774e-009
6.781159e-009
3.312165e-009
-4.583585e-010
-2.591891e-009
-3.311064e-009
-3.998804e-009
-5.104394e-009
-5.518934e-009
-4.035761e-009
-9.772750e-010
2.002675e-009
3.617889e-009
4.068995e-009
4.373390e-009
4.934915e-009
5.155267e-009
4.394213e-009
2.888575e-009
1.469258e-009
5.799564e-010
-6.697036e-011
-8.482786e-010
-1.588617e-009
-1.793637e-009
-1.347333e-009
-6.501416e-010
-3.300166e-011
6.685082e-010
1.752422e-009
3.039861e-009
3.939036e-009
4.139727e-009
3.951271e-009
3.760836e-009
3.358368e-009
2.148481e-009
7.056463e-011
-2.017518e-009
-3.131934e-009
-3.199338e-009
-2.978281e-009
-2.911593e-009
-2.415996e-009
-6.518163e-010
2.096453e-009
4.224139e-009
4.247172e-009
2.313438e-009
4.603578e-011
-1.086127e-009
-9.944013e-010
-5.252606e-010
-1.538784e-010
4.340129e-010
1.435301e-009
2.086583e-009
1.249527e-009
-1.088778e-009
-3.278375e-009
-3.369569e-009
-1.089541e-009
1.728163e-009
2.840504e-009
1.702241e-009
-1.778964e-010
-9.196154e-010
-1.645023e-010
7.567514e-010
4.256051e-010
-1.065549e-009
-2.177409e-009
-1.531245e-009
6.134289e-010
2.501045e-009
1.110564e-008
1.058276e-008
7.978477e-009
2.209161e-009
-5.204016e-009
-1.021847e-008
-9.126303e-009
-2.045621e-009
6.287108e-009
9.821736e-009
6.179500e-009
-1.175973e-009
-5.899051e-009
-4.375690e-009
1.206676e-009
5.187026e-009
3.776711e-009
-1.759348e-009
-6.812161e-009
-7.786860e-009
-4.663813e-009
1.355500e-010
4.448827e-009
7.512883e-009
9.036112e-009
8.308696e-009
4.918219e-009
2.261697e-011
-3.922368e-009
-5.150547e-009
-4.096013e-009
-2.610293e-009
-1.808955e-009
-1.119936e-009
4.395781e-010
2.514214e-009
3.457162e-009
2.098669e-009
-9.992608e-010
-4.311982e-009
-7.086539e-009
-9.891311e-009
-1.348569e-008
-1.762823e-008
-2.131458e-008
-2.394681e-008
-2.581818e-008
-2.740194e-008
-2.856907e-008
-2.879838e-008
-2.794619e-008
-2.640855e-008
-2.449741e-008
-2.202883e-008
-1.876386e-008
-1.502079e-008
-1.147711e-008
-8.381154e-009
-5.344679e-009
-2.125040e-009
6.649680e-010
2.029936e-009
1.771101e-009
8.174439e-010
1.703183e-010
-2.197614e-010
-1.140718e-009
-2.719468e-009
-3.783437e-009
-2.951324e-009
-2.233918e-010
2.853405e-009
4.650340e-009
4.810707e-009
4.024399e-009
2.808863e-009
1.028823e-009
-1.292481e-009
-3.183328e-009
-3.318669e-009
-1.507453e-009
7.669543e-010
1.626238e-009
6.156310e-010
-9.259274e-010
-1.323672e-009
-2.295113e-010
1.227708e-009
1.746462e-009
1.066746e-009
-6.746206e-011
-8.327478e-010
-9.817255e-010
-7.157995e-010
-2.641124e-010
2.269005e-010
5.508781e-010
4.810631e-010
4.770742e-011
-3.677141e-010
3.210552e-008
2.045399e-008
4.666531e-009
-6.306634e-009
-8.592126e-009
-4.807632e-009
-2.226700e-010
1.813521e-009
1.214797e-009
-4.924552e-010
-1.913353e-009
-2.044658e-009
-1.373339e-010
3.517051e-009
6.724916e-009
6.405667e-009
1.433408e-009
-5.507043e-009
-9.563769e-009
-7.782364e-009
-1.658229e-009
4.373172e-009
6.844123e-009
5.611194e-009
2.800017e-009
2.525833e-010
-1.547662e-009
-2.549167e-009
-2.205879e-009
-5.860494e-011
3.125855e-009
5.532144e-009
5.854177e-009
4.320727e-009
1.886106e-009
-1.316869e-009
-6.209718e-009
-1.341155e-008
-2.213865e-008
-3.084706e-008
-3.878788e-008
-4.648146e-008
-5.459891e-008
-6.280403e-008
-7.002018e-008
-7.560870e-008
-7.982602e-008
-8.307338e-008
-8.512253e-008
-8.538700e-008
-8.373182e-008
-8.060189e-008
-7.634538e-008
-7.081435e-008
-6.386239e-008
-5.595681e-008
-4.790018e-008
-3.998695e-008
-3.184777e-008
-2.332030e-008
-1.516607e-008
-8.540106e-009
-3.813276e-009
-3.185226e-010
2.587138e-009
4.547601e-009
4.671388e-009
2.891337e-009
4.576156e-010
-1.104612e-009
-1.289201e-009
-6.384354e-010
2.841193e-010
1.455148e-009
2.796363e-009
3.489686e-009
2.487288e-009
-1.701792e-010
-2.917046e-009
-3.901294e-009
-2.657991e-009
-3.941343e-010
1.323226e-009
1.904018e-009
1.739233e-009
1.276969e-009
5.557134e-010
-3.527367e-010
-9.368296e-010
-7.189924e-010
-3.373552e-011
1.423274e-010
-6.065938e-010
-1.367567e-009
-7.849711e-010
1.192040e-009
2.815860e-009
2.195533e-009
-5.434271e-010
-3.072479e-009
2.868913e-008
1.311568e-008
-5.200238e-009
-1.233883e-008
-5.390939e-009
6.330307e-009
1.110036e-008
5.361139e-009
-4.660358e-009
-1.023851e-008
-8.033253e-009
-1.402521e-009
4.264655e-009
6.228581e-009
4.997894e-009
2.149756e-009
-1.073728e-009
-3.372792e-009
-3.177484e-009
1.809398e-012
4.192857e-009
5.931120e-009
3.289823e-009
-2.125017e-009
-6.500321e-009
-7.127259e-009
-4.284068e-009
-1.395437e-010
3.519315e-009
6.118282e-009
7.369688e-009
6.437699e-009
2.440117e-009
-4.605029e-009
-1.388188e-008
-2.482696e-008
-3.764919e-008
-5.262979e-008
-6.926452e-008
-8.650658e-008
-1.037638e-007
-1.212162e-007
-1.389872e-007
-1.563226e-007
-1.719135e-007
-1.848983e-007
-1.951871e-007
-2.027772e-007
-2.071444e-007
-2.075981e-007
-2.040394e-007
-1.970086e-007
-1.870024e-007
-1.741196e-007
-1.585632e-007
-1.411933e-007
-1.232061e-007
-1.052985e-007
-8.749479e-008
-6.989984e-008
-5.330013e-008
-3.870950e-008
-2.645302e-008
-1.607568e-008
-7.236260e-009
-3.685346e-010
3.798571e-009
5.207099e-009
4.641914e-009
2.986045e-009
6.995487e-010
-1.774922e-009
-3.463970e-009
-3.302523e-009
-1.288187e-009
1.149791e-009
2.303618e-009
1.708122e-009
3.410387e-010
-6.035517e-010
-8.055600e-010
-5.962517e-010
-8.585062e-011
9.221287e-010
2.113378e-009
2.357005e-009
8.111638e-010
-1.710548e-009
-3.065978e-009
-1.919446e-009
6.112978e-010
1.928100e-009
7.569497e-010
-1.338423e-009
-1.637399e-009
5.843670e-010
3.016877e-009
2.745897e-009
-4.377035e-010
-3.576768e-009
1.373718e-008
6.340309e-010
-1.279642e-008
-1.357472e-008
-1.053231e-009
1.289336e-008
1.568607e-008
5.752122e-009
-7.084657e-009
-1.184177e-008
-6.369081e-009
2.260112e-009
5.841071e-009
2.573719e-009
-2.852932e-009
-5.032597e-009
-2.652602e-009
1.795164e-009
5.403228e-009
6.950088e-009
6.314901e-009
3.423664e-009
-1.281297e-009
-5.827873e-009