# vtk DataFile Version 3.0
vtk output
ASCII
DATASET STRUCTURED_POINTS
DIMENSIONS 100 100 1
SPACING 1 1 1
ORIGIN 0 0 0
POINT_DATA 10000
SCALARS SFBox_profile double
LOOKUP_TABLE default 
9.439921e-004
9.439921e-004
9.439921e-004
9.439920e-004
9.439920e-004
9.439920e-004
9.439919e-004
9.439919e-004
9.439919e-004
9.439919e-004
9.439920e-004
9.439920e-004
9.439921e-004
9.439921e-004
9.439921e-004
9.439921e-004
9.439921e-004
9.439921e-004
9.439920e-004
9.439920e-004
9.439920e-004
9.439920e-004
9.439920e-004
9.439920e-004
9.439920e-004
9.439920e-004
9.439919e-004
9.439919e-004
9.439918e-004
9.439918e-004
9.439917e-004
9.439917e-004
9.439916e-004
9.439916e-004
9.439916e-004
9.439917e-004
9.439917e-004
9.439918e-004
9.439919e-004
9.439921e-004
9.439923e-004
9.439925e-004
9.439928e-004
9.439930e-004
9.439932e-004
9.439935e-004
9.439937e-004
9.439938e-004
9.439939e-004
9.439940e-004
9.439940e-004
9.439940e-004
9.439939e-004
9.439938e-004
9.439937e-004
9.439935e-004
9.439933e-004
9.439931e-004
9.439929e-004
9.439926e-004
9.439925e-004
9.439923e-004
9.439921e-004
9.439920e-004
9.439919e-004
9.439918e-004
9.439917e-004
9.439916e-004
9.439916e-004
9.439916e-004
9.439916e-004
9.439916e-004
9.439916e-004
9.439916e-004
9.439916e-004
9.439916e-004
9.439916e-004
9.439915e-004
9.439915e-004
9.439915e-004
9.439916e-004
9.439917e-004
9.439919e-004
9.439921e-004
9.439924e-004
9.439926e-004
9.439927e-004
9.439927e-004
9.439926e-004
9.439924e-004
9.439921e-004
9.439918e-004
9.439916e-004
9.439915e-004
9.439915e-004
9.439916e-004
9.439918e-004
9.439921e-004
9.439923e-004
9.439924e-004
9.439921e-004
9.439921e-004
9.439921e-004
9.439920e-004
9.439920e-004
9.439920e-004
9.439919e-004
9.439919e-004
9.439919e-004
9.439919e-004
9.439920e-004
9.439920e-004
9.439921e-004
9.439921e-004
9.439921e-004
9.439921e-004
9.439921e-004
9.439921e-004
9.439920e-004
9.439920e-004
9.439920e-004
9.439920e-004
9.439920e-004
9.439920e-004
9.439920e-004
9.439920e-004
9.439919e-004
9.439919e-004
9.439918e-004
9.439918e-004
9.439917e-004
9.439917e-004
9.439916e-004
9.439916e-004
9.439916e-004
9.439917e-004
9.439917e-004
9.439918e-004
9.439919e-004
9.439921e-004
9.439923e-004
9.439925e-004
9.439928e-004
9.439930e-004
9.439932e-004
9.439935e-004
9.439937e-004
9.439938e-004
9.439939e-004
9.439940e-004
9.439940e-004
9.439940e-004
9.439939e-004
9.439938e-004
9.439937e-004
9.439935e-004
9.439933e-004
9.439931e-004
9.439929e-004
9.439926e-004
9.439925e-004
9.439923e-004
9.439921e-004
9.439920e-004
9.439919e-004
9.439918e-004
9.439917e-004
9.439916e-004
9.439916e-004
9.439916e-004
9.439916e-004
9.439916e-004
9.439916e-004
9.439916e-004
9.439916e-004
9.439916e-004
9.439916e-004
9.439915e-004
9.439915e-004
9.439915e-004
9.439916e-004
9.439917e-004
9.439919e-004
9.439921e-004
9.439924e-004
9.439926e-004
9.439927e-004
9.439927e-004
9.439926e-004
9.439924e-004
9.439921e-004
9.439918e-004
9.439916e-004
9.439915e-004
9.439915e-004
9.439916e-004
9.439918e-004
9.439921e-004
9.439923e-004
9.439924e-004
9.439921e-004
9.439920e-004
9.439920e-004
9.439920e-004
9.439920e-004
9.439920e-004
9.439919e-004
9.439919e-004
9.439919e-004
9.439920e-004
9.439920e-004
9.439920e-004
9.439921e-004
9.439921e-004
9.439921e-004
9.439920e-004
9.439920e-004
9.439920e-004
9.439920e-004
9.439920e-004
9.439920e-004
9.439920e-004
9.439920e-004
9.439920e-004
9.439920e-004
9.439920e-004
9.439920e-004
9.439920e-004
9.439919e-004
9.439919e-004
9.439919e-004
9.439919e-004
9.439919e-004
9.439919e-004
9.439919e-004
9.439920e-004
9.439920e-004
9.439921e-004
9.439921e-004
9.439922e-004
9.439923e-004
9.439924e-004
9.439925e-004
9.439926e-004
9.439927e-004
9.439928e-004
9.439929e-004
9.439929e-004
9.439930e-004
9.439930e-004
9.439929e-004
9.439929e-004
9.439929e-004
9.439928e-004
9.439928e-004
9.439927e-004
9.439926e-004
9.439925e-004
9.439924e-004
9.439923e-004
9.439922e-004
9.439922e-004
9.439921e-004
9.439921e-004
9.439920e-004
9.439920e-004
9.439920e-004
9.439919e-004
9.439919e-004
9.439919e-004
9.439919e-004
9.439919e-004
9.439919e-004
9.439919e-004
9.439919e-004
9.439919e-004
9.439919e-004
9.439919e-004
9.439918e-004
9.439918e-004
9.439918e-004
9.439918e-004
9.439918e-004
9.439919e-004
9.439920e-004
9.439922e-004
9.439923e-004
9.439924e-004
9.439924e-004
9.439924e-004
9.439922e-004
9.439920e-004
9.439918e-004
9.439917e-004
9.439917e-004
9.439917e-004
9.439918e-004
9.439920e-004
9.439922e-004
9.439923e-004
9.439921e-004
9.439920e-004
9.439920e-004
9.439920e-004
9.439920e-004
9.439920e-004
9.439920e-004
9.439920e-004
9.439920e-004
9.439920e-004
9.439921e-004
9.439921e-004
9.439920e-004
9.439920e-004
9.439920e-004
9.439919e-004
9.439919e-004
9.439919e-004
9.439919e-004
9.439919e-004
9.439920e-004
9.439920e-004
9.439920e-004
9.439920e-004
9.439920e-004
9.439920e-004
9.439921e-004
9.439921e-004
9.439921e-004
9.439922e-004
9.439922e-004
9.439923e-004
9.439923e-004
9.439923e-004
9.439924e-004
9.439924e-004
9.439924e-004
9.439924e-004
9.439923e-004
9.439923e-004
9.439922e-004
9.439921e-004
9.439920e-004
9.439919e-004
9.439918e-004
9.439916e-004
9.439915e-004
9.439914e-004
9.439913e-004
9.439912e-004
9.439911e-004
9.439911e-004
9.439911e-004
9.439912e-004
9.439913e-004
9.439914e-004
9.439915e-004
9.439916e-004
9.439917e-004
9.439918e-004
9.439919e-004
9.439920e-004
9.439921e-004
9.439921e-004
9.439922e-004
9.439922e-004
9.439923e-004
9.439923e-004
9.439923e-004
9.439924e-004
9.439924e-004
9.439924e-004
9.439924e-004
9.439924e-004
9.439924e-004
9.439924e-004
9.439924e-004
9.439924e-004
9.439923e-004
9.439922e-004
9.439921e-004
9.439919e-004
9.439918e-004
9.439916e-004
9.439915e-004
9.439916e-004
9.439917e-004
9.439918e-004
9.439920e-004
9.439922e-004
9.439923e-004
9.439923e-004
9.439922e-004
9.439921e-004
9.439920e-004
9.439919e-004
9.439919e-004
9.439919e-004
9.439920e-004
9.439920e-004
9.439920e-004
9.439920e-004
9.439920e-004
9.439920e-004
9.439920e-004
9.439920e-004
9.439920e-004
9.439921e-004
9.439921e-004
9.439921e-004
9.439921e-004
9.439920e-004
9.439920e-004
9.439919e-004
9.439918e-004
9.439918e-004
9.439918e-004
9.439919e-004
9.439919e-004
9.439920e-004
9.439920e-004
9.439920e-004
9.439921e-004
9.439921e-004
9.439921e-004
9.439921e-004
9.439921e-004
9.439922e-004
9.439923e-004
9.439923e-004
9.439924e-004
9.439925e-004
9.439926e-004
9.439926e-004
9.439926e-004
9.439926e-004
9.439925e-004
9.439924e-004
9.439922e-004
9.439920e-004
9.439918e-004
9.439915e-004
9.439911e-004
9.439908e-004
9.439904e-004
9.439901e-004
9.439898e-004
9.439895e-004
9.439893e-004
9.439892e-004
9.439892e-004
9.439892e-004
9.439893e-004
9.439895e-004
9.439898e-004
9.439901e-004
9.439904e-004
9.439907e-004
9.439910e-004
9.439913e-004
9.439916e-004
9.439918e-004
9.439920e-004
9.439921e-004
9.439922e-004
9.439923e-004
9.439924e-004
9.439925e-004
9.439925e-004
9.439926e-004
9.439926e-004
9.439926e-004
9.439925e-004
9.439925e-004
9.439925e-004
9.439926e-004
9.439926e-004
9.439927e-004
9.439927e-004
9.439926e-004
9.439925e-004
9.439923e-004
9.439920e-004
9.439917e-004
9.439914e-004
9.439912e-004
9.439912e-004
9.439913e-004
9.439916e-004
9.439919e-004
9.439922e-004
9.439924e-004
9.439925e-004
9.439925e-004
9.439923e-004
9.439921e-004
9.439920e-004
9.439918e-004
9.439918e-004
9.439917e-004
9.439920e-004
9.439920e-004
9.439920e-004
9.439920e-004
9.439920e-004
9.439920e-004
9.439921e-004
9.439921e-004
9.439921e-004
9.439921e-004
9.439921e-004
9.439920e-004
9.439919e-004
9.439918e-004
9.439918e-004
9.439918e-004
9.439918e-004
9.439919e-004
9.439920e-004
9.439921e-004
9.439921e-004
9.439921e-004
9.439921e-004
9.439921e-004
9.439921e-004
9.439921e-004
9.439922e-004
9.439922e-004
9.439923e-004
9.439924e-004
9.439924e-004
9.439925e-004
9.439925e-004
9.439925e-004
9.439924e-004
9.439923e-004
9.439921e-004
9.439918e-004
9.439916e-004
9.439912e-004
9.439908e-004
9.439904e-004
9.439899e-004
9.439895e-004
9.439890e-004
9.439886e-004
9.439883e-004
9.439880e-004
9.439878e-004
9.439877e-004
9.439877e-004
9.439878e-004
9.439880e-004
9.439883e-004
9.439887e-004
9.439891e-004
9.439895e-004
9.439900e-004
9.439904e-004
9.439908e-004
9.439912e-004
9.439915e-004
9.439917e-004
9.439919e-004
9.439920e-004
9.439921e-004
9.439922e-004
9.439923e-004
9.439923e-004
9.439924e-004
9.439924e-004
9.439924e-004
9.439924e-004
9.439923e-004
9.439923e-004
9.439924e-004
9.439924e-004
9.439925e-004
9.439926e-004
9.439927e-004
9.439928e-004
9.439927e-004
9.439925e-004
9.439921e-004
9.439917e-004
9.439914e-004
9.439911e-004
9.439910e-004
9.439912e-004
9.439915e-004
9.439919e-004
9.439923e-004
9.439926e-004
9.439927e-004
9.439926e-004
9.439924e-004
9.439921e-004
9.439919e-004
9.439916e-004
9.439915e-004
9.439920e-004
9.439920e-004
9.439920e-004
9.439920e-004
9.439920e-004
9.439920e-004
9.439921e-004
9.439921e-004
9.439921e-004
9.439921e-004
9.439920e-004
9.439919e-004
9.439918e-004
9.439918e-004
9.439918e-004
9.439919e-004
9.439920e-004
9.439921e-004
9.439922e-004
9.439922e-004
9.439922e-004
9.439922e-004
9.439921e-004
9.439921e-004
9.439921e-004
9.439921e-004
9.439921e-004
9.439922e-004
9.439922e-004
9.439922e-004
9.439922e-004
9.439921e-004
9.439920e-004
9.439918e-004
9.439916e-004
9.439914e-004
9.439911e-004
9.439908e-004
9.439904e-004
9.439900e-004
9.439896e-004
9.439892e-004
9.439888e-004
9.439885e-004
9.439881e-004
9.439879e-004
9.439876e-004
9.439875e-004
9.439874e-004
9.439874e-004
9.439875e-004
9.439877e-004
9.439879e-004
9.439881e-004
9.439885e-004
9.439888e-004
9.439892e-004
9.439896e-004
9.439900e-004
9.439904e-004
9.439907e-004
9.439910e-004
9.439912e-004
9.439914e-004
9.439916e-004
9.439917e-004
9.439917e-004
9.439918e-004
9.439918e-004
9.439919e-004
9.439919e-004
9.439919e-004
9.439919e-004
9.439919e-004
9.439919e-004
9.439919e-004
9.439919e-004
9.439920e-004
9.439922e-004
9.439924e-004
9.439926e-004
9.439928e-004
9.439929e-004
9.439928e-004
9.439925e-004
9.439921e-004
9.439916e-004
9.439913e-004
9.439911e-004
9.439911e-004
9.439914e-004
9.439918e-004
9.439923e-004
9.439926e-004
9.439928e-004
9.439927e-004
9.439924e-004
9.439920e-004
9.439916e-004
9.439914e-004
9.439919e-004
9.439919e-004
9.439920e-004
9.439920e-004
9.439920e-004
9.439921e-004
9.439921e-004
9.439921e-004
9.439920e-004
9.439920e-004
9.439919e-004
9.439918e-004
9.439918e-004
9.439919e-004
9.439919e-004
9.439921e-004
9.439922e-004
9.439922e-004
9.439923e-004
9.439923e-004
9.439922e-004
9.439921e-004
9.439921e-004
9.439920e-004
9.439920e-004
9.439920e-004
9.439920e-004
9.439919e-004
9.439919e-004
9.439918e-004
9.439916e-004
9.439914e-004
9.439911e-004
9.439908e-004
9.439905e-004
9.439902e-004
9.439899e-004
9.439896e-004
9.439893e-004
9.439891e-004
9.439889e-004
9.439888e-004
9.439887e-004
9.439887e-004
9.439887e-004
9.439888e-004
9.439890e-004
9.439891e-004
9.439893e-004
9.439894e-004
9.439896e-004
9.439896e-004
9.439897e-004
9.439897e-004
9.439897e-004
9.439897e-004
9.439897e-004
9.439898e-004
9.439899e-004
9.439900e-004
9.439902e-004
9.439904e-004
9.439906e-004
9.439908e-004
9.439909e-004
9.439910e-004
9.439911e-004
9.439911e-004
9.439912e-004
9.439913e-004
9.439913e-004
9.439914e-004
9.439915e-004
9.439915e-004
9.439915e-004
9.439914e-004
9.439914e-004
9.439914e-004
9.439914e-004
9.439917e-004
9.439920e-004
9.439924e-004
9.439928e-004
9.439931e-004
9.439932e-004
9.439930e-004
9.439925e-004
9.439920e-004
9.439914e-004
9.439911e-004
9.439911e-004
9.439913e-004
9.439918e-004
9.439923e-004
9.439926e-004
9.439927e-004
9.439925e-004
9.439921e-004
9.439917e-004
9.439915e-004
9.439919e-004
9.439919e-004
9.439920e-004
9.439920e-004
9.439921e-004
9.439921e-004
9.439921e-004
9.439920e-004
9.439919e-004
9.439919e-004
9.439918e-004
9.439918e-004
9.439919e-004
9.439920e-004
9.439921e-004
9.439923e-004
9.439923e-004
9.439923e-004
9.439923e-004
9.439922e-004
9.439921e-004
9.439920e-004
9.439919e-004
9.439919e-004
9.439918e-004
9.439918e-004
9.439918e-004
9.439916e-004
9.439915e-004
9.439912e-004
9.439910e-004
9.439906e-004
9.439903e-004
9.439899e-004
9.439896e-004
9.439894e-004
9.439892e-004
9.439891e-004
9.439892e-004
9.439893e-004
9.439895e-004
9.439899e-004
9.439903e-004
9.439909e-004
9.439914e-004
9.439920e-004
9.439926e-004
9.439931e-004
9.439935e-004
9.439938e-004
9.439939e-004
9.439937e-004
9.439934e-004
9.439930e-004
9.439924e-004
9.439919e-004
9.439913e-004
9.439907e-004
9.439903e-004
9.439901e-004
9.439899e-004
9.439899e-004
9.439899e-004
9.439900e-004
9.439901e-004
9.439903e-004
9.439904e-004
9.439905e-004
9.439906e-004
9.439907e-004
9.439908e-004
9.439909e-004
9.439911e-004
9.439912e-004
9.439913e-004
9.439913e-004
9.439912e-004
9.439910e-004
9.439909e-004
9.439909e-004
9.439911e-004
9.439915e-004
9.439921e-004
9.439927e-004
9.439932e-004
9.439935e-004
9.439933e-004
9.439929e-004
9.439922e-004
9.439916e-004
9.439911e-004
9.439910e-004
9.439913e-004
9.439917e-004
9.439922e-004
9.439925e-004
9.439925e-004
9.439923e-004
9.439920e-004
9.439918e-004
9.439918e-004
9.439919e-004
9.439920e-004
9.439920e-004
9.439921e-004
9.439921e-004
9.439920e-004
9.439919e-004
9.439918e-004
9.439918e-004
9.439918e-004
9.439919e-004
9.439920e-004
9.439922e-004
9.439923e-004
9.439924e-004
9.439924e-004
9.439923e-004
9.439922e-004
9.439920e-004
9.439919e-004
9.439918e-004
9.439917e-004
9.439917e-004
9.439917e-004
9.439916e-004
9.439915e-004
9.439913e-004
9.439911e-004
9.439908e-004
9.439904e-004
9.439901e-004
9.439898e-004
9.439896e-004
9.439894e-004
9.439894e-004
9.439896e-004
9.439899e-004
9.439903e-004
9.439909e-004
9.439915e-004
9.439923e-004
9.439932e-004
9.439942e-004
9.439951e-004
9.439960e-004
9.439969e-004
9.439975e-004
9.439980e-004
9.439983e-004
9.439982e-004
9.439979e-004
9.439973e-004
9.439965e-004
9.439955e-004
9.439944e-004
9.439933e-004
9.439922e-004
9.439913e-004
9.439905e-004
9.439900e-004
9.439897e-004
9.439895e-004
9.439895e-004
9.439896e-004
9.439898e-004
9.439899e-004
9.439900e-004
9.439901e-004
9.439902e-004
9.439903e-004
9.439905e-004
9.439907e-004
9.439910e-004
9.439912e-004
9.439914e-004
9.439914e-004
9.439913e-004
9.439910e-004
9.439908e-004
9.439906e-004
9.439907e-004
9.439911e-004
9.439917e-004
9.439925e-004
9.439932e-004
9.439936e-004
9.439936e-004
9.439931e-004
9.439924e-004
9.439917e-004
9.439912e-004
9.439910e-004
9.439912e-004
9.439916e-004
9.439920e-004
9.439923e-004
9.439923e-004
9.439923e-004
9.439922e-004
9.439918e-004
9.439919e-004
9.439920e-004
9.439920e-004
9.439921e-004
9.439921e-004
9.439920e-004
9.439919e-004
9.439918e-004
9.439918e-004
9.439919e-004
9.439920e-004
9.439922e-004
9.439923e-004
9.439924e-004
9.439924e-004
9.439922e-004
9.439921e-004
9.439919e-004
9.439917e-004
9.439916e-004
9.439916e-004
9.439916e-004
9.439916e-004
9.439915e-004
9.439915e-004
9.439913e-004
9.439911e-004
9.439908e-004
9.439905e-004
9.439902e-004
9.439900e-004
9.439899e-004
9.439898e-004
9.439900e-004
9.439902e-004
9.439905e-004
9.439910e-004
9.439915e-004
9.439922e-004
9.439928e-004
9.439935e-004
9.439942e-004
9.439949e-004
9.439955e-004
9.439962e-004
9.439967e-004
9.439971e-004
9.439974e-004
9.439975e-004
9.439974e-004
9.439972e-004
9.439967e-004
9.439961e-004
9.439953e-004
9.439944e-004
9.439934e-004
9.439924e-004
9.439915e-004
9.439908e-004
9.439902e-004
9.439897e-004
9.439896e-004
9.439895e-004
9.439897e-004
9.439898e-004
9.439900e-004
9.439902e-004
9.439902e-004
9.439903e-004
9.439902e-004
9.439903e-004
9.439904e-004
9.439906e-004
9.439909e-004
9.439913e-004
9.439916e-004
9.439917e-004
9.439916e-004
9.439912e-004
9.439908e-004
9.439904e-004
9.439903e-004
9.439905e-004
9.439912e-004
9.439920e-004
9.439929e-004
9.439935e-004
9.439937e-004
9.439933e-004
9.439926e-004
9.439918e-004
9.439912e-004
9.439909e-004
9.439910e-004
9.439914e-004
9.439918e-004
9.439922e-004
9.439925e-004
9.439927e-004
9.439918e-004
9.439919e-004
9.439919e-004
9.439920e-004
9.439920e-004
9.439920e-004
9.439919e-004
9.439919e-004
9.439918e-004
9.439919e-004
9.439920e-004
9.439922e-004
9.439923e-004
9.439924e-004
9.439923e-004
9.439922e-004
9.439920e-004
9.439918e-004
9.439916e-004
9.439915e-004
9.439915e-004
9.439915e-004
9.439915e-004
9.439915e-004
9.439915e-004
9.439914e-004
9.439912e-004
9.439910e-004
9.439907e-004
9.439904e-004
9.439902e-004
9.439901e-004
9.439900e-004
9.439900e-004
9.439900e-004
9.439900e-004
9.439900e-004
9.439899e-004
9.439897e-004
9.439894e-004
9.439890e-004
9.439885e-004
9.439880e-004
9.439876e-004
9.439871e-004
9.439867e-004
9.439863e-004
9.439861e-004
9.439859e-004
9.439859e-004
9.439860e-004
9.439862e-004
9.439865e-004
9.439868e-004
9.439873e-004
9.439877e-004
9.439880e-004
9.439883e-004
9.439886e-004
9.439887e-004
9.439889e-004
9.439891e-004
9.439893e-004
9.439896e-004
9.439900e-004
9.439905e-004
9.439909e-004
9.439912e-004
9.439913e-004
9.439913e-004
9.439911e-004
9.439907e-004
9.439905e-004
9.439903e-004
9.439904e-004
9.439907e-004
9.439912e-004
9.439917e-004
9.439920e-004
9.439920e-004
9.439916e-004
9.439910e-004
9.439904e-004
9.439899e-004
9.439900e-004
9.439906e-004
9.439916e-004
9.439927e-004
9.439935e-004
9.439938e-004
9.439935e-004
9.439928e-004
9.439919e-004
9.439911e-004
9.439907e-004
9.439908e-004
9.439913e-004
9.439920e-004
9.439927e-004
9.439930e-004
9.439918e-004
9.439918e-004
9.439919e-004
9.439920e-004
9.439920e-004
9.439920e-004
9.439919e-004
9.439919e-004
9.439919e-004
9.439920e-004
9.439922e-004
9.439923e-004
9.439923e-004
9.439923e-004
9.439922e-004
9.439920e-004
9.439917e-004
9.439915e-004
9.439914e-004
9.439914e-004
9.439914e-004
9.439915e-004
9.439916e-004
9.439916e-004
9.439915e-004
9.439914e-004
9.439911e-004
9.439908e-004
9.439905e-004
9.439901e-004
9.439897e-004
9.439893e-004
9.439887e-004
9.439880e-004
9.439871e-004
9.439859e-004
9.439845e-004
9.439828e-004
9.439810e-004
9.439791e-004
9.439772e-004
9.439755e-004
9.439741e-004
9.439729e-004
9.439720e-004
9.439714e-004
9.439710e-004
9.439708e-004
9.439707e-004
9.439707e-004
9.439708e-004
9.439712e-004
9.439719e-004
9.439728e-004
9.439741e-004
9.439756e-004
9.439773e-004
9.439791e-004
9.439809e-004
9.439826e-004
9.439842e-004
9.439857e-004
9.439870e-004
9.439883e-004
9.439895e-004
9.439907e-004
9.439917e-004
9.439926e-004
9.439931e-004
9.439934e-004
9.439932e-004
9.439927e-004
9.439920e-004
9.439911e-004
9.439905e-004
9.439902e-004
9.439904e-004
9.439909e-004
9.439917e-004
9.439923e-004
9.439925e-004
9.439921e-004
9.439914e-004
9.439904e-004
9.439897e-004
9.439896e-004
9.439901e-004
9.439912e-004
9.439925e-004
9.439935e-004
9.439939e-004
9.439936e-004
9.439928e-004
9.439917e-004
9.439909e-004
9.439906e-004
9.439910e-004
9.439918e-004
9.439926e-004
9.439931e-004
9.439918e-004
9.439919e-004
9.439919e-004
9.439920e-004
9.439920e-004
9.439920e-004
9.439919e-004
9.439920e-004
9.439920e-004
9.439921e-004
9.439922e-004
9.439923e-004
9.439923e-004
9.439921e-004
9.439919e-004
9.439917e-004
9.439915e-004
9.439914e-004
9.439914e-004
9.439914e-004
9.439916e-004
9.439917e-004
9.439917e-004
9.439917e-004
9.439915e-004
9.439912e-004
9.439907e-004
9.439901e-004
9.439893e-004
9.439883e-004
9.439871e-004
9.439855e-004
9.439836e-004
9.439813e-004
9.439786e-004
9.439758e-004
9.439731e-004
9.439707e-004
9.439693e-004
9.439691e-004
9.439705e-004
9.439736e-004
9.439783e-004
9.439845e-004
9.439914e-004
9.439985e-004
9.440049e-004
9.440099e-004
9.440130e-004
9.440138e-004
9.440123e-004
9.440089e-004
9.440040e-004
9.439984e-004
9.439927e-004
9.439875e-004
9.439832e-004
9.439802e-004
9.439785e-004
9.439780e-004
9.439785e-004
9.439798e-004
9.439815e-004
9.439836e-004
9.439858e-004
9.439880e-004
9.439902e-004
9.439923e-004
9.439941e-004
9.439954e-004
9.439961e-004
9.439961e-004
9.439954e-004
9.439941e-004
9.439925e-004
9.439911e-004
9.439902e-004
9.439900e-004
9.439905e-004
9.439914e-004
9.439923e-004
9.439928e-004
9.439926e-004
9.439918e-004
9.439906e-004
9.439896e-004
9.439893e-004
9.439898e-004
9.439910e-004
9.439925e-004
9.439936e-004
9.439940e-004
9.439935e-004
9.439925e-004
9.439915e-004
9.439908e-004
9.439909e-004
9.439915e-004
9.439923e-004
9.439929e-004
9.439919e-004
9.439919e-004
9.439919e-004
9.439919e-004
9.439919e-004
9.439920e-004
9.439920e-004
9.439920e-004
9.439921e-004
9.439922e-004
9.439923e-004
9.439922e-004
9.439921e-004
9.439919e-004
9.439917e-004
9.439915e-004
9.439914e-004
9.439914e-004
9.439914e-004
9.439916e-004
9.439917e-004
9.439918e-004
9.439918e-004
9.439916e-004
9.439911e-004
9.439903e-004
9.439892e-004
9.439877e-004
9.439857e-004
9.439833e-004
9.439803e-004
9.439769e-004
9.439732e-004
9.439698e-004
9.439674e-004
9.439670e-004
9.439700e-004
9.439780e-004
9.439923e-004
9.440143e-004
9.440445e-004
9.440827e-004
9.441277e-004
9.441773e-004
9.442282e-004
9.442767e-004
9.443187e-004
9.443505e-004
9.443691e-004
9.443729e-004
9.443617e-004
9.443366e-004
9.443002e-004
9.442559e-004
9.442076e-004
9.441592e-004
9.441140e-004
9.440743e-004
9.440417e-004
9.440167e-004
9.439989e-004
9.439875e-004
9.439811e-004
9.439786e-004
9.439788e-004
9.439806e-004
9.439836e-004
9.439871e-004
9.439907e-004
9.439941e-004
9.439969e-004
9.439988e-004
9.439995e-004
9.439989e-004
9.439972e-004
9.439948e-004
9.439924e-004
9.439905e-004
9.439897e-004
9.439899e-004
9.439910e-004
9.439923e-004
9.439931e-004
9.439931e-004
9.439922e-004
9.439909e-004
9.439897e-004
9.439892e-004
9.439897e-004
9.439910e-004
9.439925e-004
9.439935e-004
9.439938e-004
9.439933e-004
9.439923e-004
9.439915e-004
9.439912e-004
9.439914e-004
9.439920e-004
9.439924e-004
9.439921e-004
9.439921e-004
9.439920e-004
9.439920e-004
9.439919e-004
9.439919e-004
9.439920e-004
9.439921e-004
9.439922e-004
9.439922e-004
9.439922e-004
9.439921e-004
9.439920e-004
9.439918e-004
9.439916e-004
9.439914e-004
9.439914e-004
9.439915e-004
9.439916e-004
9.439918e-004
9.439919e-004
9.439918e-004
9.439915e-004
9.439908e-004
9.439895e-004
9.439877e-004
9.439852e-004
9.439820e-004
9.439780e-004
9.439735e-004
9.439690e-004
9.439653e-004
9.439642e-004
9.439681e-004
9.439805e-004
9.440060e-004
9.440497e-004
9.441170e-004
9.442127e-004
9.443402e-004
9.445002e-004
9.446905e-004
9.449048e-004
9.451330e-004
9.453616e-004
9.455750e-004
9.457571e-004
9.458932e-004
9.459716e-004
9.459856e-004
9.459339e-004
9.458212e-004
9.456573e-004
9.454560e-004
9.452331e-004
9.450047e-004
9.447853e-004
9.445863e-004
9.444153e-004
9.442761e-004
9.441688e-004
9.440907e-004
9.440374e-004
9.440037e-004
9.439845e-004
9.439756e-004
9.439733e-004
9.439752e-004
9.439795e-004
9.439850e-004
9.439908e-004
9.439961e-004
9.440002e-004
9.440025e-004
9.440027e-004
9.440010e-004
9.439979e-004
9.439943e-004
9.439913e-004
9.439896e-004
9.439894e-004
9.439905e-004
9.439921e-004
9.439932e-004
9.439934e-004
9.439926e-004
9.439911e-004
9.439898e-004
9.439892e-004
9.439897e-004
9.439909e-004
9.439924e-004
9.439934e-004
9.439936e-004
9.439932e-004
9.439924e-004
9.439918e-004
9.439915e-004
9.439916e-004
9.439917e-004
9.439923e-004
9.439922e-004
9.439921e-004
9.439920e-004
9.439919e-004
9.439919e-004
9.439920e-004
9.439921e-004
9.439922e-004
9.439922e-004
9.439922e-004
9.439921e-004
9.439919e-004
9.439917e-004
9.439915e-004
9.439914e-004
9.439914e-004
9.439915e-004
9.439917e-004
9.439918e-004
9.439918e-004
9.439913e-004
9.439902e-004
9.439884e-004
9.439857e-004
9.439820e-004
9.439773e-004
9.439718e-004
9.439662e-004
9.439620e-004
9.439619e-004
9.439706e-004
9.439952e-004
9.440458e-004
9.441357e-004
9.442813e-004
9.445005e-004
9.448116e-004
9.452297e-004
9.457641e-004
9.464151e-004
9.471705e-004
9.480051e-004
9.488802e-004
9.497463e-004
9.505469e-004
9.512247e-004
9.517273e-004
9.520142e-004
9.520613e-004
9.518643e-004
9.514395e-004
9.508212e-004
9.500580e-004
9.492068e-004
9.483258e-004
9.474686e-004
9.466789e-004
9.459876e-004
9.454114e-004
9.449538e-004
9.446079e-004
9.443594e-004
9.441903e-004
9.440821e-004
9.440176e-004
9.439829e-004
9.439675e-004
9.439638e-004
9.439670e-004
9.439741e-004
9.439829e-004
9.439917e-004
9.439992e-004
9.440043e-004
9.440062e-004
9.440051e-004
9.440015e-004
9.439968e-004
9.439925e-004
9.439897e-004
9.439890e-004
9.439900e-004
9.439918e-004
9.439933e-004
9.439937e-004
9.439929e-004
9.439913e-004
9.439898e-004
9.439892e-004
9.439896e-004
9.439909e-004
9.439924e-004
9.439934e-004
9.439937e-004
9.439933e-004
9.439926e-004
9.439918e-004
9.439913e-004
9.439910e-004
9.439926e-004
9.439925e-004
9.439923e-004
9.439921e-004
9.439919e-004
9.439918e-004
9.439919e-004
9.439920e-004
9.439921e-004
9.439922e-004
9.439922e-004
9.439921e-004
9.439918e-004
9.439916e-004
9.439914e-004
9.439913e-004
9.439913e-004
9.439915e-004
9.439917e-004
9.439916e-004
9.439910e-004
9.439896e-004
9.439872e-004
9.439834e-004
9.439783e-004
9.439720e-004
9.439652e-004
9.439597e-004
9.439590e-004
9.439700e-004
9.440038e-004
9.440786e-004
9.442208e-004
9.444669e-004
9.448639e-004
9.454674e-004
9.463376e-004
9.475324e-004
9.490982e-004
9.510591e-004
9.534069e-004
9.560927e-004
9.590240e-004
9.620659e-004
9.650501e-004
9.677888e-004
9.700928e-004
9.717925e-004
9.727566e-004
9.729078e-004
9.722327e-004
9.707830e-004
9.686702e-004
9.660522e-004
9.631150e-004
9.600523e-004
9.570452e-004
9.542450e-004
9.517625e-004
9.496626e-004
9.479664e-004
9.466579e-004
9.456947e-004
9.450188e-004
9.445678e-004
9.442825e-004
9.441126e-004
9.440186e-004
9.439719e-004
9.439535e-004
9.439514e-004
9.439584e-004
9.439700e-004
9.439830e-004
9.439950e-004
9.440040e-004
9.440088e-004
9.440090e-004
9.440053e-004
9.439996e-004
9.439939e-004
9.439900e-004
9.439886e-004
9.439895e-004
9.439916e-004
9.439934e-004
9.439939e-004
9.439930e-004
9.439913e-004
9.439897e-004
9.439891e-004
9.439896e-004
9.439911e-004
9.439927e-004
9.439938e-004
9.439940e-004
9.439933e-004
9.439922e-004
9.439912e-004
9.439905e-004
9.439930e-004
9.439928e-004
9.439925e-004
9.439921e-004
9.439918e-004
9.439917e-004
9.439918e-004
9.439919e-004
9.439922e-004
9.439923e-004
9.439923e-004
9.439921e-004
9.439917e-004
9.439914e-004
9.439911e-004
9.439910e-004
9.439912e-004
9.439914e-004
9.439913e-004
9.439907e-004
9.439890e-004
9.439859e-004
9.439810e-004
9.439744e-004
9.439666e-004
9.439591e-004
9.439557e-004
9.439641e-004
9.439987e-004
9.440849e-004
9.442641e-004
9.446002e-004
9.451852e-004
9.461428e-004
9.476283e-004
9.498208e-004
9.529083e-004
9.570642e-004
9.624170e-004
9.690182e-004
9.768136e-004
9.856220e-004
9.951296e-004
1.004900e-003
1.014405e-003
1.023066e-003
1.030309e-003
1.035626e-003
1.038628e-003
1.039086e-003
1.036961e-003
1.032406e-003
1.025752e-003
1.017470e-003
1.008123e-003
9.983027e-004
9.885742e-004
9.794217e-004
9.712130e-004
9.641797e-004
9.584173e-004
9.539025e-004
9.505208e-004
9.481015e-004
9.464502e-004
9.453764e-004
9.447126e-004
9.443237e-004
9.441094e-004
9.440001e-004
9.439514e-004
9.439364e-004
9.439399e-004
9.439531e-004
9.439704e-004
9.439877e-004
9.440017e-004
9.440101e-004
9.440122e-004
9.440088e-004
9.440022e-004
9.439952e-004
9.439902e-004
9.439883e-004
9.439893e-004
9.439915e-004
9.439935e-004
9.439940e-004
9.439930e-004
9.439910e-004
9.439894e-004
9.439890e-004
9.439899e-004
9.439916e-004
9.439933e-004
9.439941e-004
9.439938e-004
9.439927e-004
9.439913e-004
9.439904e-004
9.439933e-004
9.439930e-004
9.439926e-004
9.439921e-004
9.439917e-004
9.439916e-004
9.439917e-004
9.439920e-004
9.439923e-004
9.439925e-004
9.439924e-004
9.439920e-004
9.439915e-004
9.439910e-004
9.439907e-004
9.439907e-004
9.439909e-004
9.439910e-004
9.439904e-004
9.439885e-004
9.439848e-004
9.439788e-004
9.439707e-004
9.439615e-004
9.439543e-004
9.439560e-004
9.439814e-004
9.440589e-004
9.442403e-004
9.446139e-004
9.453212e-004
9.465751e-004
9.486752e-004
9.520152e-004
9.570744e-004
9.643888e-004
9.744974e-004
9.878685e-004
1.004812e-003
1.025390e-003
1.049346e-003
1.076063e-003
1.104557e-003
1.133529e-003
1.161450e-003
1.186691e-003
1.207665e-003
1.222985e-003
1.231595e-003
1.232884e-003
1.226744e-003
1.213589e-003
1.194310e-003
1.170191e-003
1.142779e-003
1.113734e-003
1.084670e-003
1.057015e-003
1.031896e-003
1.010077e-003
9.919360e-004
9.774982e-004
9.665047e-004
9.585025e-004
9.529398e-004
9.492512e-004
9.469209e-004
9.455201e-004
9.447200e-004
9.442871e-004
9.440672e-004
9.439652e-004
9.439265e-004
9.439216e-004
9.439343e-004
9.439554e-004
9.439782e-004
9.439976e-004
9.440102e-004
9.440146e-004
9.440116e-004
9.440043e-004
9.439962e-004
9.439903e-004
9.439882e-004
9.439892e-004