# vtk DataFile Version 3.0
vtk output
ASCII
DATASET STRUCTURED_POINTS
DIMENSIONS 100 100 1
SPACING 1 1 1
ORIGIN 0 0 0
POINT_DATA 10000
SCALARS SFBox_profile double
LOOKUP_TABLE default 
0.000000e+000
0.000000e+000
0.000000e+000
0.000000e+000
0.000000e+000
0.000000e+000
0.000000e+000
0.000000e+000
0.000000e+000
0.000000e+000
0.000000e+000
0.000000e+000
0.000000e+000
0.000000e+000
0.000000e+000
0.000000e+000
0.000000e+000
0.000000e+000
0.000000e+000
0.000000e+000
0.000000e+000
0.000000e+000
0.000000e+000
0.000000e+000
0.000000e+000
0.000000e+000
0.000000e+000
0.000000e+000
0.000000e+000
0.000000e+000
0.000000e+000
0.000000e+000
0.000000e+000
0.000000e+000
0.000000e+000
0.000000e+000
0.000000e+000
0.000000e+000
0.000000e+000
0.000000e+000
0.000000e+000
0.000000e+000
0.000000e+000
0.000000e+000
0.000000e+000
0.000000e+000
0.000000e+000
0.000000e+000
0.000000e+000
0.000000e+000
0.000000e+000
0.000000e+000
0.000000e+000
0.000000e+000
0.000000e+000
0.000000e+000
0.000000e+000
0.000000e+000
0.000000e+000
0.000000e+000
0.000000e+000
0.000000e+000
0.000000e+000
0.000000e+000
0.000000e+000
0.000000e+000
0.000000e+000
0.000000e+000
0.000000e+000
0.000000e+000
0.000000e+000
0.000000e+000
0.000000e+000
0.000000e+000
0.000000e+000
0.000000e+000
0.000000e+000
0.000000e+000
0.000000e+000
0.000000e+000
0.000000e+000
0.000000e+000
0.000000e+000
0.000000e+000
0.000000e+000
0.000000e+000
0.000000e+000
0.000000e+000
0.000000e+000
0.000000e+000
0.000000e+000
0.000000e+000
0.000000e+000
0.000000e+000
0.000000e+000
0.000000e+000
0.000000e+000
0.000000e+000
0.000000e+000
0.000000e+000
2.829830e-009
1.138711e-009
-1.045929e-009
-2.393133e-009
-2.199162e-009
-7.273716e-010
1.043482e-009
2.073066e-009
1.884512e-009
7.693408e-010
-5.171319e-010
-1.305353e-009
-1.395568e-009
-1.034731e-009
-5.842958e-010
-2.044547e-010
1.859402e-010
6.954268e-010
1.243461e-009
1.566878e-009
1.436971e-009
8.668736e-010
1.088031e-010
-5.466311e-010
-9.720135e-010
-1.228805e-009
-1.426850e-009
-1.581379e-009
-1.605926e-009
-1.422971e-009
-1.059215e-009
-6.283669e-010
-2.329393e-010
1.063463e-010
4.300670e-010
7.671422e-010
1.093428e-009
1.357713e-009
1.535026e-009
1.646578e-009
1.731483e-009
1.807877e-009
1.864714e-009
1.885896e-009
1.874768e-009
1.852845e-009
1.838460e-009
1.831307e-009
1.818715e-009
1.794263e-009
1.767026e-009
1.751686e-009
1.751359e-009
1.753071e-009
1.741740e-009
1.717037e-009
1.692498e-009
1.675419e-009
1.649916e-009
1.585629e-009
1.466316e-009
1.306053e-009
1.130164e-009
9.389034e-010
6.984268e-010
3.781754e-010
-1.746835e-012
-3.704946e-010
-6.633315e-010
-8.759343e-010
-1.049301e-009
-1.193536e-009
-1.237412e-009
-1.075869e-009
-6.817148e-010
-1.644571e-010
2.985792e-010
5.986687e-010
7.580587e-010
8.493270e-010
8.616978e-010
6.755613e-010
1.993181e-010
-4.606303e-010
-9.890094e-010
-1.063831e-009
-6.140002e-010
9.783925e-011
6.523133e-010
7.675334e-010
4.714313e-010
3.041728e-011
-2.765658e-010
-3.399470e-010
-2.321282e-010
-8.877196e-011
8.457100e-012
5.687619e-011
8.363828e-011
9.965109e-011
3.212677e-010
1.430994e-010
-9.562554e-011
-2.513628e-010
-2.314772e-010
-5.575950e-011
1.451047e-010
2.138314e-010
8.735230e-011
-1.399741e-010
-2.765472e-010
-1.844388e-010
9.900547e-011
3.778400e-010
4.477855e-010
2.559004e-010
-6.682166e-011
-3.236100e-010
-4.094663e-010
-3.675481e-010
-3.071050e-010
-2.780979e-010
-2.291420e-010
-8.069351e-011
1.732415e-010
4.431507e-010
6.199127e-010
6.655401e-010
6.283069e-010
5.771328e-010
5.313450e-010
4.559561e-010
3.157954e-010
1.225554e-010
-7.377997e-011
-2.323926e-010
-3.532514e-010
-4.632009e-010
-5.788700e-010
-6.889225e-010
-7.704429e-010
-8.158249e-010
-8.396286e-010
-8.613234e-010
-8.860799e-010
-9.041852e-010
-9.065853e-010
-8.971844e-010
-8.887227e-010
-8.885709e-010
-8.913399e-010
-8.864324e-010
-8.713315e-010
-8.548265e-010
-8.458360e-010
-8.405220e-010
-8.236343e-010
-7.842659e-010
-7.281767e-010
-6.704559e-010
-6.147052e-010
-5.434628e-010
-4.348990e-010
-2.899337e-010
-1.374132e-010
-6.796291e-012
1.028229e-010
2.186596e-010
3.540319e-010
4.766146e-010
5.274165e-010
4.773883e-010
3.605840e-010
2.421968e-010
1.520319e-010
5.842711e-011
-8.239605e-011
-2.528106e-010
-3.627839e-010
-3.260680e-010
-1.511618e-010
5.016004e-011
1.536952e-010
1.269236e-010
4.466006e-011
4.379204e-012
3.032674e-011
6.238858e-011
3.404804e-011
-4.802644e-011
-1.074650e-010
-7.923782e-011
1.837374e-011
9.673669e-011
8.253149e-011
-9.863861e-012
-9.139469e-011
-8.396004e-011
4.822278e-012
8.962086e-011
-2.494699e-009
-9.750058e-010
9.613735e-010
2.118716e-009
1.912462e-009
6.257027e-010
-8.849114e-010
-1.777958e-009
-1.700292e-009
-8.721075e-010
1.845792e-010
1.011167e-009
1.408809e-009
1.396637e-009
1.062088e-009
4.749712e-010
-2.817440e-010
-1.049852e-009
-1.610272e-009
-1.784801e-009
-1.535526e-009
-9.721488e-010
-2.679557e-010
4.347874e-010
1.057258e-009
1.555526e-009
1.887192e-009
2.014541e-009
1.931580e-009
1.675085e-009
1.303512e-009
8.662891e-010
3.933265e-010
-9.252627e-011
-5.624456e-010
-9.855346e-010
-1.343110e-009
-1.634662e-009
-1.868775e-009
-2.050663e-009
-2.180177e-009
-2.259825e-009
-2.300578e-009
-2.317558e-009
-2.320922e-009
-2.312754e-009
-2.292783e-009
-2.265159e-009
-2.238005e-009
-2.216898e-009
-2.200795e-009
-2.185508e-009
-2.170189e-009
-2.158400e-009
-2.152006e-009
-2.145347e-009
-2.127276e-009
-2.089029e-009
-2.028136e-009
-1.942922e-009
-1.824254e-009
-1.656000e-009
-1.425877e-009
-1.135113e-009
-7.956467e-010
-4.188775e-010
-1.162006e-011
4.131016e-010
8.225283e-010
1.166491e-009
1.396941e-009
1.485034e-009
1.418967e-009
1.191450e-009
8.019496e-010
2.814199e-010
-2.862336e-010
-7.785129e-010
-1.083094e-009
-1.141642e-009
-9.545764e-010
-5.585729e-010
-1.946244e-011
5.441478e-010
9.495915e-010
1.008863e-009
6.510952e-010
1.653805e-011
-5.812417e-010
-8.323609e-010
-6.297685e-010
-1.383071e-010
3.235505e-010
5.004961e-010
3.548879e-010
5.599773e-011
-1.682509e-010
-1.950431e-010
-7.081739e-011
5.343153e-011
-3.153069e-009
-1.238527e-009
1.194503e-009
2.625848e-009
2.315688e-009
6.576427e-010
-1.193144e-009
-2.124527e-009
-1.748948e-009
-5.275438e-010
6.788237e-010
1.241954e-009
1.106607e-009
6.472785e-010
2.519131e-010
2.336462e-011
-1.812641e-010
-4.880669e-010
-8.172470e-010
-9.463725e-010
-7.342405e-010
-2.659307e-010
2.175977e-010
5.187067e-010
6.130107e-010
6.063786e-010
5.945107e-010
5.768431e-010
4.924641e-010
3.124100e-010
8.132230e-011
-1.245880e-010
-2.645258e-010
-3.533431e-010
-4.259007e-010
-4.944321e-010
-5.427860e-010
-5.529829e-010
-5.278144e-010
-4.868980e-010
-4.470354e-010
-4.109544e-010
-3.730776e-010
-3.309996e-010
-2.891046e-010
-2.533556e-010
-2.257512e-010
-2.042878e-010
-1.865167e-010
-1.720840e-010
-1.626966e-010
-1.607726e-010
-1.678407e-010
-1.832078e-010
-2.042367e-010
-2.290928e-010
-2.594766e-010
-2.989172e-010
-3.465919e-010
-3.936985e-010
-4.289086e-010
-4.485701e-010
-4.585054e-010
-4.617524e-010
-4.453696e-010
-3.858726e-010
-2.732837e-010
-1.275879e-010
1.648872e-011
1.443309e-010
2.737031e-010
4.211317e-010
5.550517e-010
5.964384e-010
4.834217e-010
2.394929e-010
-3.387545e-011
-2.439135e-010
-3.821012e-010
-4.983297e-010
-5.947759e-010
-5.662806e-010
-2.840156e-010
2.353775e-010
7.522988e-010
9.360374e-010
6.236578e-010
-2.008016e-011
-5.999135e-010
-7.762996e-010
-5.029266e-010
-2.572358e-011
3.327077e-010
4.054791e-010
2.502544e-010
4.105217e-011
-8.644440e-011
-1.060498e-010
-6.826094e-011
-3.318706e-011
-1.077131e-009
-4.267244e-010
3.970544e-010
8.578973e-010
6.862518e-010
5.139631e-011
-5.496718e-010
-6.466173e-010
-1.579388e-010
5.245861e-010
8.268330e-010
4.493534e-010
-3.806853e-010
-1.080666e-009
-1.167407e-009
-6.115603e-010
1.954494e-010
7.976289e-010
1.014430e-009
9.787038e-010
8.970744e-010
8.092193e-010
5.801946e-010
9.583010e-011
-5.693014e-010
-1.186045e-009
-1.556146e-009
-1.651908e-009
-1.584110e-009
-1.459549e-009
-1.286465e-009
-1.008367e-009
-6.022926e-010
-1.251440e-010
3.315980e-010
7.160602e-010
1.038900e-009
1.333497e-009
1.607999e-009
1.839321e-009
2.004349e-009
2.106532e-009
2.170936e-009
2.219777e-009
2.257324e-009
2.276360e-009
2.273913e-009
2.258195e-009
2.242008e-009
2.231899e-009
2.224231e-009
2.210983e-009
2.188978e-009
2.163288e-009
2.140604e-009
2.118334e-009
2.081409e-009
2.012870e-009
1.908692e-009
1.778895e-009
1.629816e-009
1.446547e-009
1.200607e-009
8.814853e-010
5.179183e-010
1.585635e-010
-1.724227e-010
-4.920713e-010
-8.183797e-010
-1.112867e-009
-1.279553e-009
-1.240065e-009
-1.012528e-009
-7.016579e-010
-3.991083e-010
-1.024384e-010
2.454962e-010
6.292161e-010
8.954817e-010
8.545189e-010
4.712532e-010
-5.126603e-011
-4.073520e-010
-4.331967e-010
-2.277719e-010
-3.314364e-011
2.046980e-012
-6.142473e-011
-6.217166e-011
6.053920e-011
1.942414e-010
1.825463e-010
8.728299e-012
-1.704080e-010
-1.808463e-010
-1.329055e-011
1.625221e-010
1.688567e-010
6.507861e-013
-1.700443e-010
1.950077e-009
7.364642e-010
-7.695501e-010
-1.623010e-009
-1.442586e-009
-5.192528e-010
5.308525e-010
1.212568e-009
1.354586e-009
1.020671e-009
3.422564e-010
-5.234575e-010
-1.326608e-009
-1.728042e-009
-1.472309e-009
-6.051653e-010
4.936707e-010
1.340192e-009
1.658183e-009
1.505094e-009
1.123205e-009
6.895370e-010
2.112718e-010
-3.652507e-010
-9.908344e-010
-1.489583e-009
-1.695648e-009
-1.593593e-009
-1.313679e-009
-9.993389e-010
-6.936507e-010
-3.515827e-010
6.064515e-011
5.004266e-010
8.814680e-010
1.153267e-009
1.335592e-009
1.479728e-009
1.610009e-009
1.709105e-009
1.751976e-009
1.741734e-009
1.708776e-009
1.681241e-009
1.662993e-009
1.639953e-009
1.602407e-009
1.557553e-009
1.521610e-009
1.503115e-009
1.495727e-009
1.487150e-009
1.474064e-009
1.466943e-009
1.478552e-009
1.507295e-009
1.534308e-009
1.540334e-009
1.525169e-009
1.505062e-009
1.486081e-009
1.442843e-009
1.332914e-009
1.138001e-009
8.855820e-010
6.193749e-010
3.472621e-010
3.156515e-011
-3.545671e-010
-7.624539e-010
-1.076753e-009
-1.203818e-009
-1.148119e-009
-9.865311e-010
-7.644002e-010
-4.380652e-010
5.216818e-011
6.467020e-010
1.128988e-009
1.258020e-009
9.596516e-010
3.898358e-010
-1.913238e-010
-6.024939e-010
-8.029074e-010
-8.059759e-010
-5.893003e-010
-1.366604e-010
4.332855e-010
8.359418e-010
7.929332e-010
2.849160e-010
-3.669307e-010
-7.140248e-010
-5.334400e-010
-1.280427e-011
4.081083e-010
4.095816e-010
5.394681e-011
-2.903769e-010
3.370474e-009
1.235209e-009
-1.369774e-009
-2.730052e-009
-2.191923e-009
-4.207853e-010
1.261077e-009
1.865713e-009
1.311165e-009
2.469555e-010
-5.809354e-010
-8.477173e-010
-6.939187e-010
-4.098832e-010
-1.444152e-010
1.130160e-010
3.626278e-010
4.953430e-010
3.864543e-010
5.463014e-011
-3.145434e-010
-5.165113e-010
-4.880759e-010
-3.173877e-010
-1.162433e-010
8.963440e-011
3.405644e-010
6.420750e-010
9.166398e-010
1.063951e-009
1.053432e-009
9.421375e-010
8.053065e-010
6.644913e-010
4.892832e-010
2.570633e-010
-5.704655e-012
-2.443640e-010
-4.271654e-010
-5.663708e-010
-6.916254e-010
-8.124326e-010
-9.116233e-010
-9.707254e-010
-9.937546e-010
-1.003635e-009
-1.019049e-009
-1.038941e-009
-1.049711e-009
-1.044414e-009
-1.032043e-009
-1.027446e-009
-1.033588e-009
-1.036168e-009
-1.017527e-009
-9.751594e-010
-9.230197e-010
-8.716297e-010
-8.088787e-010
-7.068701e-010
-5.518637e-010
-3.637662e-010
-1.782679e-010
-8.103608e-012
1.693713e-010
3.765272e-010
5.893362e-010
7.398965e-010
7.748948e-010
7.069358e-010
5.954660e-010
4.750971e-010
3.183938e-010
8.637263e-011
-1.872598e-010
-3.846851e-010
-3.961348e-010
-2.232847e-010
2.026466e-011
2.115114e-010
3.060240e-010
3.175456e-010
2.362325e-010
1.595846e-011
-3.269883e-010
-6.241646e-010
-6.265240e-010
-2.244213e-010
3.887082e-010
8.056975e-010
7.146913e-010
1.668887e-010
-4.449302e-010
-6.920420e-010
-4.417443e-010
5.992223e-011
4.084547e-010
3.669249e-010
3.293910e-011
-2.697928e-010
2.044673e-009
6.672746e-010
-9.488876e-010
-1.644155e-009
-1.043300e-009
2.450572e-010
1.152314e-009
9.888871e-010
-4.597489e-011
-1.069085e-009
-1.244779e-009
-4.332666e-010
7.589916e-010
1.513801e-009
1.422918e-009
6.862088e-010
-1.912646e-010
-8.407903e-010
-1.205957e-009
-1.384357e-009
-1.396502e-009
-1.146888e-009
-5.763410e-010
2.068509e-010
9.734893e-010
1.536462e-009
1.851936e-009
1.974640e-009
1.950263e-009
1.773265e-009
1.435331e-009
9.811072e-010
4.965646e-010
4.906652e-011
-3.468575e-010
-7.047952e-010
-1.022455e-009
-1.272853e-009
-1.434363e-009
-1.516886e-009
-1.552419e-009
-1.564568e-009
-1.553865e-009
-1.512275e-009
-1.445129e-009
-1.373623e-009
-1.317036e-009
-1.277255e-009
-1.243272e-009
-1.209071e-009
-1.183578e-009
-1.181481e-009
-1.206022e-009
-1.244167e-009
-1.280340e-009
-1.312699e-009
-1.351493e-009
-1.399392e-009
-1.436835e-009
-1.432438e-009
-1.369110e-009
-1.254776e-009
-1.102401e-009
-9.028874e-010
-6.280449e-010
-2.666078e-010
1.478902e-010
5.543548e-010
9.090129e-010
1.202039e-009
1.422637e-009
1.519061e-009
1.416639e-009
1.088496e-009
6.003071e-010
7.112258e-011
-4.070356e-010
-7.930175e-010
-1.038375e-009
-1.041125e-009
-7.125163e-010
-1.180278e-010
4.744648e-010
7.474409e-010
5.826515e-010
1.672909e-010
-1.650784e-010
-2.179073e-010
-6.928879e-011
5.548523e-011
2.558254e-011
-9.005254e-011
-1.372087e-010
-5.772631e-011
6.282448e-011
1.091843e-010
6.140223e-011
-7.329272e-012
-3.270774e-011
-2.436911e-011
-8.705467e-010
-4.199552e-010
1.793991e-010
6.370525e-010
8.183043e-010
6.978457e-010
2.649455e-010
-4.349426e-010
-1.158411e-009
-1.462908e-009
-9.875169e-010
1.776576e-010
1.416983e-009
1.974185e-009
1.514466e-009
3.712229e-010
-7.441494e-010
-1.295613e-009
-1.244108e-009
-9.055237e-010
-5.676165e-010
-2.682092e-010
1.011169e-010
5.587457e-010
9.520222e-010
1.098190e-009
9.619706e-010
6.738026e-010
3.932953e-010
1.826063e-010
1.040343e-011
-1.549311e-010
-2.866528e-010
-3.304855e-010
-2.678037e-010
-1.313704e-010
3.454341e-011
2.134049e-010
4.126042e-010
6.330332e-010
8.550695e-010
1.054696e-009
1.224429e-009
1.372743e-009
1.506421e-009
1.620154e-009
1.704828e-009
1.760996e-009
1.799032e-009
1.826102e-009
1.837099e-009
1.821135e-009
1.775053e-009
1.706390e-009
1.621731e-009
1.515669e-009
1.375932e-009
1.199677e-009
1.000173e-009
7.939127e-010
5.843289e-010
3.653923e-010
1.434069e-010
-5.185845e-011
-1.861809e-010
-2.498756e-010
-2.581041e-010
-2.180910e-010
-1.075648e-010
9.641570e-011
3.638985e-010
6.043448e-010
7.305522e-010
7.274493e-010
6.385909e-010
4.801943e-010
1.979196e-010
-2.503089e-010
-7.604963e-010
-1.072330e-009
-9.507437e-010
-4.076113e-010
2.683154e-010
7.266543e-010
8.127565e-010
6.203969e-010
3.210008e-010
-8.079130e-012
-3.605853e-010
-6.501248e-010
-6.748756e-010
-3.067873e-010
2.880824e-010
6.920845e-010
5.786566e-010
4.043222e-011
-4.545606e-010
-4.817898e-010
-6.095193e-011
3.649825e-010
-3.031342e-009
-1.060410e-009
1.244747e-009
2.313670e-009
1.733947e-009
2.897964e-010
-8.906493e-010
-1.220593e-009
-8.657384e-010
-3.114558e-010
1.333730e-010
4.314753e-010
5.864502e-010
4.925129e-010
7.627527e-011
-4.805961e-010
-7.773695e-010
-5.223044e-010
1.774411e-010
8.825541e-010
1.189010e-009
1.029527e-009
6.341007e-010
2.445225e-010
-9.247356e-011
-4.665107e-010
-9.032878e-010
-1.274536e-009
-1.405902e-009
-1.238350e-009
-8.619964e-010
-4.072908e-010
6.847419e-011
5.849802e-010
1.159582e-009
1.753175e-009
2.295898e-009
2.746614e-009
3.113444e-009
3.422520e-009
3.681887e-009
3.880521e-009
4.012599e-009
4.091232e-009
4.137614e-009
4.164115e-009
4.172362e-009
4.163904e-009
4.146100e-009
4.126309e-009
4.104960e-009
4.078181e-009
4.045301e-009
4.008942e-009
3.966608e-009
3.906452e-009
3.815318e-009
3.688942e-009
3.528428e-009
3.325529e-009
3.058590e-009
2.711184e-009
2.293697e-009
1.837183e-009
1.361482e-009
8.591779e-010
3.258042e-010
-1.936831e-010
-6.069110e-010
-8.405382e-010
-9.016829e-010
-8.544795e-010
-7.300203e-010
-4.839218e-010
-7.595901e-011
4.064877e-010
7.433442e-010
7.451261e-010
4.332709e-010
3.705390e-011
-2.062377e-010
-2.399982e-010
-1.691387e-010
-8.134845e-011
5.327252e-011
2.722181e-010
4.536621e-010
3.551317e-010
-1.134633e-010
-6.767778e-010
-8.460678e-010
-3.700259e-010
4.507296e-010
9.546097e-010
6.990249e-010
-1.079620e-010
-7.637273e-010
-7.016884e-010
-1.300641e-011
6.389724e-010
-2.894516e-009
-7.558328e-010
1.573471e-009
2.284223e-009
1.094483e-009
-7.360882e-010
-1.625633e-009
-9.873101e-010
4.463720e-010
1.420098e-009
1.240312e-009
1.995871e-010
-8.768496e-010
-1.379947e-009
-1.254596e-009
-7.711168e-010
-1.446503e-010
5.632611e-010
1.263329e-009
1.713640e-009
1.662282e-009
1.097776e-009
3.003507e-010
-3.795180e-010
-7.785840e-010
-9.564002e-010
-1.017419e-009
-9.521338e-010
-6.669732e-010
-1.325125e-010
5.435761e-010
1.198262e-009
1.742872e-009
2.196610e-009
2.608592e-009
2.975892e-009
3.246527e-009
3.384062e-009
3.407800e-009
3.368540e-009
3.299865e-009
3.202279e-009
3.067422e-009
2.904025e-009
2.736199e-009
2.583868e-009
2.452231e-009
2.338743e-009
2.243753e-009
2.172227e-009
2.129576e-009
2.120053e-009
2.147287e-009
2.211370e-009
2.304588e-009
2.414485e-009
2.533878e-009
2.663593e-009
2.798840e-009
2.913768e-009
2.968780e-009
2.939908e-009
2.835766e-009
2.674476e-009
2.443540e-009
2.098276e-009
1.615707e-009
1.046289e-009
4.924854e-010
2.562190e-011
-3.614325e-010
-6.973703e-010
-9.327415e-010
-9.328819e-010
-6.049813e-010
-3.191944e-011
5.490364e-010
9.192853e-010
1.021202e-009
9.206538e-010
6.617964e-010
2.233228e-010
-3.501011e-010
-8.233316e-010
-8.794210e-010
-4.227070e-010
2.421324e-010
6.089758e-010
4.128609e-010
-1.132137e-010
-4.481750e-010
-2.758339e-010
2.180601e-010
5.347094e-010
3.479160e-010
-1.850427e-010
-5.756774e-010
-4.618463e-010
6.063687e-011
5.283230e-010
-8.157503e-010
1.167425e-010
9.616464e-010
8.202766e-010
-2.740244e-010
-1.367905e-009
-1.413875e-009
-2.100700e-010
1.370664e-009
2.087132e-009
1.364792e-009
-2.493771e-010
-1.588548e-009
-1.829950e-009
-1.053021e-009
1.949832e-011
7.232119e-010
8.981032e-010
7.694133e-010
5.584261e-010
2.944282e-010
-4.829516e-011
-3.603465e-010
-4.273417e-010
-1.340752e-010
4.187638e-010
1.020241e-009
1.539980e-009
1.988276e-009
2.409917e-009
2.769232e-009
2.964838e-009
2.936835e-009
2.725739e-009
2.419593e-009
2.064279e-009
1.641541e-009
1.124342e-009
5.309785e-010
-8.295762e-011
-6.731602e-010
-1.233493e-009
-1.777054e-009
-2.303345e-009
-2.790393e-009
-3.213021e-009
-3.560095e-009
-3.833223e-009
-4.034517e-009
-4.158893e-009
-4.195340e-009
-4.132342e-009
-3.963999e-009
-3.695311e-009
-3.341605e-009
-2.918461e-009
-2.430636e-009
-1.876101e-009
-1.266387e-009
-6.394862e-010
-4.246471e-011
5.028590e-010
1.008343e-009
1.483050e-009
1.891531e-009
2.164895e-009
2.263453e-009
2.217742e-009
2.088757e-009
1.887862e-009
1.561182e-009
1.075679e-009
5.119449e-010
4.079459e-011
-2.081197e-010
-2.395214e-010
-1.401978e-010
4.246076e-011
3.189756e-010
6.367391e-010
7.935495e-010
5.613129e-010
-5.642493e-011
-7.222260e-010
-9.911061e-010
-6.859127e-010
-5.204117e-011
4.668455e-010
6.014227e-010
4.148832e-010
1.427650e-010
-5.548867e-011
-1.691188e-010
-2.273318e-010
-2.098031e-010
-9.502467e-011
5.490445e-011
1.256548e-010
7.726133e-011
-2.772910e-012
1.535281e-009
7.299428e-010
-2.799149e-010
-9.404495e-010
-1.072764e-009
-7.875973e-010
-2.388052e-010
4.295758e-010
9.570903e-010
9.877385e-010
3.790327e-010
-5.143045e-010
-1.003158e-009
-6.420808e-010
3.221934e-010
1.120490e-009
1.122004e-009
3.522089e-010
-6.052188e-010
-1.158479e-009
-1.135297e-009
-7.340240e-010
-1.813973e-010
4.769288e-010
1.280300e-009
2.158226e-009
2.907427e-009
3.351744e-009
3.472882e-009
3.365528e-009
3.096679e-009
2.643357e-009
1.958495e-009
1.056714e-009
1.090664e-011
-1.121600e-009
-2.343049e-009
-3.681644e-009
-5.132155e-009
-6.643118e-009
-8.155668e-009
-9.639451e-009
-1.108633e-008
-1.247893e-008
-1.377523e-008
-1.492270e-008
-1.588063e-008
-1.662665e-008
-1.714662e-008
-1.742304e-008
-1.743335e-008
-1.715837e-008
-1.659433e-008
-1.576008e-008
-1.469203e-008
-1.342864e-008
-1.199958e-008
-1.043459e-008
-8.784640e-009
-7.126634e-009
-5.535607e-009
-4.049074e-009
-2.666964e-009
-1.392693e-009
-2.658534e-010
6.607088e-010
1.376650e-009
1.927517e-009
2.354701e-009
2.628993e-009
2.668471e-009
2.432962e-009
1.983206e-009
1.427813e-009
8.276355e-010
1.943594e-010
-4.020736e-010
-7.724462e-010
-7.287430e-010
-2.967433e-010
2.280418e-010
4.933861e-010
3.798265e-010
6.692780e-011
-1.807844e-010
-2.529083e-010
-2.021095e-010
-7.779620e-011
1.431082e-010
4.211913e-010
5.393858e-010
2.632072e-010
-3.321382e-010
-7.844985e-010
-6.315535e-010
7.721238e-011
7.283254e-010
7.039276e-010
1.777060e-011
-6.598548e-010
2.670916e-009
6.059318e-010
-1.513728e-009
-1.975682e-009
-7.610318e-010
7.565155e-010
1.262482e-009
5.929622e-010
-4.309991e-010
-9.674280e-010
-8.219774e-010
-3.069250e-010
2.719772e-010
8.198795e-010
1.241844e-009
1.274832e-009
6.972904e-010
-3.185377e-010
-1.194877e-009
-1.377826e-009
-7.827485e-010
1.977059e-010
1.092607e-009
1.715896e-009
2.159397e-009
2.524794e-009
2.747180e-009
2.676575e-009
2.256180e-009
1.561254e-009
6.739764e-010
-4.327474e-010
-1.871170e-009
-3.728214e-009
-6.007874e-009
-8.672981e-009
-1.170753e-008
-1.511607e-008
-1.887179e-008
-2.288610e-008
-2.703421e-008
-3.119995e-008
-3.528920e-008
-3.920830e-008
-4.284416e-008
-4.607223e-008
-4.878129e-008
-5.088829e-008
-5.233258e-008
-5.306198e-008
-5.302821e-008
-5.219787e-008
-5.057039e-008
-4.818795e-008
-4.512811e-008
-4.148640e-008
-3.736827e-008
-3.290078e-008
-2.824831e-008
-2.360286e-008
-1.914387e-008
-1.500159e-008
-1.126028e-008
-7.990555e-009
-5.259185e-009
-3.091596e-009
-1.432293e-009
-1.680044e-010
7.937942e-010
1.477286e-009
1.879915e-009
2.045096e-009
2.055689e-009
1.940251e-009
1.623054e-009
1.025926e-009
2.377662e-010
-4.584421e-010
-7.786062e-010
-6.655818e-010
-3.034345e-010
8.758698e-011
4.188750e-010
6.711524e-010
7.355347e-010
4.490762e-010
-1.450090e-010
-6.549194e-010
-6.191176e-010
-1.033380e-011
6.114027e-010
5.903318e-010
-1.214470e-010
-8.238876e-010
-7.410349e-010
1.419825e-010
9.861758e-010
9.195178e-010
-4.922788e-011
-9.955331e-010
2.270848e-009
2.590523e-012
-2.070232e-009
-1.943715e-009
1.201571e-010
2.064554e-009
2.109753e-009
3.379277e-010
-1.604355e-009
-2.157453e-009
-1.148648e-009
3.618774e-010
1.246658e-009
1.207154e-009
6.810484e-010
1.702495e-010
-1.644078e-010
-3.460570e-010
-2.842864e-010
1.937307e-010
1.052351e-009
1.933141e-009
2.415919e-009
2.370607e-009
2.005073e-009
1.579861e-009
1.125825e-009
4.445643e-010
-6.826609e-010
-2.356981e-009
-4.626761e-009
-7.622053e-009
-1.156920e-008
-1.667141e-008
-2.299914e-008
-3.049551e-008
-3.905340e-008
-4.855567e-008
-5.884562e-008
-6.968880e-008
-8.078720e-008
-9.183292e-008
-1.025451e-007
-1.126643e-007
-1.219309e-007
-1.300852e-007
-1.368904e-007
-1.421537e-007
-1.457256e-007
-1.474844e-007
-1.473300e-007
-1.451984e-007
-1.410864e-007
-1.350670e-007
-1.272836e-007
-1.179364e-007
-1.072803e-007
-9.563885e-008
-8.340883e-008
-7.103090e-008
-5.893393e-008
-4.749381e-008
-3.703040e-008
-2.781516e-008
-2.004411e-008
-1.378111e-008
-8.936442e-009
-5.325202e-009
-2.756416e-009
-1.058102e-009
-2.381194e-011
6.157188e-010
1.103630e-009
1.515637e-009
1.739734e-009
1.640283e-009
1.245967e-009
7.493318e-010
3.245630e-010
2.552197e-013
-2.474331e-010
-3.262841e-010
-7.017926e-011
4.860591e-010
9.470402e-010
8.254250e-010
5.852272e-011
-7.975355e-010
-1.016155e-009
-4.112324e-010
4.353411e-010
7.260105e-010
2.449267e-010
-4.328717e-010
-5.543212e-010
1.549630e-011
6.545705e-010
6.485709e-010
-4.568265e-011
-7.441289e-010
9.801978e-010
-4.386073e-010
-1.569996e-009
-1.083414e-009
6.633692e-010
2.017212e-009
1.667449e-009
-9.241406e-011
-1.677256e-009
-1.734337e-009
-3.654384e-010
1.090525e-009
1.388466e-009
4.608428e-010
-7.146219e-010
-1.141329e-009
-6.114650e-010
3.842408e-010
1.305816e-009
1.982331e-009
2.477448e-009
2.766111e-009
2.686484e-009
2.162401e-009
1.325239e-009
3.288052e-010
-9.355206e-010
-2.896816e-009
-6.094389e-009
-1.095513e-008
-1.777315e-008
-2.682978e-008
-3.844262e-008
-5.285975e-008
-7.011902e-008
-9.002007e-008
-1.122101e-007
-1.362686e-007
-1.617152e-007
-1.879802e-007
-2.144147e-007
-2.403543e-007
-2.651793e-007
-2.883296e-007
-3.092840e-007
-3.275505e-007
-3.426829e-007
-3.543043e-007
-3.621098e-007
-3.658520e-007
-3.653354e-007
-3.604365e-007
-3.511377e-007
-3.375515e-007
-3.199237e-007
-2.986294e-007
-2.741836e-007
-2.472566e-007
-2.186649e-007
-1.893175e-007
-1.601390e-007
-1.320140e-007
-1.057601e-007
-8.209046e-008
-6.153337e-008
-4.434925e-008
-3.052350e-008
-1.985288e-008
-1.203916e-008
-6.697316e-009
-3.308385e-009
-1.248433e-009
4.819655e-011
9.164141e-010
1.457404e-009
1.704915e-009
1.755567e-009
1.706890e-009
1.517627e-009
1.045036e-009
2.960170e-010
-4.035763e-010
-6.093794e-010
-1.992014e-010
4.246550e-010
6.604842e-010
2.755156e-010
-3.702892e-010
-6.874064e-010
-4.269589e-010
1.232659e-010
4.725497e-010
3.974516e-010
7.811829e-011
-1.598536e-010
-1.665904e-010
-4.041984e-011
4.403995e-011
2.233957e-011
-3.444096e-011
-4.375146e-010
-3.547499e-010
-1.597480e-010
1.565015e-010
4.770804e-010
5.454755e-010
1.830826e-010
-4.123262e-010
-6.881755e-010
-2.325026e-010
6.977962e-010
1.263478e-009
8.088715e-010
-4.253892e-010
-1.427312e-009
-1.311244e-009
-9.549050e-011
1.397908e-009
2.341500e-009
2.542652e-009
2.358316e-009
2.141659e-009
1.874096e-009
1.258852e-009
-2.585917e-011
-2.303981e-009
-6.103007e-009
-1.226397e-008
-2.178116e-008
-3.553336e-008
-5.416469e-008
-7.814871e-008
-1.078487e-007
-1.434352e-007
-1.847348e-007
-2.311762e-007
-2.818838e-007
-3.358144e-007
-3.918261e-007
-4.486857e-007
-5.050935e-007
-5.597600e-007
-6.114919e-007
-6.592264e-007
-7.020126e-007
-7.389890e-007
-7.693869e-007
-7.925475e-007
-8.079252e-007
-8.150742e-007
-8.136457e-007
-8.034145e-007
-7.843255e-007
-7.565319e-007
-7.204157e-007
-6.766071e-007
-6.260166e-007
-5.698615e-007
-5.096470e-007
-4.470902e-007
-3.840166e-007
-3.222716e-007
-2.636393e-007
-2.097214e-007
-1.617722e-007
-1.205635e-007
-8.637121e-008
-5.907350e-008
-3.825037e-008
-2.320321e-008
-1.295738e-008
-6.375646e-009
-2.386711e-009
-1.618889e-010
9.031777e-010
1.320405e-009
1.531285e-009
1.753428e-009
1.869651e-009
1.599507e-009
8.661784e-010
-1.759857e-011
-5.744153e-010
-5.757053e-010
-2.056845e-010
1.691250e-010
3.286980e-010
2.819921e-010
1.196049e-010
-8.627383e-011
-2.282954e-010
-1.533683e-010
1.604239e-010
4.501395e-010
3.513757e-010
-1.726657e-010
-6.669318e-010
-5.935080e-010
6.422146e-011
7.057386e-010
-1.614474e-009
5.235852e-011
1.504741e-009
1.330997e-009
-1.177148e-010
-1.354323e-009
-1.353558e-009
-3.620637e-010
6.733439e-010
1.116906e-009
9.795454e-010
5.336953e-010
-3.848045e-011
-5.528380e-010
-6.579388e-010
-5.463645e-011
1.088783e-009
2.119358e-009
2.436652e-009
2.027932e-009
1.389658e-009
9.027843e-010
3.048587e-010
-1.285538e-009
-4.985427e-009
-1.191078e-008
-2.327738e-008
-4.056935e-008
-6.546022e-008
-9.950967e-008
-1.439034e-007
-1.993860e-007
-2.662765e-007
-3.444029e-007
-4.329686e-007
-5.305094e-007
-6.350288e-007
-7.442267e-007
-8.556815e-007
-9.669450e-007
-1.075612e-006
-1.179420e-006
-1.276349e-006
-1.364663e-006
-1.442883e-006
-1.509730e-006
-1.564100e-006
-1.605055e-006
-1.631812e-006
-1.643724e-006
-1.640274e-006
-1.621099e-006
-1.586054e-006
-1.535260e-006
-1.469155e-006
-1.388562e-006
-1.294765e-006
-1.189583e-006
-1.075380e-006
-9.550036e-007
-8.316768e-007
-7.088721e-007
-5.901344e-007
-4.788143e-007
-3.777375e-007
-2.889331e-007
-2.135306e-007
-1.518084e-007
-1.032850e-007
-6.679546e-008
-4.062561e-008
-2.278580e-008
-1.134466e-008
-4.624032e-009
-1.172918e-009
3.147666e-010
9.198663e-010
1.283163e-009
1.531196e-009
1.514779e-009
1.169757e-009
6.514515e-010
1.706689e-010
-1.811191e-010
-3.760869e-010
-3.130047e-010
9.227526e-011
6.376806e-010
8.272282e-010
3.409282e-010
-4.827193e-010
-8.399981e-010
-3.050727e-010
5.921894e-010
8.416585e-010
8.102478e-011
-9.054972e-010
-9.940969e-010
3.885579e-012
1.068027e-009
-2.412349e-009
3.290040e-010
2.592991e-009
2.028172e-009
-5.819164e-010
-2.490816e-009
-1.972793e-009
1.432454e-010
1.700740e-009
1.503907e-009
2.063929e-010
-7.549612e-010
-6.543528e-010
1.629644e-010
1.026914e-009
1.645820e-009
2.064535e-009
2.266105e-009
2.093478e-009
1.502705e-009
6.041720e-010
-7.655624e-010
-3.543891e-009