# vtk DataFile Version 3.0
vtk output
ASCII
DATASET STRUCTURED_POINTS
DIMENSIONS 100 100 1
SPACING 1 1 1
ORIGIN 0 0 0
POINT_DATA 10000
SCALARS SFBox_profile double
LOOKUP_TABLE default 
0.000000e+000
0.000000e+000
0.000000e+000
0.000000e+000
0.000000e+000
0.000000e+000
0.000000e+000
0.000000e+000
0.000000e+000
0.000000e+000
0.000000e+000
0.000000e+000
0.000000e+000
0.000000e+000
0.000000e+000
0.000000e+000
0.000000e+000
0.000000e+000
0.000000e+000
0.000000e+000
0.000000e+000
0.000000e+000
0.000000e+000
0.000000e+000
0.000000e+000
0.000000e+000
0.000000e+000
0.000000e+000
0.000000e+000
0.000000e+000
0.000000e+000
0.000000e+000
0.000000e+000
0.000000e+000
0.000000e+000
0.000000e+000
0.000000e+000
0.000000e+000
0.000000e+000
0.000000e+000
0.000000e+000
0.000000e+000
0.000000e+000
0.000000e+000
0.000000e+000
0.000000e+000
0.000000e+000
0.000000e+000
0.000000e+000
0.000000e+000
0.000000e+000
0.000000e+000
0.000000e+000
0.000000e+000
0.000000e+000
0.000000e+000
0.000000e+000
0.000000e+000
0.000000e+000
0.000000e+000
0.000000e+000
0.000000e+000
0.000000e+000
0.000000e+000
0.000000e+000
0.000000e+000
0.000000e+000
0.000000e+000
0.000000e+000
0.000000e+000
0.000000e+000
0.000000e+000
0.000000e+000
0.000000e+000
0.000000e+000
0.000000e+000
0.000000e+000
0.000000e+000
0.000000e+000
0.000000e+000
0.000000e+000
0.000000e+000
0.000000e+000
0.000000e+000
0.000000e+000
0.000000e+000
0.000000e+000
0.000000e+000
0.000000e+000
0.000000e+000
0.000000e+000
0.000000e+000
0.000000e+000
0.000000e+000
0.000000e+000
0.000000e+000
0.000000e+000
0.000000e+000
0.000000e+000
0.000000e+000
3.492920e-017
1.259464e-017
9.347612e-017
6.485318e-017
7.244260e-017
4.273546e-017
1.583114e-016
1.047518e-016
1.871512e-016
8.501934e-017
8.198358e-017
-9.864450e-017
-5.117255e-016
-1.129287e-015
-2.135860e-015
-3.927179e-015
-6.418893e-015
-1.011342e-014
-1.540498e-014
-2.237661e-014
-3.186989e-014
-4.408668e-014
-5.959554e-014
-7.849232e-014
-1.012489e-013
-1.279625e-013
-1.583067e-013
-1.921995e-013
-2.288477e-013
-2.675212e-013
-3.071226e-013
-3.461766e-013
-3.838618e-013
-4.186048e-013
-4.488087e-013
-4.740678e-013
-4.928943e-013
-5.051950e-013
-5.104593e-013
-5.090980e-013
-5.015729e-013
-4.885185e-013
-4.714746e-013
-4.514420e-013
-4.302051e-013
-4.087982e-013
-3.891503e-013
-3.722315e-013
-3.592369e-013
-3.508918e-013
-3.476915e-013
-3.496298e-013
-3.562846e-013
-3.669625e-013
-3.804077e-013
-3.953114e-013
-4.100728e-013
-4.229414e-013
-4.326899e-013
-4.374808e-013
-4.368584e-013
-4.296955e-013
-4.159593e-013
-3.959552e-013
-3.702477e-013
-3.399342e-013
-3.062684e-013
-2.707021e-013
-2.345446e-013
-1.992024e-013
-1.657424e-013
-1.349450e-013
-1.075769e-013
-8.383787e-014
-6.388074e-014
-4.756437e-014
-3.450016e-014
-2.444375e-014
-1.687928e-014
-1.124272e-014
-7.175666e-015
-4.497253e-015
-2.664301e-015
-1.439586e-015
-7.884139e-016
-3.415058e-016
-3.641130e-017
-7.349101e-017
1.288211e-016
3.053660e-018
1.197138e-016
8.653723e-017
8.523618e-017
6.441950e-017
3.053660e-018
5.097540e-017
3.774813e-017
-6.487319e-018
7.569521e-017
-2.296719e-017
8.176674e-017
4.728911e-017
-7.788362e-018
1.097392e-016
-1.451042e-017
1.851996e-016
9.607821e-017
1.598293e-016
3.818181e-017
9.044035e-017
-2.257130e-016
-6.804274e-016
-1.283461e-015
-2.360724e-015
-4.382327e-015
-6.831540e-015
-1.077652e-014
-1.641285e-014
-2.403631e-014
-3.418965e-014
-4.725277e-014
-6.398591e-014
-8.421322e-014
-1.085026e-013
-1.363930e-013
-1.679056e-013
-2.016759e-013
-2.371894e-013
-2.725031e-013
-3.059425e-013
-3.352784e-013
-3.584220e-013
-3.731464e-013
-3.774129e-013
-3.695249e-013
-3.481477e-013
-3.131210e-013
-2.640678e-013
-2.023832e-013
-1.292874e-013
-4.739176e-014
4.063635e-014
1.315194e-013
2.215539e-013
3.072081e-013
3.843243e-013
4.501150e-013
5.011007e-013
5.355105e-013
5.510067e-013
5.472871e-013
5.241263e-013
4.828850e-013
4.251222e-013
3.537448e-013
2.723512e-013
1.847231e-013
9.481783e-014
7.271545e-015
-7.426263e-014
-1.464497e-013
-2.066134e-013
-2.532800e-013
-2.854511e-013
-3.031522e-013
-3.075014e-013
-3.002696e-013
-2.835256e-013
-2.594114e-013
-2.309238e-013
-2.002667e-013
-1.688033e-013
-1.389888e-013
-1.115223e-013
-8.732141e-014
-6.670509e-014
-4.957209e-014
-3.595278e-014
-2.532933e-014
-1.735849e-014
-1.158490e-014
-7.462546e-015
-4.570978e-015
-2.705717e-015
-1.491844e-015
-7.550205e-016
-3.954991e-016
-7.500890e-017
-2.687032e-017
2.235246e-017
1.714829e-017
7.265944e-017
2.408718e-017
1.108234e-016
7.179208e-017
1.237780e-017
-4.551860e-017
4.515744e-019
2.836819e-018
-6.487319e-018
1.389568e-017
6.398582e-017
1.340253e-016
7.114156e-017
2.005953e-016
5.010803e-017
1.550588e-016
-1.537778e-017
-1.062339e-016
-3.213396e-016
-9.441054e-016
-1.758992e-015
-3.322845e-015
-5.557169e-015
-8.847072e-015
-1.414275e-014
-2.118746e-014
-3.100448e-014
-4.388588e-014
-6.066586e-014
-8.161655e-014
-1.068874e-013
-1.362155e-013
-1.692687e-013
-2.046139e-013
-2.403333e-013
-2.737933e-013
-3.014702e-013
-3.191776e-013
-3.227223e-013
-3.066876e-013
-2.666435e-013
-1.982197e-013
-9.756734e-014
3.753271e-014
2.078084e-013
4.132246e-013
6.508756e-013
9.167016e-013
1.204641e-012
1.507543e-012
1.816746e-012
2.122876e-012
2.415890e-012
2.685903e-012
2.923524e-012
3.120078e-012
3.267971e-012
3.361305e-012
3.395952e-012
3.370254e-012
3.284666e-012
3.141555e-012
2.946499e-012
2.706749e-012
2.430885e-012
2.129474e-012
1.813972e-012
1.495261e-012
1.184892e-012
8.923197e-013
6.261129e-013
3.925398e-013
1.956374e-013
3.698042e-014
-8.344040e-014
-1.686056e-013
-2.218386e-013
-2.485535e-013
-2.536745e-013
-2.430913e-013
-2.218115e-013
-1.943445e-013
-1.640638e-013
-1.341663e-013
-1.064643e-013
-8.199104e-014
-6.141526e-014
-4.465003e-014
-3.155699e-014
-2.164543e-014
-1.442226e-014
-9.350142e-015
-5.792657e-015
-3.433434e-015
-1.954582e-015
-9.783661e-016
-5.479379e-016
-6.807000e-017
-8.324883e-017
1.779881e-017
2.387034e-017
1.045350e-016
-1.884722e-017
5.466168e-017
2.321982e-017
2.083458e-017
-4.356703e-017
-5.403117e-018
1.969457e-018
3.839865e-017
6.897315e-017
1.181959e-016
4.338598e-017
7.981517e-017
7.959833e-017
-9.083825e-017
-1.829954e-016
-5.520579e-016
-1.223613e-015
-2.332318e-015
-4.286701e-015
-7.292543e-015
-1.194746e-014
-1.858061e-014
-2.795982e-014
-4.079612e-014
-5.819930e-014
-8.025740e-014
-1.073750e-013
-1.397118e-013
-1.764469e-013
-2.157289e-013
-2.546331e-013
-2.888971e-013
-3.126013e-013
-3.180758e-013
-2.963140e-013
-2.373928e-013
-1.299939e-013
3.642574e-014
2.722941e-013
5.860848e-013
9.840527e-013
1.469530e-012
2.041718e-012
2.696047e-012
3.423828e-012
4.211682e-012
5.043323e-012
5.898928e-012
6.756012e-012
7.590870e-012
8.378977e-012
9.096073e-012
9.719651e-012
1.022868e-011
1.060564e-011
1.083670e-011
1.091277e-011
1.082956e-011
1.058819e-011
1.019577e-011
9.664212e-012
9.010818e-012
8.257618e-012
7.429371e-012
6.553737e-012
5.658948e-012
4.772578e-012
3.920346e-012
3.124515e-012
2.403084e-012
1.768727e-012
1.228725e-012
7.851174e-013
4.349340e-013
1.712675e-013
-1.596377e-014
-1.384424e-013
-2.086248e-013
-2.392285e-013
-2.412521e-013
-2.246961e-013
-1.976327e-013
-1.658680e-013
-1.336244e-013
-1.040177e-013
-7.826940e-014
-5.716823e-014
-4.043704e-014
-2.768183e-014
-1.845505e-014
-1.190170e-014
-7.333526e-015
-4.347850e-015
-2.494948e-015
-1.292568e-015
-6.067016e-016
-2.339529e-016
-4.335019e-017
-6.026375e-017
3.861549e-017
3.991653e-017
3.102608e-017
6.550370e-017
3.232712e-017
1.422652e-016
-4.102075e-018
6.593739e-017
1.314232e-016
9.109088e-017
9.911397e-017
1.492041e-016
7.786361e-017
2.799031e-017
-2.853441e-016
-7.608752e-016
-1.600481e-015
-3.075864e-015
-5.496670e-015
-9.355563e-015
-1.526121e-014
-2.396757e-014
-3.629972e-014
-5.316752e-014
-7.542858e-014
-1.038505e-013
-1.388282e-013
-1.793697e-013
-2.235670e-013
-2.674740e-013
-3.054427e-013
-3.279978e-013
-3.232308e-013
-2.752345e-013
-1.656312e-013
2.764826e-014
3.277567e-013
7.593665e-013
1.345381e-012
2.106873e-012
3.059753e-012
4.214118e-012
5.572284e-012
7.127589e-012
8.864368e-012
1.075748e-011
1.277294e-011
1.486919e-011
1.699819e-011
1.910742e-011
2.114168e-011
2.304507e-011
2.476335e-011
2.624530e-011
2.744532e-011
2.832473e-011
2.885384e-011
2.901233e-011
2.879160e-011
2.819457e-011
2.723635e-011
2.594402e-011
2.435611e-011
2.252083e-011
2.049444e-011
1.833920e-011
1.611916e-011
1.389892e-011
1.173894e-011
9.693349e-012
7.806848e-012
6.113539e-012
4.635448e-012
3.382208e-012
2.352550e-012
1.534922e-012
9.099781e-013
4.534520e-013
1.378127e-013
-6.460130e-014
-1.805767e-013
-2.338548e-013
-2.446918e-013
-2.291828e-013
-1.995851e-013
-1.645261e-013
-1.296248e-013
-9.824778e-014
-7.197995e-014
-5.075994e-014
-3.463439e-014
-2.289812e-014
-1.473104e-014
-9.104461e-015
-5.273758e-015
-3.021220e-015
-1.735139e-015
-7.224944e-016
-3.109313e-016
-6.156479e-017
-1.884722e-017
9.087404e-017
4.571543e-018
-7.571522e-018
6.463634e-017
2.148510e-017
-6.326277e-019
-2.318403e-017
1.021497e-016
2.376750e-016
1.483368e-016
5.444484e-017
-7.392469e-017
-3.751161e-016
-8.521650e-016
-1.890180e-015
-3.708387e-015
-6.694063e-015
-1.163803e-014
-1.904768e-014
-2.984698e-014
-4.532375e-014
-6.684798e-014
-9.504787e-014
-1.311295e-013
-1.742527e-013
-2.230548e-013
-2.732905e-013
-3.174349e-013
-3.439956e-013
-3.354209e-013
-2.684012e-013
-1.122943e-013
1.702991e-013
6.228256e-013
1.294128e-012
2.235407e-012
3.497802e-012
5.128535e-012
7.166820e-012
9.640699e-012
1.256318e-011
1.592941e-011
1.971546e-011
2.387729e-011
2.835166e-011
3.305767e-011
3.789934e-011
4.276921e-011
4.755205e-011
5.212833e-011
5.637984e-011
6.019196e-011
6.345886e-011
6.608655e-011
6.799598e-011
6.912631e-011
6.943776e-011
6.891244e-011
6.755714e-011
6.540322e-011
6.250633e-011
5.894592e-011
5.482176e-011
5.025157e-011
4.536553e-011
4.030150e-011
3.519768e-011
3.018753e-011
2.539236e-011
2.091635e-011
1.684145e-011
1.322533e-011
1.009997e-011
7.471876e-012
5.325314e-012
3.626570e-012
2.327295e-012
1.371828e-012
7.001544e-013
2.538647e-013
-2.099794e-014
-1.718295e-013
-2.377104e-013
-2.493021e-013
-2.300089e-013
-1.955410e-013
-1.566574e-013
-1.198332e-013
-8.765513e-014
-6.210308e-014
-4.221426e-014
-2.780478e-014
-1.769828e-014
-1.071255e-014
-6.323483e-015
-3.444709e-015
-1.884759e-015
-9.146151e-016
-4.089432e-016
-1.283516e-016
-1.320937e-017
4.642175e-017
3.276080e-017
2.647243e-017
-1.602830e-017
5.401116e-017
7.114156e-017
2.099194e-016
1.049687e-016
7.569521e-017
-3.142397e-017
-3.970169e-016
-1.116060e-015
-2.257942e-015
-4.421142e-015
-7.924416e-015
-1.393567e-014
-2.268344e-014
-3.616506e-014
-5.524008e-014
-8.165342e-014
-1.164778e-013
-1.603498e-013
-2.121278e-013
-2.682537e-013
-3.211678e-013
-3.575454e-013
-3.560264e-013
-2.855162e-013
-1.031469e-013
2.475182e-013
8.367604e-013
1.748845e-012
3.079109e-012
4.930628e-012
7.408944e-012
1.061530e-011
1.463894e-011
1.954902e-011
2.538708e-011
3.216139e-011
3.984174e-011
4.835817e-011
5.760053e-011
6.742156e-011
7.764115e-011
8.805319e-011
9.843236e-011
1.085420e-010
1.181428e-010
1.269994e-010
1.348888e-010
1.416069e-010
1.469740e-010
1.508414e-010
1.530949e-010
1.536605e-010
1.525064e-010
1.496461e-010
1.451395e-010
1.390930e-010
1.316576e-010
1.230251e-010
1.134229e-010
1.031053e-010
9.234502e-011
8.142107e-011
7.060677e-011
6.015748e-011
5.029840e-011
4.121526e-011
3.304651e-011
2.587912e-011
1.974903e-011
1.464404e-011
1.051017e-011
7.261342e-012
4.789461e-012
2.974597e-012
1.695219e-012
8.352390e-013
2.912267e-013
-2.555181e-014
-1.872426e-013
-2.488912e-013
-2.517702e-013
-2.236833e-013
-1.832620e-013
-1.415801e-013
-1.040105e-013
-7.335081e-014
-4.975424e-014
-3.257917e-014
-2.062107e-014
-1.242646e-014
-7.196266e-015
-4.025408e-015
-2.098130e-015
-1.012410e-015
-4.412524e-016
-1.654314e-016
2.321982e-017
1.314232e-016
5.379432e-017
1.164612e-016
2.842399e-017
1.497988e-017
1.327242e-016
1.294716e-016
-7.696046e-017
-4.731279e-016
-1.150537e-015
-2.438353e-015
-5.138667e-015
-9.180572e-015
-1.607848e-014
-2.656272e-014
-4.242893e-014
-6.523448e-014
-9.697298e-014
-1.387523e-013
-1.906786e-013
-2.507170e-013
-3.125039e-013
-3.629245e-013
-3.795492e-013
-3.264422e-013
-1.506343e-013
2.223059e-013
8.917763e-013
1.983758e-012
3.651952e-012
6.074051e-012
9.446611e-012
1.397670e-011
1.986795e-011
2.730737e-011
3.644909e-011
4.739897e-011
6.020153e-011
7.482969e-011
9.117914e-011
1.090675e-010
1.282390e-010
1.483720e-010
1.690914e-010
1.899818e-010
2.106034e-010
2.305063e-010
2.492452e-010
2.663926e-010
2.815501e-010
2.943595e-010
3.045112e-010
3.117515e-010
3.158895e-010
3.168026e-010
3.144406e-010
3.088298e-010
3.000745e-010
2.883580e-010
2.739404e-010
2.571550e-010
2.384009e-010
2.181320e-010
1.968432e-010
1.750519e-010
1.532782e-010
1.320222e-010
1.117412e-010
9.282860e-011
7.559668e-011
6.026383e-011
4.695014e-011
3.567803e-011
2.638295e-011
1.892715e-011
1.311919e-011
8.734202e-012
5.534521e-012
3.286584e-012
1.774461e-012
8.092379e-013
2.333392e-013
-7.800161e-014
-2.197777e-013
-2.604141e-013
-2.464671e-013
-2.077125e-013
-1.623779e-013
-1.200491e-013
-8.441379e-014
-5.708171e-014
-3.702375e-014
-2.300458e-014
-1.401351e-014
-7.957376e-015
-4.446078e-015
-2.252087e-015
-1.105435e-015
-4.989319e-016
-1.947048e-016
2.347340e-019
5.574589e-017
5.005224e-018
6.376898e-017
4.533754e-017
1.593956e-016
1.752617e-018
-3.536489e-016
-1.148803e-015
-2.795923e-015
-5.593381e-015
-1.018086e-014
-1.790059e-014
-3.007445e-014
-4.838381e-014
-7.503957e-014
-1.120126e-013
-1.606655e-013
-2.209231e-013
-2.884869e-013
-3.532413e-013
-3.944772e-013
-3.767110e-013
-2.425299e-013
9.425405e-014
7.562475e-013
1.909836e-012
3.770153e-012
6.603854e-012
1.072637e-011
1.649430e-011
2.428971e-011
3.449932e-011
4.748747e-011
6.356667e-011
8.296682e-011
1.058083e-010
1.320801e-010
1.616284e-010
1.941531e-010
2.292152e-010
2.662537e-010
3.046084e-010
3.435472e-010
3.822961e-010
4.200662e-010
4.560809e-010
4.895978e-010
5.199275e-010
5.464484e-010
5.686180e-010
5.859807e-010
5.981749e-010
6.049357e-010
6.061009e-010
6.016112e-010
5.915148e-010
5.759691e-010
5.552437e-010
5.297200e-010
4.998930e-010
4.663651e-010
4.298408e-010
3.911104e-010
3.510311e-010
3.104978e-010
2.704087e-010
2.316252e-010
1.949307e-010
1.609899e-010
1.303165e-010
1.032513e-010
7.995290e-011
6.040473e-011
4.443438e-011
3.174541e-011
2.195426e-011
1.462984e-011
9.330303e-012
5.633051e-012
3.157455e-012
1.577358e-012
6.272164e-013
1.003113e-013
-1.570053e-013
-2.532909e-013
-2.617737e-013
-2.287402e-013
-1.814289e-013
-1.345991e-013
-9.470916e-014
-6.360210e-014
-4.088720e-014
-2.530071e-014
-1.508535e-014
-8.607463e-015
-4.559052e-015
-2.382625e-015
-1.115843e-015
-5.364453e-016
-1.461326e-016
-1.060729e-017
1.140760e-016
1.693145e-017
1.969457e-018
-6.785316e-017
-4.009201e-016
-1.262427e-015
-2.929280e-015
-5.898692e-015
-1.089058e-014
-1.948982e-014
-3.316117e-014
-5.359144e-014
-8.388058e-014
-1.264156e-013
-1.817389e-013
-2.498036e-013
-3.237716e-013
-3.886941e-013
-4.135643e-013
-3.450020e-013
-9.582285e-014
4.668939e-013
1.535648e-012
3.375923e-012
6.338118e-012
1.086439e-011
1.748757e-011
2.682103e-011
3.953458e-011
5.631865e-011
7.783633e-011
1.046674e-010
1.372498e-010
1.758263e-010
2.204003e-010
2.707117e-010
3.262310e-010
3.861766e-010
4.495510e-010
5.151910e-010
5.818268e-010
6.481429e-010
7.128348e-010
7.746562e-010
8.324595e-010
8.852193e-010
9.320509e-010
9.722156e-010
1.005120e-009
1.030309e-009
1.047458e-009
1.056359e-009
1.056910e-009
1.049106e-009
1.033032e-009
1.008865e-009
9.768781e-010
9.374518e-010
8.910930e-010
8.384518e-010
7.803403e-010
7.177427e-010
6.518137e-010
5.838591e-010
5.152968e-010
4.475970e-010
3.822059e-010
3.204621e-010
2.635121e-010
2.122409e-010
1.672234e-010
1.287060e-010
9.661903e-011
7.061762e-011
5.014269e-011
3.449373e-011
2.290200e-011
1.459652e-011
8.855347e-012
5.041063e-012
2.619778e-012
1.164769e-012
3.505785e-013
-5.943941e-014
-2.299142e-013
-2.692727e-013
-2.455564e-013
-1.978417e-013
-1.471802e-013
-1.033244e-013
-6.894418e-014
-4.405654e-014
-2.700204e-014
-1.572395e-014
-9.019026e-015
-4.650342e-015
-2.489527e-015
-1.124300e-015
-4.867889e-016
-5.310801e-017
4.013337e-017
1.454620e-017
1.344590e-016
-5.639841e-016
-1.245514e-015
-2.885911e-015
-6.022508e-015
-1.141772e-014
-2.073231e-014
-3.541393e-014
-5.806009e-014
-9.173151e-014
-1.386350e-013
-2.007827e-013
-2.760728e-013
-3.554266e-013
-4.176837e-013
-4.196662e-013
-2.847043e-013
1.130823e-013
9.695328e-013
2.572717e-012
5.327964e-012
9.779862e-012
1.662788e-011
2.673090e-011
4.109362e-011
6.083065e-011
8.710521e-011
1.210450e-010
1.636376e-010
2.156194e-010
2.773678e-010
3.488155e-010
4.293993e-010
5.180531e-010
6.132499e-010
7.130879e-010
8.154105e-010
9.179448e-010
1.018440e-009
1.114797e-009
1.205162e-009
1.288003e-009
1.362141e-009
1.426753e-009
1.481355e-009
1.525759e-009
1.560015e-009
1.584353e-009
1.599108e-009
1.604654e-009
1.601340e-009
1.589437e-009
1.569096e-009
1.540339e-009
1.503062e-009
1.457082e-009
1.402204e-009
1.338321e-009
1.265520e-009
1.184200e-009
1.095161e-009
9.996623e-010
8.994283e-010
7.965868e-010
6.935499e-010
5.928424e-010
4.969059e-010
4.078995e-010
3.275340e-010
2.569579e-010
1.967110e-010
1.467477e-010
1.065181e-010
7.508997e-011
5.128915e-011
3.383533e-011
2.146084e-011
1.299722e-011
7.430518e-012
3.927388e-012
1.834550e-012
6.641203e-013
6.738665e-014
-1.925890e-013
-2.695177e-013
-2.576357e-013
-2.110070e-013
-1.572997e-013
-1.100044e-013
-7.279483e-014
-4.598425e-014
-2.788610e-014
-1.611036e-014
-8.974357e-015
-4.629525e-015
-2.368313e-015
-1.159211e-015
-3.590699e-016
-6.633528e-017
6.008269e-017
4.728911e-017
-1.710853e-015
-2.857939e-015
-5.925147e-015
-1.165429e-014
-2.114192e-014
-3.682274e-014
-6.122835e-014
-9.745978e-014
-1.488573e-013
-2.166949e-013
-2.986469e-013
-3.826555e-013
-4.405989e-013
-4.147789e-013
-2.014398e-013
3.733513e-013
1.584781e-012
3.845643e-012
7.747300e-012
1.409881e-011
2.395944e-011
3.865099e-011
5.974364e-011
8.900047e-011
1.282760e-010
1.793654e-010
2.438115e-010
3.226886e-010
4.163871e-010
5.244356e-010
6.453912e-010
7.768272e-010
9.154299e-010
1.057205e-009
1.197766e-009
1.332680e-009
1.457808e-009
1.569623e-009
1.665448e-009
1.743611e-009
1.803500e-009
1.845526e-009
1.871022e-009
1.882071e-009
1.881314e-009
1.871718e-009
1.856346e-009
1.838118e-009
1.819582e-009
1.802698e-009
1.788660e-009
1.777753e-009
1.769290e-009
1.761614e-009
1.752211e-009
1.737924e-009
1.715254e-009
1.680755e-009
1.631449e-009
1.565238e-009
1.481250e-009
1.380039e-009
1.263640e-009
1.135416e-009
9.997467e-010
8.615814e-010
7.259323e-010
5.973834e-010
4.796877e-010
3.755033e-010
2.862922e-010
2.123722e-010
1.530936e-010
1.070880e-010
7.254394e-011
4.746477e-011
2.987888e-011
1.798931e-011
1.025992e-011
5.448812e-012
2.601938e-012
1.019248e-012
2.121311e-013
-1.469246e-013
-2.647075e-013
-2.658015e-013
-2.203955e-013
-1.645736e-013
-1.142907e-013
-7.514322e-014
-4.677572e-014
-2.797717e-014
-1.583974e-014
-8.790260e-015
-4.530863e-015
-2.185083e-015
-9.360823e-016
-3.742487e-016
-2.166615e-017
9.065720e-017
-3.803580e-015
-6.126592e-015
-1.154370e-014
-2.117749e-014
-3.731453e-014
-6.284012e-014
-1.011886e-013
-1.559059e-013
-2.291264e-013
-3.168416e-013
-4.051076e-013
-4.583870e-013
-4.036226e-013
-1.064708e-013
6.625091e-013
2.272848e-012
5.290608e-012
1.054191e-011
1.917885e-011
3.273602e-011
5.316084e-011
8.279846e-011
1.243079e-010
1.804924e-010
2.540309e-010
3.471208e-010
4.610543e-010
5.957796e-010
7.495146e-010
9.184924e-010
1.096905e-009
1.277099e-009
1.450030e-009
1.605944e-009
1.735210e-009
1.829205e-009
1.881121e-009
1.886624e-009
1.844271e-009
1.755661e-009
1.625340e-009
1.460484e-009
1.270420e-009
1.066043e-009
8.591711e-010
6.618810e-010
4.858359e-010
3.416299e-010
2.381560e-010
1.820197e-010
1.770242e-010
2.237710e-010
3.194204e-010
4.576717e-010
6.290037e-010
8.212104e-010
1.020230e-009
1.211231e-009
1.379859e-009
1.513534e-009
1.602625e-009
1.641345e-009
1.628239e-009
1.566158e-009
1.461748e-009
1.324496e-009
1.165511e-009
9.962267e-010
8.272051e-010
6.672248e-010
5.227286e-010
3.976559e-010
2.936109e-010
2.102682e-010
1.459054e-010
9.795252e-011
6.348115e-011
3.958298e-011
2.362404e-011
1.338182e-011
7.087942e-012
3.408295e-012
1.384148e-012
3.578488e-013
-1.001787e-013
-2.571979e-013
-2.703543e-013
-2.263424e-013
-1.683473e-013
-1.159159e-013
-7.529305e-014
-4.650965e-014
-2.729651e-014
-1.530480e-014
-8.174433e-015
-4.205169e-015
-2.027440e-015
-8.385041e-016
-2.666958e-016
-1.841354e-017
-7.780651e-015
-1.180000e-014
-2.086610e-014
-3.691034e-014
-6.275187e-014
-1.024352e-013
-1.598140e-013
-2.368027e-013
-3.300749e-013
-4.225600e-013
-4.726612e-013
-3.919501e-013
-1.466989e-014
9.485561e-013
2.973553e-012
6.802894e-012
1.354326e-011
2.476697e-011
4.260657e-011
6.981221e-011
1.097392e-010
1.662202e-010
2.432842e-010
3.446866e-010
4.732473e-010
6.300263e-010
8.134229e-010
1.018321e-009
1.235457e-009
1.451170e-009
1.647693e-009
1.804053e-009
1.897550e-009
1.905695e-009
1.808369e-009
1.589942e-009
1.241073e-009
7.599627e-010
1.529498e-010
-5.655801e-010
-1.373903e-009
-2.244141e-009
-3.143765e-009
-4.037264e-009
-4.887879e-009
-5.659310e-009
-6.317384e-009
-6.831656e-009
-7.176954e-009
-7.334809e-009
-7.294755e-009
-7.055369e-009
-6.624961e-009
-6.021750e-009
-5.273407e-009
-4.415852e-009
-3.491269e-009
-2.545407e-009
-1.624324e-009
-7.708873e-010
-2.139717e-011
5.972357e-010
1.069364e-009
1.391256e-009
1.570429e-009
1.623775e-009
1.574791e-009
1.450370e-009
1.277645e-009
1.081318e-009
8.817844e-010
6.941560e-010
5.281482e-010
3.886349e-010
2.766220e-010
1.903905e-010
1.265940e-010
8.117982e-011
5.006284e-011
2.955353e-011
1.657274e-011
8.709720e-012
4.177842e-012
1.718115e-012
4.856619e-013
-6.092564e-014
-2.503212e-013
-2.721835e-013
-2.284943e-013
-1.687673e-013
-1.150490e-013
-7.365157e-014
-4.479770e-014
-2.607765e-014
-1.432967e-014
-7.651631e-015
-3.649623e-015
-1.723213e-015
-6.886673e-016
-2.907651e-016
-1.447148e-014
-2.136809e-014
-3.610413e-014
-6.155838e-014
-1.013460e-013
-1.600590e-013
-2.398209e-013
-3.376431e-013
-4.349778e-013
-4.849428e-013
-3.859989e-013
5.758677e-014
1.195288e-012
3.612945e-012
8.245848e-012
1.651506e-011
3.048070e-011
5.298778e-011
8.776602e-011
1.394232e-010
2.132559e-010
3.147928e-010
4.489891e-010
6.190296e-010
8.247595e-010
1.060854e-009
1.314956e-009
1.566101e-009
1.783824e-009
1.928325e-009
1.951960e-009
1.802150e-009
1.425543e-009
7.730030e-010
-1.951666e-010
-1.504450e-009
-3.162422e-009
-5.156577e-009
-7.453871e-009
-1.000191e-008
-1.273151e-008
-1.556022e-008
-1.839636e-008
-2.114327e-008
-2.370346e-008
-2.598257e-008
-2.789313e-008
-2.935806e-008
-3.031414e-008
-3.071517e-008
-3.053500e-008
-2.976997e-008
-2.844077e-008
-2.659314e-008
-2.429716e-008
-2.164485e-008
-1.874590e-008
-1.572149e-008
-1.269665e-008
-9.791613e-009
-7.113177e-009
-4.746994e-009
-2.751841e-009
-1.156673e-009
3.911789e-011
8.623305e-010
1.360058e-009
1.592261e-009
1.623991e-009
1.518371e-009
1.331193e-009
1.107568e-009
8.806356e-010
6.720215e-010
4.935009e-010
3.492850e-010
2.384184e-010
1.569214e-010
9.947482e-011
6.059085e-011
3.531464e-011
1.955469e-011
1.015673e-011
4.826858e-012
1.980720e-012
5.769977e-013
-3.613514e-014
-2.465736e-013
-2.720558e-013
-2.269560e-013
-1.657090e-013
-1.115000e-013
-7.027124e-014
-4.213013e-014
-2.395543e-014
-1.299371e-014
-6.656333e-015
-3.179730e-015
-1.564269e-015
-7.417932e-016
-2.583565e-014
-3.652784e-014
-5.968184e-014
-9.827315e-014
-1.567845e-013
-2.382046e-013
-3.391389e-013
-4.420002e-013
-4.963061e-013
-3.902774e-013
9.659376e-014
1.367600e-012
4.115245e-012
9.468917e-012
1.918080e-011
3.584326e-011
6.310495e-011
1.058301e-010
1.701072e-010
2.629775e-010
3.917187e-010
5.625143e-010
7.783683e-010
1.036219e-009
1.323366e-009
1.613541e-009
1.863202e-009
2.008836e-009
1.966139e-009
1.631862e-009
8.888036e-010
-3.860693e-010
-2.310975e-009
-4.987308e-009
-8.487799e-009
-1.284643e-008
-1.805143e-008
-2.404228e-008
-3.071070e-008
-3.790545e-008
-4.543986e-008
-5.310106e-008
-6.065990e-008
-6.788075e-008
-7.453060e-008
-8.038745e-008
-8.524789e-008
-8.893429e-008
-9.130158e-008
-9.224386e-008
-9.170067e-008
-8.966255e-008
-8.617539e-008
-8.134271e-008
-7.532515e-008
-6.833632e-008
-6.063439e-008
-5.250939e-008
-4.426657e-008
-3.620693e-008
-2.860678e-008
-2.169855e-008
-1.565529e-008
-1.058107e-008
-6.508619e-009
-3.404435e-009
-1.180464e-009
2.897497e-010
1.153052e-009
1.559530e-009
1.648432e-009
1.538497e-009
1.323040e-009
1.069296e-009
8.209280e-010
6.024124e-010
4.240996e-010
2.870178e-010
1.868695e-010
1.169897e-010
7.029459e-011
4.038424e-011
2.203159e-011
1.127259e-011
5.278668e-012
2.137249e-012
6.183292e-013
-3.066426e-014
-2.468271e-013
-2.698742e-013
-2.218232e-013
-1.595716e-013
-1.055041e-013
-6.527871e-014
-3.830701e-014
-2.140408e-014
-1.132599e-014
-5.740182e-015
-2.819125e-015
-1.538465e-015
-4.358209e-014
-6.018101e-014
-9.480522e-014
-1.508353e-013
-2.316469e-013
-3.349853e-013
-4.434664e-013
-5.063239e-013
-4.069093e-013
9.281249e-014
1.438790e-012
4.415465e-012
1.033154e-011
2.126238e-011
4.034366e-011
7.207728e-011
1.225727e-010
1.995877e-010
3.121569e-010
4.695255e-010
6.790520e-010
9.427465e-010
1.252218e-009
1.582038e-009
1.881913e-009
2.068558e-009
2.018681e-009
1.564882e-009
4.963594e-010
-1.434014e-009
-4.495532e-009
-8.958899e-009
-1.507073e-008
-2.302635e-008
-3.294450e-008
-4.484759e-008
-5.865007e-008
-7.415643e-008
-9.106834e-008
-1.089994e-007
-1.274953e-007
-1.460557e-007
-1.641573e-007
-1.812738e-007
-1.968950e-007
-2.105421e-007
-2.217818e-007
-2.302388e-007
-2.356079e-007
-2.376661e-007
-2.362842e-007
-2.314387e-007
-2.232207e-007
-2.118428e-007
-1.976405e-007
-1.810668e-007
-1.626778e-007
-1.431098e-007
-1.230463e-007
-1.031779e-007
-8.415739e-008
-6.655546e-008
-5.082228e-008
-3.726000e-008
-2.601062e-008
-1.706080e-008
-1.026260e-008
-5.366273e-009
-2.059616e-009
-7.476338e-012
1.113996e-009
1.592069e-009
1.662614e-009
1.505170e-009
1.245821e-009
9.651298e-010
7.083987e-010
4.960467e-010
3.326675e-010
2.140735e-010
1.322190e-010
7.826973e-011
4.425273e-011
2.373608e-011
1.192783e-011
5.476950e-012
2.166673e-012
6.034917e-013
-4.521642e-014
-2.508041e-013
-2.652093e-013
-2.131489e-013
-1.500531e-013
-9.731819e-014
-5.929218e-014
-3.404198e-014
-1.848433e-014
-9.760837e-015
-5.059737e-015
-3.024906e-015
-7.078407e-014
-9.522568e-014
-1.448626e-013
-2.219936e-013
-3.251106e-013
-4.386526e-013
-5.140714e-013
-4.346087e-013
4.447724e-014
1.395931e-012
4.471734e-012
1.072753e-011
2.252515e-011
4.351254e-011
7.903719e-011
1.364983e-010
2.254436e-010
3.571002e-010
5.428779e-010
7.912430e-010
1.102289e-009
1.459383e-009
1.817554e-009
2.088891e-009
2.126066e-009
1.706240e-009
5.186386e-010
-1.840200e-009
-5.859537e-009
-1.209302e-008
-2.112199e-008
-3.350557e-008
-4.972278e-008
-7.011418e-008
-9.483145e-008
-1.238026e-007
-1.567176e-007
-1.930361e-007
-2.320138e-007
-2.727447e-007
-3.142090e-007
-3.553241e-007
-3.949911e-007
-4.321345e-007
-4.657354e-007
-4.948564e-007
-5.186625e-007
-5.364386e-007
-5.476066e-007
-5.517433e-007
-5.485993e-007
-5.381192e-007
-5.204611e-007
-4.960125e-007
-4.653998e-007
-4.294866e-007
-3.893572e-007
-3.462814e-007
-3.016596e-007
-2.569478e-007
-2.135692e-007
-1.728187e-007
-1.357734e-007
-1.032198e-007
-7.561096e-008
-5.305892e-008
-3.536463e-008
-2.207859e-008
-1.258148e-008
-6.170513e-009
-2.138564e-009
1.638726e-010
1.288685e-009
1.672177e-009
1.635453e-009
1.397515e-009
1.095111e-009
8.042438e-010
5.598458e-010
3.717164e-010
2.361680e-010
1.437319e-010
8.371301e-011
4.650491e-011
2.447421e-011
1.204351e-011
5.396303e-012
2.064872e-012
5.348118e-013
-7.686775e-014
-2.567109e-013
-2.576173e-013
-2.008938e-013
-1.382620e-013
-8.760547e-014
-5.220822e-014
-2.956206e-014
-1.588203e-014
-8.602259e-015
-5.474553e-015
-1.110229e-013
-1.450441e-013
-2.127909e-013
-3.114770e-013
-4.277945e-013
-5.172535e-013
-4.692913e-013
-4.227866e-014
1.242888e-012
4.273694e-012
1.060452e-011
2.281864e-011
4.499831e-011
8.326259e-011
1.462570e-010
2.453484e-010
3.940867e-010
6.062392e-010
8.914178e-010
1.247066e-009
1.645485e-009
2.014802e-009
2.213541e-009
1.999810e-009
9.981245e-010
-1.330798e-009
-5.709818e-009
-1.304611e-008