# vtk DataFile Version 3.0
vtk output
ASCII
DATASET STRUCTURED_POINTS
DIMENSIONS 100 100 1
SPACING 1 1 1
ORIGIN 0 0 0
POINT_DATA 10000
SCALARS SFBox_profile double
LOOKUP_TABLE default 
0.000000e+000
0.000000e+000
0.000000e+000
0.000000e+000
0.000000e+000
0.000000e+000
0.000000e+000
0.000000e+000
0.000000e+000
0.000000e+000
0.000000e+000
0.000000e+000
0.000000e+000
0.000000e+000
0.000000e+000
0.000000e+000
0.000000e+000
0.000000e+000
0.000000e+000
0.000000e+000
0.000000e+000
0.000000e+000
0.000000e+000
0.000000e+000
0.000000e+000
0.000000e+000
0.000000e+000
0.000000e+000
0.000000e+000
0.000000e+000
0.000000e+000
0.000000e+000
0.000000e+000
0.000000e+000
0.000000e+000
0.000000e+000
0.000000e+000
0.000000e+000
0.000000e+000
0.000000e+000
0.000000e+000
0.000000e+000
0.000000e+000
0.000000e+000
0.000000e+000
0.000000e+000
0.000000e+000
0.000000e+000
0.000000e+000
0.000000e+000
0.000000e+000
0.000000e+000
0.000000e+000
0.000000e+000
0.000000e+000
0.000000e+000
0.000000e+000
0.000000e+000
0.000000e+000
0.000000e+000
0.000000e+000
0.000000e+000
0.000000e+000
0.000000e+000
0.000000e+000
0.000000e+000
0.000000e+000
0.000000e+000
0.000000e+000
0.000000e+000
0.000000e+000
0.000000e+000
0.000000e+000
0.000000e+000
0.000000e+000
0.000000e+000
0.000000e+000
0.000000e+000
0.000000e+000
0.000000e+000
0.000000e+000
0.000000e+000
0.000000e+000
0.000000e+000
0.000000e+000
0.000000e+000
0.000000e+000
0.000000e+000
0.000000e+000
0.000000e+000
0.000000e+000
0.000000e+000
0.000000e+000
0.000000e+000
0.000000e+000
0.000000e+000
0.000000e+000
0.000000e+000
0.000000e+000
0.000000e+000
-5.114121e-013
-5.929971e-012
-1.029117e-011
-7.631069e-012
-3.518895e-013
1.764111e-012
-4.849573e-012
-9.250973e-012
-1.020247e-012
1.027119e-011
6.595431e-012
-8.057440e-012
-1.024128e-011
5.349371e-012
1.602701e-011
8.483761e-012
-1.174408e-012
1.442349e-012
5.454044e-012
-9.266071e-013
-8.145599e-012
-4.794308e-012
2.670360e-012
4.667668e-012
4.348844e-012
7.130496e-012
9.784856e-012
8.333173e-012
5.076038e-012
2.765188e-012
3.975900e-013
-2.903320e-012
-5.914182e-012
-7.889473e-012
-9.322578e-012
-1.045674e-011
-1.113297e-011
-1.140434e-011
-1.132694e-011
-1.084063e-011
-1.008167e-011
-9.261430e-012
-8.384325e-012
-7.444409e-012
-6.592923e-012
-5.910346e-012
-5.326115e-012
-4.832032e-012
-4.518079e-012
-4.405387e-012
-4.445119e-012
-4.639608e-012
-5.025768e-012
-5.590476e-012
-6.290648e-012
-7.107319e-012
-8.034870e-012
-9.053886e-012
-1.012112e-011
-1.115656e-011
-1.205020e-011
-1.269304e-011
-1.299442e-011
-1.290812e-011
-1.245797e-011
-1.161938e-011
-1.022605e-011
-8.152791e-012
-5.503293e-012
-2.449451e-012
8.848625e-013
4.220873e-012
7.078813e-012
8.955689e-012
9.243625e-012
7.350222e-012
3.470437e-012
-1.335732e-012
-6.235448e-012
-1.043670e-011
-1.164385e-011
-7.490407e-012
4.741026e-013
7.574893e-012
1.155387e-011
1.284671e-011
9.362524e-012
-1.426080e-012
-1.339944e-011
-1.406444e-011
-8.598996e-013
1.267281e-011
1.308926e-011
3.053186e-012
-4.989051e-012
-5.378988e-012
-2.268955e-012
-5.147984e-014
1.319962e-012
2.450872e-012
-5.730602e-012
-3.752222e-012
-3.973344e-012
-6.686920e-012
-6.350207e-012
-4.491366e-013
4.041823e-012
-1.249992e-013
-7.465225e-012
-5.973531e-012
4.026303e-012
9.483607e-012
4.836841e-012
-1.095834e-012
-1.672152e-012
-1.050699e-012
-1.938921e-012
4.424020e-013
7.314150e-012
1.231654e-011
1.202424e-011
9.491509e-012
6.243617e-012
5.652157e-013
-6.491662e-012
-1.138510e-011
-1.329994e-011
-1.363227e-011
-1.241911e-011
-9.092580e-012
-4.516214e-012
8.568170e-014
4.413881e-012
8.392046e-012
1.169464e-011
1.423043e-011
1.614086e-011
1.744587e-011
1.813890e-011
1.831244e-011
1.802937e-011
1.735791e-011
1.648386e-011
1.556919e-011
1.463416e-011
1.369553e-011
1.284421e-011
1.212513e-011
1.151107e-011
1.100994e-011
1.067341e-011
1.051500e-011
1.051256e-011
1.066424e-011
1.098392e-011
1.146519e-011
1.208893e-011
1.283114e-011
1.363795e-011
1.440379e-011
1.497536e-011
1.520012e-011
1.500030e-011
1.435212e-011
1.317134e-011
1.129951e-011
8.634529e-012
5.184878e-012
1.028656e-012
-3.651537e-012
-8.487248e-012
-1.289789e-011
-1.609083e-011
-1.719033e-011
-1.555252e-011
-1.098368e-011
-3.805328e-012
4.829444e-012
1.265704e-011
1.700871e-011
1.615450e-011
9.927446e-012
-1.636072e-013
-1.045482e-011
-1.581404e-011
-1.285830e-011
-2.811460e-012
9.158881e-012
1.656164e-011
1.429387e-011
2.619958e-012
-1.008670e-011
-1.279096e-011
-3.394215e-012
7.778753e-012
9.420341e-012
2.034664e-012
-4.225490e-012
-3.003567e-012
1.381011e-012
-1.344323e-011
-2.443069e-012
6.137226e-012
1.544160e-012
-9.783885e-012
-1.032994e-011
2.853314e-012
9.956913e-012
-1.796900e-012
-1.398427e-011
-4.282314e-012
1.464298e-011
1.369121e-011
-4.219587e-012
-1.000067e-011
2.208422e-012
9.598367e-012
3.323214e-012
-7.518571e-013
4.628839e-012
7.446643e-012
1.779620e-012
-3.355006e-012
-2.606351e-012
-1.008566e-012
-1.545311e-012
-1.136738e-012
1.397541e-012
3.565405e-012
4.329287e-012
4.814570e-012
5.340705e-012
5.293927e-012
4.690265e-012
4.046087e-012
3.589526e-012
3.321674e-012
3.251077e-012
3.347033e-012
3.572845e-012
3.953613e-012
4.503870e-012
5.188594e-012
5.963126e-012
6.769313e-012
7.528569e-012
8.180400e-012
8.693386e-012
9.034320e-012
9.172434e-012
9.100793e-012
8.824160e-012
8.343340e-012
7.666331e-012
6.815084e-012
5.820875e-012
4.734376e-012
3.640427e-012
2.644938e-012
1.827332e-012
1.198933e-012
7.289410e-013
4.325765e-013
4.212564e-013
8.036343e-013
1.528806e-012
2.391235e-012
3.209867e-012
3.908931e-012
4.341834e-012
4.188381e-012
3.192405e-012
1.367313e-012
-1.086719e-012
-3.740316e-012
-5.797781e-012
-6.486624e-012
-5.467963e-012
-2.511616e-012
2.279074e-012
7.032299e-012
8.564404e-012
5.857948e-012
1.124378e-012
-3.837982e-012
-8.541254e-012
-9.403237e-012
-1.226462e-012
1.226512e-011
1.705340e-011
5.882307e-012
-9.563290e-012
-1.260085e-011
-2.751302e-012
6.456897e-012
6.865434e-012
2.631654e-012
-2.624441e-013
-1.398047e-012
-2.111543e-012
-9.079571e-012
-4.254933e-012
4.589484e-012
8.029845e-012
-2.285743e-012
-1.502635e-011
-9.878740e-012
8.953465e-012
1.392332e-011
-1.985585e-012
-1.188448e-011
-8.347240e-013
9.180562e-012
1.777970e-012
-3.910414e-012
7.453292e-012
1.634764e-011
5.317848e-012
-9.364613e-012
-9.435115e-012
-4.031474e-012
-5.309124e-012
-5.771113e-012
2.432904e-012
1.160259e-011
1.408503e-011
1.350013e-011
1.376138e-011
1.244382e-011
8.150168e-012
3.592288e-012
5.115520e-013
-1.730701e-012
-3.255005e-012
-3.389991e-012
-2.165079e-012
-4.003848e-014
2.839629e-012
6.393482e-012
1.043364e-011
1.484981e-011
1.948849e-011
2.404521e-011
2.830008e-011
3.219651e-011
3.564955e-011
3.852661e-011
4.077499e-011
4.239211e-011
4.332726e-011
4.351874e-011
4.295901e-011
4.166834e-011
3.966066e-011
3.695952e-011
3.360470e-011
2.964220e-011
2.514438e-011
2.025413e-011
1.519957e-011
1.024611e-011
5.602629e-012
1.383137e-012
-2.281689e-012
-5.118836e-012
-6.824882e-012
-7.275213e-012
-6.443589e-012
-4.205793e-012
-5.274270e-013
4.215131e-012
9.303166e-012
1.381499e-011
1.657256e-011
1.647358e-011
1.298558e-011
6.032785e-012
-3.694169e-012
-1.343018e-011
-1.893910e-011
-1.791259e-011
-1.108801e-011
2.677999e-013
1.375950e-011
2.216590e-011
1.749982e-011
1.955160e-012
-1.192709e-011
-1.510155e-011
-9.300470e-012
4.501282e-013
1.058905e-011
1.455584e-011
6.077480e-012
-8.328040e-012
-1.212635e-011
-7.975014e-013
9.749436e-012
5.306252e-012
-5.818952e-012
1.161960e-011
-6.037616e-012
-1.422190e-011
-1.008286e-012
1.189011e-011
2.697705e-012
-1.325468e-011
-6.859627e-012
1.361554e-011
1.378197e-011
-6.923833e-012
-1.366210e-011
2.244085e-012
1.139394e-011
2.034358e-012
-4.189525e-012
1.751014e-012
3.823670e-012
-1.897506e-012
-1.388143e-012
6.409671e-012
8.910704e-012
5.037083e-012
3.171682e-012
2.841599e-012
-1.058450e-012
-5.874571e-012
-6.610313e-012
-4.257982e-012
-1.190983e-012
3.544712e-012
1.078551e-011
1.922213e-011
2.790416e-011
3.692511e-011
4.603344e-011
5.477020e-011
6.313206e-011
7.116507e-011
7.872786e-011
8.578887e-011
9.232943e-011
9.817791e-011
1.032743e-010
1.077451e-010
1.116081e-010
1.147357e-010
1.170846e-010
1.186878e-010
1.194994e-010
1.194359e-010
1.184856e-010
1.166806e-010
1.140358e-010
1.105812e-010
1.063882e-010
1.015185e-010
9.597690e-011
8.973785e-011
8.283247e-011
7.541991e-011
6.770606e-011
5.973824e-011
5.139854e-011
4.268636e-011
3.383338e-011
2.504351e-011
1.637260e-011
8.010517e-012
4.560230e-013
-5.642958e-012
-9.644742e-012
-1.103473e-011
-9.599524e-012
-5.463806e-012
6.756338e-013
6.988494e-012
1.094707e-011
1.100688e-011
7.182108e-012
2.713953e-013
-7.452590e-012
-1.140380e-011
-8.039469e-012
7.096502e-013
8.969339e-012
1.172650e-011
6.404753e-012
-5.429074e-012
-1.444689e-011
-9.316871e-012
7.410321e-012
1.726409e-011
8.269718e-012
-8.065945e-012
-1.198070e-011
-1.513291e-012
7.543019e-012
4.672291e-012
-2.977606e-012
2.037196e-011
-6.227700e-013
-2.067211e-011
-1.434941e-011
1.384461e-011
2.532391e-011
1.609001e-012
-2.117279e-011
-7.976282e-012
1.579841e-011
9.905571e-012
-9.517753e-012
-4.510640e-012
1.248982e-011
6.316161e-012
-1.279125e-011
-1.177428e-011
4.587109e-012
1.022036e-011
5.668970e-012
5.947490e-012
8.142431e-012
3.059350e-012
-4.323089e-012
-6.011298e-012
-3.640542e-012
-1.475987e-013
6.290068e-012
1.625653e-011
2.726614e-011
3.816151e-011
4.946247e-011
6.098947e-011
7.225262e-011
8.343092e-011
9.480999e-011
1.064665e-010
1.184746e-010
1.307185e-010
1.428919e-010
1.548466e-010
1.665068e-010
1.776375e-010
1.880192e-010
1.975482e-010
2.060128e-010
2.130810e-010
2.185452e-010
2.223256e-010
2.243094e-010
2.243696e-010
2.224769e-010
2.186643e-010
2.129609e-010
2.054382e-010
1.962845e-010
1.857887e-010
1.742557e-010
1.619128e-010
1.489118e-010
1.354770e-010
1.220162e-010
1.089475e-010
9.644062e-011
8.449425e-011
7.320215e-011
6.268380e-011
5.276296e-011
4.296841e-011
3.291167e-011
2.254844e-011
1.210276e-011
2.007570e-012
-6.835037e-012
-1.289311e-011
-1.458282e-011
-1.115815e-011
-3.100947e-012
7.510260e-012
1.658795e-011
1.950264e-011
1.418656e-011
2.137203e-012
-1.254555e-011
-2.253764e-011
-1.908128e-011
-1.632834e-012
1.618786e-011
1.918988e-011
7.998227e-012
-4.533710e-012
-1.039563e-011
-9.583066e-012
-2.313342e-012
8.230032e-012
1.114987e-011
1.097005e-012
-8.999304e-012
-4.472899e-012
7.233541e-012
-5.151808e-012
1.244062e-011
1.120404e-011
-8.427983e-012
-7.538983e-012
1.673097e-011
1.935531e-011
-1.005873e-011
-2.196897e-011
4.444795e-012
2.181813e-011
2.359732e-012
-1.408760e-011
-3.054709e-013
1.132529e-011
-5.097819e-013
-7.977980e-012
3.586553e-012
8.674256e-012
-3.733640e-012
-1.181569e-011
-5.572988e-012
1.491864e-012
4.701003e-012
1.301014e-011
2.697841e-011
3.889099e-011
4.757739e-011
5.695669e-011
6.753394e-011
7.820236e-011
9.021997e-011
1.051929e-010
1.231385e-010
1.437257e-010
1.669695e-010
1.926173e-010
2.200042e-010
2.483447e-010
2.769258e-010
3.052161e-010
3.327478e-010
3.589235e-010
3.831230e-010
4.048671e-010
4.237388e-010
4.393267e-010
4.513346e-010
4.595917e-010
4.639384e-010
4.642251e-010
4.604010e-010
4.525028e-010
4.405843e-010
4.247207e-010
4.050818e-010
3.820046e-010
3.560217e-010
3.277827e-010
2.978821e-010
2.668324e-010
2.352958e-010
2.042217e-010
1.745793e-010
1.470431e-010
1.221426e-010
1.005643e-010
8.293625e-011
6.932722e-011
5.923417e-011
5.191065e-011
4.628983e-011
4.078448e-011
3.375288e-011
2.420358e-011
1.209800e-011
-1.135911e-012
-1.224685e-011
-1.772581e-011
-1.608396e-011
-7.832927e-012
4.717295e-012
1.528183e-011
1.538424e-011
3.755948e-012
-9.583124e-012
-1.388219e-011
-7.926865e-012
3.261954e-012
1.315031e-011
1.241118e-011
-3.066810e-012
-1.845835e-011
-1.222553e-011
1.096182e-011
2.029092e-011
2.637332e-012
-1.569153e-011
-7.945104e-012
1.205769e-011
-3.129294e-011
1.919734e-011
4.715769e-011
1.406151e-011
-2.862120e-011
-1.720272e-011
2.303879e-011
2.294622e-011
-1.025016e-011
-1.305359e-011
1.332000e-011
1.223215e-011
-1.452291e-011
-1.508089e-011
9.009681e-012
1.300522e-011
-2.849168e-012
-5.922153e-012
1.305032e-012
-1.488251e-012
-5.470068e-012
4.878884e-012
1.980933e-011
2.729191e-011
3.387445e-011
4.601441e-011
5.913552e-011
7.174088e-011
8.955233e-011
1.150950e-010
1.463167e-010
1.826974e-010
2.249873e-010
2.721673e-010
3.224588e-010
3.748482e-010
4.284210e-010
4.819837e-010
5.345734e-010
5.854916e-010
6.340486e-010
6.795662e-010
7.213919e-010
7.589115e-010
7.916793e-010
8.194257e-010
8.419073e-010
8.588710e-010
8.701179e-010
8.754935e-010
8.748586e-010
8.681421e-010
8.553866e-010
8.367171e-010
8.122863e-010
7.822416e-010
7.467454e-010
7.061100e-010
6.609482e-010
6.120704e-010
5.601766e-010
5.058430e-010
4.499233e-010
3.936667e-010
3.382365e-010
2.844437e-010
2.332191e-010
1.859485e-010
1.440133e-010
1.083731e-010
7.977314e-011
5.877736e-011
4.526558e-011
3.807136e-011
3.485229e-011
3.222338e-011
2.694686e-011
1.749340e-011
4.278597e-012
-1.018476e-011
-2.023910e-011
-1.938596e-011
-6.937853e-012
9.633056e-012
2.041828e-011
1.851736e-011
2.755945e-012
-1.729118e-011
-2.337465e-011
-7.980021e-012
1.211871e-011
1.529045e-011
2.985707e-012
-6.334978e-012
-4.655530e-012
3.159951e-013
1.908224e-012
1.401864e-012
1.071457e-012
9.627275e-013
-5.543181e-012
5.353163e-012
2.760488e-011
2.771283e-011
-9.460644e-012
-2.886784e-011
7.415657e-012
3.955356e-011
1.124242e-011
-2.566983e-011
-9.817091e-012
1.802287e-011
4.266121e-012
-1.673876e-011
-3.962264e-012
1.070527e-011
-2.258905e-012
-1.283285e-011
1.183421e-012
1.650155e-011
1.887178e-011
2.351686e-011
3.575308e-011
4.565586e-011
5.550766e-011
7.616956e-011
1.083579e-010
1.481930e-010
1.973293e-010
2.571602e-010
3.244576e-010
3.964767e-010
4.727975e-010
5.523733e-010
6.333491e-010
7.144981e-010
7.948498e-010
8.732630e-010
9.488208e-010
1.020700e-009
1.087901e-009
1.149572e-009
1.205180e-009
1.254281e-009
1.296495e-009
1.331616e-009
1.359466e-009
1.379802e-009
1.392451e-009
1.397373e-009
1.394544e-009
1.383924e-009
1.365529e-009
1.339477e-009
1.305982e-009
1.265302e-009
1.217605e-009
1.162948e-009
1.101561e-009
1.034154e-009
9.616832e-010
8.849192e-010
8.046368e-010
7.221706e-010
6.392410e-010
5.572072e-010
4.769866e-010
3.996492e-010
3.264756e-010
2.584705e-010
1.964018e-010
1.413963e-010
9.518852e-011
5.968356e-011
3.612133e-011
2.436279e-011
2.254853e-011
2.661876e-011
3.021011e-011
2.706140e-011
1.504284e-011
-2.460067e-012
-1.803309e-011
-2.246094e-011
-1.096348e-011
8.114320e-012
1.721075e-011
8.517950e-012
-7.261640e-012
-1.513166e-011
-9.871333e-012
4.562056e-012
1.652840e-011
1.093893e-011
-1.022783e-011
-1.966790e-011
-7.610123e-013
2.046682e-011
1.116462e-011
-1.386925e-011
5.635054e-011
-1.759822e-011
-3.627536e-011
2.168333e-011
4.553147e-011
8.340943e-014
-2.164613e-011
1.434278e-011
2.532605e-011
-1.427056e-011
-2.490375e-011
1.259141e-011
2.336327e-011
-7.956780e-012
-1.829416e-011
2.034451e-012
6.523625e-012
-3.934091e-012
5.231226e-012
2.599865e-011
3.293308e-011
3.705539e-011
5.880457e-011
9.357299e-011
1.338846e-010
1.864602e-010
2.547907e-010
3.328972e-010
4.179312e-010
5.116123e-010
6.130234e-010
7.194793e-010
8.299056e-010
9.433043e-010
1.057380e-009
1.169641e-009
1.277926e-009
1.380232e-009
1.474909e-009
1.560602e-009
1.636219e-009
1.701337e-009
1.756186e-009
1.801112e-009
1.836457e-009
1.862801e-009
1.880856e-009
1.891263e-009
1.894680e-009
1.891829e-009
1.883296e-009
1.869395e-009
1.850184e-009
1.825459e-009
1.794806e-009
1.757743e-009
1.713697e-009
1.661737e-009
1.600632e-009
1.529505e-009
1.448277e-009
1.357316e-009
1.257118e-009
1.148898e-009
1.035160e-009
9.191120e-010
8.037017e-010
6.915937e-010
5.854679e-010
4.874302e-010
3.981837e-010
3.173011e-010
2.442191e-010
1.787251e-010
1.211636e-010
7.317329e-011
3.781120e-011
1.757198e-011
1.198248e-011
1.700123e-011
2.494549e-011
2.543627e-011
1.206351e-011
-9.167349e-012
-2.326885e-011
-2.060637e-011
-4.011495e-012
1.513431e-011
2.143434e-011
5.717369e-012
-1.791565e-011
-2.016453e-011
2.833148e-012
1.776913e-011
3.634654e-012
-1.358177e-011
-4.231509e-012
1.457922e-011
9.432775e-012
-1.080435e-011
7.264524e-011
-1.443394e-011
-5.711287e-011
6.359453e-012
7.186415e-011
3.344001e-011
-3.887041e-011
-2.555932e-011
3.054928e-011
2.151983e-011
-2.081028e-011
-1.048471e-011
1.888671e-011
2.459694e-012
-2.110093e-011
-2.618015e-012
2.085998e-011
1.578693e-011
1.412998e-011
3.675117e-011
6.268143e-011
8.892247e-011
1.369848e-010
2.077885e-010
2.869856e-010
3.756451e-010
4.816831e-010
6.024938e-010
7.333453e-010
8.750888e-010
1.026827e-009
1.182681e-009
1.336490e-009
1.483088e-009
1.616718e-009
1.731818e-009
1.824421e-009
1.892193e-009
1.934247e-009
1.951112e-009
1.944644e-009
1.917966e-009
1.875066e-009
1.820143e-009
1.757454e-009
1.691490e-009
1.626724e-009
1.567195e-009
1.516442e-009
1.477499e-009
1.452695e-009
1.443470e-009
1.450281e-009
1.472354e-009
1.507474e-009
1.552184e-009
1.602181e-009
1.652286e-009
1.696217e-009
1.727154e-009
1.739055e-009
1.727383e-009
1.688841e-009
1.621519e-009
1.526071e-009
1.406217e-009
1.267626e-009
1.116877e-009
9.615542e-010
8.098129e-010
6.686310e-010
5.425337e-010
4.335651e-010
3.411745e-010
2.622570e-010
1.929186e-010
1.308233e-010
7.618011e-011
3.237642e-011
5.632660e-012
-1.557643e-013
9.763437e-012
2.221312e-011
2.464863e-011
1.169803e-011
-1.070324e-011
-2.441404e-011
-1.413128e-011
9.772005e-012
1.846297e-011
2.604985e-012
-1.509151e-011
-1.326567e-011
1.981349e-012
1.191909e-011
8.406973e-012
-2.627220e-012
-8.632941e-012
-2.180647e-012
8.479004e-012
4.646795e-012
3.057163e-011
1.312045e-011
-1.032789e-011
2.108833e-011
3.934756e-011
-1.032308e-011
-3.509502e-011
1.788661e-011
4.432020e-011
-6.319027e-012
-3.503422e-011
-4.591620e-013
1.642164e-011
-5.940195e-012
-3.308893e-012
2.781729e-011
3.958429e-011
4.377028e-011
8.055302e-011
1.410888e-010
2.045669e-010
2.838413e-010
3.910665e-010
5.169654e-010
6.586513e-010
8.243325e-010
1.011804e-009
1.208872e-009
1.405702e-009
1.592171e-009
1.752943e-009
1.872307e-009
1.938087e-009
1.940550e-009
1.872607e-009
1.731462e-009
1.518682e-009
1.239627e-009
9.031746e-010
5.210945e-010
1.071727e-010
-3.235709e-010
-7.556342e-010
-1.173575e-009
-1.562349e-009
-1.907840e-009
-2.197418e-009
-2.420170e-009
-2.567033e-009
-2.631147e-009
-2.608228e-009
-2.496841e-009
-2.298908e-009
-2.020451e-009
-1.671926e-009
-1.267693e-009
-8.251968e-010
-3.646547e-010
9.141627e-011
5.201390e-010
9.010156e-010
1.217345e-009
1.456465e-009
1.610932e-009
1.680229e-009
1.670403e-009
1.592008e-009
1.458995e-009
1.288240e-009
1.097744e-009
9.043360e-010
7.224535e-010
5.630069e-010
4.318213e-010
3.290188e-010
2.494784e-010
1.844030e-010
1.257156e-010
7.146479e-011
2.674611e-011
-2.060049e-013
-3.763829e-012
1.112307e-011
2.532764e-011
1.962703e-011
-3.676835e-012
-2.248485e-011
-2.011308e-011
-7.012593e-013
1.677177e-011
1.364370e-011
-7.971718e-012
-1.893650e-011
-1.656958e-013
2.034897e-011
6.800764e-012
-1.944856e-011
-1.120705e-011
1.961039e-011
-7.652709e-011
7.931442e-011
1.049394e-010
-2.381623e-011
-6.293455e-011
2.872914e-011
5.598067e-011
-1.172754e-011
-2.266487e-011
2.566271e-011
1.364009e-011
-3.175881e-011
-1.256527e-011
2.931216e-011
1.925745e-011
3.737604e-012
3.581776e-011
7.909268e-011
1.119805e-010
1.724132e-010
2.716325e-010
3.848710e-010
5.153362e-010
6.845317e-010
8.891084e-010
1.113481e-009
1.350013e-009
1.584081e-009
1.786228e-009
1.925264e-009
1.972487e-009
1.897096e-009
1.669488e-009
1.267202e-009
6.757691e-010
-1.109455e-010
-1.088954e-009
-2.243881e-009
-3.551986e-009
-4.981382e-009
-6.494033e-009
-8.048043e-009
-9.599416e-009
-1.110371e-008
-1.251775e-008
-1.380087e-008
-1.491571e-008
-1.582879e-008
-1.651106e-008
-1.693837e-008
-1.709237e-008
-1.696156e-008
-1.654227e-008
-1.583958e-008
-1.486855e-008
-1.365559e-008
-1.223875e-008
-1.066614e-008
-8.993798e-009
-7.283855e-009
-5.601552e-009
-4.009722e-009
-2.563119e-009
-1.305324e-009
-2.667027e-010
5.383923e-010
1.112684e-009
1.473165e-009
1.647010e-009
1.668442e-009
1.575265e-009
1.404720e-009
1.190669e-009
9.625682e-010
7.448638e-010
5.559334e-010
4.062991e-010
2.970625e-010
2.204054e-010
1.624355e-010
1.089551e-010
5.500557e-011
1.043383e-011
-9.899822e-012
-3.688535e-012
1.422040e-011
2.259723e-011
8.791145e-012
-1.686327e-011
-2.405565e-011
-1.342765e-013
2.243018e-011
9.222048e-012
-1.788627e-011
-1.404952e-011
1.140493e-011
1.322354e-011
-7.167443e-012
-8.490913e-012
9.938456e-012
-6.640598e-011
6.938510e-011
1.072175e-010
-1.435096e-011
-8.185258e-011
1.660252e-011
9.170266e-011
1.203870e-011
-6.164051e-011
-9.329961e-012
3.905416e-011
7.930007e-013
-1.728980e-011
2.598833e-011
4.420260e-011
3.421925e-011
7.298331e-011
1.551180e-010
2.337039e-010
3.305797e-010
4.814620e-010
6.724381e-010
8.904746e-010
1.146395e-009
1.428524e-009
1.695387e-009
1.905173e-009
2.012878e-009
1.955349e-009
1.660550e-009
1.059368e-009
8.555435e-011
-1.320490e-009
-3.202032e-009
-5.580460e-009
-8.453311e-009
-1.179261e-008
-1.554532e-008
-1.963638e-008
-2.397301e-008
-2.845010e-008
-3.295574e-008
-3.737575e-008
-4.159774e-008
-4.551483e-008
-4.902793e-008
-5.204688e-008
-5.449134e-008
-5.629176e-008
-5.739039e-008
-5.774286e-008
-5.732055e-008
-5.611351e-008
-5.413300e-008
-5.141392e-008
-4.801746e-008
-4.403317e-008
-3.957785e-008
-3.479094e-008
-2.982851e-008
-2.485654e-008
-2.004082e-008
-1.553374e-008
-1.146300e-008
-7.924326e-009
-4.975741e-009
-2.633793e-009
-8.757041e-010
3.528211e-010
1.128248e-009
1.539558e-009
1.677586e-009
1.625503e-009
1.453548e-009
1.218004e-009
9.621868e-010
7.183159e-010
5.099108e-010
3.519519e-010
2.464872e-010
1.797358e-010
1.296871e-010
8.031821e-011
3.052309e-011
-5.970308e-012
-1.202037e-011
9.322989e-012
2.603050e-011
1.172347e-011
-1.620974e-011
-2.056383e-011
2.300116e-013
1.364402e-011
4.400860e-012
-9.076042e-012
-7.634162e-012
4.724794e-012
1.122277e-011
3.976392e-012
-7.102845e-012
4.554390e-011
-1.345566e-011
2.522020e-012
3.725413e-011
6.093893e-015
-1.045361e-011
4.201192e-011
2.589365e-011
-4.574503e-011
-2.404726e-011
4.828475e-011
3.147718e-011
-1.664664e-011
1.706845e-011
7.880408e-011
1.058598e-010
1.613450e-010
2.836686e-010
4.285218e-010
5.942227e-010
8.254002e-010
1.116184e-009
1.424215e-009
1.722344e-009
1.967686e-009
2.071630e-009
1.923888e-009
1.402618e-009
3.598556e-010
-1.370957e-009
-3.951765e-009
-7.527218e-009
-1.221418e-008
-1.808530e-008
-2.515687e-008
-3.338496e-008
-4.266585e-008
-5.284070e-008
-6.370469e-008
-7.501885e-008
-8.652305e-008
-9.794843e-008
-1.090278e-007
-1.195044e-007
-1.291377e-007
-1.377078e-007
-1.450166e-007
-1.508889e-007
-1.551736e-007
-1.577455e-007
-1.585069e-007
-1.573928e-007
-1.543767e-007
-1.494780e-007
-1.427685e-007
-1.343778e-007
-1.244978e-007
-1.133845e-007
-1.013511e-007
-8.875564e-008
-7.598444e-008
-6.343224e-008
-5.147568e-008
-4.044544e-008
-3.060424e-008
-2.213156e-008
-1.511388e-008
-9.544013e-009
-5.332377e-009
-2.325988e-009
-3.301447e-010
8.680481e-010
1.476271e-009
1.678825e-009
1.626177e-009
1.430766e-009
1.169300e-009
8.924857e-010
6.365350e-010
4.278170e-010
2.803974e-010
1.919414e-010
1.417035e-010
9.894175e-011
4.727580e-011
1.591405e-012
-1.270548e-011
3.244652e-012
1.966163e-011
1.231212e-011
-1.145721e-011
-2.141401e-011
-2.001073e-012
1.986180e-011
8.787721e-012
-1.753983e-011
-1.161018e-011
1.721150e-011
1.513055e-011
-1.400889e-011
1.548317e-010
-1.025156e-010
-1.079648e-010
1.044782e-010
1.056196e-010
-5.722064e-011
-5.401776e-011
4.809045e-011
2.655104e-011
-2.614110e-011
1.678333e-011
4.615367e-011
1.374002e-011
4.063611e-011
1.409991e-010
2.238600e-010
3.138089e-010
4.882340e-010
7.285888e-010
1.000612e-009
1.323957e-009
1.681522e-009
1.984173e-009
2.126922e-009
1.979419e-009
1.336971e-009
-7.007253e-011
-2.549356e-009
-6.444858e-009
-1.212088e-008
-1.992043e-008
-3.012933e-008
-4.294965e-008
-5.847242e-008
-7.665768e-008
-9.733017e-008
-1.201869e-007
-1.448139e-007
-1.707103e-007
-1.973175e-007
-2.240475e-007
-2.503102e-007
-2.755336e-007
-2.991805e-007
-3.207572e-007
-3.398187e-007
-3.559695e-007
-3.688628e-007
-3.782003e-007
-3.837331e-007
-3.852652e-007
-3.826611e-007
-3.758573e-007
-3.648782e-007
-3.498522e-007
-3.310251e-007
-3.087714e-007
-2.836000e-007
-2.561503e-007
-2.271717e-007
-1.974920e-007
-1.679762e-007
-1.394756e-007
-1.127684e-007
-8.850477e-008
-6.716453e-008
-4.903042e-008
-3.417880e-008
-2.249393e-008
-1.370263e-008
-7.419905e-009
-3.198529e-009
-5.782437e-010
8.729313e-010
1.529927e-009
1.693103e-009
1.581473e-009
1.338750e-009
1.050102e-009
7.638816e-010
5.126620e-010
3.230462e-010
2.062736e-010
1.452944e-010
1.043645e-010
5.776530e-011
9.327526e-012
-1.509148e-011
-1.374457e-012
2.270031e-011
1.449247e-011
-1.712590e-011
-1.957134e-011
1.126109e-011
1.860621e-011
-9.540273e-012
-1.699796e-011
9.094679e-012
1.470246e-011
-8.370430e-012
1.478486e-010
-1.040074e-010
-1.133393e-010
1.148569e-010
1.272169e-010
-7.972076e-011
-9.828038e-011
7.111636e-011
8.605558e-011
-3.458621e-011
-2.801269e-011
6.886794e-011
9.180526e-011
1.134693e-010
2.360704e-010
3.929976e-010
5.575779e-010
8.130825e-010
1.167504e-009
1.545579e-009
1.900509e-009
2.159287e-009
2.133234e-009
1.544914e-009
3.900460e-011
-2.868899e-009
-7.794063e-009
-1.543261e-008
-2.652406e-008
-4.180772e-008
-6.194699e-008
-8.745157e-008
-1.186177e-007
-1.554819e-007
-1.977936e-007
-2.450188e-007
-2.963709e-007
-3.508596e-007
-4.073530e-007
-4.646431e-007
-5.215070e-007
-5.767586e-007
-6.292857e-007
-6.780733e-007
-7.222140e-007
-7.609088e-007
-7.934603e-007
-8.192647e-007
-8.378034e-007
-8.486405e-007
-8.514259e-007
-8.459070e-007
-8.319471e-007
-8.095534e-007
-7.789107e-007
-7.404148e-007
-6.946992e-007
-6.426560e-007
-5.854428e-007
-5.244652e-007
-4.613298e-007
-3.977729e-007
-3.355676e-007
-2.764087e-007
-2.217899e-007
-1.728958e-007
-1.305232e-007
-9.503896e-008
-6.638566e-008
-4.413628e-008
-2.758341e-008
-1.584541e-008
-7.973989e-009
-3.047524e-009
-2.383851e-010
1.147431e-009
1.653647e-009
1.674223e-009
1.465957e-009
1.173467e-009
8.681336e-010
5.890774e-010
3.661786e-010
2.195581e-010
1.455350e-010
1.083016e-010
6.424587e-011
1.037689e-011
-1.382246e-011
5.198318e-012
2.241954e-011
4.319809e-012
-1.759469e-011
-8.272791e-012
1.006752e-011
6.303996e-012
-5.500059e-012
-3.472339e-012
2.878434e-012
2.389081e-012
1.316604e-011
1.044154e-011
-4.842594e-012
2.147439e-011
4.273794e-011
-2.240323e-011
-4.818423e-011
4.739331e-011
7.531064e-011
-2.181762e-011
-2.113302e-011
1.146557e-010
1.941018e-010
2.291666e-010
3.839854e-010
6.455786e-010
9.330405e-010
1.288641e-009
1.724024e-009
2.105634e-009
2.253512e-009
1.927829e-009
6.939494e-010
-2.104468e-009
-7.319749e-009
-1.603233e-008
-2.955008e-008
-4.932196e-008
-7.683069e-008
-1.134762e-007
-1.604231e-007
-2.184423e-007
-2.877928e-007
-3.681513e-007
-4.585981e-007
-5.576669e-007
-6.634486e-007
-7.737275e-007
-8.861299e-007
-9.982641e-007
-1.107837e-006
-1.212740e-006
-1.311094e-006
-1.401272e-006
-1.481889e-006
-1.551777e-006
-1.609955e-006
-1.655593e-006
-1.687986e-006
-1.706531e-006
-1.710728e-006
-1.700182e-006
-1.674635e-006
-1.634001e-006
-1.578422e-006
-1.508339e-006
-1.424555e-006
-1.328299e-006
-1.221274e-006
-1.105684e-006
-9.842043e-007
-8.599053e-007
-7.361110e-007
-6.162026e-007
-5.033745e-007
-4.003802e-007
-3.093107e-007
-2.314392e-007
-1.671597e-007
-1.160368e-007
-7.695105e-008
-4.830832e-008
-2.827003e-008
-1.496899e-008
-6.677952e-009
-1.915000e-009
5.125745e-010
1.509815e-009
1.719470e-009
1.558507e-009
1.263815e-009
9.459205e-010
6.480378e-010
3.992631e-010
2.314701e-010
1.490897e-010
1.084869e-010
6.144055e-011
1.051892e-011
-9.405144e-012
5.520783e-012
1.795191e-011
3.129189e-012
-1.648943e-011
-8.612550e-012
1.354250e-011
1.093753e-011
-1.111377e-011
-1.052495e-011
1.129283e-011
-1.496943e-010
1.654380e-010
1.228170e-010
-1.300316e-010
-6.609855e-011
1.033422e-010
3.733390e-011
-4.279549e-011
2.292623e-011
5.575578e-011
5.684883e-011
1.633165e-010
2.998648e-010
4.119934e-010
6.400194e-010
1.022914e-009
1.444699e-009
1.862047e-009
2.227560e-009
2.278892e-009
1.559274e-009
-5.744930e-010
-5.114924e-009
-1.349816e-008
-2.757777e-008
-4.961525e-008
-8.223641e-008
-1.282539e-007
-1.904040e-007
-2.710527e-007
-3.718746e-007
-4.935557e-007
-6.356009e-007
-7.962851e-007
-9.727493e-007
-1.161228e-006
-1.357368e-006
-1.556578e-006