# vtk DataFile Version 3.0
vtk output
ASCII
DATASET STRUCTURED_POINTS
DIMENSIONS 100 100 1
SPACING 1 1 1
ORIGIN 0 0 0
POINT_DATA 10000
SCALARS SFBox_profile double
LOOKUP_TABLE default 
9.439924e-003
9.439925e-003
9.439927e-003
9.439929e-003
9.439933e-003
9.439939e-003
9.439946e-003
9.439955e-003
9.439966e-003
9.439978e-003
9.439987e-003
9.439991e-003
9.439981e-003
9.439949e-003
9.439881e-003
9.439758e-003
9.439556e-003
9.439251e-003
9.438811e-003
9.438206e-003
9.437406e-003
9.436385e-003
9.435121e-003
9.433604e-003
9.431828e-003
9.429802e-003
9.427542e-003
9.425072e-003
9.422423e-003
9.419629e-003
9.416727e-003
9.413754e-003
9.410742e-003
9.407725e-003
9.404729e-003
9.401779e-003
9.398892e-003
9.396086e-003
9.393373e-003
9.390760e-003
9.388255e-003
9.385860e-003
9.383577e-003
9.381406e-003
9.379345e-003
9.377392e-003
9.375545e-003
9.373803e-003
9.372167e-003
9.370638e-003
9.369223e-003
9.367930e-003
9.366772e-003
9.365767e-003
9.364935e-003
9.364304e-003
9.363904e-003
9.363769e-003
9.363936e-003
9.364443e-003
9.365329e-003
9.366629e-003
9.368376e-003
9.370593e-003
9.373293e-003
9.376477e-003
9.380127e-003
9.384207e-003
9.388663e-003
9.393416e-003
9.398372e-003
9.403420e-003
9.408439e-003
9.413306e-003
9.417904e-003
9.422131e-003
9.425907e-003
9.429182e-003
9.431934e-003
9.434173e-003
9.435931e-003
9.437264e-003
9.438235e-003
9.438913e-003
9.439365e-003
9.439650e-003
9.439819e-003
9.439909e-003
9.439951e-003
9.439965e-003
9.439964e-003
9.439957e-003
9.439948e-003
9.439940e-003
9.439933e-003
9.439928e-003
9.439925e-003
9.439923e-003
9.439921e-003
9.439921e-003
9.439924e-003
9.439925e-003
9.439927e-003
9.439929e-003
9.439933e-003
9.439939e-003
9.439946e-003
9.439955e-003
9.439966e-003
9.439978e-003
9.439987e-003
9.439991e-003
9.439981e-003
9.439949e-003
9.439881e-003
9.439758e-003
9.439556e-003
9.439251e-003
9.438811e-003
9.438206e-003
9.437406e-003
9.436385e-003
9.435121e-003
9.433604e-003
9.431828e-003
9.429802e-003
9.427542e-003
9.425072e-003
9.422423e-003
9.419629e-003
9.416727e-003
9.413754e-003
9.410742e-003
9.407725e-003
9.404729e-003
9.401779e-003
9.398892e-003
9.396086e-003
9.393373e-003
9.390760e-003
9.388255e-003
9.385860e-003
9.383577e-003
9.381406e-003
9.379345e-003
9.377392e-003
9.375545e-003
9.373803e-003
9.372167e-003
9.370638e-003
9.369223e-003
9.367930e-003
9.366772e-003
9.365767e-003
9.364935e-003
9.364304e-003
9.363904e-003
9.363769e-003
9.363936e-003
9.364443e-003
9.365329e-003
9.366629e-003
9.368376e-003
9.370593e-003
9.373293e-003
9.376477e-003
9.380127e-003
9.384207e-003
9.388663e-003
9.393416e-003
9.398372e-003
9.403420e-003
9.408439e-003
9.413306e-003
9.417904e-003
9.422131e-003
9.425907e-003
9.429182e-003
9.431934e-003
9.434173e-003
9.435931e-003
9.437264e-003
9.438235e-003
9.438913e-003
9.439365e-003
9.439650e-003
9.439819e-003
9.439909e-003
9.439951e-003
9.439965e-003
9.439964e-003
9.439957e-003
9.439948e-003
9.439940e-003
9.439933e-003
9.439928e-003
9.439925e-003
9.439923e-003
9.439921e-003
9.439921e-003
9.439925e-003
9.439926e-003
9.439928e-003
9.439932e-003
9.439936e-003
9.439943e-003
9.439951e-003
9.439960e-003
9.439969e-003
9.439976e-003
9.439975e-003
9.439959e-003
9.439916e-003
9.439827e-003
9.439671e-003
9.439415e-003
9.439024e-003
9.438455e-003
9.437662e-003
9.436599e-003
9.435223e-003
9.433499e-003
9.431404e-003
9.428928e-003
9.426077e-003
9.422874e-003
9.419355e-003
9.415565e-003
9.411560e-003
9.407397e-003
9.403134e-003
9.398826e-003
9.394522e-003
9.390265e-003
9.386093e-003
9.382034e-003
9.378111e-003
9.374340e-003
9.370734e-003
9.367298e-003
9.364035e-003
9.360945e-003
9.358026e-003
9.355273e-003
9.352681e-003
9.350245e-003
9.347960e-003
9.345822e-003
9.343830e-003
9.341987e-003
9.340296e-003
9.338768e-003
9.337416e-003
9.336259e-003
9.335322e-003
9.334633e-003
9.334227e-003
9.334142e-003
9.334419e-003
9.335103e-003
9.336239e-003
9.337871e-003
9.340042e-003
9.342787e-003
9.346133e-003
9.350096e-003
9.354675e-003
9.359848e-003
9.365571e-003
9.371771e-003
9.378346e-003
9.385170e-003
9.392089e-003
9.398936e-003
9.405538e-003
9.411731e-003
9.417374e-003
9.422362e-003
9.426632e-003
9.430168e-003
9.432998e-003
9.435181e-003
9.436805e-003
9.437965e-003
9.438760e-003
9.439279e-003
9.439601e-003
9.439789e-003
9.439889e-003
9.439936e-003
9.439953e-003
9.439954e-003
9.439949e-003
9.439942e-003
9.439936e-003
9.439930e-003
9.439926e-003
9.439924e-003
9.439922e-003
9.439921e-003
9.439928e-003
9.439930e-003
9.439932e-003
9.439937e-003
9.439943e-003
9.439951e-003
9.439959e-003
9.439967e-003
9.439970e-003
9.439962e-003
9.439932e-003
9.439861e-003
9.439725e-003
9.439488e-003
9.439101e-003
9.438506e-003
9.437630e-003
9.436396e-003
9.434720e-003
9.432525e-003
9.429743e-003
9.426328e-003
9.422260e-003
9.417550e-003
9.412241e-003
9.406404e-003
9.400133e-003
9.393537e-003
9.386730e-003
9.379826e-003
9.372930e-003
9.366135e-003
9.359519e-003
9.353142e-003
9.347051e-003
9.341279e-003
9.335843e-003
9.330752e-003
9.326006e-003
9.321597e-003
9.317512e-003
9.313736e-003
9.310251e-003
9.307040e-003
9.304085e-003
9.301372e-003
9.298888e-003
9.296624e-003
9.294573e-003
9.292734e-003
9.291108e-003
9.289699e-003
9.288518e-003
9.287578e-003
9.286895e-003
9.286489e-003
9.286384e-003
9.286606e-003
9.287186e-003
9.288158e-003
9.289561e-003
9.291439e-003
9.293843e-003
9.296829e-003
9.300458e-003
9.304797e-003
9.309911e-003
9.315856e-003
9.322669e-003
9.330357e-003
9.338879e-003
9.348136e-003
9.357965e-003
9.368135e-003
9.378370e-003
9.388361e-003
9.397806e-003
9.406438e-003
9.414055e-003
9.420537e-003
9.425853e-003
9.430053e-003
9.433245e-003
9.435580e-003
9.437219e-003
9.438323e-003
9.439033e-003
9.439467e-003
9.439718e-003
9.439852e-003
9.439917e-003
9.439943e-003
9.439949e-003
9.439946e-003
9.439940e-003
9.439934e-003
9.439929e-003
9.439926e-003
9.439923e-003
9.439922e-003
9.439933e-003
9.439935e-003
9.439939e-003
9.439945e-003
9.439953e-003
9.439962e-003
9.439968e-003
9.439969e-003
9.439953e-003
9.439907e-003
9.439805e-003
9.439609e-003
9.439265e-003
9.438699e-003
9.437814e-003
9.436493e-003
9.434600e-003
9.431987e-003
9.428513e-003
9.424053e-003
9.418521e-003
9.411882e-003
9.404170e-003
9.395486e-003
9.385993e-003
9.375906e-003
9.365471e-003
9.354941e-003
9.344559e-003
9.334539e-003
9.325059e-003
9.316253e-003
9.308214e-003
9.300998e-003
9.294625e-003
9.289090e-003
9.284364e-003
9.280401e-003
9.277143e-003
9.274522e-003
9.272469e-003
9.270916e-003
9.269799e-003
9.269063e-003
9.268661e-003
9.268557e-003
9.268721e-003
9.269130e-003
9.269769e-003
9.270621e-003
9.271671e-003
9.272901e-003
9.274285e-003
9.275793e-003
9.277382e-003
9.278999e-003
9.280585e-003
9.282068e-003
9.283378e-003
9.284444e-003
9.285210e-003
9.285643e-003
9.285749e-003
9.285584e-003
9.285274e-003
9.285017e-003
9.285093e-003
9.285849e-003
9.287673e-003
9.290960e-003
9.296048e-003
9.303162e-003
9.312357e-003
9.323484e-003
9.336181e-003
9.349906e-003
9.364003e-003
9.377791e-003
9.390651e-003
9.402105e-003
9.411858e-003
9.419805e-003
9.426010e-003
9.430655e-003
9.433989e-003
9.436285e-003
9.437798e-003
9.438752e-003
9.439325e-003
9.439650e-003
9.439821e-003
9.439903e-003
9.439937e-003
9.439946e-003
9.439944e-003
9.439939e-003
9.439933e-003
9.439929e-003
9.439925e-003
9.439924e-003
9.439941e-003
9.439944e-003
9.439949e-003
9.439957e-003
9.439965e-003
9.439972e-003
9.439970e-003
9.439949e-003
9.439887e-003
9.439752e-003
9.439491e-003
9.439026e-003
9.438248e-003
9.437008e-003
9.435120e-003
9.432360e-003
9.428484e-003
9.423245e-003
9.416430e-003
9.407896e-003
9.397615e-003
9.385703e-003
9.372434e-003
9.358234e-003
9.343644e-003
9.329272e-003
9.315732e-003
9.303586e-003
9.293303e-003
9.285225e-003
9.279565e-003
9.276411e-003
9.275746e-003
9.277468e-003
9.281415e-003
9.287381e-003
9.295132e-003
9.304414e-003
9.314965e-003
9.326530e-003
9.338863e-003
9.351749e-003
9.365000e-003
9.378468e-003
9.392039e-003
9.405635e-003
9.419199e-003
9.432693e-003
9.446080e-003
9.459315e-003
9.472329e-003
9.485019e-003
9.497239e-003
9.508785e-003
9.519393e-003
9.528735e-003
9.536422e-003
9.542012e-003
9.545025e-003
9.544969e-003
9.541378e-003
9.533855e-003
9.522130e-003
9.506124e-003
9.486015e-003
9.462294e-003
9.435810e-003
9.407768e-003
9.379685e-003
9.353287e-003
9.330340e-003
9.312446e-003
9.300819e-003
9.296103e-003
9.298256e-003
9.306549e-003
9.319682e-003
9.335989e-003
9.353711e-003
9.371247e-003
9.387351e-003
9.401228e-003
9.412530e-003
9.421270e-003
9.427713e-003
9.432252e-003
9.435309e-003
9.437280e-003
9.438493e-003
9.439203e-003
9.439597e-003
9.439801e-003
9.439896e-003
9.439935e-003
9.439945e-003
9.439944e-003
9.439938e-003
9.439933e-003
9.439929e-003
9.439927e-003
9.439953e-003
9.439956e-003
9.439963e-003
9.439971e-003
9.439977e-003
9.439974e-003
9.439947e-003
9.439873e-003
9.439708e-003
9.439384e-003
9.438795e-003
9.437788e-003
9.436150e-003
9.433600e-003
9.429797e-003
9.424351e-003
9.416867e-003
9.407008e-003
9.394581e-003
9.379637e-003
9.362561e-003
9.344119e-003
9.325455e-003
9.308012e-003
9.293397e-003
9.283211e-003
9.278875e-003
9.281504e-003
9.291810e-003
9.310089e-003
9.336248e-003
9.369872e-003
9.410315e-003
9.456784e-003
9.508410e-003
9.564297e-003
9.623548e-003
9.685293e-003
9.748700e-003
9.813001e-003
9.877511e-003
9.941650e-003
1.000495e-002
1.006708e-002
1.012781e-002
1.018700e-002
1.024459e-002
1.030055e-002
1.035483e-002
1.040734e-002
1.045788e-002
1.050612e-002
1.055158e-002
1.059356e-002
1.063117e-002
1.066328e-002
1.068853e-002
1.070540e-002
1.071218e-002
1.070712e-002
1.068845e-002
1.065458e-002
1.060426e-002
1.053674e-002
1.045201e-002
1.035101e-002
1.023581e-002
1.010970e-002
9.977126e-003
9.843519e-003
9.714855e-003
9.597099e-003
9.495529e-003
9.414072e-003
9.354789e-003
9.317629e-003
9.300519e-003
9.299793e-003
9.310877e-003
9.329053e-003
9.350143e-003
9.370953e-003
9.389435e-003
9.404596e-003
9.416249e-003
9.424716e-003
9.430563e-003
9.434414e-003
9.436837e-003
9.438291e-003
9.439120e-003
9.439568e-003
9.439793e-003
9.439895e-003
9.439935e-003
9.439945e-003
9.439943e-003
9.439938e-003
9.439933e-003
9.439931e-003
9.439969e-003
9.439973e-003
9.439979e-003
9.439984e-003
9.439980e-003
9.439951e-003
9.439867e-003
9.439679e-003
9.439301e-003
9.438599e-003
9.437370e-003
9.435325e-003
9.432070e-003
9.427107e-003
9.419858e-003
9.409727e-003
9.396227e-003
9.379158e-003
9.358844e-003
9.336369e-003
9.313750e-003
9.293970e-003
9.280827e-003
9.278592e-003
9.291536e-003
9.323434e-003
9.377140e-003
9.454308e-003
9.555313e-003
9.679329e-003
9.824551e-003
9.988486e-003
1.016825e-002
1.036084e-002
1.056327e-002
1.077276e-002
1.098669e-002
1.120267e-002
1.141856e-002
1.163245e-002
1.184274e-002
1.204814e-002
1.224771e-002
1.244083e-002
1.262717e-002
1.280666e-002
1.297937e-002
1.314540e-002
1.330481e-002
1.345747e-002
1.360298e-002
1.374054e-002
1.386889e-002
1.398623e-002
1.409015e-002
1.417765e-002
1.424510e-002
1.428831e-002
1.430266e-002
1.428319e-002
1.422490e-002
1.412302e-002
1.397344e-002
1.377319e-002
1.352100e-002
1.321793e-002
1.286789e-002
1.247811e-002
1.205922e-002
1.162507e-002
1.119187e-002
1.077695e-002
1.039706e-002
1.006643e-002
9.795047e-003
9.587454e-003
9.442319e-003
9.353029e-003
9.309149e-003
9.298419e-003
9.308782e-003
9.329992e-003
9.354490e-003
9.377526e-003
9.396738e-003
9.411454e-003
9.421995e-003
9.429129e-003
9.433718e-003
9.436532e-003
9.438175e-003
9.439087e-003
9.439564e-003
9.439797e-003
9.439899e-003
9.439937e-003
9.439945e-003
9.439943e-003
9.439939e-003
9.439936e-003
9.439990e-003
9.439993e-003
9.439995e-003
9.439990e-003
9.439959e-003
9.439872e-003
9.439669e-003
9.439254e-003
9.438464e-003
9.437047e-003
9.434632e-003
9.430697e-003
9.424560e-003
9.415408e-003
9.402396e-003
9.384867e-003
9.362713e-003
9.336893e-003
9.310027e-003
9.286913e-003
9.274768e-003
9.283003e-003
9.322455e-003
9.404184e-003
9.538080e-003
9.731588e-003
9.988831e-003
1.031027e-002
1.069289e-002
1.113082e-002
1.161621e-002
1.214013e-002
1.269341e-002
1.326729e-002
1.385378e-002
1.444578e-002
1.503714e-002
1.562253e-002
1.619743e-002
1.675806e-002
1.730142e-002
1.782532e-002
1.832835e-002
1.880987e-002
1.926987e-002
1.970883e-002
2.012748e-002
2.052661e-002
2.090677e-002
2.126806e-002
2.160987e-002
2.193069e-002
2.222791e-002
2.249768e-002
2.273481e-002
2.293270e-002
2.308336e-002
2.317747e-002
2.320456e-002
2.315329e-002
2.301185e-002
2.276854e-002
2.241255e-002
2.193496e-002
2.132993e-002
2.059612e-002
1.973813e-002
1.876783e-002
1.770537e-002
1.657931e-002
1.542579e-002
1.428635e-002
1.320445e-002
1.222100e-002
1.136953e-002
1.067196e-002
1.013594e-002
9.754483e-003
9.508259e-003
9.369884e-003
9.309179e-003
9.297994e-003
9.313525e-003
9.339671e-003
9.366687e-003
9.389785e-003
9.407437e-003
9.419893e-003
9.428143e-003
9.433320e-003
9.436409e-003
9.438163e-003
9.439107e-003
9.439587e-003
9.439812e-003
9.439907e-003
9.439940e-003
9.439947e-003
9.439945e-003
9.439943e-003
9.440014e-003
9.440013e-003
9.440005e-003
9.439974e-003
9.439887e-003
9.439682e-003
9.439250e-003
9.438409e-003
9.436864e-003
9.434163e-003
9.429655e-003
9.422457e-003
9.411487e-003
9.395602e-003
9.373960e-003
9.346678e-003
9.315877e-003
9.287029e-003
9.270330e-003
9.281622e-003
9.342293e-003
9.477808e-003
9.714915e-003
1.007805e-002
1.058579e-002
1.124823e-002
1.206573e-002
1.302934e-002
1.412240e-002
1.532294e-002
1.660632e-002
1.794760e-002
1.932346e-002
2.071327e-002
2.209966e-002
2.346843e-002
2.480818e-002
2.610988e-002
2.736650e-002
2.857275e-002
2.972501e-002
3.082123e-002
3.186086e-002
3.284468e-002
3.377454e-002
3.465301e-002
3.548298e-002
3.626720e-002
3.700783e-002
3.770600e-002
3.836141e-002
3.897198e-002
3.953356e-002
4.003965e-002
4.048127e-002
4.084685e-002
4.112218e-002
4.129051e-002
4.133268e-002
4.122753e-002
4.095227e-002
4.048336e-002
3.979745e-002
3.887297e-002
3.769201e-002
3.624288e-002
3.452309e-002
3.254260e-002
3.032707e-002
2.792021e-002
2.538465e-002
2.280031e-002
2.025964e-002
1.785957e-002
1.569078e-002
1.382605e-002
1.231012e-002
1.115388e-002
1.033493e-002
9.804372e-003
9.498160e-003
9.349583e-003
9.299539e-003
9.302500e-003
9.327882e-003
9.358016e-003
9.384527e-003
9.404704e-003
9.418695e-003
9.427748e-003
9.433279e-003
9.436487e-003
9.438255e-003
9.439178e-003
9.439630e-003
9.439835e-003
9.439918e-003
9.439945e-003
9.439951e-003
9.439951e-003
9.440036e-003
9.440027e-003
9.439997e-003
9.439913e-003
9.439715e-003
9.439290e-003
9.438442e-003
9.436845e-003
9.433983e-003
9.429085e-003
9.421073e-003
9.408575e-003
9.390113e-003
9.364622e-003
9.332544e-003
9.297720e-003
9.270115e-003
9.269006e-003
9.325652e-003
9.484107e-003
9.798918e-003
1.032931e-002
1.113074e-002
1.224578e-002
1.369679e-002
1.548219e-002
1.757704e-002
1.993732e-002
2.250647e-002
2.522252e-002
2.802438e-002
3.085667e-002
3.367255e-002
3.643481e-002
3.911558e-002
4.169503e-002
4.415977e-002
4.650133e-002
4.871497e-002
5.079888e-002
5.275375e-002
5.458243e-002
5.628964e-002
5.788162e-002
5.936569e-002
6.074966e-002
6.204124e-002
6.324743e-002
6.437388e-002
6.542437e-002
6.640031e-002
6.730037e-002
6.812006e-002
6.885155e-002
6.948342e-002
7.000058e-002
7.038411e-002
7.061130e-002
7.065558e-002
7.048664e-002
7.007056e-002
6.937017e-002
6.834577e-002
6.695624e-002
6.516100e-002
6.292295e-002
6.021274e-002
5.701444e-002
5.333257e-002
4.919985e-002
4.468448e-002
3.989498e-002
3.498012e-002
3.012131e-002
2.551619e-002
2.135412e-002
1.778815e-002
1.491047e-002
1.273914e-002
1.122094e-002
1.024941e-002
9.691830e-003
9.416359e-003
9.311822e-003
9.296912e-003
9.319864e-003
9.352337e-003
9.381577e-003
9.403613e-003
9.418571e-003
9.428000e-003
9.433600e-003
9.436752e-003
9.438436e-003
9.439287e-003
9.439689e-003
9.439864e-003
9.439932e-003
9.439953e-003
9.439959e-003
9.440051e-003
9.440024e-003
9.439948e-003
9.439766e-003
9.439368e-003
9.438556e-003
9.436990e-003
9.434114e-003
9.429064e-003
9.420593e-003
9.407052e-003
9.386596e-003
9.357864e-003
9.321584e-003
9.283630e-003
9.259916e-003
9.282818e-003
9.407611e-003
9.716079e-003
1.031401e-002
1.132050e-002
1.284973e-002
1.498945e-002
1.778216e-002
2.121489e-002
2.522023e-002
2.968766e-002
3.448110e-002
3.945763e-002
4.448321e-002
4.944340e-002
5.424867e-002
5.883511e-002
6.316201e-002
6.720769e-002
7.096472e-002
7.443564e-002
7.762940e-002
8.055890e-002
8.323940e-002
8.568753e-002
8.792074e-002
8.995687e-002
9.181368e-002
9.350840e-002
9.505728e-002
9.647504e-002
9.777445e-002
9.896589e-002
1.000571e-001
1.010529e-001
1.019549e-001
1.027615e-001
1.034677e-001
1.040652e-001
1.045419e-001
1.048823e-001
1.050666e-001
1.050712e-001
1.048670e-001
1.044198e-001
1.036887e-001
1.026254e-001
1.011734e-001
9.926796e-002
9.683610e-002
9.379956e-002
9.007949e-002
8.560527e-002
8.032785e-002
7.423783e-002
6.738672e-002
5.990724e-002
5.202534e-002
4.405531e-002
3.637084e-002
2.935198e-002
2.331837e-002
1.846887e-002
1.484929e-002
1.236009e-002
1.079926e-002
9.921793e-003
9.494073e-003
9.328509e-003
9.295113e-003
9.315744e-003
9.350130e-003
9.381277e-003
9.404310e-003
9.419537e-003
9.428861e-003
9.434233e-003
9.437163e-003
9.438679e-003
9.439418e-003
9.439755e-003
9.439896e-003
9.439948e-003
9.439964e-003
9.440043e-003
9.439985e-003
9.439827e-003
9.439473e-003
9.438734e-003
9.437274e-003
9.434528e-003
9.429585e-003
9.421076e-003
9.407118e-003
9.385493e-003
9.354435e-003
9.314708e-003
9.273981e-003
9.254573e-003
9.304799e-003
9.512093e-003
1.001304e-002
1.099303e-002
1.266910e-002
1.525417e-002
1.890996e-002
2.370254e-002
2.957671e-002
3.635903e-002
4.378799e-002
5.156018e-002
5.937735e-002
6.698259e-002
7.418049e-002
8.084200e-002
8.689830e-002
9.232870e-002
9.714706e-002
1.013893e-001
1.051038e-001
1.083439e-001
1.111635e-001
1.136140e-001
1.157429e-001
1.175929e-001
1.192023e-001
1.206044e-001
1.218284e-001
1.228993e-001
1.238383e-001
1.246634e-001
1.253891e-001
1.260272e-001
1.265869e-001
1.270750e-001
1.274962e-001
1.278536e-001
1.281481e-001
1.283793e-001
1.285449e-001
1.286407e-001
1.286605e-001
1.285951e-001
1.284320e-001
1.281535e-001
1.277355e-001
1.271450e-001
1.263372e-001
1.252517e-001
1.238083e-001
1.219024e-001
1.194011e-001
1.161423e-001
1.119396e-001
1.065991e-001
9.995176e-002
9.190430e-002
8.250139e-002
7.198252e-002
6.080637e-002
4.961599e-002
3.913377e-002
3.000864e-002
2.266982e-002
1.724742e-002
1.358901e-002
1.135390e-002
1.013492e-002
9.558895e-003
9.341024e-003
9.294954e-003
9.315386e-003
9.351558e-003
9.383657e-003
9.406696e-003
9.421452e-003
9.430203e-003
9.435084e-003
9.437662e-003
9.438950e-003
9.439556e-003
9.439822e-003
9.439928e-003
9.439963e-003
9.439992e-003
9.439879e-003
9.439584e-003
9.438945e-003
9.437652e-003
9.435159e-003
9.430560e-003
9.422435e-003
9.408744e-003
9.386934e-003
9.354726e-003
9.312477e-003
9.268718e-003
9.250933e-003
9.323134e-003
9.608945e-003
1.031340e-002
1.173017e-002
1.421836e-002
1.813939e-002
2.376206e-002
3.116524e-002
4.017891e-002
5.039414e-002
6.124191e-002
7.211001e-002
8.245442e-002
9.187267e-002
1.001290e-001
1.071408e-001
1.129423e-001
1.176425e-001
1.213864e-001
1.243281e-001
1.266138e-001
1.283742e-001
1.297209e-001
1.307466e-001
1.315265e-001
1.321194e-001
1.325712e-001
1.329162e-001
1.331803e-001
1.333827e-001
1.335376e-001
1.336555e-001
1.337442e-001
1.338097e-001
1.338566e-001
1.338884e-001
1.339082e-001
1.339184e-001
1.339211e-001
1.339179e-001
1.339099e-001
1.338979e-001
1.338819e-001
1.338613e-001
1.338347e-001
1.337991e-001
1.337500e-001
1.336807e-001
1.335811e-001
1.334364e-001
1.332256e-001
1.329172e-001
1.324645e-001
1.317960e-001
1.308010e-001
1.293091e-001
1.270658e-001
1.237172e-001
1.188249e-001
1.119389e-001
1.027376e-001
9.121121e-002
7.781408e-002
6.348388e-002
4.946601e-002
3.698378e-002
2.689914e-002
1.952562e-002
1.466132e-002
1.178205e-002
1.027122e-002
9.588212e-003
9.342868e-003
9.295291e-003
9.318739e-003
9.356498e-003
9.388431e-003
9.410450e-003
9.424048e-003
9.431839e-003
9.436041e-003
9.438185e-003
9.439219e-003
9.439687e-003
9.439882e-003
9.439951e-003
9.439869e-003
9.439667e-003
9.439153e-003
9.438065e-003
9.435912e-003
9.431841e-003
9.424463e-003
9.411683e-003
9.390711e-003
9.358709e-003
9.315148e-003
9.267962e-003
9.246770e-003
9.326755e-003
9.663998e-003
1.053505e-002
1.236061e-002
1.568223e-002
2.106354e-002
2.891697e-002
3.930668e-002
5.182161e-002
6.560342e-002
7.954110e-002
9.255150e-002
1.038240e-001
1.129422e-001
1.198693e-001
1.248424e-001
1.282386e-001
1.304614e-001
1.318668e-001
1.327321e-001
1.332555e-001
1.335710e-001
1.337652e-001
1.338917e-001
1.339808e-001
1.340477e-001
1.340984e-001
1.341335e-001
1.341523e-001
1.341539e-001
1.341385e-001
1.341071e-001
1.340618e-001
1.340053e-001
1.339405e-001
1.338702e-001
1.337976e-001
1.337256e-001
1.336574e-001
1.335964e-001
1.335461e-001
1.335109e-001
1.334952e-001
1.335043e-001
1.335435e-001
1.336186e-001
1.337341e-001
1.338932e-001
1.340957e-001
1.343360e-001
1.346002e-001
1.348637e-001
1.350879e-001
1.352206e-001
1.351997e-001
1.349626e-001
1.344581e-001
1.336468e-001
1.324664e-001
1.307422e-001
1.280618e-001
1.236930e-001
1.166856e-001
1.062562e-001
9.233459e-002
7.590263e-002
5.881286e-002
4.313150e-002
3.039693e-002
2.121404e-002
1.532324e-002
1.196807e-002
1.028855e-002
9.571296e-003
9.333181e-003
9.296777e-003
9.325901e-003
9.364529e-003
9.395035e-003
9.415091e-003
9.426993e-003
9.433568e-003
9.436991e-003
9.438677e-003
9.439460e-003
9.439796e-003
9.439917e-003
9.439633e-003
9.439294e-003
9.438445e-003
9.436682e-003
9.433253e-003
9.426875e-003
9.415522e-003
9.396311e-003
9.365923e-003
9.322624e-003
9.272263e-003
9.242542e-003
9.311515e-003
9.654856e-003
1.060734e-002
1.271407e-002
1.672136e-002
2.344518e-002
3.348924e-002
4.688138e-002
6.281418e-002
7.970420e-002
9.563354e-002
1.089828e-001
1.189212e-001
1.255147e-001
1.294593e-001
1.316563e-001
1.328753e-001
1.336129e-001
1.341073e-001
1.344262e-001
1.345626e-001
1.345007e-001
1.342426e-001
1.338093e-001
1.332317e-001
1.325423e-001
1.317707e-001
1.309427e-001
1.300795e-001
1.291989e-001
1.283155e-001
1.274409e-001
1.265839e-001
1.257510e-001
1.249467e-001
1.241742e-001
1.234362e-001
1.227354e-001
1.220750e-001
1.214597e-001
1.208959e-001
1.203923e-001
1.199602e-001
1.196140e-001
1.193712e-001
1.192526e-001
1.192824e-001
1.194876e-001
1.198977e-001
1.205430e-001
1.214526e-001
1.226509e-001
1.241515e-001
1.259481e-001
1.280028e-001
1.302291e-001
1.324753e-001
1.345115e-001
1.360354e-001
1.367210e-001
1.363333e-001
1.348679e-001
1.325230e-001
1.292763e-001
1.242813e-001
1.158934e-001
1.027886e-001
8.533862e-002
6.585229e-002
4.743148e-002
3.248073e-002
2.193145e-002
1.540548e-002
1.185909e-002
1.018169e-002
9.514640e-003
9.317194e-003
9.301375e-003
9.336818e-003
9.374901e-003
9.402712e-003
9.420075e-003
9.429956e-003
9.435212e-003
9.437850e-003
9.439100e-003
9.439650e-003
9.439852e-003
9.439234e-003
9.438695e-003
9.437357e-003
9.434618e-003
9.429372e-003
9.419772e-003
9.403020e-003
9.375517e-003
9.334320e-003
9.282232e-003
9.241330e-003
9.282856e-003
9.582591e-003
1.050350e-002
1.268336e-002
1.706200e-002
2.474135e-002
3.658817e-002
5.263189e-002
7.156516e-002
9.081997e-002
1.074636e-001
1.195210e-001
1.268172e-001
1.306726e-001
1.327551e-001
1.341037e-001
1.349504e-001
1.351275e-001
1.344897e-001
1.330626e-001
1.309969e-001
1.284858e-001
1.257110e-001
1.228197e-001
1.199200e-001
1.170855e-001
1.143627e-001
1.117788e-001
1.093477e-001
1.070748e-001
1.049593e-001
1.029965e-001
1.011788e-001
9.949701e-002
9.794077e-002
9.649977e-002
9.516442e-002
9.392659e-002
9.278029e-002
9.172215e-002
9.075192e-002
8.987281e-002
8.909181e-002
8.841998e-002
8.787273e-002
8.747017e-002
8.723746e-002
8.720532e-002
8.741061e-002
8.789696e-002
8.871556e-002
8.992568e-002
9.159485e-002
9.379782e-002
9.661331e-002
1.001165e-001
1.043647e-001
1.093714e-001
1.150641e-001
1.212220e-001
1.273980e-001
1.328630e-001
1.366612e-001
1.379198e-001
1.364367e-001
1.329907e-001
1.283065e-001
1.212254e-001
1.091489e-001
9.116624e-002
6.977288e-002
4.919817e-002
3.273608e-002
2.151165e-002
1.488793e-002
1.148747e-002
9.984650e-003
9.438597e-003
9.303282e-003
9.310956e-003
9.350915e-003
9.386580e-003
9.410643e-003
9.424893e-003
9.432665e-003
9.436641e-003
9.438559e-003
9.439419e-003
9.439740e-003
9.438614e-003
9.437792e-003
9.435769e-003
9.431680e-003
9.423955e-003
9.410055e-003
9.386381e-003
9.349095e-003
9.297838e-003
9.246949e-003
9.253009e-003
9.471694e-003
1.025433e-002
1.227239e-002
1.660309e-002
2.462936e-002
3.757140e-002
5.561379e-002
7.701874e-002
9.809984e-002
1.147762e-001
1.250697e-001
1.302570e-001
1.330776e-001
1.349903e-001
1.356599e-001
1.343751e-001
1.310504e-001
1.261724e-001
1.204028e-001
1.143138e-001
1.083031e-001
1.026064e-001
9.734083e-002
9.254711e-002
8.822145e-002
8.433688e-002
8.085647e-002
7.774081e-002
7.495168e-002
7.245358e-002
7.021396e-002
6.820315e-002
6.639414e-002
6.476244e-002
6.328614e-002
6.194596e-002
6.072550e-002
5.961133e-002
5.859318e-002
5.766404e-002
5.682027e-002
5.606164e-002
5.539142e-002
5.481646e-002
5.434737e-002
5.399878e-002
5.378978e-002
5.374448e-002
5.389301e-002
5.427276e-002
5.493017e-002
5.592302e-002
5.732343e-002
5.922130e-002
6.172814e-002
6.498028e-002
6.913993e-002
7.439028e-002
8.091767e-002
8.886839e-002
9.826091e-002
1.088335e-001
1.198283e-001
1.297956e-001
1.366932e-001
1.387499e-001
1.360692e-001
1.308586e-001
1.239063e-001
1.121790e-001
9.338264e-002
7.023884e-002
4.816946e-002
3.111741e-002
2.005722e-002
1.390674e-002
1.095644e-002
9.754838e-003
9.367513e-003
9.298606e-003
9.325992e-003
9.366974e-003
9.398407e-003
9.418091e-003
9.429161e-003
9.434944e-003
9.437782e-003
9.439074e-003
9.439563e-003
9.437711e-003
9.436505e-003
9.433561e-003
9.427675e-003
9.416709e-003
9.397350e-003
9.365377e-003
9.317927e-003
9.261573e-003
9.234583e-003
9.358083e-003
9.934288e-003
1.159632e-002
1.546010e-002
2.311959e-002
3.621083e-002
5.533723e-002
7.867496e-002
1.015334e-001
1.185064e-001
1.276729e-001
1.320277e-001
1.348877e-001
1.359315e-001
1.333841e-001
1.270031e-001
1.180360e-001
1.080285e-001
9.813710e-002
8.901401e-002
8.093015e-002
7.392694e-002
6.792997e-002
6.281845e-002
5.846259e-002
5.474140e-002
5.154972e-002
4.879959e-002
4.641889e-002
4.434890e-002
4.254164e-002
4.095749e-002
3.956338e-002
3.833134e-002
3.723762e-002
3.626203e-002
3.538760e-002
3.460025e-002
3.388867e-002
3.324417e-002
3.266057e-002
3.213410e-002
3.166334e-002
3.124914e-002
3.089468e-002
3.060547e-002
3.038954e-002
3.025774e-002
3.022420e-002
3.030708e-002
3.052971e-002
3.092215e-002
3.152351e-002
3.238519e-002
3.357533e-002
3.518497e-002
3.733614e-002
4.019236e-002
4.397075e-002
4.895341e-002
5.549030e-002
6.397629e-002
7.476883e-002
8.799359e-002
1.031854e-001
1.187927e-001
1.318606e-001
1.387706e-001
1.379583e-001
1.323163e-001
1.248496e-001
1.125073e-001
9.209630e-002
6.722959e-002
4.451179e-002
2.795561e-002
1.790417e-002
1.270107e-002
1.039706e-002
9.548672e-003
9.319416e-003
9.306047e-003
9.345175e-003
9.383374e-003
9.409333e-003
9.424524e-003
9.432652e-003
9.436710e-003
9.438585e-003
9.439303e-003
9.436464e-003
9.434756e-003
9.430620e-003
9.422437e-003
9.407415e-003
9.381483e-003
9.340347e-003
9.284456e-003
9.234698e-003
9.272743e-003
9.628157e-003
1.083255e-002
1.392238e-002
2.055976e-002
3.275601e-002
5.179229e-002
7.636172e-002
1.012890e-001
1.196084e-001
1.287198e-001
1.329857e-001
1.357655e-001
1.345844e-001
1.271614e-001
1.148678e-001
1.006249e-001
8.677014e-002
7.452727e-002
6.427501e-002
5.593238e-002
4.923215e-002
4.386899e-002
3.956442e-002
3.608744e-002
3.325513e-002
3.092618e-002
2.899275e-002
2.737294e-002
2.600451e-002
2.483981e-002
2.384192e-002
2.298176e-002
2.223603e-002
2.158579e-002
2.101548e-002
2.051227e-002
2.006561e-002
1.966693e-002
1.930938e-002
1.898774e-002
1.869819e-002
1.843826e-002
1.820674e-002
1.800359e-002
1.782991e-002
1.768802e-002
1.758145e-002
1.751513e-002
1.749568e-002
1.753183e-002
1.763507e-002
1.782068e-002
1.810922e-002
1.852875e-002
1.911817e-002
1.993214e-002
2.104851e-002
2.257941e-002
2.468762e-002
2.760957e-002
3.168503e-002
3.738752e-002
4.533568e-002
5.623758e-002
7.067724e-002
8.862018e-002
1.085874e-001
1.268474e-001
1.379519e-001
1.386322e-001
1.325079e-001
1.242946e-001
1.102261e-001
8.726528e-002
6.100810e-002
3.881052e-002