# vtk DataFile Version 3.0
vtk output
ASCII
DATASET STRUCTURED_POINTS
DIMENSIONS 100 100 1
SPACING 1 1 1
ORIGIN 0 0 0
POINT_DATA 10000
SCALARS SFBox_profile double
LOOKUP_TABLE default 
9.439958e-003
9.439963e-003
9.439972e-003
9.439986e-003
9.440002e-003
9.440015e-003
9.440015e-003
9.439980e-003
9.439870e-003
9.439621e-003
9.439125e-003
9.438222e-003
9.436677e-003
9.434169e-003
9.430282e-003
9.424508e-003
9.416276e-003
9.405004e-003
9.390183e-003
9.371488e-003
9.348896e-003
9.322783e-003
9.293977e-003
9.263741e-003
9.233679e-003
9.205580e-003
9.181233e-003
9.162247e-003
9.149920e-003
9.145146e-003
9.148401e-003
9.159773e-003
9.179030e-003
9.205716e-003
9.239240e-003
9.278955e-003
9.324207e-003
9.374363e-003
9.428806e-003
9.486927e-003
9.548107e-003
9.611719e-003
9.677124e-003
9.743695e-003
9.810834e-003
9.877995e-003
9.944703e-003
1.001056e-002
1.007526e-002
1.013857e-002
1.020028e-002
1.026024e-002
1.031827e-002
1.037415e-002
1.042757e-002
1.047810e-002
1.052515e-002
1.056793e-002
1.060543e-002
1.063644e-002
1.065950e-002
1.067295e-002
1.067501e-002
1.066379e-002
1.063746e-002
1.059442e-002
1.053342e-002
1.045389e-002
1.035610e-002
1.024144e-002
1.011257e-002
9.973503e-003
9.829523e-003
9.686877e-003
9.552289e-003
9.432301e-003
9.332521e-003
9.256916e-003
9.207277e-003
9.182988e-003
9.181165e-003
9.197172e-003
9.225402e-003
9.260170e-003
9.296489e-003
9.330597e-003
9.360150e-003
9.384110e-003
9.402448e-003
9.415776e-003
9.425008e-003
9.431116e-003
9.434978e-003
9.437308e-003
9.438645e-003
9.439370e-003
9.439739e-003
9.439911e-003
9.439984e-003
9.440009e-003
9.439958e-003
9.439963e-003
9.439972e-003
9.439986e-003
9.440002e-003
9.440015e-003
9.440015e-003
9.439980e-003
9.439870e-003
9.439621e-003
9.439125e-003
9.438222e-003
9.436677e-003
9.434169e-003
9.430282e-003
9.424508e-003
9.416276e-003
9.405004e-003
9.390183e-003
9.371488e-003
9.348896e-003
9.322783e-003
9.293977e-003
9.263741e-003
9.233679e-003
9.205580e-003
9.181233e-003
9.162247e-003
9.149920e-003
9.145146e-003
9.148401e-003
9.159773e-003
9.179030e-003
9.205716e-003
9.239240e-003
9.278955e-003
9.324207e-003
9.374363e-003
9.428806e-003
9.486927e-003
9.548107e-003
9.611719e-003
9.677124e-003
9.743695e-003
9.810834e-003
9.877995e-003
9.944703e-003
1.001056e-002
1.007526e-002
1.013857e-002
1.020028e-002
1.026024e-002
1.031827e-002
1.037415e-002
1.042757e-002
1.047810e-002
1.052515e-002
1.056793e-002
1.060543e-002
1.063644e-002
1.065950e-002
1.067295e-002
1.067501e-002
1.066379e-002
1.063746e-002
1.059442e-002
1.053342e-002
1.045389e-002
1.035610e-002
1.024144e-002
1.011257e-002
9.973503e-003
9.829523e-003
9.686877e-003
9.552289e-003
9.432301e-003
9.332521e-003
9.256916e-003
9.207277e-003
9.182988e-003
9.181165e-003
9.197172e-003
9.225402e-003
9.260170e-003
9.296489e-003
9.330597e-003
9.360150e-003
9.384110e-003
9.402448e-003
9.415776e-003
9.425008e-003
9.431116e-003
9.434978e-003
9.437308e-003
9.438645e-003
9.439370e-003
9.439739e-003
9.439911e-003
9.439984e-003
9.440009e-003
9.439964e-003
9.439969e-003
9.439978e-003
9.439990e-003
9.440002e-003
9.440003e-003
9.439976e-003
9.439888e-003
9.439678e-003
9.439248e-003
9.438442e-003
9.437027e-003
9.434672e-003
9.430932e-003
9.425250e-003
9.416986e-003
9.405483e-003
9.390196e-003
9.370873e-003
9.347765e-003
9.321830e-003
9.294865e-003
9.269495e-003
9.249001e-003
9.236999e-003
9.237038e-003
9.252189e-003
9.284736e-003
9.335987e-003
9.406251e-003
9.494928e-003
9.600709e-003
9.721806e-003
9.856192e-003
1.000182e-002
1.015676e-002
1.031928e-002
1.048785e-002
1.066112e-002
1.083783e-002
1.101676e-002
1.119672e-002
1.137654e-002
1.155506e-002
1.173124e-002
1.190412e-002
1.207294e-002
1.223707e-002
1.239606e-002
1.254961e-002
1.269748e-002
1.283949e-002
1.297540e-002
1.310484e-002
1.322724e-002
1.334175e-002
1.344715e-002
1.354178e-002
1.362354e-002
1.368981e-002
1.373746e-002
1.376290e-002
1.376215e-002
1.373097e-002
1.366508e-002
1.356047e-002
1.341368e-002
1.322238e-002
1.298576e-002
1.270514e-002
1.238442e-002
1.203037e-002
1.165278e-002
1.126410e-002
1.087872e-002
1.051186e-002
1.017809e-002
9.889703e-003
9.655283e-003
9.478627e-003
9.358393e-003
9.288554e-003
9.259623e-003
9.260386e-003
9.279712e-003
9.308040e-003
9.338246e-003
9.365836e-003
9.388605e-003
9.406008e-003
9.418499e-003
9.426987e-003
9.432473e-003
9.435852e-003
9.437836e-003
9.438941e-003
9.439523e-003
9.439810e-003
9.439940e-003
9.439988e-003
9.439976e-003
9.439981e-003
9.439989e-003
9.439996e-003
9.439994e-003
9.439965e-003
9.439873e-003
9.439656e-003
9.439206e-003
9.438350e-003
9.436819e-003
9.434218e-003
9.430004e-003
9.423477e-003
9.413818e-003
9.400200e-003
9.382012e-003
9.359208e-003
9.332785e-003
9.305276e-003
9.281141e-003
9.266860e-003
9.270596e-003
9.301433e-003
9.368305e-003
9.478859e-003
9.638512e-003
9.849892e-003
1.011273e-002
1.042415e-002
1.077927e-002
1.117188e-002
1.159521e-002
1.204254e-002
1.250769e-002
1.298530e-002
1.347092e-002
1.396091e-002
1.445225e-002
1.494231e-002
1.542870e-002
1.590910e-002
1.638130e-002
1.684321e-002
1.729292e-002
1.772882e-002
1.814967e-002
1.855457e-002
1.894299e-002
1.931469e-002
1.966958e-002
2.000758e-002
2.032848e-002
2.063176e-002
2.091636e-002
2.118060e-002
2.142193e-002
2.163686e-002
2.182081e-002
2.196808e-002
2.207177e-002
2.212389e-002
2.211543e-002
2.203662e-002
2.187727e-002
2.162733e-002
2.127753e-002
2.082035e-002
2.025106e-002
1.956894e-002
1.877859e-002
1.789097e-002
1.692416e-002
1.590345e-002
1.486046e-002
1.383135e-002
1.285388e-002
1.196375e-002
1.119056e-002
1.055420e-002
1.006238e-002
9.710135e-003
9.481362e-003
9.352360e-003
9.296278e-003
9.287447e-003
9.304559e-003
9.332185e-003
9.360724e-003
9.385299e-003
9.404254e-003
9.417760e-003
9.426794e-003
9.432516e-003
9.435961e-003
9.437936e-003
9.439012e-003
9.439565e-003
9.439828e-003
9.439931e-003
9.439993e-003
9.439997e-003
9.440001e-003
9.439996e-003
9.439965e-003
9.439871e-003
9.439648e-003
9.439179e-003
9.438267e-003
9.436600e-003
9.433705e-003
9.428909e-003
9.421316e-003
9.409857e-003
9.393449e-003
9.371377e-003
9.343958e-003
9.313530e-003
9.285641e-003
9.270151e-003
9.281780e-003
9.339673e-003
9.465776e-003
9.682203e-003
1.000818e-002
1.045729e-002
1.103566e-002
1.174149e-002
1.256574e-002
1.349378e-002
1.450747e-002
1.558719e-002
1.671375e-002
1.786964e-002
1.903999e-002
2.021285e-002
2.137904e-002
2.253173e-002
2.366578e-002
2.477711e-002
2.586221e-002
2.691784e-002
2.794097e-002
2.892882e-002
2.987900e-002
3.078968e-002
3.165970e-002
3.248855e-002
3.327636e-002
3.402371e-002
3.473137e-002
3.540010e-002
3.603026e-002
3.662151e-002
3.717253e-002
3.768066e-002
3.814166e-002
3.854944e-002
3.889589e-002
3.917074e-002
3.936142e-002
3.945314e-002
3.942898e-002
3.927014e-002
3.895641e-002
3.846684e-002
3.778082e-002
3.687939e-002
3.574713e-002
3.437444e-002
3.276013e-002
3.091423e-002
2.886060e-002
2.663877e-002
2.430446e-002
2.192810e-002
1.959090e-002
1.737817e-002
1.537044e-002
1.363362e-002
1.221005e-002
1.111295e-002
1.032596e-002
9.808207e-003
9.503634e-003
9.351922e-003
9.298051e-003
9.298403e-003
9.322780e-003
9.353125e-003
9.380491e-003
9.401701e-003
9.416634e-003
9.426427e-003
9.432486e-003
9.436045e-003
9.438032e-003
9.439083e-003
9.439597e-003
9.439803e-003
9.440014e-003
9.440014e-003
9.440007e-003
9.439977e-003
9.439888e-003
9.439671e-003
9.439205e-003
9.438277e-003
9.436540e-003
9.433448e-003
9.428198e-003
9.419686e-003
9.406549e-003
9.387388e-003
9.361343e-003
9.329235e-003
9.295439e-003
9.270417e-003
9.273452e-003
9.334585e-003
9.494570e-003
9.801947e-003
1.030725e-002
1.105544e-002
1.207848e-002
1.339004e-002
1.498354e-002
1.683380e-002
1.890135e-002
2.113823e-002
2.349370e-002
2.591906e-002
2.837110e-002
3.081409e-002
3.322051e-002
3.557065e-002
3.785151e-002
4.005519e-002
4.217728e-002
4.421534e-002
4.616791e-002
4.803390e-002
4.981238e-002
5.150270e-002
5.310470e-002
5.461891e-002
5.604670e-002
5.739028e-002
5.865256e-002
5.983686e-002
6.094660e-002
6.198484e-002
6.295386e-002
6.385471e-002
6.468679e-002
6.544745e-002
6.613163e-002
6.673156e-002
6.723646e-002
6.763234e-002
6.790182e-002
6.802397e-002
6.797430e-002
6.772477e-002
6.724400e-002
6.649766e-002
6.544926e-002
6.406142e-002
6.229776e-002
6.012585e-002
5.752105e-002
5.447156e-002
5.098441e-002
4.709178e-002
4.285693e-002
3.837790e-002
3.378738e-002
2.924647e-002
2.493107e-002
2.101157e-002
1.762879e-002
1.487209e-002
1.276620e-002
1.127139e-002
1.029722e-002
9.725365e-003
9.434039e-003
9.317272e-003
9.295112e-003
9.314972e-003
9.346982e-003
9.377025e-003
9.400237e-003
9.416291e-003
9.426570e-003
9.432763e-003
9.436298e-003
9.438206e-003
9.439161e-003
9.439549e-003
9.440034e-003
9.440026e-003
9.439998e-003
9.439917e-003
9.439719e-003
9.439282e-003
9.438389e-003
9.436672e-003
9.433538e-003
9.428076e-003
9.418993e-003
9.404626e-003
9.383211e-003
9.353663e-003
9.317320e-003
9.281092e-003
9.262240e-003
9.294227e-003
9.431935e-003
9.753533e-003
1.035627e-002
1.134506e-002
1.281545e-002
1.483523e-002
1.743013e-002
2.057788e-002
2.421179e-002
2.823229e-002
3.252232e-002
3.696254e-002
4.144344e-002
4.587300e-002
5.018012e-002
5.431470e-002
5.824550e-002
6.195678e-002
6.544433e-002
6.871171e-002
7.176690e-002
7.461982e-002
7.728077e-002
7.975957e-002
8.206541e-002
8.420695e-002
8.619264e-002
8.803098e-002
8.973062e-002
9.130041e-002
9.274917e-002
9.408546e-002
9.531724e-002
9.645148e-002
9.749381e-002
9.844813e-002
9.931632e-002
1.000980e-001
1.007900e-001
1.013867e-001
1.018792e-001
1.022554e-001
1.024997e-001
1.025926e-001
1.025103e-001
1.022243e-001
1.017006e-001
1.008992e-001
9.977354e-002
9.826976e-002
9.632717e-002
9.387909e-002
9.085542e-002
8.718756e-002
8.281630e-002
7.770350e-002
7.184746e-002
6.530066e-002
5.818649e-002
5.070926e-002
4.315036e-002
3.584472e-002
2.913669e-002
2.332281e-002
1.859757e-002
1.502086e-002
1.251899e-002
1.091809e-002
9.995642e-003
9.531111e-003
9.341288e-003
9.294933e-003
9.310397e-003
9.343926e-003
9.376063e-003
9.400548e-003
9.417078e-003
9.427371e-003
9.433387e-003
9.436700e-003
9.438384e-003
9.439078e-003
9.440047e-003
9.440025e-003
9.439955e-003
9.439783e-003
9.439394e-003
9.438580e-003
9.436974e-003
9.433963e-003
9.428574e-003
9.419370e-003
9.404423e-003
9.381574e-003
9.349382e-003
9.309459e-003
9.271169e-003
9.259523e-003
9.326086e-003
9.560498e-003
1.009754e-002
1.111316e-002
1.280454e-002
1.535513e-002
1.889275e-002
2.345423e-002
2.896945e-002
3.527041e-002
4.212142e-002
4.925943e-002
5.643226e-002
6.342618e-002
7.007994e-002
7.628697e-002
8.198961e-002
8.716920e-002
9.183517e-002
9.601503e-002
9.974629e-002
1.030705e-001
1.060293e-001
1.086620e-001
1.110043e-001
1.130884e-001
1.149427e-001
1.165925e-001
1.180603e-001
1.193663e-001
1.205286e-001
1.215634e-001
1.224849e-001
1.233057e-001
1.240367e-001
1.246870e-001
1.252641e-001
1.257737e-001
1.262202e-001
1.266062e-001
1.269329e-001
1.271998e-001
1.274050e-001
1.275449e-001
1.276138e-001
1.276039e-001
1.275042e-001
1.273002e-001
1.269724e-001
1.264948e-001
1.258328e-001
1.249405e-001
1.237574e-001
1.222051e-001
1.201834e-001
1.175676e-001
1.142091e-001
1.099408e-001
1.045938e-001
9.802555e-002
9.016424e-002
8.106046e-002
7.093487e-002
6.019986e-002
4.943294e-002
3.929068e-002
3.037822e-002
2.311730e-002
1.766517e-002
1.391540e-002
1.157245e-002
1.025995e-002
9.617817e-003
9.360856e-003
9.295764e-003
9.309282e-003
9.344516e-003
9.377935e-003
9.402722e-003
9.418950e-003
9.428731e-003
9.434233e-003
9.437074e-003
9.438259e-003
9.440044e-003
9.439994e-003
9.439852e-003
9.439524e-003
9.438820e-003
9.437395e-003
9.434651e-003
9.429608e-003
9.420755e-003
9.405969e-003
9.382716e-003
9.349035e-003
9.306310e-003
9.265431e-003
9.258247e-003
9.355267e-003
9.687276e-003
1.046303e-002
1.196990e-002
1.454396e-002
1.850482e-002
2.406773e-002
3.126300e-002
3.989760e-002
4.957888e-002
5.979278e-002
7.000560e-002
7.975363e-002
8.869747e-002
9.663711e-002
1.034974e-001
1.092985e-001
1.141222e-001
1.180826e-001
1.213032e-001
1.239031e-001
1.259898e-001
1.276566e-001
1.289826e-001
1.300340e-001
1.308659e-001
1.315232e-001
1.320426e-001
1.324533e-001
1.327785e-001
1.330366e-001
1.332416e-001
1.334045e-001
1.335336e-001
1.336355e-001
1.337151e-001
1.337764e-001
1.338223e-001
1.338554e-001
1.338776e-001
1.338906e-001
1.338956e-001
1.338937e-001
1.338856e-001
1.338714e-001
1.338511e-001
1.338236e-001
1.337871e-001
1.337386e-001
1.336733e-001
1.335840e-001
1.334599e-001
1.332858e-001
1.330388e-001
1.326857e-001
1.321765e-001
1.314357e-001
1.303481e-001
1.287412e-001
1.263662e-001
1.228902e-001
1.179154e-001
1.110462e-001
1.020080e-001
9.080168e-002
7.783413e-002
6.394384e-002
5.026277e-002
3.793766e-002
2.782247e-002
2.028440e-002
1.520104e-002
1.211584e-002
1.044884e-002
9.666303e-003
9.367295e-003
9.295894e-003
9.311628e-003
9.348797e-003
9.382476e-003
9.406486e-003
9.421623e-003
9.430372e-003
9.434972e-003
9.436911e-003
9.440009e-003
9.439912e-003
9.439653e-003
9.439075e-003
9.437873e-003
9.435500e-003
9.431020e-003
9.422935e-003
9.409034e-003
9.386481e-003
9.352693e-003
9.308204e-003
9.263759e-003
9.254910e-003
9.367111e-003
9.770621e-003
1.075572e-002
1.274664e-002
1.626479e-002
2.182070e-002
2.974614e-002
4.002419e-002
5.220314e-002
6.545573e-002
7.877256e-002
9.120601e-002
1.020636e-001
1.109914e-001
1.179499e-001
1.231235e-001
1.268149e-001
1.293580e-001
1.310597e-001
1.321713e-001
1.328825e-001
1.333283e-001
1.336025e-001
1.337692e-001
1.338712e-001
1.339370e-001
1.339839e-001
1.340211e-001
1.340528e-001
1.340793e-001
1.340996e-001
1.341117e-001
1.341144e-001
1.341071e-001
1.340897e-001
1.340633e-001
1.340292e-001
1.339893e-001
1.339457e-001
1.339007e-001
1.338566e-001
1.338162e-001
1.337822e-001
1.337576e-001
1.337459e-001
1.337506e-001
1.337757e-001
1.338250e-001
1.339020e-001
1.340092e-001
1.341474e-001
1.343139e-001
1.345011e-001
1.346946e-001
1.348709e-001
1.349965e-001
1.350292e-001
1.349220e-001
1.346300e-001
1.341152e-001
1.333364e-001
1.322095e-001
1.305290e-001
1.278711e-001
1.235414e-001
1.166738e-001
1.065602e-001
9.311549e-002
7.718849e-002
6.044808e-002
4.483925e-002
3.190672e-002
2.236409e-002
1.608514e-002
1.240738e-002
1.050614e-002
9.659662e-003
9.357744e-003
9.295657e-003
9.317651e-003
9.356471e-003
9.389154e-003
9.411301e-003
9.424599e-003
9.431746e-003
9.434797e-003
9.439921e-003
9.439751e-003
9.439308e-003
9.438347e-003
9.436396e-003
9.432615e-003
9.425602e-003
9.413184e-003
9.392367e-003
9.359967e-003
9.315175e-003
9.266716e-003
9.249158e-003
9.354056e-003
9.778880e-003
1.088567e-002
1.324060e-002
1.758296e-002
2.467000e-002
3.498978e-002
4.843274e-002
6.410695e-002
8.046758e-002
9.576288e-002
1.085855e-001
1.182471e-001
1.248213e-001
1.289021e-001
1.312615e-001
1.325840e-001
1.333502e-001
1.338350e-001
1.341605e-001
1.343602e-001
1.344317e-001
1.343692e-001
1.341760e-001
1.338648e-001
1.334526e-001
1.329576e-001
1.323960e-001
1.317819e-001
1.311274e-001
1.304434e-001
1.297398e-001
1.290256e-001
1.283094e-001
1.275984e-001
1.268990e-001
1.262167e-001
1.255559e-001
1.249204e-001
1.243138e-001
1.237398e-001
1.232025e-001
1.227071e-001
1.222601e-001
1.218699e-001
1.215469e-001
1.213040e-001
1.211566e-001
1.211230e-001
1.212242e-001
1.214831e-001
1.219247e-001
1.225739e-001
1.234533e-001
1.245801e-001
1.259599e-001
1.275791e-001
1.293943e-001
1.313201e-001
1.332161e-001
1.348799e-001
1.360564e-001
1.364834e-001
1.359867e-001
1.345795e-001
1.324056e-001
1.293660e-001
1.246319e-001
1.166797e-001
1.042299e-001
8.747229e-002
6.841177e-002
4.996783e-002
3.460024e-002
2.344992e-002
1.634762e-002
1.236576e-002
1.041420e-002
9.600523e-003
9.336960e-003
9.297356e-003
9.327578e-003
9.366860e-003
9.397113e-003
9.416353e-003
9.427008e-003
9.431627e-003
9.439753e-003
9.439474e-003
9.438759e-003
9.437238e-003
9.434205e-003
9.428423e-003
9.417882e-003
9.399618e-003
9.370025e-003
9.326806e-003
9.275275e-003
9.244319e-003
9.320262e-003
9.706622e-003
1.080758e-002
1.330535e-002
1.815863e-002
2.641874e-002
3.880037e-002
5.510833e-002
7.385675e-002
9.249668e-002
1.083521e-001
1.197808e-001
1.267690e-001
1.305430e-001
1.325880e-001
1.338773e-001
1.347196e-001
1.350479e-001
1.347513e-001
1.338237e-001
1.323557e-001
1.304799e-001
1.283292e-001
1.260169e-001
1.236311e-001
1.212357e-001
1.188744e-001
1.165754e-001
1.143565e-001
1.122287e-001
1.101988e-001
1.082708e-001
1.064469e-001
1.047275e-001
1.031117e-001
1.015973e-001
1.001810e-001
9.885860e-002
9.762586e-002
9.647866e-002
9.541364e-002
9.442871e-002
9.352354e-002
9.270003e-002
9.196272e-002
9.131921e-002
9.078055e-002
9.036161e-002
9.008153e-002
8.996413e-002
9.003845e-002
9.033927e-002
9.090765e-002
9.179145e-002
9.304547e-002
9.473109e-002
9.691464e-002
9.966351e-002
1.030386e-001
1.070806e-001
1.117867e-001
1.170735e-001
1.227243e-001
1.283259e-001
1.332276e-001
1.365972e-001
1.376868e-001
1.363200e-001
1.331485e-001
1.287945e-001
1.222522e-001
1.110800e-001
9.409299e-002
7.325574e-002
5.253260e-002
3.538280e-002
2.329466e-002
1.592144e-002
1.200352e-002
1.020205e-002
9.509784e-003
9.314737e-003
9.303745e-003
9.341118e-003
9.378824e-003
9.405135e-003
9.420340e-003
9.427066e-003
9.439475e-003
9.439040e-003
9.437939e-003
9.435632e-003
9.431101e-003
9.422598e-003
9.407378e-003
9.381708e-003
9.342070e-003
9.289935e-003
9.245441e-003
9.279618e-003
9.578096e-003
1.054346e-002
1.291531e-002
1.782657e-002
2.664015e-002
4.040561e-002
5.897629e-002
8.027370e-002
1.005532e-001
1.161261e-001
1.255842e-001
1.304137e-001
1.331151e-001
1.349440e-001
1.356538e-001
1.346856e-001
1.319665e-001
1.278789e-001
1.229567e-001
1.176753e-001
1.123770e-001
1.072743e-001
1.024812e-001
9.804539e-002
9.397448e-002
9.025359e-002
8.685730e-002
8.375684e-002
8.092426e-002
7.833429e-002
7.596486e-002
7.379675e-002
7.181302e-002
6.999836e-002
6.833858e-002
6.682034e-002
6.543111e-002
6.415922e-002
6.299411e-002
6.192652e-002
6.094883e-002
6.005531e-002
5.924236e-002
5.850879e-002
5.785604e-002
5.728840e-002
5.681327e-002
5.644148e-002
5.618765e-002
5.607074e-002
5.611471e-002
5.634944e-002
5.681198e-002
5.754811e-002
5.861437e-002
6.008047e-002
6.203211e-002
6.457373e-002
6.783062e-002
7.194883e-002
7.708964e-002
8.341245e-002
9.103557e-002
9.995893e-002
1.099321e-001
1.202690e-001
1.296788e-001
1.363373e-001
1.385958e-001
1.363682e-001
1.315453e-001
1.251290e-001
1.145411e-001
9.709096e-002
7.460149e-002
5.216836e-002
3.410591e-002
2.193653e-002
1.491782e-002
1.142152e-002
9.932032e-003
9.416463e-003
9.300809e-003
9.316214e-003
9.357051e-003
9.390661e-003
9.411354e-003
9.420763e-003
9.439052e-003
9.438403e-003
9.436778e-003
9.433414e-003
9.426895e-003
9.414850e-003
9.393741e-003
9.359374e-003
9.309948e-003
9.256236e-003
9.248413e-003
9.435356e-003
1.017321e-002
1.217970e-002
1.666560e-002
2.525975e-002
3.945294e-002
5.943421e-002
8.282050e-002
1.046765e-001
1.201398e-001
1.282804e-001
1.323636e-001
1.351272e-001
1.360004e-001
1.335035e-001
1.275827e-001
1.193828e-001
1.102451e-001
1.011660e-001
9.271625e-002
8.514393e-002
7.850037e-002
7.273425e-002
6.775016e-002
6.344087e-002
5.970346e-002
5.644643e-002
5.359207e-002
5.107634e-002
4.884747e-002
4.686405e-002
4.509289e-002
4.350708e-002
4.208438e-002
4.080593e-002
3.965541e-002
3.861841e-002
3.768217e-002
3.683537e-002
3.606814e-002
3.537203e-002
3.474014e-002
3.416712e-002
3.364927e-002
3.318461e-002
3.277297e-002
3.241606e-002
3.211760e-002
3.188351e-002
3.172214e-002
3.164467e-002
3.166562e-002
3.180364e-002
3.208260e-002
3.253312e-002
3.319472e-002
3.411873e-002
3.537231e-002
3.704382e-002
3.924988e-002
4.214429e-002
4.592837e-002
5.086017e-002
5.725619e-002
6.547048e-002
7.582286e-002
8.843163e-002
1.029039e-001
1.178979e-001
1.308016e-001
1.382462e-001
1.383596e-001
1.333022e-001
1.263448e-001
1.154046e-001
9.666318e-002
7.237997e-002
4.893297e-002
3.102161e-002
1.968613e-002
1.358344e-002
1.076678e-002
9.672809e-003
9.344998e-003
9.300437e-003
9.333781e-003
9.373061e-003
9.399767e-003
9.412389e-003
9.438453e-003
9.437522e-003
9.435211e-003
9.430480e-003
9.421430e-003
9.404982e-003
9.376882e-003
9.333244e-003
9.277035e-003
9.237550e-003
9.318594e-003
9.798304e-003
1.129631e-002
1.497222e-002
2.258927e-002
3.609514e-002
5.635832e-002
8.130908e-002
1.051868e-001
1.215675e-001
1.294297e-001
1.335509e-001
1.360998e-001
1.343384e-001
1.266821e-001
1.147718e-001
1.012936e-001
8.827271e-002
7.674162e-002
6.701159e-002
5.900665e-002
5.249374e-002
4.720657e-002
4.290042e-002
3.936994e-002
3.645036e-002
3.401241e-002
3.195591e-002
3.020387e-002
2.869737e-002
2.739143e-002
2.625163e-002
2.525136e-002
2.436975e-002
2.359004e-002
2.289848e-002
2.228352e-002
2.173529e-002
2.124527e-002
2.080610e-002
2.041149e-002
2.005614e-002
1.973572e-002
1.944685e-002
1.918710e-002
1.895499e-002
1.874998e-002
1.857254e-002
1.842414e-002
1.830737e-002
1.822603e-002
1.818539e-002
1.819244e-002
1.825639e-002
1.838931e-002
1.860717e-002
1.893122e-002
1.939017e-002
2.002321e-002
2.088458e-002
2.205033e-002
2.362825e-002
2.577249e-002
2.870387e-002
3.273595e-002
3.830177e-002
4.596500e-002
5.637551e-002
7.009296e-002
8.716916e-002
1.064245e-001
1.246569e-001
1.368290e-001
1.391271e-001
1.338277e-001
1.261620e-001
1.139093e-001
9.279051e-002
6.673812e-002
4.330571e-002
2.672765e-002
1.702630e-002
1.220928e-002
1.017633e-002
9.473925e-003
9.306962e-003
9.312848e-003
9.353098e-003
9.385500e-003
9.401686e-003
9.437649e-003
9.436362e-003
9.433189e-003
9.426759e-003
9.414617e-003
9.392951e-003
9.357072e-003
9.304837e-003
9.248850e-003
9.250583e-003
9.500051e-003
1.047007e-002
1.314723e-002
1.923293e-002
3.098168e-002
5.013141e-002
7.570112e-002
1.020362e-001
1.209016e-001
1.295789e-001
1.338767e-001
1.360397e-001
1.314095e-001
1.186704e-001
1.014726e-001
8.398533e-002
6.864768e-002
5.625254e-002
4.666541e-002
3.939849e-002
3.391825e-002
2.976732e-002
2.659175e-002
2.413058e-002
2.219542e-002
2.065106e-002
1.940029e-002
1.837279e-002
1.751741e-002
1.679673e-002
1.618318e-002
1.565627e-002
1.520058e-002
1.480426e-002
1.445801e-002
1.415436e-002
1.388716e-002
1.365125e-002
1.344226e-002
1.325649e-002
1.309082e-002
1.294262e-002
1.280978e-002
1.269062e-002
1.258391e-002
1.248884e-002
1.240503e-002
1.233248e-002
1.227166e-002
1.222345e-002
1.218927e-002
1.217113e-002
1.217174e-002
1.219480e-002
1.224525e-002
1.232981e-002
1.245770e-002
1.264176e-002
1.290021e-002
1.325936e-002
1.375795e-002
1.445419e-002
1.543717e-002
1.684533e-002
1.889540e-002
2.192505e-002
2.644814e-002
3.320647e-002
4.316600e-002
5.733912e-002
7.624006e-002
9.881177e-002
1.211048e-001
1.362881e-001
1.390928e-001
1.330203e-001
1.245447e-001
1.096906e-001
8.529091e-002
5.817320e-002
3.617053e-002
2.201970e-002
1.445708e-002
1.103321e-002
9.734877e-003
9.353868e-003
9.300176e-003
9.332332e-003
9.368760e-003
9.388522e-003
9.436621e-003
9.434901e-003
9.430686e-003
9.422226e-003
9.406460e-003
9.378906e-003
9.334998e-003
9.276552e-003
9.232696e-003
9.315102e-003
9.840100e-003
1.154793e-002
1.588536e-002
2.511902e-002
4.171274e-002
6.630070e-002
9.471842e-002
1.177178e-001
1.288635e-001
1.333685e-001
1.356664e-001
1.296614e-001
1.132541e-001
9.184646e-002
7.126119e-002
5.443543e-002
4.188816e-002
3.298372e-002
2.680076e-002
2.252057e-002
1.953021e-002
1.740624e-002
1.586689e-002
1.472709e-002
1.386501e-002
1.319958e-002
1.267601e-002
1.225665e-002
1.191527e-002
1.163333e-002
1.139757e-002
1.119838e-002
1.102868e-002
1.088313e-002
1.075764e-002
1.064893e-002
1.055439e-002
1.047184e-002
1.039947e-002
1.033575e-002
1.027941e-002
1.022941e-002
1.018489e-002
1.014517e-002
1.010974e-002
1.007824e-002
1.005047e-002
1.002636e-002
1.000597e-002
9.989540e-003
9.977447e-003
9.970270e-003
9.968832e-003
9.974272e-003
9.988174e-003
1.001276e-002
1.005118e-002
1.010800e-002
1.018997e-002
1.030728e-002
1.047575e-002
1.072059e-002
1.108309e-002
1.163261e-002
1.248783e-002
1.385353e-002
1.608051e-002
1.975290e-002
2.578744e-002
3.547390e-002
5.027568e-002
7.107903e-002
9.663080e-002
1.216571e-001
1.372714e-001
1.381650e-001
1.309866e-001
1.211033e-001
1.019059e-001
7.426588e-002
4.771804e-002
2.867289e-002
1.766769e-002
1.234743e-002
1.017984e-002
9.462910e-003
9.303598e-003
9.313160e-003
9.350106e-003
9.372940e-003
9.435367e-003
9.433138e-003
9.427709e-003
9.416915e-003
9.397076e-003
9.363207e-003
9.311722e-003
9.251404e-003
9.236563e-003
9.450363e-003
1.037915e-002
1.309962e-002
1.957604e-002
3.254534e-002
5.416294e-002
8.288598e-002
1.106300e-001
1.269062e-001
1.323170e-001
1.351463e-001
1.302978e-001
1.125804e-001
8.799107e-002
6.448261e-002
4.606181e-002
3.321151e-002
2.482776e-002
1.953660e-002
1.622560e-002
1.413451e-002
1.278584e-002
1.189173e-002
1.128097e-002
1.085120e-002
1.054023e-002
1.030939e-002
1.013399e-002
9.997863e-003
9.890194e-003
9.803600e-003
9.732960e-003
9.674656e-003
9.626083e-003
9.585319e-003
9.550910e-003
9.521726e-003
9.496863e-003
9.475590e-003
9.457301e-003
9.441496e-003
9.427760e-003
9.415753e-003
9.405197e-003
9.395869e-003
9.387596e-003
9.380247e-003
9.373730e-003
9.367986e-003
9.362990e-003
9.358745e-003
9.355292e-003
9.352706e-003
9.351117e-003
9.350722e-003
9.351820e-003
9.354869e-003
9.360571e-003
9.370022e-003
9.384970e-003
9.408274e-003
9.444746e-003
9.502755e-003
9.597368e-003
9.756575e-003
1.003365e-002
1.053143e-002
1.144812e-002
1.315825e-002
1.633895e-002
2.212339e-002
3.217446e-002
4.839377e-002
7.178970e-002
1.002148e-001
1.261087e-001
1.387468e-001
1.358732e-001
1.279057e-001
1.146265e-001
8.983852e-002
6.064506e-002
3.687097e-002
2.191579e-002
1.420072e-002
1.085781e-002
9.656996e-003
9.332183e-003
9.298687e-003
9.330447e-003
9.355183e-003
9.433899e-003
9.431095e-003
9.424305e-003
9.410925e-003
9.386693e-003
9.346391e-003
9.288543e-003
9.232494e-003
9.267474e-003
9.670480e-003
1.113940e-002
1.513996e-002
2.415445e-002
4.116573e-002
6.735016e-002
9.808295e-002
1.218613e-001
1.311035e-001
1.340591e-001
1.324717e-001
1.168879e-001
9.064081e-002
6.397458e-002
4.309896e-002
2.911511e-002
2.061677e-002
1.574280e-002
1.302433e-002
1.151371e-002
1.066133e-002
1.016635e-002
9.868320e-003
9.681876e-003
9.560887e-003
9.479746e-003
9.423745e-003
9.384124e-003
9.355485e-003
9.334400e-003
9.318641e-003
9.306724e-003
9.297646e-003
9.290708e-003
9.285415e-003
9.281400e-003
9.278387e-003
9.276161e-003
9.274549e-003
9.273413e-003
9.272639e-003
9.272134e-003
9.271823e-003
9.271644e-003
9.271545e-003
9.271482e-003
9.271416e-003
9.271311e-003
9.271134e-003
9.270846e-003
9.270409e-003
9.269779e-003
9.268904e-003
9.267726e-003
9.266178e-003
9.264186e-003
9.261675e-003
9.258570e-003
9.254824e-003
9.250455e-003
9.245643e-003
9.240947e-003
9.237795e-003
9.239627e-003
9.254516e-003
9.301164e-003
9.422346e-003
9.713973e-003
1.038443e-002
1.186511e-002
1.498789e-002
2.119636e-002
3.260875e-002
5.147259e-002
7.834638e-002
1.089703e-001
1.325401e-001
1.386390e-001
1.323737e-001
1.230596e-001
1.033273e-001
7.395202e-002
4.627023e-002
2.716480e-002
1.663391e-002
1.180598e-002
9.956773e-003
9.395091e-003
9.292411e-003
9.310979e-003
9.335693e-003
9.432250e-003
9.428819e-003
9.420555e-003
9.404419e-003
9.375633e-003
9.329112e-003
9.266778e-003
9.222357e-003
9.329685e-003
9.980101e-003
1.211614e-002
1.761832e-002
2.942351e-002
5.043993e-002
8.020014e-002
1.105957e-001
1.285086e-001
1.327863e-001
1.338580e-001
1.242967e-001
9.952386e-002
6.996570e-002
4.540464e-002
2.890245e-002
1.925441e-002
1.412376e-002
1.156396e-002
1.033654e-002
9.759639e-003
9.489741e-003
9.362911e-003
9.303115e-003
9.275334e-003
9.263264e-003
9.259122e-003
9.259066e-003
9.261123e-003
9.264247e-003
9.267865e-003
9.271662e-003
9.275464e-003
9.279176e-003
9.282749e-003
9.286159e-003
9.289394e-003
9.292449e-003
9.295323e-003
9.298018e-003
9.300535e-003
9.302878e-003
9.305049e-003
9.307050e-003
9.308883e-003
9.310547e-003
9.312038e-003
9.313350e-003
9.314469e-003
9.315378e-003
9.316050e-003
9.316452e-003
9.316537e-003
9.316247e-003
9.315506e-003
9.314216e-003
9.312250e-003
9.309443e-003
9.305580e-003
9.300371e-003
9.293430e-003
9.284241e-003
9.272132e-003
9.256310e-003
9.236079e-003
9.211635e-003
9.186445e-003
9.173669e-003
9.212404e-003
9.405802e-003
1.000296e-002
1.155474e-002
1.515843e-002
2.271239e-002
3.684573e-002
5.979698e-002
9.050942e-002
1.209465e-001