# vtk DataFile Version 3.0
vtk output
ASCII
DATASET STRUCTURED_POINTS
DIMENSIONS 100 100 1
SPACING 1 1 1
ORIGIN 0 0 0
POINT_DATA 10000
SCALARS SFBox_profile double
LOOKUP_TABLE default 
0.000000e+000
0.000000e+000
0.000000e+000
0.000000e+000
0.000000e+000
0.000000e+000
0.000000e+000
0.000000e+000
0.000000e+000
0.000000e+000
0.000000e+000
0.000000e+000
0.000000e+000
0.000000e+000
0.000000e+000
0.000000e+000
0.000000e+000
0.000000e+000
0.000000e+000
0.000000e+000
0.000000e+000
0.000000e+000
0.000000e+000
0.000000e+000
0.000000e+000
0.000000e+000
0.000000e+000
0.000000e+000
0.000000e+000
0.000000e+000
0.000000e+000
0.000000e+000
0.000000e+000
0.000000e+000
0.000000e+000
0.000000e+000
0.000000e+000
0.000000e+000
0.000000e+000
0.000000e+000
0.000000e+000
0.000000e+000
0.000000e+000
0.000000e+000
0.000000e+000
0.000000e+000
0.000000e+000
0.000000e+000
0.000000e+000
0.000000e+000
0.000000e+000
0.000000e+000
0.000000e+000
0.000000e+000
0.000000e+000
0.000000e+000
0.000000e+000
0.000000e+000
0.000000e+000
0.000000e+000
0.000000e+000
0.000000e+000
0.000000e+000
0.000000e+000
0.000000e+000
0.000000e+000
0.000000e+000
0.000000e+000
0.000000e+000
0.000000e+000
0.000000e+000
0.000000e+000
0.000000e+000
0.000000e+000
0.000000e+000
0.000000e+000
0.000000e+000
0.000000e+000
0.000000e+000
0.000000e+000
0.000000e+000
0.000000e+000
0.000000e+000
0.000000e+000
0.000000e+000
0.000000e+000
0.000000e+000
0.000000e+000
0.000000e+000
0.000000e+000
0.000000e+000
0.000000e+000
0.000000e+000
0.000000e+000
0.000000e+000
0.000000e+000
0.000000e+000
0.000000e+000
0.000000e+000
0.000000e+000
3.718312e-009
1.571677e-009
-1.100889e-009
-2.641644e-009
-2.614761e-009
-1.742986e-009
-7.992492e-010
2.245778e-010
1.749379e-009
3.526736e-009
4.229861e-009
2.469906e-009
-1.595171e-009
-5.757164e-009
-7.169502e-009
-4.610894e-009
4.361974e-010
4.928712e-009
6.607064e-009
5.441334e-009
3.044550e-009
9.033115e-010
-7.411414e-010
-2.449688e-009
-4.381652e-009
-5.795012e-009
-5.748489e-009
-4.115901e-009
-1.755567e-009
2.961136e-010
1.675565e-009
2.722161e-009
3.812331e-009
4.838925e-009
5.373238e-009
5.204761e-009
4.584369e-009
3.938144e-009
3.448579e-009
2.980659e-009
2.362370e-009
1.634395e-009
9.962386e-010
5.746510e-010
3.162967e-010
1.004802e-010
-1.058819e-010
-2.371755e-010
-2.354862e-010
-1.157941e-010
7.740125e-011
3.344101e-010
6.721570e-010
1.083294e-009
1.532995e-009
2.008337e-009
2.531084e-009
3.092393e-009
3.596169e-009
3.911901e-009
3.991222e-009
3.890236e-009
3.642865e-009
3.143108e-009
2.225108e-009
8.915088e-010
-5.833891e-010
-1.840038e-009
-2.717812e-009
-3.287376e-009
-3.572939e-009
-3.326306e-009
-2.215765e-009
-2.998553e-010
1.762134e-009
3.096328e-009
3.265396e-009
2.512770e-009
1.363568e-009
8.509190e-011
-1.334818e-009
-2.691231e-009
-3.259132e-009
-2.266983e-009
1.832944e-010
2.758703e-009
3.705381e-009
2.267114e-009
-5.707392e-010
-2.773681e-009
-2.848684e-009
-9.742639e-010
1.258772e-009
2.194430e-009
1.368593e-009
-3.018216e-010
-1.405690e-009
-1.175670e-009
1.126903e-011
1.054610e-009
1.002956e-009
-3.100315e-011
-1.052278e-009
-1.044845e-009
3.021686e-011
1.202965e-009
1.384326e-009
3.534881e-010
-1.053116e-009
-1.699834e-009
-1.134224e-009
1.062065e-010
1.084496e-009
1.311940e-009
1.021933e-009
6.901307e-010
4.156330e-010
-1.259089e-010
-1.132749e-009
-2.205288e-009
-2.554160e-009
-1.724846e-009
-7.651538e-011
1.503765e-009
2.355045e-009
2.490727e-009
2.340822e-009
2.162338e-009
1.793810e-009
9.662687e-010
-2.631685e-010
-1.478745e-009
-2.286831e-009
-2.651067e-009
-2.822062e-009
-2.995899e-009
-3.115964e-009
-3.008596e-009
-2.637633e-009
-2.164015e-009
-1.771712e-009
-1.495131e-009
-1.241649e-009
-9.448242e-010
-6.479199e-010
-4.386619e-010
-3.454407e-010
-3.251610e-010
-3.342312e-010
-3.765199e-010
-4.775581e-010
-6.405914e-010
-8.487804e-010
-1.095863e-009
-1.385666e-009
-1.698209e-009
-1.982146e-009
-2.198923e-009
-2.358313e-009
-2.480558e-009
-2.523622e-009
-2.382983e-009
-1.992465e-009
-1.411557e-009
-7.770491e-010
-1.629007e-010
4.709829e-010
1.154189e-009
1.751374e-009
1.998830e-009
1.738483e-009
1.095353e-009
3.772769e-010
-2.039131e-010
-6.647502e-010
-1.080040e-009
-1.336751e-009
-1.160533e-009
-4.433417e-010
4.983690e-010
1.087560e-009
9.704822e-010
3.367343e-010
-2.652669e-010
-4.333887e-010
-2.259894e-010
6.576945e-013
7.090087e-012
-1.181826e-010
-1.349034e-010
3.613696e-011
2.268844e-010
2.308038e-010
4.051124e-011
-1.545118e-010
-1.837227e-010
-6.509934e-011
5.027741e-011
6.536500e-011
2.644788e-011
-2.235808e-009
-1.509391e-009
-2.955455e-010
1.121634e-009
2.429519e-009
3.131790e-009
2.559047e-009
3.465902e-010
-2.888164e-009
-5.427612e-009
-5.372313e-009
-2.103977e-009
2.923710e-009
6.914315e-009
7.561136e-009
4.565441e-009
-3.310783e-010
-4.692787e-009
-6.912227e-009
-6.772825e-009
-4.944795e-009
-2.199760e-009
9.096911e-010
3.880669e-009
6.098353e-009
7.012273e-009
6.466199e-009
4.790096e-009
2.548327e-009
2.105062e-010
-1.964502e-009
-3.827951e-009
-5.236587e-009
-6.079143e-009
-6.359199e-009
-6.197121e-009
-5.739697e-009
-5.084688e-009
-4.290968e-009
-3.428574e-009
-2.587140e-009
-1.835314e-009
-1.191863e-009
-6.460138e-010
-1.964030e-010
1.394513e-010
3.470610e-010
4.318267e-010
4.102586e-010
2.922039e-010
7.666164e-011
-2.399442e-010
-6.574338e-010
-1.170411e-009
-1.764657e-009
-2.412755e-009
-3.077902e-009
-3.723115e-009
-4.308783e-009
-4.775295e-009
-5.034413e-009
-4.991750e-009
-4.585051e-009
-3.799697e-009
-2.653681e-009
-1.191163e-009
4.847009e-010
2.171501e-009
3.584612e-009
4.441897e-009
4.550434e-009
3.836942e-009
2.350079e-009
3.010070e-010
-1.876709e-009
-3.569530e-009
-4.204986e-009
-3.542771e-009
-1.814789e-009
3.889606e-010
2.365947e-009
3.490830e-009
3.328540e-009
1.798484e-009
-6.015769e-010
-2.774878e-009
-3.492387e-009
-2.217031e-009
3.382296e-010
2.527295e-009
2.899045e-009
1.300793e-009
-9.817791e-010
-2.229388e-009
-1.639061e-009
9.656080e-011
1.445959e-009
1.348494e-009
6.163351e-011
-1.144963e-009
-3.675009e-009
-1.335372e-009
1.398577e-009
2.638443e-009
2.115215e-009
9.834522e-010
2.969670e-010
-7.932731e-011
-9.620671e-010
-2.432404e-009
-3.258981e-009
-2.010344e-009
1.215172e-009
4.361445e-009
4.982723e-009
2.423721e-009
-1.509234e-009
-4.076561e-009
-3.877559e-009
-1.752105e-009
3.513405e-010
1.219312e-009
1.119502e-009
9.900033e-010
1.217215e-009
1.337467e-009
7.829012e-010
-3.418792e-010
-1.329101e-009
-1.598748e-009
-1.214183e-009
-6.751802e-010
-3.367448e-010
-1.307553e-010
1.937363e-010
6.963512e-010
1.179348e-009
1.434279e-009
1.459046e-009
1.411525e-009
1.409171e-009
1.428366e-009
1.386423e-009
1.266723e-009
1.135005e-009
1.055802e-009
1.029349e-009
1.016036e-009
9.979001e-010
9.953243e-010
1.029497e-009
1.089802e-009
1.147918e-009
1.192643e-009
1.233497e-009
1.267979e-009
1.261312e-009
1.174191e-009
1.006736e-009
7.961007e-010
5.621849e-010
2.746719e-010
-9.720144e-011
-4.997516e-010
-7.922757e-010
-8.610104e-010
-7.271021e-010
-5.042934e-010
-2.421080e-010
1.367612e-010
6.818546e-010
1.208693e-009
1.338909e-009
8.342209e-010
-1.104475e-010
-9.769877e-010
-1.366315e-009
-1.292628e-009
-9.970262e-010
-5.355433e-010
2.848260e-010
1.458324e-009
2.369170e-009
2.088354e-009
3.024544e-010
-2.047071e-009
-3.256706e-009
-2.251945e-009
3.612768e-010
2.649437e-009
2.902996e-009
1.040593e-009
-1.367834e-009
-2.446298e-009
-1.527237e-009
4.273941e-010
1.746263e-009
1.444230e-009
-5.722793e-011
-1.383618e-009
-2.739621e-009
1.620591e-010
2.961879e-009
2.818673e-009
-2.450715e-010
-3.410295e-009
-3.726417e-009
-8.092453e-010
2.909167e-009
4.464695e-009
2.911822e-009
-1.970034e-010
-2.576786e-009
-3.243494e-009
-2.839278e-009
-2.268254e-009
-1.435396e-009
4.398507e-010
3.403197e-009
6.030908e-009
6.404846e-009
3.867255e-009
-2.904823e-010
-3.922029e-009
-5.748108e-009
-6.005978e-009
-5.605184e-009
-4.939696e-009
-3.655887e-009
-1.418598e-009
1.390317e-009
3.868395e-009
5.382687e-009
6.021131e-009
6.274417e-009
6.421807e-009
6.327924e-009
5.770669e-009
4.811214e-009
3.771071e-009
2.912980e-009
2.239201e-009
1.606028e-009
9.570487e-010
3.879095e-010
1.202633e-011
-1.680268e-010
-2.328175e-010
-2.304927e-010
-1.319995e-010
1.052625e-010
4.718341e-010
9.262584e-010
1.456569e-009
2.082914e-009
2.793365e-009
3.508982e-009
4.138961e-009
4.653781e-009
5.061972e-009
5.303363e-009
5.209107e-009
4.621876e-009
3.559071e-009
2.211144e-009
7.549514e-010
-7.809240e-010
-2.390334e-009
-3.831952e-009
-4.604435e-009
-4.297126e-009
-2.986745e-009
-1.218556e-009
4.439817e-010
1.792452e-009
2.835233e-009
3.364926e-009
2.886566e-009
1.167167e-009
-1.165880e-009
-2.796306e-009
-2.718287e-009
-1.144735e-009
6.370310e-010
1.388345e-009
9.331553e-010
1.010051e-010
-2.370292e-010
1.474802e-011
2.871422e-010
1.129688e-010
-3.582835e-010
-6.023427e-010
-3.411499e-010
1.809997e-010
5.052731e-010
4.259975e-010
1.065718e-010
-1.828010e-010
-3.210739e-010
-4.960940e-010
1.261756e-009
2.628707e-009
1.548317e-009
-1.845562e-009
-5.024202e-009
-5.054119e-009
-1.179677e-009
4.245112e-009
7.413197e-009
6.009100e-009
9.653083e-010
-4.408797e-009
-7.031673e-009
-6.069971e-009
-2.855026e-009
7.263395e-010
3.563544e-009
5.326003e-009
5.745621e-009
4.423206e-009
1.450143e-009
-2.086747e-009
-4.602775e-009
-5.176798e-009
-4.172516e-009
-2.675821e-009
-1.410792e-009
-2.988481e-010
1.010079e-009
2.420155e-009
3.364536e-009
3.425939e-009
2.797954e-009
2.053740e-009
1.550470e-009
1.173647e-009
6.411257e-010
-7.903441e-011
-7.331571e-010
-1.098596e-009
-1.221348e-009
-1.312803e-009
-1.486696e-009
-1.667720e-009
-1.738054e-009
-1.696925e-009
-1.641247e-009
-1.631310e-009
-1.631963e-009
-1.585247e-009
-1.490185e-009
-1.379555e-009
-1.245010e-009
-1.033080e-009
-7.213767e-010
-3.568808e-010
1.270098e-011
4.203804e-010
9.380458e-010
1.539355e-009
2.051548e-009
2.292884e-009
2.242959e-009
2.015732e-009
1.647178e-009
9.831865e-010
-1.278146e-010
-1.524325e-009
-2.702386e-009
-3.174552e-009
-2.844398e-009
-1.971445e-009
-7.975886e-010
6.529568e-010
2.300627e-009
3.620552e-009
3.759171e-009
2.241392e-009
-4.061910e-010
-2.836991e-009
-3.800151e-009
-2.967781e-009
-9.843532e-010
1.129743e-009
2.549558e-009
2.808770e-009
1.785927e-009
-1.576613e-010
-2.055109e-009
-2.704738e-009
-1.557262e-009
6.303516e-010
2.198065e-009
1.925327e-009
1.435953e-010
-1.511147e-009
-1.583904e-009
-1.485554e-010
1.294831e-009
1.788577e-009
8.381073e-010
-2.582271e-010
-8.683405e-010
-1.088629e-009
-1.283303e-009
-1.306399e-009
-5.535069e-010
1.083300e-009
2.571438e-009
2.452891e-009
3.918477e-010
-2.138705e-009
-2.998751e-009
-1.368839e-009
1.411298e-009
3.032312e-009
2.247205e-009
-2.196310e-010
-2.576932e-009
-3.543060e-009
-3.035028e-009
-1.638659e-009
1.778544e-010
2.193173e-009
4.047492e-009
5.115716e-009
4.927886e-009
3.609739e-009
1.762798e-009
-8.178194e-011
-1.793213e-009
-3.438107e-009
-4.905957e-009
-5.878570e-009
-6.155223e-009
-5.883878e-009
-5.402721e-009
-4.905335e-009
-4.335273e-009
-3.590349e-009
-2.736969e-009
-1.971955e-009
-1.418421e-009
-1.030629e-009
-7.047246e-010
-4.253370e-010
-2.662107e-010
-2.781370e-010
-4.309212e-010
-6.721652e-010
-9.981524e-010
-1.434186e-009
-1.966635e-009
-2.537204e-009
-3.106767e-009
-3.681718e-009
-4.246300e-009
-4.693478e-009
-4.872134e-009
-4.711906e-009
-4.261491e-009
-3.577460e-009
-2.615686e-009
-1.303801e-009
2.613645e-010
1.747245e-009
2.777382e-009
3.185726e-009
3.042948e-009
2.453723e-009
1.431506e-009
5.390295e-011
-1.309729e-009
-2.077885e-009
-1.878815e-009
-8.955897e-010
2.538637e-010
9.805424e-010
1.054532e-009
5.600051e-010
-2.823541e-010
-1.118015e-009
-1.405026e-009
-6.800825e-010
8.778482e-010
2.220264e-009
2.095092e-009
2.369978e-010
-2.085661e-009
-2.949705e-009
-1.479632e-009
1.212304e-009
2.873417e-009
2.090067e-009
-4.119776e-010
-2.395229e-009
-2.127876e-009
5.706318e-011
2.093760e-009
3.431951e-009
-4.407489e-010
-3.999766e-009
-3.478219e-009
7.562914e-010
4.705905e-009
4.703233e-009
7.744975e-010
-3.719914e-009
-5.400983e-009
-3.648443e-009
-3.816807e-010
2.290232e-009
3.756421e-009
4.426129e-009
4.267299e-009
2.482187e-009
-1.239753e-009
-5.550403e-009
-8.006985e-009
-7.005474e-009
-3.118333e-009
1.485860e-009
4.825374e-009
6.290339e-009
6.348099e-009
5.530869e-009
3.954919e-009
1.667463e-009
-9.100546e-010
-3.099621e-009
-4.460843e-009
-5.030579e-009
-5.082477e-009
-4.781905e-009
-4.139522e-009
-3.206979e-009
-2.175441e-009
-1.245910e-009
-4.734319e-010
2.062683e-010
8.295149e-010
1.343313e-009
1.688797e-009
1.889382e-009
2.022647e-009
2.129212e-009
2.185651e-009
2.160936e-009
2.062639e-009
1.913960e-009
1.711396e-009
1.430674e-009
1.063119e-009
6.182292e-010
9.034288e-011
-5.457342e-010
-1.285775e-009
-2.060120e-009
-2.771307e-009
-3.357844e-009
-3.786396e-009
-3.975207e-009
-3.769398e-009
-3.040642e-009
-1.812679e-009
-2.626282e-010
1.390313e-009
2.940397e-009
4.119111e-009
4.546899e-009
3.900650e-009
2.207258e-009
-5.551131e-011
-2.199036e-009
-3.660278e-009
-4.104633e-009
-3.335234e-009
-1.361251e-009
1.278701e-009
3.397970e-009
3.745178e-009
2.031449e-009
-5.917352e-010
-2.299001e-009
-2.073031e-009
-5.218486e-010
7.879922e-010
8.277688e-010
-4.456021e-011
-6.499289e-010
-2.783875e-010
6.403281e-010
1.077715e-009
4.951147e-010
-6.340401e-010
-1.303357e-009
-9.078495e-010
2.394930e-010
1.201171e-009
3.831646e-009
-1.019615e-009
-5.446239e-009
-4.555235e-009
1.363560e-009
7.074532e-009
7.292545e-009
1.533325e-009
-5.553352e-009
-8.438753e-009
-5.399378e-009
5.805080e-010
4.997167e-009
5.635637e-009
3.526440e-009
9.106892e-010
-1.044505e-009
-2.479816e-009
-3.492202e-009
-3.368935e-009
-1.453683e-009
1.579734e-009
3.838996e-009
3.796769e-009
1.642360e-009
-1.032570e-009
-2.759923e-009
-3.259952e-009
-3.119286e-009
-2.777265e-009
-2.080773e-009
-7.388390e-010
1.088459e-009
2.821662e-009
3.989803e-009
4.574534e-009
4.835844e-009
4.938630e-009
4.837468e-009
4.460474e-009
3.880666e-009
3.268214e-009
2.735092e-009
2.281406e-009
1.874347e-009
1.527039e-009
1.287134e-009
1.180778e-009
1.194063e-009
1.300979e-009
1.490180e-009
1.763597e-009
2.120306e-009
2.543012e-009
2.992376e-009
3.413754e-009
3.757158e-009
3.988958e-009
4.072571e-009
3.940228e-009
3.511397e-009
2.763749e-009
1.776915e-009
6.823217e-010
-4.199583e-010
-1.449164e-009
-2.236990e-009
-2.504778e-009
-2.052171e-009
-1.001308e-009
2.083899e-010
1.127004e-009
1.570350e-009
1.548570e-009
1.002107e-009
-1.825917e-010
-1.760332e-009
-2.860487e-009
-2.461798e-009
-3.826881e-010
2.229028e-009
3.618003e-009
2.831840e-009
4.938913e-010
-1.788543e-009
-2.737549e-009
-2.180371e-009
-7.749287e-010
7.047724e-010
1.716022e-009
1.881515e-009
1.037201e-009
-4.468939e-010
-1.606863e-009
-1.534494e-009
-2.755425e-010
1.046910e-009
1.232733e-009
2.011754e-010
-9.070617e-010
2.101918e-009
-3.035333e-010
-2.675386e-009
-2.568470e-009
1.799289e-010
3.170514e-009
3.559517e-009
7.771182e-010
-2.735942e-009
-3.693324e-009
-1.123285e-009
2.570522e-009
3.824045e-009
1.302704e-009
-2.866839e-009
-5.159925e-009
-3.827022e-009
-7.471579e-011
3.525749e-009
5.345024e-009
5.378175e-009
4.190409e-009
1.911096e-009
-1.467406e-009
-5.182537e-009
-7.685784e-009
-7.787445e-009
-5.682282e-009
-2.676310e-009
3.424275e-011
2.167141e-009
4.026322e-009
5.687548e-009
6.746137e-009
6.809142e-009
5.999165e-009
4.848314e-009
3.781967e-009
2.831147e-009
1.828677e-009
7.475869e-010
-2.356739e-010
-9.532010e-010
-1.416993e-009
-1.758278e-009
-2.056977e-009
-2.278109e-009
-2.355814e-009
-2.288642e-009
-2.132629e-009
-1.923297e-009
-1.632709e-009
-1.207910e-009
-6.361997e-010
4.277439e-011
7.892293e-010
1.608585e-009
2.519457e-009
3.469019e-009
4.302993e-009
4.849110e-009
5.026557e-009
4.837051e-009
4.238981e-009
3.094324e-009
1.331757e-009
-8.168956e-010
-2.817416e-009
-4.148192e-009
-4.608228e-009
-4.269768e-009
-3.182640e-009
-1.307141e-009
1.126480e-009
3.291406e-009
4.084703e-009
3.007876e-009
7.398360e-010
-1.298233e-009
-2.042267e-009
-1.484072e-009
-3.809804e-010
5.244164e-010
9.001498e-010
6.667795e-010
-1.377019e-010
-1.131622e-009
-1.485333e-009
-5.271993e-010
1.326547e-009
2.512044e-009
1.648697e-009
-8.804376e-010
-2.912129e-009
-2.439825e-009
2.905156e-010
2.785753e-009
2.646113e-009
-2.262004e-011
-2.629151e-009
-1.883750e-009
7.459897e-010
2.908714e-009
2.050457e-009
-1.177390e-009
-3.775910e-009
-3.504488e-009
-7.843120e-010
2.249324e-009
3.922507e-009
3.921802e-009
2.522023e-009
-1.516555e-010
-3.631389e-009
-6.330790e-009
-6.156685e-009
-2.419126e-009
3.013903e-009
6.886364e-009
7.103773e-009
4.169689e-009
2.681912e-010
-2.743649e-009
-4.329526e-009
-4.699427e-009
-3.927615e-009
-1.973257e-009
6.912167e-010
2.981386e-009
3.964672e-009
3.602625e-009
2.589258e-009
1.532866e-009
4.698422e-010
-8.275324e-010
-2.291371e-009
-3.492007e-009
-4.084526e-009
-4.153371e-009
-4.050382e-009
-3.986880e-009
-3.884744e-009
-3.596482e-009
-3.154833e-009
-2.749822e-009
-2.515103e-009
-2.414372e-009
-2.341943e-009
-2.275952e-009
-2.291152e-009
-2.442046e-009
-2.682779e-009
-2.920422e-009
-3.118616e-009
-3.309046e-009
-3.495098e-009
-3.579891e-009
-3.428306e-009
-2.998015e-009
-2.369329e-009
-1.623638e-009
-7.335507e-010
3.549617e-010
1.516444e-009
2.393040e-009
2.629624e-009
2.164299e-009
1.230231e-009
7.436215e-011
-1.213722e-009
-2.498683e-009
-3.306540e-009
-2.966619e-009
-1.227156e-009
1.284568e-009
3.347876e-009
3.979261e-009
3.012417e-009
9.788426e-010
-1.344721e-009
-3.152035e-009
-3.632615e-009
-2.307685e-009
3.235034e-010
2.654124e-009
3.007211e-009
1.167144e-009
-1.200596e-009
-1.983429e-009
-6.626533e-010
1.160218e-009
1.428036e-009
-1.864658e-010
-1.899992e-009
-1.706195e-009
4.349072e-010
2.442157e-009
2.211705e-009
-1.857352e-010
-2.494676e-009
-6.107764e-009
8.732504e-010
7.238477e-009
6.280397e-009
-1.154130e-009
-7.896279e-009
-7.763467e-009
-1.271445e-009
5.577947e-009
7.386187e-009
3.858277e-009
-1.146948e-009
-3.912525e-009
-3.685014e-009
-1.907731e-009
5.949769e-011
1.790438e-009
2.919855e-009
2.554765e-009
1.719045e-010
-3.193222e-009
-5.299102e-009
-4.531806e-009
-1.279336e-009
2.577219e-009
5.331224e-009
6.458952e-009
6.242107e-009
4.935946e-009
2.609370e-009
-4.051114e-010
-3.336576e-009
-5.445571e-009
-6.551791e-009
-6.965072e-009
-6.969856e-009
-6.540929e-009
-5.574094e-009
-4.223804e-009
-2.868192e-009
-1.770947e-009
-8.931725e-010
-6.586950e-011
7.389441e-010
1.379127e-009
1.743102e-009
1.888235e-009
1.950415e-009
1.970469e-009
1.866086e-009
1.562872e-009
1.094186e-009
5.425278e-010
-8.260172e-011
-8.533147e-010
-1.800480e-009
-2.824924e-009
-3.768019e-009
-4.549401e-009
-5.175554e-009
-5.592250e-009
-5.587557e-009
-4.921860e-009
-3.569366e-009
-1.779891e-009
1.203786e-010
1.923934e-009
3.467855e-009
4.420624e-009
4.322547e-009
2.984309e-009
8.324048e-010
-1.249490e-009
-2.476795e-009
-2.560384e-009
-1.644937e-009
-9.464088e-011
1.493632e-009
2.242412e-009
1.422281e-009
-7.322660e-010
-2.748229e-009
-2.895713e-009
-7.832533e-010
2.046239e-009
3.347219e-009
2.168245e-009
-3.449074e-010
-2.109408e-009
-1.999669e-009
-6.170197e-010
6.098471e-010
8.478036e-010
3.804579e-010
-2.433325e-011
5.946758e-012
2.223703e-010
2.089448e-010
-1.128923e-010
-4.375933e-010
-7.040243e-009
2.834188e-011
6.749759e-009
6.487269e-009
-9.609117e-011
-6.130681e-009
-5.738108e-009
1.870882e-010
5.307190e-009
4.514408e-009
-1.079601e-009
-5.682257e-009
-4.802043e-009
6.415844e-010
5.821580e-009
6.828018e-009
3.665841e-009
-9.083353e-010
-4.432143e-009
-6.174707e-009
-6.251652e-009
-4.510643e-009
-8.750309e-010
3.623879e-009
6.937804e-009
7.478574e-009
5.371367e-009
2.117431e-009
-8.178708e-010
-2.907115e-009
-4.261277e-009
-4.909361e-009
-4.655478e-009
-3.497465e-009
-1.857110e-009
-2.702467e-010
1.029244e-009
2.115049e-009
3.051741e-009
3.729809e-009
4.031508e-009
4.032858e-009
3.944208e-009
3.887204e-009
3.815003e-009
3.655959e-009
3.458365e-009
3.343570e-009
3.354652e-009
3.416589e-009
3.450219e-009
3.469071e-009
3.525883e-009
3.593567e-009
3.555036e-009
3.318958e-009
2.898165e-009
2.339690e-009
1.611944e-009
6.303368e-010
-5.849845e-010
-1.825626e-009
-2.812735e-009
-3.371892e-009
-3.439465e-009
-2.925578e-009
-1.698606e-009
1.891111e-010
2.290505e-009
3.894154e-009
4.429028e-009
3.732477e-009
1.974686e-009
-4.846110e-010
-3.003132e-009
-4.557240e-009
-4.161448e-009
-1.753570e-009
1.350492e-009
3.214443e-009
2.799858e-009
8.102034e-010
-1.014009e-009
-1.436178e-009
-5.848314e-010
5.155089e-010
9.823795e-010
6.080270e-010
-2.948344e-010
-1.180252e-009
-1.417357e-009
-5.942653e-010
9.534281e-010
2.040752e-009
1.525520e-009
-4.248291e-010
-2.150800e-009
-1.963952e-009
8.016386e-011
2.064181e-009
-2.693764e-009
-7.026423e-010
1.364638e-009
1.738509e-009
5.499073e-010
-3.681328e-010
4.158940e-010
2.054498e-009
2.024432e-009
-1.012606e-009
-5.070340e-009
-6.154712e-009
-2.210567e-009
4.314294e-009
8.273632e-009
6.465930e-009
4.873497e-010
-4.973154e-009
-6.403759e-009
-3.960562e-009
-2.472294e-010
2.517117e-009
3.785681e-009
3.805861e-009
2.518296e-009
-1.940690e-010
-3.578128e-009
-6.027300e-009
-6.287812e-009
-4.468223e-009
-1.721133e-009
9.047830e-010
3.110428e-009
5.001798e-009
6.489978e-009
7.247165e-009
7.123672e-009
6.364999e-009
5.362728e-009
4.318768e-009
3.229678e-009
2.106929e-009
1.079494e-009
2.722650e-010
-3.179193e-010
-7.685147e-010
-1.099634e-009
-1.256647e-009
-1.208676e-009
-1.000054e-009
-6.825632e-010
-2.405720e-010
3.749124e-010
1.156026e-009
2.026214e-009
2.918147e-009
3.812961e-009
4.670418e-009
5.352397e-009
5.668376e-009
5.498298e-009
4.830054e-009
3.678386e-009
2.050038e-009
6.924699e-011
-1.889058e-009
-3.300275e-009
-3.790785e-009
-3.318909e-009
-2.064897e-009
-2.745107e-010
1.641493e-009
2.925369e-009
2.721018e-009
8.262328e-010
-1.781475e-009
-3.425893e-009
-2.994950e-009
-8.176630e-010
1.682043e-009
3.117275e-009
2.933769e-009
1.393789e-009
-7.580167e-010
-2.471627e-009
-2.687040e-009
-1.103346e-009
1.172570e-009
2.212465e-009
1.051727e-009
-1.094255e-009
-1.853239e-009
-2.426254e-010
2.032119e-009
2.266034e-009
-1.826644e-010
-2.907795e-009
-2.901386e-009
1.085325e-010
3.172510e-009
4.728364e-009
-5.390958e-010
-5.348383e-009
-4.802032e-009
3.535120e-010
5.090116e-009
5.421705e-009
1.769921e-009
-2.432752e-009
-4.324163e-009
-3.421256e-009
-8.444424e-010
1.956182e-009
3.539187e-009
2.678820e-009
-6.038603e-010
-4.201634e-009
-5.035781e-009
-1.764442e-009
3.636269e-009
7.365133e-009
7.002513e-009
3.209269e-009
-1.488955e-009
-5.063716e-009
-6.959273e-009
-7.300387e-009
-6.006221e-009
-3.040539e-009
8.562254e-010
4.265948e-009
6.099346e-009
6.332269e-009
5.668797e-009
4.668566e-009
3.382612e-009
1.726972e-009
-8.800683e-011
-1.643091e-009
-2.703509e-009
-3.370150e-009
-3.854342e-009
-4.227793e-009
-4.436543e-009
-4.468755e-009
-4.412628e-009
-4.361053e-009
-4.330711e-009
-4.294564e-009
-4.245478e-009
-4.192156e-009
-4.116514e-009
-3.973071e-009
-3.724048e-009
-3.342935e-009
-2.784764e-009
-1.993341e-009
-9.600842e-010
2.475899e-010
1.534824e-009
2.818674e-009
3.965089e-009
4.704106e-009
4.702740e-009
3.795467e-009
2.126829e-009
3.348514e-011
-2.154135e-009
-4.085476e-009
-5.200440e-009
-4.818856e-009
-2.702494e-009
4.174140e-010
3.065748e-009
3.993497e-009
3.018319e-009
9.734550e-010
-1.013398e-009
-2.097050e-009
-1.839638e-009
-3.113282e-010
1.621749e-009
2.442002e-009
1.108422e-009
-1.626265e-009
-3.393558e-009
-2.318275e-009
8.805652e-010
3.276496e-009
2.603888e-009
-3.334655e-010
-2.458898e-009
-1.709106e-009
7.808713e-010
2.044720e-009
6.636491e-010
-1.670527e-009
-2.157110e-009
-1.303522e-010
2.172090e-009
9.840817e-009
5.495129e-011
-8.924520e-009
-8.213276e-009
3.814286e-010
7.290731e-009
5.844101e-009
-1.279785e-009
-6.008435e-009
-3.782957e-009
2.420240e-009
6.205753e-009
4.383037e-009
-8.949370e-010
-5.334705e-009
-6.424823e-009
-4.308501e-009
-3.332626e-010
3.985887e-009
6.884688e-009
6.644108e-009
2.937550e-009
-2.288934e-009
-5.960889e-009
-6.228123e-009
-3.645323e-009
-1.463004e-010
2.757045e-009
4.620144e-009
5.401470e-009
4.858955e-009
2.853255e-009
-8.655531e-011
-2.919119e-009
-4.877129e-009
-5.933815e-009
-6.468188e-009
-6.667199e-009
-6.402694e-009
-5.589933e-009
-4.448704e-009
-3.339362e-009
-2.446328e-009
-1.713689e-009
-1.044835e-009
-4.657741e-010
-7.982464e-011
6.377588e-011
4.995253e-012
-1.968411e-010
-5.246436e-010
-9.972922e-010
-1.629457e-009
-2.400020e-009
-3.240012e-009
-4.047739e-009
-4.730894e-009
-5.230311e-009
-5.475679e-009
-5.321283e-009
-4.586770e-009
-3.223698e-009
-1.434081e-009
4.255262e-010
2.052500e-009
3.244086e-009
3.735714e-009
3.156269e-009
1.361468e-009
-1.130960e-009
-3.194408e-009
-3.775844e-009
-2.609820e-009
-3.015696e-010
2.153415e-009
3.801954e-009
3.875670e-009
2.042801e-009
-1.041766e-009
-3.591357e-009
-3.749140e-009
-1.312074e-009
1.703628e-009
2.706355e-009
1.020439e-009
-1.406266e-009
-2.005790e-009
-2.502294e-010
1.891698e-009
2.145280e-009
3.136646e-010
-1.684995e-009
-1.967031e-009
-5.493615e-010
9.620183e-010
1.226187e-009
4.096794e-010
-3.543763e-010
-3.849146e-010
-5.562642e-011
8.472937e-009
9.848830e-011
-7.218579e-009
-5.968405e-009
1.405735e-009
5.921041e-009
2.486842e-009
-4.574678e-009
-6.769425e-009
-1.084910e-009
6.781024e-009
8.758162e-009
2.880132e-009
-5.175556e-009
-8.320368e-009
-4.759118e-009
1.460327e-009
5.257798e-009
4.815498e-009
1.632451e-009
-2.022841e-009
-4.709257e-009
-5.542185e-009
-3.829685e-009
2.415453e-010
4.973059e-009
7.981605e-009
7.939936e-009
5.375840e-009
1.798294e-009
-1.646072e-009
-4.548244e-009
-6.689220e-009
-7.672438e-009
-7.253156e-009
-5.753967e-009
-3.878305e-009
-2.127458e-009
-5.421484e-010
1.003669e-009
2.438891e-009
3.525381e-009
4.155472e-009
4.478528e-009
4.717391e-009
4.944946e-009
5.082975e-009
5.066030e-009
4.939357e-009
4.796064e-009
4.661855e-009
4.463201e-009
4.095695e-009
3.509962e-009
2.731058e-009
1.797061e-009
6.879554e-010
-6.545754e-010
-2.202600e-009
-3.742122e-009
-4.941764e-009
-5.544196e-009
-5.459686e-009
-4.656503e-009
-3.050011e-009
-6.524614e-010
2.114881e-009
4.380448e-009
5.268124e-009
4.465792e-009
2.371692e-009
-2.234587e-010
-2.458572e-009
-3.491197e-009
-2.700554e-009
-2.766988e-010
2.364985e-009
3.255151e-009
1.505256e-009
-1.622300e-009
-3.583815e-009
-2.790564e-009
-3.148737e-011
2.358393e-009
2.671863e-009
1.147037e-009
-6.416387e-010
-1.355864e-009
-8.292573e-010
1.679326e-010
7.148472e-010
3.740304e-010
-5.463313e-010
-1.164452e-009
-7.026914e-010
6.859922e-010
1.805588e-009
1.448812e-009
-2.932279e-010
-1.916418e-009
1.395688e-009
-5.018506e-010
-1.531086e-009
1.549538e-011
2.344056e-009
2.097645e-009
-1.401559e-009
-4.690253e-009
-3.688159e-009
1.427048e-009
5.714840e-009
4.489643e-009
-1.392668e-009
-6.005094e-009
-4.411667e-009
2.133086e-009
7.428576e-009
6.530320e-009
2.655656e-010
-6.214859e-009
-8.505455e-009
-6.133248e-009
-1.505706e-009
2.923925e-009
5.946107e-009
6.995263e-009
5.624236e-009
2.058345e-009
-2.271307e-009
-5.423548e-009
-6.318123e-009
-5.266449e-009
-3.230274e-009
-8.705451e-010
1.589740e-009
3.907034e-009
5.634195e-009
6.460776e-009
6.516049e-009
6.186689e-009
5.711241e-009
5.069608e-009
4.225838e-009
3.329443e-009
2.614661e-009
2.174856e-009
1.919122e-009
1.739614e-009
1.657115e-009
1.779460e-009
2.153994e-009
2.700568e-009
3.290388e-009
3.863180e-009
4.440178e-009
5.013813e-009
5.443052e-009
5.493658e-009
5.002917e-009
3.988511e-009
2.576055e-009
8.606376e-010
-1.068375e-009
-2.928841e-009
-4.164365e-009
-4.208862e-009
-2.904350e-009
-6.456413e-010
1.858407e-009
3.866494e-009
4.669408e-009
3.685477e-009
9.245393e-010
-2.503474e-009
-4.679461e-009
-4.189029e-009
-1.399464e-009
1.673166e-009
2.965013e-009
1.957890e-009
-1.595917e-010
-1.666660e-009
-1.576966e-009
-9.994099e-011
1.635960e-009
2.247753e-009
1.023133e-009
-1.286602e-009
-2.726995e-009
-1.810049e-009
7.747050e-010
2.498675e-009
1.548168e-009
-1.038563e-009
-2.323931e-009
-7.702610e-010
1.868777e-009
2.470254e-009
1.975198e-010
-2.431578e-009
-6.327190e-009
-7.284558e-010
4.783572e-009
5.286304e-009
1.249809e-009
-2.823001e-009
-3.364759e-009
-7.325997e-010
2.074354e-009
2.528601e-009
3.263309e-010
-2.847688e-009
-4.472486e-009
-2.691676e-009
2.064366e-009
6.583380e-009
6.920042e-009
1.992395e-009
-4.786289e-009
-8.112810e-009
-5.476042e-009
7.474561e-010
5.765014e-009
6.566757e-009
3.660349e-009
-5.704490e-010