# vtk DataFile Version 3.0
vtk output
ASCII
DATASET STRUCTURED_POINTS
DIMENSIONS 100 100 1
SPACING 1 1 1
ORIGIN 0 0 0
POINT_DATA 10000
SCALARS SFBox_profile double
LOOKUP_TABLE default 
0.000000e+000
0.000000e+000
0.000000e+000
0.000000e+000
0.000000e+000
0.000000e+000
0.000000e+000
0.000000e+000
0.000000e+000
0.000000e+000
0.000000e+000
0.000000e+000
0.000000e+000
0.000000e+000
0.000000e+000
0.000000e+000
0.000000e+000
0.000000e+000
0.000000e+000
0.000000e+000
0.000000e+000
0.000000e+000
0.000000e+000
0.000000e+000
0.000000e+000
0.000000e+000
0.000000e+000
0.000000e+000
0.000000e+000
0.000000e+000
0.000000e+000
0.000000e+000
0.000000e+000
0.000000e+000
0.000000e+000
0.000000e+000
0.000000e+000
0.000000e+000
0.000000e+000
0.000000e+000
0.000000e+000
0.000000e+000
0.000000e+000
0.000000e+000
0.000000e+000
0.000000e+000
0.000000e+000
0.000000e+000
0.000000e+000
0.000000e+000
0.000000e+000
0.000000e+000
0.000000e+000
0.000000e+000
0.000000e+000
0.000000e+000
0.000000e+000
0.000000e+000
0.000000e+000
0.000000e+000
0.000000e+000
0.000000e+000
0.000000e+000
0.000000e+000
0.000000e+000
0.000000e+000
0.000000e+000
0.000000e+000
0.000000e+000
0.000000e+000
0.000000e+000
0.000000e+000
0.000000e+000
0.000000e+000
0.000000e+000
0.000000e+000
0.000000e+000
0.000000e+000
0.000000e+000
0.000000e+000
0.000000e+000
0.000000e+000
0.000000e+000
0.000000e+000
0.000000e+000
0.000000e+000
0.000000e+000
0.000000e+000
0.000000e+000
0.000000e+000
0.000000e+000
0.000000e+000
0.000000e+000
0.000000e+000
0.000000e+000
0.000000e+000
0.000000e+000
0.000000e+000
0.000000e+000
0.000000e+000
5.900359e-008
3.719221e-008
8.338842e-009
-1.014538e-008
-1.180793e-008
-4.462551e-009
-8.809104e-010
-6.001655e-009
-1.274800e-008
-1.017040e-008
4.296216e-009
2.074802e-008
2.528363e-008
1.303638e-008
-6.911223e-009
-1.959392e-008
-1.741102e-008
-5.886961e-009
3.004648e-009
2.613058e-009
-3.232215e-009
-5.849107e-009
-1.224315e-009
6.534385e-009
1.042906e-008
7.938494e-009
2.699630e-009
-3.033338e-010
2.602352e-011
7.708760e-010
-8.175050e-010
-4.109758e-009
-6.185842e-009
-5.293786e-009
-2.487780e-009
1.668462e-011
1.365227e-009
2.545211e-009
4.726355e-009
7.760036e-009
1.049464e-008
1.218020e-008
1.314521e-008
1.412718e-008
1.530933e-008
1.624003e-008
1.653847e-008
1.637697e-008
1.619207e-008
1.611949e-008
1.590960e-008
1.535607e-008
1.460132e-008
1.391335e-008
1.327794e-008
1.239511e-008
1.109817e-008
9.611857e-009
8.261875e-009
7.009324e-009
5.481471e-009
3.536505e-009
1.621738e-009
3.500956e-010
-2.597725e-010
-8.631894e-010
-1.933895e-009
-2.983356e-009
-2.966398e-009
-1.573685e-009
1.547980e-010
8.484306e-010
4.222150e-010
2.980801e-010
1.721052e-009
4.024502e-009
5.044031e-009
3.499271e-009
6.883685e-010
-6.820530e-010
4.753001e-010
2.099128e-009
9.560065e-010
-3.680869e-009
-8.570677e-009
-9.122865e-009
-3.754249e-009
4.282115e-009
9.466062e-009
8.587262e-009
3.120826e-009
-2.518347e-009
-4.857612e-009
-3.742277e-009
-1.463290e-009
-1.060625e-010
1.014111e-010
1.959215e-010
8.283252e-010
1.535742e-009
2.851423e-008
1.478502e-008
-2.996648e-009
-1.296207e-008
-1.001527e-008
8.761210e-010
9.514950e-009
9.135132e-009
1.477684e-009
-5.817190e-009
-6.684015e-009
-1.886865e-009
2.636405e-009
2.235756e-009
-1.858083e-009
-4.301383e-009
-1.601469e-009
4.121589e-009
7.428655e-009
5.260077e-009
-8.261402e-011
-3.631414e-009
-2.929348e-009
-1.026690e-010
1.026839e-009
-7.833071e-010
-3.220540e-009
-3.377659e-009
-9.719052e-010
1.681759e-009
2.465523e-009
1.590823e-009
8.571958e-010
1.322100e-009
2.223554e-009
2.146259e-009
7.453776e-010
-1.010221e-009
-2.100860e-009
-2.538787e-009
-3.081115e-009
-4.157630e-009
-5.394531e-009
-6.176112e-009
-6.395568e-009
-6.473189e-009
-6.750003e-009
-7.095671e-009
-7.171739e-009
-6.915612e-009
-6.596957e-009
-6.426720e-009
-6.282145e-009
-5.908543e-009
-5.294573e-009
-4.692642e-009
-4.255363e-009
-3.799651e-009
-3.052568e-009
-2.068480e-009
-1.229891e-009
-7.728611e-010
-4.502304e-010
1.633274e-010
1.053860e-009
1.659305e-009
1.512806e-009
8.820840e-010
5.343738e-010
8.046719e-010
1.104122e-009
5.849331e-010
-7.427414e-010
-1.831060e-009
-1.715509e-009
-6.898286e-010
-7.448842e-011
-7.048282e-010
-1.846119e-009
-1.884890e-009
-1.443229e-010
2.191426e-009
3.155798e-009
1.985388e-009
-1.139909e-010
-1.235298e-009
-6.956198e-010
4.170392e-010
5.714399e-010
-5.091441e-010
-1.594055e-009
-1.335672e-009
2.355610e-010
1.692085e-009
1.653169e-009
1.782086e-010
-1.299727e-009
-1.398814e-009
-1.287035e-010
1.165841e-009
-1.547277e-008
-1.396527e-008
-1.170613e-008
-8.700533e-009
-3.543219e-009
4.766938e-009
1.410505e-008
1.904781e-008
1.464634e-008
1.281844e-009
-1.415407e-008
-2.260149e-008
-1.939195e-008
-7.450072e-009
5.465130e-009
1.276698e-008
1.307643e-008
9.486809e-009
5.786034e-009
3.507384e-009
1.916081e-009
-1.331453e-010
-2.795659e-009
-5.329003e-009
-6.922657e-009
-7.173309e-009
-6.031412e-009
-3.707470e-009
-7.364522e-010
2.104141e-009
4.188379e-009
5.380734e-009
5.891973e-009
5.808215e-009
4.891917e-009
2.918551e-009
1.112835e-010
-2.911103e-009
-5.647351e-009
-8.078682e-009
-1.046454e-008
-1.285620e-008
-1.494100e-008
-1.638379e-008
-1.720693e-008
-1.773241e-008
-1.818530e-008
-1.847046e-008
-1.837897e-008
-1.792021e-008
-1.733944e-008
-1.681589e-008
-1.625334e-008
-1.543373e-008
-1.431451e-008
-1.306739e-008
-1.181574e-008
-1.044026e-008
-8.734002e-009
-6.713769e-009
-4.670179e-009
-2.871586e-009
-1.296761e-009
2.529187e-010
1.799184e-009
3.048140e-009
3.656893e-009
3.582505e-009
3.091132e-009
2.437698e-009
1.626331e-009
5.285993e-010
-8.271373e-010
-2.169173e-009
-3.178649e-009
-3.702229e-009
-3.760621e-009
-3.437672e-009
-2.833326e-009
-2.052215e-009
-1.080188e-009
3.546980e-010
2.583224e-009
5.372109e-009
7.455879e-009
7.019610e-009
3.148225e-009
-2.901330e-009
-7.982657e-009
-9.061046e-009
-5.462569e-009
5.210862e-010
5.246909e-009
6.260704e-009
3.770027e-009
7.661575e-011
-2.319771e-009
-2.380015e-009
-8.749654e-010
5.137830e-010
-5.177821e-008
-3.182370e-008
-6.200602e-009
8.940851e-009
8.844388e-009
2.157850e-009
5.854804e-010
6.829165e-009
1.262956e-008
8.350634e-009
-5.966072e-009
-1.942330e-008
-2.024659e-008
-7.020655e-009
9.838531e-009
1.759590e-008
1.227171e-008
9.190958e-010
-6.121644e-009
-4.685940e-009
9.311698e-010
3.772720e-009
1.250691e-009
-3.410946e-009
-5.531551e-009
-3.723205e-009
-3.845792e-010
1.534865e-009
1.433252e-009
8.627289e-010
1.261840e-009
2.457455e-009
3.249713e-009
2.912347e-009
1.822298e-009
8.261726e-010
3.496075e-010
2.007220e-010
1.205659e-011
-3.390895e-010
-7.110283e-010
-9.178279e-010
-8.895339e-010
-6.864206e-010
-4.392639e-010
-2.654103e-010
-1.861722e-010
-1.149877e-010
4.021799e-011
2.545181e-010
3.970218e-010
3.797797e-010
2.644976e-010
1.886572e-010
2.032668e-010
2.284998e-010
1.777013e-010
8.561650e-011
8.209144e-011
2.511951e-010
5.415342e-010
8.136349e-010
9.628329e-010
1.009659e-009
1.093320e-009
1.354286e-009
1.761767e-009
2.046443e-009
1.894532e-009
1.305861e-009
7.200476e-010
6.244848e-010
9.494932e-010
9.869497e-010
1.376877e-010
-1.228424e-009
-1.913494e-009
-1.169420e-009
2.102311e-010
4.540803e-010
-1.202117e-009
-3.190237e-009
-2.745842e-009
1.204086e-009
6.292248e-009
8.260489e-009
4.736067e-009
-2.303057e-009
-7.899274e-009
-8.206553e-009
-3.562548e-009
2.162904e-009
5.067500e-009
4.188459e-009
1.481230e-009
-5.696919e-010
-1.064010e-009
-7.293244e-010
-5.064927e-010
-5.512837e-010
-6.657627e-008
-3.333939e-008
8.809712e-009
3.093653e-008
2.212412e-008
-3.882004e-009
-2.259469e-008
-2.001099e-008
-2.425512e-009
1.245468e-008
1.308916e-008
3.407269e-009
-3.785177e-009
-1.053896e-009
6.641979e-009
8.491932e-009
3.999923e-011
-1.201681e-008
-1.691960e-008
-1.072527e-008
4.043965e-010
7.139880e-009
6.110862e-009
1.857897e-009
7.038792e-010
3.984318e-009
7.607483e-009
7.292745e-009
3.078767e-009
-1.419150e-009
-3.221594e-009
-2.610713e-009
-1.808997e-009
-2.011667e-009
-2.304250e-009
-1.172174e-009
1.646864e-009
5.056563e-009
7.937413e-009
1.014118e-008
1.219722e-008
1.442610e-008
1.658577e-008
1.825659e-008
1.930882e-008
1.992491e-008
2.031081e-008
2.051461e-008
2.049256e-008
2.023679e-008
1.979195e-008
1.919268e-008
1.843843e-008
1.752955e-008
1.649254e-008
1.534436e-008
1.404009e-008
1.249474e-008
1.069694e-008
8.796215e-009
7.015668e-009
5.425842e-009
3.848514e-009
2.098376e-009
3.561659e-010
-8.286900e-010
-1.075008e-009
-6.935668e-010
-4.580057e-010
-6.980630e-010
-7.640904e-010
2.913992e-010
2.404473e-009
4.166837e-009
4.176899e-009
2.726879e-009
1.730160e-009
2.600239e-009
4.323752e-009
4.152822e-009
5.692669e-010
-4.597935e-009
-7.465683e-009
-5.772574e-009
-1.164486e-009
2.397247e-009
2.511355e-009
4.558325e-010
-5.897311e-010
8.269580e-010
2.910124e-009
2.772712e-009
-1.821173e-010
-3.391172e-009
-3.740454e-009
-8.579621e-010
2.429225e-009
2.971934e-009
4.982443e-010
-2.189408e-009
-5.411091e-008
-2.294586e-008
1.686262e-008
3.733373e-008
2.593489e-008
-5.841904e-009
-3.259726e-008
-3.521518e-008
-1.459409e-008
1.164388e-008
2.521704e-008
2.125407e-008
8.781017e-009
-5.415847e-010
-3.141057e-009
-3.799906e-009
-7.363275e-009
-1.223189e-008
-1.262291e-008
-6.062049e-009
3.056988e-009
7.903600e-009
6.329435e-009
2.588827e-009
2.089765e-009
5.452131e-009
8.402116e-009
7.009073e-009
1.971694e-009
-2.568306e-009
-3.664728e-009
-2.172140e-009
-8.915611e-010
-1.087330e-009
-1.473826e-009
-2.802111e-010
2.529737e-009
5.404243e-009
7.084660e-009
7.774581e-009
8.464131e-009
9.587084e-009
1.066195e-008
1.107065e-008
1.080997e-008
1.037089e-008
1.010270e-008
9.914930e-009
9.566151e-009
9.047689e-009
8.578870e-009
8.303708e-009
8.125339e-009
7.871138e-009
7.534450e-009
7.255086e-009
7.060438e-009
6.731365e-009
6.029701e-009
5.040646e-009
4.151426e-009
3.591595e-009
3.079757e-009
2.120618e-009
7.092568e-010
-4.516473e-010
-6.630766e-010
-1.190248e-010
2.041549e-010
-2.737493e-010
-8.666117e-010
-3.004966e-010
1.655988e-009
3.585419e-009
3.825672e-009
2.436538e-009
1.343694e-009
2.225127e-009
4.423260e-009
5.363421e-009
3.195448e-009
-1.206813e-009
-5.083034e-009
-6.454805e-009
-5.621851e-009
-4.010275e-009
-2.084646e-009
9.360258e-010
5.173100e-009
8.516216e-009
7.822175e-009
2.162166e-009
-5.300726e-009
-9.272723e-009
-6.772813e-009
5.293131e-011
5.594861e-009
5.607317e-009
8.521851e-010
-3.764888e-009
-1.345563e-008
-4.601482e-009
7.831028e-009
1.564173e-008
1.250897e-008
-8.545073e-010
-1.565173e-008
-2.070807e-008
-1.148349e-008
5.491904e-009
1.758310e-008
1.652674e-008
4.892999e-009
-7.237893e-009
-1.159042e-008
-7.813611e-009
-1.414067e-009
2.782361e-009
4.277904e-009
4.923816e-009
5.252797e-009
4.018111e-009
8.498200e-010
-2.181426e-009
-2.540959e-009
-2.813629e-010
1.852580e-009
1.577431e-009
-3.221122e-010
-1.057513e-009
8.064039e-010
3.738139e-009
5.099914e-009
4.033577e-009
1.991536e-009
6.386250e-010
-9.447783e-011
-1.601261e-009
-4.685836e-009
-8.610460e-009
-1.205910e-008
-1.459158e-008
-1.683778e-008
-1.944765e-008
-2.224602e-008
-2.452965e-008
-2.593921e-008
-2.677565e-008
-2.749064e-008
-2.810073e-008
-2.823779e-008
-2.767455e-008
-2.661019e-008
-2.537894e-008
-2.400011e-008
-2.217524e-008
-1.974822e-008
-1.702360e-008
-1.448224e-008
-1.220998e-008
-9.796017e-009
-6.924188e-009
-3.955438e-009
-1.687722e-009
-4.682458e-010
2.527998e-010
1.261187e-009
2.535611e-009
3.162717e-009
2.452930e-009
9.407396e-010
-5.072921e-011
1.191413e-010
6.616372e-010
3.132234e-010
-1.091217e-009
-2.302695e-009
-1.981801e-009
-1.003716e-010
2.137627e-009
3.550710e-009
3.793840e-009
2.963642e-009
9.772929e-010
-2.057780e-009
-4.899636e-009
-5.326201e-009
-2.016901e-009
3.528596e-009
7.418511e-009
6.386448e-009
8.029553e-010
-5.285538e-009
-7.370088e-009
-4.153757e-009
1.516815e-009
5.142337e-009
4.222446e-009
5.198102e-011
-3.588362e-009
4.698789e-008
2.078898e-008
-1.070898e-008
-2.433601e-008
-1.414026e-008
6.050727e-009
1.761604e-008
1.379533e-008
2.504401e-009
-4.816603e-009
-4.926951e-009
-3.395892e-009
-5.716509e-009
-1.019021e-008
-1.023173e-008
-2.444820e-009
9.067702e-009
1.654231e-008
1.574617e-008
8.927687e-009
1.500411e-009
-2.978151e-009
-4.493081e-009
-4.636138e-009
-4.379830e-009
-3.812255e-009
-2.956815e-009
-1.941465e-009
-5.415198e-010
1.659179e-009
4.331343e-009
6.047779e-009
5.360693e-009
2.198639e-009
-2.156505e-009
-6.555490e-009
-1.113978e-008
-1.681680e-008
-2.381731e-008
-3.117066e-008
-3.767851e-008
-4.310042e-008
-4.812434e-008
-5.329072e-008
-5.826220e-008
-6.225372e-008
-6.496182e-008
-6.682322e-008
-6.837407e-008
-6.957908e-008
-6.993722e-008
-6.915265e-008
-6.749309e-008
-6.540745e-008
-6.292217e-008
-5.960441e-008
-5.515607e-008
-4.988837e-008
-4.444884e-008
-3.911272e-008
-3.354344e-008
-2.737677e-008
-2.092413e-008
-1.507158e-008
-1.042866e-008
-6.759549e-009
-3.427068e-009
-3.162827e-010
1.924120e-009
2.643627e-009
2.020166e-009
9.536511e-010
1.939175e-010
-2.389349e-010
-7.695308e-010
-1.642287e-009
-2.714168e-009
-3.644241e-009
-3.949414e-009
-2.915712e-009
2.172520e-011
4.325909e-009
7.905427e-009
8.275824e-009
4.747238e-009
-5.412358e-010
-4.172894e-009
-4.346571e-009
-2.237774e-009
-4.498916e-010
-2.873759e-010
-7.851580e-010
-3.353332e-010
1.189991e-009
2.309510e-009
1.786829e-009
1.259863e-010
-1.063483e-009
-9.556028e-010
-3.142946e-010
1.007807e-007
4.647235e-008
-2.135987e-008
-5.491484e-008
-3.719849e-008
8.199497e-009
4.118328e-008
3.918743e-008
1.132486e-008
-1.600990e-008
-2.451570e-008
-1.621361e-008
-4.920903e-009
5.309246e-011
6.698372e-010
3.376146e-009
9.346589e-009
1.313854e-008
9.800076e-009
1.090725e-009
-6.189056e-009
-7.127866e-009
-2.944509e-009
1.356136e-009
2.346557e-009
6.892553e-010
-8.533386e-010
-7.155493e-010
3.603871e-010
6.220736e-010
-1.107407e-009
-5.009402e-009
-1.067759e-008
-1.750942e-008
-2.493867e-008
-3.272362e-008
-4.109489e-008
-5.040345e-008
-6.051709e-008
-7.071122e-008
-8.029300e-008
-8.924304e-008
-9.806219e-008
-1.069837e-007
-1.155157e-007
-1.228726e-007
-1.287503e-007
-1.334975e-007
-1.375063e-007
-1.406040e-007
-1.421896e-007
-1.419187e-007
-1.400710e-007
-1.371524e-007
-1.332432e-007
-1.279173e-007
-1.208437e-007
-1.123224e-007
-1.030820e-007
-9.358416e-008
-8.369782e-008
-7.314095e-008
-6.212477e-008
-5.139333e-008
-4.162247e-008
-3.292304e-008
-2.500849e-008
-1.774074e-008
-1.137748e-008
-6.324002e-009
-2.786513e-009
-6.646314e-010
4.103745e-010
1.027811e-009
1.754835e-009
2.599338e-009
2.720953e-009
1.119064e-009
-1.988853e-009
-4.605676e-009
-4.324679e-009
-6.528616e-010
4.152799e-009
6.914623e-009
6.292924e-009
3.566083e-009
7.296017e-010
-1.658158e-009
-4.231437e-009
-6.652238e-009
-6.696879e-009
-2.463564e-009
4.490419e-009
9.170287e-009
7.361656e-009
1.267178e-010
-6.446425e-009
-6.700633e-009
-8.946674e-010
4.951111e-009
1.089264e-007
5.449369e-008
-1.488756e-008
-5.193956e-008
-3.818027e-008
4.808782e-009
3.708237e-008
3.439596e-008
5.091028e-009
-2.233762e-008
-2.647558e-008
-9.376232e-009
1.030869e-008
1.701822e-008
1.050139e-008
1.126460e-009
-3.138078e-009
-3.261604e-009
-4.315558e-009
-7.412549e-009
-8.381158e-009
-3.644324e-009
4.700172e-009
1.067345e-008
1.050803e-008
5.849549e-009
9.709764e-010
-2.149413e-009
-5.399840e-009
-1.184165e-008
-2.246672e-008
-3.580104e-008
-4.995557e-008
-6.437135e-008
-7.969108e-008
-9.659558e-008
-1.151264e-007
-1.348724e-007
-1.553744e-007
-1.762630e-007
-1.972467e-007
-2.181337e-007
-2.387732e-007
-2.588256e-007
-2.776221e-007
-2.944004e-007
-3.087327e-007
-3.206282e-007
-3.301388e-007
-3.369365e-007
-3.404148e-007
-3.402234e-007
-3.365826e-007
-3.299773e-007
-3.206031e-007
-3.082520e-007
-2.927737e-007
-2.745367e-007
-2.543313e-007
-2.328632e-007
-2.104573e-007
-1.872684e-007
-1.636601e-007
-1.402896e-007
-1.178777e-007
-9.698128e-008
-7.792688e-008
-6.080352e-008
-4.550021e-008
-3.194228e-008
-2.043290e-008
-1.159741e-008
-5.674067e-009
-1.823546e-009
1.480178e-009
4.986146e-009
7.663128e-009
7.604117e-009
4.218720e-009
-6.514719e-010
-4.121550e-009
-4.752608e-009
-3.390118e-009
-1.563471e-009
3.519967e-010
2.790364e-009
5.054840e-009
4.819498e-009
5.775564e-010
-5.481415e-009
-8.164677e-009
-4.005817e-009
4.485039e-009
1.007750e-008
7.305573e-009
-1.909150e-009
-9.444171e-009
-8.399379e-009
2.502798e-010
8.389143e-009
4.797536e-008
2.805059e-008
1.577552e-009
-1.457376e-008
-1.263966e-008
4.600475e-010
9.565852e-009
4.910061e-009
-8.957970e-009
-1.755240e-008
-1.051153e-008
8.058085e-009
2.315546e-008
2.280579e-008
8.474593e-009
-7.782356e-009
-1.528544e-008
-1.308475e-008
-7.414771e-009
-3.265995e-009
-1.895842e-010
4.255070e-009
9.328674e-009
1.106827e-008
6.878466e-009
-1.519765e-009
-1.049777e-008
-1.911618e-008
-3.031983e-008
-4.763304e-008
-7.156616e-008
-9.973882e-008
-1.299810e-007
-1.625137e-007
-1.990611e-007
-2.405243e-007
-2.860120e-007
-3.338538e-007
-3.829299e-007
-4.328236e-007
-4.830705e-007
-5.326809e-007
-5.803909e-007
-6.251031e-007
-6.659766e-007
-7.022781e-007
-7.333523e-007
-7.587127e-007
-7.780022e-007
-7.908171e-007
-7.966804e-007
-7.952787e-007
-7.866756e-007
-7.712048e-007
-7.491654e-007
-7.207110e-007
-6.860615e-007
-6.457564e-007
-6.006662e-007
-5.518223e-007
-5.002937e-007
-4.471582e-007
-3.934625e-007
-3.402024e-007
-2.884545e-007
-2.395356e-007
-1.948064e-007
-1.550703e-007
-1.202033e-007
-8.965785e-008
-6.346386e-008
-4.248198e-008
-2.732576e-008
-1.706411e-008
-9.409818e-009
-2.519849e-009
3.494010e-009
7.107794e-009
7.381018e-009
5.083587e-009
1.789636e-009
-1.615855e-009
-4.925815e-009
-7.253726e-009
-6.658503e-009
-2.050348e-009
4.557224e-009
8.638145e-009
6.941572e-009
8.847140e-010
-4.309668e-009
-4.374655e-009
-4.488757e-011
3.759082e-009
2.875242e-009
-1.953608e-009
-5.834845e-009
-4.579657e-009
1.135225e-009
6.312412e-009
-5.993499e-008
-2.682022e-008
1.398856e-008
3.378411e-008
2.365562e-008
-2.027608e-009
-2.172630e-008
-2.453996e-008
-1.414858e-008
-9.969848e-011
1.106263e-008
1.692277e-008
1.611915e-008
8.111472e-009
-3.928970e-009
-1.289966e-008
-1.287767e-008
-4.568258e-009
5.362721e-009
1.057797e-008
1.000974e-008
6.554313e-009
2.225678e-009
-4.044702e-009
-1.414271e-008
-2.808786e-008
-4.483294e-008
-6.520780e-008
-9.267731e-008
-1.306016e-007
-1.793618e-007
-2.368593e-007
-3.015780e-007
-3.743441e-007
-4.568093e-007
-5.487552e-007
-6.474415e-007
-7.494365e-007
-8.525150e-007
-9.556192e-007
-1.057486e-006
-1.155910e-006
-1.248394e-006
-1.333157e-006
-1.409288e-006
-1.476124e-006
-1.532779e-006
-1.578294e-006
-1.611996e-006
-1.633551e-006
-1.642738e-006
-1.639303e-006
-1.623050e-006
-1.593991e-006
-1.552381e-006
-1.498673e-006
-1.433440e-006
-1.357356e-006
-1.271284e-006
-1.176510e-006
-1.074912e-006
-9.687806e-007
-8.603374e-007
-7.514988e-007
-6.442570e-007
-5.412134e-007
-4.453647e-007
-3.590168e-007
-2.829176e-007
-2.166993e-007
-1.602174e-007
-1.141569e-007
-7.905553e-008
-5.387607e-008
-3.594072e-008
-2.244290e-008
-1.185693e-008
-3.822639e-009
1.891772e-009
5.703983e-009
7.509723e-009
6.447613e-009
2.194971e-009
-3.448874e-009
-6.960095e-009
-5.746371e-009
-5.462087e-010
5.021316e-009
7.413280e-009
5.731541e-009
1.716598e-009
-2.165868e-009
-4.330223e-009
-4.312133e-009
-2.418871e-009
3.337033e-010
2.353567e-009
2.379636e-009
6.562931e-010
-1.057053e-009
-1.494903e-007
-7.581567e-008
1.620462e-008
6.335258e-008
4.542500e-008
-5.239236e-009
-3.919582e-008
-3.311980e-008
-2.220190e-009
2.241651e-008
2.368887e-008
7.851989e-009
-8.535967e-009
-1.521286e-008
-1.256457e-008
-5.246453e-009
3.656824e-009
1.228325e-008
1.760572e-008
1.634965e-008
8.117919e-009
-4.132588e-009
-1.744971e-008
-3.211002e-008
-5.121947e-008
-7.805133e-008
-1.148225e-007
-1.637821e-007
-2.280461e-007
-3.103399e-007
-4.112081e-007
-5.292423e-007
-6.630979e-007
-8.125391e-007
-9.770095e-007
-1.153552e-006
-1.336822e-006
-1.521334e-006
-1.703408e-006
-1.880873e-006
-2.051401e-006
-2.211762e-006
-2.358777e-006
-2.490583e-006
-2.606672e-006
-2.706835e-006
-2.790387e-006
-2.856388e-006
-2.904318e-006
-2.934261e-006
-2.946461e-006
-2.940825e-006
-2.916889e-006
-2.874177e-006
-2.812570e-006
-2.732359e-006
-2.633960e-006
-2.517639e-006
-2.383650e-006
-2.232849e-006
-2.067247e-006
-1.889846e-006
-1.703907e-006
-1.512530e-006
-1.319138e-006
-1.128258e-006
-9.453341e-007
-7.753589e-007
-6.215642e-007
-4.854643e-007
-3.679603e-007
-2.699834e-007
-1.918807e-007
-1.324577e-007
-8.900266e-008
-5.825702e-008
-3.712695e-008
-2.258864e-008
-1.166633e-008
-2.335257e-009
5.405008e-009
9.889058e-009
9.759904e-009
5.719576e-009
3.117384e-010
-3.799834e-009
-5.132629e-009
-3.426889e-009
5.748212e-010
4.820381e-009
6.191078e-009
2.641490e-009
-4.046400e-009
-8.415745e-009
-5.821705e-009
2.460044e-009
9.287900e-009
8.030284e-009
-6.397561e-010
-8.810309e-009
-1.564468e-007
-8.038203e-008
1.316955e-008
5.852558e-008
3.751904e-008
-1.203836e-008
-3.746666e-008
-1.933540e-008
1.772546e-008
3.563456e-008
2.004212e-008
-1.112938e-008
-2.995010e-008
-2.460806e-008
-4.845267e-009
1.255565e-008
1.913908e-008
1.695456e-008
1.076846e-008
1.993091e-009
-1.049086e-008
-2.720371e-008
-4.822120e-008
-7.594454e-008
-1.160601e-007
-1.752149e-007
-2.583182e-007
-3.682173e-007
-5.069198e-007
-6.759053e-007
-8.750910e-007
-1.102154e-006
-1.353155e-006
-1.623324e-006
-1.906775e-006
-2.195855e-006
-2.481808e-006
-2.756840e-006
-3.015682e-006
-3.255201e-006
-3.472875e-006
-3.666160e-006
-3.833383e-006
-3.974791e-006
-4.092262e-006
-4.187944e-006
-4.263282e-006
-4.319233e-006
-4.356998e-006
-4.378206e-006
-4.384299e-006
-4.375826e-006
-4.352282e-006
-4.312536e-006
-4.255370e-006
-4.179633e-006
-4.083890e-006
-3.966021e-006
-3.823415e-006
-3.653916e-006
-3.456829e-006
-3.233113e-006
-2.984837e-006
-2.714890e-006
-2.427597e-006
-2.129590e-006
-1.829644e-006
-1.537207e-006
-1.260752e-006
-1.007104e-006
-7.815450e-007
-5.877516e-007
-4.272883e-007
-2.994269e-007
-2.017725e-007
-1.310111e-007
-8.290578e-008
-5.193808e-008
-3.188007e-008
-1.755155e-008
-6.286698e-009
2.320045e-009
7.860889e-009
1.002230e-008
8.501500e-009
3.306878e-009
-3.835684e-009
-8.824622e-009
-7.593625e-009
-3.836244e-010
6.939242e-009
7.533343e-009
5.858283e-010
-6.922680e-009
-6.780313e-009
1.654189e-009
9.992162e-009
9.109063e-009
-1.102256e-009
-1.105805e-008
-6.997866e-008
-3.231536e-008
1.074060e-008
2.522451e-008
6.625817e-009
-1.848615e-008
-2.073709e-008
2.933881e-009
2.799857e-008
2.857159e-008
3.437194e-009
-2.389749e-008
-2.916788e-008
-9.791507e-009
1.554979e-008
2.651882e-008
1.828273e-008
8.585411e-010
-1.448197e-008
-2.579882e-008
-3.954271e-008
-6.349401e-008
-1.031835e-007
-1.640398e-007
-2.539811e-007
-3.821017e-007
-5.550989e-007
-7.755653e-007
-1.043049e-006
-1.355215e-006
-1.707122e-006
-2.089732e-006
-2.489868e-006
-2.891922e-006
-3.279872e-006
-3.638644e-006
-3.955277e-006
-4.220329e-006
-4.428864e-006
-4.580150e-006
-4.676423e-006
-4.722050e-006
-4.723624e-006
-4.690086e-006
-4.631833e-006
-4.559074e-006
-4.480700e-006
-4.404280e-006
-4.336568e-006
-4.283537e-006
-4.249762e-006
-4.237708e-006
-4.247476e-006
-4.277053e-006
-4.322721e-006
-4.379197e-006
-4.439312e-006
-4.493619e-006
-4.530646e-006
-4.538120e-006
-4.504560e-006
-4.420348e-006
-4.278202e-006
-4.073834e-006
-3.807262e-006
-3.484059e-006
-3.115429e-006
-2.716878e-006
-2.306324e-006
-1.902268e-006
-1.521898e-006
-1.178978e-006
-8.823031e-007
-6.356878e-007
-4.392431e-007
-2.904790e-007
-1.843727e-007
-1.133071e-007
-6.821917e-008
-4.065418e-008
-2.399569e-008
-1.317942e-008
-4.365342e-009
4.011211e-009
1.010032e-008
1.023909e-008
3.389397e-009
-5.850287e-009
-9.936167e-009
-5.249118e-009
3.847895e-009
8.817535e-009
5.390360e-009
-2.153428e-009
-5.661979e-009
-1.860343e-009
4.328676e-009
5.489987e-009
5.293838e-011
-6.025945e-009
5.523340e-008
3.560583e-008
6.651770e-009
-1.711154e-008
-2.494489e-008
-1.524123e-008
3.880015e-009
1.888184e-008
1.886825e-008
3.618496e-009
-1.475009e-008
-2.024336e-008
-6.529191e-009
1.639532e-008
2.990482e-008
2.262142e-008
-5.952710e-010
-2.513689e-008
-4.170477e-008
-5.524068e-008
-8.087175e-008
-1.337069e-007
-2.236159e-007
-3.580031e-007
-5.461496e-007
-7.985334e-007
-1.121749e-006
-1.514404e-006
-1.966838e-006
-2.462525e-006
-2.978265e-006
-3.483678e-006
-3.942804e-006
-4.318827e-006
-4.579711e-006
-4.702039e-006
-4.672416e-006
-4.487660e-006
-4.154585e-006
-3.689084e-006
-3.114247e-006
-2.458053e-006
-1.751406e-006
-1.026448e-006
-3.147307e-007
3.546503e-007
9.562467e-007
1.468461e-006
1.873294e-006
2.156303e-006
2.306891e-006
2.318653e-006
2.189650e-006
1.922601e-006
1.525046e-006
1.009594e-006
3.944405e-007
-2.960104e-007
-1.031112e-006
-1.775125e-006
-2.489315e-006
-3.134375e-006
-3.672991e-006
-4.072994e-006
-4.311072e-006
-4.376085e-006
-4.270908e-006
-4.012507e-006
-3.630454e-006
-3.163705e-006
-2.655346e-006
-2.146144e-006
-1.669169e-006
-1.247356e-006
-8.937755e-007
-6.128322e-007
-4.014167e-007
-2.507151e-007
-1.492242e-007
-8.563755e-008
-4.965175e-008
-3.102254e-008
-1.967729e-008
-8.563544e-009
3.175181e-009
1.100348e-008
1.053375e-008
3.033021e-009
-4.714805e-009
-6.286883e-009
-1.304889e-009
4.791958e-009
6.356028e-009
2.629191e-009
-2.446594e-009
-4.660884e-009
-3.211718e-009
-3.403200e-010
1.661368e-009
2.354679e-009
1.411313e-007
7.617740e-008
-5.387404e-009
-4.885535e-008
-3.715542e-008
2.223723e-009
2.826526e-008
2.209495e-008
-3.750508e-009
-2.355738e-008
-2.179273e-008
-1.965504e-009
2.043905e-008
3.036695e-008
2.175134e-008
-6.936607e-010
-2.607017e-008
-4.630797e-008
-6.460915e-008
-9.699713e-008
-1.654074e-007
-2.885038e-007
-4.783242e-007
-7.439306e-007
-1.095167e-006
-1.539696e-006
-2.074137e-006
-2.676202e-006
-3.302883e-006
-3.893787e-006
-4.376088e-006
-4.670204e-006
-4.697960e-006
-4.393536e-006
-3.713808e-006
-2.643846e-006
-1.196532e-006
5.912757e-007
2.663382e-006
4.949109e-006
7.368961e-006
9.840813e-006
1.228533e-005
1.462976e-005
1.681005e-005
1.877199e-005
2.047111e-005
2.187199e-005
2.294698e-005
2.367524e-005
2.404166e-005
2.403609e-005
2.365327e-005
2.289352e-005
2.176402e-005
2.028017e-005
1.846743e-005
1.636354e-005
1.402068e-005
1.150640e-005
8.902897e-006
6.304436e-006
3.812807e-006
1.530254e-006
-4.496342e-007
-2.051648e-006
-3.227695e-006
-3.963405e-006
-4.281283e-006
-4.238493e-006
-3.918092e-006
-3.415271e-006
-2.822734e-006
-2.219259e-006
-1.663000e-006
-1.189080e-006
-8.110184e-007
-5.259320e-007
-3.221027e-007
-1.854695e-007
-1.020732e-007
-5.716996e-008
-3.490827e-008
-2.126503e-008
-8.448605e-009
3.621290e-009
1.075726e-008
1.017520e-008
3.782670e-009
-3.036754e-009
-5.408257e-009
-2.325191e-009
2.927796e-009
5.431958e-009
2.588501e-009
-3.504320e-009
-7.480102e-009
-5.305277e-009
1.792693e-009
7.994377e-009
1.455079e-007
6.715526e-008
-2.395861e-008
-5.874418e-008
-2.600398e-008
2.588313e-008
4.243830e-008
1.376866e-008
-2.505353e-008
-3.546091e-008
-1.171064e-008
2.054400e-008
3.327230e-008
1.957098e-008
-7.314239e-009
-3.117488e-008
-4.744520e-008
-6.627959e-008
-1.078220e-007
-1.961213e-007
-3.543304e-007
-6.016706e-007
-9.527146e-007
-1.417632e-006
-1.998780e-006
-2.679990e-006
-3.411548e-006
-4.099811e-006
-4.608934e-006
-4.774943e-006
-4.426827e-006
-3.409553e-006
-1.606488e-006
1.041379e-006
4.524068e-006
8.763267e-006
1.362456e-005
1.893588e-005
2.450650e-005
3.014394e-005
3.566867e-005
4.092611e-005
4.579410e-005
5.018474e-005
5.404167e-005
5.733460e-005
6.005283e-005
6.219855e-005
6.378082e-005
6.481046e-005
6.529537e-005
6.523692e-005
6.462804e-005
6.345367e-005
6.169300e-005
5.932285e-005
5.632276e-005
5.268258e-005
4.841228e-005
4.355239e-005
3.818329e-005
3.243155e-005
2.647088e-005
2.051520e-005
1.480326e-005
9.575786e-006
5.048253e-006
1.382599e-006
-1.336457e-006
-3.114036e-006
-4.041651e-006
-4.277656e-006
-4.016967e-006
-3.458007e-006
-2.774007e-006
-2.093853e-006
-1.495608e-006
-1.012637e-006
-6.479137e-007
-3.891021e-007
-2.183839e-007
-1.161137e-007
-6.169049e-008
-3.522924e-008
-2.070208e-008
-8.793051e-009
2.443082e-009
9.859846e-009
9.800869e-009
2.726032e-009
-5.545225e-009
-7.866805e-009
-2.257731e-009
5.595303e-009
7.500860e-009
1.246509e-009
-6.619083e-009
-7.477740e-009
-6.367607e-011
7.868689e-009
8.607433e-008
2.595693e-008
-3.653513e-008
-4.569337e-008
-2.991453e-009
3.976852e-008
3.798688e-008
-1.431555e-009
-3.346700e-008
-2.576152e-008
9.961758e-009
3.516230e-008
2.563956e-008
-8.488490e-009