# vtk DataFile Version 3.0
vtk output
ASCII
DATASET STRUCTURED_POINTS
DIMENSIONS 100 100 1
SPACING 1 1 1
ORIGIN 0 0 0
POINT_DATA 10000
SCALARS SFBox_profile double
LOOKUP_TABLE default 
0.000000e+000
0.000000e+000
0.000000e+000
0.000000e+000
0.000000e+000
0.000000e+000
0.000000e+000
0.000000e+000
0.000000e+000
0.000000e+000
0.000000e+000
0.000000e+000
0.000000e+000
0.000000e+000
0.000000e+000
0.000000e+000
0.000000e+000
0.000000e+000
0.000000e+000
0.000000e+000
0.000000e+000
0.000000e+000
0.000000e+000
0.000000e+000
0.000000e+000
0.000000e+000
0.000000e+000
0.000000e+000
0.000000e+000
0.000000e+000
0.000000e+000
0.000000e+000
0.000000e+000
0.000000e+000
0.000000e+000
0.000000e+000
0.000000e+000
0.000000e+000
0.000000e+000
0.000000e+000
0.000000e+000
0.000000e+000
0.000000e+000
0.000000e+000
0.000000e+000
0.000000e+000
0.000000e+000
0.000000e+000
0.000000e+000
0.000000e+000
0.000000e+000
0.000000e+000
0.000000e+000
0.000000e+000
0.000000e+000
0.000000e+000
0.000000e+000
0.000000e+000
0.000000e+000
0.000000e+000
0.000000e+000
0.000000e+000
0.000000e+000
0.000000e+000
0.000000e+000
0.000000e+000
0.000000e+000
0.000000e+000
0.000000e+000
0.000000e+000
0.000000e+000
0.000000e+000
0.000000e+000
0.000000e+000
0.000000e+000
0.000000e+000
0.000000e+000
0.000000e+000
0.000000e+000
0.000000e+000
0.000000e+000
0.000000e+000
0.000000e+000
0.000000e+000
0.000000e+000
0.000000e+000
0.000000e+000
0.000000e+000
0.000000e+000
0.000000e+000
0.000000e+000
0.000000e+000
0.000000e+000
0.000000e+000
0.000000e+000
0.000000e+000
0.000000e+000
0.000000e+000
0.000000e+000
0.000000e+000
1.808007e-016
2.265540e-016
1.541293e-016
2.213498e-016
1.727776e-016
-3.712397e-017
-4.825142e-016
-1.304123e-015
-2.924354e-015
-5.436017e-015
-9.489415e-015
-1.598964e-014
-2.565227e-014
-3.981390e-014
-5.922285e-014
-8.600959e-014
-1.209686e-013
-1.655202e-013
-2.199762e-013
-2.836978e-013
-3.549167e-013
-4.293725e-013
-5.011053e-013
-5.602190e-013
-5.945076e-013
-5.885128e-013
-5.234344e-013
-3.792238e-013
-1.338511e-013
2.343570e-013
7.452350e-013
1.415729e-012
2.258278e-012
3.279354e-012
4.479028e-012
5.850042e-012
7.378559e-012
9.043398e-012
1.081843e-011
1.267280e-011
1.457213e-011
1.647976e-011
1.835866e-011
2.017157e-011
2.188201e-011
2.345565e-011
2.485979e-011
2.606433e-011
2.704174e-011
2.776803e-011
2.822268e-011
2.838961e-011
2.825785e-011
2.782252e-011
2.708567e-011
2.605723e-011
2.475568e-011
2.320818e-011
2.145001e-011
1.952461e-011
1.748156e-011
1.537452e-011
1.325912e-011
1.118991e-011
9.217613e-012
7.386150e-012
5.731175e-012
4.277262e-012
3.038161e-012
2.016809e-012
1.205680e-012
5.885747e-013
1.434800e-013
-1.557364e-013
-3.369896e-013
-4.274756e-013
-4.523270e-013
-4.330154e-013
-3.873876e-013
-3.291142e-013
-2.679064e-013
-2.099139e-013
-1.590085e-013
-1.164789e-013
-8.266395e-014
-5.697725e-014
-3.804882e-014
-2.456546e-014
-1.526062e-014
-8.960758e-015
-5.220261e-015
-2.863422e-015
-1.349659e-015
-6.507824e-016
-1.808892e-016
4.766064e-017
5.416585e-017
9.775078e-017
1.552135e-016
7.433201e-017
1.879564e-016
1.992321e-016
1.899080e-016
1.350473e-016
-8.049206e-017
-4.866342e-016
-1.229963e-015
-2.593456e-015
-4.989543e-015
-8.753676e-015
-1.513247e-014
-2.426883e-014
-3.737098e-014
-5.643060e-014
-8.212381e-014
-1.156408e-013
-1.582821e-013
-2.096268e-013
-2.680181e-013
-3.305681e-013
-3.905886e-013
-4.379321e-013
-4.585571e-013
-4.337585e-013
-3.392597e-013
-1.465373e-013
1.767687e-013
6.657556e-013
1.355953e-012
2.281226e-012
3.471738e-012
4.950607e-012
6.732318e-012
8.821229e-012
1.120955e-011
1.387854e-011
1.679739e-011
1.992533e-011
2.321337e-011
2.660544e-011
3.004149e-011
3.345893e-011
3.679500e-011
3.998785e-011
4.297826e-011
4.570971e-011
4.813007e-011
5.019107e-011
5.184944e-011
5.306687e-011
5.381117e-011
5.405711e-011
5.378735e-011
5.299431e-011
5.168121e-011
4.986370e-011
4.757084e-011
4.484541e-011
4.174446e-011
3.833747e-011
3.470486e-011
3.093487e-011
2.712004e-011
2.335250e-011
1.972020e-011
1.630115e-011
1.316075e-011
1.034838e-011
7.895008e-012
5.813628e-012
4.099656e-012
2.733844e-012
1.684319e-012
9.108525e-013
3.692844e-013
1.459483e-014
-1.965147e-013
-3.030133e-013
-3.373606e-013
-3.262543e-013
-2.895057e-013
-2.415026e-013
-1.919533e-013
-1.464619e-013
-1.075848e-013
-7.620970e-014
-5.220546e-014
-3.467435e-014
-2.225026e-014
-1.381083e-014
-8.177748e-015
-4.636526e-015
-2.412177e-015
-1.236252e-015
-5.115708e-016
-1.288475e-016
-7.416832e-018
1.318301e-017
4.462487e-017
7.368149e-017
1.966300e-016
2.055205e-016
4.787748e-017
-1.921649e-016
-6.093659e-016
-1.326240e-015
-3.131003e-015
-5.720729e-015
-1.010177e-014
-1.702917e-014
-2.737333e-014
-4.247843e-014
-6.402609e-014
-9.279647e-014
-1.303964e-013
-1.768991e-013
-2.311231e-013
-2.893962e-013
-3.448251e-013
-3.852275e-013
-3.920040e-013
-3.393592e-013
-1.924134e-013
9.364445e-014
5.717041e-013
1.303813e-012
2.357195e-012
3.802089e-012
5.706854e-012
8.134097e-012
1.113458e-011
1.474421e-011
1.897820e-011
2.383039e-011
2.927071e-011
3.524624e-011
4.168280e-011
4.848762e-011
5.555378e-011
6.276423e-011
6.999575e-011
7.712345e-011
8.402389e-011
9.057786e-011
9.667197e-011
1.022006e-010
1.070662e-010
1.111794e-010
1.144613e-010
1.168417e-010
1.182621e-010
1.186766e-010
1.180538e-010
1.163798e-010
1.136600e-010
1.099230e-010
1.052213e-010
9.963369e-011
9.326497e-011
8.624461e-011
7.872392e-011
7.087129e-011
6.286563e-011
5.488931e-011
4.711919e-011
3.971795e-011
3.282660e-011
2.655731e-011
2.098907e-011
1.616524e-011
1.209422e-011
8.752438e-012
6.089344e-012
4.034639e-012
2.505452e-012
1.412552e-012
6.691930e-013
1.938700e-013
-8.460099e-014
-2.260905e-013
-2.776261e-013
-2.749565e-013
-2.436324e-013
-2.003216e-013
-1.560345e-013
-1.158208e-013
-8.277866e-014
-5.688510e-014
-3.767694e-014
-2.411248e-014
-1.485513e-014
-8.773408e-015
-5.057847e-015
-2.637691e-015
-1.375029e-015
-5.375917e-016
-1.544346e-016
-4.666495e-017
5.243113e-017
1.163991e-016
2.610316e-016
1.098938e-016
-3.257032e-017
-7.561669e-016
-1.813481e-015
-3.569238e-015
-6.658997e-015
-1.184018e-014
-1.990188e-014
-3.207421e-014
-5.024436e-014
-7.558043e-014
-1.097302e-013
-1.537976e-013
-2.073494e-013
-2.672292e-013
-3.269592e-013
-3.733188e-013
-3.848003e-013
-3.292560e-013
-1.591440e-013
1.877562e-013
7.927868e-013
1.755357e-012
3.191975e-012
5.232851e-012
8.016297e-012
1.168125e-011
1.635845e-011
2.215961e-011
2.916880e-011
3.743363e-011
4.695830e-011
5.770161e-011
6.957443e-011
8.244420e-011
9.613962e-011
1.104580e-010
1.251734e-010
1.400464e-010
1.548319e-010
1.692866e-010
1.831740e-010
1.962706e-010
2.083668e-010
2.192691e-010
2.288018e-010
2.368053e-010
2.431386e-010
2.476784e-010
2.503218e-010
2.509882e-010
2.496228e-010
2.462008e-010
2.407319e-010
2.332656e-010
2.238939e-010
2.127558e-010
2.000376e-010
1.859724e-010
1.708354e-010
1.549379e-010
1.386171e-010
1.222231e-010
1.061037e-010
9.058940e-011
7.597646e-011
6.251284e-011
5.038603e-011
3.971704e-011
3.055715e-011
2.289124e-011
1.664618e-011
1.170176e-011
7.905022e-012
5.085333e-012
3.067481e-012
1.683471e-012
7.815317e-013
2.311681e-013
-7.484165e-014
-2.196711e-013
-2.653980e-013
-2.554886e-013
-2.192580e-013
-1.744065e-013
-1.309979e-013
-9.386094e-014
-6.462847e-014
-4.257948e-014
-2.710076e-014
-1.670608e-014
-9.743119e-015
-5.704899e-015
-2.829378e-015
-1.454610e-015
-6.468793e-016
-1.932491e-016
3.920386e-017
6.847732e-017
-3.257032e-017
-2.372677e-016
-7.657078e-016
-1.898265e-015
-3.942203e-015
-7.594013e-015
-1.371238e-014
-2.286175e-014
-3.754120e-014
-5.855672e-014
-8.846422e-014
-1.288826e-013
-1.804887e-013
-2.419074e-013
-3.080427e-013
-3.672260e-013
-3.979250e-013
-3.644808e-013
-2.124531e-013
1.373267e-013
7.924097e-013
1.894673e-012
3.620520e-012
6.181094e-012
9.817103e-012
1.478998e-011
2.136827e-011
2.981150e-011
4.035019e-011
5.316745e-011
6.837995e-011
8.602431e-011
1.060488e-010
1.283096e-010
1.525765e-010
1.785414e-010
2.058328e-010
2.340330e-010
2.626967e-010
2.913659e-010
3.195872e-010
3.469222e-010
3.729566e-010
3.973056e-010
4.196170e-010
4.395713e-010
4.568809e-010
4.712908e-010
4.825762e-010
4.905435e-010
4.950328e-010
4.959187e-010
4.931183e-010
4.865934e-010
4.763607e-010
4.624968e-010
4.451459e-010
4.245257e-010
4.009317e-010
3.747376e-010
3.463940e-010
3.164210e-010
2.853958e-010
2.539361e-010
2.226766e-010
1.922422e-010
1.632180e-010
1.361200e-010
1.113689e-010
8.926839e-011
6.999481e-011
5.359410e-011
3.999157e-011
2.900883e-011
2.038939e-011
1.382492e-011
8.984519e-012
5.539511e-012
3.182649e-012
1.643032e-012
6.924001e-013
1.476162e-013
-1.305718e-013
-2.445614e-013
-2.653019e-013
-2.392297e-013
-1.946677e-013
-1.474841e-013
-1.060936e-013
-7.273592e-014
-4.785001e-014
-3.023064e-014
-1.841804e-014
-1.082147e-014
-5.963373e-015
-3.226630e-015
-1.603362e-015
-5.996081e-016
-2.047416e-016
-1.128460e-018
-3.296417e-016
-8.236042e-016
-2.063715e-015
-4.370680e-015
-8.253642e-015
-1.504834e-014
-2.586716e-014
-4.218830e-014
-6.669344e-014
-1.011264e-013
-1.480628e-013
-2.075630e-013
-2.770488e-013
-3.483121e-013
-4.031630e-013
-4.082824e-013
-3.080041e-013
-1.598942e-014
5.937667e-013
1.698400e-012
3.532505e-012
6.395089e-012
1.065036e-011
1.672140e-011
2.507713e-011
3.620904e-011
5.060229e-011
6.869843e-011
9.085824e-011
1.173255e-010
1.481968e-010
1.834026e-010
2.227003e-010
2.656815e-010
3.117907e-010
3.603556e-010
4.106218e-010
4.617883e-010
5.130433e-010
5.635939e-010
6.126871e-010
6.596267e-010
7.037809e-010
7.445842e-010
7.815367e-010
8.141992e-010
8.421888e-010
8.651733e-010
8.828687e-010
8.950370e-010
9.014856e-010
9.020707e-010
8.966999e-010
8.853376e-010
8.680115e-010
8.448203e-010
8.159427e-010
7.816468e-010
7.423003e-010
6.983813e-010
6.504846e-010
5.993274e-010
5.457456e-010
4.906811e-010
4.351584e-010
3.802466e-010
3.270117e-010
2.764603e-010
2.294807e-010
1.867911e-010
1.488970e-010
1.160697e-010
8.834342e-011
6.553531e-011
4.728135e-011
3.308646e-011
2.237692e-011
1.455241e-011
9.030416e-012
5.279294e-012
2.839574e-012
1.332548e-012
4.607766e-013
1.630379e-015
-2.048353e-013
-2.670360e-013
-2.558119e-013
-2.133053e-013
-1.631395e-013
-1.171572e-013
-8.021236e-014
-5.243249e-014
-3.273189e-014
-1.970824e-014
-1.135142e-014
-6.280611e-015
-3.170902e-015
-1.618975e-015
-6.377720e-016
-2.995009e-016
-1.113303e-015
-2.252583e-015
-4.633057e-015
-8.866216e-015
-1.625397e-014
-2.799198e-014
-4.640346e-014
-7.396150e-014
-1.129464e-013
-1.661345e-013
-2.331651e-013
-3.102872e-013
-3.848376e-013
-4.311456e-013
-3.996810e-013
-2.085593e-013
2.719621e-013
1.235277e-012
2.956246e-012
5.806714e-012
1.026953e-011
1.694354e-011
2.653703e-011
3.984873e-011
5.772982e-011
8.103212e-011
1.105405e-010
1.469018e-010
1.905515e-010
2.416531e-010
3.000585e-010
3.652923e-010
4.365687e-010
5.128322e-010
5.928247e-010
6.751620e-010
7.584143e-010
8.411807e-010
9.221497e-010
1.000141e-009
1.074128e-009
1.143245e-009
1.206781e-009
1.264162e-009
1.314931e-009
1.358730e-009
1.395282e-009
1.424378e-009
1.445864e-009
1.459639e-009
1.465644e-009
1.463861e-009
1.454303e-009
1.437009e-009
1.412039e-009
1.379469e-009
1.339391e-009
1.291927e-009
1.237246e-009
1.175604e-009
1.107382e-009
1.033139e-009
9.536542e-010
8.699680e-010
7.833838e-010
6.954466e-010
6.078815e-010
5.224980e-010
4.410697e-010
3.652047e-010
2.962261e-010
2.350783e-010
1.822770e-010
1.379010e-010
1.016334e-010
7.283441e-011
5.063742e-011
3.405142e-011
2.205497e-011
1.367348e-011
8.033726e-012
4.394985e-012
2.159275e-012
8.661545e-013
1.774708e-013
-1.447330e-013
-2.594052e-013
-2.673435e-013
-2.285642e-013
-1.764225e-013
-1.265577e-013
-8.596427e-014
-5.570180e-014
-3.461233e-014
-2.077227e-014
-1.167582e-014
-6.294488e-015
-3.149218e-015
-1.635238e-015
-9.233508e-016
-2.969891e-015
-5.087988e-015
-9.298379e-015
-1.696781e-014
-2.961308e-014
-4.958560e-014
-7.987690e-014
-1.228388e-013
-1.820129e-013
-2.563035e-013
-3.403506e-013
-4.171874e-013
-4.507590e-013
-3.731419e-013
-6.886466e-014
6.483713e-013
2.060393e-012
4.575365e-012
8.757237e-012
1.534983e-011
2.529339e-011
3.971910e-011
5.992079e-011
8.729580e-011
1.232509e-010
1.690838e-010
2.258407e-010
2.941759e-010
3.742264e-010
4.655263e-010
5.669755e-010
6.768764e-010
7.930319e-010
9.128997e-010
1.033775e-009
1.152986e-009
1.268064e-009
1.376887e-009
1.477762e-009
1.569461e-009
1.651208e-009
1.722632e-009
1.783691e-009
1.834599e-009
1.875749e-009
1.907650e-009
1.930890e-009
1.946096e-009
1.953920e-009
1.955018e-009
1.950033e-009
1.939559e-009
1.924107e-009
1.904043e-009
1.879534e-009
1.850491e-009
1.816525e-009
1.776941e-009
1.730776e-009
1.676883e-009
1.614076e-009
1.541325e-009
1.457961e-009
1.363885e-009
1.259730e-009
1.146937e-009
1.027738e-009
9.050177e-010
7.820853e-010
6.623752e-010
5.491286e-010
4.451023e-010
3.523496e-010
2.721001e-010
2.047448e-010
1.499203e-010
1.066604e-010
7.358804e-011
4.910985e-011
3.158942e-011
1.948264e-011
1.142550e-011
6.281183e-012
3.148603e-012
1.347264e-012
3.873245e-013
-6.950239e-014
-2.439824e-013
-2.740137e-013
-2.404113e-013
-1.864149e-013
-1.335532e-013
-9.012782e-014
-5.791444e-014
-3.525700e-014
-2.068597e-014
-1.173003e-014
-6.351734e-015
-3.398368e-015
-1.986303e-015
-6.629290e-015
-1.004084e-014
-1.753897e-014
-3.054679e-014
-5.185223e-014
-8.401942e-014
-1.307932e-013
-1.948934e-013
-2.758391e-013
-3.663062e-013
-4.443518e-013
-4.634416e-013
-3.338580e-013
9.980966e-014
1.092246e-012
3.036635e-012
6.513171e-012
1.233815e-011
2.160998e-011
3.573961e-011
5.645257e-011
8.574805e-011
1.258029e-010
1.788099e-010
2.467576e-010
3.311605e-010
4.327744e-010
5.513351e-010
6.853668e-010
8.321075e-010
9.875777e-010
1.146804e-009
1.304178e-009
1.453904e-009
1.590483e-009
1.709157e-009
1.806266e-009
1.879470e-009
1.927825e-009
1.951716e-009
1.952685e-009
1.933190e-009
1.896334e-009
1.845606e-009
1.784679e-009
1.717244e-009
1.646918e-009
1.577190e-009
1.511392e-009
1.452671e-009
1.403938e-009
1.367774e-009
1.346283e-009
1.340899e-009
1.352160e-009
1.379476e-009
1.420940e-009
1.473228e-009
1.531624e-009
1.590231e-009
1.642351e-009
1.681052e-009
1.699840e-009
1.693379e-009
1.658140e-009
1.592872e-009
1.498822e-009
1.379628e-009
1.240925e-009
1.089688e-009
9.334474e-010
7.794829e-010
6.341232e-010
5.022496e-010
3.870451e-010
2.899888e-010
2.110552e-010
1.490451e-010
1.019744e-010
6.745401e-011
4.300815e-011
2.631162e-011
1.533461e-011
8.410717e-012
4.242599e-012
1.869316e-012
6.118168e-013
1.213825e-014
-2.243438e-013
-2.768814e-013
-2.482104e-013
-1.931307e-013
-1.375964e-013
-9.189095e-014
-5.845589e-014
-3.534525e-014
-2.058666e-014
-1.147069e-014
-6.515015e-015
-4.304544e-015
-1.297231e-014
-1.867890e-014
-3.147877e-014
-5.308193e-014
-8.645021e-014
-1.361591e-013
-2.043320e-013
-2.911758e-013
-3.875284e-013
-4.671537e-013
-4.723954e-013
-2.903613e-013
2.782934e-013
1.566565e-012
4.099441e-012
8.666352e-012
1.640032e-011
2.885371e-011
4.805562e-011
7.652470e-011
1.172135e-010
1.733506e-010
2.481648e-010
3.444809e-010
4.642037e-010
6.077425e-010
7.734495e-010
9.571765e-010
1.152054e-009
1.348581e-009
1.535077e-009
1.698471e-009
1.825368e-009
1.903241e-009
1.921601e-009
1.872972e-009
1.753553e-009
1.563486e-009
1.306746e-009
9.906781e-010
6.253117e-010
2.225580e-010
-2.045888e-010
-6.427481e-010
-1.078685e-009
-1.499661e-009
-1.893603e-009
-2.249167e-009
-2.555728e-009
-2.803396e-009
-2.983116e-009
-3.086911e-009
-3.108282e-009
-3.042781e-009
-2.888682e-009
-2.647705e-009
-2.325646e-009
-1.932804e-009
-1.484046e-009
-9.984165e-010
-4.982082e-010
-7.525607e-012
4.495676e-010
8.511081e-010
1.179238e-009
1.421858e-009
1.573671e-009
1.636433e-009
1.618366e-009
1.532830e-009
1.396484e-009
1.227226e-009
1.042257e-009
8.565107e-010
6.816354e-010
5.255770e-010
3.926940e-010
2.842751e-010
1.992809e-010
1.351482e-010
8.852704e-011
5.586785e-011
3.383292e-011
1.953547e-011
1.063847e-011
5.354292e-012
2.383466e-012
8.260946e-013
8.768567e-014
-2.057510e-013
-2.773140e-013
-2.523748e-013
-1.961871e-013
-1.388165e-013
-9.175521e-014
-5.738990e-014
-3.430702e-014
-1.998081e-014
-1.177426e-014
-8.243450e-015
-2.366232e-014
-3.333492e-014
-5.353123e-014
-8.736440e-014
-1.383000e-013
-2.099077e-013
-3.014826e-013
-4.034271e-013
-4.859124e-013
-4.808320e-013
-2.530138e-013
4.420812e-013
2.021126e-012
5.155926e-012
1.087605e-011
2.068871e-011
3.669919e-011
6.170609e-011
9.923581e-011
1.534639e-010
2.289654e-010
3.302463e-010
4.610143e-010
6.232073e-010
8.158371e-010
1.033787e-009
1.266762e-009
1.498633e-009
1.707396e-009
1.865930e-009
1.943593e-009
1.908556e-009
1.730631e-009
1.384220e-009
8.509706e-010
1.217747e-010
-8.021554e-010
-1.909236e-009
-3.178417e-009
-4.580840e-009
-6.081950e-009
-7.643743e-009
-9.226850e-009
-1.079224e-008
-1.230244e-008
-1.372219e-008
-1.501869e-008
-1.616153e-008
-1.712250e-008
-1.787544e-008
-1.839642e-008
-1.866426e-008
-1.866152e-008
-1.837599e-008
-1.780243e-008
-1.694458e-008
-1.581696e-008
-1.444619e-008
-1.287156e-008
-1.114436e-008
-9.325942e-009
-7.484301e-009
-5.689575e-009
-4.008729e-009
-2.500150e-009
-1.208847e-009
-1.629950e-010
6.276750e-010
1.171365e-009
1.491709e-009
1.623720e-009
1.608896e-009
1.490241e-009
1.307958e-009
1.096280e-009
8.816920e-010
6.824994e-010
5.094599e-010
3.671275e-010
2.555064e-010
1.716925e-010
1.112805e-010
6.942600e-011
4.154732e-011
2.371030e-011
1.277392e-011
6.376186e-012
2.833593e-012
1.002926e-012
1.458197e-013
-1.922861e-013
-2.769534e-013
-2.534132e-013
-1.955556e-013
-1.369664e-013
-8.936151e-014
-5.548734e-014
-3.345896e-014
-2.042056e-014
-1.447609e-014
-4.144172e-014
-5.650216e-014
-8.790347e-014
-1.385672e-013
-2.112161e-013
-3.066074e-013
-4.140647e-013
-5.011393e-013
-4.920652e-013
-2.323561e-013
5.656686e-013
2.401273e-012
6.097535e-012
1.294287e-011
2.486241e-011
4.459647e-011
7.585398e-011
1.233785e-010
1.928425e-010
2.904622e-010
4.222211e-010
5.926042e-010
8.028079e-010
1.048488e-009
1.317250e-009
1.586228e-009
1.820251e-009
1.971130e-009
1.978546e-009
1.772848e-009
1.279731e-009
4.264292e-010
-8.513097e-010
-2.602403e-009
-4.854741e-009
-7.611436e-009
-1.084950e-008
-1.452104e-008
-1.855660e-008
-2.287009e-008
-2.736449e-008
-3.193746e-008
-3.648639e-008
-4.091215e-008
-4.512160e-008
-4.902867e-008
-5.255442e-008
-5.562641e-008
-5.817776e-008
-6.014653e-008
-6.147582e-008
-6.211476e-008
-6.202082e-008
-6.116319e-008
-5.952714e-008
-5.711883e-008
-5.397009e-008
-5.014214e-008
-4.572760e-008
-4.084991e-008
-3.565950e-008
-3.032663e-008
-2.503118e-008
-1.995012e-008
-1.524420e-008
-1.104550e-008
-7.447572e-009
-4.499670e-009
-2.205963e-009
-5.296848e-010
5.985317e-010
1.269639e-009
1.584302e-009
1.641943e-009
1.532101e-009
1.328839e-009
1.088329e-009
8.491459e-010
6.344973e-010
4.555034e-010
3.147390e-010
2.094656e-010
1.342256e-010
8.269271e-011
4.882927e-011
2.748536e-011
1.460654e-011
7.197491e-012
3.164952e-012
1.117960e-012
1.768602e-013
-1.873326e-013
-2.762860e-013
-2.511297e-013
-1.915840e-013
-1.322517e-013
-8.558696e-014
-5.350911e-014
-3.390109e-014
-2.484367e-014
-6.925845e-014
-9.197834e-014
-1.381799e-013
-2.098838e-013
-3.068336e-013
-4.186821e-013
-5.127162e-013
-5.079522e-013
-2.352988e-013
6.282340e-013
2.655896e-012
6.815534e-012
1.465413e-011
2.853312e-011
5.188144e-011
8.942683e-011
1.473112e-010
2.329571e-010
3.544972e-010
5.195444e-010
7.330793e-010
9.942990e-010
1.292417e-009
1.601648e-009
1.875939e-009
2.044321e-009
2.008018e-009
1.640504e-009
7.914752e-010
-7.048180e-010
-3.017202e-009
-6.302350e-009
-1.068860e-008
-1.626106e-008
-2.305028e-008
-3.102606e-008
-4.009726e-008
-5.011726e-008
-6.089415e-008
-7.220371e-008
-8.380346e-008
-9.544583e-008
-1.068890e-007
-1.179049e-007
-1.282833e-007
-1.378334e-007
-1.463826e-007
-1.537739e-007
-1.598630e-007
-1.645161e-007
-1.676093e-007
-1.690303e-007
-1.686836e-007
-1.664969e-007
-1.624316e-007
-1.564937e-007
-1.487446e-007
-1.393113e-007
-1.283921e-007
-1.162577e-007
-1.032448e-007
-8.974255e-008
-7.617136e-008
-6.295581e-008
-5.049429e-008
-3.912906e-008
-2.912085e-008
-2.063168e-008
-1.371846e-008
-8.338343e-009
-4.364371e-009
-1.608799e-009
1.501779e-010
1.142386e-009
1.583865e-009
1.661512e-009
1.524863e-009
1.284360e-009
1.014544e-009
7.602541e-010
5.440042e-010
3.731230e-010
2.457890e-010
1.555799e-010
9.454095e-011
5.500489e-011
3.048189e-011
1.593735e-011
7.721493e-012
3.335395e-012
1.154708e-012
1.754772e-013
-1.920133e-013
-2.756218e-013
-2.455118e-013
-1.844640e-013
-1.260429e-013
-8.202493e-014
-5.403039e-014
-4.087273e-014
-1.111019e-013
-1.442217e-013
-2.085899e-013
-3.031365e-013
-4.180389e-013
-5.203956e-013
-5.282949e-013
-2.646286e-013
6.165799e-013
2.747878e-012
7.219787e-012
1.581678e-011
3.132187e-011
5.786246e-011
1.012404e-010
1.691235e-010
2.708922e-010
4.168398e-010
6.163261e-010
8.744331e-010
1.186702e-009
1.531717e-009
1.861674e-009
2.091638e-009
2.088921e-009
1.664655e-009
5.701322e-010
-1.499587e-009
-4.892975e-009
-9.979772e-009
-1.712054e-008
-2.663132e-008
-3.874805e-008
-5.359621e-008
-7.117022e-008
-9.132584e-008
-1.137863e-007
-1.381607e-007
-1.639716e-007
-1.906866e-007
-2.177509e-007
-2.446149e-007
-2.707567e-007
-2.956959e-007
-3.190001e-007
-3.402841e-007
-3.592055e-007
-3.754557e-007
-3.887526e-007
-3.988335e-007
-4.054527e-007
-4.083840e-007
-4.074293e-007
-4.024326e-007
-3.933002e-007
-3.800237e-007
-3.627043e-007
-3.415757e-007
-3.170204e-007
-2.895764e-007
-2.599310e-007
-2.288985e-007
-1.973815e-007
-1.663174e-007
-1.366149e-007
-1.090870e-007
-8.439017e-008
-6.297736e-008
-4.507353e-008
-3.067640e-008
-1.958228e-008
-1.143151e-008
-5.765388e-009
-2.084770e-009
9.815752e-011
1.220875e-009
1.646961e-009
1.657304e-009
1.453212e-009
1.167352e-009
8.784721e-010
6.265792e-010
4.263582e-010
2.777533e-010
1.734854e-010
1.038569e-010
5.945108e-011
3.237659e-011
1.661357e-011
7.884059e-012
3.322518e-012
1.108009e-012
1.419133e-013
-2.049960e-013
-2.741397e-013
-2.377367e-013
-1.756042e-013
-1.205900e-013
-8.311542e-014
-6.444611e-014
-1.723325e-013
-2.170790e-013
-3.012753e-013
-4.141213e-013
-5.240210e-013
-5.510907e-013
-3.188006e-013
5.295098e-013
2.661470e-012
7.256312e-012
1.629151e-011
3.291978e-011
6.192220e-011
1.101602e-010
1.868749e-010
3.035410e-010
4.728199e-010
7.059521e-010
1.007766e-009
1.368400e-009
1.750995e-009
2.075072e-009
2.196229e-009
1.884062e-009
8.017554e-010
-1.507860e-009
-5.624246e-009
-1.223397e-008
-2.209525e-008
-3.598234e-008
-5.461440e-008
-7.857723e-008
-1.082496e-007
-1.437461e-007
-1.848856e-007
-2.311912e-007
-2.819197e-007
-3.361164e-007
-3.926834e-007
-4.504535e-007
-5.082578e-007
-5.649807e-007
-6.195984e-007
-6.711991e-007
-7.189868e-007
-7.622727e-007
-8.004576e-007
-8.330107e-007
-8.594486e-007
-8.793196e-007
-8.921946e-007
-8.976689e-007
-8.953754e-007
-8.850089e-007
-8.663613e-007
-8.393650e-007
-8.041411e-007
-7.610465e-007
-7.107144e-007
-6.540810e-007
-5.923898e-007
-5.271680e-007
-4.601707e-007
-3.932899e-007
-3.284358e-007
-2.673995e-007
-2.117149e-007
-1.625396e-007
-1.205748e-007
-8.603770e-008
-5.869043e-008
-3.791937e-008
-2.284788e-008
-1.246184e-008
-5.727213e-009
-1.683868e-009
4.923008e-010
1.459876e-009
1.709887e-009
1.583124e-009
1.297988e-009
9.813760e-010
6.972808e-010
4.702249e-010
3.025899e-010
1.862646e-010
1.097057e-010
6.169361e-011
3.295616e-011
1.655499e-011
7.665069e-012
3.127993e-012
9.850115e-013
8.228331e-014
-2.235194e-013
-2.717200e-013
-2.287576e-013
-1.691091e-013
-1.225507e-013
-9.829750e-014
-2.571440e-013
-3.139494e-013
-4.139096e-013
-5.258359e-013
-5.749004e-013
-3.910670e-013
3.769293e-013
2.404483e-012
6.916591e-012
1.601691e-011
3.314093e-011
6.361875e-011
1.152738e-010
1.988658e-010
3.280044e-010
5.178819e-010
7.818303e-010
1.124334e-009
1.528820e-009
1.938520e-009
2.229138e-009
2.173257e-009
1.398466e-009
-6.559519e-010
-4.775768e-009
-1.199132e-008
-2.356805e-008
-4.095810e-008
-6.570795e-008
-9.932526e-008
-1.431185e-007
-1.980314e-007
-2.645007e-007
-3.423622e-007
-4.308245e-007
-5.285135e-007
-6.335793e-007
-7.438444e-007
-8.569683e-007
-9.706035e-007
-1.082525e-006
-1.190720e-006
-1.293439e-006
-1.389207e-006
-1.476805e-006
-1.555232e-006
-1.623654e-006
-1.681357e-006
-1.727697e-006
-1.762067e-006
-1.783873e-006
-1.792531e-006
-1.787476e-006
-1.768197e-006
-1.734287e-006
-1.685505e-006
-1.621857e-006
-1.543683e-006
-1.451743e-006
-1.347300e-006
-1.232171e-006
-1.108750e-006
-9.799729e-007
-8.492073e-007
-7.200776e-007
-5.962154e-007
-4.809707e-007
-3.771240e-007
-2.866478e-007
-2.105636e-007
-1.489227e-007
-1.009098e-007
-6.504508e-008
-3.943847e-008
-2.204702e-008
-1.089403e-008
-4.225187e-009
-5.951712e-010
1.107925e-009
1.684073e-009
1.670248e-009
1.400179e-009
1.062625e-009
7.509559e-010
5.011031e-010
3.180429e-010
1.926654e-010
1.114779e-010
6.148713e-011
3.215522e-011
1.576954e-011
7.092584e-012
2.778127e-012
8.028460e-013
5.412293e-015
-2.444130e-013
-2.696359e-013
-2.235029e-013
-1.732978e-013
-1.440294e-013
-3.700411e-013
-4.348482e-013
-5.348567e-013
-6.000444e-013
-4.733191e-013
1.773891e-013
2.008362e-012
6.239912e-012
1.502261e-011
3.195558e-011
6.275977e-011
1.160356e-010
2.038914e-010
3.419888e-010
5.481479e-010
8.381217e-010
1.216448e-009
1.659597e-009
2.088160e-009
2.324945e-009
2.037100e-009
6.632038e-010
-2.669147e-009
-9.223581e-009
-2.071483e-008
-3.932500e-008
-6.765161e-008
-1.085682e-007
-1.649911e-007
-2.395671e-007
-3.343211e-007
-4.503242e-007
-5.874494e-007
-7.442707e-007
-9.181322e-007
-1.105373e-006
-1.301665e-006
-1.502393e-006
-1.703021e-006
-1.899386e-006
-2.087895e-006
-2.265622e-006
-2.430308e-006
-2.580297e-006
-2.714431e-006
-2.831925e-006
-2.932248e-006
-3.015018e-006
-3.079918e-006
-3.126625e-006
-3.154770e-006
-3.163906e-006
-3.153505e-006
-3.122962e-006
-3.071624e-006
-2.998852e-006
-2.904095e-006
-2.787014e-006
-2.647642e-006
-2.486575e-006
-2.305193e-006
-2.105869e-006
-1.892133e-006
-1.668707e-006
-1.441382e-006
-1.216685e-006
-1.001354e-006
-8.016881e-007
-6.228892e-007
-4.685311e-007
-3.402668e-007
-2.378345e-007
-1.593411e-007
-1.017345e-007
-6.134904e-008
-3.440828e-008
-1.741269e-008
-7.379770e-009
-1.945469e-009
6.426471e-010
1.601172e-009
1.719202e-009
1.471323e-009
1.117781e-009
7.837434e-010
5.163979e-010
3.226743e-010
1.920484e-010
1.089889e-010
5.885715e-011
3.006709e-011
1.435119e-011
6.236760e-012
2.317208e-012
5.854203e-013
-7.887640e-014
-2.672015e-013
-2.732366e-013
-2.331128e-013
-2.030551e-013
-5.113605e-013
-5.725982e-013
-6.360644e-013
-5.619715e-013
-4.736428e-014
1.519005e-012
5.305038e-012
1.342228e-011
2.949559e-011
5.943643e-011
1.123587e-010
2.014294e-010
3.441316e-010
5.609061e-010
8.703497e-010
1.278054e-009
1.754875e-009
2.199188e-009
2.376998e-009
1.834558e-009
-2.187250e-010
-5.052827e-009
-1.457070e-008
-3.144549e-008
-5.920035e-008
-1.021797e-007
-1.653595e-007
-2.539604e-007
-3.728610e-007
-5.258702e-007
-7.149781e-007
-9.397524e-007
-1.197044e-006
-1.481103e-006
-1.784104e-006
-2.096979e-006
-2.410369e-006
-2.715529e-006
-3.005021e-006
-3.273133e-006
-3.516008e-006
-3.731530e-006
-3.919047e-006
-4.079011e-006
-4.212619e-006
-4.321489e-006
-4.407421e-006
-4.472223e-006
-4.517602e-006
-4.545086e-006
-4.555959e-006
-4.551192e-006
-4.531349e-006
-4.496482e-006
-4.446010e-006
-4.378607e-006
-4.292148e-006
-4.183741e-006
-4.049905e-006
-3.886953e-006
-3.691586e-006
-3.461666e-006
-3.197084e-006
-2.900532e-006
-2.577977e-006
-2.238624e-006
-1.894255e-006
-1.557977e-006
-1.242590e-006
-9.589157e-007
-7.144837e-007
-5.128674e-007
-3.537646e-007
-2.337148e-007
-1.471814e-007
-8.769312e-008
-4.880467e-008
-2.475604e-008
-1.081710e-008
-3.374690e-009
1.536215e-010
1.497606e-009
1.740486e-009
1.511576e-009
1.144273e-009
7.933489e-010
5.148266e-010
3.160576e-010
1.844837e-010
1.025078e-010
5.409491e-011
2.692780e-011
1.246264e-011
5.197010e-012
1.798345e-012
3.566446e-013
-1.643898e-013
-2.965892e-013
-2.956349e-013
-2.743841e-013
-6.758622e-013
-7.079225e-013
-6.639093e-013
-2.812330e-013
9.871934e-013
4.214508e-012
1.139212e-011
2.603078e-011
5.400744e-011
1.046296e-010
1.917233e-010
3.342037e-010
5.549588e-010
8.758442e-010
1.305025e-009
1.810840e-009
2.273972e-009
2.407648e-009
1.634941e-009
-1.085243e-009
-7.484269e-009
-2.024811e-008
-4.328387e-008
-8.192387e-008
-1.429729e-007
-2.344820e-007
-3.651334e-007
-5.431716e-007