# vtk DataFile Version 3.0
vtk output
ASCII
DATASET STRUCTURED_POINTS
DIMENSIONS 100 100 1
SPACING 1 1 1
ORIGIN 0 0 0
POINT_DATA 10000
SCALARS SFBox_profile double
LOOKUP_TABLE default 
9.439871e-003
9.439887e-003
9.439911e-003
9.439932e-003
9.439940e-003
9.439935e-003
9.439923e-003
9.439912e-003
9.439909e-003
9.439912e-003
9.439918e-003
9.439923e-003
9.439924e-003
9.439923e-003
9.439922e-003
9.439923e-003
9.439923e-003
9.439922e-003
9.439918e-003
9.439915e-003
9.439913e-003
9.439915e-003
9.439919e-003
9.439923e-003
9.439924e-003
9.439923e-003
9.439922e-003
9.439922e-003
9.439924e-003
9.439924e-003
9.439922e-003
9.439919e-003
9.439917e-003
9.439918e-003
9.439919e-003
9.439919e-003
9.439918e-003
9.439916e-003
9.439917e-003
9.439918e-003
9.439920e-003
9.439920e-003
9.439920e-003
9.439919e-003
9.439920e-003
9.439922e-003
9.439923e-003
9.439922e-003
9.439921e-003
9.439921e-003
9.439922e-003
9.439923e-003
9.439922e-003
9.439921e-003
9.439920e-003
9.439920e-003
9.439921e-003
9.439920e-003
9.439919e-003
9.439917e-003
9.439917e-003
9.439918e-003
9.439919e-003
9.439919e-003
9.439918e-003
9.439918e-003
9.439919e-003
9.439921e-003
9.439922e-003
9.439922e-003
9.439921e-003
9.439921e-003
9.439922e-003
9.439923e-003
9.439922e-003
9.439919e-003
9.439917e-003
9.439916e-003
9.439918e-003
9.439919e-003
9.439920e-003
9.439920e-003
9.439920e-003
9.439921e-003
9.439923e-003
9.439923e-003
9.439921e-003
9.439918e-003
9.439916e-003
9.439916e-003
9.439919e-003
9.439923e-003
9.439925e-003
9.439924e-003
9.439920e-003
9.439916e-003
9.439915e-003
9.439917e-003
9.439921e-003
9.439924e-003
9.439871e-003
9.439887e-003
9.439911e-003
9.439932e-003
9.439940e-003
9.439935e-003
9.439923e-003
9.439912e-003
9.439909e-003
9.439912e-003
9.439918e-003
9.439923e-003
9.439924e-003
9.439923e-003
9.439922e-003
9.439923e-003
9.439923e-003
9.439922e-003
9.439918e-003
9.439915e-003
9.439913e-003
9.439915e-003
9.439919e-003
9.439923e-003
9.439924e-003
9.439923e-003
9.439922e-003
9.439922e-003
9.439924e-003
9.439924e-003
9.439922e-003
9.439919e-003
9.439917e-003
9.439918e-003
9.439919e-003
9.439919e-003
9.439918e-003
9.439916e-003
9.439917e-003
9.439918e-003
9.439920e-003
9.439920e-003
9.439920e-003
9.439919e-003
9.439920e-003
9.439922e-003
9.439923e-003
9.439922e-003
9.439921e-003
9.439921e-003
9.439922e-003
9.439923e-003
9.439922e-003
9.439921e-003
9.439920e-003
9.439920e-003
9.439921e-003
9.439920e-003
9.439919e-003
9.439917e-003
9.439917e-003
9.439918e-003
9.439919e-003
9.439919e-003
9.439918e-003
9.439918e-003
9.439919e-003
9.439921e-003
9.439922e-003
9.439922e-003
9.439921e-003
9.439921e-003
9.439922e-003
9.439923e-003
9.439922e-003
9.439919e-003
9.439917e-003
9.439916e-003
9.439918e-003
9.439919e-003
9.439920e-003
9.439920e-003
9.439920e-003
9.439921e-003
9.439923e-003
9.439923e-003
9.439921e-003
9.439918e-003
9.439916e-003
9.439916e-003
9.439919e-003
9.439923e-003
9.439925e-003
9.439924e-003
9.439920e-003
9.439916e-003
9.439915e-003
9.439917e-003
9.439921e-003
9.439924e-003
9.439910e-003
9.439913e-003
9.439919e-003
9.439923e-003
9.439924e-003
9.439922e-003
9.439919e-003
9.439917e-003
9.439918e-003
9.439920e-003
9.439922e-003
9.439922e-003
9.439921e-003
9.439919e-003
9.439918e-003
9.439918e-003
9.439920e-003
9.439921e-003
9.439921e-003
9.439920e-003
9.439920e-003
9.439920e-003
9.439921e-003
9.439921e-003
9.439921e-003
9.439919e-003
9.439918e-003
9.439918e-003
9.439920e-003
9.439921e-003
9.439921e-003
9.439920e-003
9.439921e-003
9.439922e-003
9.439923e-003
9.439924e-003
9.439924e-003
9.439923e-003
9.439923e-003
9.439924e-003
9.439925e-003
9.439925e-003
9.439924e-003
9.439924e-003
9.439924e-003
9.439925e-003
9.439926e-003
9.439925e-003
9.439924e-003
9.439924e-003
9.439925e-003
9.439925e-003
9.439925e-003
9.439924e-003
9.439924e-003
9.439924e-003
9.439925e-003
9.439925e-003
9.439924e-003
9.439923e-003
9.439923e-003
9.439924e-003
9.439924e-003
9.439923e-003
9.439922e-003
9.439921e-003
9.439921e-003
9.439921e-003
9.439921e-003
9.439920e-003
9.439919e-003
9.439919e-003
9.439920e-003
9.439921e-003
9.439921e-003
9.439920e-003
9.439920e-003
9.439920e-003
9.439921e-003
9.439921e-003
9.439921e-003
9.439920e-003
9.439919e-003
9.439919e-003
9.439920e-003
9.439921e-003
9.439921e-003
9.439920e-003
9.439919e-003
9.439919e-003
9.439920e-003
9.439920e-003
9.439921e-003
9.439921e-003
9.439920e-003
9.439919e-003
9.439919e-003
9.439919e-003
9.439920e-003
9.439921e-003
9.439956e-003
9.439944e-003
9.439927e-003
9.439912e-003
9.439906e-003
9.439908e-003
9.439916e-003
9.439924e-003
9.439928e-003
9.439928e-003
9.439924e-003
9.439920e-003
9.439917e-003
9.439916e-003
9.439915e-003
9.439915e-003
9.439917e-003
9.439920e-003
9.439923e-003
9.439926e-003
9.439926e-003
9.439924e-003
9.439922e-003
9.439919e-003
9.439918e-003
9.439917e-003
9.439916e-003
9.439916e-003
9.439917e-003
9.439919e-003
9.439921e-003
9.439922e-003
9.439924e-003
9.439926e-003
9.439927e-003
9.439928e-003
9.439929e-003
9.439929e-003
9.439929e-003
9.439930e-003
9.439930e-003
9.439930e-003
9.439929e-003
9.439929e-003
9.439929e-003
9.439929e-003
9.439929e-003
9.439928e-003
9.439928e-003
9.439928e-003
9.439928e-003
9.439929e-003
9.439929e-003
9.439928e-003
9.439928e-003
9.439929e-003
9.439929e-003
9.439929e-003
9.439929e-003
9.439928e-003
9.439928e-003
9.439928e-003
9.439927e-003
9.439926e-003
9.439925e-003
9.439924e-003
9.439923e-003
9.439921e-003
9.439920e-003
9.439919e-003
9.439918e-003
9.439918e-003
9.439918e-003
9.439918e-003
9.439919e-003
9.439921e-003
9.439922e-003
9.439923e-003
9.439923e-003
9.439922e-003
9.439921e-003
9.439919e-003
9.439918e-003
9.439917e-003
9.439917e-003
9.439918e-003
9.439920e-003
9.439922e-003
9.439923e-003
9.439923e-003
9.439921e-003
9.439918e-003
9.439916e-003
9.439917e-003
9.439920e-003
9.439923e-003
9.439924e-003
9.439922e-003
9.439919e-003
9.439917e-003
9.439973e-003
9.439955e-003
9.439929e-003
9.439908e-003
9.439899e-003
9.439905e-003
9.439918e-003
9.439929e-003
9.439932e-003
9.439927e-003
9.439921e-003
9.439917e-003
9.439916e-003
9.439918e-003
9.439919e-003
9.439918e-003
9.439917e-003
9.439919e-003
9.439922e-003
9.439925e-003
9.439925e-003
9.439923e-003
9.439920e-003
9.439918e-003
9.439918e-003
9.439920e-003
9.439921e-003
9.439921e-003
9.439920e-003
9.439921e-003
9.439923e-003
9.439925e-003
9.439926e-003
9.439926e-003
9.439927e-003
9.439927e-003
9.439928e-003
9.439930e-003
9.439930e-003
9.439930e-003
9.439930e-003
9.439931e-003
9.439932e-003
9.439932e-003
9.439932e-003
9.439932e-003
9.439932e-003
9.439933e-003
9.439933e-003
9.439933e-003
9.439933e-003
9.439932e-003
9.439932e-003
9.439932e-003
9.439932e-003
9.439931e-003
9.439931e-003
9.439930e-003
9.439930e-003
9.439930e-003
9.439929e-003
9.439928e-003
9.439927e-003
9.439926e-003
9.439926e-003
9.439925e-003
9.439924e-003
9.439923e-003
9.439921e-003
9.439921e-003
9.439921e-003
9.439920e-003
9.439920e-003
9.439919e-003
9.439919e-003
9.439920e-003
9.439922e-003
9.439923e-003
9.439922e-003
9.439921e-003
9.439920e-003
9.439920e-003
9.439920e-003
9.439919e-003
9.439918e-003
9.439917e-003
9.439919e-003
9.439922e-003
9.439924e-003
9.439924e-003
9.439921e-003
9.439917e-003
9.439915e-003
9.439916e-003
9.439920e-003
9.439924e-003
9.439925e-003
9.439923e-003
9.439919e-003
9.439915e-003
9.439948e-003
9.439938e-003
9.439923e-003
9.439912e-003
9.439909e-003
9.439914e-003
9.439923e-003
9.439928e-003
9.439926e-003
9.439919e-003
9.439914e-003
9.439914e-003
9.439918e-003
9.439924e-003
9.439926e-003
9.439924e-003
9.439920e-003
9.439917e-003
9.439918e-003
9.439919e-003
9.439920e-003
9.439919e-003
9.439918e-003
9.439919e-003
9.439921e-003
9.439925e-003
9.439927e-003
9.439927e-003
9.439926e-003
9.439925e-003
9.439926e-003
9.439928e-003
9.439928e-003
9.439927e-003
9.439927e-003
9.439927e-003
9.439929e-003
9.439931e-003
9.439932e-003
9.439932e-003
9.439933e-003
9.439934e-003
9.439936e-003
9.439938e-003
9.439938e-003
9.439938e-003
9.439938e-003
9.439939e-003
9.439940e-003
9.439940e-003
9.439939e-003
9.439938e-003
9.439938e-003
9.439938e-003
9.439938e-003
9.439936e-003
9.439934e-003
9.439933e-003
9.439932e-003
9.439932e-003
9.439931e-003
9.439929e-003
9.439927e-003
9.439927e-003
9.439927e-003
9.439927e-003
9.439927e-003
9.439925e-003
9.439925e-003
9.439925e-003
9.439926e-003
9.439925e-003
9.439923e-003
9.439921e-003
9.439920e-003
9.439920e-003
9.439920e-003
9.439920e-003
9.439919e-003
9.439918e-003
9.439919e-003
9.439921e-003
9.439923e-003
9.439923e-003
9.439920e-003
9.439918e-003
9.439917e-003
9.439919e-003
9.439921e-003
9.439923e-003
9.439921e-003
9.439919e-003
9.439917e-003
9.439918e-003
9.439920e-003
9.439922e-003
9.439923e-003
9.439922e-003
9.439919e-003
9.439917e-003
9.439903e-003
9.439908e-003
9.439914e-003
9.439921e-003
9.439926e-003
9.439928e-003
9.439926e-003
9.439922e-003
9.439916e-003
9.439912e-003
9.439911e-003
9.439915e-003
9.439921e-003
9.439927e-003
9.439929e-003
9.439927e-003
9.439922e-003
9.439917e-003
9.439916e-003
9.439916e-003
9.439917e-003
9.439918e-003
9.439919e-003
9.439921e-003
9.439925e-003
9.439928e-003
9.439931e-003
9.439931e-003
9.439930e-003
9.439930e-003
9.439931e-003
9.439933e-003
9.439934e-003
9.439934e-003
9.439933e-003
9.439934e-003
9.439937e-003
9.439939e-003
9.439941e-003
9.439941e-003
9.439941e-003
9.439942e-003
9.439944e-003
9.439946e-003
9.439946e-003
9.439945e-003
9.439945e-003
9.439946e-003
9.439947e-003
9.439947e-003
9.439945e-003
9.439944e-003
9.439944e-003
9.439945e-003
9.439945e-003
9.439944e-003
9.439942e-003
9.439940e-003
9.439940e-003
9.439940e-003
9.439939e-003
9.439936e-003
9.439934e-003
9.439933e-003
9.439933e-003
9.439933e-003
9.439931e-003
9.439929e-003
9.439928e-003
9.439928e-003
9.439929e-003
9.439928e-003
9.439926e-003
9.439923e-003
9.439921e-003
9.439921e-003
9.439920e-003
9.439919e-003
9.439917e-003
9.439917e-003
9.439918e-003
9.439921e-003
9.439924e-003
9.439924e-003
9.439923e-003
9.439920e-003
9.439918e-003
9.439917e-003
9.439918e-003
9.439919e-003
9.439921e-003
9.439922e-003
9.439922e-003
9.439921e-003
9.439920e-003
9.439919e-003
9.439918e-003
9.439919e-003
9.439920e-003
9.439921e-003
9.439874e-003
9.439889e-003
9.439911e-003
9.439930e-003
9.439937e-003
9.439933e-003
9.439923e-003
9.439915e-003
9.439911e-003
9.439913e-003
9.439917e-003
9.439921e-003
9.439923e-003
9.439923e-003
9.439923e-003
9.439923e-003
9.439921e-003
9.439919e-003
9.439918e-003
9.439919e-003
9.439921e-003
9.439923e-003
9.439924e-003
9.439925e-003
9.439926e-003
9.439928e-003
9.439930e-003
9.439931e-003
9.439932e-003
9.439934e-003
9.439937e-003
9.439940e-003
9.439943e-003
9.439945e-003
9.439946e-003
9.439947e-003
9.439948e-003
9.439950e-003
9.439949e-003
9.439948e-003
9.439945e-003
9.439944e-003
9.439944e-003
9.439942e-003
9.439940e-003
9.439937e-003
9.439935e-003
9.439934e-003
9.439935e-003
9.439934e-003
9.439933e-003
9.439933e-003
9.439934e-003
9.439937e-003
9.439939e-003
9.439940e-003
9.439940e-003
9.439942e-003
9.439944e-003
9.439946e-003
9.439946e-003
9.439945e-003
9.439944e-003
9.439943e-003
9.439942e-003
9.439941e-003
9.439938e-003
9.439935e-003
9.439932e-003
9.439931e-003
9.439930e-003
9.439929e-003
9.439927e-003
9.439925e-003
9.439924e-003
9.439923e-003
9.439922e-003
9.439921e-003
9.439920e-003
9.439919e-003
9.439919e-003
9.439920e-003
9.439921e-003
9.439922e-003
9.439922e-003
9.439921e-003
9.439920e-003
9.439918e-003
9.439917e-003
9.439917e-003
9.439919e-003
9.439922e-003
9.439924e-003
9.439924e-003
9.439920e-003
9.439916e-003
9.439915e-003
9.439917e-003
9.439921e-003
9.439925e-003
9.439880e-003
9.439895e-003
9.439916e-003
9.439932e-003
9.439935e-003
9.439927e-003
9.439916e-003
9.439910e-003
9.439913e-003
9.439921e-003
9.439927e-003
9.439927e-003
9.439922e-003
9.439916e-003
9.439914e-003
9.439916e-003
9.439920e-003
9.439922e-003
9.439924e-003
9.439925e-003
9.439927e-003
9.439929e-003
9.439930e-003
9.439930e-003
9.439929e-003
9.439929e-003
9.439931e-003
9.439935e-003
9.439938e-003
9.439941e-003
9.439944e-003
9.439947e-003
9.439949e-003
9.439950e-003
9.439948e-003
9.439945e-003
9.439942e-003
9.439937e-003
9.439930e-003
9.439921e-003
9.439912e-003
9.439903e-003
9.439894e-003
9.439886e-003
9.439877e-003
9.439869e-003
9.439862e-003
9.439859e-003
9.439857e-003
9.439856e-003
9.439856e-003
9.439858e-003
9.439862e-003
9.439869e-003
9.439877e-003
9.439885e-003
9.439893e-003
9.439902e-003
9.439912e-003
9.439921e-003
9.439929e-003
9.439934e-003
9.439939e-003
9.439942e-003
9.439945e-003
9.439945e-003
9.439944e-003
9.439941e-003
9.439938e-003
9.439936e-003
9.439933e-003
9.439930e-003
9.439928e-003
9.439927e-003
9.439927e-003
9.439927e-003
9.439926e-003
9.439925e-003
9.439924e-003
9.439923e-003
9.439921e-003
9.439919e-003
9.439918e-003
9.439918e-003
9.439919e-003
9.439922e-003
9.439923e-003
9.439922e-003
9.439919e-003
9.439917e-003
9.439918e-003
9.439921e-003
9.439923e-003
9.439924e-003
9.439921e-003
9.439917e-003
9.439915e-003
9.439917e-003
9.439921e-003
9.439924e-003
9.439914e-003
9.439919e-003
9.439925e-003
9.439927e-003
9.439923e-003
9.439915e-003
9.439910e-003
9.439912e-003
9.439919e-003
9.439929e-003
9.439933e-003
9.439929e-003
9.439920e-003
9.439911e-003
9.439910e-003
9.439914e-003
9.439921e-003
9.439926e-003
9.439928e-003
9.439928e-003
9.439929e-003
9.439932e-003
9.439934e-003
9.439935e-003
9.439935e-003
9.439936e-003
9.439940e-003
9.439944e-003
9.439947e-003
9.439948e-003
9.439946e-003
9.439941e-003
9.439935e-003
9.439925e-003
9.439912e-003
9.439894e-003
9.439873e-003
9.439850e-003
9.439824e-003
9.439796e-003
9.439767e-003
9.439737e-003
9.439709e-003
9.439682e-003
9.439657e-003
9.439635e-003
9.439617e-003
9.439604e-003
9.439597e-003
9.439594e-003
9.439597e-003
9.439605e-003
9.439619e-003
9.439638e-003
9.439661e-003
9.439687e-003
9.439715e-003
9.439745e-003
9.439776e-003
9.439806e-003
9.439834e-003
9.439859e-003
9.439882e-003
9.439901e-003
9.439916e-003
9.439928e-003
9.439935e-003
9.439940e-003
9.439943e-003
9.439942e-003
9.439940e-003
9.439937e-003
9.439934e-003
9.439933e-003
9.439931e-003
9.439930e-003
9.439928e-003
9.439926e-003
9.439926e-003
9.439925e-003
9.439924e-003
9.439920e-003
9.439916e-003
9.439915e-003
9.439917e-003
9.439921e-003
9.439924e-003
9.439924e-003
9.439922e-003
9.439919e-003
9.439918e-003
9.439918e-003
9.439920e-003
9.439921e-003
9.439921e-003
9.439920e-003
9.439919e-003
9.439919e-003
9.439920e-003
9.439921e-003
9.439948e-003
9.439940e-003
9.439928e-003
9.439918e-003
9.439911e-003
9.439910e-003
9.439913e-003
9.439918e-003
9.439924e-003
9.439928e-003
9.439928e-003
9.439924e-003
9.439918e-003
9.439914e-003
9.439915e-003
9.439920e-003
9.439926e-003
9.439929e-003
9.439929e-003
9.439928e-003
9.439929e-003
9.439933e-003
9.439938e-003
9.439943e-003
9.439945e-003
9.439947e-003
9.439949e-003
9.439950e-003
9.439946e-003
9.439934e-003
9.439916e-003
9.439890e-003
9.439858e-003
9.439819e-003
9.439770e-003
9.439713e-003
9.439647e-003
9.439576e-003
9.439500e-003
9.439421e-003
9.439339e-003
9.439258e-003
9.439180e-003
9.439106e-003
9.439040e-003
9.438983e-003
9.438936e-003
9.438902e-003
9.438882e-003
9.438876e-003
9.438885e-003
9.438909e-003
9.438947e-003
9.438997e-003
9.439059e-003
9.439130e-003
9.439208e-003
9.439291e-003
9.439376e-003
9.439461e-003
9.439542e-003
9.439619e-003
9.439690e-003
9.439751e-003
9.439804e-003
9.439847e-003
9.439881e-003
9.439908e-003
9.439926e-003
9.439938e-003
9.439942e-003
9.439943e-003
9.439942e-003
9.439941e-003
9.439938e-003
9.439933e-003
9.439929e-003
9.439926e-003
9.439926e-003
9.439926e-003
9.439926e-003
9.439923e-003
9.439919e-003
9.439917e-003
9.439917e-003
9.439920e-003
9.439922e-003
9.439923e-003
9.439923e-003
9.439921e-003
9.439919e-003
9.439918e-003
9.439917e-003
9.439918e-003
9.439920e-003
9.439923e-003
9.439923e-003
9.439922e-003
9.439919e-003
9.439917e-003
9.439958e-003
9.439943e-003
9.439923e-003
9.439909e-003
9.439907e-003
9.439915e-003
9.439923e-003
9.439927e-003
9.439924e-003
9.439919e-003
9.439916e-003
9.439916e-003
9.439919e-003
9.439922e-003
9.439926e-003
9.439929e-003
9.439931e-003
9.439931e-003
9.439930e-003
9.439929e-003
9.439932e-003
9.439938e-003
9.439945e-003
9.439950e-003
9.439952e-003
9.439949e-003
9.439940e-003
9.439923e-003
9.439894e-003
9.439850e-003
9.439789e-003
9.439711e-003
9.439614e-003
9.439499e-003
9.439363e-003
9.439207e-003
9.439033e-003
9.438845e-003
9.438647e-003
9.438443e-003
9.438236e-003
9.438032e-003
9.437835e-003
9.437652e-003
9.437489e-003
9.437349e-003
9.437236e-003
9.437153e-003
9.437104e-003
9.437090e-003
9.437114e-003
9.437173e-003
9.437267e-003
9.437391e-003
9.437544e-003
9.437722e-003
9.437919e-003
9.438129e-003
9.438344e-003
9.438561e-003
9.438772e-003
9.438975e-003
9.439162e-003
9.439330e-003
9.439475e-003
9.439599e-003
9.439701e-003
9.439782e-003
9.439844e-003
9.439887e-003
9.439915e-003
9.439932e-003
9.439942e-003
9.439945e-003
9.439944e-003
9.439939e-003
9.439933e-003
9.439929e-003
9.439927e-003
9.439927e-003
9.439927e-003
9.439926e-003
9.439924e-003
9.439922e-003
9.439921e-003
9.439919e-003
9.439919e-003
9.439919e-003
9.439921e-003
9.439922e-003
9.439922e-003
9.439920e-003
9.439917e-003
9.439917e-003
9.439919e-003
9.439923e-003
9.439925e-003
9.439923e-003
9.439919e-003
9.439915e-003
9.439944e-003
9.439931e-003
9.439915e-003
9.439907e-003
9.439911e-003
9.439924e-003
9.439933e-003
9.439932e-003
9.439922e-003
9.439911e-003
9.439907e-003
9.439912e-003
9.439922e-003
9.439930e-003
9.439934e-003
9.439933e-003
9.439931e-003
9.439932e-003
9.439934e-003
9.439938e-003
9.439943e-003
9.439948e-003
9.439951e-003
9.439948e-003
9.439936e-003
9.439911e-003
9.439868e-003
9.439802e-003
9.439710e-003
9.439583e-003
9.439418e-003
9.439210e-003
9.438958e-003
9.438661e-003
9.438317e-003
9.437931e-003
9.437507e-003
9.437052e-003
9.436577e-003
9.436090e-003
9.435602e-003
9.435125e-003
9.434669e-003
9.434247e-003
9.433872e-003
9.433552e-003
9.433295e-003
9.433108e-003
9.432998e-003
9.432969e-003
9.433024e-003
9.433160e-003
9.433374e-003
9.433661e-003
9.434014e-003
9.434424e-003
9.434881e-003
9.435371e-003
9.435879e-003
9.436393e-003
9.436900e-003
9.437388e-003
9.437844e-003
9.438259e-003
9.438626e-003
9.438942e-003
9.439207e-003
9.439422e-003
9.439590e-003
9.439716e-003
9.439806e-003
9.439868e-003
9.439908e-003
9.439931e-003
9.439942e-003
9.439944e-003
9.439941e-003
9.439937e-003
9.439933e-003
9.439930e-003
9.439928e-003
9.439927e-003
9.439927e-003
9.439927e-003
9.439924e-003
9.439920e-003
9.439917e-003
9.439916e-003
9.439918e-003
9.439922e-003
9.439924e-003
9.439922e-003
9.439919e-003
9.439917e-003
9.439918e-003
9.439921e-003
9.439923e-003
9.439923e-003
9.439920e-003
9.439917e-003
9.439921e-003
9.439916e-003
9.439911e-003
9.439911e-003
9.439918e-003
9.439928e-003
9.439933e-003
9.439929e-003
9.439919e-003
9.439911e-003
9.439910e-003
9.439917e-003
9.439927e-003
9.439934e-003
9.439934e-003
9.439931e-003
9.439930e-003
9.439935e-003
9.439944e-003
9.439953e-003
9.439957e-003
9.439953e-003
9.439939e-003
9.439909e-003
9.439857e-003
9.439772e-003
9.439643e-003
9.439460e-003
9.439212e-003
9.438888e-003
9.438475e-003
9.437966e-003
9.437356e-003
9.436647e-003
9.435841e-003
9.434948e-003
9.433979e-003
9.432952e-003
9.431888e-003
9.430809e-003
9.429737e-003
9.428696e-003
9.427710e-003
9.426804e-003
9.426001e-003
9.425318e-003
9.424774e-003
9.424381e-003
9.424152e-003
9.424094e-003
9.424211e-003
9.424501e-003
9.424958e-003
9.425572e-003
9.426329e-003
9.427214e-003
9.428202e-003
9.429268e-003
9.430384e-003
9.431522e-003
9.432654e-003
9.433752e-003
9.434790e-003
9.435746e-003
9.436604e-003
9.437354e-003
9.437991e-003
9.438517e-003
9.438936e-003
9.439259e-003
9.439499e-003
9.439671e-003
9.439789e-003
9.439865e-003
9.439910e-003
9.439934e-003
9.439944e-003
9.439946e-003
9.439942e-003
9.439936e-003
9.439931e-003
9.439928e-003
9.439928e-003
9.439928e-003
9.439926e-003
9.439922e-003
9.439918e-003
9.439916e-003
9.439917e-003
9.439921e-003
9.439924e-003
9.439924e-003
9.439921e-003
9.439919e-003
9.439918e-003
9.439918e-003
9.439920e-003
9.439921e-003
9.439921e-003
9.439921e-003
9.439905e-003
9.439910e-003
9.439916e-003
9.439921e-003
9.439924e-003
9.439924e-003
9.439923e-003
9.439920e-003
9.439918e-003
9.439918e-003
9.439921e-003
9.439926e-003
9.439931e-003
9.439933e-003
9.439932e-003
9.439931e-003
9.439934e-003
9.439944e-003
9.439955e-003
9.439961e-003
9.439951e-003
9.439922e-003
9.439865e-003
9.439771e-003
9.439620e-003
9.439393e-003
9.439064e-003
9.438610e-003
9.438009e-003
9.437237e-003
9.436274e-003
9.435106e-003
9.433729e-003
9.432149e-003
9.430381e-003
9.428446e-003
9.426375e-003
9.424206e-003
9.421982e-003
9.419749e-003
9.417555e-003
9.415446e-003
9.413468e-003
9.411664e-003
9.410073e-003
9.408731e-003
9.407667e-003
9.406906e-003
9.406465e-003
9.406358e-003
9.406592e-003
9.407163e-003
9.408064e-003
9.409276e-003
9.410779e-003
9.412541e-003
9.414523e-003
9.416678e-003
9.418956e-003
9.421301e-003
9.423658e-003
9.425970e-003
9.428181e-003
9.430245e-003
9.432123e-003
9.433786e-003
9.435220e-003
9.436420e-003
9.437394e-003
9.438159e-003
9.438741e-003
9.439168e-003
9.439469e-003
9.439671e-003
9.439799e-003
9.439877e-003
9.439921e-003
9.439942e-003
9.439948e-003
9.439944e-003
9.439936e-003
9.439930e-003
9.439928e-003
9.439928e-003
9.439927e-003
9.439925e-003
9.439922e-003
9.439920e-003
9.439919e-003
9.439920e-003
9.439921e-003
9.439922e-003
9.439922e-003
9.439921e-003
9.439919e-003
9.439918e-003
9.439917e-003
9.439918e-003
9.439921e-003
9.439923e-003
9.439900e-003
9.439912e-003
9.439925e-003
9.439932e-003
9.439927e-003
9.439917e-003
9.439910e-003
9.439911e-003
9.439919e-003
9.439928e-003
9.439933e-003
9.439934e-003
9.439933e-003
9.439932e-003
9.439934e-003
9.439939e-003
9.439947e-003
9.439955e-003
9.439956e-003
9.439939e-003
9.439893e-003
9.439801e-003
9.439645e-003
9.439398e-003
9.439022e-003
9.438473e-003
9.437700e-003
9.436656e-003
9.435296e-003
9.433578e-003
9.431472e-003
9.428960e-003
9.426048e-003
9.422757e-003
9.419130e-003
9.415224e-003
9.411110e-003
9.406869e-003
9.402586e-003
9.398353e-003
9.394255e-003
9.390373e-003
9.386783e-003
9.383551e-003
9.380737e-003
9.378390e-003
9.376549e-003
9.375246e-003
9.374504e-003
9.374340e-003
9.374762e-003
9.375768e-003
9.377349e-003
9.379486e-003
9.382151e-003
9.385302e-003
9.388884e-003
9.392829e-003
9.397058e-003
9.401478e-003
9.405988e-003
9.410481e-003
9.414850e-003
9.418994e-003
9.422828e-003
9.426280e-003
9.429304e-003
9.431876e-003
9.433998e-003
9.435695e-003
9.437009e-003
9.437990e-003
9.438697e-003
9.439184e-003
9.439506e-003
9.439711e-003
9.439834e-003
9.439902e-003
9.439935e-003
9.439945e-003
9.439943e-003
9.439937e-003
9.439932e-003
9.439929e-003
9.439928e-003
9.439927e-003
9.439926e-003
9.439925e-003
9.439922e-003
9.439919e-003
9.439917e-003
9.439918e-003
9.439921e-003
9.439923e-003
9.439922e-003
9.439919e-003
9.439917e-003
9.439917e-003
9.439920e-003
9.439923e-003
9.439900e-003
9.439914e-003
9.439931e-003
9.439936e-003
9.439928e-003
9.439913e-003
9.439905e-003
9.439909e-003
9.439923e-003
9.439934e-003
9.439938e-003
9.439935e-003
9.439932e-003
9.439935e-003
9.439944e-003
9.439955e-003
9.439960e-003
9.439952e-003
9.439921e-003
9.439851e-003
9.439716e-003
9.439481e-003
9.439102e-003
9.438516e-003
9.437647e-003
9.436407e-003
9.434704e-003
9.432445e-003
9.429552e-003
9.425964e-003
9.421645e-003
9.416596e-003
9.410858e-003
9.404512e-003
9.397673e-003
9.390484e-003
9.383101e-003
9.375689e-003
9.368412e-003
9.361421e-003
9.354851e-003
9.348812e-003
9.343393e-003
9.338659e-003
9.334655e-003
9.331409e-003
9.328934e-003
9.327236e-003
9.326315e-003
9.326172e-003
9.326811e-003
9.328235e-003
9.330451e-003
9.333464e-003
9.337274e-003
9.341869e-003
9.347220e-003
9.353275e-003
9.359953e-003
9.367142e-003
9.374697e-003
9.382446e-003
9.390199e-003
9.397757e-003
9.404931e-003
9.411550e-003
9.417480e-003
9.422632e-003
9.426970e-003
9.430506e-003
9.433293e-003
9.435415e-003
9.436972e-003
9.438070e-003
9.438815e-003
9.439300e-003
9.439602e-003
9.439780e-003
9.439877e-003
9.439924e-003
9.439942e-003
9.439945e-003
9.439941e-003
9.439935e-003
9.439930e-003
9.439928e-003
9.439928e-003
9.439928e-003
9.439925e-003
9.439920e-003
9.439916e-003
9.439916e-003
9.439919e-003
9.439923e-003
9.439924e-003
9.439921e-003
9.439918e-003
9.439917e-003
9.439919e-003
9.439922e-003
9.439901e-003
9.439913e-003
9.439927e-003
9.439932e-003
9.439926e-003
9.439916e-003
9.439911e-003
9.439916e-003
9.439927e-003
9.439936e-003
9.439936e-003
9.439933e-003
9.439934e-003
9.439943e-003
9.439958e-003
9.439966e-003
9.439954e-003
9.439907e-003
9.439806e-003
9.439617e-003
9.439289e-003
9.438744e-003
9.437884e-003
9.436584e-003
9.434698e-003
9.432066e-003
9.428522e-003
9.423919e-003
9.418144e-003
9.411140e-003
9.402922e-003
9.393589e-003
9.383325e-003
9.372387e-003
9.361089e-003
9.349770e-003
9.338769e-003
9.328397e-003
9.318915e-003
9.310521e-003
9.303339e-003
9.297416e-003
9.292729e-003
9.289195e-003
9.286684e-003
9.285037e-003
9.284088e-003
9.283675e-003
9.283668e-003
9.283978e-003
9.284571e-003
9.285468e-003
9.286751e-003
9.288551e-003
9.291035e-003
9.294389e-003
9.298793e-003
9.304395e-003
9.311287e-003
9.319482e-003
9.328900e-003
9.339358e-003
9.350581e-003
9.362220e-003
9.373877e-003
9.385151e-003
9.395672e-003
9.405143e-003
9.413365e-003
9.420248e-003
9.425803e-003
9.430123e-003
9.433358e-003
9.435690e-003
9.437306e-003
9.438381e-003
9.439066e-003
9.439483e-003
9.439722e-003
9.439852e-003
9.439917e-003
9.439943e-003
9.439948e-003
9.439942e-003
9.439934e-003
9.439929e-003
9.439928e-003
9.439928e-003
9.439926e-003
9.439922e-003
9.439918e-003
9.439916e-003
9.439919e-003
9.439922e-003
9.439924e-003
9.439922e-003
9.439920e-003
9.439918e-003
9.439919e-003
9.439920e-003
9.439907e-003
9.439912e-003
9.439918e-003
9.439922e-003
9.439923e-003
9.439922e-003
9.439923e-003
9.439927e-003
9.439932e-003
9.439934e-003
9.439934e-003
9.439935e-003
9.439942e-003
9.439955e-003
9.439963e-003
9.439951e-003
9.439894e-003
9.439765e-003
9.439518e-003
9.439081e-003
9.438345e-003
9.437157e-003
9.435323e-003
9.432608e-003
9.428751e-003
9.423479e-003
9.416545e-003
9.407768e-003
9.397081e-003
9.384581e-003
9.370553e-003
9.355477e-003
9.340006e-003
9.324910e-003
9.311009e-003
9.299085e-003
9.289808e-003
9.283666e-003
9.280932e-003
9.281636e-003
9.285571e-003
9.292313e-003
9.301247e-003
9.311618e-003
9.322582e-003
9.333262e-003
9.342813e-003
9.350483e-003
9.355669e-003
9.357965e-003
9.357192e-003
9.353423e-003
9.346981e-003
9.338423e-003
9.328507e-003
9.318138e-003
9.308298e-003
9.299966e-003
9.294033e-003
9.291217e-003
9.291988e-003
9.296512e-003
9.304629e-003
9.315862e-003
9.329470e-003
9.344538e-003
9.360091e-003
9.375217e-003
9.389163e-003
9.401407e-003
9.411670e-003
9.419902e-003
9.426230e-003
9.430898e-003
9.434204e-003
9.436450e-003
9.437913e-003
9.438823e-003
9.439364e-003
9.439670e-003
9.439832e-003
9.439911e-003
9.439941e-003
9.439946e-003
9.439940e-003
9.439933e-003
9.439929e-003
9.439928e-003
9.439927e-003
9.439925e-003
9.439922e-003
9.439920e-003
9.439919e-003
9.439920e-003
9.439921e-003
9.439921e-003
9.439921e-003
9.439920e-003
9.439920e-003
9.439919e-003
9.439925e-003
9.439919e-003
9.439913e-003
9.439912e-003
9.439918e-003
9.439926e-003
9.439933e-003
9.439935e-003
9.439934e-003
9.439934e-003
9.439938e-003
9.439947e-003
9.439957e-003
9.439961e-003
9.439943e-003
9.439879e-003
9.439728e-003
9.439428e-003
9.438881e-003
9.437939e-003
9.436387e-003
9.433939e-003
9.430241e-003
9.424885e-003
9.417448e-003
9.407550e-003
9.394947e-003
9.379639e-003
9.361990e-003
9.342815e-003
9.323408e-003
9.305492e-003
9.291090e-003
9.282329e-003
9.281204e-003
9.289354e-003
9.307869e-003
9.337162e-003
9.376921e-003
9.426120e-003
9.483091e-003
9.545620e-003
9.611076e-003
9.676546e-003
9.738994e-003
9.795422e-003
9.843032e-003
9.879390e-003
9.902564e-003
9.911246e-003
9.904843e-003
9.883526e-003
9.848254e-003
9.800737e-003
9.743372e-003
9.679113e-003
9.611309e-003
9.543494e-003
9.479155e-003
9.421477e-003
9.373092e-003
9.335856e-003
9.310685e-003
9.297476e-003
9.295154e-003
9.301844e-003
9.315156e-003
9.332524e-003
9.351540e-003
9.370219e-003
9.387146e-003
9.401511e-003
9.413028e-003
9.421805e-003
9.428188e-003
9.432625e-003
9.435577e-003
9.437456e-003
9.438599e-003
9.439263e-003
9.439628e-003
9.439817e-003
9.439905e-003
9.439938e-003
9.439944e-003
9.439940e-003