# vtk DataFile Version 3.0
vtk output
ASCII
DATASET STRUCTURED_POINTS
DIMENSIONS 100 100 1
SPACING 1 1 1
ORIGIN 0 0 0
POINT_DATA 10000
SCALARS SFBox_profile double
LOOKUP_TABLE default 
9.439910e-003
9.439910e-003
9.439911e-003
9.439912e-003
9.439913e-003
9.439915e-003
9.439918e-003
9.439921e-003
9.439924e-003
9.439929e-003
9.439934e-003
9.439940e-003
9.439946e-003
9.439954e-003
9.439961e-003
9.439969e-003
9.439975e-003
9.439980e-003
9.439980e-003
9.439975e-003
9.439962e-003
9.439940e-003
9.439907e-003
9.439860e-003
9.439799e-003
9.439722e-003
9.439628e-003
9.439519e-003
9.439394e-003
9.439254e-003
9.439100e-003
9.438934e-003
9.438756e-003
9.438570e-003
9.438376e-003
9.438175e-003
9.437969e-003
9.437759e-003
9.437546e-003
9.437331e-003
9.437116e-003
9.436901e-003
9.436688e-003
9.436479e-003
9.436276e-003
9.436080e-003
9.435894e-003
9.435720e-003
9.435562e-003
9.435421e-003
9.435303e-003
9.435208e-003
9.435141e-003
9.435106e-003
9.435103e-003
9.435138e-003
9.435210e-003
9.435323e-003
9.435476e-003
9.435668e-003
9.435899e-003
9.436165e-003
9.436460e-003
9.436780e-003
9.437117e-003
9.437463e-003
9.437809e-003
9.438147e-003
9.438467e-003
9.438763e-003
9.439029e-003
9.439260e-003
9.439454e-003
9.439611e-003
9.439734e-003
9.439825e-003
9.439888e-003
9.439929e-003
9.439953e-003
9.439963e-003
9.439966e-003
9.439963e-003
9.439957e-003
9.439950e-003
9.439943e-003
9.439937e-003
9.439932e-003
9.439928e-003
9.439925e-003
9.439923e-003
9.439922e-003
9.439921e-003
9.439920e-003
9.439920e-003
9.439920e-003
9.439920e-003
9.439920e-003
9.439920e-003
9.439920e-003
9.439920e-003
9.439910e-003
9.439910e-003
9.439911e-003
9.439912e-003
9.439913e-003
9.439915e-003
9.439918e-003
9.439921e-003
9.439924e-003
9.439929e-003
9.439934e-003
9.439940e-003
9.439946e-003
9.439954e-003
9.439961e-003
9.439969e-003
9.439975e-003
9.439980e-003
9.439980e-003
9.439975e-003
9.439962e-003
9.439940e-003
9.439907e-003
9.439860e-003
9.439799e-003
9.439722e-003
9.439628e-003
9.439519e-003
9.439394e-003
9.439254e-003
9.439100e-003
9.438934e-003
9.438756e-003
9.438570e-003
9.438376e-003
9.438175e-003
9.437969e-003
9.437759e-003
9.437546e-003
9.437331e-003
9.437116e-003
9.436901e-003
9.436688e-003
9.436479e-003
9.436276e-003
9.436080e-003
9.435894e-003
9.435720e-003
9.435562e-003
9.435421e-003
9.435303e-003
9.435208e-003
9.435141e-003
9.435106e-003
9.435103e-003
9.435138e-003
9.435210e-003
9.435323e-003
9.435476e-003
9.435668e-003
9.435899e-003
9.436165e-003
9.436460e-003
9.436780e-003
9.437117e-003
9.437463e-003
9.437809e-003
9.438147e-003
9.438467e-003
9.438763e-003
9.439029e-003
9.439260e-003
9.439454e-003
9.439611e-003
9.439734e-003
9.439825e-003
9.439888e-003
9.439929e-003
9.439953e-003
9.439963e-003
9.439966e-003
9.439963e-003
9.439957e-003
9.439950e-003
9.439943e-003
9.439937e-003
9.439932e-003
9.439928e-003
9.439925e-003
9.439923e-003
9.439922e-003
9.439921e-003
9.439920e-003
9.439920e-003
9.439920e-003
9.439920e-003
9.439920e-003
9.439920e-003
9.439920e-003
9.439920e-003
9.439911e-003
9.439911e-003
9.439912e-003
9.439913e-003
9.439915e-003
9.439917e-003
9.439920e-003
9.439923e-003
9.439927e-003
9.439932e-003
9.439938e-003
9.439944e-003
9.439951e-003
9.439958e-003
9.439964e-003
9.439967e-003
9.439966e-003
9.439959e-003
9.439942e-003
9.439913e-003
9.439868e-003
9.439804e-003
9.439716e-003
9.439604e-003
9.439464e-003
9.439296e-003
9.439099e-003
9.438874e-003
9.438622e-003
9.438346e-003
9.438047e-003
9.437730e-003
9.437396e-003
9.437049e-003
9.436691e-003
9.436325e-003
9.435953e-003
9.435577e-003
9.435199e-003
9.434820e-003
9.434443e-003
9.434069e-003
9.433701e-003
9.433342e-003
9.432993e-003
9.432659e-003
9.432344e-003
9.432051e-003
9.431785e-003
9.431550e-003
9.431352e-003
9.431196e-003
9.431086e-003
9.431029e-003
9.431029e-003
9.431090e-003
9.431216e-003
9.431410e-003
9.431672e-003
9.432003e-003
9.432400e-003
9.432859e-003
9.433371e-003
9.433929e-003
9.434520e-003
9.435132e-003
9.435749e-003
9.436357e-003
9.436940e-003
9.437487e-003
9.437984e-003
9.438425e-003
9.438803e-003
9.439118e-003
9.439371e-003
9.439567e-003
9.439711e-003
9.439813e-003
9.439881e-003
9.439922e-003
9.439944e-003
9.439953e-003
9.439954e-003
9.439951e-003
9.439945e-003
9.439940e-003
9.439935e-003
9.439930e-003
9.439927e-003
9.439924e-003
9.439923e-003
9.439921e-003
9.439921e-003
9.439920e-003
9.439920e-003
9.439920e-003
9.439920e-003
9.439920e-003
9.439920e-003
9.439920e-003
9.439912e-003
9.439913e-003
9.439914e-003
9.439915e-003
9.439917e-003
9.439920e-003
9.439923e-003
9.439928e-003
9.439933e-003
9.439939e-003
9.439945e-003
9.439952e-003
9.439958e-003
9.439961e-003
9.439959e-003
9.439949e-003
9.439925e-003
9.439883e-003
9.439817e-003
9.439719e-003
9.439581e-003
9.439398e-003
9.439163e-003
9.438872e-003
9.438520e-003
9.438108e-003
9.437636e-003
9.437107e-003
9.436524e-003
9.435895e-003
9.435224e-003
9.434520e-003
9.433788e-003
9.433035e-003
9.432266e-003
9.431487e-003
9.430702e-003
9.429915e-003
9.429130e-003
9.428349e-003
9.427577e-003
9.426817e-003
9.426073e-003
9.425351e-003
9.424654e-003
9.423991e-003
9.423367e-003
9.422790e-003
9.422268e-003
9.421811e-003
9.421426e-003
9.421125e-003
9.420916e-003
9.420810e-003
9.420816e-003
9.420942e-003
9.421197e-003
9.421585e-003
9.422110e-003
9.422772e-003
9.423568e-003
9.424491e-003
9.425528e-003
9.426663e-003
9.427875e-003
9.429139e-003
9.430426e-003
9.431706e-003
9.432950e-003
9.434129e-003
9.435218e-003
9.436197e-003
9.437052e-003
9.437778e-003
9.438374e-003
9.438848e-003
9.439210e-003
9.439477e-003
9.439665e-003
9.439791e-003
9.439870e-003
9.439915e-003
9.439938e-003
9.439947e-003
9.439947e-003
9.439944e-003
9.439939e-003
9.439934e-003
9.439930e-003
9.439927e-003
9.439924e-003
9.439923e-003
9.439921e-003
9.439921e-003
9.439920e-003
9.439920e-003
9.439920e-003
9.439920e-003
9.439920e-003
9.439920e-003
9.439915e-003
9.439916e-003
9.439917e-003
9.439919e-003
9.439922e-003
9.439925e-003
9.439930e-003
9.439935e-003
9.439942e-003
9.439949e-003
9.439955e-003
9.439960e-003
9.439959e-003
9.439949e-003
9.439923e-003
9.439874e-003
9.439791e-003
9.439661e-003
9.439471e-003
9.439205e-003
9.438848e-003
9.438387e-003
9.437811e-003
9.437110e-003
9.436281e-003
9.435325e-003
9.434246e-003
9.433053e-003
9.431758e-003
9.430374e-003
9.428918e-003
9.427403e-003
9.425846e-003
9.424259e-003
9.422655e-003
9.421043e-003
9.419434e-003
9.417833e-003
9.416248e-003
9.414685e-003
9.413151e-003
9.411651e-003
9.410193e-003
9.408785e-003
9.407438e-003
9.406161e-003
9.404967e-003
9.403870e-003
9.402883e-003
9.402022e-003
9.401304e-003
9.400745e-003
9.400364e-003
9.400177e-003
9.400202e-003
9.400455e-003
9.400950e-003
9.401701e-003
9.402713e-003
9.403992e-003
9.405533e-003
9.407328e-003
9.409356e-003
9.411592e-003
9.414000e-003
9.416533e-003
9.419140e-003
9.421763e-003
9.424342e-003
9.426816e-003
9.429132e-003
9.431243e-003
9.433115e-003
9.434728e-003
9.436075e-003
9.437165e-003
9.438017e-003
9.438661e-003
9.439127e-003
9.439452e-003
9.439667e-003
9.439802e-003
9.439880e-003
9.439922e-003
9.439940e-003
9.439945e-003
9.439944e-003
9.439940e-003
9.439935e-003
9.439930e-003
9.439927e-003
9.439924e-003
9.439923e-003
9.439921e-003
9.439921e-003
9.439920e-003
9.439920e-003
9.439920e-003
9.439920e-003
9.439920e-003
9.439919e-003
9.439920e-003
9.439922e-003
9.439924e-003
9.439928e-003
9.439933e-003
9.439939e-003
9.439946e-003
9.439953e-003
9.439959e-003
9.439962e-003
9.439956e-003
9.439934e-003
9.439887e-003
9.439799e-003
9.439653e-003
9.439426e-003
9.439089e-003
9.438614e-003
9.437971e-003
9.437128e-003
9.436060e-003
9.434748e-003
9.433179e-003
9.431353e-003
9.429275e-003
9.426963e-003
9.424442e-003
9.421740e-003
9.418892e-003
9.415931e-003
9.412891e-003
9.409803e-003
9.406693e-003
9.403585e-003
9.400499e-003
9.397451e-003
9.394453e-003
9.391517e-003
9.388652e-003
9.385868e-003
9.383176e-003
9.380587e-003
9.378112e-003
9.375767e-003
9.373568e-003
9.371531e-003
9.369676e-003
9.368024e-003
9.366599e-003
9.365424e-003
9.364524e-003
9.363925e-003
9.363655e-003
9.363740e-003
9.364206e-003
9.365079e-003
9.366381e-003
9.368129e-003
9.370336e-003
9.373006e-003
9.376135e-003
9.379705e-003
9.383682e-003
9.388019e-003
9.392648e-003
9.397486e-003
9.402434e-003
9.407380e-003
9.412210e-003
9.416808e-003
9.421073e-003
9.424920e-003
9.428289e-003
9.431152e-003
9.433507e-003
9.435381e-003
9.436822e-003
9.437889e-003
9.438649e-003
9.439168e-003
9.439507e-003
9.439717e-003
9.439839e-003
9.439903e-003
9.439933e-003
9.439944e-003
9.439944e-003
9.439940e-003
9.439935e-003
9.439931e-003
9.439927e-003
9.439924e-003
9.439923e-003
9.439921e-003
9.439921e-003
9.439920e-003
9.439920e-003
9.439920e-003
9.439920e-003
9.439925e-003
9.439926e-003
9.439928e-003
9.439932e-003
9.439937e-003
9.439943e-003
9.439950e-003
9.439958e-003
9.439964e-003
9.439963e-003
9.439951e-003
9.439914e-003
9.439838e-003
9.439698e-003
9.439464e-003
9.439095e-003
9.438542e-003
9.437752e-003
9.436662e-003
9.435215e-003
9.433355e-003
9.431040e-003
9.428240e-003
9.424949e-003
9.421179e-003
9.416962e-003
9.412350e-003
9.407407e-003
9.402205e-003
9.396819e-003
9.391323e-003
9.385785e-003
9.380263e-003
9.374807e-003
9.369458e-003
9.364247e-003
9.359199e-003
9.354331e-003
9.349660e-003
9.345196e-003
9.340951e-003
9.336936e-003
9.333161e-003
9.329637e-003
9.326376e-003
9.323391e-003
9.320695e-003
9.318304e-003
9.316234e-003
9.314502e-003
9.313128e-003
9.312130e-003
9.311532e-003
9.311358e-003
9.311633e-003
9.312386e-003
9.313648e-003
9.315452e-003
9.317836e-003
9.320836e-003
9.324489e-003
9.328827e-003
9.333871e-003
9.339628e-003
9.346079e-003
9.353175e-003
9.360827e-003
9.368907e-003
9.377247e-003
9.385649e-003
9.393892e-003
9.401756e-003
9.409039e-003
9.415577e-003
9.421258e-003
9.426030e-003
9.429901e-003
9.432933e-003
9.435221e-003
9.436883e-003
9.438044e-003
9.438821e-003
9.439319e-003
9.439621e-003
9.439793e-003
9.439884e-003
9.439926e-003
9.439942e-003
9.439944e-003
9.439941e-003
9.439936e-003
9.439931e-003
9.439927e-003
9.439924e-003
9.439923e-003
9.439921e-003
9.439921e-003
9.439920e-003
9.439920e-003
9.439920e-003
9.439933e-003
9.439934e-003
9.439937e-003
9.439942e-003
9.439948e-003
9.439956e-003
9.439964e-003
9.439969e-003
9.439965e-003
9.439944e-003
9.439890e-003
9.439777e-003
9.439572e-003
9.439222e-003
9.438664e-003
9.437815e-003
9.436577e-003
9.434841e-003
9.432497e-003
9.429439e-003
9.425580e-003
9.420864e-003
9.415276e-003
9.408844e-003
9.401643e-003
9.393789e-003
9.385427e-003
9.376722e-003
9.367841e-003
9.358946e-003
9.350183e-003
9.341677e-003
9.333525e-003
9.325804e-003
9.318564e-003
9.311843e-003
9.305661e-003
9.300032e-003
9.294961e-003
9.290449e-003
9.286495e-003
9.283089e-003
9.280220e-003
9.277869e-003
9.276011e-003
9.274616e-003
9.273647e-003
9.273066e-003
9.272829e-003
9.272888e-003
9.273197e-003
9.273707e-003
9.274372e-003
9.275150e-003
9.276007e-003
9.276924e-003
9.277899e-003
9.278958e-003
9.280160e-003
9.281600e-003
9.283415e-003
9.285780e-003
9.288895e-003
9.292974e-003
9.298216e-003
9.304778e-003
9.312743e-003
9.322096e-003
9.332700e-003
9.344301e-003
9.356530e-003
9.368946e-003
9.381077e-003
9.392478e-003
9.402779e-003
9.411724e-003
9.419192e-003
9.425183e-003
9.429804e-003
9.433230e-003
9.435669e-003
9.437337e-003
9.438430e-003
9.439114e-003
9.439521e-003
9.439748e-003
9.439866e-003
9.439920e-003
9.439941e-003
9.439944e-003
9.439941e-003
9.439936e-003
9.439931e-003
9.439927e-003
9.439924e-003
9.439922e-003
9.439921e-003
9.439921e-003
9.439920e-003
9.439920e-003
9.439943e-003
9.439945e-003
9.439949e-003
9.439955e-003
9.439963e-003
9.439971e-003
9.439975e-003
9.439968e-003
9.439939e-003
9.439865e-003
9.439712e-003
9.439429e-003
9.438942e-003
9.438149e-003
9.436919e-003
9.435090e-003
9.432480e-003
9.428890e-003
9.424134e-003
9.418057e-003
9.410563e-003
9.401642e-003
9.391386e-003
9.379991e-003
9.367747e-003
9.355016e-003
9.342194e-003
9.329684e-003
9.317857e-003
9.307032e-003
9.297461e-003
9.289326e-003
9.282740e-003
9.277755e-003
9.274381e-003
9.272595e-003
9.272359e-003
9.273623e-003
9.276334e-003
9.280431e-003
9.285843e-003
9.292478e-003
9.300222e-003
9.308929e-003
9.318424e-003
9.328500e-003
9.338923e-003
9.349432e-003
9.359744e-003
9.369557e-003
9.378557e-003
9.386419e-003
9.392816e-003
9.397429e-003
9.399961e-003
9.400159e-003
9.397838e-003
9.392911e-003
9.385423e-003
9.375584e-003
9.363788e-003
9.350627e-003
9.336877e-003
9.323466e-003
9.311407e-003
9.301712e-003
9.295285e-003
9.292815e-003
9.294673e-003
9.300849e-003
9.310931e-003
9.324143e-003
9.339445e-003
9.355678e-003
9.371721e-003
9.386634e-003
9.399752e-003
9.410716e-003
9.419450e-003
9.426099e-003
9.430943e-003
9.434324e-003
9.436585e-003
9.438032e-003
9.438916e-003
9.439429e-003
9.439710e-003
9.439852e-003
9.439916e-003
9.439940e-003
9.439944e-003
9.439941e-003
9.439936e-003
9.439931e-003
9.439927e-003
9.439924e-003
9.439922e-003
9.439921e-003
9.439921e-003
9.439920e-003
9.439956e-003
9.439959e-003
9.439964e-003
9.439971e-003
9.439979e-003
9.439982e-003
9.439973e-003
9.439936e-003
9.439843e-003
9.439650e-003
9.439286e-003
9.438647e-003
9.437585e-003
9.435904e-003
9.433352e-003
9.429636e-003
9.424434e-003
9.417434e-003
9.408386e-003
9.397164e-003
9.383827e-003
9.368670e-003
9.352243e-003
9.335326e-003
9.318874e-003
9.303926e-003
9.291503e-003
9.282518e-003
9.277707e-003
9.277589e-003
9.282461e-003
9.292414e-003
9.307367e-003
9.327117e-003
9.351381e-003
9.379846e-003
9.412201e-003
9.448154e-003
9.487432e-003
9.529759e-003
9.574837e-003
9.622310e-003
9.671742e-003
9.722603e-003
9.774254e-003
9.825956e-003
9.876876e-003
9.926095e-003
9.972620e-003
1.001539e-002
1.005331e-002
1.008522e-002
1.010995e-002
1.012634e-002
1.013327e-002
1.012971e-002
1.011485e-002
1.008813e-002
1.004938e-002
9.998927e-003
9.937708e-003
9.867308e-003
9.789996e-003
9.708664e-003
9.626695e-003
9.547739e-003
9.475422e-003
9.413010e-003
9.363051e-003
9.327080e-003
9.305416e-003
9.297127e-003
9.300189e-003
9.311816e-003
9.328901e-003
9.348472e-003
9.368058e-003
9.385904e-003
9.401006e-003
9.413018e-003
9.422061e-003
9.428540e-003
9.432970e-003
9.435865e-003
9.437673e-003
9.438751e-003
9.439360e-003
9.439685e-003
9.439844e-003
9.439915e-003
9.439940e-003
9.439944e-003
9.439941e-003
9.439935e-003
9.439930e-003
9.439926e-003
9.439924e-003
9.439922e-003
9.439921e-003
9.439921e-003
9.439973e-003
9.439977e-003
9.439983e-003
9.439989e-003
9.439991e-003
9.439980e-003
9.439937e-003
9.439829e-003
9.439600e-003
9.439160e-003
9.438370e-003
9.437029e-003
9.434856e-003
9.431487e-003
9.426477e-003
9.419332e-003
9.409572e-003
9.396833e-003
9.381010e-003
9.362410e-003
9.341896e-003
9.320959e-003
9.301693e-003
9.286654e-003
9.278621e-003
9.280305e-003
9.294072e-003
9.321724e-003
9.364383e-003
9.422470e-003
9.495772e-003
9.583563e-003
9.684752e-003
9.798043e-003
9.922078e-003
1.005555e-002
1.019729e-002
1.034628e-002
1.050162e-002
1.066246e-002
1.082791e-002
1.099694e-002
1.116831e-002
1.134052e-002
1.151179e-002
1.168005e-002
1.184303e-002
1.199819e-002
1.214282e-002
1.227406e-002
1.238889e-002
1.248416e-002
1.255663e-002
1.260304e-002
1.262019e-002
1.260506e-002
1.255503e-002
1.246810e-002
1.234317e-002
1.218038e-002
1.198139e-002
1.174964e-002
1.149050e-002
1.121128e-002
1.092100e-002
1.062996e-002
1.034912e-002
1.008918e-002
9.859618e-003
9.667668e-003
9.517488e-003
9.409683e-003
9.341344e-003
9.306646e-003
9.297912e-003
9.306878e-003
9.325895e-003
9.348789e-003
9.371253e-003
9.390801e-003
9.406412e-003
9.418061e-003
9.426269e-003
9.431764e-003
9.435269e-003
9.437404e-003
9.438643e-003
9.439324e-003
9.439677e-003
9.439845e-003
9.439916e-003
9.439941e-003
9.439944e-003
9.439940e-003
9.439934e-003
9.439929e-003
9.439926e-003
9.439923e-003
9.439922e-003
9.439921e-003
9.439995e-003
9.439998e-003
9.440003e-003
9.440004e-003
9.439991e-003
9.439945e-003
9.439827e-003
9.439571e-003
9.439069e-003
9.438148e-003
9.436546e-003
9.433889e-003
9.429675e-003
9.423273e-003
9.413965e-003
9.401057e-003
9.384073e-003
9.363056e-003
9.338939e-003
9.313927e-003
9.291755e-003
9.277725e-003
9.278409e-003
9.301060e-003
9.352807e-003
9.439842e-003
9.566734e-003
9.736034e-003
9.948193e-003
1.020176e-002
1.049375e-002
1.082017e-002
1.117643e-002
1.155786e-002
1.195998e-002
1.237882e-002
1.281104e-002
1.325386e-002
1.370500e-002
1.416239e-002
1.462393e-002
1.508723e-002
1.554943e-002
1.600708e-002
1.645610e-002
1.689184e-002
1.730909e-002
1.770222e-002
1.806519e-002
1.839159e-002
1.867472e-002
1.890753e-002
1.908273e-002
1.919282e-002
1.923028e-002
1.918778e-002
1.905859e-002
1.883702e-002
1.851910e-002
1.810323e-002
1.759101e-002
1.698793e-002
1.630396e-002
1.555393e-002
1.475747e-002
1.393845e-002
1.312394e-002
1.234237e-002
1.162127e-002
1.098453e-002
1.044969e-002
1.002585e-002
9.712702e-003
9.501008e-003
9.374638e-003
9.313610e-003
9.297434e-003
9.307939e-003
9.331028e-003
9.357200e-003
9.381063e-003
9.400303e-003
9.414545e-003
9.424407e-003
9.430864e-003
9.434883e-003
9.437265e-003
9.438609e-003
9.439327e-003
9.439687e-003
9.439853e-003
9.439921e-003
9.439942e-003
9.439943e-003
9.439938e-003
9.439933e-003
9.439928e-003
9.439925e-003
9.439923e-003
9.439922e-003
9.440019e-003
9.440021e-003
9.440021e-003
9.440007e-003
9.439960e-003
9.439838e-003
9.439570e-003
9.439029e-003
9.438012e-003
9.436201e-003
9.433126e-003
9.428130e-003
9.420367e-003
9.408852e-003
9.392632e-003
9.371137e-003
9.344765e-003
9.315709e-003
9.288888e-003
9.272759e-003
9.279626e-003
9.325197e-003
9.427242e-003
9.603584e-003
9.869821e-003
1.023733e-002
1.071195e-002
1.129367e-002
1.197706e-002
1.275242e-002
1.360726e-002
1.452769e-002
1.549973e-002
1.651022e-002
1.754758e-002
1.860214e-002
1.966626e-002
2.073409e-002
2.180110e-002
2.286347e-002
2.391746e-002
2.495879e-002
2.598233e-002
2.698180e-002
2.794981e-002
2.887792e-002
2.975680e-002
3.057635e-002
3.132585e-002
3.199395e-002
3.256873e-002
3.303760e-002
3.338729e-002
3.360391e-002
3.367304e-002
3.358008e-002
3.331075e-002
3.285182e-002
3.219218e-002
3.132413e-002
3.024486e-002
2.895819e-002
2.747619e-002
2.582068e-002
2.402432e-002
2.213082e-002
2.019421e-002
1.827646e-002
1.644338e-002
1.475875e-002
1.327736e-002
1.203812e-002
1.105899e-002
1.033507e-002
9.840862e-003
9.536069e-003
9.373520e-003
9.307120e-003
9.297835e-003
9.316733e-003
9.345133e-003
9.372807e-003
9.395388e-003
9.411951e-003
9.423207e-003
9.430403e-003
9.434764e-003
9.437279e-003
9.438656e-003
9.439369e-003
9.439715e-003
9.439868e-003
9.439927e-003
9.439943e-003
9.439942e-003
9.439937e-003
9.439931e-003
9.439927e-003
9.439924e-003
9.439923e-003
9.440046e-003
9.440043e-003
9.440029e-003
9.439983e-003
9.439864e-003
9.439597e-003
9.439046e-003
9.437984e-003
9.436045e-003
9.432670e-003
9.427052e-003
9.418115e-003
9.404573e-003
9.385170e-003
9.359249e-003
9.327803e-003
9.295107e-003
9.270811e-003
9.272026e-003
9.324628e-003
9.462877e-003
9.726832e-003
1.015771e-002
1.079210e-002
1.165649e-002
1.276344e-002
1.411015e-002
1.567968e-002
1.744400e-002
1.936812e-002
2.141422e-002
2.354518e-002
2.572707e-002
2.793076e-002
3.013268e-002
3.231489e-002
3.446462e-002
3.657332e-002
3.863538e-002
4.064674e-002
4.260361e-002
4.450141e-002
4.633413e-002
4.809408e-002
4.977189e-002
5.135679e-002
5.283681e-002
5.419910e-002
5.543000e-002
5.651506e-002
5.743889e-002
5.818498e-002
5.873540e-002
5.907065e-002
5.916952e-002
5.900918e-002
5.856552e-002
5.781381e-002
5.672976e-002
5.529115e-002
5.347992e-002
5.128499e-002
4.870560e-002
4.575516e-002
4.246536e-002
3.888994e-002
3.510747e-002
3.122159e-002
2.735744e-002
2.365312e-002
2.024585e-002
1.725482e-002
1.476395e-002
1.280955e-002
1.137667e-002
1.040570e-002
9.807542e-003
9.482439e-003
9.337157e-003
9.296372e-003
9.306914e-003
9.336113e-003
9.366905e-003
9.392264e-003
9.410629e-003
9.422840e-003
9.430448e-003
9.434932e-003
9.437442e-003
9.438775e-003
9.439443e-003
9.439754e-003
9.439886e-003
9.439933e-003
9.439943e-003
9.439941e-003
9.439935e-003
9.439930e-003
9.439927e-003
9.439925e-003
9.440069e-003
9.440055e-003
9.440012e-003
9.439902e-003
9.439649e-003
9.439117e-003
9.438066e-003
9.436097e-003
9.432584e-003
9.426589e-003
9.416816e-003
9.401661e-003
9.379520e-003
9.349610e-003
9.313656e-003
9.278787e-003
9.261665e-003
9.293207e-003
9.422371e-003
9.716852e-003
1.025884e-002
1.113537e-002
1.242486e-002
1.418324e-002
1.643348e-002
1.916138e-002
2.231831e-002
2.582952e-002
2.960541e-002
3.355271e-002
3.758366e-002
4.162209e-002
4.560636e-002
4.949009e-002
5.324112e-002
5.683962e-002
6.027566e-002
6.354644e-002
6.665361e-002
6.960077e-002
7.239155e-002
7.502821e-002
7.751097e-002
7.983790e-002
8.200512e-002
8.400722e-002
8.583767e-002
8.748905e-002
8.895319e-002
9.022094e-002
9.128192e-002
9.212403e-002
9.273283e-002
9.309102e-002
9.317774e-002
9.296804e-002
9.243236e-002
9.153626e-002
9.024040e-002
8.850110e-002
8.627153e-002
8.350415e-002
8.015463e-002
7.618783e-002
7.158607e-002
6.635993e-002
6.056044e-002
5.429082e-002
4.771392e-002
4.105093e-002
3.456672e-002
2.854027e-002
2.322378e-002
1.880014e-002
1.535189e-002
1.285270e-002
1.118428e-002
1.017222e-002
9.627474e-003
9.380587e-003
9.301042e-003
9.301380e-003
9.330728e-003
9.363962e-003
9.391319e-003
9.410759e-003
9.423360e-003
9.430992e-003
9.435359e-003
9.437729e-003
9.438947e-003
9.439536e-003
9.439799e-003
9.439904e-003
9.439938e-003
9.439943e-003
9.439939e-003
9.439933e-003
9.439929e-003
9.439927e-003
9.440080e-003
9.440045e-003
9.439948e-003
9.439721e-003
9.439232e-003
9.438243e-003
9.436347e-003
9.432876e-003
9.426801e-003
9.416643e-003
9.400494e-003
9.376359e-003
9.343209e-003
9.303389e-003
9.267168e-003
9.259942e-003
9.331519e-003
9.565063e-003
1.008132e-002
1.103316e-002
1.258760e-002
1.489700e-002
1.806653e-002
2.212804e-002
2.702886e-002
3.263912e-002
3.877416e-002
4.522434e-002
5.178379e-002
5.827201e-002
6.454591e-002
7.050328e-002
7.608003e-002
8.124405e-002
8.598780e-002
9.032110e-002
9.426471e-002
9.784524e-002
1.010912e-001
1.040304e-001
1.066881e-001
1.090866e-001
1.112451e-001
1.131796e-001
1.149040e-001
1.164303e-001
1.177687e-001
1.189281e-001
1.199162e-001
1.207389e-001
1.214002e-001
1.219019e-001
1.222429e-001
1.224186e-001
1.224197e-001
1.222319e-001
1.218335e-001
1.211946e-001
1.202751e-001
1.190217e-001
1.173669e-001
1.152260e-001
1.124972e-001
1.090636e-001
1.047992e-001
9.958252e-002
9.331838e-002
8.596835e-002
7.758672e-002
6.835406e-002
5.859523e-002
4.876599e-002
3.939777e-002
3.100586e-002
2.398615e-002
1.853707e-002
1.463709e-002
1.208344e-002
1.057089e-002
9.776694e-003
9.423186e-003
9.306987e-003
9.299194e-003
9.329184e-003
9.364265e-003
9.392670e-003
9.412323e-003
9.424690e-003
9.431954e-003
9.435982e-003
9.438097e-003
9.439147e-003
9.439635e-003
9.439843e-003
9.439920e-003
9.439942e-003
9.439942e-003
9.439937e-003
9.439932e-003
9.439930e-003
9.440063e-003
9.439992e-003
9.439800e-003
9.439373e-003
9.438489e-003
9.436752e-003
9.433495e-003
9.427646e-003
9.417606e-003
9.401218e-003
9.376074e-003
9.340711e-003
9.297644e-003
9.259693e-003
9.261041e-003
9.373187e-003
9.722822e-003
1.050414e-002
1.197479e-002
1.442616e-002
1.812704e-002
2.325322e-002
2.982684e-002
3.769015e-002
4.652592e-002
5.591707e-002
6.542323e-002
7.464927e-002
8.328951e-002
9.114383e-002
9.811131e-002
1.041713e-001
1.093606e-001
1.137514e-001
1.174328e-001
1.204982e-001
1.230364e-001
1.251275e-001
1.268415e-001
1.282389e-001
1.293712e-001
1.302829e-001
1.310118e-001
1.315902e-001
1.320454e-001
1.324005e-001
1.326742e-001
1.328819e-001
1.330357e-001
1.331452e-001
1.332174e-001
1.332573e-001
1.332680e-001
1.332503e-001
1.332029e-001
1.331221e-001
1.330006e-001
1.328268e-001
1.325835e-001
1.322445e-001
1.317714e-001
1.311078e-001
1.301708e-001
1.288406e-001
1.269498e-001
1.242745e-001
1.205367e-001
1.154251e-001
1.086447e-001
1.000009e-001
8.950608e-002
7.747673e-002
6.456533e-002
5.168259e-002
3.980802e-002
2.974997e-002
2.195584e-002
1.645374e-002
1.293433e-002
1.091261e-002
9.888063e-003
9.448917e-003
9.309553e-003
9.299560e-003
9.331501e-003
9.367777e-003
9.396142e-003
9.415102e-003
9.426639e-003
9.433195e-003
9.436711e-003
9.438496e-003
9.439349e-003
9.439728e-003
9.439881e-003
9.439932e-003
9.439943e-003
9.439941e-003
9.439936e-003
9.439933e-003
9.439998e-003
9.439863e-003
9.439515e-003
9.438764e-003
9.437251e-003
9.434343e-003
9.428989e-003
9.419553e-003
9.403715e-003
9.378690e-003
9.342394e-003
9.296807e-003
9.255736e-003
9.259761e-003
9.400255e-003
9.850147e-003
1.089097e-002
1.291664e-002
1.639124e-002
2.174949e-002
2.925681e-002
3.887883e-002
5.022425e-002
6.259976e-002
7.516190e-002
8.710321e-002
9.780190e-002
1.068943e-001
1.142689e-001
1.200093e-001
1.243181e-001
1.274505e-001
1.296645e-001
1.311919e-001
1.322227e-001
1.329036e-001
1.333424e-001
1.336169e-001
1.337827e-001
1.338798e-001
1.339370e-001
1.339739e-001
1.340033e-001
1.340320e-001
1.340630e-001
1.340961e-001
1.341301e-001
1.341635e-001
1.341954e-001
1.342260e-001
1.342566e-001
1.342891e-001
1.343260e-001
1.343693e-001
1.344202e-001
1.344781e-001
1.345394e-001
1.345972e-001
1.346402e-001
1.346525e-001
1.346140e-001
1.345015e-001
1.342901e-001
1.339520e-001
1.334498e-001
1.327178e-001
1.316272e-001
1.299349e-001
1.272303e-001
1.229176e-001
1.162999e-001
1.068132e-001
9.435398e-002
7.953218e-002
6.365529e-002
4.838484e-002
3.521048e-002
2.501512e-002
1.793797e-002
1.353887e-002
1.110515e-002
9.926230e-003
9.447503e-003
9.306976e-003
9.302509e-003
9.337600e-003
9.374143e-003
9.401303e-003
9.418727e-003
9.428946e-003
9.434554e-003
9.437458e-003
9.438879e-003
9.439531e-003
9.439806e-003
9.439910e-003
9.439940e-003
9.439944e-003
9.439940e-003
9.439937e-003
9.439851e-003
9.439618e-003
9.439025e-003
9.437774e-003
9.435303e-003
9.430639e-003
9.422200e-003
9.407627e-003
9.383862e-003
9.348111e-003
9.301106e-003
9.255483e-003
9.253578e-003
9.399174e-003
9.903515e-003
1.113435e-002
1.363857e-002
1.809430e-002
2.515544e-002
3.519954e-002
4.806822e-002
6.294726e-002
7.849880e-002
9.322277e-002
1.058823e-001
1.157963e-001
1.228946e-001
1.275681e-001
1.304253e-001
1.320756e-001
1.330055e-001
1.335442e-001
1.338830e-001
1.341118e-001
1.342581e-001
1.343203e-001
1.342897e-001
1.341618e-001
1.339392e-001
1.336294e-001
1.332427e-001
1.327901e-001
1.322823e-001
1.317305e-001
1.311465e-001
1.305432e-001
1.299352e-001
1.293389e-001
1.287716e-001
1.282523e-001
1.278003e-001
1.274356e-001
1.271783e-001
1.270486e-001
1.270658e-001
1.272478e-001
1.276100e-001
1.281628e-001
1.289092e-001
1.298406e-001
1.309319e-001
1.321352e-001
1.333735e-001
1.345341e-001
1.354687e-001
1.360051e-001
1.359838e-001
1.353161e-001
1.340198e-001
1.321303e-001
1.294288e-001
1.251444e-001
1.179998e-001
1.068453e-001
9.158315e-002
7.362608e-002
5.542919e-002
3.942504e-002
2.710611e-002
1.875061e-002
1.374025e-002
1.109229e-002
9.878609e-003
9.419685e-003
9.301431e-003
9.308846e-003
9.347201e-003
9.382702e-003
9.407530e-003
9.422752e-003
9.431338e-003
9.435879e-003
9.438147e-003
9.439213e-003
9.439680e-003
9.439866e-003
9.439929e-003
9.439945e-003
9.439944e-003
9.439942e-003
9.439584e-003
9.439201e-003
9.438241e-003
9.436249e-003
9.432381e-003
9.425196e-003
9.412432e-003
9.390928e-003
9.357260e-003
9.310481e-003
9.260050e-003
9.244485e-003
9.368223e-003
9.861777e-003
1.115732e-002
1.394420e-002
1.913407e-002
2.765348e-002
4.003995e-002
5.596883e-002
7.400491e-002
9.187228e-002
1.072448e-001
1.186510e-001
1.259374e-001
1.300210e-001
1.321834e-001
1.334325e-001
1.342590e-001
1.347464e-001
1.348159e-001
1.344045e-001
1.335222e-001
1.322335e-001
1.306246e-001
1.287818e-001
1.267807e-001
1.246836e-001
1.225391e-001
1.203837e-001
1.182451e-001
1.161441e-001
1.140983e-001
1.121231e-001
1.102338e-001
1.084457e-001
1.067744e-001
1.052361e-001
1.038473e-001
1.026254e-001
1.015882e-001
1.007555e-001
1.001485e-001
9.979127e-002
9.971108e-002
9.993881e-002
1.005092e-001
1.014606e-001
1.028340e-001
1.046712e-001
1.070103e-001
1.098797e-001
1.132864e-001
1.171982e-001
1.215162e-001
1.260385e-001
1.304204e-001
1.341568e-001
1.366349e-001
1.373231e-001
1.360949e-001
1.333889e-001
1.296301e-001
1.240650e-001
1.146325e-001
9.980045e-002
8.050221e-002
5.993839e-002
4.164894e-002
2.778835e-002
1.869505e-002
1.348435e-002
1.087832e-002
9.761348e-003
9.376790e-003
9.297689e-003