# vtk DataFile Version 3.0
vtk output
ASCII
DATASET STRUCTURED_POINTS
DIMENSIONS 100 100 1
SPACING 1 1 1
ORIGIN 0 0 0
POINT_DATA 10000
SCALARS SFBox_profile double
LOOKUP_TABLE default 
0.000000e+000
0.000000e+000
0.000000e+000
0.000000e+000
0.000000e+000
0.000000e+000
0.000000e+000
0.000000e+000
0.000000e+000
0.000000e+000
0.000000e+000
0.000000e+000
0.000000e+000
0.000000e+000
0.000000e+000
0.000000e+000
0.000000e+000
0.000000e+000
0.000000e+000
0.000000e+000
0.000000e+000
0.000000e+000
0.000000e+000
0.000000e+000
0.000000e+000
0.000000e+000
0.000000e+000
0.000000e+000
0.000000e+000
0.000000e+000
0.000000e+000
0.000000e+000
0.000000e+000
0.000000e+000
0.000000e+000
0.000000e+000
0.000000e+000
0.000000e+000
0.000000e+000
0.000000e+000
0.000000e+000
0.000000e+000
0.000000e+000
0.000000e+000
0.000000e+000
0.000000e+000
0.000000e+000
0.000000e+000
0.000000e+000
0.000000e+000
0.000000e+000
0.000000e+000
0.000000e+000
0.000000e+000
0.000000e+000
0.000000e+000
0.000000e+000
0.000000e+000
0.000000e+000
0.000000e+000
0.000000e+000
0.000000e+000
0.000000e+000
0.000000e+000
0.000000e+000
0.000000e+000
0.000000e+000
0.000000e+000
0.000000e+000
0.000000e+000
0.000000e+000
0.000000e+000
0.000000e+000
0.000000e+000
0.000000e+000
0.000000e+000
0.000000e+000
0.000000e+000
0.000000e+000
0.000000e+000
0.000000e+000
0.000000e+000
0.000000e+000
0.000000e+000
0.000000e+000
0.000000e+000
0.000000e+000
0.000000e+000
0.000000e+000
0.000000e+000
0.000000e+000
0.000000e+000
0.000000e+000
0.000000e+000
0.000000e+000
0.000000e+000
0.000000e+000
0.000000e+000
0.000000e+000
0.000000e+000
1.591230e-009
6.362252e-010
-5.981480e-010
-1.324377e-009
-1.181967e-009
-4.264180e-010
3.400120e-010
6.551490e-010
5.088108e-010
2.495683e-010
2.016411e-010
3.494495e-010
3.759997e-010
1.188179e-011
-6.433893e-010
-1.149179e-009
-1.095121e-009
-4.745689e-010
2.978292e-010
7.484555e-010
7.442528e-010
5.520144e-010
5.186083e-010
7.072300e-010
8.543153e-010
6.702614e-010
1.539411e-010
-4.060774e-010
-7.261619e-010
-7.916593e-010
-8.180725e-010
-9.786951e-010
-1.212526e-009
-1.312958e-009
-1.173050e-009
-9.004848e-010
-6.853673e-010
-5.920803e-010
-5.167299e-010
-3.398795e-010
-7.662964e-011
1.506229e-010
2.646280e-010
3.148292e-010
3.973006e-010
5.288078e-010
6.360704e-010
6.612871e-010
6.365098e-010
6.318423e-010
6.557916e-010
6.462289e-010
5.615246e-010
4.423764e-010
3.556439e-010
2.966155e-010
1.888003e-010
-1.014973e-011
-2.382320e-010
-3.981500e-010
-4.830212e-010
-5.889390e-010
-7.839896e-010
-9.971181e-010
-1.080476e-009
-9.822154e-010
-8.145477e-010
-7.194017e-010
-6.877890e-010
-5.611599e-010
-2.295088e-010
2.059527e-010
5.111673e-010
5.626837e-010
4.759665e-010
4.615712e-010
5.672482e-010
6.047153e-010
3.576862e-010
-1.510058e-010
-6.304678e-010
-7.747500e-010
-5.395895e-010
-1.617031e-010
8.723097e-011
1.484894e-010
1.761562e-010
3.094660e-010
4.749611e-010
4.382148e-010
6.188081e-011
-4.910125e-010
-8.286231e-010
-6.408772e-010
1.470884e-011
7.088163e-010
9.425966e-010
5.262739e-010
-2.631344e-010
-8.725680e-010
1.501966e-010
1.263688e-012
-1.644556e-010
-1.986113e-010
-5.494416e-011
1.669859e-010
2.899385e-010
1.954438e-010
-7.331069e-011
-3.298762e-010
-3.823138e-010
-1.861232e-010
1.171767e-010
3.165327e-010
3.065313e-010
1.644769e-010
5.753946e-011
6.973980e-011
1.207625e-010
6.020057e-011
-1.588924e-010
-4.105353e-010
-5.094760e-010
-3.930861e-010
-1.797032e-010
-4.081995e-011
-2.467651e-011
-2.069594e-011
1.018073e-010
3.389996e-010
5.534204e-010
6.232923e-010
5.675681e-010
5.089094e-010
5.266324e-010
5.733810e-010
5.452240e-010
4.118325e-010
2.502244e-010
1.502952e-010
1.143474e-010
7.018241e-011
-2.908890e-011
-1.481499e-010
-2.208926e-010
-2.352229e-010
-2.408441e-010
-2.771575e-010
-3.220672e-010
-3.277947e-010
-2.895126e-010
-2.506863e-010
-2.393883e-010
-2.264555e-010
-1.660824e-010
-6.362672e-011
2.576612e-011
7.070434e-011
1.095532e-010
2.004804e-010
3.365506e-010
4.411638e-010
4.585028e-010
4.251747e-010
4.251111e-010
4.780781e-010
5.039633e-010
4.161244e-010
2.334768e-010
6.993899e-011
6.872716e-012
5.351604e-013
-6.049281e-011
-2.124456e-010
-3.581002e-010
-3.662270e-010
-2.172437e-010
-2.889434e-011
6.668490e-011
5.535744e-011
3.719067e-011
9.711788e-011
1.990523e-010
2.213563e-010
9.350545e-011
-1.145621e-010
-2.459087e-010
-1.992945e-010
-2.064003e-011
1.407880e-010
1.638064e-010
5.183914e-011
-8.427204e-011
-1.291412e-010
-5.594166e-011
6.338710e-011
1.266700e-010
8.463211e-011
-2.581907e-011
-1.161454e-010
-1.380130e-009
-6.161152e-010
3.939377e-010
1.046823e-009
1.055157e-009
5.738084e-010
-5.096507e-012
-3.822083e-010
-5.253168e-010
-5.739091e-010
-6.108963e-010
-5.461887e-010
-2.273141e-010
3.449841e-010
9.300783e-010
1.198361e-009
9.897404e-010
4.379450e-010
-1.524903e-010
-5.518376e-010
-7.428086e-010
-8.453770e-010
-9.395699e-010
-9.777280e-010
-8.564018e-010
-5.438563e-010
-1.197750e-010
2.994946e-010
6.522790e-010
9.442403e-010
1.191607e-009
1.376878e-009
1.464660e-009
1.444214e-009
1.340711e-009
1.187185e-009
9.987403e-010
7.786973e-010
5.391942e-010
3.033049e-010
8.728841e-011
-1.093768e-010
-2.919731e-010
-4.551827e-010
-5.867682e-010
-6.836706e-010
-7.557584e-010
-8.112643e-010
-8.452581e-010
-8.479699e-010
-8.203045e-010
-7.731106e-010
-7.108316e-010
-6.238303e-010
-5.016714e-010
-3.488292e-010
-1.799008e-010
-9.417327e-013
1.955176e-010
4.131425e-010
6.360598e-010
8.374858e-010
1.001129e-009
1.125285e-009
1.204646e-009
1.218187e-009
1.144107e-009
9.834749e-010
7.594110e-010
4.925018e-010
1.888717e-010
-1.385647e-010
-4.449869e-010
-6.672300e-010
-7.695093e-010
-7.655507e-010
-6.838553e-010
-5.176461e-010
-2.319710e-010
1.635249e-010
5.574220e-010
7.783552e-010
7.172489e-010
4.160045e-010
3.318924e-011
-2.783823e-010
-4.592925e-010
-5.201050e-010
-4.592311e-010
-2.393096e-010
1.348673e-010
5.265623e-010
6.959919e-010
4.704571e-010
-7.743189e-011
-6.198976e-010
-7.818627e-010
-4.234959e-010
2.299497e-010
7.312068e-010
-1.627600e-009
-6.042295e-010
6.805048e-010
1.359628e-009
1.084307e-009
2.148992e-010
-5.340509e-010
-6.808585e-010
-3.135993e-010
7.805625e-011
9.509461e-011
-2.089593e-010
-4.186485e-010
-1.965652e-010
3.591967e-010
7.899000e-010
7.107690e-010
1.787311e-010
-3.661178e-010
-5.197875e-010
-2.746592e-010
2.451535e-011
5.589200e-011
-1.698665e-010
-3.653150e-010
-2.926107e-010
-1.402105e-012
2.525807e-010
2.860838e-010
1.541998e-010
4.996958e-011
8.101719e-011
1.740904e-010
1.868970e-010
7.548792e-011
-7.034503e-011
-1.407780e-010
-1.227567e-010
-9.361280e-011
-1.191652e-010
-1.836665e-010
-2.230450e-010
-2.066966e-010
-1.676010e-010
-1.547839e-010
-1.749689e-010
-1.930606e-010
-1.824504e-010
-1.578383e-010
-1.521259e-010
-1.718760e-010
-1.902604e-010
-1.849392e-010
-1.689973e-010
-1.724168e-010
-1.977848e-010
-2.108941e-010
-1.833170e-010
-1.329117e-010
-1.043965e-010
-1.084559e-010
-9.910885e-011
-2.844886e-011
8.351211e-011
1.580300e-010
1.478495e-010
1.006029e-010
1.059151e-010
1.781503e-010
2.206814e-010
1.327910e-010
-5.701117e-011
-1.991888e-010
-1.840612e-010
-7.527812e-011
-4.699206e-011
-1.775883e-010
-3.337062e-010
-2.949618e-010
-4.521263e-014
3.566662e-010
4.986870e-010
3.371253e-010
5.054000e-011
-1.104727e-010
-8.286664e-011
-3.480085e-011
-1.473860e-010
-3.739753e-010
-4.483228e-010
-1.560211e-010
3.972635e-010
8.052095e-010
6.859287e-010
3.555339e-011
-7.124295e-010
-9.985632e-010
-5.775489e-010
2.707320e-010
9.367162e-010
-4.871430e-010
-2.369989e-011
4.847530e-010
5.784570e-010
1.322707e-010
-5.255922e-010
-8.546807e-010
-5.323684e-010
2.635949e-010
9.653975e-010
1.054431e-009
4.765082e-010
-3.248546e-010
-7.944705e-010
-7.283489e-010
-3.922562e-010
-1.986719e-010
-2.740748e-010
-3.535443e-010
-1.001628e-010
4.960435e-010
1.066334e-009
1.214372e-009
8.973178e-010
4.387022e-010
1.755464e-010
1.277501e-010
3.228184e-011
-3.250907e-010
-8.600763e-010
-1.283444e-009
-1.407441e-009
-1.316367e-009
-1.232883e-009
-1.259026e-009
-1.287902e-009
-1.160939e-009
-8.648812e-010
-5.421312e-010
-3.244252e-010
-1.991334e-010
-5.610345e-011
1.619428e-010
3.935772e-010
5.442384e-010
6.022466e-010
6.405852e-010
7.142518e-010
7.918219e-010
8.051915e-010
7.439608e-010
6.669110e-010
6.180359e-010
5.634561e-010
4.373174e-010
2.365286e-010
3.382232e-011
-1.152137e-010
-2.489604e-010
-4.497559e-010
-7.221296e-010
-9.603545e-010
-1.062254e-009
-1.053138e-009
-1.054114e-009
-1.119262e-009
-1.144360e-009
-9.784675e-010
-6.178544e-010
-2.410435e-010
-2.230188e-011
6.387856e-011
2.044196e-010
5.037220e-010
8.188563e-010
8.835839e-010
5.974532e-010
1.532184e-010
-1.505021e-010
-2.075443e-010
-1.810542e-010
-2.764949e-010
-4.729415e-010
-5.235005e-010
-2.351501e-010
2.755932e-010
6.383348e-010
5.582480e-010
9.699716e-011
-3.704792e-010
-4.817905e-010
-1.912221e-010
2.151403e-010
3.850176e-010
1.968038e-010
-1.618972e-010
-3.752852e-010
-2.670204e-010
6.617728e-011
3.469979e-010
9.086895e-010
4.976095e-010
-8.014497e-011
-5.463036e-010
-7.556116e-010
-7.120228e-010
-4.676340e-010
-5.338428e-011
4.706645e-010
9.265951e-010
1.051411e-009
6.891057e-010
-2.539839e-011
-7.062932e-010
-9.960351e-010
-8.399357e-010
-4.870871e-010
-2.162813e-010
-7.353547e-011
1.065719e-010
4.392593e-010
7.999833e-010
9.323534e-010
7.305880e-010
3.661996e-010
1.066962e-010
3.216117e-011
-2.583329e-011
-2.585795e-010
-6.357350e-010
-9.253594e-010
-9.483737e-010
-7.680283e-010
-6.017377e-010
-5.714064e-010
-5.864718e-010
-4.815423e-010
-2.275993e-010
3.574732e-011
1.699512e-010
1.921581e-010
2.330558e-010
3.660726e-010
5.249948e-010
6.013075e-010
5.844282e-010
5.659567e-010
6.137918e-010
6.872655e-010
7.007027e-010
6.428993e-010
5.897703e-010
5.956408e-010
6.139822e-010
5.584983e-010
4.233369e-010
2.961159e-010
2.391255e-010
1.967825e-010
6.211037e-011
-1.753895e-010
-3.969946e-010
-4.929014e-010
-4.997253e-010
-5.525986e-010
-7.003850e-010
-8.185178e-010
-7.439606e-010
-4.765646e-010
-1.947951e-010
-5.475261e-011
-1.231132e-011
1.110939e-010
3.926223e-010
6.861548e-010
7.654745e-010
5.671492e-010
2.503860e-010
1.118427e-011
-1.227966e-010
-2.760609e-010
-5.168116e-010
-7.139251e-010
-6.401223e-010
-2.178656e-010
3.579609e-010
7.536601e-010
7.541062e-010
4.034837e-010
-6.993069e-011
-4.338482e-010
-5.675021e-010
-4.600612e-010
-1.670049e-010
2.015225e-010
4.810470e-010
5.094259e-010
2.401184e-010
-1.853295e-010
-5.021083e-010
1.385384e-009
4.612802e-010
-6.462042e-010
-1.137333e-009
-7.726320e-010
9.904890e-012
5.351996e-010
4.730832e-010
5.296685e-011
-2.383816e-010
-1.475897e-010
1.441880e-010
2.731662e-010
1.014161e-010
-1.529239e-010
-1.812317e-010
6.392219e-011
3.176773e-010
2.933532e-010
-1.874551e-011
-3.652460e-010
-5.118251e-010
-4.606561e-010
-3.789063e-010
-3.642940e-010
-3.418030e-010
-1.929495e-010
7.259293e-011
3.244749e-010
4.749710e-010
5.780275e-010
7.384231e-010
9.556709e-010
1.108308e-009
1.098836e-009
9.725700e-010
8.596777e-010
8.168681e-010
7.698021e-010
6.236421e-010
3.943771e-010
1.932413e-010
9.039254e-011
3.701125e-011
-5.779673e-011
-2.025771e-010
-3.152788e-010
-3.355210e-010
-3.027019e-010
-2.967369e-010
-3.261772e-010
-3.178627e-010
-2.210784e-010
-8.126193e-011
2.020993e-011
7.840885e-011
1.724774e-010
3.527652e-010
5.596513e-010
6.893608e-010
7.240860e-010
7.511664e-010
8.398244e-010
9.367019e-010
9.231980e-010
7.659924e-010
5.653626e-010
4.351235e-010
3.669808e-010
2.535827e-010
3.931337e-011
-1.963910e-010
-3.285597e-010
-3.303762e-010
-2.867340e-010
-2.680313e-010
-2.374197e-010
-1.168171e-010
7.661693e-011
2.105226e-010
1.745010e-010
1.082647e-011
-1.245575e-010
-1.274274e-010
-3.994225e-011
3.142608e-011
5.967771e-011
1.133513e-010
2.222861e-010
2.739259e-010
1.047248e-010
-2.816281e-010
-6.199715e-010
-5.703083e-010
-4.891077e-011
6.185881e-010
9.120337e-010
5.479308e-010
-2.486735e-010
-8.906101e-010
7.744534e-010
3.359258e-012
-8.118995e-010
-9.054472e-010
-1.284246e-010
9.093974e-010
1.333567e-009
7.352426e-010
-4.736045e-010
-1.392478e-009
-1.374846e-009
-5.338149e-010
4.267665e-010
8.707787e-010
7.430959e-010
4.742270e-010
4.375348e-010
5.556522e-010
4.501988e-010
-7.643314e-011
-7.806960e-010
-1.212958e-009
-1.162134e-009
-8.186469e-010
-5.147505e-010
-3.716037e-010
-2.391628e-010
5.954807e-011
5.023305e-010
9.063193e-010
1.137327e-009
1.221363e-009
1.255093e-009
1.266752e-009
1.205274e-009
1.040748e-009
8.213819e-010
6.157232e-010
4.334965e-010
2.364078e-010
1.443539e-011
-1.866938e-010
-3.245697e-010
-4.176072e-010
-5.170144e-010
-6.330904e-010
-7.209854e-010
-7.458389e-010
-7.339380e-010
-7.363982e-010
-7.565782e-010
-7.446611e-010
-6.678181e-010
-5.564788e-010
-4.602557e-010
-3.754905e-010
-2.481314e-010
-4.992086e-011
1.785085e-010
3.783869e-010
5.456250e-010
7.223790e-010
9.195787e-010
1.081778e-009
1.146256e-009
1.113545e-009
1.029647e-009
9.081190e-010
7.099557e-010
4.167295e-010
9.066952e-011
-1.776487e-010
-3.733881e-010
-5.622622e-010
-7.684708e-010
-8.841697e-010
-7.563347e-010
-3.738820e-010
7.471841e-011
3.679462e-010
4.602635e-010
4.826351e-010
5.293478e-010
4.983741e-010
2.073860e-010
-3.248801e-010
-7.730218e-010
-7.540395e-010
-2.140432e-010
4.532586e-010
7.178033e-010
3.822080e-010
-2.360106e-010
-5.872471e-010
-3.779213e-010
1.803340e-010
5.747454e-010
4.518344e-010
-7.764036e-011
-5.469126e-010
-1.827557e-010
-3.266345e-010
-4.010147e-010
-1.747702e-010
3.711909e-010
9.411098e-010
1.079011e-009
5.284816e-010
-4.758026e-010
-1.287932e-009
-1.324209e-009
-5.607657e-010
4.156524e-010
9.019901e-010
6.813982e-010
1.566206e-010
-1.087197e-010
4.187835e-011
2.673917e-010
1.759942e-010
-2.136461e-010
-5.070641e-010
-3.953328e-010
8.789659e-013
2.836471e-010
2.222174e-010
-2.656968e-011
-1.423131e-010
-1.311728e-011
1.713237e-010
1.694136e-010
-4.418944e-011
-2.873411e-010
-3.971540e-010
-3.863785e-010
-3.753950e-010
-4.266919e-010
-4.886527e-010
-4.836312e-010
-4.031462e-010
-3.003141e-010
-2.175383e-010
-1.513483e-010
-8.149525e-011
-6.360023e-012
6.033965e-011
1.108981e-010
1.462364e-010
1.639713e-010
1.584383e-010
1.321182e-010
9.485246e-011
4.899123e-011
-1.377862e-011
-9.524592e-011
-1.805271e-010
-2.546549e-010
-3.207791e-010
-3.866702e-010
-4.368302e-010
-4.396810e-010
-3.910328e-010
-3.299025e-010
-2.891523e-010
-2.423018e-010
-1.341625e-010
2.677116e-011
1.425811e-010
1.298259e-010
3.641753e-011
4.553235e-012
9.491549e-011
1.866393e-010
1.051545e-010
-1.521117e-010
-3.730275e-010
-3.514241e-010
-1.225522e-010
7.765080e-011
9.597885e-011
4.751368e-011
1.620687e-010
4.582109e-010
6.424275e-010
3.929816e-010
-2.577438e-010
-8.686125e-010
-9.552230e-010
-4.261988e-010
3.323892e-010
7.909165e-010
6.992609e-010
2.273347e-010
-2.444077e-010
-4.422493e-010
-3.501107e-010
-1.290903e-010
5.679487e-011
1.464517e-010
1.691109e-010
-7.478889e-010
-2.129808e-010
3.802543e-010
5.699885e-010
3.091105e-010
-6.175750e-011
-1.988833e-010
-7.936707e-011
5.780568e-011
4.283328e-011
-2.800163e-011
3.984024e-011
2.265626e-010
2.541788e-010
-9.096547e-011
-6.386671e-010
-9.309684e-010
-6.751472e-010
-5.476199e-011
4.637941e-010
6.150594e-010
5.596253e-010
6.140864e-010
8.333600e-010
9.465338e-010
7.007503e-010
1.787398e-010
-2.890369e-010
-4.932398e-010
-5.474856e-010
-7.036154e-010
-1.028896e-009
-1.329997e-009
-1.384849e-009
-1.184489e-009
-9.124463e-010
-7.221310e-010
-5.898614e-010
-3.915518e-010
-7.605800e-011
2.765049e-010
5.551136e-010
7.352443e-010
8.803640e-010
1.048932e-009
1.227660e-009
1.358441e-009
1.410902e-009
1.412214e-009
1.407585e-009
1.404510e-009
1.365795e-009
1.257042e-009
1.091208e-009
9.147225e-010
7.482991e-010
5.562280e-010
2.918252e-010
-2.908224e-011
-3.243302e-010
-5.319510e-010
-6.839918e-010
-8.603212e-010
-1.063679e-009
-1.178846e-009
-1.093848e-009
-8.486436e-010
-6.122816e-010
-4.895910e-010
-3.897608e-010
-1.396487e-010
2.769186e-010
6.523963e-010
7.658857e-010
6.275028e-010
4.535088e-010
3.941570e-010
3.509261e-010
1.207377e-010
-3.006443e-010
-6.359926e-010
-5.922431e-010
-1.840703e-010
2.542470e-010
3.864007e-010
1.760018e-010
-1.308594e-010
-2.779180e-010
-2.097065e-010
-3.407540e-011
1.431335e-010
2.845873e-010
3.490044e-010
2.447627e-010
-7.092693e-011
-4.550861e-010
-6.152527e-010
-3.544398e-010
2.016726e-010
6.543619e-010
-8.011066e-010
1.111830e-010
1.018776e-009
1.011117e-009
1.365323e-011
-1.144913e-009
-1.472978e-009
-6.879132e-010
5.683629e-010
1.339930e-009
1.187615e-009
4.573631e-010
-1.961950e-010
-4.628326e-010
-5.282393e-010
-6.637788e-010
-8.181263e-010
-6.999261e-010
-2.013208e-010
3.985567e-010
7.107754e-010
6.477379e-010
4.693014e-010
4.335659e-010
5.011108e-010
4.402811e-010
1.623035e-010
-1.519289e-010
-2.757888e-010
-2.054378e-010
-1.342168e-010
-1.855909e-010
-2.541082e-010
-1.457934e-010
1.731057e-010
5.298575e-010
7.448163e-010
8.224674e-010
9.121194e-010
1.108712e-009
1.343497e-009
1.481386e-009
1.487020e-009
1.456946e-009
1.494588e-009
1.591457e-009
1.653736e-009
1.628164e-009
1.567214e-009
1.558675e-009
1.613839e-009
1.655179e-009
1.617010e-009
1.530078e-009
1.479745e-009
1.487697e-009
1.470439e-009
1.337083e-009
1.108105e-009
8.972690e-010
7.675499e-010
6.438940e-010
4.088518e-010
7.264452e-011
-2.048238e-010
-2.881800e-010
-2.276665e-010
-1.956000e-010
-2.659460e-010
-3.153767e-010
-1.809961e-010
1.192912e-010
3.878665e-010
4.751218e-010
4.439646e-010
4.574990e-010
5.344717e-010
4.951992e-010
1.822008e-010
-3.133794e-010
-7.033057e-010
-7.736703e-010
-5.565860e-010
-2.266504e-010
1.039819e-010
4.185594e-010
6.504362e-010
6.202331e-010
2.161607e-010
-3.737509e-010
-7.119271e-010
-4.893220e-010
1.314006e-010
6.045981e-010
4.946018e-010
-9.617940e-011
-6.046616e-010
-5.384301e-010
4.895669e-011
6.046774e-010
-6.033086e-010
2.107144e-010
1.021723e-009
9.832291e-010
-2.213008e-011
-1.232614e-009
-1.625367e-009
-8.087979e-010
5.962053e-010
1.471317e-009
1.180555e-009
1.081971e-010
-7.570321e-010
-7.684653e-010
-1.519495e-010
3.650265e-010
3.524687e-010
2.922189e-011
-1.344236e-010
-9.419974e-012
1.034443e-010
-8.132636e-011
-4.551265e-010
-6.538103e-010
-4.933617e-010
-1.494012e-010
1.013752e-010
2.119072e-010
3.638929e-010
6.888764e-010
1.096223e-009
1.406117e-009
1.577252e-009
1.725899e-009
1.935486e-009
2.127311e-009
2.160932e-009
2.021387e-009
1.844788e-009
1.753837e-009
1.718752e-009
1.616490e-009
1.402951e-009
1.175636e-009
1.053237e-009
1.032334e-009
1.003108e-009
8.980101e-010
7.798566e-010
7.586339e-010
8.481112e-010
9.492422e-010
9.815759e-010
9.903389e-010
1.086493e-009
1.294878e-009
1.509993e-009
1.622626e-009
1.654649e-009
1.721261e-009
1.863755e-009
1.972823e-009
1.912110e-009
1.688097e-009
1.443324e-009
1.277215e-009
1.128246e-009
8.734958e-010
5.120909e-010
1.842448e-010
-1.841379e-012
-9.987982e-011
-2.314616e-010
-3.940722e-010
-4.402333e-010
-2.715361e-010
5.997817e-012
1.807091e-010
1.687218e-010
7.842105e-011
2.728821e-011
-2.736355e-011
-1.927209e-010
-3.984622e-010
-3.686437e-010
7.152999e-011
6.866073e-010
9.394725e-010
4.951348e-010
-3.854080e-010
-1.012148e-009
-8.767127e-010
-1.176256e-010
6.146785e-010
7.536495e-010
2.976610e-010
-2.559856e-010
-4.156095e-010
-1.367091e-010
1.974454e-010
-2.473267e-010
-3.308723e-012
3.018051e-010
4.134861e-010
1.865549e-010
-2.444810e-010
-5.069210e-010
-3.126731e-010
1.971483e-010
4.925932e-010
1.598469e-010
-5.960118e-010
-1.040979e-009
-6.123015e-010
4.647693e-010
1.336977e-009
1.339857e-009
6.121630e-010
-1.370830e-010
-4.048360e-010
-3.304222e-010
-3.645552e-010
-6.525277e-010
-8.815706e-010
-7.086236e-010
-1.851809e-010
3.295488e-010
6.023787e-010
7.487347e-010
1.012800e-009
1.434456e-009
1.817770e-009
1.988672e-009
1.982665e-009
1.948821e-009
1.941491e-009
1.882089e-009
1.710397e-009
1.493834e-009
1.346496e-009
1.281673e-009
1.205018e-009
1.053753e-009
8.877183e-010
8.087007e-010
8.203839e-010
8.208056e-010
7.382930e-010
6.273857e-010
5.949629e-010
6.557772e-010
7.125519e-010
6.887531e-010
6.356329e-010
6.679230e-010
8.130220e-010
9.766069e-010
1.071294e-009
1.133353e-009
1.267299e-009
1.492617e-009
1.701994e-009
1.788666e-009
1.768132e-009
1.728570e-009
1.685296e-009
1.550996e-009
1.268561e-009
9.148221e-010
6.147017e-010
3.763941e-010
8.789309e-011
-2.988807e-010
-6.456499e-010
-7.573775e-010
-6.131972e-010
-3.876249e-010
-2.179239e-010
-2.967392e-011
3.179617e-010
7.356070e-010
8.743189e-010
4.839908e-010
-2.294391e-010
-7.077148e-010
-5.608930e-010
3.711208e-011
5.125782e-010
4.485454e-010
-4.305828e-011
-4.846001e-010
-5.106189e-010
-1.625167e-010
2.345926e-010
4.048121e-010
3.152282e-010
1.099462e-010
-6.486210e-011
-1.573275e-010
-1.884194e-010
3.858896e-010
-1.960037e-010
-6.997565e-010
-5.386870e-010
2.086828e-010
8.917560e-010
9.387935e-010
3.771511e-010
-2.916086e-010
-6.544368e-010
-7.212027e-010
-6.983575e-010
-5.848268e-010
-1.737537e-010
5.336698e-010
1.102052e-009
1.031186e-009
3.413970e-010
-3.625424e-010
-4.959491e-010
-8.754891e-011
3.257709e-010
3.505175e-010
1.447010e-010
1.370196e-010
4.670216e-010
8.449747e-010
9.481517e-010
8.093270e-010
7.278655e-010
8.710990e-010
1.088699e-009
1.135848e-009
9.789967e-010
8.052529e-010
7.724276e-010
8.437331e-010
8.881045e-010
8.683633e-010
8.635249e-010
9.301347e-010
1.017827e-009
1.048608e-009
1.029428e-009
1.033612e-009
1.085881e-009
1.122703e-009
1.085168e-009
1.008223e-009
9.754265e-010
1.001895e-009
1.012170e-009
9.457851e-010
8.419115e-010
7.837376e-010
7.824706e-010
7.663471e-010
6.891780e-010
6.011719e-010
5.797877e-010
6.223469e-010
6.585274e-010
6.631059e-010
6.956247e-010
7.978515e-010
8.998820e-010
8.923127e-010
7.819493e-010
7.022416e-010
7.340279e-010
7.727380e-010
6.468399e-010
3.536944e-010
9.033680e-011
1.037524e-011
2.120248e-011
-8.409301e-011
-3.054605e-010
-3.598612e-010
-6.700290e-012
5.940903e-010
9.535086e-010
7.240467e-010
5.495032e-011
-5.584440e-010
-7.441684e-010
-5.262519e-010
-1.708516e-010
1.226147e-010
3.141782e-010
3.874524e-010
2.721403e-010
-3.024602e-011
-3.207428e-010
-3.305985e-010
-1.859130e-011
3.233036e-010
3.407061e-010
-3.196350e-013
-3.543668e-010
1.158412e-009
-7.048279e-011
-1.309179e-009
-1.358332e-009
-1.390619e-010
1.255522e-009
1.594502e-009
6.478947e-010
-6.603190e-010
-1.201783e-009
-7.032139e-010
1.457502e-010
5.356384e-010
3.273617e-010
-2.884740e-011
-1.738549e-010
-2.035481e-010
-3.388192e-010
-4.680547e-010
-2.395012e-010
4.252694e-010
1.123416e-009
1.387507e-009
1.207427e-009
9.973744e-010
1.070107e-009
1.293368e-009
1.326502e-009
1.081448e-009
8.122646e-010
7.652380e-010
8.770950e-010
8.922290e-010
7.031146e-010
4.637582e-010
3.644715e-010
3.900785e-010
3.594184e-010
1.547500e-010
-1.671363e-010
-4.906314e-010
-7.927974e-010
-1.134371e-009
-1.539287e-009
-1.947024e-009
-2.288444e-009
-2.557263e-009
-2.777454e-009
-2.932557e-009
-2.971269e-009
-2.876699e-009
-2.688657e-009
-2.445865e-009
-2.141270e-009
-1.761125e-009
-1.343481e-009
-9.571964e-010
-6.275988e-010
-3.259634e-010
-4.534096e-011
1.582740e-010
2.416052e-010
2.643506e-010
3.412614e-010
4.939318e-010
6.105481e-010
5.983201e-010
5.351863e-010
5.939831e-010
8.125193e-010
1.019224e-009
1.040488e-009
9.272611e-010
8.815681e-010
9.559421e-010
9.301245e-010
5.682377e-010
-4.268207e-011
-5.128622e-010
-5.369495e-010
-1.972971e-010
1.603328e-010
2.934677e-010
2.244858e-010
7.028966e-011
-1.444984e-010
-4.113466e-010
-5.575341e-010
-3.236806e-010
2.905712e-010
8.502592e-010
8.161802e-010
1.170985e-010
-6.798761e-010
-8.722283e-010
-3.201998e-010
4.041443e-010
6.014621e-010
1.577848e-010
-3.679398e-010
1.464962e-009
2.312782e-010
-1.120317e-009
-1.425241e-009
-4.819400e-010
7.760739e-010
1.144555e-009
3.032814e-010
-8.504433e-010
-1.084083e-009
-8.853391e-011
1.189672e-009
1.515218e-009
6.053464e-010
-6.706308e-010
-1.268545e-009
-9.698925e-010
-3.515580e-010
4.435524e-011
2.509003e-010
5.783753e-010
1.043493e-009
1.329535e-009
1.260248e-009
1.077868e-009
1.142054e-009
1.476442e-009
1.765413e-009
1.769928e-009
1.592951e-009
1.475261e-009
1.437702e-009
1.245377e-009
7.012828e-010
-1.446254e-010
-1.124866e-009
-2.211220e-009
-3.551002e-009
-5.259473e-009
-7.257086e-009
-9.345651e-009
-1.139426e-008
-1.339547e-008
-1.535730e-008
-1.720290e-008
-1.879992e-008
-2.005195e-008
-2.092763e-008
-2.141735e-008
-2.149943e-008
-2.115248e-008
-2.037412e-008
-1.917899e-008
-1.760284e-008
-1.572352e-008
-1.365571e-008
-1.149866e-008
-9.302466e-009
-7.117120e-009
-5.065319e-009
-3.313077e-009
-1.938463e-009
-8.653899e-010
2.417887e-011
7.283759e-010
1.138567e-009
1.228860e-009
1.163895e-009
1.151312e-009
1.215074e-009
1.201200e-009
1.027544e-009
8.420015e-010
8.522027e-010
1.032646e-009
1.104749e-009
8.414717e-010
3.198995e-010
-1.856692e-010
-5.016642e-010
-6.454083e-010
-6.371455e-010
-3.792426e-010
1.551847e-010
6.808194e-010
7.402612e-010
1.947806e-010
-5.025530e-010
-6.769397e-010
-1.303229e-010
6.010151e-010
7.674704e-010
1.804966e-010
-5.881674e-010
-7.974575e-010
-2.880373e-010
3.885049e-010
5.677549e-010
1.497777e-010
-3.403316e-010
7.581606e-010
3.010653e-010
-2.738844e-010
-5.494041e-010
-3.558234e-010
4.200310e-011
1.475544e-010
-2.455975e-010
-7.223183e-010
-5.844339e-010
3.518246e-010
1.369564e-009
1.461410e-009
4.059847e-010
-8.906065e-010
-1.267139e-009
-4.803068e-010
6.212015e-010
1.072148e-009
7.571813e-010
3.226216e-010
3.088321e-010
6.220169e-010
8.692928e-010
9.550846e-010
1.135655e-009
1.561228e-009
1.993372e-009
2.054866e-009
1.621179e-009
8.275396e-010
-2.639162e-010
-1.854697e-009
-4.222885e-009
-7.441603e-009
-1.136736e-008
-1.586316e-008
-2.092636e-008
-2.656684e-008
-3.263181e-008
-3.882081e-008
-4.486081e-008
-5.061413e-008
-5.600855e-008
-6.091107e-008
-6.510868e-008
-6.839943e-008
-7.067216e-008
-7.189770e-008
-7.206724e-008
-7.115105e-008
-6.910911e-008
-6.594016e-008
-6.173258e-008
-5.666939e-008
-5.096660e-008
-4.479882e-008
-3.830511e-008
-3.168217e-008
-2.524079e-008
-1.931514e-008
-1.410095e-008
-9.617859e-009
-5.849206e-009
-2.870346e-009
-7.770681e-010
4.972890e-010
1.208147e-009
1.597042e-009
1.713087e-009
1.502926e-009
1.050336e-009
6.247734e-010
4.488308e-010
4.883435e-010
5.486366e-010
5.363121e-010
5.152113e-010
4.944248e-010
3.064416e-010
-1.647703e-010
-6.776938e-010
-7.399084e-010
-1.372362e-010
7.116404e-010
1.074089e-009
6.255436e-010
-2.116574e-010
-6.999810e-010
-5.163123e-010
7.298529e-013
2.903356e-010
1.538656e-010
-1.324205e-010
-2.030589e-010
1.276788e-012
2.285609e-010
2.251790e-010
-5.305196e-012
-2.305985e-010
-7.212320e-010
-6.541077e-012
7.053512e-010
7.550983e-010
1.578412e-010
-4.951651e-010
-6.854895e-010
-4.291619e-010
-8.743298e-011
1.292979e-010
2.913417e-010
4.225209e-010
3.123378e-010
-1.474553e-010
-5.713289e-010
-3.394640e-010
6.398933e-010
1.633139e-009
1.771331e-009
9.993173e-010
1.477003e-010
2.940046e-011
6.345975e-010
1.311832e-009
1.576629e-009
1.507901e-009
1.353509e-009
9.840563e-010
-9.876557e-011
-2.310063e-009
-5.730876e-009
-1.032858e-008
-1.626330e-008
-2.384408e-008
-3.321992e-008
-4.422215e-008
-5.652281e-008
-6.985459e-008
-8.401385e-008
-9.870159e-008
-1.134598e-007
-1.277968e-007
-1.413356e-007
-1.538101e-007
-1.649451e-007
-1.743915e-007
-1.817947e-007
-1.869073e-007
-1.896219e-007
-1.899009e-007
-1.876955e-007
-1.829456e-007
-1.756672e-007
-1.660396e-007
-1.543968e-007
-1.411246e-007
-1.265765e-007
-1.111109e-007
-9.520000e-008
-7.944808e-008
-6.445026e-008
-5.062971e-008
-3.823657e-008
-2.748232e-008
-1.859272e-008
-1.167374e-008
-6.568052e-009
-2.931322e-009
-4.704872e-010
9.513959e-010
1.468753e-009
1.385352e-009
1.087530e-009
7.955142e-010
5.075244e-010
2.309126e-010
1.557183e-010
4.606286e-010
9.693661e-010
1.176418e-009
7.457678e-010
-6.260043e-011
-5.910662e-010
-4.417219e-010
1.369033e-010
5.520399e-010
4.754867e-010
7.717183e-011
-2.790414e-010
-4.166088e-010
-3.794372e-010
-2.266488e-010
3.684461e-011
3.267716e-010
4.354988e-010
2.388362e-010
-1.023698e-010
-2.691144e-010
-1.393402e-010
6.898853e-011
-1.945927e-009
-3.626498e-010
1.313946e-009
1.624585e-009
4.716421e-010
-8.732264e-010
-1.085116e-009
-9.923913e-011
9.301281e-010
9.283637e-010
-1.115956e-011
-8.988198e-010
-9.996898e-010
-4.521567e-010
2.011680e-010
7.243010e-010
1.196779e-009
1.539651e-009
1.452752e-009
9.275570e-010
5.223009e-010
8.387004e-010
1.776713e-009
2.529440e-009
2.344362e-009
1.097305e-009
-9.907020e-010
-4.050971e-009
-8.781864e-009
-1.599051e-008