# vtk DataFile Version 3.0
vtk output
ASCII
DATASET STRUCTURED_POINTS
DIMENSIONS 100 100 1
SPACING 1 1 1
ORIGIN 0 0 0
POINT_DATA 10000
SCALARS SFBox_profile double
LOOKUP_TABLE default 
9.439931e-003
9.439927e-003
9.439920e-003
9.439914e-003
9.439911e-003
9.439912e-003
9.439917e-003
9.439922e-003
9.439926e-003
9.439927e-003
9.439925e-003
9.439921e-003
9.439918e-003
9.439916e-003
9.439917e-003
9.439919e-003
9.439921e-003
9.439921e-003
9.439920e-003
9.439918e-003
9.439918e-003
9.439919e-003
9.439921e-003
9.439923e-003
9.439923e-003
9.439923e-003
9.439921e-003
9.439920e-003
9.439920e-003
9.439921e-003
9.439922e-003
9.439922e-003
9.439921e-003
9.439919e-003
9.439918e-003
9.439918e-003
9.439918e-003
9.439919e-003
9.439919e-003
9.439919e-003
9.439918e-003
9.439918e-003
9.439919e-003
9.439919e-003
9.439920e-003
9.439920e-003
9.439920e-003
9.439920e-003
9.439920e-003
9.439920e-003
9.439920e-003
9.439920e-003
9.439920e-003
9.439920e-003
9.439920e-003
9.439920e-003
9.439920e-003
9.439919e-003
9.439918e-003
9.439918e-003
9.439919e-003
9.439919e-003
9.439919e-003
9.439919e-003
9.439918e-003
9.439918e-003
9.439918e-003
9.439919e-003
9.439921e-003
9.439921e-003
9.439921e-003
9.439920e-003
9.439919e-003
9.439920e-003
9.439921e-003
9.439923e-003
9.439923e-003
9.439922e-003
9.439920e-003
9.439919e-003
9.439918e-003
9.439919e-003
9.439920e-003
9.439921e-003
9.439920e-003
9.439918e-003
9.439917e-003
9.439918e-003
9.439920e-003
9.439922e-003
9.439924e-003
9.439924e-003
9.439922e-003
9.439919e-003
9.439916e-003
9.439915e-003
9.439917e-003
9.439919e-003
9.439922e-003
9.439924e-003
9.439931e-003
9.439927e-003
9.439920e-003
9.439914e-003
9.439911e-003
9.439912e-003
9.439917e-003
9.439922e-003
9.439926e-003
9.439927e-003
9.439925e-003
9.439921e-003
9.439918e-003
9.439916e-003
9.439917e-003
9.439919e-003
9.439921e-003
9.439921e-003
9.439920e-003
9.439918e-003
9.439918e-003
9.439919e-003
9.439921e-003
9.439923e-003
9.439923e-003
9.439923e-003
9.439921e-003
9.439920e-003
9.439920e-003
9.439921e-003
9.439922e-003
9.439922e-003
9.439921e-003
9.439919e-003
9.439918e-003
9.439918e-003
9.439918e-003
9.439919e-003
9.439919e-003
9.439919e-003
9.439918e-003
9.439918e-003
9.439919e-003
9.439919e-003
9.439920e-003
9.439920e-003
9.439920e-003
9.439920e-003
9.439920e-003
9.439920e-003
9.439920e-003
9.439920e-003
9.439920e-003
9.439920e-003
9.439920e-003
9.439920e-003
9.439920e-003
9.439919e-003
9.439918e-003
9.439918e-003
9.439919e-003
9.439919e-003
9.439919e-003
9.439919e-003
9.439918e-003
9.439918e-003
9.439918e-003
9.439919e-003
9.439921e-003
9.439921e-003
9.439921e-003
9.439920e-003
9.439919e-003
9.439920e-003
9.439921e-003
9.439923e-003
9.439923e-003
9.439922e-003
9.439920e-003
9.439919e-003
9.439918e-003
9.439919e-003
9.439920e-003
9.439921e-003
9.439920e-003
9.439918e-003
9.439917e-003
9.439918e-003
9.439920e-003
9.439922e-003
9.439924e-003
9.439924e-003
9.439922e-003
9.439919e-003
9.439916e-003
9.439915e-003
9.439917e-003
9.439919e-003
9.439922e-003
9.439924e-003
9.439925e-003
9.439923e-003
9.439920e-003
9.439918e-003
9.439916e-003
9.439917e-003
9.439918e-003
9.439921e-003
9.439922e-003
9.439923e-003
9.439922e-003
9.439920e-003
9.439919e-003
9.439918e-003
9.439919e-003
9.439920e-003
9.439921e-003
9.439921e-003
9.439920e-003
9.439919e-003
9.439918e-003
9.439918e-003
9.439920e-003
9.439921e-003
9.439921e-003
9.439921e-003
9.439920e-003
9.439920e-003
9.439920e-003
9.439921e-003
9.439921e-003
9.439922e-003
9.439921e-003
9.439921e-003
9.439920e-003
9.439920e-003
9.439921e-003
9.439921e-003
9.439921e-003
9.439921e-003
9.439921e-003
9.439921e-003
9.439921e-003
9.439921e-003
9.439922e-003
9.439922e-003
9.439922e-003
9.439922e-003
9.439922e-003
9.439922e-003
9.439922e-003
9.439922e-003
9.439921e-003
9.439922e-003
9.439922e-003
9.439922e-003
9.439922e-003
9.439921e-003
9.439921e-003
9.439921e-003
9.439921e-003
9.439921e-003
9.439921e-003
9.439921e-003
9.439920e-003
9.439920e-003
9.439920e-003
9.439921e-003
9.439921e-003
9.439922e-003
9.439921e-003
9.439920e-003
9.439919e-003
9.439920e-003
9.439920e-003
9.439921e-003
9.439921e-003
9.439920e-003
9.439919e-003
9.439918e-003
9.439919e-003
9.439919e-003
9.439921e-003
9.439921e-003
9.439921e-003
9.439920e-003
9.439919e-003
9.439919e-003
9.439920e-003
9.439921e-003
9.439922e-003
9.439922e-003
9.439921e-003
9.439920e-003
9.439918e-003
9.439918e-003
9.439919e-003
9.439920e-003
9.439921e-003
9.439922e-003
9.439916e-003
9.439918e-003
9.439920e-003
9.439923e-003
9.439924e-003
9.439923e-003
9.439921e-003
9.439919e-003
9.439917e-003
9.439917e-003
9.439918e-003
9.439919e-003
9.439920e-003
9.439921e-003
9.439922e-003
9.439922e-003
9.439922e-003
9.439921e-003
9.439921e-003
9.439920e-003
9.439919e-003
9.439919e-003
9.439919e-003
9.439919e-003
9.439919e-003
9.439919e-003
9.439919e-003
9.439919e-003
9.439919e-003
9.439920e-003
9.439921e-003
9.439921e-003
9.439922e-003
9.439922e-003
9.439922e-003
9.439923e-003
9.439923e-003
9.439924e-003
9.439924e-003
9.439924e-003
9.439924e-003
9.439924e-003
9.439924e-003
9.439924e-003
9.439924e-003
9.439924e-003
9.439924e-003
9.439924e-003
9.439924e-003
9.439924e-003
9.439924e-003
9.439924e-003
9.439924e-003
9.439924e-003
9.439924e-003
9.439924e-003
9.439924e-003
9.439924e-003
9.439924e-003
9.439924e-003
9.439924e-003
9.439924e-003
9.439924e-003
9.439924e-003
9.439923e-003
9.439922e-003
9.439922e-003
9.439922e-003
9.439922e-003
9.439922e-003
9.439921e-003
9.439920e-003
9.439920e-003
9.439919e-003
9.439919e-003
9.439919e-003
9.439919e-003
9.439919e-003
9.439919e-003
9.439919e-003
9.439919e-003
9.439920e-003
9.439921e-003
9.439921e-003
9.439921e-003
9.439921e-003
9.439921e-003
9.439920e-003
9.439920e-003
9.439919e-003
9.439919e-003
9.439919e-003
9.439919e-003
9.439920e-003
9.439921e-003
9.439922e-003
9.439921e-003
9.439920e-003
9.439919e-003
9.439918e-003
9.439909e-003
9.439913e-003
9.439920e-003
9.439926e-003
9.439929e-003
9.439927e-003
9.439923e-003
9.439918e-003
9.439914e-003
9.439914e-003
9.439916e-003
9.439919e-003
9.439922e-003
9.439923e-003
9.439922e-003
9.439921e-003
9.439920e-003
9.439921e-003
9.439921e-003
9.439922e-003
9.439922e-003
9.439921e-003
9.439919e-003
9.439918e-003
9.439918e-003
9.439918e-003
9.439919e-003
9.439919e-003
9.439919e-003
9.439919e-003
9.439919e-003
9.439920e-003
9.439921e-003
9.439922e-003
9.439923e-003
9.439923e-003
9.439924e-003
9.439925e-003
9.439925e-003
9.439926e-003
9.439926e-003
9.439926e-003
9.439926e-003
9.439926e-003
9.439927e-003
9.439927e-003
9.439927e-003
9.439927e-003
9.439927e-003
9.439926e-003
9.439926e-003
9.439926e-003
9.439927e-003
9.439927e-003
9.439927e-003
9.439927e-003
9.439926e-003
9.439926e-003
9.439926e-003
9.439926e-003
9.439926e-003
9.439926e-003
9.439925e-003
9.439925e-003
9.439924e-003
9.439924e-003
9.439923e-003
9.439922e-003
9.439921e-003
9.439921e-003
9.439920e-003
9.439920e-003
9.439920e-003
9.439920e-003
9.439919e-003
9.439918e-003
9.439918e-003
9.439918e-003
9.439919e-003
9.439920e-003
9.439921e-003
9.439921e-003
9.439921e-003
9.439920e-003
9.439921e-003
9.439921e-003
9.439922e-003
9.439921e-003
9.439920e-003
9.439918e-003
9.439917e-003
9.439916e-003
9.439918e-003
9.439921e-003
9.439923e-003
9.439924e-003
9.439923e-003
9.439921e-003
9.439918e-003
9.439916e-003
9.439908e-003
9.439913e-003
9.439920e-003
9.439926e-003
9.439929e-003
9.439928e-003
9.439923e-003
9.439918e-003
9.439915e-003
9.439914e-003
9.439916e-003
9.439920e-003
9.439922e-003
9.439922e-003
9.439921e-003
9.439919e-003
9.439918e-003
9.439919e-003
9.439921e-003
9.439923e-003
9.439924e-003
9.439923e-003
9.439921e-003
9.439919e-003
9.439919e-003
9.439919e-003
9.439920e-003
9.439921e-003
9.439920e-003
9.439920e-003
9.439919e-003
9.439920e-003
9.439921e-003
9.439923e-003
9.439924e-003
9.439924e-003
9.439925e-003
9.439925e-003
9.439926e-003
9.439927e-003
9.439928e-003
9.439928e-003
9.439929e-003
9.439929e-003
9.439930e-003
9.439930e-003
9.439930e-003
9.439931e-003
9.439931e-003
9.439931e-003
9.439931e-003
9.439931e-003
9.439931e-003
9.439931e-003
9.439930e-003
9.439930e-003
9.439930e-003
9.439929e-003
9.439929e-003
9.439929e-003
9.439928e-003
9.439927e-003
9.439926e-003
9.439925e-003
9.439925e-003
9.439925e-003
9.439924e-003
9.439923e-003
9.439921e-003
9.439920e-003
9.439920e-003
9.439920e-003
9.439921e-003
9.439921e-003
9.439920e-003
9.439919e-003
9.439919e-003
9.439919e-003
9.439921e-003
9.439922e-003
9.439923e-003
9.439922e-003
9.439920e-003
9.439919e-003
9.439919e-003
9.439920e-003
9.439922e-003
9.439922e-003
9.439921e-003
9.439919e-003
9.439917e-003
9.439916e-003
9.439918e-003
9.439921e-003
9.439923e-003
9.439924e-003
9.439923e-003
9.439921e-003
9.439918e-003
9.439916e-003
9.439915e-003
9.439917e-003
9.439919e-003
9.439922e-003
9.439924e-003
9.439924e-003
9.439922e-003
9.439920e-003
9.439918e-003
9.439918e-003
9.439919e-003
9.439921e-003
9.439922e-003
9.439921e-003
9.439919e-003
9.439917e-003
9.439916e-003
9.439917e-003
9.439920e-003
9.439923e-003
9.439924e-003
9.439924e-003
9.439922e-003
9.439920e-003
9.439920e-003
9.439921e-003
9.439923e-003
9.439924e-003
9.439924e-003
9.439923e-003
9.439923e-003
9.439923e-003
9.439924e-003
9.439926e-003
9.439927e-003
9.439928e-003
9.439928e-003
9.439929e-003
9.439929e-003
9.439931e-003
9.439932e-003
9.439933e-003
9.439934e-003
9.439934e-003
9.439935e-003
9.439936e-003
9.439937e-003
9.439937e-003
9.439938e-003
9.439938e-003
9.439938e-003
9.439938e-003
9.439938e-003
9.439937e-003
9.439937e-003
9.439936e-003
9.439935e-003
9.439935e-003
9.439934e-003
9.439933e-003
9.439932e-003
9.439930e-003
9.439929e-003
9.439928e-003
9.439928e-003
9.439928e-003
9.439927e-003
9.439925e-003
9.439923e-003
9.439922e-003
9.439922e-003
9.439923e-003
9.439923e-003
9.439923e-003
9.439922e-003
9.439920e-003
9.439920e-003
9.439921e-003
9.439922e-003
9.439923e-003
9.439923e-003
9.439921e-003
9.439919e-003
9.439917e-003
9.439917e-003
9.439919e-003
9.439921e-003
9.439922e-003
9.439921e-003
9.439920e-003
9.439919e-003
9.439918e-003
9.439919e-003
9.439920e-003
9.439922e-003
9.439922e-003
9.439922e-003
9.439920e-003
9.439919e-003
9.439918e-003
9.439924e-003
9.439922e-003
9.439919e-003
9.439917e-003
9.439917e-003
9.439918e-003
9.439919e-003
9.439921e-003
9.439922e-003
9.439922e-003
9.439922e-003
9.439922e-003
9.439922e-003
9.439921e-003
9.439919e-003
9.439917e-003
9.439916e-003
9.439917e-003
9.439919e-003
9.439921e-003
9.439922e-003
9.439922e-003
9.439921e-003
9.439921e-003
9.439921e-003
9.439923e-003
9.439926e-003
9.439928e-003
9.439929e-003
9.439929e-003
9.439929e-003
9.439930e-003
9.439932e-003
9.439934e-003
9.439935e-003
9.439936e-003
9.439936e-003
9.439936e-003
9.439937e-003
9.439939e-003
9.439940e-003
9.439941e-003
9.439942e-003
9.439942e-003
9.439943e-003
9.439944e-003
9.439945e-003
9.439945e-003
9.439945e-003
9.439945e-003
9.439945e-003
9.439945e-003
9.439945e-003
9.439945e-003
9.439944e-003
9.439943e-003
9.439942e-003
9.439942e-003
9.439941e-003
9.439940e-003
9.439939e-003
9.439937e-003
9.439936e-003
9.439935e-003
9.439935e-003
9.439934e-003
9.439933e-003
9.439931e-003
9.439929e-003
9.439927e-003
9.439927e-003
9.439927e-003
9.439927e-003
9.439926e-003
9.439924e-003
9.439922e-003
9.439921e-003
9.439921e-003
9.439922e-003
9.439923e-003
9.439922e-003
9.439920e-003
9.439918e-003
9.439917e-003
9.439917e-003
9.439918e-003
9.439920e-003
9.439921e-003
9.439921e-003
9.439921e-003
9.439921e-003
9.439921e-003
9.439920e-003
9.439920e-003
9.439919e-003
9.439919e-003
9.439919e-003
9.439920e-003
9.439921e-003
9.439921e-003
9.439931e-003
9.439926e-003
9.439920e-003
9.439914e-003
9.439912e-003
9.439914e-003
9.439918e-003
9.439921e-003
9.439924e-003
9.439924e-003
9.439923e-003
9.439921e-003
9.439921e-003
9.439921e-003
9.439921e-003
9.439920e-003
9.439919e-003
9.439918e-003
9.439918e-003
9.439919e-003
9.439919e-003
9.439920e-003
9.439921e-003
9.439921e-003
9.439923e-003
9.439926e-003
9.439929e-003
9.439932e-003
9.439934e-003
9.439936e-003
9.439937e-003
9.439938e-003
9.439940e-003
9.439943e-003
9.439944e-003
9.439945e-003
9.439946e-003
9.439946e-003
9.439946e-003
9.439947e-003
9.439947e-003
9.439947e-003
9.439947e-003
9.439946e-003
9.439945e-003
9.439945e-003
9.439944e-003
9.439944e-003
9.439943e-003
9.439942e-003
9.439942e-003
9.439941e-003
9.439941e-003
9.439941e-003
9.439941e-003
9.439941e-003
9.439941e-003
9.439942e-003
9.439943e-003
9.439943e-003
9.439943e-003
9.439943e-003
9.439942e-003
9.439942e-003
9.439942e-003
9.439942e-003
9.439941e-003
9.439939e-003
9.439936e-003
9.439935e-003
9.439933e-003
9.439933e-003
9.439931e-003
9.439929e-003
9.439926e-003
9.439923e-003
9.439922e-003
9.439921e-003
9.439921e-003
9.439921e-003
9.439920e-003
9.439919e-003
9.439918e-003
9.439919e-003
9.439919e-003
9.439920e-003
9.439920e-003
9.439920e-003
9.439921e-003
9.439921e-003
9.439922e-003
9.439922e-003
9.439921e-003
9.439919e-003
9.439917e-003
9.439916e-003
9.439917e-003
9.439919e-003
9.439922e-003
9.439924e-003
9.439931e-003
9.439927e-003
9.439920e-003
9.439915e-003
9.439912e-003
9.439914e-003
9.439917e-003
9.439921e-003
9.439923e-003
9.439923e-003
9.439921e-003
9.439919e-003
9.439919e-003
9.439921e-003
9.439923e-003
9.439924e-003
9.439923e-003
9.439921e-003
9.439919e-003
9.439918e-003
9.439919e-003
9.439920e-003
9.439922e-003
9.439925e-003
9.439927e-003
9.439929e-003
9.439932e-003
9.439936e-003
9.439939e-003
9.439941e-003
9.439943e-003
9.439945e-003
9.439946e-003
9.439948e-003
9.439948e-003
9.439948e-003
9.439946e-003
9.439944e-003
9.439941e-003
9.439938e-003
9.439934e-003
9.439930e-003
9.439925e-003
9.439919e-003
9.439914e-003
9.439910e-003
9.439905e-003
9.439901e-003
9.439898e-003
9.439895e-003
9.439894e-003
9.439893e-003
9.439893e-003
9.439895e-003
9.439897e-003
9.439900e-003
9.439904e-003
9.439909e-003
9.439915e-003
9.439920e-003
9.439925e-003
9.439929e-003
9.439934e-003
9.439938e-003
9.439941e-003
9.439943e-003
9.439944e-003
9.439943e-003
9.439942e-003
9.439941e-003
9.439939e-003
9.439938e-003
9.439935e-003
9.439932e-003
9.439929e-003
9.439926e-003
9.439924e-003
9.439923e-003
9.439921e-003
9.439920e-003
9.439919e-003
9.439919e-003
9.439920e-003
9.439921e-003
9.439922e-003
9.439922e-003
9.439921e-003
9.439919e-003
9.439919e-003
9.439920e-003
9.439921e-003
9.439922e-003
9.439922e-003
9.439920e-003
9.439917e-003
9.439916e-003
9.439917e-003
9.439919e-003
9.439922e-003
9.439924e-003
9.439925e-003
9.439923e-003
9.439920e-003
9.439918e-003
9.439917e-003
9.439917e-003
9.439919e-003
9.439921e-003
9.439922e-003
9.439921e-003
9.439919e-003
9.439917e-003
9.439917e-003
9.439920e-003
9.439923e-003
9.439925e-003
9.439925e-003
9.439924e-003
9.439922e-003
9.439921e-003
9.439922e-003
9.439925e-003
9.439928e-003
9.439931e-003
9.439933e-003
9.439935e-003
9.439937e-003
9.439940e-003
9.439942e-003
9.439944e-003
9.439945e-003
9.439944e-003
9.439941e-003
9.439937e-003
9.439931e-003
9.439923e-003
9.439913e-003
9.439900e-003
9.439885e-003
9.439869e-003
9.439852e-003
9.439834e-003
9.439816e-003
9.439798e-003
9.439780e-003
9.439764e-003
9.439749e-003
9.439736e-003
9.439725e-003
9.439717e-003
9.439712e-003
9.439711e-003
9.439713e-003
9.439718e-003
9.439726e-003
9.439738e-003
9.439753e-003
9.439770e-003
9.439790e-003
9.439810e-003
9.439831e-003
9.439851e-003
9.439870e-003
9.439888e-003
9.439904e-003
9.439917e-003
9.439926e-003
9.439933e-003
9.439938e-003
9.439941e-003
9.439941e-003
9.439941e-003
9.439938e-003
9.439935e-003
9.439932e-003
9.439930e-003
9.439929e-003
9.439927e-003
9.439924e-003
9.439922e-003
9.439920e-003
9.439920e-003
9.439922e-003
9.439923e-003
9.439924e-003
9.439923e-003
9.439921e-003
9.439918e-003
9.439918e-003
9.439918e-003
9.439920e-003
9.439921e-003
9.439921e-003
9.439920e-003
9.439919e-003
9.439918e-003
9.439918e-003
9.439920e-003
9.439921e-003
9.439922e-003
9.439916e-003
9.439918e-003
9.439920e-003
9.439922e-003
9.439922e-003
9.439922e-003
9.439921e-003
9.439921e-003
9.439920e-003
9.439919e-003
9.439918e-003
9.439916e-003
9.439916e-003
9.439918e-003
9.439921e-003
9.439924e-003
9.439925e-003
9.439925e-003
9.439925e-003
9.439925e-003
9.439928e-003
9.439932e-003
9.439937e-003
9.439941e-003
9.439942e-003
9.439943e-003
9.439943e-003
9.439943e-003
9.439942e-003
9.439939e-003
9.439931e-003
9.439919e-003
9.439902e-003
9.439879e-003
9.439852e-003
9.439819e-003
9.439780e-003
9.439736e-003
9.439688e-003
9.439636e-003
9.439583e-003
9.439528e-003
9.439474e-003
9.439421e-003
9.439371e-003
9.439325e-003
9.439283e-003
9.439248e-003
9.439219e-003
9.439198e-003
9.439186e-003
9.439182e-003
9.439187e-003
9.439202e-003
9.439227e-003
9.439261e-003
9.439304e-003
9.439354e-003
9.439409e-003
9.439469e-003
9.439531e-003
9.439594e-003
9.439655e-003
9.439713e-003
9.439765e-003
9.439810e-003
9.439848e-003
9.439878e-003
9.439902e-003
9.439920e-003
9.439931e-003
9.439937e-003
9.439939e-003
9.439938e-003
9.439938e-003
9.439937e-003
9.439936e-003
9.439933e-003
9.439930e-003
9.439926e-003
9.439923e-003
9.439922e-003
9.439923e-003
9.439924e-003
9.439924e-003
9.439922e-003
9.439920e-003
9.439918e-003
9.439917e-003
9.439918e-003
9.439919e-003
9.439920e-003
9.439921e-003
9.439921e-003
9.439921e-003
9.439921e-003
9.439920e-003
9.439920e-003
9.439920e-003
9.439919e-003
9.439911e-003
9.439915e-003
9.439920e-003
9.439924e-003
9.439926e-003
9.439924e-003
9.439922e-003
9.439921e-003
9.439920e-003
9.439920e-003
9.439919e-003
9.439918e-003
9.439917e-003
9.439917e-003
9.439919e-003
9.439921e-003
9.439924e-003
9.439927e-003
9.439929e-003
9.439931e-003
9.439935e-003
9.439940e-003
9.439945e-003
9.439949e-003
9.439950e-003
9.439948e-003
9.439942e-003
9.439934e-003
9.439920e-003
9.439898e-003
9.439866e-003
9.439820e-003
9.439761e-003
9.439688e-003
9.439601e-003
9.439500e-003
9.439387e-003
9.439263e-003
9.439129e-003
9.438989e-003
9.438846e-003
9.438702e-003
9.438561e-003
9.438425e-003
9.438297e-003
9.438179e-003
9.438075e-003
9.437986e-003
9.437915e-003
9.437863e-003
9.437833e-003
9.437825e-003
9.437840e-003
9.437879e-003
9.437943e-003
9.438030e-003
9.438138e-003
9.438266e-003
9.438409e-003
9.438565e-003
9.438728e-003
9.438895e-003
9.439060e-003
9.439217e-003
9.439362e-003
9.439492e-003
9.439605e-003
9.439700e-003
9.439777e-003
9.439837e-003
9.439879e-003
9.439908e-003
9.439925e-003
9.439935e-003
9.439940e-003
9.439943e-003
9.439943e-003
9.439940e-003
9.439936e-003
9.439931e-003
9.439927e-003
9.439925e-003
9.439924e-003
9.439924e-003
9.439923e-003
9.439921e-003
9.439919e-003
9.439918e-003
9.439918e-003
9.439919e-003
9.439919e-003
9.439920e-003
9.439920e-003
9.439921e-003
9.439922e-003
9.439922e-003
9.439922e-003
9.439920e-003
9.439918e-003
9.439917e-003
9.439911e-003
9.439915e-003
9.439920e-003
9.439924e-003
9.439925e-003
9.439923e-003
9.439921e-003
9.439919e-003
9.439920e-003
9.439921e-003
9.439922e-003
9.439922e-003
9.439920e-003
9.439918e-003
9.439918e-003
9.439921e-003
9.439925e-003
9.439929e-003
9.439933e-003
9.439937e-003
9.439941e-003
9.439946e-003
9.439950e-003
9.439951e-003
9.439947e-003
9.439935e-003
9.439913e-003
9.439878e-003
9.439826e-003
9.439752e-003
9.439650e-003
9.439518e-003
9.439352e-003
9.439152e-003
9.438920e-003
9.438658e-003
9.438367e-003
9.438053e-003
9.437720e-003
9.437376e-003
9.437027e-003
9.436680e-003
9.436342e-003
9.436019e-003
9.435717e-003
9.435441e-003
9.435197e-003
9.434991e-003
9.434827e-003
9.434709e-003
9.434640e-003
9.434623e-003
9.434661e-003
9.434755e-003
9.434905e-003
9.435110e-003
9.435365e-003
9.435667e-003
9.436008e-003
9.436380e-003
9.436774e-003
9.437177e-003
9.437580e-003
9.437968e-003
9.438333e-003
9.438664e-003
9.438958e-003
9.439209e-003
9.439418e-003
9.439584e-003
9.439709e-003
9.439800e-003
9.439861e-003
9.439901e-003
9.439926e-003
9.439939e-003
9.439945e-003
9.439944e-003
9.439941e-003
9.439936e-003
9.439932e-003
9.439929e-003
9.439926e-003
9.439924e-003
9.439921e-003
9.439920e-003
9.439919e-003
9.439919e-003
9.439921e-003
9.439921e-003
9.439921e-003
9.439920e-003
9.439919e-003
9.439920e-003
9.439921e-003
9.439922e-003
9.439922e-003
9.439921e-003
9.439918e-003
9.439917e-003
9.439916e-003
9.439918e-003
9.439921e-003
9.439922e-003
9.439922e-003
9.439920e-003
9.439918e-003
9.439917e-003
9.439919e-003
9.439922e-003
9.439925e-003
9.439925e-003
9.439924e-003
9.439922e-003
9.439922e-003
9.439924e-003
9.439928e-003
9.439934e-003
9.439939e-003
9.439943e-003
9.439946e-003
9.439947e-003
9.439944e-003
9.439935e-003
9.439911e-003
9.439868e-003
9.439796e-003
9.439689e-003
9.439537e-003
9.439330e-003
9.439059e-003
9.438718e-003
9.438302e-003
9.437812e-003
9.437250e-003
9.436622e-003
9.435937e-003
9.435204e-003
9.434438e-003
9.433652e-003
9.432861e-003
9.432082e-003
9.431328e-003
9.430612e-003
9.429946e-003
9.429343e-003
9.428812e-003
9.428365e-003
9.428011e-003
9.427757e-003
9.427610e-003
9.427578e-003
9.427663e-003
9.427871e-003
9.428201e-003
9.428650e-003
9.429213e-003
9.429879e-003
9.430635e-003
9.431464e-003
9.432345e-003
9.433256e-003
9.434170e-003
9.435062e-003
9.435908e-003
9.436688e-003
9.437387e-003
9.437995e-003
9.438507e-003
9.438922e-003
9.439246e-003
9.439488e-003
9.439662e-003
9.439781e-003
9.439859e-003
9.439906e-003
9.439930e-003
9.439940e-003
9.439942e-003
9.439940e-003
9.439937e-003
9.439933e-003
9.439930e-003
9.439926e-003
9.439922e-003
9.439920e-003
9.439920e-003
9.439922e-003
9.439923e-003
9.439923e-003
9.439922e-003
9.439920e-003
9.439918e-003
9.439918e-003
9.439920e-003
9.439921e-003
9.439922e-003
9.439921e-003
9.439919e-003
9.439918e-003
9.439923e-003
9.439922e-003
9.439921e-003
9.439920e-003
9.439919e-003
9.439917e-003
9.439916e-003
9.439916e-003
9.439918e-003
9.439921e-003
9.439924e-003
9.439927e-003
9.439927e-003
9.439927e-003
9.439928e-003
9.439930e-003
9.439936e-003
9.439942e-003
9.439947e-003
9.439949e-003
9.439946e-003
9.439936e-003
9.439913e-003
9.439868e-003
9.439789e-003
9.439659e-003
9.439461e-003
9.439177e-003
9.438787e-003
9.438273e-003
9.437618e-003
9.436811e-003
9.435845e-003
9.434724e-003
9.433455e-003
9.432055e-003
9.430545e-003
9.428949e-003
9.427297e-003
9.425619e-003
9.423948e-003
9.422313e-003
9.420744e-003
9.419264e-003
9.417899e-003
9.416669e-003
9.415594e-003
9.414693e-003
9.413982e-003
9.413477e-003
9.413189e-003
9.413130e-003
9.413311e-003
9.413737e-003
9.414410e-003
9.415326e-003
9.416476e-003
9.417843e-003
9.419403e-003
9.421123e-003
9.422966e-003
9.424885e-003
9.426828e-003
9.428744e-003
9.430582e-003
9.432296e-003
9.433851e-003
9.435220e-003
9.436387e-003
9.437350e-003
9.438117e-003
9.438706e-003
9.439142e-003
9.439450e-003
9.439659e-003
9.439792e-003
9.439871e-003
9.439913e-003
9.439932e-003
9.439940e-003
9.439941e-003
9.439939e-003
9.439935e-003
9.439930e-003
9.439926e-003
9.439923e-003
9.439923e-003
9.439924e-003
9.439924e-003
9.439924e-003
9.439922e-003
9.439919e-003
9.439918e-003
9.439918e-003
9.439918e-003
9.439920e-003
9.439921e-003
9.439921e-003
9.439921e-003
9.439920e-003
9.439927e-003
9.439924e-003
9.439921e-003
9.439918e-003
9.439918e-003
9.439918e-003
9.439918e-003
9.439917e-003
9.439917e-003
9.439919e-003
9.439922e-003
9.439926e-003
9.439929e-003
9.439932e-003
9.439934e-003
9.439938e-003
9.439944e-003
9.439950e-003
9.439953e-003
9.439948e-003
9.439929e-003
9.439888e-003
9.439809e-003
9.439675e-003
9.439456e-003
9.439121e-003
9.438631e-003
9.437948e-003
9.437034e-003
9.435854e-003
9.434381e-003
9.432595e-003
9.430494e-003
9.428087e-003
9.425402e-003
9.422480e-003
9.419368e-003
9.416126e-003
9.412813e-003
9.409493e-003
9.406224e-003
9.403063e-003
9.400061e-003
9.397262e-003
9.394704e-003
9.392421e-003
9.390445e-003
9.388803e-003
9.387518e-003
9.386614e-003
9.386111e-003
9.386026e-003
9.386376e-003
9.387172e-003
9.388420e-003
9.390119e-003
9.392257e-003
9.394812e-003
9.397748e-003
9.401018e-003
9.404555e-003
9.408280e-003
9.412103e-003
9.415923e-003
9.419640e-003
9.423159e-003
9.426398e-003
9.429290e-003
9.431794e-003
9.433892e-003
9.435591e-003
9.436920e-003
9.437923e-003
9.438650e-003
9.439156e-003
9.439492e-003
9.439701e-003
9.439825e-003
9.439893e-003
9.439927e-003
9.439941e-003
9.439944e-003
9.439942e-003
9.439936e-003
9.439931e-003
9.439927e-003
9.439926e-003
9.439925e-003
9.439924e-003
9.439923e-003
9.439921e-003
9.439919e-003
9.439918e-003
9.439918e-003
9.439919e-003
9.439919e-003
9.439920e-003
9.439920e-003
9.439921e-003
9.439922e-003
9.439926e-003
9.439923e-003
9.439919e-003
9.439918e-003
9.439919e-003
9.439921e-003
9.439922e-003
9.439920e-003
9.439918e-003
9.439918e-003
9.439920e-003
9.439925e-003
9.439931e-003
9.439936e-003
9.439941e-003
9.439946e-003
9.439951e-003
9.439953e-003
9.439947e-003
9.439921e-003
9.439859e-003
9.439738e-003
9.439528e-003
9.439185e-003
9.438653e-003
9.437866e-003
9.436749e-003
9.435227e-003
9.433228e-003
9.430693e-003
9.427579e-003
9.423871e-003
9.419582e-003
9.414759e-003
9.409477e-003
9.403835e-003
9.397947e-003
9.391935e-003
9.385918e-003
9.380010e-003
9.374313e-003
9.368916e-003
9.363889e-003
9.359292e-003
9.355170e-003
9.351560e-003
9.348492e-003
9.345989e-003
9.344071e-003
9.342758e-003
9.342066e-003
9.342015e-003
9.342621e-003
9.343905e-003
9.345880e-003
9.348559e-003
9.351945e-003
9.356029e-003
9.360786e-003
9.366170e-003
9.372108e-003
9.378497e-003
9.385202e-003
9.392062e-003
9.398898e-003
9.405522e-003
9.411755e-003
9.417441e-003
9.422464e-003
9.426753e-003
9.430291e-003
9.433109e-003
9.435273e-003
9.436873e-003
9.438010e-003
9.438783e-003
9.439284e-003
9.439594e-003
9.439775e-003
9.439874e-003
9.439922e-003
9.439942e-003
9.439945e-003
9.439942e-003
9.439936e-003
9.439932e-003
9.439929e-003
9.439926e-003
9.439923e-003
9.439921e-003
9.439919e-003
9.439919e-003
9.439920e-003
9.439920e-003
9.439920e-003
9.439920e-003
9.439919e-003
9.439920e-003
9.439921e-003
9.439921e-003
9.439921e-003
9.439919e-003
9.439917e-003
9.439918e-003
9.439921e-003
9.439924e-003
9.439926e-003
9.439924e-003
9.439921e-003
9.439919e-003
9.439921e-003
9.439926e-003
9.439934e-003
9.439941e-003
9.439947e-003
9.439951e-003
9.439950e-003
9.439940e-003
9.439905e-003
9.439821e-003
9.439654e-003
9.439354e-003
9.438854e-003
9.438064e-003
9.436874e-003
9.435155e-003
9.432768e-003
9.429578e-003
9.425464e-003
9.420346e-003
9.414190e-003
9.407025e-003
9.398947e-003
9.390115e-003
9.380739e-003
9.371060e-003
9.361328e-003
9.351781e-003
9.342631e-003
9.334049e-003
9.326165e-003
9.319064e-003
9.312796e-003
9.307375e-003
9.302793e-003
9.299024e-003
9.296031e-003
9.293771e-003
9.292201e-003
9.291277e-003
9.290965e-003
9.291243e-003
9.292105e-003
9.293566e-003
9.295661e-003
9.298445e-003
9.301993e-003
9.306393e-003
9.311731e-003
9.318081e-003
9.325479e-003
9.333908e-003
9.343277e-003
9.353412e-003
9.364054e-003
9.374879e-003
9.385521e-003
9.395617e-003
9.404847e-003
9.412972e-003
9.419855e-003
9.425465e-003
9.429862e-003
9.433176e-003
9.435574e-003
9.437240e-003
9.438348e-003
9.439053e-003
9.439480e-003
9.439725e-003
9.439855e-003
9.439916e-003
9.439939e-003
9.439943e-003
9.439941e-003
9.439936e-003
9.439932e-003
9.439928e-003
9.439924e-003
9.439920e-003
9.439919e-003
9.439920e-003
9.439921e-003
9.439922e-003
9.439922e-003
9.439921e-003
9.439919e-003
9.439919e-003
9.439920e-003
9.439920e-003
9.439918e-003
9.439917e-003
9.439917e-003
9.439918e-003
9.439921e-003
9.439925e-003
9.439927e-003
9.439927e-003
9.439925e-003
9.439923e-003
9.439926e-003
9.439931e-003
9.439940e-003
9.439947e-003
9.439952e-003
9.439950e-003
9.439933e-003
9.439886e-003
9.439779e-003
9.439562e-003
9.439164e-003
9.438482e-003
9.437380e-003
9.435685e-003
9.433187e-003
9.429651e-003
9.424840e-003
9.418543e-003
9.410617e-003
9.401023e-003
9.389857e-003
9.377365e-003
9.363935e-003
9.350068e-003
9.336328e-003
9.323283e-003
9.311445e-003
9.301226e-003
9.292906e-003
9.286625e-003
9.282390e-003
9.280090e-003
9.279529e-003
9.280445e-003
9.282540e-003
9.285493e-003
9.288976e-003
9.292664e-003
9.296244e-003
9.299423e-003
9.301944e-003
9.303602e-003
9.304261e-003
9.303874e-003
9.302501e-003
9.300324e-003
9.297652e-003
9.294918e-003
9.292659e-003
9.291472e-003
9.291961e-003
9.294651e-003
9.299916e-003
9.307894e-003
9.318447e-003
9.331148e-003
9.345331e-003
9.360180e-003
9.374844e-003
9.388565e-003
9.400766e-003
9.411101e-003
9.419459e-003
9.425920e-003
9.430701e-003
9.434090e-003
9.436393e-003
9.437890e-003
9.438821e-003
9.439372e-003
9.439678e-003
9.439835e-003
9.439907e-003
9.439934e-003
9.439942e-003
9.439941e-003