# vtk DataFile Version 3.0
vtk output
ASCII
DATASET STRUCTURED_POINTS
DIMENSIONS 100 100 1
SPACING 1 1 1
ORIGIN 0 0 0
POINT_DATA 10000
SCALARS SFBox_profile double
LOOKUP_TABLE default 
0.000000e+000
0.000000e+000
0.000000e+000
0.000000e+000
0.000000e+000
0.000000e+000
0.000000e+000
0.000000e+000
0.000000e+000
0.000000e+000
0.000000e+000
0.000000e+000
0.000000e+000
0.000000e+000
0.000000e+000
0.000000e+000
0.000000e+000
0.000000e+000
0.000000e+000
0.000000e+000
0.000000e+000
0.000000e+000
0.000000e+000
0.000000e+000
0.000000e+000
0.000000e+000
0.000000e+000
0.000000e+000
0.000000e+000
0.000000e+000
0.000000e+000
0.000000e+000
0.000000e+000
0.000000e+000
0.000000e+000
0.000000e+000
0.000000e+000
0.000000e+000
0.000000e+000
0.000000e+000
0.000000e+000
0.000000e+000
0.000000e+000
0.000000e+000
0.000000e+000
0.000000e+000
0.000000e+000
0.000000e+000
0.000000e+000
0.000000e+000
0.000000e+000
0.000000e+000
0.000000e+000
0.000000e+000
0.000000e+000
0.000000e+000
0.000000e+000
0.000000e+000
0.000000e+000
0.000000e+000
0.000000e+000
0.000000e+000
0.000000e+000
0.000000e+000
0.000000e+000
0.000000e+000
0.000000e+000
0.000000e+000
0.000000e+000
0.000000e+000
0.000000e+000
0.000000e+000
0.000000e+000
0.000000e+000
0.000000e+000
0.000000e+000
0.000000e+000
0.000000e+000
0.000000e+000
0.000000e+000
0.000000e+000
0.000000e+000
0.000000e+000
0.000000e+000
0.000000e+000
0.000000e+000
0.000000e+000
0.000000e+000
0.000000e+000
0.000000e+000
0.000000e+000
0.000000e+000
0.000000e+000
0.000000e+000
0.000000e+000
0.000000e+000
0.000000e+000
0.000000e+000
0.000000e+000
0.000000e+000
-4.924402e-009
-2.098579e-009
1.730868e-009
4.300288e-009
4.299281e-009
2.034666e-009
-9.804192e-010
-3.107022e-009
-3.530082e-009
-2.487601e-009
-7.929333e-010
8.338205e-010
2.083063e-009
2.891207e-009
3.116751e-009
2.473447e-009
8.203038e-010
-1.493132e-009
-3.622231e-009
-4.657318e-009
-4.174334e-009
-2.466325e-009
-2.870231e-010
1.653488e-009
3.029700e-009
3.865664e-009
4.263239e-009
4.202646e-009
3.585218e-009
2.417802e-009
9.127009e-010
-6.062062e-010
-1.892670e-009
-2.882335e-009
-3.637084e-009
-4.214866e-009
-4.601011e-009
-4.748284e-009
-4.656965e-009
-4.401519e-009
-4.082938e-009
-3.764493e-009
-3.454374e-009
-3.140652e-009
-2.832511e-009
-2.565970e-009
-2.376297e-009
-2.271758e-009
-2.235338e-009
-2.248635e-009
-2.311073e-009
-2.435755e-009
-2.628338e-009
-2.871645e-009
-3.131901e-009
-3.379885e-009
-3.603983e-009
-3.799093e-009
-3.941068e-009
-3.975539e-009
-3.839336e-009
-3.498515e-009
-2.964539e-009
-2.269515e-009
-1.428343e-009
-4.384575e-010
6.679709e-010
1.768987e-009
2.664882e-009
3.168202e-009
3.198133e-009
2.791246e-009
2.025699e-009
9.557990e-010
-3.495363e-010
-1.692675e-009
-2.702218e-009
-2.971344e-009
-2.319780e-009
-9.684546e-010
5.444318e-010
1.662332e-009
2.091897e-009
1.860758e-009
1.163105e-009
1.945295e-010
-8.544052e-010
-1.692806e-009
-1.923436e-009
-1.266197e-009
1.247787e-010
1.568104e-009
2.185397e-009
1.498373e-009
-1.495546e-010
-1.726700e-009
-2.179413e-009
-1.178160e-009
6.134187e-010
1.974436e-009
-1.001143e-009
-3.072858e-010
5.595944e-010
9.824709e-010
6.842793e-010
-8.884116e-011
-7.598743e-010
-8.448626e-010
-2.989612e-010
4.661796e-010
8.983124e-010
7.077779e-010
5.282010e-011
-6.169178e-010
-9.090468e-010
-7.409542e-010
-3.157446e-010
1.091565e-010
4.266110e-010
6.839337e-010
9.252358e-010
1.063384e-009
9.245255e-010
4.200079e-010
-3.320979e-010
-1.061658e-009
-1.528272e-009
-1.663492e-009
-1.557510e-009
-1.329682e-009
-1.021365e-009
-6.033884e-010
-6.328228e-011
5.349172e-010
1.079792e-009
1.492037e-009
1.769895e-009
1.962078e-009
2.106740e-009
2.200885e-009
2.222112e-009
2.168565e-009
2.071712e-009
1.972949e-009
1.893374e-009
1.827765e-009
1.764040e-009
1.703959e-009
1.663921e-009
1.658189e-009
1.684302e-009
1.725729e-009
1.767647e-009
1.808307e-009
1.853665e-009
1.900897e-009
1.929024e-009
1.908535e-009
1.821753e-009
1.672298e-009
1.471896e-009
1.218365e-009
8.923818e-010
4.832938e-010
2.030339e-011
-4.272074e-010
-7.877958e-010
-1.028783e-009
-1.155972e-009
-1.172027e-009
-1.044604e-009
-7.330143e-010
-2.585344e-010
2.561497e-010
6.365266e-010
7.663676e-010
6.608530e-010
4.333623e-010
1.908485e-010
-3.496872e-011
-2.543209e-010
-4.331609e-010
-4.683661e-010
-2.761305e-010
8.619167e-011
4.041800e-010
4.485545e-010
1.696396e-010
-2.335247e-010
-4.514928e-010
-3.092441e-010
8.606698e-011
4.235034e-010
4.336013e-010
1.023892e-010
-3.170789e-010
-5.021827e-010
-3.096504e-010
1.163900e-010
4.560259e-010
3.669508e-009
1.706235e-009
-1.034710e-009
-3.054838e-009
-3.406597e-009
-2.114462e-009
2.431199e-011
2.001103e-009
3.090506e-009
3.023738e-009
1.898332e-009
4.449814e-011
-2.022868e-009
-3.636214e-009
-4.135020e-009
-3.164773e-009
-9.324255e-010
1.806186e-009
4.075124e-009
5.128857e-009
4.740435e-009
3.181295e-009
9.788428e-010
-1.338532e-009
-3.364217e-009
-4.814096e-009
-5.503998e-009
-5.366040e-009
-4.478188e-009
-3.048195e-009
-1.339343e-009
4.140246e-010
2.047125e-009
3.454775e-009
4.567255e-009
5.344810e-009
5.788141e-009
5.940252e-009
5.867585e-009
5.634254e-009
5.290258e-009
4.877535e-009
4.439213e-009
4.018210e-009
3.647115e-009
3.342176e-009
3.108526e-009
2.950444e-009
2.875444e-009
2.889092e-009
2.988125e-009
3.160499e-009
3.391969e-009
3.670763e-009
3.984044e-009
4.309672e-009
4.612651e-009
4.850689e-009
4.982892e-009
4.972253e-009
4.780976e-009
4.368544e-009
3.702055e-009
2.775521e-009
1.623799e-009
3.214388e-010
-1.027277e-009
-2.293411e-009
-3.322274e-009
-3.943441e-009
-4.008642e-009
-3.449067e-009
-2.319258e-009
-8.002329e-010
8.340722e-010
2.262000e-009
3.160750e-009
3.273194e-009
2.509116e-009
1.043441e-009
-6.735544e-010
-2.054371e-009
-2.620229e-009
-2.218805e-009
-1.080993e-009
3.077094e-010
1.425825e-009
1.900271e-009
1.600644e-009
6.637795e-010
-5.287333e-010
-1.448704e-009
-1.630955e-009
-9.396068e-010
2.790125e-010
1.325314e-009
1.550214e-009
7.932617e-010
-4.686616e-010
-1.410367e-009
5.388036e-009
2.216608e-009
-2.012726e-009
-4.723437e-009
-4.521218e-009
-1.904727e-009
1.322820e-009
3.369637e-009
3.502318e-009
2.177207e-009
3.834640e-010
-1.125680e-009
-2.114521e-009
-2.608830e-009
-2.535735e-009
-1.694618e-009
-7.407285e-011
1.865337e-009
3.306685e-009
3.562679e-009
2.534676e-009
7.581659e-010
-9.858328e-010
-2.152573e-009
-2.637975e-009
-2.625825e-009
-2.305157e-009
-1.732614e-009
-9.087573e-010
8.175546e-011
1.041397e-009
1.766359e-009
2.168361e-009
2.294562e-009
2.246020e-009
2.088860e-009
1.835683e-009
1.488713e-009
1.080401e-009
6.686501e-010
3.015362e-010
-6.138156e-012
-2.643694e-010
-4.839244e-010
-6.633617e-010
-7.948720e-010
-8.760473e-010
-9.133416e-010
-9.160490e-010
-8.892219e-010
-8.318686e-010
-7.397999e-010
-6.094612e-010
-4.405033e-010
-2.362064e-010
-1.241510e-012
2.616939e-010
5.516893e-010
8.626576e-010
1.174208e-009
1.450943e-009
1.654526e-009
1.757828e-009
1.744722e-009
1.594731e-009
1.274767e-009
7.607533e-010
8.042532e-011
-6.639906e-010
-1.325702e-009
-1.777145e-009
-1.949088e-009
-1.811285e-009
-1.333522e-009
-5.030452e-010
5.837807e-010
1.644614e-009
2.271610e-009
2.146426e-009
1.266160e-009
-1.285542e-011
-1.170430e-009
-1.808342e-009
-1.805787e-009
-1.262665e-009
-3.567913e-010
7.039431e-010
1.612367e-009
1.947089e-009
1.373574e-009
-1.953565e-011
-1.565761e-009
-2.312815e-009
-1.664760e-009
9.148288e-011
1.852322e-009
2.410858e-009
1.334873e-009
-6.651651e-010
-2.202739e-009
2.929864e-009
8.619410e-010
-1.683923e-009
-2.861494e-009
-1.908299e-009
3.596092e-010
2.219952e-009
2.342118e-009
7.290537e-010
-1.372268e-009
-2.460205e-009
-1.864385e-009
-1.125625e-010
1.609303e-009
2.368951e-009
2.020824e-009
1.035038e-009
-6.565027e-011
-1.080808e-009
-2.033699e-009
-2.826725e-009
-3.095895e-009
-2.451986e-009
-8.665942e-010
1.194553e-009
3.034951e-009
4.150458e-009
4.450288e-009
4.138708e-009
3.438289e-009
2.433127e-009
1.132171e-009
-3.814314e-010
-1.903016e-009
-3.205674e-009
-4.170673e-009
-4.819707e-009
-5.237399e-009
-5.478559e-009
-5.546452e-009
-5.438619e-009
-5.192431e-009
-4.880847e-009
-4.571553e-009
-4.296472e-009
-4.057519e-009
-3.853445e-009
-3.696991e-009
-3.609191e-009
-3.602380e-009
-3.670455e-009
-3.793795e-009
-3.952108e-009
-4.132955e-009
-4.328183e-009
-4.520760e-009
-4.674061e-009
-4.736286e-009
-4.660051e-009
-4.420112e-009
-4.010230e-009
-3.421809e-009
-2.632778e-009
-1.632110e-009
-4.669212e-010
7.362787e-010
1.810058e-009
2.617640e-009
3.089175e-009
3.188839e-009
2.863713e-009
2.062999e-009
8.447966e-010
-5.311083e-010
-1.655077e-009
-2.174181e-009
-2.000106e-009
-1.336717e-009
-5.050938e-010
2.620878e-010
8.661203e-010
1.225488e-009
1.188841e-009
6.425936e-010
-2.641060e-010
-1.051079e-009
-1.175079e-009
-4.784161e-010
5.840127e-010
1.215532e-009
8.929104e-010
-1.741684e-010
-1.159075e-009
-1.259049e-009
-3.521062e-010
8.774554e-010
1.465940e-009
9.343868e-010
-3.236688e-010
-1.343843e-009
-1.629633e-009
-1.105824e-009
-1.539926e-010
1.012529e-009
2.008969e-009
2.324799e-009
1.550575e-009
-2.766194e-010
-2.460117e-009
-3.841997e-009
-3.436346e-009
-1.131467e-009
2.076811e-009
4.584830e-009
5.124206e-009
3.489088e-009
5.469371e-010
-2.401934e-009
-4.372525e-009
-5.023009e-009
-4.479763e-009
-3.001083e-009
-8.435195e-010
1.633592e-009
3.881567e-009
5.307213e-009
5.571874e-009
4.769081e-009
3.310738e-009
1.632079e-009
-2.133385e-011
-1.577835e-009
-2.985994e-009
-4.120581e-009
-4.837710e-009
-5.092490e-009
-4.978921e-009
-4.653390e-009
-4.227769e-009
-3.733716e-009
-3.170777e-009
-2.567528e-009
-1.989877e-009
-1.499797e-009
-1.117452e-009
-8.249331e-010
-6.003815e-010
-4.442004e-010
-3.751953e-010
-4.076449e-010
-5.354451e-010
-7.375238e-010
-9.966658e-010
-1.312185e-009
-1.693268e-009
-2.137763e-009
-2.616056e-009
-3.077192e-009
-3.473195e-009
-3.775971e-009
-3.964777e-009
-3.994542e-009
-3.784585e-009
-3.255213e-009
-2.389280e-009
-1.260137e-009
4.650788e-012
1.283718e-009
2.473253e-009
3.432073e-009
3.936829e-009
3.742919e-009
2.747111e-009
1.123043e-009
-7.061532e-010
-2.254744e-009
-3.170501e-009
-3.297182e-009
-2.619195e-009
-1.232547e-009
5.756847e-010
2.250370e-009
3.095607e-009
2.647582e-009
1.051725e-009
-9.021356e-010
-2.204823e-009
-2.246593e-009
-1.176331e-009
2.573986e-010
1.235789e-009
1.360998e-009
7.879059e-010
-8.502470e-012
-5.834500e-010
-7.380107e-010
-5.238105e-010
-1.248941e-010
2.618234e-010
4.914915e-010
-4.787753e-009
-2.007903e-009
1.681950e-009
4.052186e-009
3.958767e-009
1.860141e-009
-7.942750e-010
-2.643633e-009
-3.107382e-009
-2.353070e-009
-8.652390e-010
8.628106e-010
2.335664e-009
3.008142e-009
2.468956e-009
7.914093e-010
-1.319343e-009
-2.843491e-009
-3.057158e-009
-1.961374e-009
-1.988663e-010
1.425108e-009
2.396063e-009
2.603765e-009
2.163481e-009
1.223076e-009
-6.011655e-011
-1.441134e-009
-2.588444e-009
-3.220658e-009
-3.253202e-009
-2.806311e-009
-2.073315e-009
-1.186322e-009
-1.961662e-010
8.530475e-010
1.866116e-009
2.724610e-009
3.361068e-009
3.792955e-009
4.083946e-009
4.280395e-009
4.387786e-009
4.399051e-009
4.331880e-009
4.232257e-009
4.145052e-009
4.086455e-009
4.045266e-009
4.006854e-009
3.972385e-009
3.954603e-009
3.956754e-009
3.957471e-009
3.917780e-009
3.804044e-009
3.603811e-009
3.317523e-009
2.934965e-009
2.425598e-009
1.761831e-009
9.584617e-010
8.785558e-011
-7.493140e-010
-1.469346e-009
-2.017107e-009
-2.333009e-009
-2.325668e-009
-1.908849e-009
-1.093100e-009
-4.715780e-011
9.459378e-010
1.615424e-009
1.808271e-009
1.501156e-009
7.576917e-010
-2.754776e-010
-1.318779e-009
-1.963447e-009
-1.835754e-009
-8.650511e-010
5.648928e-010
1.765003e-009
2.132890e-009
1.509029e-009
2.410356e-010
-1.054436e-009
-1.819848e-009
-1.765317e-009
-9.223833e-010
3.730599e-010
1.542835e-009
1.955662e-009
1.274793e-009
-2.208848e-010
-1.660247e-009
-2.081295e-009
-1.127393e-009
6.091837e-010
1.943411e-009
-4.407419e-009
-1.215028e-009
2.622824e-009
4.247647e-009
2.648611e-009
-7.258712e-010
-3.254537e-009
-3.188044e-009
-8.285161e-010
1.946703e-009
3.237583e-009
2.422873e-009
2.950229e-010
-1.808105e-009
-2.966651e-009
-2.993127e-009
-2.110922e-009
-5.600255e-010
1.434323e-009
3.434781e-009
4.731801e-009
4.662575e-009
3.064505e-009
4.362281e-010
-2.350202e-009
-4.530708e-009
-5.739853e-009
-5.965952e-009
-5.341019e-009
-4.011906e-009
-2.161271e-009
-5.853417e-011
1.980712e-009
3.708283e-009
5.017327e-009
5.913857e-009
6.435742e-009
6.608610e-009
6.465096e-009
6.077410e-009
5.549699e-009
4.974993e-009
4.404104e-009
3.855650e-009
3.348172e-009
2.915601e-009
2.592720e-009
2.392664e-009
2.304078e-009
2.310334e-009
2.408489e-009
2.607653e-009
2.909832e-009
3.294923e-009
3.725914e-009
4.167393e-009
4.594816e-009
4.981636e-009
5.277433e-009
5.404057e-009
5.280283e-009
4.854121e-009
4.112420e-009
3.064964e-009
1.734989e-009
1.846199e-010
-1.441968e-009
-2.911112e-009
-3.958092e-009
-4.376922e-009
-4.076018e-009
-3.079061e-009
-1.517697e-009
3.401260e-010
2.066396e-009
3.153681e-009
3.231596e-009
2.296052e-009
7.576662e-010
-7.619127e-010
-1.742383e-009
-1.958021e-009
-1.463106e-009
-4.856607e-010
6.217123e-010
1.394953e-009
1.396167e-009
5.216433e-010
-7.567370e-010
-1.556449e-009
-1.197404e-009
1.746897e-010
1.552740e-009
1.793679e-009
5.812316e-010
-1.210645e-009
-2.152127e-009
-1.425818e-009
4.525347e-010
2.010143e-009
-1.099241e-009
4.227664e-010
1.892385e-009
1.676607e-009
-4.319343e-010
-2.902158e-009
-3.617519e-009
-1.604865e-009
2.053360e-009
4.901263e-009
4.891461e-009
1.879468e-009
-2.314900e-009
-5.251467e-009
-5.497378e-009
-3.319095e-009
-1.193427e-010
2.677109e-009
4.330870e-009
4.733875e-009
3.993731e-009
2.235329e-009
-2.417112e-010
-2.793012e-009
-4.593443e-009
-5.071743e-009
-4.227611e-009
-2.550372e-009
-6.448372e-010
1.089856e-009
2.505445e-009
3.551929e-009
4.155525e-009
4.244093e-009
3.840841e-009
3.088454e-009
2.171445e-009
1.222484e-009
2.991905e-010
-5.725840e-010
-1.357094e-009
-2.012737e-009
-2.521739e-009
-2.900827e-009
-3.180426e-009
-3.379227e-009
-3.501192e-009
-3.551038e-009
-3.543804e-009
-3.495952e-009
-3.410449e-009
-3.274956e-009
-3.074782e-009
-2.803921e-009
-2.460987e-009
-2.037151e-009
-1.514892e-009
-8.839634e-010
-1.590499e-010
6.200601e-010
1.403330e-009
2.137360e-009
2.751112e-009
3.140186e-009
3.183705e-009
2.797707e-009
1.984374e-009
8.348325e-010
-5.044205e-010
-1.847835e-009
-2.947309e-009
-3.487541e-009
-3.183655e-009
-1.970039e-009
-1.380884e-010
1.728990e-009
3.016686e-009
3.349243e-009
2.684216e-009
1.234727e-009
-6.183335e-010
-2.329050e-009
-3.224126e-009
-2.763652e-009
-9.750122e-010
1.313619e-009
2.813245e-009
2.607597e-009
8.732819e-010
-1.165650e-009
-2.116215e-009
-1.461912e-009
8.616022e-011
1.227059e-009
1.148056e-009
1.289453e-010
-8.070721e-010
-8.402249e-010
-4.893352e-011
7.344980e-010
2.652607e-009
1.475590e-009
-2.853320e-010
-1.863378e-009
-2.658535e-009
-2.368490e-009
-1.006276e-009
1.022540e-009
2.859455e-009
3.442397e-009
2.154410e-009
-5.446421e-010
-3.149629e-009
-4.010265e-009
-2.508544e-009
4.435383e-010
3.037540e-009
3.828741e-009
2.609422e-009
2.888384e-010
-1.934328e-009
-3.309192e-009
-3.663709e-009
-3.088467e-009
-1.680978e-009
3.895596e-010
2.698115e-009
4.599086e-009
5.534671e-009
5.338561e-009
4.254811e-009
2.686689e-009
9.355270e-010
-8.590994e-010
-2.608149e-009
-4.174087e-009
-5.397592e-009
-6.195026e-009
-6.603171e-009
-6.727629e-009
-6.660441e-009
-6.448260e-009
-6.120381e-009
-5.723547e-009
-5.320844e-009
-4.964624e-009
-4.679882e-009
-4.473163e-009
-4.349577e-009
-4.316827e-009
-4.376925e-009
-4.520869e-009
-4.732605e-009
-4.992963e-009
-5.275020e-009
-5.537268e-009
-5.726884e-009
-5.791902e-009
-5.686598e-009
-5.362616e-009
-4.762783e-009
-3.841364e-009
-2.606329e-009
-1.145623e-009
3.925822e-010
1.845534e-009
3.054896e-009
3.843585e-009
4.008278e-009
3.398154e-009
2.059623e-009
3.196047e-010
-1.306977e-009
-2.348583e-009
-2.573174e-009
-2.013679e-009
-8.706787e-010
5.476417e-010
1.795428e-009
2.318650e-009
1.710421e-009
9.684379e-011
-1.716208e-009
-2.627345e-009
-1.990564e-009
-1.520442e-010
1.724709e-009
2.467321e-009
1.708047e-009
7.017040e-011
-1.362919e-009
-1.813392e-009
-1.224301e-009
-1.214233e-010
8.324313e-010
1.213265e-009
9.568478e-010
2.800655e-010
-4.663737e-010
-9.425638e-010
4.512702e-009
1.218635e-009
-2.665600e-009
-4.217854e-009
-2.572299e-009
6.691150e-010
2.988668e-009
2.943529e-009
9.627230e-010
-1.394926e-009
-2.747648e-009
-2.609981e-009
-1.242435e-009
8.003512e-010
2.850640e-009
4.087973e-009
3.716234e-009
1.487019e-009
-1.876720e-009
-4.896965e-009
-6.176925e-009
-5.219904e-009
-2.590142e-009
6.172367e-010
3.454978e-009
5.419320e-009
6.319387e-009
6.072111e-009
4.703006e-009
2.480289e-009
-7.575846e-011
-2.403933e-009
-4.159037e-009
-5.286685e-009
-5.887497e-009
-6.044764e-009
-5.780394e-009
-5.131351e-009
-4.215842e-009
-3.202909e-009
-2.226030e-009
-1.336434e-009
-5.321386e-010
1.857699e-010
7.917568e-010
1.257507e-009
1.577929e-009
1.770544e-009
1.855270e-009
1.839691e-009
1.720194e-009
1.489707e-009
1.142425e-009
6.766537e-010
9.882458e-011
-5.756369e-010
-1.328234e-009
-2.140999e-009
-2.983670e-009
-3.788876e-009
-4.443361e-009
-4.816444e-009
-4.807261e-009
-4.366134e-009
-3.474964e-009
-2.130857e-009
-3.885919e-010
1.553438e-009
3.320898e-009
4.465662e-009
4.660610e-009
3.843716e-009
2.213261e-009
1.273351e-010
-1.962795e-009
-3.518992e-009
-3.992143e-009
-3.078280e-009
-1.032344e-009
1.277106e-009
2.764447e-009
2.771858e-009
1.478458e-009
-2.568383e-010
-1.479962e-009
-1.686666e-009
-9.763154e-010
1.504102e-010
1.084581e-009
1.333317e-009
7.128902e-010
-4.767342e-010
-1.479363e-009
-1.501083e-009
-3.531408e-010
1.228504e-009
2.023075e-009
1.303053e-009
-4.725890e-010
-1.941944e-009
3.706621e-009
1.189612e-010
-3.654139e-009
-4.124842e-009
-7.669326e-010
3.603594e-009
5.302925e-009
2.862724e-009
-1.884295e-009
-5.443702e-009
-5.428062e-009
-2.129619e-009
2.121931e-009
4.890806e-009
5.120272e-009
3.245768e-009
3.774330e-010
-2.438079e-009
-4.398346e-009
-4.880390e-009
-3.588719e-009
-8.755757e-010
2.216391e-009
4.433041e-009
4.996254e-009
3.943789e-009
1.901234e-009
-4.152654e-010
-2.514555e-009
-4.115675e-009
-5.011301e-009
-5.052862e-009
-4.258897e-009
-2.865988e-009
-1.217423e-009
4.154249e-010
1.913516e-009
3.248586e-009
4.384661e-009
5.256454e-009
5.825250e-009
6.125924e-009
6.246365e-009
6.267050e-009
6.226051e-009
6.134135e-009
6.008153e-009
5.882522e-009
5.793331e-009
5.758348e-009
5.771800e-009
5.812570e-009
5.855050e-009
5.875778e-009
5.852930e-009
5.757258e-009
5.540172e-009
5.134628e-009
4.479619e-009
3.554523e-009
2.392286e-009
1.059552e-009
-3.663686e-010
-1.783377e-009
-3.020817e-009
-3.830926e-009
-3.968374e-009
-3.322947e-009
-2.001090e-009
-2.920672e-010
1.432059e-009
2.784195e-009
3.384398e-009
2.934258e-009
1.407801e-009
-7.591041e-010
-2.716926e-009
-3.584076e-009
-2.948348e-009
-1.116372e-009
1.072542e-009
2.696225e-009
3.135685e-009
2.241762e-009
3.638588e-010
-1.686524e-009
-2.858968e-009
-2.401004e-009
-4.809934e-010
1.680442e-009
2.545302e-009
1.461694e-009
-6.857598e-010
-2.105531e-009
-1.611137e-009
3.043473e-010
1.877063e-009
1.668980e-009
-1.029512e-010
-1.767982e-009
1.018525e-009
-7.835157e-010
-2.347829e-009
-1.708193e-009
1.072886e-009
3.770944e-009
3.867368e-009
8.238448e-010
-3.254591e-009
-5.231376e-009
-3.496889e-009
7.088773e-010
4.314250e-009
4.843474e-009
2.185662e-009
-1.627328e-009
-4.163363e-009
-4.233086e-009
-2.243151e-009
5.881302e-010
3.143849e-009
4.731694e-009
4.945306e-009
3.593649e-009
8.902356e-010
-2.407375e-009
-5.239194e-009
-6.764794e-009
-6.736999e-009
-5.448681e-009
-3.392170e-009
-9.814678e-010
1.485222e-009
3.737841e-009
5.516938e-009
6.661742e-009
7.181099e-009
7.210155e-009
6.897168e-009
6.334846e-009
5.581476e-009
4.713334e-009
3.833495e-009
3.031719e-009
2.348714e-009
1.783788e-009
1.330852e-009
1.002184e-009
8.219344e-010
8.053006e-010
9.475522e-010
1.230766e-009
1.638834e-009
2.166508e-009
2.813330e-009
3.563740e-009
4.367187e-009
5.136826e-009
5.771007e-009
6.176955e-009
6.270807e-009
5.958558e-009
5.138166e-009
3.753682e-009
1.874106e-009
-2.733948e-010
-2.353501e-009
-4.013675e-009
-4.944951e-009
-4.907941e-009
-3.795086e-009
-1.763295e-009
6.650798e-010
2.701221e-009
3.623770e-009
3.151327e-009
1.581269e-009
-3.892672e-010
-1.986920e-009
-2.612813e-009
-1.989864e-009
-3.074966e-010
1.673719e-009
2.814483e-009
2.240657e-009
1.034687e-010
-2.255050e-009
-3.133945e-009
-1.808651e-009
7.648108e-010
2.625212e-009
2.400279e-009
4.452819e-010
-1.513863e-009
-1.922922e-009
-7.177193e-010
7.691116e-010
1.158510e-009
3.068456e-010
-6.871036e-010
-2.087765e-009
-8.629183e-010
7.351827e-010
1.750139e-009
1.727008e-009
7.992381e-010
-5.643609e-010
-1.740374e-009
-2.027219e-009
-9.382691e-010
1.246364e-009
3.232722e-009
3.370456e-009
9.763462e-010
-2.801309e-009
-5.544895e-009
-5.283686e-009
-1.966496e-009
2.540557e-009
5.844284e-009
6.558486e-009
4.819876e-009
1.703493e-009
-1.644657e-009
-4.414434e-009
-6.058866e-009
-6.197829e-009
-4.759490e-009
-2.159016e-009
8.045554e-010
3.334766e-009
4.988614e-009
5.723913e-009
5.695194e-009
5.056102e-009
3.928559e-009
2.472253e-009
9.036522e-010
-5.772510e-010
-1.865262e-009
-2.949029e-009
-3.847333e-009
-4.561256e-009
-5.082896e-009
-5.428854e-009
-5.647704e-009
-5.792552e-009
-5.891383e-009
-5.944476e-009
-5.944543e-009
-5.893564e-009
-5.798870e-009
-5.654385e-009
-5.427241e-009
-5.064703e-009
-4.517669e-009
-3.760855e-009
-2.792756e-009
-1.621844e-009
-2.662626e-010
1.216178e-009
2.689839e-009
3.940869e-009
4.732477e-009
4.878126e-009
4.280673e-009
2.938301e-009
9.713235e-010
-1.309079e-009
-3.369344e-009
-4.575026e-009
-4.466671e-009
-3.020803e-009
-6.973643e-010
1.753905e-009
3.565298e-009
4.146710e-009
3.225157e-009
1.021904e-009
-1.616337e-009
-3.417140e-009
-3.352461e-009
-1.421760e-009
1.147776e-009
2.654929e-009
2.167448e-009
2.365824e-010
-1.568923e-009
-1.935887e-009
-7.952481e-010
7.780360e-010
1.559341e-009
1.129473e-009
2.598526e-011
-8.699446e-010
-1.051950e-009
-6.248832e-010
-1.863244e-011
4.262107e-010
6.249710e-010
-4.257987e-009
-3.169376e-010
3.823993e-009
4.454282e-009
1.153064e-009
-3.128167e-009
-4.885465e-009
-2.960358e-009
9.387374e-010
4.036988e-009
4.614074e-009
2.738521e-009
-3.810393e-010
-3.312594e-009
-4.850818e-009
-4.216566e-009
-1.428821e-009
2.359251e-009
5.192164e-009
5.433858e-009
2.892865e-009
-1.030282e-009
-4.322466e-009
-5.617627e-009
-4.755241e-009
-2.429376e-009
4.861109e-010
3.300086e-009
5.472069e-009
6.536502e-009
6.226274e-009
4.660389e-009
2.324940e-009
-1.918247e-010
-2.478746e-009
-4.373489e-009
-5.843025e-009
-6.858593e-009
-7.389043e-009
-7.466091e-009
-7.206259e-009
-6.754410e-009
-6.214613e-009
-5.637298e-009
-5.056940e-009
-4.523538e-009
-4.094143e-009
-3.804487e-009
-3.659134e-009
-3.649888e-009
-3.778091e-009
-4.054729e-009
-4.479313e-009
-5.021466e-009
-5.624242e-009
-6.222281e-009
-6.750059e-009
-7.127457e-009
-7.241423e-009
-6.957042e-009
-6.165977e-009
-4.838527e-009
-3.039224e-009
-9.098222e-010
1.335425e-009
3.383196e-009
4.819748e-009
5.235880e-009
4.429584e-009
2.572013e-009
1.931358e-010
-2.012264e-009
-3.413144e-009
-3.586336e-009
-2.410944e-009
-1.991723e-010
2.214052e-009
3.670175e-009
3.283689e-009
1.115850e-009
-1.667111e-009
-3.448350e-009
-3.228750e-009
-1.284574e-009
1.096593e-009
2.537787e-009
2.404471e-009
1.016043e-009
-7.096724e-010
-1.798793e-009
-1.679434e-009
-4.718084e-010
1.004297e-009
1.671611e-009
9.773111e-010
-5.603687e-010
-1.654010e-009
-1.319279e-009
1.960688e-010
1.564233e-009
-4.575009e-009
2.365402e-010
4.958248e-009
4.918583e-009
7.138914e-011
-5.139418e-009
-6.039748e-009
-1.920369e-009
3.615358e-009
6.083512e-009
3.895827e-009
-7.899397e-010
-4.353777e-009
-4.635885e-009
-2.042683e-009
1.460519e-009
3.971249e-009
4.493205e-009
2.905277e-009
-2.465948e-010
-3.798389e-009
-6.190808e-009
-6.160589e-009
-3.535034e-009
5.862034e-010
4.501797e-009
6.887527e-009
7.317802e-009
6.091224e-009
3.757865e-009
8.419351e-010
-2.149236e-009
-4.686156e-009
-6.338528e-009
-6.957153e-009
-6.702217e-009
-5.875340e-009
-4.722584e-009
-3.375343e-009
-1.921690e-009
-4.762304e-010
8.363780e-010
1.944145e-009
2.850173e-009
3.591943e-009
4.190157e-009
4.639473e-009
4.935125e-009
5.091349e-009
5.128020e-009
5.045261e-009
4.818170e-009
4.415980e-009
3.820399e-009
3.022452e-009
2.008715e-009
7.661235e-010
-6.854202e-010
-2.260177e-009
-3.807941e-009
-5.147550e-009
-6.093618e-009
-6.453845e-009
-6.032593e-009
-4.699463e-009
-2.517583e-009
1.670652e-010
2.778783e-009
4.697460e-009
5.453074e-009
4.831131e-009
2.919347e-009
1.726011e-010
-2.556025e-009
-4.208027e-009
-4.017045e-009
-2.051604e-009
6.663394e-010
2.693197e-009
3.027106e-009
1.673090e-009
-4.632180e-010
-2.172671e-009
-2.565613e-009
-1.436087e-009
6.376058e-010
2.460495e-009
2.783246e-009
1.176325e-009
-1.389945e-009
-3.007297e-009
-2.306215e-009
2.241601e-010
2.452811e-009
2.440218e-009
2.748242e-010
-1.943421e-009
-2.105529e-009
-1.629733e-010
1.838254e-009
-2.721938e-009
4.087585e-010
3.259911e-009
2.737084e-009
-8.004334e-010
-3.873285e-009
-3.315490e-009
5.688386e-010
4.200331e-009
4.078983e-009
7.844990e-011
-4.412418e-009
-5.530444e-009
-2.256063e-009
2.924775e-009
6.288001e-009
5.768857e-009
2.066071e-009
-2.453971e-009
-5.580848e-009
-6.269233e-009
-4.570128e-009
-1.202899e-009
2.682830e-009
5.696637e-009
6.670311e-009
5.251489e-009
2.111278e-009
-1.485455e-009
-4.402307e-009
-6.073192e-009
-6.446092e-009
-5.692159e-009
-4.036851e-009
-1.781701e-009
6.697705e-010
2.917737e-009
4.723128e-009
6.054131e-009
6.989298e-009
7.596611e-009
7.903565e-009
7.947510e-009
7.813382e-009
7.607760e-009
7.407012e-009
7.241196e-009
7.122047e-009
7.071619e-009
7.117755e-009
7.269655e-009
7.507929e-009
7.797688e-009
8.100076e-009
8.361648e-009
8.495307e-009
8.384249e-009
7.915400e-009
7.012276e-009
5.639935e-009
3.798903e-009
1.551864e-009
-9.119836e-010
-3.239358e-009
-4.975594e-009
-5.718288e-009
-5.264249e-009
-3.667935e-009
-1.233016e-009
1.492886e-009
3.740944e-009
4.692053e-009
3.855238e-009
1.459976e-009
-1.489842e-009
-3.665047e-009
-4.112523e-009
-2.730715e-009
-2.463420e-010
2.180671e-009
3.436143e-009
2.884528e-009
7.419379e-010
-1.804604e-009
-3.094780e-009
-2.117948e-009
4.996946e-010
2.701938e-009
2.598972e-009
2.091985e-010
-2.375704e-009
-2.814599e-009
-7.308216e-010
1.880016e-009
2.571446e-009
8.418748e-010
-1.425389e-009
-1.943436e-009
-3.703858e-010
1.423965e-009
7.618822e-010
2.700210e-010
-4.743493e-010
-1.081295e-009
-1.098534e-009
-2.239674e-010
1.314107e-009
2.531790e-009
2.151341e-009
-2.520719e-010
-3.380897e-009
-4.782317e-009
-2.807119e-009
1.668867e-009
5.547527e-009
5.866716e-009
2.224785e-009
-2.885727e-009
-6.070028e-009
-5.515805e-009
-1.936607e-009
2.421089e-009
5.451248e-009
6.146107e-009
4.542661e-009
1.289176e-009
-2.615497e-009
-5.968940e-009
-7.692247e-009
-7.290774e-009
-5.067396e-009
-1.863508e-009
1.449260e-009
4.309215e-009
6.464781e-009
7.812347e-009
8.317037e-009
8.054501e-009
7.236355e-009
6.129344e-009
4.934871e-009
3.745689e-009
2.598725e-009
1.540088e-009
6.304401e-010
-9.272861e-011
-6.332158e-010
-1.011054e-009
-1.228897e-009
-1.267792e-009
-1.106739e-009
-7.339042e-010
-1.384791e-010
6.947618e-010
1.768675e-009
3.047895e-009
4.451863e-009
5.868281e-009
7.157752e-009
8.134497e-009
8.556737e-009
8.176967e-009
6.849816e-009
4.627340e-009
1.775920e-009
-1.272645e-009
-3.974091e-009
-5.723377e-009
-5.987078e-009
-4.562487e-009
-1.832437e-009
1.235771e-009
3.465578e-009
4.029042e-009
2.825786e-009
4.798835e-010
-1.949425e-009
-3.347067e-009
-2.953957e-009
-8.099988e-010
2.001292e-009
3.734851e-009
3.088004e-009
3.348960e-010
-2.601212e-009
-3.525074e-009
-1.797475e-009
1.052201e-009
2.635096e-009
1.813196e-009
-3.660227e-010
-1.789621e-009
-1.317077e-009
2.750120e-010
1.281219e-009
8.502160e-010
-2.956325e-010
-8.307697e-010
-3.110076e-010
4.536724e-010
4.397529e-009
7.105362e-011
-4.262782e-009
-4.549570e-009
-7.291114e-010
3.619196e-009
4.863017e-009
2.369451e-009
-1.552443e-009
-4.023896e-009
-3.703366e-009
-1.152794e-009
2.002653e-009
3.990434e-009
3.559759e-009
6.363880e-010
-3.274288e-009
-5.654756e-009
-4.602564e-009
-3.690471e-010
4.616914e-009
7.411926e-009
6.537458e-009
2.699216e-009
-2.065887e-009
-5.798985e-009