# vtk DataFile Version 3.0
vtk output
ASCII
DATASET STRUCTURED_POINTS
DIMENSIONS 100 100 1
SPACING 1 1 1
ORIGIN 0 0 0
POINT_DATA 10000
SCALARS SFBox_profile double
LOOKUP_TABLE default 
0.000000e+000
0.000000e+000
0.000000e+000
0.000000e+000
0.000000e+000
0.000000e+000
0.000000e+000
0.000000e+000
0.000000e+000
0.000000e+000
0.000000e+000
0.000000e+000
0.000000e+000
0.000000e+000
0.000000e+000
0.000000e+000
0.000000e+000
0.000000e+000
0.000000e+000
0.000000e+000
0.000000e+000
0.000000e+000
0.000000e+000
0.000000e+000
0.000000e+000
0.000000e+000
0.000000e+000
0.000000e+000
0.000000e+000
0.000000e+000
0.000000e+000
0.000000e+000
0.000000e+000
0.000000e+000
0.000000e+000
0.000000e+000
0.000000e+000
0.000000e+000
0.000000e+000
0.000000e+000
0.000000e+000
0.000000e+000
0.000000e+000
0.000000e+000
0.000000e+000
0.000000e+000
0.000000e+000
0.000000e+000
0.000000e+000
0.000000e+000
0.000000e+000
0.000000e+000
0.000000e+000
0.000000e+000
0.000000e+000
0.000000e+000
0.000000e+000
0.000000e+000
0.000000e+000
0.000000e+000
0.000000e+000
0.000000e+000
0.000000e+000
0.000000e+000
0.000000e+000
0.000000e+000
0.000000e+000
0.000000e+000
0.000000e+000
0.000000e+000
0.000000e+000
0.000000e+000
0.000000e+000
0.000000e+000
0.000000e+000
0.000000e+000
0.000000e+000
0.000000e+000
0.000000e+000
0.000000e+000
0.000000e+000
0.000000e+000
0.000000e+000
0.000000e+000
0.000000e+000
0.000000e+000
0.000000e+000
0.000000e+000
0.000000e+000
0.000000e+000
0.000000e+000
0.000000e+000
0.000000e+000
0.000000e+000
0.000000e+000
0.000000e+000
0.000000e+000
0.000000e+000
0.000000e+000
0.000000e+000
-8.877625e-010
-5.915174e-011
1.117772e-009
1.819867e-009
1.250781e-009
-7.002099e-010
-3.014083e-009
-3.940099e-009
-2.248885e-009
1.549633e-009
5.180557e-009
6.085574e-009
3.377050e-009
-1.369144e-009
-5.250527e-009
-6.202487e-009
-4.354019e-009
-1.485623e-009
7.395731e-010
2.031431e-009
3.136228e-009
4.504971e-009
5.511391e-009
5.043652e-009
2.751057e-009
-4.517401e-010
-3.153717e-009
-4.632714e-009
-5.225607e-009
-5.623934e-009
-5.990385e-009
-5.859328e-009
-4.803697e-009
-3.012946e-009
-1.138474e-009
3.402156e-010
1.478972e-009
2.616078e-009
3.884146e-009
5.060197e-009
5.854589e-009
6.238353e-009
6.440560e-009
6.678133e-009
6.957098e-009
7.136311e-009
7.127129e-009
6.993952e-009
6.878975e-009
6.862981e-009
6.902260e-009
6.881799e-009
6.725153e-009
6.464872e-009
6.205187e-009
5.996175e-009
5.740538e-009
5.256171e-009
4.461687e-009
3.481211e-009
2.513747e-009
1.588461e-009
5.126039e-010
-8.702079e-010
-2.389083e-009
-3.605296e-009
-4.215140e-009
-4.335585e-009
-4.292780e-009
-4.130869e-009
-3.461967e-009
-1.926121e-009
2.265056e-010
2.156127e-009
3.129991e-009
3.150045e-009
2.786286e-009
2.399332e-009
1.687321e-009
1.545713e-010
-1.996824e-009
-3.637570e-009
-3.568706e-009
-1.674035e-009
8.340479e-010
2.387432e-009
2.323114e-009
1.234481e-009
1.812366e-010
-3.347976e-010
-5.953566e-010
-1.003397e-009
-1.393117e-009
-1.134372e-009
7.221686e-011
1.606954e-009
2.274086e-009
1.349219e-009
-6.526310e-010
-2.271885e-009
4.128049e-010
-1.152015e-010
-6.162278e-010
-5.482229e-010
1.055775e-010
8.078432e-010
9.447471e-010
3.744393e-010
-4.562797e-010
-9.299159e-010
-8.064972e-010
-3.725498e-010
-6.258537e-011
3.138060e-011
2.239252e-010
7.913794e-010
1.509549e-009
1.728115e-009
9.761740e-010
-5.083407e-010
-1.903577e-009
-2.492379e-009
-2.225585e-009
-1.606016e-009
-1.069614e-009
-5.600574e-010
2.671219e-010
1.501485e-009
2.747393e-009
3.464766e-009
3.476385e-009
3.073367e-009
2.639301e-009
2.252348e-009
1.698113e-009
8.171630e-010
-2.534391e-010
-1.208010e-009
-1.880734e-009
-2.367603e-009
-2.855122e-009
-3.390208e-009
-3.851271e-009
-4.114160e-009
-4.196029e-009
-4.225740e-009
-4.303482e-009
-4.414107e-009
-4.469416e-009
-4.413123e-009
-4.277983e-009
-4.148612e-009
-4.072249e-009
-4.002624e-009
-3.835340e-009
-3.510170e-009
-3.077844e-009
-2.645822e-009
-2.245353e-009
-1.773767e-009
-1.105740e-009
-2.659406e-010
5.499590e-010
1.161577e-009
1.589373e-009
1.997376e-009
2.434810e-009
2.693069e-009
2.491874e-009
1.808926e-009
9.557609e-010
2.775221e-010
-1.851187e-010
-6.594447e-010
-1.258083e-009
-1.718933e-009
-1.622052e-009
-8.729745e-010
1.054529e-010
7.259906e-010
7.693334e-010
5.201509e-010
3.786294e-010
4.063549e-010
3.181220e-010
-9.695602e-011
-6.343439e-010
-8.242872e-010
-4.242252e-010
2.827953e-010
7.167575e-010
5.354459e-010
-5.523969e-011
-5.090270e-010
-4.475421e-010
1.649456e-011
4.205926e-010
3.953131e-010
-9.305894e-012
-3.947581e-010
1.574413e-009
1.665861e-011
-1.897634e-009
-2.619636e-009
-1.283750e-009
1.562488e-009
4.101056e-009
4.366588e-009
1.697239e-009
-2.576403e-009
-5.871145e-009
-6.089458e-009
-3.056896e-009
1.451133e-009
5.048321e-009
6.295157e-009
5.274782e-009
2.975303e-009
3.028624e-010
-2.334916e-009
-4.718701e-009
-6.396305e-009
-6.746900e-009
-5.462427e-009
-2.879979e-009
2.087839e-010
3.061538e-009
5.306936e-009
6.865776e-009
7.700940e-009
7.727685e-009
6.933379e-009
5.488198e-009
3.680012e-009
1.751556e-009
-1.744287e-010
-2.031426e-009
-3.727031e-009
-5.155489e-009
-6.272716e-009
-7.122054e-009
-7.774233e-009
-8.258286e-009
-8.564286e-009
-8.701933e-009
-8.732294e-009
-8.731236e-009
-8.730637e-009
-8.708098e-009
-8.634546e-009
-8.520390e-009
-8.405055e-009
-8.303048e-009
-8.171631e-009
-7.940335e-009
-7.569133e-009
-7.066067e-009
-6.442786e-009
-5.664702e-009
-4.664519e-009
-3.411677e-009
-1.956940e-009
-3.985956e-010
1.182468e-009
2.728177e-009
4.138781e-009
5.232323e-009
5.804661e-009
5.738016e-009
5.036862e-009
3.766080e-009
2.006176e-009
-7.896545e-011
-2.143046e-009
-3.705516e-009
-4.378417e-009
-4.071372e-009
-2.967710e-009
-1.329649e-009
5.981505e-010
2.460138e-009
3.662855e-009
3.576588e-009
2.038656e-009
-3.085845e-010
-2.285761e-009
-2.937757e-009
-2.158162e-009
-6.427463e-010
7.284329e-010
1.473232e-009
1.583231e-009
1.207637e-009
4.285121e-010
-6.159730e-010
-1.511953e-009
-1.675656e-009
-8.271369e-010
6.200438e-010
1.729819e-009
1.055703e-009
3.242974e-010
-8.624978e-010
-1.823704e-009
-1.648959e-009
5.460483e-011
2.452514e-009
3.731529e-009
2.463956e-009
-9.656181e-010
-4.292749e-009
-5.015561e-009
-2.464329e-009
1.562081e-009
4.252898e-009
4.065554e-009
1.783597e-009
-5.062496e-010
-1.390256e-009
-1.130228e-009
-9.042921e-010
-1.316347e-009
-1.803339e-009
-1.434003e-009
-6.652756e-011
1.435239e-009
2.078112e-009
1.673917e-009
8.566480e-010
3.020426e-010
8.723287e-011
-1.775125e-010
-7.468628e-010
-1.418610e-009
-1.794392e-009
-1.726742e-009
-1.423830e-009
-1.162019e-009
-9.985940e-010
-7.947116e-010
-4.479308e-010
-2.417457e-011
3.350974e-010
5.711522e-010
7.371814e-010
8.999538e-010
1.060061e-009
1.173753e-009
1.216695e-009
1.200669e-009
1.142937e-009
1.047922e-009
9.195603e-010
7.658836e-010
5.791242e-010
3.321374e-010
1.918362e-011
-3.085214e-010
-5.801378e-010
-7.865254e-010
-9.905835e-010
-1.223098e-009
-1.387056e-009
-1.323307e-009
-9.964365e-010
-5.699850e-010
-2.370939e-010
1.122533e-011
3.654717e-010
8.944965e-010
1.324609e-009
1.242121e-009
5.602709e-010
-2.998799e-010
-7.992887e-010
-8.395280e-010
-8.143219e-010
-1.037643e-009
-1.221625e-009
-7.138265e-010
6.637468e-010
2.129498e-009
2.495267e-009
1.305984e-009
-6.204496e-010
-1.883044e-009
-1.754701e-009
-7.335301e-010
1.266820e-010
3.265653e-010
2.747447e-010
5.782173e-010
1.151361e-009
1.205390e-009
1.751828e-010
-1.437904e-009
-2.305575e-009
-1.478356e-009
6.043420e-010
2.348325e-009
-1.134859e-009
3.695548e-010
1.754223e-009
1.484811e-009
-3.936716e-010
-2.285336e-009
-2.526649e-009
-8.995928e-010
1.248201e-009
2.331654e-009
1.950465e-009
1.004076e-009
4.809735e-010
3.011025e-010
-4.851788e-010
-2.347755e-009
-4.315298e-009
-4.600971e-009
-2.302358e-009
1.572542e-009
4.865937e-009
6.072138e-009
5.373470e-009
3.983637e-009
2.685934e-009
1.192573e-009
-1.119601e-009
-4.113589e-009
-6.748717e-009
-8.004185e-009
-7.773288e-009
-6.766729e-009
-5.654367e-009
-4.468755e-009
-2.850745e-009
-6.977651e-010
1.595090e-009
3.513979e-009
4.901349e-009
5.983968e-009
7.007838e-009
7.959051e-009
8.653019e-009
9.002632e-009
9.121964e-009
9.189553e-009
9.280472e-009
9.351257e-009
9.340593e-009
9.241826e-009
9.092866e-009
8.935783e-009
8.788898e-009
8.623761e-009
8.355845e-009
7.890774e-009
7.211221e-009
6.397426e-009
5.516078e-009
4.492328e-009
3.157783e-009
1.473934e-009
-3.306750e-010
-1.926242e-009
-3.194453e-009
-4.288771e-009
-5.310199e-009
-5.981141e-009
-5.791379e-009
-4.544091e-009
-2.673110e-009
-8.883453e-010
4.923339e-010
1.720065e-009
3.041839e-009
4.071292e-009
3.967666e-009
2.358918e-009
-2.350291e-011
-1.823679e-009
-2.241801e-009
-1.660901e-009
-1.048085e-009
-8.363173e-010
-5.687123e-010
3.202163e-010
1.554125e-009
2.080414e-009
1.170614e-009
-6.461905e-010
-1.907433e-009
-1.558968e-009
2.482314e-011
1.380832e-009
1.330815e-009
5.221097e-011
-1.159060e-009
-1.156683e-009
-9.974313e-012
1.117974e-009
-3.010090e-009
-1.393671e-010
3.140797e-009
4.033224e-009
1.573988e-009
-2.581726e-009
-5.374514e-009
-4.660232e-009
-8.272123e-010
3.570906e-009
5.809958e-009
4.907318e-009
1.927685e-009
-1.288714e-009
-3.561426e-009
-4.686930e-009
-4.742246e-009
-3.533327e-009
-9.372997e-010
2.390691e-009
5.032879e-009
5.785495e-009
4.620656e-009
2.575464e-009
6.938671e-010
-8.069977e-010
-2.301602e-009
-3.886098e-009
-4.997019e-009
-4.964379e-009
-3.786352e-009
-2.179914e-009
-8.685592e-010
4.332505e-011
9.365195e-010
2.048014e-009
3.136609e-009
3.781641e-009
3.874366e-009
3.704776e-009
3.603587e-009
3.612929e-009
3.542281e-009
3.265093e-009
2.874906e-009
2.563032e-009
2.418798e-009
2.382226e-009
2.350782e-009
2.287120e-009
2.234596e-009
2.267692e-009
2.430826e-009
2.691932e-009
2.944355e-009
3.087839e-009
3.133041e-009
3.194866e-009
3.332839e-009
3.408758e-009
3.174326e-009
2.539801e-009
1.701920e-009
9.262581e-010
2.174522e-010
-6.829576e-010
-1.899681e-009
-3.097064e-009
-3.686633e-009
-3.397366e-009
-2.537433e-009
-1.600439e-009
-6.850553e-010
5.224437e-010
2.131968e-009
3.567886e-009
3.909893e-009
2.771772e-009
7.397715e-010
-1.139486e-009
-2.239771e-009
-2.631574e-009
-2.561215e-009
-1.918058e-009
-4.396721e-010
1.591694e-009
3.120296e-009
3.040643e-009
1.236110e-009
-1.157476e-009
-2.601231e-009
-2.336785e-009
-8.422683e-010
7.302978e-010
1.492554e-009
1.310852e-009
6.144496e-010
-9.552065e-011
-5.615291e-010
-7.660812e-010
-2.217819e-009
-7.614616e-010
1.339513e-009
2.763236e-009
2.341032e-009
3.122729e-011
-2.675485e-009
-3.667837e-009
-1.970905e-009
1.221199e-009
3.401123e-009
2.893438e-009
3.191485e-010
-2.032980e-009
-2.308132e-009
-6.176556e-010
1.367741e-009
2.126108e-009
1.477915e-009
2.571232e-010
-8.260372e-010
-1.739965e-009
-2.669081e-009
-3.367073e-009
-3.232607e-009
-1.975235e-009
1.077335e-011
2.018697e-009
3.648896e-009
4.935567e-009
5.938477e-009
6.425376e-009
6.073309e-009
4.891413e-009
3.288289e-009
1.691601e-009
1.959585e-010
-1.356813e-009
-3.023710e-009
-4.599090e-009
-5.817220e-009
-6.628857e-009
-7.213888e-009
-7.751972e-009
-8.246727e-009
-8.581882e-009
-8.694598e-009
-8.653697e-009
-8.585705e-009
-8.558494e-009
-8.536203e-009
-8.423196e-009
-8.148362e-009
-7.726335e-009
-7.239855e-009
-6.738556e-009
-6.146425e-009
-5.303464e-009
-4.135848e-009
-2.768246e-009
-1.415587e-009
-1.560296e-010
1.124631e-009
2.507518e-009
3.798452e-009
4.607655e-009
4.706708e-009
4.239360e-009
3.512844e-009
2.631495e-009
1.460539e-009
-1.416952e-011
-1.412794e-009
-2.189504e-009
-2.136514e-009
-1.554300e-009
-8.832442e-010
-2.793102e-010
3.297576e-010
8.447071e-010
8.904118e-010
2.623620e-010
-6.241946e-010
-9.672307e-010
-3.748331e-010
6.607190e-010
1.216447e-009
8.618603e-010
2.949275e-011
-5.474799e-010
-6.253737e-010
-5.440102e-010
-5.972125e-010
-5.500991e-010
3.295092e-011
1.041644e-009
1.647337e-009
1.072245e-009
-4.799745e-010
-1.818642e-009
1.403843e-009
-6.721588e-010
-2.445124e-009
-1.825711e-009
8.431397e-010
3.171654e-009
3.121312e-009
9.019955e-010
-1.488797e-009
-2.408165e-009
-2.020830e-009
-1.605007e-009
-1.702821e-009
-1.360145e-009
6.212011e-010
3.872374e-009
6.258328e-009
5.691637e-009
2.108430e-009
-2.441071e-009
-5.601158e-009
-6.494227e-009
-5.811892e-009
-4.517065e-009
-2.816141e-009
-4.115261e-010
2.588720e-009
5.361030e-009
6.992735e-009
7.222690e-009
6.461516e-009
5.212269e-009
3.651455e-009
1.765248e-009
-3.068138e-010
-2.229025e-009
-3.741254e-009
-4.848279e-009
-5.697742e-009
-6.346791e-009
-6.721515e-009
-6.778406e-009
-6.621771e-009
-6.426090e-009
-6.278224e-009
-6.136214e-009
-5.934823e-009
-5.695877e-009
-5.520172e-009
-5.485705e-009
-5.570931e-009
-5.681113e-009
-5.746004e-009
-5.785839e-009
-5.871242e-009
-6.011708e-009
-6.096504e-009
-5.970454e-009
-5.571359e-009
-4.962772e-009
-4.209666e-009
-3.253592e-009
-1.970979e-009
-3.683203e-010
1.334159e-009
2.856192e-009
4.055846e-009
4.903619e-009
5.276227e-009
4.904909e-009
3.637774e-009
1.718519e-009
-3.156786e-010
-2.042767e-009
-3.356144e-009
-4.190136e-009
-4.189836e-009
-2.925324e-009
-5.547005e-010
1.894792e-009
3.181747e-009
2.889344e-009
1.710535e-009
6.248843e-010
-8.753053e-011
-8.382969e-010
-1.794489e-009
-2.278213e-009
-1.414527e-009
6.279108e-010
2.357304e-009
2.234019e-009
2.820707e-010
-1.746683e-009
-1.998314e-009
-3.414361e-010
1.501138e-009
1.690233e-009
1.156063e-010
-1.534152e-009
4.905870e-009
2.860783e-010
-4.691642e-009
-5.624532e-009
-1.726132e-009
3.695681e-009
6.266830e-009
4.249731e-009
-3.383253e-010
-3.912876e-009
-4.481738e-009
-2.801789e-009
-8.402310e-010
4.174949e-010
1.435814e-009
2.732663e-009
3.637053e-009
2.858331e-009
1.941501e-010
-2.762969e-009
-3.922262e-009
-2.642543e-009
-2.153692e-010
1.550836e-009
1.993757e-009
1.769748e-009
1.644497e-009
1.501816e-009
6.576783e-010
-1.105790e-009
-3.123537e-009
-4.478707e-009
-4.841079e-009
-4.565216e-009
-4.094882e-009
-3.480305e-009
-2.508096e-009
-1.131051e-009
3.892896e-010
1.743704e-009
2.851167e-009
3.825137e-009
4.741624e-009
5.529811e-009
6.087072e-009
6.425085e-009
6.653091e-009
6.841320e-009
6.951421e-009
6.911955e-009
6.725780e-009
6.466680e-009
6.174885e-009
5.793003e-009
5.230406e-009
4.474951e-009
3.603870e-009
2.676330e-009
1.657010e-009
4.929484e-010
-7.440877e-010
-1.853486e-009
-2.676310e-009
-3.221566e-009
-3.554962e-009
-3.586135e-009
-3.087443e-009
-2.005725e-009
-6.867544e-010
3.510386e-010
8.945666e-010
1.165416e-009
1.383436e-009
1.321413e-009
5.304348e-010
-9.206821e-010
-2.141262e-009
-2.123381e-009
-7.903885e-010
8.422361e-010
1.674416e-009
1.571316e-009
1.232674e-009
1.092157e-009
6.867078e-010
-6.224621e-010
-2.435254e-009
-3.237032e-009
-1.845827e-009
1.106687e-009
3.408501e-009
3.196812e-009
7.061287e-010
-1.933875e-009
-2.656800e-009
-1.253496e-009
6.668617e-010
1.361104e-009
5.604279e-010
-4.969159e-010
4.516071e-009
1.181437e-009
-2.891382e-009
-4.641829e-009
-2.827043e-009
9.946431e-010
3.692826e-009
3.187799e-009
2.439331e-010
-2.285461e-009
-2.153067e-009
2.207337e-010
2.327541e-009
2.117244e-009
-1.443274e-010
-2.480262e-009
-3.323744e-009
-2.736381e-009
-1.641433e-009
-3.870338e-010
1.467789e-009
4.021682e-009
6.207933e-009
6.508474e-009
4.442873e-009
1.068364e-009
-2.075195e-009
-4.308470e-009
-5.964096e-009
-7.407059e-009
-8.281933e-009
-7.879937e-009
-6.047507e-009
-3.462180e-009
-9.876430e-010
1.060956e-009
2.922752e-009
4.816035e-009
6.563986e-009
7.813461e-009
8.464575e-009
8.753925e-009
8.953512e-009
9.110424e-009
9.116673e-009
8.944018e-009
8.716841e-009
8.567010e-009
8.500685e-009
8.446865e-009
8.387616e-009
8.375192e-009
8.425591e-009
8.459793e-009
8.386272e-009
8.200326e-009
7.938836e-009
7.542095e-009
6.837758e-009
5.714861e-009
4.270577e-009
2.703008e-009
1.063284e-009
-7.746257e-010
-2.814575e-009
-4.677612e-009
-5.795261e-009
-5.916607e-009
-5.313854e-009
-4.380479e-009
-3.115241e-009
-1.220360e-009
1.220182e-009
3.366046e-009
4.190377e-009
3.463269e-009
1.986456e-009
7.417302e-010
-4.894635e-011
-8.222737e-010
-1.724250e-009
-2.124716e-009
-1.338019e-009
3.074566e-010
1.488853e-009
1.173243e-009
-2.464987e-010
-1.307018e-009
-9.726126e-010
3.624114e-010
1.392987e-009
1.257509e-009
2.476131e-010
-7.063230e-010
-9.960241e-010
-7.060146e-010
-2.447726e-010
1.251663e-010
3.674057e-010
4.967437e-010
-5.099681e-010
9.408920e-010
1.895953e-009
9.223849e-010
-1.236778e-009
-2.575097e-009
-2.080785e-009
-6.354808e-010
3.523011e-010
7.072893e-010
1.403990e-009
2.824565e-009
3.705892e-009
2.322214e-009
-1.349577e-009
-5.082085e-009
-6.274167e-009
-4.271212e-009
-6.916904e-010
2.347906e-009
3.970660e-009
4.515822e-009
4.324849e-009
3.145079e-009
8.061460e-010
-1.977812e-009
-3.925262e-009
-4.307161e-009
-3.490934e-009
-2.302925e-009
-1.089447e-009
3.829855e-010
2.226836e-009
3.966163e-009
4.919734e-009
4.900257e-009
4.336816e-009
3.723232e-009
3.121168e-009
2.278873e-009
1.103649e-009
-1.512987e-010
-1.165567e-009
-1.876881e-009
-2.452970e-009
-3.015320e-009
-3.499974e-009
-3.788119e-009
-3.872130e-009
-3.831957e-009
-3.700252e-009
-3.433205e-009
-3.010604e-009
-2.484051e-009
-1.886201e-009
-1.153524e-009
-2.197501e-010
8.268643e-010
1.770182e-009
2.488268e-009
3.070454e-009
3.619849e-009
3.973293e-009
3.760105e-009
2.815447e-009
1.446324e-009
1.593697e-010
-8.488041e-010
-1.767446e-009
-2.675029e-009
-3.138436e-009
-2.545264e-009
-8.643404e-010
1.119062e-009
2.466074e-009
2.882059e-009
2.696511e-009
2.144067e-009
1.001181e-009
-8.634019e-010
-2.785522e-009
-3.559848e-009
-2.569379e-009
-4.910678e-010
1.314517e-009
2.040571e-009
1.882348e-009
1.347890e-009
5.272191e-010
-6.731650e-010
-1.795265e-009
-1.876931e-009
-5.329634e-010
1.246676e-009
1.835632e-009
6.721679e-010
-1.015170e-009
-1.453291e-009
-2.548327e-010
1.156387e-009
-6.358210e-009
-3.238630e-010
5.799867e-009
6.422157e-009
1.442318e-009
-4.245885e-009
-5.841986e-009
-2.920334e-009
1.073506e-009
2.839067e-009
2.158824e-009
1.033839e-009
7.718570e-010
6.981166e-010
-3.175774e-010
-1.864967e-009
-2.219995e-009
-4.992090e-010
2.002306e-009
2.988186e-009
1.482246e-009
-1.343464e-009
-3.558314e-009
-4.263176e-009
-3.842622e-009
-2.853564e-009
-1.238840e-009
1.238884e-009
4.190522e-009
6.636702e-009
7.839099e-009
7.836250e-009
7.085311e-009
5.805879e-009
3.890276e-009
1.367768e-009
-1.320900e-009
-3.636060e-009
-5.404654e-009
-6.837163e-009
-8.129597e-009
-9.199393e-009
-9.851942e-009
-1.008536e-008
-1.011760e-008
-1.014548e-008
-1.018224e-008
-1.015085e-008
-1.004647e-008
-9.939284e-009
-9.862187e-009
-9.779658e-009
-9.666299e-009
-9.534892e-009
-9.348366e-009
-8.968992e-009
-8.272158e-009
-7.288184e-009
-6.142924e-009
-4.842184e-009
-3.216613e-009
-1.171758e-009
1.053708e-009
3.001421e-009
4.387542e-009
5.272286e-009
5.765210e-009
5.679193e-009
4.676082e-009
2.791290e-009
6.403060e-010
-1.041957e-009
-1.993322e-009
-2.407417e-009
-2.394184e-009
-1.750303e-009
-4.378157e-010
9.169088e-010
1.378878e-009
6.710395e-010
-4.506493e-010
-9.952379e-010
-7.749181e-010
-3.772550e-010
-1.603321e-010
2.818891e-010
1.334112e-009
2.303940e-009
1.782587e-009
-6.145714e-010
-3.198108e-009
-3.502800e-009
-8.840826e-010
2.467019e-009
3.507027e-009
1.412595e-009
-1.558860e-009
-2.438386e-009
-6.426166e-010
1.533831e-009
-7.622459e-009
-1.284039e-009
5.488375e-009
6.893777e-009
2.407735e-009
-3.213102e-009
-4.793444e-009
-1.590435e-009
2.494753e-009
3.203030e-009
1.200883e-010
-3.371422e-009
-3.888094e-009
-1.289141e-009
1.852191e-009
3.351059e-009
3.307740e-009
2.986821e-009
2.640294e-009
1.201853e-009
-1.920364e-009
-5.450219e-009
-7.137661e-009
-5.901459e-009
-2.718983e-009
5.816294e-010
3.004999e-009
4.685930e-009
5.892014e-009
6.293856e-009
5.375337e-009
3.235646e-009
6.513102e-010
-1.620662e-009
-3.367950e-009
-4.726741e-009
-5.705815e-009
-6.107621e-009
-5.849872e-009
-5.153302e-009
-4.334349e-009
-3.517025e-009
-2.639079e-009
-1.681075e-009
-7.736389e-010
-6.866808e-011
4.059944e-010
7.162889e-010
9.004374e-010
9.365438e-010
8.035563e-010
5.067800e-010
4.018398e-011
-6.124441e-010
-1.409108e-009
-2.233350e-009
-2.995559e-009
-3.713255e-009
-4.415591e-009
-4.973299e-009
-5.116605e-009
-4.675532e-009
-3.740823e-009
-2.513043e-009
-1.048688e-009
7.015986e-010
2.572306e-009
4.053165e-009
4.632116e-009
4.230805e-009
3.160422e-009
1.669065e-009
-2.344645e-010
-2.365061e-009
-3.977233e-009
-4.174438e-009
-2.829056e-009
-8.600508e-010
6.355105e-010
1.410606e-009
1.955361e-009
2.414274e-009
2.092921e-009
4.274024e-010
-1.764394e-009
-2.621096e-009
-1.184199e-009
1.248362e-009
2.210750e-009
6.635133e-010
-1.778893e-009
-2.490646e-009
-6.376640e-010
1.918513e-009
2.598675e-009
8.071137e-010
-1.522716e-009
-2.033290e-009
-3.952580e-010
1.455662e-009
-2.400239e-009
-8.790588e-010
9.610882e-010
1.675928e-009
8.055983e-010
-5.190630e-010
-5.345415e-010
1.179548e-009
2.817109e-009
1.980905e-009
-1.548147e-009
-5.027462e-009
-5.215741e-009
-1.653094e-009
2.820439e-009
4.889124e-009
3.791665e-009
1.385309e-009
-3.476970e-010
-1.169077e-009
-1.891743e-009
-2.563924e-009
-2.140885e-009
-4.710523e-012
2.809360e-009
4.371043e-009
3.697278e-009
1.492218e-009
-8.973529e-010
-2.845314e-009
-4.564637e-009
-6.189625e-009
-7.223997e-009
-7.017829e-009
-5.516697e-009
-3.303142e-009
-9.818114e-010
1.265640e-009
3.515690e-009
5.717049e-009
7.628235e-009
9.072054e-009
1.009984e-008
1.087266e-008
1.146980e-008
1.186750e-008
1.205193e-008
1.208092e-008
1.203680e-008
1.196262e-008
1.184990e-008
1.165550e-008
1.132249e-008
1.081369e-008
1.013551e-008
9.299889e-009
8.251683e-009
6.879458e-009
5.144390e-009
3.173101e-009
1.165273e-009
-7.742850e-010
-2.620252e-009
-4.215747e-009
-5.192658e-009
-5.240550e-009
-4.439399e-009
-3.190962e-009
-1.793340e-009
-2.517708e-010
1.355017e-009
2.478588e-009
2.407158e-009
1.095922e-009
-5.374605e-010
-1.413739e-009
-1.330833e-009
-9.403866e-010
-6.827745e-010
-1.401018e-010
1.207423e-009
2.778833e-009
3.029555e-009
1.117296e-009
-1.818609e-009
-3.486396e-009
-2.652477e-009
-3.010469e-010
1.500500e-009
1.654450e-009
7.593008e-010
2.128213e-011
-9.801410e-011
-1.508471e-011
-1.720995e-010
-4.646597e-010
-5.173757e-010
-2.127202e-010
2.233532e-010
5.099361e-010
5.495167e-009
3.848515e-010
-4.605789e-009
-4.979080e-009
-1.242060e-009
2.508530e-009
3.312211e-009
1.795284e-009
2.705154e-010
-3.066196e-010
-7.101719e-010
-1.422450e-009
-1.547752e-009
-2.345002e-010
1.575556e-009
1.796636e-009
-3.196638e-010
-3.025016e-009
-3.804292e-009
-1.942421e-009
1.054227e-009
3.365964e-009
4.532939e-009
5.047089e-009
4.911077e-009
3.359754e-009
7.621674e-011
-3.879610e-009
-6.775658e-009
-7.703100e-009
-7.074677e-009
-5.723912e-009
-3.911929e-009
-1.410207e-009
1.712808e-009
4.781972e-009
7.057706e-009
8.365933e-009
9.054938e-009
9.455633e-009
9.565701e-009
9.246960e-009
8.551636e-009
7.741669e-009
7.044815e-009
6.494432e-009
6.014279e-009
5.587246e-009
5.297961e-009
5.236095e-009
5.399960e-009
5.705960e-009
6.080121e-009
6.523807e-009
7.072290e-009
7.682755e-009
8.189064e-009
8.405448e-009
8.268349e-009
7.818046e-009
7.018473e-009
5.679824e-009
3.673839e-009
1.221406e-009
-1.160109e-009
-3.064192e-009
-4.447518e-009
-5.356885e-009
-5.506738e-009
-4.414017e-009
-2.095439e-009
5.616716e-010
2.410080e-009
3.039763e-009
2.944777e-009
2.646560e-009
1.967856e-009
4.987217e-010
-1.363670e-009
-2.358814e-009
-1.638684e-009
1.360937e-010
1.350522e-009
1.078555e-009
-1.223295e-010
-1.083109e-009
-1.281753e-009
-9.479021e-010
-2.704563e-010
8.270581e-010
1.982676e-009
2.114576e-009
5.275262e-010
-1.795253e-009
-2.724833e-009
-1.238806e-009
1.197480e-009
2.065189e-009
6.149354e-010
-1.261183e-009
9.694738e-009
9.687167e-010
-7.467222e-009
-7.808100e-009
-1.103255e-009
4.902806e-009
4.486382e-009
-5.967338e-010
-4.152462e-009
-2.663014e-009
1.637121e-009
4.226485e-009
3.329723e-009
8.071811e-010
-1.023904e-009
-1.965665e-009
-3.022498e-009
-4.047461e-009
-3.519356e-009
-6.799904e-010
3.015373e-009
5.140453e-009
4.654359e-009
2.534068e-009
2.713140e-010
-1.580362e-009
-3.151636e-009
-4.153610e-009
-3.741338e-009
-1.542310e-009
1.651101e-009
4.516107e-009
6.348196e-009
7.332850e-009
7.810139e-009
7.650250e-009
6.506564e-009
4.451954e-009
2.079140e-009
-3.677955e-011
-1.792120e-009
-3.411113e-009
-4.996388e-009
-6.368439e-009
-7.317445e-009
-7.869107e-009
-8.231190e-009
-8.538145e-009
-8.731690e-009
-8.692305e-009
-8.417369e-009
-8.015789e-009
-7.542556e-009
-6.899710e-009
-5.942648e-009
-4.663096e-009
-3.205408e-009
-1.679754e-009
-2.676581e-011
1.837749e-009
3.744484e-009
5.251882e-009
5.994668e-009
5.992685e-009
5.494895e-009
4.549748e-009
2.941651e-009
6.914842e-010
-1.528222e-009
-2.760131e-009
-2.620130e-009
-1.607343e-009
-4.504988e-010
6.490605e-010
1.859323e-009
2.923785e-009
2.998936e-009
1.573608e-009
-6.797014e-010
-2.368989e-009
-2.706067e-009
-2.044289e-009
-1.058442e-009
1.156741e-010
1.499571e-009
2.378167e-009
1.651522e-009
-5.572238e-010
-2.271846e-009
-1.513895e-009
1.164903e-009
2.795704e-009
1.230544e-009
-2.097471e-009
-3.467362e-009
-1.109513e-009
2.527341e-009
3.394023e-009
4.954079e-010
-2.873502e-009
6.894233e-009
1.474838e-010
-5.900884e-009
-5.042147e-009
1.170292e-009
5.502806e-009
3.115396e-009
-3.302648e-009
-6.728197e-009
-3.483713e-009
3.095545e-009
6.634679e-009
4.434479e-009
-4.547031e-010
-3.319890e-009
-2.692781e-009
-7.340238e-010
2.606746e-010
3.587123e-010
8.340912e-010
1.690700e-009
1.442647e-009
-7.568917e-010
-3.681739e-009
-5.165802e-009
-4.242511e-009
-1.693977e-009
1.255785e-009
4.121057e-009
6.871896e-009
9.049744e-009
9.772467e-009
8.626433e-009
6.158031e-009
3.304256e-009
5.519083e-010
-2.146108e-009
-4.790898e-009
-7.010840e-009
-8.405738e-009
-9.013441e-009
-9.248233e-009
-9.426150e-009
-9.507325e-009
-9.324880e-009
-8.923312e-009
-8.556125e-009
-8.395511e-009
-8.367280e-009
-8.310277e-009
-8.217358e-009
-8.231461e-009
-8.417973e-009
-8.634634e-009
-8.681584e-009
-8.525300e-009
-8.273539e-009
-7.913565e-009
-7.181609e-009
-5.798723e-009
-3.809155e-009
-1.565714e-009
6.458609e-010
2.825273e-009
4.971075e-009
6.671227e-009
7.233530e-009
6.342212e-009
4.443977e-009
2.326874e-009
4.190046e-010
-1.270182e-009
-2.567912e-009
-2.902184e-009
-1.944740e-009
-2.978233e-010
8.851106e-010
1.040683e-009
6.211305e-010
2.235971e-010
-2.870060e-010
-1.274233e-009
-2.136774e-009
-1.460961e-009
1.109031e-009
3.632342e-009
3.441059e-009
2.255378e-010
-3.100046e-009
-3.293402e-009
-3.937959e-010
2.246497e-009
1.765069e-009
-9.421664e-010
-2.361174e-009
-5.910443e-010
2.347049e-009
2.876356e-009
1.216487e-010
-2.967518e-009
-5.008828e-010
-1.032887e-009
-9.127506e-010
6.533955e-010
2.707974e-009
3.035209e-009
4.934044e-010
-3.156640e-009
-4.438685e-009
-1.760832e-009
2.438731e-009
3.898544e-009
1.100827e-009
-2.928635e-009
-3.837211e-009
-6.088659e-010
3.589170e-009
5.063788e-009
3.264549e-009
4.655102e-010
-1.402942e-009
-2.532925e-009
-3.851289e-009
-4.946384e-009
-4.274649e-009
-1.217962e-009
2.858445e-009
5.860706e-009
6.828604e-009
6.231963e-009
4.803290e-009
2.706911e-009
-5.748973e-011
-2.959637e-009
-5.105455e-009
-6.027368e-009
-6.002167e-009
-5.546694e-009
-4.849418e-009
-3.837207e-009
-2.613972e-009
-1.561680e-009
-9.747798e-010
-7.710878e-010
-6.684634e-010
-5.525072e-010
-5.399760e-010
-7.072544e-010
-9.055736e-010
-9.226719e-010
-7.508270e-010
-5.852684e-010
-5.659466e-010
-6.324607e-010
-6.934454e-010
-8.550424e-010
-1.350036e-009
-2.224710e-009
-3.208040e-009
-3.966822e-009
-4.408963e-009
-4.603955e-009
-4.435815e-009
-3.543363e-009
-1.747996e-009
5.574267e-010
2.630580e-009
3.982158e-009
4.580799e-009
4.447471e-009
3.357224e-009
1.246509e-009
-1.207222e-009
-2.849121e-009
-3.086072e-009
-2.399328e-009
-1.565325e-009
-6.228627e-010
8.743624e-010
2.582044e-009
3.049354e-009
1.304609e-009
-1.472632e-009
-2.669307e-009
-1.015643e-009
1.780473e-009
2.731926e-009
8.315014e-010
-1.890468e-009
-2.698901e-009
-1.090264e-009
9.754235e-010
1.498502e-009
5.080839e-010
-4.177872e-010
-2.115095e-010
5.881624e-010
7.432532e-010
-1.093052e-010
-1.068654e-009
-7.000422e-009
-9.260155e-010
4.825710e-009
5.097454e-009
1.037315e-009
-2.331382e-009
-2.099271e-009
2.329566e-010
1.709667e-009
1.348758e-009
8.925663e-011
-1.266665e-009
-2.587078e-009
-3.230133e-009
-1.921010e-009
1.422344e-009
4.571513e-009
4.809117e-009
1.873349e-009
-1.660834e-009
-3.127405e-009
-2.279137e-009
-7.252441e-010
4.699948e-010
1.727056e-009