# vtk DataFile Version 3.0
vtk output
ASCII
DATASET STRUCTURED_POINTS
DIMENSIONS 100 100 1
SPACING 1 1 1
ORIGIN 0 0 0
POINT_DATA 10000
SCALARS SFBox_profile double
LOOKUP_TABLE default 
0.000000e+000
0.000000e+000
0.000000e+000
0.000000e+000
0.000000e+000
0.000000e+000
0.000000e+000
0.000000e+000
0.000000e+000
0.000000e+000
0.000000e+000
0.000000e+000
0.000000e+000
0.000000e+000
0.000000e+000
0.000000e+000
0.000000e+000
0.000000e+000
0.000000e+000
0.000000e+000
0.000000e+000
0.000000e+000
0.000000e+000
0.000000e+000
0.000000e+000
0.000000e+000
0.000000e+000
0.000000e+000
0.000000e+000
0.000000e+000
0.000000e+000
0.000000e+000
0.000000e+000
0.000000e+000
0.000000e+000
0.000000e+000
0.000000e+000
0.000000e+000
0.000000e+000
0.000000e+000
0.000000e+000
0.000000e+000
0.000000e+000
0.000000e+000
0.000000e+000
0.000000e+000
0.000000e+000
0.000000e+000
0.000000e+000
0.000000e+000
0.000000e+000
0.000000e+000
0.000000e+000
0.000000e+000
0.000000e+000
0.000000e+000
0.000000e+000
0.000000e+000
0.000000e+000
0.000000e+000
0.000000e+000
0.000000e+000
0.000000e+000
0.000000e+000
0.000000e+000
0.000000e+000
0.000000e+000
0.000000e+000
0.000000e+000
0.000000e+000
0.000000e+000
0.000000e+000
0.000000e+000
0.000000e+000
0.000000e+000
0.000000e+000
0.000000e+000
0.000000e+000
0.000000e+000
0.000000e+000
0.000000e+000
0.000000e+000
0.000000e+000
0.000000e+000
0.000000e+000
0.000000e+000
0.000000e+000
0.000000e+000
0.000000e+000
0.000000e+000
0.000000e+000
0.000000e+000
0.000000e+000
0.000000e+000
0.000000e+000
0.000000e+000
0.000000e+000
0.000000e+000
0.000000e+000
0.000000e+000
-5.984343e-009
-2.649391e-009
1.868326e-009
4.957707e-009
5.092991e-009
2.571179e-009
-9.166840e-010
-3.467944e-009
-4.063434e-009
-2.909677e-009
-9.663945e-010
8.398276e-010
2.096678e-009
2.825115e-009
3.081251e-009
2.705816e-009
1.470560e-009
-5.489646e-010
-2.776152e-009
-4.354998e-009
-4.647212e-009
-3.608476e-009
-1.752869e-009
2.330402e-010
1.892240e-009
3.119094e-009
3.985730e-009
4.505110e-009
4.563683e-009
4.049522e-009
3.009642e-009
1.667889e-009
2.930993e-010
-9.494114e-010
-2.034754e-009
-2.999113e-009
-3.844491e-009
-4.518824e-009
-4.970266e-009
-5.203432e-009
-5.279270e-009
-5.267792e-009
-5.206785e-009
-5.102066e-009
-4.956468e-009
-4.790386e-009
-4.635245e-009
-4.513998e-009
-4.432541e-009
-4.387841e-009
-4.378383e-009
-4.403690e-009
-4.456709e-009
-4.522362e-009
-4.585703e-009
-4.637695e-009
-4.667406e-009
-4.647613e-009
-4.533946e-009
-4.285748e-009
-3.889930e-009
-3.359755e-009
-2.705932e-009
-1.913622e-009
-9.616348e-010
1.233115e-010
1.231460e-009
2.201545e-009
2.901302e-009
3.281013e-009
3.343937e-009
3.067804e-009
2.378943e-009
1.239676e-009
-2.149155e-010
-1.636197e-009
-2.599392e-009
-2.836232e-009
-2.374083e-009
-1.465648e-009
-3.872416e-010
6.932165e-010
1.659341e-009
2.296449e-009
2.271749e-009
1.356499e-009
-2.617298e-010
-1.888830e-009
-2.640772e-009
-2.014476e-009
-3.002252e-010
1.515979e-009
2.350595e-009
1.728323e-009
1.009828e-010
-1.451518e-009
-1.937288e-009
-1.099429e-009
4.364209e-010
1.600439e-009
-1.363878e-009
-4.974162e-010
6.134613e-010
1.235315e-009
1.003271e-009
1.367455e-010
-7.394140e-010
-1.036356e-009
-5.979802e-010
2.191225e-010
8.265753e-010
8.294320e-010
2.810875e-010
-4.051498e-010
-7.909477e-010
-7.164383e-010
-3.463210e-010
3.634716e-011
2.780879e-010
4.283610e-010
6.053707e-010
8.144827e-010
9.058991e-010
7.074348e-010
1.957695e-010
-4.600086e-010
-1.018640e-009
-1.333420e-009
-1.418142e-009
-1.373975e-009
-1.268784e-009
-1.086748e-009
-7.788644e-010
-3.437722e-010
1.481497e-010
6.042222e-010
9.747027e-010
1.270398e-009
1.525971e-009
1.754991e-009
1.940646e-009
2.061858e-009
2.120023e-009
2.139031e-009
2.144170e-009
2.145361e-009
2.139577e-009
2.124080e-009
2.103328e-009
2.084235e-009
2.069079e-009
2.055488e-009
2.041267e-009
2.025095e-009
2.001081e-009
1.955721e-009
1.874680e-009
1.753635e-009
1.599106e-009
1.414989e-009
1.189590e-009
9.023663e-010
5.494452e-010
1.620494e-010
-2.065481e-010
-5.174972e-010
-7.681271e-010
-9.711182e-010
-1.110067e-009
-1.124449e-009
-9.540544e-010
-6.086661e-010
-1.906643e-010
1.643008e-010
3.804937e-010
4.791632e-010
5.211849e-010
5.163027e-010
4.022395e-010
1.284343e-010
-2.373746e-010
-5.035894e-010
-4.864423e-010
-1.752217e-010
2.250870e-010
4.327848e-010
3.059159e-010
-4.499131e-011
-3.451451e-010
-3.715728e-010
-1.194777e-010
2.093302e-010
3.727413e-010
2.677521e-010
-1.142904e-011
-2.614741e-010
-3.196890e-010
-1.643354e-010
8.916405e-011
2.735750e-010
4.270837e-009
2.018473e-009
-1.098900e-009
-3.385433e-009
-3.793779e-009
-2.374041e-009
-3.544726e-011
2.093911e-009
3.235237e-009
3.156265e-009
2.037553e-009
2.565625e-010
-1.718546e-009
-3.341806e-009
-4.056241e-009
-3.492909e-009
-1.700720e-009
7.889669e-010
3.162102e-009
4.681835e-009
4.981070e-009
4.123781e-009
2.453940e-009
3.869366e-010
-1.714934e-009
-3.559762e-009
-4.908916e-009
-5.593100e-009
-5.556588e-009
-4.875733e-009
-3.719785e-009
-2.279316e-009
-7.141204e-010
8.546509e-010
2.327742e-009
3.620193e-009
4.673323e-009
5.468722e-009
6.024682e-009
6.376418e-009
6.557933e-009
6.598460e-009
6.529160e-009
6.387033e-009
6.209931e-009
6.028270e-009
5.861742e-009
5.722371e-009
5.618710e-009
5.556863e-009
5.539107e-009
5.562934e-009
5.620945e-009
5.700095e-009
5.780579e-009
5.836849e-009
5.841452e-009
5.768060e-009
5.589835e-009
5.275379e-009
4.789995e-009
4.106570e-009
3.219782e-009
2.152141e-009
9.485928e-010
-3.300327e-010
-1.602797e-009
-2.757209e-009
-3.650092e-009
-4.135545e-009
-4.110130e-009
-3.547123e-009
-2.502302e-009
-1.102923e-009
4.563224e-010
1.910340e-009
2.947579e-009
3.292050e-009
2.823414e-009
1.661677e-009
1.478981e-010
-1.277568e-009
-2.225539e-009
-2.458895e-009
-1.928249e-009
-7.822787e-010
6.254530e-010
1.780228e-009
2.170531e-009
1.556583e-009
1.876464e-010
-1.234556e-009
-1.912701e-009
-1.449944e-009
-1.458060e-010
1.156493e-009
1.612497e-009
9.499369e-010
-3.376927e-010
-1.331624e-009
6.599944e-009
2.847312e-009
-2.166375e-009
-5.470726e-009
-5.432442e-009
-2.540924e-009
1.208989e-009
3.746063e-009
4.118366e-009
2.734011e-009
7.060921e-010
-1.028357e-009
-2.137225e-009
-2.702023e-009
-2.780847e-009
-2.222250e-009
-8.867000e-010
1.005267e-009
2.801850e-009
3.751501e-009
3.474732e-009
2.184257e-009
4.916418e-010
-1.008410e-009
-2.034301e-009
-2.610492e-009
-2.856333e-009
-2.810169e-009
-2.430191e-009
-1.713843e-009
-7.791832e-010
1.770725e-010
9.924450e-010
1.610862e-009
2.061170e-009
2.384819e-009
2.589612e-009
2.661054e-009
2.600268e-009
2.441165e-009
2.233025e-009
2.012448e-009
1.793062e-009
1.577053e-009
1.370879e-009
1.188777e-009
1.044426e-009
9.428339e-010
8.811638e-010
8.559519e-010
8.680425e-010
9.204557e-010
1.012601e-009
1.137884e-009
1.287435e-009
1.455280e-009
1.637743e-009
1.825963e-009
1.999194e-009
2.127930e-009
2.185903e-009
2.158376e-009
2.035836e-009
1.799313e-009
1.418534e-009
8.757239e-010
1.990735e-010
-5.287616e-010
-1.202900e-009
-1.741439e-009
-2.096038e-009
-2.216178e-009
-2.016647e-009
-1.413008e-009
-4.248211e-010
7.428408e-010
1.741625e-009
2.248446e-009
2.137524e-009
1.514873e-009
5.989395e-010
-4.190009e-010
-1.388375e-009
-2.094833e-009
-2.211492e-009
-1.462237e-009
6.804143e-011
1.762094e-009
2.696972e-009
2.219449e-009
4.771124e-010
-1.544763e-009
-2.600815e-009
-2.019177e-009
-1.931308e-010
1.653770e-009
2.293100e-009
1.334573e-009
-5.097824e-010
-1.928734e-009
3.967226e-009
1.390768e-009
-1.856993e-009
-3.581225e-009
-2.783147e-009
-2.366469e-010
2.178185e-009
2.847459e-009
1.502724e-009
-7.267267e-010
-2.240562e-009
-2.120813e-009
-6.595611e-010
1.040861e-009
1.965374e-009
1.832309e-009
1.052412e-009
1.879050e-010
-5.261401e-010
-1.199800e-009
-1.937212e-009
-2.541308e-009
-2.589153e-009
-1.793975e-009
-2.915280e-010
1.418080e-009
2.804316e-009
3.609421e-009
3.885314e-009
3.799578e-009
3.436602e-009
2.769245e-009
1.776454e-009
5.491923e-010
-7.273076e-010
-1.882943e-009
-2.848027e-009
-3.643481e-009
-4.308187e-009
-4.845521e-009
-5.231586e-009
-5.457646e-009
-5.553347e-009
-5.570056e-009
-5.548485e-009
-5.504678e-009
-5.442001e-009
-5.369078e-009
-5.302900e-009
-5.257236e-009
-5.232666e-009
-5.219663e-009
-5.208957e-009
-5.194894e-009
-5.167107e-009
-5.101586e-009
-4.964937e-009
-4.730435e-009
-4.388325e-009
-3.936682e-009
-3.362515e-009
-2.639930e-009
-1.758436e-009
-7.588125e-010
2.639801e-010
1.203238e-009
1.989504e-009
2.591723e-009
2.965597e-009
3.013463e-009
2.626559e-009
1.798414e-009
7.042386e-010
-3.539250e-010
-1.114733e-009
-1.493751e-009
-1.560917e-009
-1.391410e-009
-9.645791e-010
-2.446556e-010
6.290925e-010
1.275208e-009
1.278403e-009
5.493390e-010
-4.934432e-010
-1.149181e-009
-9.466491e-010
-3.365618e-011
9.027325e-010
1.151696e-009
5.254432e-010
-5.005642e-010
-1.159656e-009
-9.751054e-010
-1.001138e-010
8.212744e-010
1.137491e-009
6.474187e-010
-2.821848e-010
-9.927570e-010
-1.488092e-009
-1.065547e-009
-2.634536e-010
7.902466e-010
1.788900e-009
2.249466e-009
1.710204e-009
8.352823e-011
-2.074857e-009
-3.676810e-009
-3.667132e-009
-1.735245e-009
1.349077e-009
4.095853e-009
5.158988e-009
4.107197e-009
1.568651e-009
-1.289726e-009
-3.488117e-009
-4.623600e-009
-4.752263e-009
-4.039706e-009
-2.575494e-009
-4.809392e-010
1.900279e-009
4.009760e-009
5.326781e-009
5.644255e-009
5.122192e-009
4.093151e-009
2.817652e-009
1.396738e-009
-1.349391e-010
-1.682607e-009
-3.074753e-009
-4.157892e-009
-4.889348e-009
-5.334878e-009
-5.587214e-009
-5.694418e-009
-5.658441e-009
-5.483251e-009
-5.209395e-009
-4.901421e-009
-4.610558e-009
-4.355365e-009
-4.135050e-009
-3.953400e-009
-3.825699e-009
-3.766000e-009
-3.774656e-009
-3.841570e-009
-3.958530e-009
-4.122456e-009
-4.323944e-009
-4.535944e-009
-4.719493e-009
-4.842472e-009
-4.888091e-009
-4.838468e-009
-4.650023e-009
-4.255150e-009
-3.601596e-009
-2.696477e-009
-1.607690e-009
-4.173954e-010
8.194200e-010
2.054109e-009
3.173168e-009
3.962237e-009
4.177887e-009
3.694445e-009
2.600752e-009
1.153026e-009
-3.705596e-010
-1.765816e-009
-2.859906e-009
-3.412587e-009
-3.138679e-009
-1.918143e-009
-3.444384e-011
1.819038e-009
2.862693e-009
2.686279e-009
1.492345e-009
-5.824169e-011
-1.262713e-009
-1.732524e-009
-1.472873e-009
-7.344494e-010
1.598765e-010
8.907983e-010
1.176371e-009
8.713448e-010
1.087089e-010
-6.819447e-010
-9.980518e-010
-6.212109e-010
1.811899e-010
8.196815e-010
-5.700213e-009
-2.518971e-009
1.714856e-009
4.523179e-009
4.617644e-009
2.437203e-009
-4.931826e-010
-2.694221e-009
-3.475501e-009
-2.932787e-009
-1.512631e-009
3.192315e-010
2.089408e-009
3.232276e-009
3.222455e-009
1.925165e-009
-1.685483e-010
-2.126254e-009
-3.107915e-009
-2.842278e-009
-1.683312e-009
-2.584592e-010
9.488513e-010
1.756213e-009
2.154186e-009
2.126966e-009
1.631885e-009
7.189874e-010
-3.913311e-010
-1.391684e-009
-2.061766e-009
-2.366285e-009
-2.398226e-009
-2.247497e-009
-1.931149e-009
-1.433067e-009
-7.815239e-010
-6.924238e-011
6.005948e-010
1.177577e-009
1.672428e-009
2.113167e-009
2.503197e-009
2.821345e-009
3.051974e-009
3.205100e-009
3.306399e-009
3.373914e-009
3.408899e-009
3.406332e-009
3.367010e-009
3.295286e-009
3.188008e-009
3.032123e-009
2.816013e-009
2.539691e-009
2.208544e-009
1.817150e-009
1.346861e-009
7.883717e-010
1.688149e-010
-4.494190e-010
-1.002950e-009
-1.458704e-009
-1.803291e-009
-1.999266e-009
-1.965203e-009
-1.622687e-009
-9.803211e-010
-1.709013e-010
6.067105e-010
1.191796e-009
1.510729e-009
1.531933e-009
1.203891e-009
4.853754e-010
-5.295914e-010
-1.527359e-009
-2.070284e-009
-1.850039e-009
-9.056242e-010
3.796132e-010
1.496334e-009
2.056539e-009
1.899243e-009
1.063836e-009
-2.336346e-010
-1.565768e-009
-2.327283e-009
-1.993708e-009
-5.369779e-010
1.344181e-009
2.510356e-009
2.126411e-009
3.461177e-010
-1.662662e-009
-2.490195e-009
-1.529355e-009
5.239928e-010
2.153551e-009
-5.829478e-009
-1.935010e-009
2.849197e-009
5.188700e-009
3.787187e-009
7.356960e-011
-3.123427e-009
-3.731693e-009
-1.758771e-009
1.058861e-009
2.759021e-009
2.511752e-009
8.784745e-010
-9.528693e-010
-2.112581e-009
-2.408681e-009
-2.034049e-009
-1.138486e-009
2.505132e-010
1.969702e-009
3.522823e-009
4.246522e-009
3.726500e-009
2.080888e-009
-1.358804e-010
-2.292687e-009
-3.981936e-009
-5.060368e-009
-5.506415e-009
-5.304802e-009
-4.465438e-009
-3.101878e-009
-1.439601e-009
2.743888e-010
1.872627e-009
3.288555e-009
4.501916e-009
5.484514e-009
6.201164e-009
6.647022e-009
6.865987e-009
6.926800e-009
6.884937e-009
6.769091e-009
6.597502e-009
6.397209e-009
6.203473e-009
6.044673e-009
5.933222e-009
5.870969e-009
5.858132e-009
5.893204e-009
5.966350e-009
6.058289e-009
6.147557e-009
6.214922e-009
6.235657e-009
6.168097e-009
5.956844e-009
5.554314e-009
4.940421e-009
4.118667e-009
3.095438e-009
1.875219e-009
4.908635e-010
-9.565038e-010
-2.296885e-009
-3.345249e-009
-3.965946e-009
-4.090657e-009
-3.690004e-009
-2.762343e-009
-1.387634e-009
1.978052e-010
1.612545e-009
2.474989e-009
2.592269e-009
2.038955e-009
1.068620e-009
-3.475987e-011
-1.016076e-009
-1.609244e-009
-1.548446e-009
-7.457461e-010
4.825218e-010
1.431390e-009
1.416276e-009
3.378861e-010
-1.095830e-009
-1.797848e-009
-1.137192e-009
4.867842e-010
1.865538e-009
1.895788e-009
4.770246e-010
-1.353954e-009
-2.199361e-009
-1.391038e-009
4.717087e-010
1.973156e-009
-2.137725e-009
9.673952e-012
2.282274e-009
2.566243e-009
4.073056e-010
-2.585111e-009
-3.977209e-009
-2.422381e-009
1.242129e-009
4.562087e-009
5.246630e-009
2.784483e-009
-1.299605e-009
-4.629550e-009
-5.585285e-009
-4.122539e-009
-1.381856e-009
1.336517e-009
3.306857e-009
4.383650e-009
4.583037e-009
3.826159e-009
2.087854e-009
-3.157887e-010
-2.704439e-009
-4.362764e-009
-4.930667e-009
-4.517176e-009
-3.489475e-009
-2.178844e-009
-7.568066e-010
6.881160e-010
2.034938e-009
3.121353e-009
3.830402e-009
4.157991e-009
4.188946e-009
4.018336e-009
3.701170e-009
3.264028e-009
2.741703e-009
2.188864e-009
1.659255e-009
1.183025e-009
7.670502e-010
4.120617e-010
1.247626e-010
-8.444690e-011
-2.092521e-010
-2.497442e-010
-2.091451e-010
-9.102530e-011
1.011999e-010
3.652557e-010
7.009453e-010
1.106159e-009
1.567710e-009
2.056113e-009
2.532312e-009
2.959596e-009
3.303860e-009
3.518038e-009
3.531338e-009
3.267836e-009
2.688803e-009
1.820625e-009
7.402429e-010
-4.599828e-010
-1.675853e-009
-2.750039e-009
-3.446455e-009
-3.515746e-009
-2.841151e-009
-1.548321e-009
3.242751e-011
1.526912e-009
2.650183e-009
3.201485e-009
2.992586e-009
1.892376e-009
4.418121e-011
-1.950106e-009
-3.178308e-009
-2.945628e-009
-1.325036e-009
7.658023e-010
2.124387e-009
2.076372e-009
9.051465e-010
-4.372927e-010
-1.077712e-009
-8.121902e-010
-1.099038e-010
3.794815e-010
3.486330e-010
-1.938978e-011
-3.109510e-010
-2.623856e-010
5.377246e-011
3.385205e-010
2.640929e-009
1.667603e-009
9.899115e-011
-1.541592e-009
-2.705375e-009
-2.889237e-009
-1.789338e-009
4.059804e-010
2.813851e-009
4.113019e-009
3.321829e-009
6.075363e-010
-2.593581e-009
-4.415559e-009
-3.816915e-009
-1.280101e-009
1.597159e-009
3.256906e-009
3.138863e-009
1.761626e-009
5.817048e-011
-1.328989e-009
-2.231199e-009
-2.663717e-009
-2.532808e-009
-1.678633e-009
-1.457314e-010
1.677283e-009
3.234545e-009
4.131161e-009
4.308467e-009
3.945552e-009
3.236857e-009
2.270245e-009
1.075003e-009
-2.730938e-010
-1.626299e-009
-2.836038e-009
-3.830867e-009
-4.622843e-009
-5.252722e-009
-5.740794e-009
-6.085315e-009
-6.291352e-009
-6.388340e-009
-6.419253e-009
-6.418345e-009
-6.400958e-009
-6.370412e-009
-6.329777e-009
-6.286023e-009
-6.244427e-009
-6.199640e-009
-6.131498e-009
-6.009997e-009
-5.806478e-009
-5.501080e-009
-5.078087e-009
-4.514268e-009
-3.778301e-009
-2.852808e-009
-1.764351e-009
-5.897848e-010
5.728830e-010
1.638960e-009
2.534065e-009
3.155509e-009
3.358466e-009
3.021443e-009
2.159775e-009
9.782827e-010
-2.109658e-010
-1.146349e-009
-1.702314e-009
-1.831974e-009
-1.471218e-009
-5.759975e-010
6.903548e-010
1.832775e-009
2.201551e-009
1.438250e-009
-1.625527e-010
-1.741870e-009
-2.416036e-009
-1.857339e-009
-4.594122e-010
9.977575e-010
1.852261e-009
1.842296e-009
1.074392e-009
-1.206631e-010
-1.266157e-009
-1.816100e-009
-1.390746e-009
-1.133863e-010
1.283808e-009
1.851213e-009
1.128957e-009
-4.100231e-010
-1.640935e-009
5.528347e-009
1.863792e-009
-2.575190e-009
-4.696556e-009
-3.461250e-009
-2.956805e-010
2.374592e-009
3.009838e-009
1.747004e-009
-2.083668e-010
-1.698269e-009
-2.210277e-009
-1.737525e-009
-4.420217e-010
1.366999e-009
3.038886e-009
3.656615e-009
2.572854e-009
-4.062622e-012
-2.974614e-009
-4.992851e-009
-5.281413e-009
-3.964508e-009
-1.744106e-009
6.744650e-010
2.886399e-009
4.686242e-009
5.848344e-009
6.108348e-009
5.355596e-009
3.785315e-009
1.817541e-009
-1.460038e-010
-1.898287e-009
-3.405956e-009
-4.670601e-009
-5.640603e-009
-6.244924e-009
-6.476277e-009
-6.416771e-009
-6.183290e-009
-5.858247e-009
-5.472111e-009
-5.037665e-009
-4.586074e-009
-4.167424e-009
-3.824520e-009
-3.573564e-009
-3.410260e-009
-3.330210e-009
-3.340499e-009
-3.452199e-009
-3.663881e-009
-3.954289e-009
-4.291871e-009
-4.650277e-009
-5.010493e-009
-5.343029e-009
-5.587859e-009
-5.659021e-009
-5.478559e-009
-5.009634e-009
-4.253469e-009
-3.215541e-009
-1.891920e-009
-3.155339e-010
1.369877e-009
2.895898e-009
3.963375e-009
4.380451e-009
4.121845e-009
3.265304e-009
1.904515e-009
1.726535e-010
-1.631911e-009
-2.998513e-009
-3.396356e-009
-2.626436e-009
-1.035198e-009
6.411196e-010
1.708377e-009
1.875448e-009
1.286904e-009
3.043741e-010
-6.845506e-010
-1.298848e-009
-1.194335e-009
-2.783491e-010
1.016259e-009
1.793441e-009
1.290347e-009
-3.760855e-010
-2.050679e-009
-2.328943e-009
-7.657661e-010
1.569736e-009
2.828651e-009
1.904105e-009
-5.598305e-010
-2.618339e-009
5.187976e-009
7.442866e-010
-4.105732e-009
-5.251617e-009
-1.882487e-009
3.076774e-009
5.581220e-009
3.749731e-009
-8.760546e-010
-4.857284e-009
-5.600931e-009
-3.022435e-009
9.153394e-010
3.955243e-009
4.955679e-009
4.055093e-009
1.976089e-009
-5.843285e-010
-3.018751e-009
-4.644747e-009
-4.817687e-009
-3.349463e-009
-7.802053e-010
1.863064e-009
3.664800e-009
4.269472e-009
3.856729e-009
2.791826e-009
1.345436e-009
-3.083712e-010
-1.949876e-009
-3.276383e-009
-4.035754e-009
-4.174568e-009
-3.835102e-009
-3.212682e-009
-2.425218e-009
-1.505902e-009
-4.839167e-010
5.602951e-010
1.522467e-009
2.339288e-009
3.013741e-009
3.580821e-009
4.059176e-009
4.438487e-009
4.704514e-009
4.864681e-009
4.944902e-009
4.964930e-009
4.921639e-009
4.797112e-009
4.579537e-009
4.271655e-009
3.877079e-009
3.381861e-009
2.757231e-009
1.987526e-009
1.096593e-009
1.426788e-010
-8.138983e-010
-1.729933e-009
-2.554514e-009
-3.184557e-009
-3.464632e-009
-3.261146e-009
-2.557141e-009
-1.476219e-009
-2.111412e-010
1.060210e-009
2.173400e-009
2.906852e-009
2.976048e-009
2.186416e-009
6.518781e-010
-1.141940e-009
-2.544754e-009
-3.077228e-009
-2.626474e-009
-1.390457e-009
2.752738e-010
1.906385e-009
2.907809e-009
2.705265e-009
1.165535e-009
-1.035341e-009
-2.600546e-009
-2.461163e-009
-6.882651e-010
1.394612e-009
2.177769e-009
1.093538e-009
-8.611717e-010
-1.950331e-009
-1.209248e-009
6.934623e-010
2.039605e-009
1.593702e-009
-2.849973e-010
-1.955352e-009
2.254756e-009
-5.919046e-010
-3.311096e-009
-3.021125e-009
4.366342e-010
4.295133e-009
5.207926e-009
2.108809e-009
-2.842118e-009
-5.986676e-009
-5.069058e-009
-8.949258e-010
3.498185e-009
5.274149e-009
3.748664e-009
4.412782e-010
-2.438024e-009
-3.564404e-009
-2.952270e-009
-1.342115e-009
5.696095e-010
2.355450e-009
3.633340e-009
3.938896e-009
2.961410e-009
8.737509e-010
-1.659118e-009
-3.852255e-009
-5.214961e-009
-5.665951e-009
-5.346215e-009
-4.398134e-009
-2.922107e-009
-1.068805e-009
9.133506e-010
2.759415e-009
4.309513e-009
5.542064e-009
6.501004e-009
7.210817e-009
7.663543e-009
7.865858e-009
7.873083e-009
7.768547e-009
7.616794e-009
7.443464e-009
7.256310e-009
7.074833e-009
6.933275e-009
6.857999e-009
6.849407e-009
6.889313e-009
6.962210e-009
7.062334e-009
7.176364e-009
7.262632e-009
7.254687e-009
7.089552e-009
6.729746e-009
6.153063e-009
5.325151e-009
4.199833e-009
2.767515e-009
1.112135e-009
-5.870607e-010
-2.120999e-009
-3.319925e-009
-4.058240e-009
-4.213326e-009
-3.673209e-009
-2.443681e-009
-7.687794e-010
8.881737e-010
2.043502e-009
2.424021e-009
2.038533e-009
1.073158e-009
-2.131394e-010
-1.457021e-009
-2.137789e-009
-1.753563e-009
-2.520037e-010
1.657323e-009
2.765505e-009
2.197061e-009
1.847243e-010
-1.955846e-009
-2.763334e-009
-1.753547e-009
2.257735e-010
1.712302e-009
1.787657e-009
6.959354e-010
-5.273240e-010
-9.888376e-010
-5.925173e-010
7.100161e-011
3.722593e-010
1.878056e-010
-1.074947e-010
-1.591877e-009
-1.160846e-009
-3.020276e-010
8.561879e-010
1.888388e-009
2.127425e-009
1.100529e-009
-8.860994e-010
-2.610457e-009
-2.654967e-009
-6.085043e-010
2.294056e-009
3.873346e-009
2.673013e-009
-7.724868e-010
-4.218347e-009
-5.361301e-009
-3.485640e-009
2.087503e-010
3.686459e-009
5.489340e-009
5.351052e-009
3.813571e-009
1.527065e-009
-1.057162e-009
-3.533439e-009
-5.370931e-009
-6.056595e-009
-5.416294e-009
-3.745278e-009
-1.599989e-009
5.377810e-010
2.425782e-009
3.984391e-009
5.150755e-009
5.842767e-009
6.032727e-009
5.802980e-009
5.304066e-009
4.664149e-009
3.945630e-009
3.175916e-009
2.395787e-009
1.665864e-009
1.034444e-009
5.141044e-010
9.471094e-011
-2.272541e-010
-4.385694e-010
-5.249840e-010
-4.873668e-010
-3.363430e-010
-7.407354e-011
3.105901e-010
8.245120e-010
1.450805e-009
2.151664e-009
2.888534e-009
3.628836e-009
4.322485e-009
4.873454e-009
5.149144e-009
5.033455e-009
4.476629e-009
3.494921e-009
2.136488e-009
4.801419e-010
-1.305594e-009
-2.913199e-009
-3.958211e-009
-4.153187e-009
-3.459063e-009
-2.080104e-009
-3.311113e-010
1.455994e-009
2.894604e-009
3.506989e-009
2.901587e-009
1.144144e-009
-1.025087e-009
-2.483101e-009
-2.445683e-009
-1.060975e-009
6.705921e-010
1.628581e-009
1.351279e-009
2.408095e-010
-8.723631e-010
-1.336748e-009
-9.826457e-010
-5.857755e-011
9.550618e-010
1.505763e-009
1.183774e-009
3.208326e-011
-1.295387e-009
-1.851200e-009
-1.112922e-009
4.837149e-010
1.774347e-009
-4.696259e-009
-8.259571e-010
3.404680e-009
4.519561e-009
1.924259e-009
-1.983222e-009
-4.138763e-009
-3.237490e-009
-2.887571e-010
2.651356e-009
4.038018e-009
3.442064e-009
1.260544e-009
-1.673568e-009
-4.211163e-009
-5.091966e-009
-3.577451e-009
-1.488637e-010
3.505744e-009
5.469413e-009
4.840787e-009
2.222266e-009
-8.896495e-010
-3.180160e-009
-4.141824e-009
-3.925121e-009
-2.842058e-009
-1.109072e-009
1.036942e-009
3.171437e-009
4.767373e-009
5.472656e-009
5.284696e-009
4.458517e-009
3.274042e-009
1.895548e-009
4.055127e-010
-1.098832e-009
-2.483105e-009
-3.638512e-009
-4.538228e-009
-5.222147e-009
-5.738016e-009
-6.107305e-009
-6.339492e-009
-6.459466e-009
-6.508960e-009
-6.524708e-009
-6.523779e-009
-6.510619e-009
-6.489691e-009
-6.463706e-009
-6.421167e-009
-6.333092e-009
-6.165233e-009
-5.888823e-009
-5.474075e-009
-4.877596e-009
-4.050832e-009
-2.974579e-009
-1.688130e-009
-2.809542e-010
1.140542e-009
2.463583e-009
3.539206e-009
4.163640e-009
4.138723e-009
3.398125e-009
2.090114e-009
5.248727e-010
-9.683430e-010
-2.128151e-009
-2.724839e-009
-2.519100e-009
-1.384330e-009
4.396129e-010
2.241586e-009
3.129112e-009
2.593500e-009
8.969290e-010
-1.076136e-009
-2.386918e-009
-2.552457e-009
-1.654056e-009
-1.411012e-010
1.360447e-009
2.158578e-009
1.737020e-009
1.946211e-010
-1.518954e-009
-2.084943e-009
-8.979629e-010
1.185900e-009
2.356682e-009
1.419447e-009
-9.682583e-010
-2.707640e-009
-2.129005e-009
3.862723e-010
2.650990e-009
-5.920861e-009
-1.479491e-010
5.688801e-009
6.171066e-009
9.858762e-010
-5.163488e-009
-7.029521e-009
-3.321918e-009
2.651419e-009
6.233968e-009
5.241435e-009
1.120574e-009
-2.912347e-009
-4.531764e-009
-3.488042e-009
-9.585866e-010
1.672713e-009
3.425724e-009
3.694761e-009
2.236937e-009
-5.563726e-010
-3.538192e-009
-5.282602e-009
-4.934942e-009
-2.715218e-009
3.551872e-010
3.196463e-009
5.208071e-009
6.260179e-009
6.380510e-009
5.575017e-009
3.921315e-009
1.711726e-009
-5.973865e-010
-2.605533e-009
-4.135622e-009
-5.207337e-009
-5.891790e-009
-6.216381e-009
-6.187528e-009
-5.856625e-009
-5.331875e-009
-4.727251e-009
-4.113775e-009
-3.520584e-009
-2.968181e-009
-2.488586e-009
-2.116848e-009
-1.875309e-009
-1.771978e-009
-1.809096e-009
-1.986544e-009
-2.297859e-009
-2.728857e-009
-3.260949e-009
-3.867748e-009
-4.499972e-009
-5.074834e-009
-5.489591e-009
-5.651537e-009
-5.492151e-009
-4.951952e-009
-3.970478e-009
-2.527137e-009
-7.200892e-010
1.197980e-009
2.890494e-009
4.070081e-009
4.575062e-009
4.336262e-009
3.327429e-009
1.629660e-009
-4.164982e-010
-2.179915e-009
-2.991330e-009
-2.554932e-009
-1.171158e-009
4.469987e-010
1.601338e-009
1.909450e-009
1.318239e-009
2.342278e-011
-1.486739e-009
-2.401134e-009
-1.928050e-009
-7.226578e-012
2.254153e-009
3.140806e-009
1.731598e-009
-1.060201e-009
-3.000563e-009
-2.423371e-009
1.706445e-010
2.439771e-009
2.326028e-009
1.447268e-011
-2.219284e-009
-2.205504e-009
2.211547e-012
2.191614e-009
-4.724138e-009
2.973727e-010
5.092209e-009
4.868747e-009
-1.926538e-010
-5.309265e-009
-5.727011e-009
-1.100388e-009
4.376960e-009
5.936101e-009
2.433811e-009
-2.948287e-009
-5.759402e-009
-4.019089e-009
5.940142e-010
4.631779e-009
5.686248e-009
3.697819e-009
2.244268e-010
-3.039890e-009
-5.081597e-009
-5.487131e-009
-4.167889e-009
-1.413471e-009
1.942761e-009
4.725609e-009
6.007909e-009
5.592446e-009
3.962796e-009
1.817156e-009
-3.411769e-010
-2.256980e-009
-3.746898e-009
-4.602051e-009
-4.682046e-009
-4.044674e-009
-2.928948e-009
-1.601360e-009
-2.246665e-010
1.142925e-009
2.464680e-009
3.673307e-009
4.695727e-009
5.503148e-009
6.121118e-009
6.594934e-009
6.954076e-009
7.206850e-009
7.355752e-009
7.408078e-009
7.372608e-009
7.250745e-009
7.030077e-009
6.681780e-009
6.164767e-009
5.441253e-009
4.497722e-009
3.353014e-009
2.045593e-009
6.213951e-010
-8.478883e-010
-2.224053e-009
-3.293738e-009
-3.834106e-009
-3.717748e-009
-2.965852e-009
-1.707215e-009
-1.118184e-010
1.600122e-009
3.085808e-009
3.889093e-009
3.637107e-009
2.315889e-009
3.672646e-010
-1.521504e-009
-2.763644e-009
-3.061072e-009
-2.363252e-009
-8.173303e-010
1.115021e-009
2.571499e-009
2.622565e-009
1.022061e-009
-1.276624e-009
-2.575965e-009
-1.768134e-009
5.694845e-010
2.481007e-009
2.282453e-009
1.130872e-010
-2.127487e-009
-2.494698e-009
-7.767405e-010
1.368237e-009
2.034450e-009
8.498391e-010
-8.082483e-010
-1.297863e-009
-3.466801e-010
8.014910e-010
-1.293547e-009
3.824558e-010
1.718809e-009
1.057819e-009
-1.075084e-009
-2.397205e-009
-1.185133e-009
1.784761e-009
3.693091e-009
2.283574e-009
-1.799932e-009
-5.270581e-009
-4.981616e-009
-7.391312e-010
4.431076e-009
6.775411e-009
4.782300e-009
9.348953e-011
-4.126046e-009
-5.624700e-009
-4.244252e-009
-1.310793e-009
1.685848e-009
3.847308e-009
4.786438e-009
4.326843e-009
2.515745e-009
-1.709911e-010
-2.870852e-009
-4.738145e-009
-5.362969e-009
-4.838069e-009
-3.492786e-009
-1.617844e-009
5.853025e-010
2.900089e-009
5.047203e-009
6.773736e-009
7.968131e-009
8.669402e-009
8.974515e-009
8.953212e-009
8.644746e-009
8.106486e-009
7.439572e-009
6.763326e-009
6.172914e-009
5.722915e-009
5.441588e-009
5.350429e-009
5.467946e-009
5.797478e-009
6.311314e-009
6.943590e-009
7.599248e-009
8.175906e-009
8.581913e-009
8.732918e-009
8.533209e-009
7.876541e-009
6.692852e-009
5.015745e-009
3.006734e-009
9.051621e-010
-1.046803e-009
-2.626521e-009
-3.600232e-009
-3.735792e-009
-2.930581e-009
-1.374158e-009
4.372750e-010
1.909950e-009
2.630291e-009
2.478100e-009
1.539342e-009
2.553299e-011
-1.641259e-009
-2.744228e-009
-2.527165e-009
-8.081620e-010
1.575606e-009
3.110031e-009
2.691889e-009
5.908017e-010
-1.657334e-009
-2.453853e-009
-1.414275e-009
4.115807e-010
1.524409e-009
1.220194e-009
9.972395e-012
-1.007305e-009
-1.107018e-009
-3.896957e-010
5.006607e-010
9.638477e-010
8.102499e-010
2.386195e-010
-3.965677e-010
-7.929645e-010
3.237891e-009
3.125361e-010
-2.825396e-009
-3.521214e-009
-1.348377e-009
1.866181e-009
3.771634e-009
3.203573e-009
6.475542e-010
-2.367926e-009
-4.147015e-009
-3.573335e-009
-7.311192e-010
2.846291e-009
4.829548e-009
3.634260e-009
-2.108253e-010
-4.184738e-009
-5.543363e-009
-3.346409e-009
9.583225e-010
4.781885e-009
6.255045e-009
5.159082e-009
2.482943e-009
-5.896861e-010
-3.266440e-009