# vtk DataFile Version 3.0
vtk output
ASCII
DATASET STRUCTURED_POINTS
DIMENSIONS 100 100 1
SPACING 1 1 1
ORIGIN 0 0 0
POINT_DATA 10000
SCALARS SFBox_profile double
LOOKUP_TABLE default 
0.000000e+000
0.000000e+000
0.000000e+000
0.000000e+000
0.000000e+000
0.000000e+000
0.000000e+000
0.000000e+000
0.000000e+000
0.000000e+000
0.000000e+000
0.000000e+000
0.000000e+000
0.000000e+000
0.000000e+000
0.000000e+000
0.000000e+000
0.000000e+000
0.000000e+000
0.000000e+000
0.000000e+000
0.000000e+000
0.000000e+000
0.000000e+000
0.000000e+000
0.000000e+000
0.000000e+000
0.000000e+000
0.000000e+000
0.000000e+000
0.000000e+000
0.000000e+000
0.000000e+000
0.000000e+000
0.000000e+000
0.000000e+000
0.000000e+000
0.000000e+000
0.000000e+000
0.000000e+000
0.000000e+000
0.000000e+000
0.000000e+000
0.000000e+000
0.000000e+000
0.000000e+000
0.000000e+000
0.000000e+000
0.000000e+000
0.000000e+000
0.000000e+000
0.000000e+000
0.000000e+000
0.000000e+000
0.000000e+000
0.000000e+000
0.000000e+000
0.000000e+000
0.000000e+000
0.000000e+000
0.000000e+000
0.000000e+000
0.000000e+000
0.000000e+000
0.000000e+000
0.000000e+000
0.000000e+000
0.000000e+000
0.000000e+000
0.000000e+000
0.000000e+000
0.000000e+000
0.000000e+000
0.000000e+000
0.000000e+000
0.000000e+000
0.000000e+000
0.000000e+000
0.000000e+000
0.000000e+000
0.000000e+000
0.000000e+000
0.000000e+000
0.000000e+000
0.000000e+000
0.000000e+000
0.000000e+000
0.000000e+000
0.000000e+000
0.000000e+000
0.000000e+000
0.000000e+000
0.000000e+000
0.000000e+000
0.000000e+000
0.000000e+000
0.000000e+000
0.000000e+000
0.000000e+000
0.000000e+000
3.046693e-009
1.642549e-009
-1.078475e-010
-1.278814e-009
-1.572937e-009
-1.296275e-009
-8.939669e-010
-5.007871e-010
8.619187e-011
1.021060e-009
2.023072e-009
2.423708e-009
1.676288e-009
-1.035004e-010
-2.078059e-009
-3.219637e-009
-3.015352e-009
-1.764034e-009
-2.450687e-010
9.099970e-010
1.587192e-009
2.039082e-009
2.454549e-009
2.711156e-009
2.524920e-009
1.787376e-009
7.162890e-010
-3.211352e-010
-1.105251e-009
-1.677929e-009
-2.194466e-009
-2.708072e-009
-3.116272e-009
-3.292637e-009
-3.230848e-009
-3.045171e-009
-2.849745e-009
-2.663196e-009
-2.431905e-009
-2.122215e-009
-1.768641e-009
-1.435725e-009
-1.153817e-009
-9.050128e-010
-6.635276e-010
-4.327003e-010
-2.374445e-010
-9.220882e-011
1.037671e-011
8.026107e-011
1.123015e-010
9.572119e-011
3.445726e-011
-5.477716e-011
-1.675368e-010
-3.234738e-010
-5.414395e-010
-8.055985e-010
-1.071243e-009
-1.312890e-009
-1.556374e-009
-1.844446e-009
-2.166001e-009
-2.436531e-009
-2.568180e-009
-2.556324e-009
-2.472954e-009
-2.358710e-009
-2.137803e-009
-1.675895e-009
-9.406734e-010
-8.641480e-011
6.536476e-010
1.166670e-009
1.526310e-009
1.834740e-009
2.013214e-009
1.803722e-009
1.030053e-009
-1.356567e-010
-1.203102e-009
-1.706438e-009
-1.545831e-009
-1.001142e-009
-4.217056e-010
7.441235e-011
5.824047e-010
1.120372e-009
1.422660e-009
1.101569e-009
7.058446e-011
-1.192037e-009
-1.866828e-009
-1.396253e-009
1.633394e-011
1.459468e-009
1.933033e-009
1.082980e-009
-5.127899e-010
-1.739419e-009
9.009394e-010
2.289280e-010
-4.924568e-010
-7.191205e-010
-3.412974e-010
2.883079e-010
6.610818e-010
5.087073e-010
-1.623271e-011
-5.005132e-010
-6.185247e-010
-3.694407e-010
-1.598368e-011
1.905717e-010
2.285758e-010
2.684385e-010
4.389373e-010
6.493232e-010
6.553803e-010
3.038510e-010
-2.946502e-010
-8.408285e-010
-1.094304e-009
-1.049305e-009
-8.793634e-010
-7.320148e-010
-5.940250e-010
-3.504830e-010
5.226512e-011
5.263614e-010
9.217755e-010
1.164254e-009
1.301264e-009
1.421687e-009
1.552377e-009
1.643037e-009
1.639008e-009
1.547688e-009
1.427414e-009
1.324234e-009
1.234265e-009
1.127078e-009
9.917615e-010
8.499784e-010
7.289105e-010
6.340497e-010
5.532657e-010
4.796662e-010
4.206188e-010
3.847259e-010
3.695072e-010
3.682841e-010
3.844103e-010
4.289753e-010
5.023503e-010
5.865364e-010
6.642401e-010
7.426195e-010
8.465756e-010
9.826058e-010
1.117358e-009
1.204902e-009
1.236516e-009
1.249956e-009
1.277049e-009
1.287556e-009
1.204280e-009
9.853867e-010
6.818418e-010
3.939097e-010
1.665745e-010
-5.363094e-011
-3.378946e-010
-6.547363e-010
-8.562404e-010
-8.078403e-010
-5.313228e-010
-2.002096e-010
1.883071e-011
1.120150e-010
1.929307e-010
3.350401e-010
4.542178e-010
3.843399e-010
7.568406e-011
-2.997006e-010
-4.669282e-010
-2.924577e-010
8.157205e-011
3.488992e-010
2.993183e-010
-6.908973e-012
-3.002963e-010
-3.348984e-010
-8.720258e-011
2.378939e-010
3.814982e-010
2.335777e-010
-9.115454e-011
-3.483881e-010
-1.739734e-009
-1.277700e-009
-5.588875e-010
2.481925e-010
1.024073e-009
1.614120e-009
1.761717e-009
1.205880e-009
-6.865382e-011
-1.642009e-009
-2.764959e-009
-2.771259e-009
-1.523190e-009
4.577403e-010
2.293479e-009
3.261626e-009
3.141867e-009
2.188715e-009
8.398623e-010
-5.557318e-010
-1.804686e-009
-2.778850e-009
-3.340753e-009
-3.380072e-009
-2.899831e-009
-2.036047e-009
-9.808302e-010
1.131505e-010
1.161885e-009
2.112792e-009
2.907974e-009
3.493715e-009
3.853995e-009
4.018350e-009
4.032328e-009
3.925614e-009
3.710890e-009
3.405430e-009
3.042632e-009
2.659243e-009
2.276642e-009
1.899394e-009
1.530004e-009
1.179777e-009
8.643273e-010
5.930479e-010
3.668997e-010
1.850513e-010
4.960686e-011
-3.677012e-011
-7.401935e-011
-6.247898e-011
5.760717e-013
1.181863e-010
2.871063e-010
4.977770e-010
7.434806e-010
1.026702e-009
1.351323e-009
1.707807e-009
2.070751e-009
2.414389e-009
2.726732e-009
3.001196e-009
3.212922e-009
3.310667e-009
3.240258e-009
2.976531e-009
2.527845e-009
1.911489e-009
1.138313e-009
2.359499e-010
-7.123066e-010
-1.565476e-009
-2.175406e-009
-2.443575e-009
-2.331250e-009
-1.833145e-009
-9.779314e-010
1.157554e-010
1.190846e-009
1.906546e-009
2.004133e-009
1.466312e-009
5.331712e-010
-4.395177e-010
-1.154149e-009
-1.445851e-009
-1.256029e-009
-6.137269e-010
3.087811e-010
1.147213e-009
1.450903e-009
9.635975e-010
-1.149963e-010
-1.152019e-009
-1.461896e-009
-8.032703e-010
3.990968e-010
1.320436e-009
-3.028413e-009
-1.557794e-009
2.111410e-010
1.288148e-009
1.433670e-009
1.075636e-009
7.240949e-010
4.677439e-010
1.097040e-011
-8.374365e-010
-1.759767e-009
-2.064340e-009
-1.281131e-009
3.344522e-010
1.890203e-009
2.499601e-009
1.926780e-009
6.863069e-010
-4.429031e-010
-1.016429e-009
-1.122724e-009
-1.097586e-009
-1.117226e-009
-1.071636e-009
-7.731463e-010
-2.175711e-010
3.832522e-010
7.966104e-010
9.597393e-010
9.795879e-010
9.809647e-010
9.849938e-010
9.288600e-010
7.694343e-010
5.416090e-010
3.203135e-010
1.480250e-010
1.101224e-011
-1.235571e-010
-2.638629e-010
-3.899119e-010
-4.823323e-010
-5.436268e-010
-5.908845e-010
-6.351665e-010
-6.731304e-010
-6.967330e-010
-7.058192e-010
-7.087630e-010
-7.126272e-010
-7.158636e-010
-7.119448e-010
-6.987365e-010
-6.815118e-010
-6.650930e-010
-6.445234e-010
-6.073449e-010
-5.472127e-010
-4.722571e-010
-3.943370e-010
-3.089658e-010
-1.927201e-010
-2.853740e-011
1.674713e-010
3.545113e-010
5.085840e-010
6.470793e-010
7.960696e-010
9.297579e-010
9.607059e-010
8.133797e-010
5.098682e-010
1.616372e-010
-1.407401e-010
-4.162688e-010
-7.385978e-010
-1.078430e-009
-1.232267e-009
-9.660010e-010
-2.654351e-010
5.691584e-010
1.119990e-009
1.173903e-009
8.540294e-010
4.337070e-010
4.529045e-011
-3.864910e-010
-9.105342e-010
-1.299247e-009
-1.129390e-009
-2.024799e-010
1.091970e-009
1.900882e-009
1.528998e-009
6.930034e-011
-1.534381e-009
-2.129164e-009
-1.233190e-009
5.505606e-010
1.945849e-009
-2.366656e-009
-5.474188e-010
1.358811e-009
1.880529e-009
7.986678e-010
-8.566081e-010
-1.736088e-009
-1.240146e-009
1.180916e-010
1.267641e-009
1.495662e-009
9.200539e-010
1.816120e-010
-2.513577e-010
-4.630155e-010
-8.292936e-010
-1.455928e-009
-1.938534e-009
-1.705180e-009
-5.873930e-010
9.638771e-010
2.227432e-009
2.769823e-009
2.682041e-009
2.329164e-009
1.934182e-009
1.424026e-009
6.318843e-010
-4.261143e-010
-1.509023e-009
-2.356828e-009
-2.895356e-009
-3.233061e-009
-3.492595e-009
-3.680841e-009
-3.719448e-009
-3.565311e-009
-3.271524e-009
-2.934971e-009
-2.609233e-009
-2.281664e-009
-1.923482e-009
-1.541871e-009
-1.177499e-009
-8.634034e-010
-6.001445e-010
-3.717634e-010
-1.754220e-010
-2.708909e-011
5.903532e-011
8.701570e-011
6.995018e-011
8.856470e-012
-1.103043e-010
-2.953155e-010
-5.299450e-010
-7.867096e-010
-1.058070e-009
-1.364425e-009
-1.720383e-009
-2.095686e-009
-2.424366e-009
-2.661978e-009
-2.823579e-009
-2.944850e-009
-3.001270e-009
-2.888607e-009
-2.512220e-009
-1.898427e-009
-1.191061e-009
-5.162793e-010
1.335982e-010
8.419856e-010
1.578343e-009
2.103026e-009
2.123303e-009
1.576151e-009
7.350539e-010
-3.615391e-012
-4.496458e-010
-7.124061e-010
-9.579296e-010
-1.116253e-009
-9.053060e-010
-1.892926e-010
7.180601e-010
1.194817e-009
8.392804e-010
-1.083806e-010
-8.976693e-010
-8.856789e-010
-9.754464e-011
7.832161e-010
9.954797e-010
3.455698e-010
-6.350756e-010
-1.138288e-009
-7.437511e-010
2.462408e-010
1.056449e-009
-5.245909e-010
6.473689e-010
1.694509e-009
1.485568e-009
-1.074701e-010
-2.090050e-009
-3.046437e-009
-2.173458e-009
1.118734e-010
2.452757e-009
3.504179e-009
2.814822e-009
9.827817e-010
-9.416278e-010
-2.219850e-009
-2.722958e-009
-2.653119e-009
-2.125920e-009
-1.088301e-009
4.076344e-010
1.974522e-009
3.036837e-009
3.241658e-009
2.709745e-009
1.871246e-009
1.070776e-009
3.459449e-010
-4.392880e-010
-1.313056e-009
-2.094693e-009
-2.560112e-009
-2.657774e-009
-2.533304e-009
-2.360354e-009
-2.182694e-009
-1.927294e-009
-1.538562e-009
-1.064274e-009
-6.087313e-010
-2.295318e-010
9.853042e-011
4.263469e-010
7.614572e-010
1.064984e-009
1.303005e-009
1.481974e-009
1.630424e-009
1.759354e-009
1.853185e-009
1.896996e-009
1.898832e-009
1.876727e-009
1.830020e-009
1.736812e-009
1.584099e-009
1.390176e-009
1.184172e-009
9.640772e-010
6.904790e-010
3.345267e-010
-7.457744e-011
-4.692305e-010
-8.178411e-010
-1.161899e-009
-1.553605e-009
-1.954728e-009
-2.225252e-009
-2.239707e-009
-2.008942e-009
-1.655301e-009
-1.253494e-009
-7.270576e-010
4.849761e-011
1.026048e-009
1.908165e-009
2.337597e-009
2.181103e-009
1.605690e-009
8.692809e-010
7.684092e-011
-8.035092e-010
-1.684926e-009
-2.203342e-009
-1.923821e-009
-7.719570e-010
7.475460e-010
1.821807e-009
1.895976e-009
1.049188e-009
-1.222978e-010
-9.658455e-010
-1.166776e-009
-8.118092e-010
-1.957194e-010
3.843686e-010
7.131082e-010
6.742169e-010
2.898940e-010
-2.440693e-010
-6.255262e-010
1.361709e-009
9.825032e-010
4.692625e-010
-4.732528e-011
-5.977817e-010
-1.160771e-009
-1.461740e-009
-1.107115e-009
-1.126007e-011
1.319815e-009
2.033888e-009
1.587504e-009
2.348056e-010
-1.129897e-009
-1.664016e-009
-1.189049e-009
-2.059173e-010
6.187327e-010
9.600074e-010
9.037682e-010
6.488641e-010
2.529297e-010
-3.196641e-010
-9.900105e-010
-1.508133e-009
-1.636530e-009
-1.355563e-009
-8.513466e-010
-3.110436e-010
2.343816e-010
8.595490e-010
1.579315e-009
2.279098e-009
2.813459e-009
3.141717e-009
3.342011e-009
3.503132e-009
3.630964e-009
3.669026e-009
3.588347e-009
3.431442e-009
3.267474e-009
3.124860e-009
2.982025e-009
2.815584e-009
2.638567e-009
2.485431e-009
2.372408e-009
2.287326e-009
2.217369e-009
2.172390e-009
2.171241e-009
2.212074e-009
2.270839e-009
2.333232e-009
2.415906e-009
2.542299e-009
2.699856e-009
2.837991e-009
2.918771e-009
2.958630e-009
2.999072e-009
3.031975e-009
2.974916e-009
2.743549e-009
2.345517e-009
1.877591e-009
1.416522e-009
9.336605e-010
3.515974e-010
-3.095556e-010
-8.760253e-010
-1.145432e-009
-1.067362e-009
-7.736996e-010
-4.247541e-010
-6.236067e-011
3.449090e-010
7.263031e-010
8.523583e-010
5.240995e-010
-1.717958e-010
-8.422551e-010
-1.069354e-009
-7.316153e-010
-5.824440e-011
5.975850e-010
9.963830e-010
1.042483e-009
6.869854e-010
-6.053197e-011
-9.689387e-010
-1.524907e-009
-1.217430e-009
-2.914492e-011
1.346526e-009
1.906290e-009
1.131484e-009
-5.009120e-010
-1.806144e-009
2.621684e-009
4.707998e-010
-1.669091e-009
-2.068867e-009
-6.617485e-010
1.173838e-009
1.943454e-009
1.237191e-009
-1.740170e-010
-1.228160e-009
-1.480504e-009
-1.217058e-009
-8.579156e-010
-4.194140e-010
3.839868e-010
1.591763e-009
2.689159e-009
2.931292e-009
1.983402e-009
2.258828e-010
-1.557602e-009
-2.762244e-009
-3.259602e-009
-3.228781e-009
-2.823262e-009
-2.051867e-009
-9.211298e-010
4.155098e-010
1.704929e-009
2.766387e-009
3.576990e-009
4.192363e-009
4.626738e-009
4.837960e-009
4.809066e-009
4.602062e-009
4.314192e-009
3.998445e-009
3.646278e-009
3.241923e-009
2.810643e-009
2.403694e-009
2.049288e-009
1.735758e-009
1.442767e-009
1.174298e-009
9.525158e-010
7.879031e-010
6.694440e-010
5.856107e-010
5.430591e-010
5.557350e-010
6.216132e-010
7.232999e-010
8.542966e-010
1.032770e-009
1.278063e-009
1.578139e-009
1.895436e-009
2.210214e-009
2.544256e-009
2.924416e-009
3.324127e-009
3.659813e-009
3.856298e-009
3.902798e-009
3.823957e-009
3.599372e-009
3.143333e-009
2.390534e-009
1.394002e-009
3.118990e-010
-7.051445e-010
-1.581582e-009
-2.250435e-009
-2.555226e-009
-2.298161e-009
-1.442157e-009
-2.504061e-010
8.320592e-010
1.470595e-009
1.611668e-009
1.372846e-009
8.326276e-010
2.042564e-011
-8.721686e-010
-1.387634e-009
-1.086754e-009
-3.723351e-011
1.035554e-009
1.247734e-009
3.524798e-010
-9.295053e-010
-1.458109e-009
-6.833439e-010
8.019356e-010
1.722737e-009
1.231074e-009
-3.209514e-010
-1.653208e-009
2.948173e-009
-7.295697e-011
-2.990950e-009
-3.229990e-009
-6.253360e-010
2.686560e-009
4.132588e-009
2.725022e-009
-3.593217e-010
-2.936031e-009
-3.557395e-009
-2.363245e-009
-5.303506e-010
9.074711e-010
1.707978e-009
2.123662e-009
2.248214e-009
1.824154e-009
6.638038e-010
-9.000573e-010
-2.117087e-009
-2.398809e-009
-1.767419e-009
-7.376035e-010
1.863307e-010
8.614121e-010
1.418604e-009
1.948503e-009
2.349873e-009
2.461750e-009
2.262449e-009
1.893378e-009
1.513069e-009
1.173686e-009
8.429233e-010
5.039462e-010
1.978086e-010
-2.440695e-011
-1.580925e-010
-2.389132e-010
-2.952992e-010
-3.255269e-010
-3.190663e-010
-2.828951e-010
-2.377858e-010
-1.970256e-010
-1.598626e-010
-1.243704e-010
-9.653434e-011
-8.297363e-011
-8.209795e-011
-8.937578e-011
-1.075193e-010
-1.425801e-010
-1.894143e-010
-2.303917e-010
-2.545072e-010
-2.707458e-010
-2.912068e-010
-3.017496e-010
-2.628092e-010
-1.473110e-010
3.199485e-011
2.469844e-010
5.005959e-010
8.244833e-010
1.215753e-009
1.592640e-009
1.842360e-009
1.915810e-009
1.844694e-009
1.645205e-009
1.237430e-009
5.251829e-010
-4.152006e-010
-1.268139e-009
-1.670297e-009
-1.495309e-009
-9.228230e-010
-2.134773e-010
5.303483e-010
1.306282e-009
1.927885e-009
1.936701e-009
9.717905e-010
-7.035064e-010
-2.136503e-009
-2.328391e-009
-1.089588e-009
7.070470e-010
1.784998e-009
1.485774e-009
2.505992e-010
-8.378185e-010
-9.978271e-010
-3.305705e-010
4.097275e-010
5.607357e-010
1.115628e-010
-3.817919e-010
1.962543e-009
-9.852392e-011
-2.133669e-009
-2.347224e-009
-5.180028e-010
1.906774e-009
2.994998e-009
1.884942e-009
-5.341915e-010
-2.381563e-009
-2.337109e-009
-6.537401e-010
1.202752e-009
1.868543e-009
1.119790e-009
-2.154101e-010
-1.183107e-009
-1.460152e-009
-1.296388e-009
-9.378807e-010
-2.951684e-010
8.087001e-010
2.207479e-009
3.355147e-009
3.750580e-009
3.347396e-009
2.517314e-009
1.655222e-009
8.755989e-010
7.647835e-011
-7.911776e-010
-1.592449e-009
-2.133222e-009
-2.350464e-009
-2.343834e-009
-2.245384e-009
-2.100542e-009
-1.879700e-009
-1.568036e-009
-1.210746e-009
-8.745933e-010
-5.910625e-010
-3.488315e-010
-1.292968e-010
6.615382e-011
2.226402e-010
3.324296e-010
4.025229e-010
4.463146e-010
4.729543e-010
4.830456e-010
4.706264e-010
4.300142e-010
3.636760e-010
2.815081e-010
1.870366e-010
6.493221e-011
-1.091005e-010
-3.404870e-010
-6.045472e-010
-8.728688e-010
-1.145841e-009
-1.439081e-009
-1.727028e-009
-1.917558e-009
-1.911589e-009
-1.692406e-009
-1.329023e-009
-8.717569e-010
-2.714061e-010
5.433183e-010
1.488587e-009
2.271685e-009
2.580417e-009
2.343916e-009
1.769756e-009
1.103255e-009
3.997666e-010
-3.931130e-010
-1.138082e-009
-1.416855e-009
-8.790329e-010
2.802628e-010
1.284987e-009
1.355362e-009
3.990485e-010
-8.676853e-010
-1.511796e-009
-1.132457e-009
-9.531237e-011
8.698572e-010
1.242181e-009
9.554220e-010
2.602292e-010
-5.034996e-010
-1.012356e-009
-1.012613e-009
-4.504032e-010
4.010947e-010
1.031639e-009
-5.385980e-010
1.011562e-010
6.055004e-010
4.850488e-010
-6.726016e-011
-5.291096e-010
-6.476496e-010
-5.720243e-010
-4.501334e-010
-1.038642e-010
7.185261e-010
1.788859e-009
2.295348e-009
1.489953e-009
-5.042051e-010
-2.602207e-009
-3.560670e-009
-2.923715e-009
-1.230582e-009
6.063400e-010
2.033811e-009
3.010519e-009
3.625126e-009
3.772642e-009
3.273055e-009
2.205689e-009
9.846025e-010
5.612304e-011
-4.354373e-010
-6.548264e-010
-7.987794e-010
-8.799047e-010
-7.878734e-010
-4.963665e-010
-1.461630e-010
7.460036e-011
8.809058e-011
-5.428700e-011
-2.804605e-010
-5.867355e-010
-1.017032e-009
-1.584768e-009
-2.239935e-009
-2.908571e-009
-3.545664e-009
-4.142768e-009
-4.694933e-009
-5.173214e-009
-5.531589e-009
-5.735154e-009
-5.777745e-009
-5.672714e-009
-5.429177e-009
-5.041000e-009
-4.503576e-009
-3.842146e-009
-3.116652e-009
-2.389944e-009
-1.692935e-009
-1.033843e-009
-4.473577e-010
-1.734880e-011
1.768784e-010
1.440359e-010
-1.186507e-011
-1.891969e-010
-3.799745e-010
-6.258816e-010
-8.731715e-010
-9.166643e-010
-5.495904e-010
2.172246e-010
1.125395e-009
1.886641e-009
2.399610e-009
2.700225e-009
2.717749e-009
2.194783e-009
9.655717e-010
-6.791913e-010
-2.009494e-009
-2.352890e-009
-1.623594e-009
-3.631533e-010
7.204612e-010
1.227106e-009
1.141727e-009
6.181890e-010
-1.422825e-010
-8.074709e-010
-9.282059e-010
-2.832252e-010
7.337857e-010
1.246239e-009
6.449548e-010
-7.109864e-010
-1.653538e-009
-1.237698e-009
3.027053e-010
1.671330e-009
-3.731553e-009
-7.588243e-011
3.358209e-009
3.579375e-009
7.008402e-010
-2.646175e-009
-3.853773e-009
-2.395593e-009
2.313477e-010
2.166555e-009
2.637079e-009
2.026251e-009
9.872048e-010
-1.839058e-010
-1.364277e-009
-2.166351e-009
-2.020845e-009
-7.660062e-010
9.965221e-010
2.286649e-009
2.518272e-009
1.873410e-009
9.659622e-010
2.494072e-010
-2.060655e-010
-4.712742e-010
-4.813091e-010
-8.437546e-011
7.019186e-010
1.596036e-009
2.248210e-009
2.485840e-009
2.334762e-009
1.838846e-009
9.269865e-010
-5.233515e-010
-2.534008e-009
-4.980722e-009
-7.694492e-009
-1.057505e-008
-1.359311e-008
-1.670711e-008
-1.981033e-008
-2.276465e-008
-2.546747e-008
-2.787107e-008
-2.994281e-008
-3.162249e-008
-3.282661e-008
-3.348941e-008
-3.359108e-008
-3.314340e-008
-3.215377e-008
-3.061389e-008
-2.853113e-008
-2.596760e-008
-2.303667e-008
-1.985403e-008
-1.650117e-008
-1.305353e-008
-9.644610e-009
-6.476085e-009
-3.735035e-009
-1.499723e-009
2.494420e-010
1.517592e-009
2.227277e-009
2.307164e-009
1.851654e-009
1.145925e-009
4.916990e-010
2.115748e-011
-2.795160e-010
-3.791453e-010
-1.243381e-010
5.657356e-010
1.445726e-009
1.990193e-009
1.782653e-009
8.694656e-010
-2.923955e-010
-1.209267e-009
-1.619949e-009
-1.439708e-009
-6.308471e-010
6.693228e-010
1.895695e-009
2.186963e-009
1.077119e-009
-8.490570e-010
-2.174360e-009
-1.802026e-009
-3.096854e-011
1.590151e-009
1.644554e-009
1.841984e-010
-1.318754e-009
-1.408233e-009
-6.456814e-011
1.307143e-009
-5.568622e-009
-6.346356e-010
4.121453e-009
4.700578e-009
1.171730e-009
-2.981722e-009
-4.237722e-009
-1.986055e-009
1.398781e-009
3.023629e-009
1.965301e-009
-3.742396e-010
-1.938830e-009
-1.814785e-009
-5.550110e-010
8.216649e-010
1.803156e-009
2.411120e-009
2.637864e-009
2.212693e-009
9.882517e-010
-6.344995e-010
-1.859587e-009
-2.106198e-009
-1.416145e-009
-2.773245e-010
8.455518e-010
1.739115e-009
2.285622e-009
2.244258e-009
1.280691e-009
-8.196096e-010
-4.041826e-009
-8.253771e-009
-1.337127e-008
-1.937501e-008
-2.619356e-008
-3.362870e-008
-4.141907e-008
-4.935440e-008
-5.730446e-008
-6.514912e-008
-7.271360e-008
-7.978753e-008
-8.619321e-008
-9.181556e-008
-9.656513e-008
-1.003289e-007
-1.029710e-007
-1.043798e-007
-1.045027e-007
-1.033310e-007
-1.008600e-007
-9.708272e-008
-9.203210e-008
-8.582568e-008
-7.865347e-008
-7.071813e-008
-6.220055e-008
-5.329847e-008
-4.428931e-008
-3.552028e-008
-2.730880e-008
-1.985630e-008
-1.327888e-008
-7.713382e-009
-3.347015e-009
-3.035090e-010
1.486323e-009
2.256839e-009
2.243116e-009
1.593688e-009
4.889669e-010
-6.954585e-010
-1.453213e-009
-1.453312e-009
-7.738401e-010
2.059259e-010
1.122042e-009
1.773601e-009
1.987230e-009
1.523560e-009
3.337007e-010
-1.067869e-009
-1.714948e-009
-9.657586e-010
7.291737e-010
1.984052e-009
1.638468e-009
-1.171215e-010
-1.816057e-009
-2.021103e-009
-6.338779e-010
1.060566e-009
1.634706e-009
8.113685e-010
-4.196154e-010
-8.806223e-010
-3.459534e-010
3.682122e-010
-4.099830e-009
-8.768020e-010
2.281844e-009
2.794197e-009
7.273087e-010
-1.585961e-009
-1.845090e-009
9.279980e-011
2.173203e-009
2.170392e-009
-1.705318e-010
-2.897991e-009
-3.672678e-009
-1.830165e-009
1.224536e-009
3.445899e-009
3.835785e-009
2.852781e-009
1.519213e-009
4.362729e-010
-3.408335e-010
-7.952520e-010
-6.711327e-010
2.124020e-010
1.529742e-009
2.493749e-009
2.343555e-009
7.252873e-010
-2.391758e-009
-7.051370e-009
-1.346111e-008
-2.183349e-008
-3.217907e-008
-4.430828e-008
-5.799400e-008
-7.306691e-008
-8.934982e-008
-1.065566e-007
-1.243014e-007
-1.422005e-007
-1.599350e-007
-1.772157e-007
-1.937187e-007
-2.090857e-007
-2.229830e-007
-2.351421e-007
-2.453350e-007
-2.533282e-007
-2.588801e-007
-2.617860e-007
-2.619174e-007
-2.592115e-007
-2.536381e-007
-2.452035e-007
-2.340014e-007
-2.202586e-007
-2.043164e-007
-1.865698e-007
-1.674379e-007
-1.474004e-007
-1.270346e-007
-1.069697e-007
-8.777185e-008
-6.987096e-008
-5.360050e-008
-3.927088e-008
-2.714665e-008
-1.733051e-008
-9.712228e-009
-4.085816e-009
-3.119274e-010
1.694226e-009
2.162902e-009
1.601642e-009
6.470694e-010
-2.258043e-010
-7.967045e-010
-9.145756e-010
-3.663874e-010
8.907321e-010
2.354697e-009
3.052025e-009
2.264829e-009
3.008576e-010
-1.562500e-009
-2.079688e-009
-1.089741e-009
4.006575e-010
1.167011e-009
7.990699e-010
-1.280647e-010
-7.471564e-010
-6.616483e-010
-1.066348e-010
4.355449e-010
6.501674e-010
5.020178e-010
1.258571e-010
-2.885322e-010
-5.560249e-010
5.876594e-010
-2.643390e-010
-1.036403e-009
-1.071194e-009
-4.101088e-010
5.132788e-010
1.330035e-009
1.769603e-009
1.478452e-009
2.132914e-010
-1.612719e-009
-2.812917e-009
-2.257581e-009
-1.889679e-011
2.425234e-009
3.350055e-009
2.265668e-009
2.728461e-010
-1.001332e-009
-7.564281e-010
6.074746e-010
2.184552e-009
3.351223e-009
3.841169e-009
3.292759e-009
1.006586e-009
-3.774229e-009
-1.146356e-008
-2.211529e-008
-3.576210e-008
-5.265968e-008
-7.316113e-008
-9.741386e-008
-1.252333e-007
-1.562337e-007
-1.899949e-007
-2.260691e-007
-2.638817e-007
-3.026998e-007
-3.417273e-007
-3.802133e-007
-4.174707e-007
-4.528257e-007
-4.855979e-007
-5.151409e-007
-5.408873e-007
-5.623413e-007
-5.790408e-007
-5.905489e-007
-5.964922e-007
-5.965997e-007
-5.907040e-007
-5.787259e-007
-5.606930e-007
-5.368001e-007
-5.074549e-007
-4.732648e-007
-4.349902e-007
-3.935299e-007
-3.499461e-007
-3.054559e-007
-2.613307e-007
-2.187528e-007
-1.787388e-007
-1.421518e-007
-1.096983e-007
-8.182208e-008
-5.858524e-008
-3.971012e-008
-2.480200e-008
-1.353713e-008
-5.617821e-009
-5.911911e-010
2.174177e-009
3.264829e-009
3.042042e-009
1.809888e-009
1.765550e-010
-9.184137e-010
-7.513259e-010
5.365213e-010
1.933479e-009
2.342155e-009
1.453450e-009
-9.926253e-011
-1.354288e-009
-1.720523e-009
-1.180743e-009
-8.923130e-011
1.021246e-009
1.542883e-009
1.067902e-009
-1.766800e-010
-1.260635e-009
-1.235014e-009
-8.075941e-011
1.121902e-009
1.184671e-009
3.803690e-011
-1.144314e-009
5.814858e-009
7.966336e-010
-3.920557e-009
-4.437017e-009
-1.176615e-009
2.370190e-009
3.281639e-009
1.522577e-009
-8.108353e-010
-1.837502e-009
-1.268638e-009
5.654341e-011
1.293359e-009
2.018204e-009
1.968465e-009
9.767093e-010
-6.189942e-010
-1.788111e-009
-1.442084e-009
5.735754e-010
3.175155e-009
4.770948e-009
4.244861e-009
1.216452e-009
-4.504490e-009
-1.350092e-008
-2.674337e-008
-4.516994e-008
-6.944263e-008
-1.000996e-007
-1.377626e-007
-1.830277e-007
-2.361115e-007
-2.966326e-007
-3.637171e-007
-4.362483e-007
-5.129907e-007
-5.925524e-007
-6.733608e-007
-7.537682e-007
-8.322137e-007
-9.072993e-007
-9.777594e-007
-1.042413e-006
-1.100171e-006
-1.150071e-006
-1.191273e-006
-1.223030e-006
-1.244661e-006
-1.255579e-006
-1.255318e-006
-1.243553e-006
-1.220104e-006
-1.184977e-006
-1.138437e-006
-1.081059e-006
-1.013745e-006
-9.377222e-007
-8.545669e-007
-7.662363e-007
-6.750174e-007
-5.833700e-007
-4.937442e-007
-4.084629e-007
-3.296463e-007
-2.590576e-007
-1.978553e-007
-1.464219e-007
-1.044517e-007
-7.123633e-008
-4.587840e-008
-2.728884e-008
-1.415987e-008
-5.182575e-009
5.679663e-010
3.506371e-009
3.918053e-009
2.508132e-009
4.975276e-010
-9.059100e-010
-1.142765e-009
-4.295803e-010
6.320384e-010
1.459762e-009
1.609786e-009
8.522684e-010
-5.463845e-010
-1.665856e-009
-1.464340e-009
1.722663e-010
1.966870e-009
2.215598e-009
4.929094e-010
-1.701368e-009
-2.290350e-009
-7.372045e-010
1.335603e-009
1.815737e-009
3.357500e-010
-1.363014e-009
8.077276e-009
1.261280e-009
-4.946523e-009
-5.265705e-009
-7.008943e-010
3.484377e-009
3.347663e-009
-2.749371e-010
-3.344467e-009
-2.925230e-009
3.046134e-010
3.342799e-009
3.953835e-009
2.309025e-009
1.112969e-010
-1.196514e-009
-1.220053e-009
-1.950396e-010
1.510096e-009
3.267733e-009
3.904705e-009
1.950934e-009
-3.735061e-009
-1.375333e-008
-2.869283e-008
-4.982824e-008
-7.922312e-008
-1.191826e-007
-1.716563e-007
-2.380556e-007
-3.193351e-007
-4.159238e-007
-5.274249e-007
-6.524047e-007
-7.885391e-007
-9.330044e-007
-1.082799e-006
-1.234861e-006
-1.386113e-006
-1.533595e-006
-1.674660e-006
-1.807078e-006
-1.929008e-006
-2.038895e-006
-2.135411e-006
-2.217447e-006
-2.284085e-006
-2.334544e-006
-2.368127e-006
-2.384202e-006
-2.382212e-006
-2.361689e-006
-2.322273e-006
-2.263770e-006
-2.186230e-006
-2.090032e-006
-1.975961e-006
-1.845303e-006
-1.699989e-006
-1.542702e-006
-1.376858e-006
-1.206463e-006
-1.035925e-006
-8.698678e-007
-7.128888e-007
-5.691393e-007
-4.418082e-007
-3.327668e-007
-2.425612e-007
-1.706402e-007
-1.155413e-007
-7.497589e-008
-4.605720e-008
-2.586253e-008
-1.208418e-008
-3.271606e-009
1.503090e-009
3.149855e-009
2.727637e-009
1.262908e-009
-3.779280e-010
-1.405982e-009
-1.173471e-009
3.512782e-010
2.175623e-009
2.763109e-009
1.380987e-009
-9.525553e-010
-2.179706e-009
-1.173097e-009
1.017347e-009
2.125734e-009
9.996044e-010
-1.165593e-009
-2.091696e-009
-8.647597e-010
1.108240e-009
1.688943e-009
3.696029e-010
-1.224304e-009
5.760360e-009
5.738554e-010
-3.791057e-009
-3.295499e-009
6.952939e-010
3.466710e-009
2.048095e-009
-1.916593e-009
-4.177604e-009
-2.349174e-009
1.838125e-009
4.541268e-009
3.656790e-009
5.577039e-010
-1.648109e-009
-1.120519e-009
1.450352e-009
3.994683e-009
4.833706e-009
3.221011e-009
-1.381316e-009
-1.005788e-008
-2.448367e-008
-4.667958e-008
-7.914179e-008
-1.252295e-007
-1.891256e-007
-2.750814e-007
-3.864271e-007
-5.249851e-007
-6.909800e-007
-8.830717e-007
-1.098283e-006
-1.332017e-006
-1.578447e-006
-1.831226e-006
-2.084160e-006
-2.331598e-006
-2.568593e-006
-2.791020e-006
-2.995709e-006
-3.180480e-006
-3.344017e-006
-3.485646e-006
-3.605146e-006
-3.702622e-006
-3.778400e-006
-3.832903e-006
-3.866508e-006
-3.879444e-006
-3.871711e-006
-3.843039e-006
-3.792859e-006
-3.720328e-006
-3.624386e-006
-3.503870e-006
-3.357699e-006
-3.185176e-006
-2.986402e-006
-2.762680e-006
-2.516798e-006
-2.253169e-006
-1.977851e-006
-1.698411e-006
-1.423468e-006
-1.161847e-006
-9.215096e-007
-7.086472e-007
-5.272018e-007
-3.787210e-007
-2.623674e-007
-1.751056e-007
-1.122855e-007
-6.863525e-008
-3.925029e-008
-2.010646e-008
-8.082648e-009
-8.968083e-010
2.840319e-009
3.772303e-009
2.456804e-009
1.190052e-010
-1.423046e-009
-9.166586e-010
1.156720e-009
2.839338e-009
2.467234e-009
2.993023e-010
-1.718757e-009
-1.888656e-009
-3.937636e-010
1.051404e-009
1.071649e-009
-3.433277e-011
-8.475628e-010
-4.995311e-010
4.487036e-010
8.005117e-010
1.585877e-010
-6.646480e-010
3.523922e-010
-6.550555e-010
-1.032039e-009
7.625728e-011
1.678174e-009
1.926167e-009
1.883696e-010
-2.015203e-009
-2.391049e-009
-2.891493e-010
2.418564e-009
3.117018e-009
1.158069e-009
-1.352791e-009
-1.592793e-009
1.182280e-009
4.864761e-009
6.279956e-009
3.435006e-009