# vtk DataFile Version 3.0
vtk output
ASCII
DATASET STRUCTURED_POINTS
DIMENSIONS 100 100 1
SPACING 1 1 1
ORIGIN 0 0 0
POINT_DATA 10000
SCALARS SFBox_profile double
LOOKUP_TABLE default 
0.000000e+000
0.000000e+000
0.000000e+000
0.000000e+000
0.000000e+000
0.000000e+000
0.000000e+000
0.000000e+000
0.000000e+000
0.000000e+000
0.000000e+000
0.000000e+000
0.000000e+000
0.000000e+000
0.000000e+000
0.000000e+000
0.000000e+000
0.000000e+000
0.000000e+000
0.000000e+000
0.000000e+000
0.000000e+000
0.000000e+000
0.000000e+000
0.000000e+000
0.000000e+000
0.000000e+000
0.000000e+000
0.000000e+000
0.000000e+000
0.000000e+000
0.000000e+000
0.000000e+000
0.000000e+000
0.000000e+000
0.000000e+000
0.000000e+000
0.000000e+000
0.000000e+000
0.000000e+000
0.000000e+000
0.000000e+000
0.000000e+000
0.000000e+000
0.000000e+000
0.000000e+000
0.000000e+000
0.000000e+000
0.000000e+000
0.000000e+000
0.000000e+000
0.000000e+000
0.000000e+000
0.000000e+000
0.000000e+000
0.000000e+000
0.000000e+000
0.000000e+000
0.000000e+000
0.000000e+000
0.000000e+000
0.000000e+000
0.000000e+000
0.000000e+000
0.000000e+000
0.000000e+000
0.000000e+000
0.000000e+000
0.000000e+000
0.000000e+000
0.000000e+000
0.000000e+000
0.000000e+000
0.000000e+000
0.000000e+000
0.000000e+000
0.000000e+000
0.000000e+000
0.000000e+000
0.000000e+000
0.000000e+000
0.000000e+000
0.000000e+000
0.000000e+000
0.000000e+000
0.000000e+000
0.000000e+000
0.000000e+000
0.000000e+000
0.000000e+000
0.000000e+000
0.000000e+000
0.000000e+000
0.000000e+000
0.000000e+000
0.000000e+000
0.000000e+000
0.000000e+000
0.000000e+000
0.000000e+000
-4.756812e-009
-1.718768e-009
1.947985e-009
3.822925e-009
3.013547e-009
4.961620e-010
-1.844923e-009
-2.646046e-009
-1.866919e-009
-4.708369e-010
5.698476e-010
1.003690e-009
1.190844e-009
1.428485e-009
1.498504e-009
9.190370e-010
-4.057069e-010
-1.882001e-009
-2.644384e-009
-2.291730e-009
-1.194199e-009
-8.127138e-011
6.275398e-010
1.061565e-009
1.537273e-009
2.078892e-009
2.369274e-009
2.134139e-009
1.471548e-009
7.497824e-010
2.263799e-010
-1.580664e-010
-6.081269e-010
-1.174983e-009
-1.692559e-009
-1.988039e-009
-2.080171e-009
-2.131313e-009
-2.241477e-009
-2.349013e-009
-2.340691e-009
-2.209180e-009
-2.059370e-009
-1.974188e-009
-1.922886e-009
-1.822468e-009
-1.659453e-009
-1.510153e-009
-1.439817e-009
-1.420114e-009
-1.374955e-009
-1.290931e-009
-1.241159e-009
-1.286611e-009
-1.386653e-009
-1.445548e-009
-1.441197e-009
-1.462156e-009
-1.590064e-009
-1.775103e-009
-1.879676e-009
-1.851202e-009
-1.798599e-009
-1.851269e-009
-1.965971e-009
-1.942280e-009
-1.656047e-009
-1.223896e-009
-8.689285e-010
-6.329729e-010
-3.048959e-010
3.091051e-010
1.085535e-009
1.642176e-009
1.723461e-009
1.463297e-009
1.194799e-009
1.020947e-009
6.752055e-010
-1.210716e-010
-1.199715e-009
-1.945596e-009
-1.822675e-009
-8.936996e-010
2.182930e-010
8.880173e-010
9.839426e-010
8.178942e-010
6.727509e-010
4.725702e-010
-3.750444e-011
-8.283960e-010
-1.403349e-009
-1.172461e-009
-6.372696e-011
1.246345e-009
1.781151e-009
1.057357e-009
-4.607284e-010
-1.668471e-009
-3.502926e-010
-5.260884e-011
2.566635e-010
3.026293e-010
3.910065e-011
-3.032052e-010
-3.933159e-010
-8.590317e-011
4.172277e-010
6.969244e-010
4.630185e-010
-1.752446e-010
-7.737438e-010
-9.169544e-010
-5.539371e-010
4.008004e-012
4.043844e-010
5.578689e-010
6.255498e-010
7.415642e-010
8.085865e-010
6.035557e-010
6.326093e-011
-5.909676e-010
-1.041209e-009
-1.162476e-009
-1.092467e-009
-1.024011e-009
-9.789268e-010
-8.196759e-010
-4.562681e-010
1.825348e-011
4.210973e-010
6.727806e-010
8.537799e-010
1.073245e-009
1.326773e-009
1.513499e-009
1.571787e-009
1.553562e-009
1.552309e-009
1.589063e-009
1.601982e-009
1.541315e-009
1.438931e-009
1.365661e-009
1.340708e-009
1.315024e-009
1.246503e-009
1.162244e-009
1.123560e-009
1.142300e-009
1.163908e-009
1.142893e-009
1.108903e-009
1.129392e-009
1.213870e-009
1.290475e-009
1.295311e-009
1.260055e-009
1.273787e-009
1.357999e-009
1.419483e-009
1.356099e-009
1.187260e-009
1.032986e-009
9.540025e-010
8.564052e-010
5.984290e-010
1.792463e-010
-2.311679e-010
-4.741009e-010
-5.770165e-010
-6.966358e-010
-8.906291e-010
-1.003369e-009
-8.251171e-010
-3.499575e-010
1.748637e-010
4.773052e-010
5.100534e-010
4.423273e-010
4.203252e-010
3.896651e-010
1.896334e-010
-1.982857e-010
-5.502224e-010
-5.843013e-010
-2.445010e-010
2.168587e-010
4.509833e-010
3.137397e-010
-2.774413e-011
-2.661212e-010
-2.260624e-010
8.485033e-012
2.013816e-010
1.843961e-010
-7.451947e-012
-1.862893e-010
4.311041e-009
1.625400e-009
-1.644017e-009
-3.399651e-009
-2.856152e-009
-7.790064e-010
1.338289e-009
2.381463e-009
2.163972e-009
1.178804e-009
-2.362999e-012
-1.075350e-009
-1.901471e-009
-2.267067e-009
-1.893993e-009
-7.232775e-010
8.700019e-010
2.224257e-009
2.806815e-009
2.520112e-009
1.647507e-009
5.565390e-010
-5.246657e-010
-1.496673e-009
-2.263952e-009
-2.697128e-009
-2.717907e-009
-2.373884e-009
-1.799857e-009
-1.116772e-009
-3.858326e-010
3.542883e-010
1.045581e-009
1.627763e-009
2.081916e-009
2.432156e-009
2.701698e-009
2.884640e-009
2.968651e-009
2.970108e-009
2.928360e-009
2.867130e-009
2.778198e-009
2.649591e-009
2.496930e-009
2.353291e-009
2.232906e-009
2.121104e-009
2.004770e-009
1.899328e-009
1.833037e-009
1.810603e-009
1.808424e-009
1.809245e-009
1.827118e-009
1.886029e-009
1.981488e-009
2.080365e-009
2.161151e-009
2.238168e-009
2.333727e-009
2.435623e-009
2.499957e-009
2.496169e-009
2.430424e-009
2.313443e-009
2.119911e-009
1.802131e-009
1.344213e-009
7.826072e-010
1.652984e-010
-4.864529e-010
-1.148593e-009
-1.732965e-009
-2.092598e-009
-2.114369e-009
-1.796924e-009
-1.218856e-009
-4.479019e-010
4.670697e-010
1.387246e-009
2.011197e-009
2.003216e-009
1.266670e-009
9.892170e-011
-9.626499e-010
-1.490753e-009
-1.400887e-009
-8.853015e-010
-1.828382e-010
5.409239e-010
1.115605e-009
1.281430e-009
8.160285e-010
-1.842076e-010
-1.186340e-009
-1.503791e-009
-8.293138e-010
4.399755e-010
1.428114e-009
4.937417e-009
1.678142e-009
-2.144043e-009
-3.901567e-009
-2.795485e-009
-1.144653e-010
2.029282e-009
2.363771e-009
1.201694e-009
-1.774712e-010
-7.809162e-010
-6.229181e-010
-3.786614e-010
-4.951157e-010
-7.302083e-010
-5.370343e-010
2.163333e-010
1.017571e-009
1.210811e-009
6.590699e-010
-1.439782e-010
-5.918380e-010
-5.226247e-010
-2.495356e-010
-1.224336e-010
-1.606489e-010
-1.293099e-010
1.139844e-010
4.412462e-010
6.175350e-010
5.637249e-010
4.067648e-010
3.011261e-010
2.648447e-010
2.073670e-010
7.239759e-011
-9.398255e-011
-2.108763e-010
-2.567930e-010
-2.761739e-010
-3.117136e-010
-3.575311e-010
-3.804604e-010
-3.672237e-010
-3.373854e-010
-3.164353e-010
-3.087977e-010
-2.999615e-010
-2.786986e-010
-2.517841e-010
-2.364326e-010
-2.401299e-010
-2.509559e-010
-2.516897e-010
-2.435426e-010
-2.485071e-010
-2.806785e-010
-3.201141e-010
-3.300179e-010
-3.045981e-010
-2.832531e-010
-2.985904e-010
-3.183390e-010
-2.691198e-010
-1.309725e-010
1.876283e-011
9.073393e-011
1.051237e-010
1.798240e-010
3.693791e-010
5.515597e-010
5.360147e-010
2.948741e-010
2.567100e-011
-6.776219e-011
-2.830357e-011
-9.793353e-011
-3.847445e-010
-6.445381e-010
-4.941649e-010
1.327575e-010
8.136189e-010
9.992588e-010
5.548249e-010
-1.109445e-010
-4.783800e-010
-4.343249e-010
-3.032409e-010
-3.779564e-010
-5.130065e-010
-2.796359e-010
4.621352e-010
1.226960e-009
1.252148e-009
2.578063e-010
-1.137596e-009
-1.829187e-009
-1.163346e-009
4.358444e-010
1.749332e-009
1.139533e-009
1.241363e-010
-8.901663e-010
-9.734760e-010
-4.752742e-011
1.043379e-009
1.238784e-009
2.015959e-010
-1.310582e-009
-2.024385e-009
-1.233274e-009
5.679832e-010
2.090286e-009
2.335092e-009
1.352745e-009
8.659151e-012
-9.146257e-010
-1.330736e-009
-1.621207e-009
-1.954952e-009
-1.991943e-009
-1.292214e-009
9.079621e-011
1.545695e-009
2.440642e-009
2.649779e-009
2.513317e-009
2.354103e-009
2.142368e-009
1.647467e-009
8.140377e-010
-1.161310e-010
-8.486344e-010
-1.316530e-009
-1.672061e-009
-2.048127e-009
-2.401388e-009
-2.599177e-009
-2.600947e-009
-2.502809e-009
-2.416236e-009
-2.351406e-009
-2.239890e-009
-2.044829e-009
-1.813786e-009
-1.621067e-009
-1.484681e-009
-1.360823e-009
-1.213906e-009
-1.069643e-009
-9.859258e-010
-9.803279e-010
-1.007570e-009
-1.019024e-009
-1.030577e-009
-1.106596e-009
-1.270915e-009
-1.459103e-009
-1.587509e-009
-1.662005e-009
-1.777151e-009
-1.984052e-009
-2.189923e-009
-2.240147e-009
-2.102529e-009
-1.912130e-009
-1.787784e-009
-1.639233e-009
-1.238281e-009
-5.077647e-010
3.274507e-010
9.520928e-010
1.302409e-009
1.600748e-009
2.002326e-009
2.284349e-009
2.010750e-009
1.040526e-009
-2.108857e-010
-1.104012e-009
-1.356544e-009
-1.219945e-009
-1.067421e-009
-9.078917e-010
-4.268581e-010
4.868836e-010
1.380747e-009
1.543647e-009
7.189123e-010
-5.346690e-010
-1.265247e-009
-9.591950e-010
1.740380e-011
7.796422e-010
7.247941e-010
2.458879e-011
-6.048509e-010
-5.894177e-010
3.680774e-012
5.759443e-010
-3.425577e-009
-1.427396e-009
1.046352e-009
2.514269e-009
2.418782e-009
1.172942e-009
-4.174541e-010
-1.694471e-009
-2.270722e-009
-1.930995e-009
-6.854776e-010
1.027362e-009
2.369778e-009
2.582787e-009
1.571759e-009
3.720331e-012
-1.241793e-009
-1.746265e-009
-1.697401e-009
-1.448135e-009
-1.065808e-009
-3.841993e-010
5.856008e-010
1.464989e-009
1.813770e-009
1.569747e-009
1.089333e-009
7.477179e-010
5.798618e-010
3.598795e-010
-3.363828e-011
-4.369362e-010
-6.004027e-010
-4.844012e-010
-2.838574e-010
-1.816701e-010
-1.548495e-010
-5.251860e-011
1.881120e-010
4.663064e-010
6.527129e-010
7.419290e-010
8.359481e-010
1.001195e-009
1.188939e-009
1.308222e-009
1.344276e-009
1.370610e-009
1.447770e-009
1.543954e-009
1.578866e-009
1.532094e-009
1.473397e-009
1.471285e-009
1.496671e-009
1.453715e-009
1.308056e-009
1.144368e-009
1.062551e-009
1.036144e-009
9.281569e-010
6.668622e-010
3.587505e-010
1.705428e-010
1.119963e-010
1.003518e-011
-2.610834e-010
-5.768254e-010
-6.714100e-010
-4.524078e-010
-1.227312e-010
7.009779e-011
1.537110e-010
3.951684e-010
9.215862e-010
1.466311e-009
1.586724e-009
1.122156e-009
3.519017e-010
-3.245244e-010
-7.782581e-010
-1.137105e-009
-1.423285e-009
-1.357295e-009
-6.416923e-010
5.771044e-010
1.640214e-009
1.857833e-009
1.086012e-009
-1.625851e-010
-1.144728e-009
-1.410364e-009
-9.864695e-010
-1.992912e-010
5.758663e-010
1.032827e-009
9.762599e-010
4.072912e-010
-3.974333e-010
-9.783153e-010
-4.730580e-009
-1.459179e-009
2.185485e-009
3.560085e-009
2.185728e-009
-3.001174e-010
-1.831484e-009
-1.606305e-009
-3.871780e-010
5.563860e-010
6.428749e-010
2.163402e-010
-1.299130e-010
-2.217040e-010
-2.754050e-010
-4.029695e-010
-3.732390e-010
7.938905e-011
8.370595e-010
1.425736e-009
1.460332e-009
9.738019e-010
2.805047e-010
-3.896766e-010
-1.022033e-009
-1.619646e-009
-2.020256e-009
-2.005659e-009
-1.552386e-009
-8.756916e-010
-2.009824e-010
4.442985e-010
1.166726e-009
1.982952e-009
2.741401e-009
3.282024e-009
3.612269e-009
3.872775e-009
4.150806e-009
4.386110e-009
4.475194e-009
4.421295e-009
4.335380e-009
4.300086e-009
4.280903e-009
4.193702e-009
4.030485e-009
3.877221e-009
3.805671e-009
3.785424e-009
3.732310e-009
3.628269e-009
3.552011e-009
3.575752e-009
3.663223e-009
3.709992e-009
3.680833e-009
3.660648e-009
3.739324e-009
3.875271e-009
3.926816e-009
3.824894e-009
3.659668e-009
3.551254e-009
3.464387e-009
3.221471e-009
2.716724e-009
2.056330e-009
1.430806e-009
8.810073e-010
2.746601e-010
-4.623359e-010
-1.165193e-009
-1.554302e-009
-1.518588e-009
-1.198471e-009
-7.772697e-010
-2.826016e-010
3.237076e-010
9.062790e-010
1.146146e-009
8.496411e-010
2.146830e-010
-3.071411e-010
-4.291336e-010
-2.505913e-010
-4.540122e-011
7.963953e-011
2.150585e-010
3.663214e-010
3.024556e-010
-1.722191e-010
-8.193839e-010
-1.010300e-009
-3.267610e-010
8.687684e-010
1.588441e-009
1.088334e-009
-3.588320e-010
-1.600768e-009
-2.061947e-009
-8.145135e-011
1.770994e-009
1.713715e-009
-1.562665e-010
-2.032969e-009
-2.082140e-009
-1.152266e-010
2.240343e-009
2.999913e-009
1.545052e-009
-9.523588e-010
-2.684985e-009
-2.736512e-009
-1.561128e-009
-1.895266e-010
8.039436e-010
1.516510e-009
2.137674e-009
2.458186e-009
2.070096e-009
9.267577e-010
-4.776562e-010
-1.519893e-009
-1.943557e-009
-1.904563e-009
-1.628496e-009
-1.158953e-009
-4.489202e-010
4.297667e-010
1.278903e-009
1.956112e-009
2.478782e-009
2.923735e-009
3.286996e-009
3.497524e-009
3.541784e-009
3.506347e-009
3.477977e-009
3.445982e-009
3.341391e-009
3.151974e-009
2.951385e-009
2.806508e-009
2.695429e-009
2.548755e-009
2.354525e-009
2.181271e-009
2.088499e-009
2.048751e-009
1.989270e-009
1.896854e-009
1.840998e-009
1.880573e-009
1.980677e-009
2.056765e-009
2.089508e-009
2.151707e-009
2.305108e-009
2.507139e-009
2.660497e-009
2.741226e-009
2.824789e-009
2.966817e-009
3.103127e-009
3.114663e-009
2.970362e-009
2.742702e-009
2.469524e-009
2.067080e-009
1.439833e-009
6.454856e-010
-1.280693e-010
-7.582569e-010
-1.273597e-009
-1.682256e-009
-1.785169e-009
-1.303644e-009
-2.482364e-010
9.294096e-010
1.663796e-009
1.751791e-009
1.424097e-009
9.463654e-010
2.918246e-010
-6.540474e-010
-1.617916e-009
-1.901541e-009
-1.026279e-009
5.851083e-010
1.749414e-009
1.527475e-009
1.428631e-010
-1.160500e-009
-1.257453e-009
-1.841066e-010
9.395207e-010
1.022814e-009
5.233804e-011
-9.423223e-010
1.805655e-009
1.177236e-009
1.353816e-010
-1.032968e-009
-1.913565e-009
-1.981066e-009
-9.047919e-010
9.760582e-010
2.557202e-009
2.647655e-009
1.008359e-009
-1.260618e-009
-2.536740e-009
-2.039678e-009
-4.355937e-010
9.017624e-010
1.175852e-009
6.912967e-010
2.248522e-010
1.078136e-010
5.466950e-011
-2.313692e-010
-5.459337e-010
-3.959949e-010
3.909100e-010
1.439498e-009
2.221545e-009
2.552869e-009
2.630409e-009
2.670074e-009
2.648291e-009
2.416796e-009
1.956019e-009
1.418486e-009
9.500892e-010
5.563490e-010
1.660225e-010
-2.377988e-010
-6.034131e-010
-9.005098e-010
-1.163863e-009
-1.434941e-009
-1.701718e-009
-1.926020e-009
-2.108172e-009
-2.287032e-009
-2.477495e-009
-2.643008e-009
-2.746239e-009
-2.802170e-009
-2.853115e-009
-2.901468e-009
-2.900610e-009
-2.819800e-009
-2.688234e-009
-2.551971e-009
-2.406998e-009
-2.209977e-009
-1.952388e-009
-1.683419e-009
-1.439803e-009
-1.187002e-009
-8.703585e-010
-5.075879e-010
-1.735993e-010
1.194781e-010
4.663816e-010
9.381764e-010
1.441446e-009
1.790680e-009
1.933268e-009
2.012826e-009
2.136266e-009
2.138832e-009
1.718117e-009
8.450603e-010
-6.642842e-011
-5.170336e-010
-4.243353e-010
-1.513096e-010
-1.304660e-011
1.020298e-010
4.778704e-010
9.970273e-010
1.050624e-009
1.909066e-010
-1.180238e-009
-1.971854e-009
-1.392010e-009
2.268720e-010
1.652284e-009
1.832376e-009
7.762767e-010
-5.680209e-010
-1.217095e-009
-9.285495e-010
-2.067922e-010
3.032213e-010
3.777192e-010
2.586611e-010
3.661480e-009
1.052269e-009
-1.690490e-009
-2.507636e-009
-1.339257e-009
3.146677e-010
1.065404e-009
7.386116e-010
4.976281e-011
-3.900569e-010
-5.106343e-010
-4.153575e-010
-2.955040e-012
8.023518e-010
1.598053e-009
1.628243e-009
5.357697e-010
-1.120520e-009
-2.276204e-009
-2.304459e-009
-1.458434e-009
-3.924236e-010
5.778070e-010
1.604683e-009
2.805150e-009
3.875011e-009
4.330636e-009
4.035392e-009
3.331875e-009
2.645380e-009
2.075978e-009
1.439099e-009
6.123416e-010
-2.867650e-010
-1.069714e-009
-1.714418e-009
-2.364747e-009
-3.138352e-009
-4.012031e-009
-4.898829e-009
-5.771350e-009
-6.668393e-009
-7.611496e-009
-8.563874e-009
-9.471911e-009
-1.031045e-008
-1.107276e-008
-1.174042e-008
-1.228500e-008
-1.268803e-008
-1.293848e-008
-1.301656e-008
-1.290231e-008
-1.260108e-008
-1.213777e-008
-1.151853e-008
-1.072490e-008
-9.767429e-009
-8.722853e-009
-7.679157e-009
-6.647970e-009
-5.580089e-009
-4.487470e-009
-3.497234e-009
-2.722301e-009
-2.097476e-009
-1.427916e-009
-6.321126e-010
1.387851e-010
7.050219e-010
1.140444e-009
1.720444e-009
2.534832e-009
3.253916e-009
3.407755e-009
2.885289e-009
2.032501e-009
1.216973e-009
4.313525e-010
-5.225739e-010
-1.508186e-009
-1.939970e-009
-1.354981e-009
-3.787762e-011
1.093189e-009
1.294791e-009
6.386795e-010
-1.738543e-010
-5.361337e-010
-3.854462e-010
-2.138393e-011
3.001913e-010
4.789133e-010
4.188949e-010
2.011289e-011
-5.853623e-010
-9.402059e-010
-6.189331e-010
2.666602e-010
1.036178e-009
2.711615e-009
-1.484025e-010
-2.603878e-009
-2.154337e-009
6.263931e-010
2.907798e-009
2.483640e-009
-2.082517e-010
-2.745256e-009
-3.114835e-009
-1.362132e-009
8.994914e-010
2.203028e-009
2.270978e-009
1.632626e-009
7.263783e-010
-3.425798e-010
-1.370750e-009
-1.835214e-009
-1.328733e-009
-7.771776e-011
1.197101e-009
1.954672e-009
2.233879e-009
2.359974e-009
2.426843e-009
2.231886e-009
1.664986e-009
9.563342e-010
4.347901e-010
1.306887e-010
-2.584787e-010
-1.024325e-009
-2.181786e-009
-3.579811e-009
-5.180369e-009
-7.126957e-009
-9.550845e-009
-1.239829e-008
-1.548648e-008
-1.867882e-008
-2.195025e-008
-2.529683e-008
-2.863915e-008
-3.183693e-008
-3.476986e-008
-3.737769e-008
-3.963122e-008
-4.148687e-008
-4.287207e-008
-4.370498e-008
-4.393070e-008
-4.354744e-008
-4.259194e-008
-4.108584e-008
-3.900622e-008
-3.633907e-008
-3.316888e-008
-2.967895e-008
-2.603210e-008
-2.227799e-008
-1.843195e-008
-1.464013e-008
-1.118777e-008
-8.287080e-009
-5.900336e-009
-3.855339e-009
-2.127712e-009
-9.007019e-010
-2.800636e-010
-3.015129e-011
2.747513e-010
8.247455e-010
1.412065e-009
1.750210e-009
1.846344e-009
1.915114e-009
1.957808e-009
1.631414e-009
6.741028e-010
-6.219076e-010
-1.536188e-009
-1.559733e-009
-8.152104e-010
1.807254e-010
1.019681e-009
1.529548e-009
1.528998e-009
7.920499e-010
-5.378150e-010
-1.662757e-009
-1.631685e-009
-3.289278e-010
1.171880e-009
1.512533e-009
4.155112e-010
-9.704944e-010
-1.227430e-009
-1.515549e-010
1.042282e-009
5.316690e-010
-1.003533e-009
-1.961462e-009
-8.279223e-010
1.674262e-009
3.220477e-009
2.165959e-009
-7.649725e-010
-3.082677e-009
-2.867299e-009
-5.229899e-010
1.757031e-009
2.161086e-009
8.090571e-010
-7.358091e-010
-1.178426e-009
-5.128522e-010
4.696002e-010
1.239491e-009
1.850327e-009
2.415756e-009
2.686057e-009
2.321269e-009
1.401666e-009
4.252296e-010
-2.078973e-010
-5.518154e-010
-9.208884e-010
-1.501825e-009
-2.304534e-009
-3.437707e-009
-5.248862e-009
-8.105653e-009
-1.211260e-008
-1.712636e-008
-2.301086e-008
-2.977577e-008
-3.744373e-008
-4.586374e-008
-5.472759e-008
-6.375137e-008
-7.278348e-008
-8.172968e-008
-9.042512e-008
-9.861944e-008
-1.060735e-007
-1.126383e-007
-1.182336e-007
-1.227684e-007
-1.260965e-007
-1.280522e-007
-1.285284e-007
-1.275179e-007
-1.250671e-007
-1.211908e-007
-1.158568e-007
-1.090854e-007
-1.010563e-007
-9.207553e-008
-8.242036e-008
-7.226054e-008
-6.177816e-008
-5.133173e-008
-4.141087e-008
-3.238929e-008
-2.438024e-008
-1.739152e-008
-1.156685e-008
-7.153497e-009
-4.202481e-009
-2.405245e-009
-1.317474e-009
-6.892598e-010
-4.604295e-010
-4.569217e-010
-2.821446e-010
3.510815e-010
1.255695e-009
1.906318e-009
1.968452e-009
1.569930e-009
1.007223e-009
3.637318e-010
-3.777805e-010
-9.229297e-010
-7.103231e-010
3.888163e-010
1.553812e-009
1.568752e-009
1.023949e-010
-1.700672e-009
-2.180946e-009
-8.242922e-010
1.142567e-009
1.936858e-009
9.853530e-010
-5.776661e-010
-1.173328e-009
-4.203863e-010
5.849666e-010
-1.154112e-009
-6.126781e-010
4.846056e-011
5.254917e-010
7.532404e-010
6.732885e-010
1.851538e-010
-5.151497e-010
-7.877718e-010
-1.228229e-010
1.067827e-009
1.551599e-009
4.866729e-010
-1.497787e-009
-2.696545e-009
-1.935802e-009
3.103580e-010
2.475246e-009
3.421813e-009
3.250880e-009
2.727423e-009
2.274264e-009
1.737596e-009
9.383521e-010
6.604106e-011
-6.225196e-010
-1.317837e-009
-2.674098e-009
-5.345046e-009
-9.653546e-009
-1.572488e-008
-2.376374e-008
-3.404483e-008
-4.666414e-008
-6.142790e-008
-7.802117e-008
-9.620290e-008
-1.157765e-007
-1.364240e-007
-1.576647e-007
-1.790008e-007
-2.000542e-007
-2.205346e-007
-2.401101e-007
-2.583636e-007
-2.748814e-007
-2.893559e-007
-3.015802e-007
-3.113530e-007
-3.184139e-007
-3.224848e-007
-3.233734e-007
-3.210225e-007
-3.154491e-007
-3.066523e-007
-2.946211e-007
-2.794613e-007
-2.614973e-007
-2.412103e-007
-2.190821e-007
-1.955508e-007
-1.711434e-007
-1.465866e-007
-1.226924e-007
-1.001163e-007
-7.928049e-008
-6.053862e-008
-4.430830e-008
-3.092892e-008
-2.041470e-008
-1.246816e-008
-6.769371e-009
-3.135634e-009
-1.303268e-009
-6.557428e-010
-3.783682e-010
4.559349e-011
6.090127e-010
1.120983e-009
1.620540e-009
2.242147e-009
2.721597e-009
2.379737e-009
8.846121e-010
-1.049107e-009
-2.049865e-009
-1.380691e-009
2.436930e-010
1.302404e-009
9.509516e-010
-2.314547e-010
-9.688961e-010
-6.194447e-010
3.054253e-010
8.357371e-010
5.624481e-010
-8.315234e-011
-4.239977e-010
-2.534532e-010
5.546036e-011
-2.016922e-009
4.677903e-010
2.352325e-009
1.549853e-009
-9.910829e-010
-2.640558e-009
-1.937946e-009
2.258509e-010
1.949772e-009
2.236431e-009
1.420864e-009
2.357546e-010
-9.104203e-010
-1.713779e-009
-1.648554e-009
-3.924953e-010
1.496958e-009
2.785976e-009
2.688965e-009
1.648045e-009
8.115397e-010
8.163443e-010
1.254226e-009
1.254078e-009
2.647941e-010
-1.919340e-009
-5.718725e-009
-1.202727e-008
-2.181636e-008
-3.563081e-008
-5.357948e-008
-7.570196e-008
-1.021513e-007
-1.329880e-007
-1.679295e-007
-2.063953e-007
-2.477426e-007
-2.913669e-007
-3.365919e-007
-3.825771e-007
-4.284094e-007
-4.732674e-007
-5.164572e-007
-5.573100e-007
-5.951102e-007
-6.291554e-007
-6.588628e-007
-6.837833e-007
-7.035083e-007
-7.175940e-007
-7.255983e-007
-7.271896e-007
-7.221966e-007
-7.105503e-007
-6.922110e-007
-6.672111e-007
-6.357961e-007
-5.985043e-007
-5.560901e-007
-5.094015e-007
-4.593912e-007
-4.072399e-007
-3.543690e-007
-3.022403e-007
-2.521304e-007
-2.051201e-007
-1.622215e-007
-1.243387e-007
-9.199987e-008
-6.519616e-008
-4.360157e-008
-2.693251e-008
-1.496214e-008
-7.167836e-009
-2.558378e-009
-4.289447e-011
1.066745e-009
1.093203e-009
5.214864e-010
2.038447e-010
7.719242e-010
1.908023e-009
2.511490e-009
1.788689e-009
1.114912e-010
-1.321112e-009
-1.614253e-009
-8.580990e-010
2.157405e-010
9.746548e-010
1.181484e-009
8.295953e-010
5.887723e-011
-7.193619e-010
-9.354593e-010
-3.857558e-010
4.175960e-010
6.770558e-010
1.744586e-010
-4.569167e-010
-2.507711e-009
9.815355e-010
3.508359e-009
2.091009e-009
-1.748846e-009
-3.978421e-009
-2.475266e-009
9.964255e-010
3.023375e-009
2.126556e-009
-1.842872e-010
-1.496179e-009
-9.469183e-010
5.050725e-010
1.620463e-009
2.040838e-009
2.008028e-009
1.619036e-009
8.328365e-010
-1.664154e-011
-2.854406e-010
1.589923e-010
3.767130e-010
-1.192308e-009
-5.822578e-009
-1.422905e-008
-2.709764e-008
-4.556413e-008
-7.097993e-008
-1.043114e-007
-1.459281e-007
-1.959119e-007
-2.543301e-007
-3.210751e-007
-3.955216e-007
-4.764779e-007
-5.624734e-007
-6.520177e-007
-7.435983e-007
-8.355796e-007
-9.262543e-007
-1.014033e-006
-1.097556e-006
-1.175627e-006
-1.247109e-006
-1.310937e-006
-1.366195e-006
-1.412141e-006
-1.448124e-006
-1.473494e-006
-1.487630e-006
-1.490030e-006
-1.480354e-006
-1.458377e-006
-1.423953e-006
-1.377103e-006
-1.318159e-006
-1.247836e-006
-1.167159e-006
-1.077423e-006
-9.802906e-007
-8.779081e-007
-7.728231e-007
-6.676984e-007
-5.650978e-007
-4.674936e-007
-3.772729e-007
-2.964552e-007
-2.262554e-007
-1.669621e-007
-1.182943e-007
-7.978966e-008
-5.074915e-008
-2.993397e-008
-1.564777e-008
-6.337571e-009
-1.037183e-009
9.453204e-010
7.044123e-010
-1.864625e-010
-4.443823e-010
1.807685e-010
1.072219e-009
1.574366e-009
1.504360e-009
9.726253e-010
1.145654e-010
-7.556895e-010
-9.998928e-010
-1.675799e-010
1.222053e-009
1.814436e-009
7.623192e-010
-1.128188e-009
-2.013263e-009
-9.788422e-010
8.570251e-010
1.529816e-009
4.441052e-010
-9.698536e-010
-2.455860e-009
4.363040e-010
2.654780e-009
1.780968e-009
-1.003261e-009
-2.491541e-009
-1.109022e-009
1.423527e-009
2.150255e-009
2.334352e-010
-2.170046e-009
-2.356149e-009
4.097468e-011
2.877737e-009
3.919780e-009
2.940641e-009
1.403339e-009
6.165748e-010
6.520510e-010
8.140414e-010
4.447447e-010
-1.134970e-009
-5.206068e-009
-1.369288e-008
-2.853413e-008
-5.126942e-008
-8.337012e-008
-1.267430e-007
-1.835947e-007
-2.557235e-007
-3.440093e-007
-4.485030e-007
-5.687078e-007
-7.035379e-007
-8.510454e-007
-1.008407e-006
-1.172328e-006
-1.339510e-006
-1.506827e-006
-1.671279e-006
-1.830020e-006
-1.980551e-006
-2.120863e-006
-2.249382e-006
-2.364815e-006
-2.466063e-006
-2.552240e-006
-2.622667e-006
-2.676776e-006
-2.714008e-006
-2.733800e-006
-2.735645e-006
-2.719098e-006
-2.683740e-006
-2.629160e-006
-2.555079e-006
-2.461502e-006
-2.348790e-006
-2.217661e-006
-2.069292e-006
-1.905580e-006
-1.729341e-006
-1.544228e-006
-1.354462e-006
-1.164648e-006
-9.797514e-007
-8.048646e-007
-6.445734e-007
-5.022316e-007
-3.797051e-007
-2.776381e-007
-1.957141e-007
-1.325594e-007
-8.566765e-008
-5.190663e-008
-2.843398e-008
-1.318241e-008
-4.501390e-009
-5.727257e-010
5.691976e-010
4.937269e-010
1.122495e-010
-1.206806e-011
5.583390e-010
1.758956e-009
2.671160e-009
2.168722e-009
2.520609e-010
-1.546261e-009
-1.568207e-009
1.022976e-010
1.563849e-009
1.152901e-009
-6.459914e-010
-1.732503e-009
-8.359545e-010
9.881975e-010
1.608178e-009
3.420617e-010
-1.250520e-009
-1.037567e-009
-4.536588e-010
1.833652e-010
4.098591e-010
2.844508e-010
3.229111e-010
7.865476e-010
1.111487e-009
4.274748e-010
-1.176929e-009
-2.258939e-009
-1.374431e-009
1.165452e-009
3.324522e-009
3.390068e-009
1.772533e-009
4.644827e-010
7.942118e-010
1.992345e-009
1.883951e-009
-1.547273e-009
-9.671306e-009
-2.404695e-008
-4.721892e-008
-8.253329e-008
-1.334878e-007
-2.035207e-007
-2.961774e-007
-4.148780e-007
-5.620459e-007
-7.382561e-007
-9.420593e-007
-1.170335e-006
-1.418613e-006
-1.681207e-006
-1.951522e-006
-2.222730e-006
-2.488533e-006
-2.743573e-006
-2.983468e-006
-3.204783e-006
-3.405100e-006
-3.583063e-006
-3.738234e-006
-3.870792e-006
-3.981290e-006
-4.070521e-006
-4.139426e-006
-4.188941e-006
-4.219845e-006
-4.232685e-006
-4.227750e-006
-4.205008e-006
-4.163997e-006
-4.103782e-006
-4.023020e-006
-3.920081e-006
-3.793134e-006
-3.640280e-006
-3.459933e-006
-3.251414e-006
-3.015508e-006
-2.754730e-006
-2.473410e-006
-2.177807e-006
-1.876104e-006
-1.577889e-006
-1.292986e-006
-1.030149e-006
-7.962188e-007
-5.957734e-007
-4.308519e-007
-3.006746e-007
-2.018615e-007
-1.294749e-007
-7.835064e-008
-4.383237e-008
-2.177704e-008
-8.533105e-009
-1.301547e-009
1.671533e-009
1.683685e-009
4.155154e-010
-2.018148e-010
7.610091e-010
2.371207e-009
2.772801e-009
1.230016e-009
-9.682412e-010
-1.853348e-009
-8.781682e-010
6.168989e-010
1.026038e-009
2.243520e-010
-5.363010e-010
-2.770146e-010
5.696500e-010
8.136420e-010
3.436537e-011
-9.001937e-010
1.797836e-009
-7.530109e-010
-2.507543e-009
-1.449352e-009
1.087764e-009
2.415204e-009
1.566042e-009
-1.493572e-010
-1.074332e-009
-8.129223e-010
6.093585e-011
1.021589e-009
1.787905e-009
1.982180e-009
1.374417e-009
5.155677e-010
4.517694e-010
1.290391e-009
1.157769e-009
-3.158771e-009
-1.469736e-008
-3.586226e-008
-6.956824e-008
-1.205488e-007
-1.953222e-007
-3.009743e-007
-4.439737e-007
-6.295515e-007
-8.610682e-007
-1.138895e-006
-1.459318e-006
-1.814356e-006
-2.192642e-006
-2.580770e-006
-2.964553e-006
-3.330201e-006
-3.665574e-006
-3.961280e-006
-4.211219e-006
-4.412502e-006
-4.565047e-006
-4.671181e-006
-4.735249e-006
-4.763097e-006
-4.761458e-006
-4.737395e-006
-4.697928e-006
-4.649774e-006
-4.599109e-006
-4.551348e-006
-4.510962e-006
-4.481314e-006
-4.464418e-006
-4.460619e-006
-4.468299e-006
-4.483675e-006
-4.500670e-006
-4.510883e-006
-4.503836e-006
-4.467741e-006
-4.390762e-006
-4.262480e-006
-4.075331e-006
-3.826012e-006
-3.516793e-006
-3.156251e-006
-2.758823e-006
-2.343078e-006
-1.929283e-006
-1.536949e-006
-1.182575e-006
-8.776750e-007
-6.275662e-007
-4.315955e-007
-2.847467e-007
-1.796045e-007
-1.077287e-007
-6.055088e-008
-3.046326e-008
-1.198196e-008
-1.948035e-009
1.697263e-009
1.401245e-009
1.049510e-010
-1.110175e-010
8.679608e-010
1.757974e-009
1.539211e-009
4.409413e-010
-5.525903e-010
-7.784101e-010
-3.278490e-010
3.096509e-010
7.075234e-010
6.646635e-010
2.336770e-010
-2.671365e-010
-4.403139e-010
-1.885235e-010
1.442631e-010
4.464942e-009
-4.059499e-010
-4.005075e-009
-2.607550e-009
1.356042e-009
3.001409e-009
8.964929e-010
-1.869045e-009
-1.901931e-009
6.705873e-010
3.002644e-009
3.111130e-009
1.657505e-009
4.875261e-010
4.719443e-010
1.085223e-009
1.209459e-009