# vtk DataFile Version 3.0
vtk output
ASCII
DATASET STRUCTURED_POINTS
DIMENSIONS 100 100 1
SPACING 1 1 1
ORIGIN 0 0 0
POINT_DATA 10000
SCALARS SFBox_profile double
LOOKUP_TABLE default 
9.439931e-003
9.439930e-003
9.439930e-003
9.439929e-003
9.439928e-003
9.439929e-003
9.439931e-003
9.439935e-003
9.439940e-003
9.439947e-003
9.439954e-003
9.439963e-003
9.439971e-003
9.439979e-003
9.439986e-003
9.439991e-003
9.439993e-003
9.439992e-003
9.439984e-003
9.439969e-003
9.439943e-003
9.439905e-003
9.439849e-003
9.439774e-003
9.439676e-003
9.439552e-003
9.439400e-003
9.439218e-003
9.439005e-003
9.438761e-003
9.438487e-003
9.438187e-003
9.437865e-003
9.437527e-003
9.437180e-003
9.436833e-003
9.436497e-003
9.436181e-003
9.435897e-003
9.435653e-003
9.435460e-003
9.435324e-003
9.435251e-003
9.435244e-003
9.435302e-003
9.435423e-003
9.435603e-003
9.435835e-003
9.436111e-003
9.436419e-003
9.436751e-003
9.437095e-003
9.437442e-003
9.437782e-003
9.438107e-003
9.438411e-003
9.438689e-003
9.438937e-003
9.439155e-003
9.439341e-003
9.439496e-003
9.439623e-003
9.439724e-003
9.439802e-003
9.439860e-003
9.439902e-003
9.439930e-003
9.439948e-003
9.439958e-003
9.439962e-003
9.439963e-003
9.439960e-003
9.439956e-003
9.439951e-003
9.439947e-003
9.439942e-003
9.439938e-003
9.439935e-003
9.439932e-003
9.439929e-003
9.439927e-003
9.439926e-003
9.439924e-003
9.439923e-003
9.439922e-003
9.439921e-003
9.439920e-003
9.439920e-003
9.439920e-003
9.439920e-003
9.439920e-003
9.439921e-003
9.439921e-003
9.439920e-003
9.439920e-003
9.439920e-003
9.439920e-003
9.439920e-003
9.439919e-003
9.439919e-003
9.439931e-003
9.439930e-003
9.439930e-003
9.439929e-003
9.439928e-003
9.439929e-003
9.439931e-003
9.439935e-003
9.439940e-003
9.439947e-003
9.439954e-003
9.439963e-003
9.439971e-003
9.439979e-003
9.439986e-003
9.439991e-003
9.439993e-003
9.439992e-003
9.439984e-003
9.439969e-003
9.439943e-003
9.439905e-003
9.439849e-003
9.439774e-003
9.439676e-003
9.439552e-003
9.439400e-003
9.439218e-003
9.439005e-003
9.438761e-003
9.438487e-003
9.438187e-003
9.437865e-003
9.437527e-003
9.437180e-003
9.436833e-003
9.436497e-003
9.436181e-003
9.435897e-003
9.435653e-003
9.435460e-003
9.435324e-003
9.435251e-003
9.435244e-003
9.435302e-003
9.435423e-003
9.435603e-003
9.435835e-003
9.436111e-003
9.436419e-003
9.436751e-003
9.437095e-003
9.437442e-003
9.437782e-003
9.438107e-003
9.438411e-003
9.438689e-003
9.438937e-003
9.439155e-003
9.439341e-003
9.439496e-003
9.439623e-003
9.439724e-003
9.439802e-003
9.439860e-003
9.439902e-003
9.439930e-003
9.439948e-003
9.439958e-003
9.439962e-003
9.439963e-003
9.439960e-003
9.439956e-003
9.439951e-003
9.439947e-003
9.439942e-003
9.439938e-003
9.439935e-003
9.439932e-003
9.439929e-003
9.439927e-003
9.439926e-003
9.439924e-003
9.439923e-003
9.439922e-003
9.439921e-003
9.439920e-003
9.439920e-003
9.439920e-003
9.439920e-003
9.439920e-003
9.439921e-003
9.439921e-003
9.439920e-003
9.439920e-003
9.439920e-003
9.439920e-003
9.439920e-003
9.439919e-003
9.439919e-003
9.439930e-003
9.439930e-003
9.439929e-003
9.439929e-003
9.439930e-003
9.439932e-003
9.439935e-003
9.439939e-003
9.439944e-003
9.439951e-003
9.439958e-003
9.439965e-003
9.439972e-003
9.439978e-003
9.439981e-003
9.439982e-003
9.439978e-003
9.439967e-003
9.439947e-003
9.439915e-003
9.439868e-003
9.439802e-003
9.439712e-003
9.439595e-003
9.439445e-003
9.439260e-003
9.439035e-003
9.438769e-003
9.438461e-003
9.438110e-003
9.437720e-003
9.437295e-003
9.436840e-003
9.436365e-003
9.435880e-003
9.435397e-003
9.434930e-003
9.434493e-003
9.434100e-003
9.433765e-003
9.433499e-003
9.433313e-003
9.433213e-003
9.433204e-003
9.433284e-003
9.433452e-003
9.433702e-003
9.434023e-003
9.434404e-003
9.434833e-003
9.435294e-003
9.435775e-003
9.436260e-003
9.436738e-003
9.437197e-003
9.437628e-003
9.438025e-003
9.438381e-003
9.438696e-003
9.438968e-003
9.439197e-003
9.439388e-003
9.439542e-003
9.439663e-003
9.439757e-003
9.439826e-003
9.439876e-003
9.439911e-003
9.439933e-003
9.439946e-003
9.439953e-003
9.439955e-003
9.439954e-003
9.439951e-003
9.439947e-003
9.439943e-003
9.439939e-003
9.439936e-003
9.439933e-003
9.439930e-003
9.439928e-003
9.439926e-003
9.439924e-003
9.439923e-003
9.439922e-003
9.439921e-003
9.439921e-003
9.439920e-003
9.439920e-003
9.439920e-003
9.439920e-003
9.439921e-003
9.439920e-003
9.439920e-003
9.439920e-003
9.439920e-003
9.439920e-003
9.439920e-003
9.439920e-003
9.439919e-003
9.439928e-003
9.439929e-003
9.439930e-003
9.439931e-003
9.439934e-003
9.439937e-003
9.439941e-003
9.439946e-003
9.439952e-003
9.439958e-003
9.439964e-003
9.439969e-003
9.439972e-003
9.439973e-003
9.439968e-003
9.439957e-003
9.439937e-003
9.439904e-003
9.439855e-003
9.439785e-003
9.439687e-003
9.439557e-003
9.439387e-003
9.439171e-003
9.438902e-003
9.438574e-003
9.438183e-003
9.437725e-003
9.437198e-003
9.436605e-003
9.435950e-003
9.435239e-003
9.434485e-003
9.433701e-003
9.432904e-003
9.432115e-003
9.431354e-003
9.430645e-003
9.430010e-003
9.429470e-003
9.429043e-003
9.428745e-003
9.428586e-003
9.428572e-003
9.428703e-003
9.428975e-003
9.429379e-003
9.429899e-003
9.430517e-003
9.431214e-003
9.431968e-003
9.432754e-003
9.433552e-003
9.434341e-003
9.435103e-003
9.435823e-003
9.436489e-003
9.437093e-003
9.437630e-003
9.438098e-003
9.438499e-003
9.438835e-003
9.439111e-003
9.439334e-003
9.439509e-003
9.439644e-003
9.439745e-003
9.439819e-003
9.439871e-003
9.439905e-003
9.439927e-003
9.439940e-003
9.439946e-003
9.439948e-003
9.439947e-003
9.439945e-003
9.439942e-003
9.439938e-003
9.439935e-003
9.439932e-003
9.439929e-003
9.439927e-003
9.439925e-003
9.439924e-003
9.439922e-003
9.439922e-003
9.439921e-003
9.439921e-003
9.439921e-003
9.439921e-003
9.439921e-003
9.439920e-003
9.439920e-003
9.439920e-003
9.439920e-003
9.439920e-003
9.439920e-003
9.439920e-003
9.439920e-003
9.439920e-003
9.439928e-003
9.439930e-003
9.439932e-003
9.439935e-003
9.439940e-003
9.439945e-003
9.439950e-003
9.439956e-003
9.439961e-003
9.439966e-003
9.439969e-003
9.439970e-003
9.439966e-003
9.439955e-003
9.439935e-003
9.439902e-003
9.439850e-003
9.439775e-003
9.439669e-003
9.439524e-003
9.439330e-003
9.439078e-003
9.438757e-003
9.438356e-003
9.437864e-003
9.437272e-003
9.436572e-003
9.435760e-003
9.434835e-003
9.433799e-003
9.432662e-003
9.431436e-003
9.430142e-003
9.428804e-003
9.427451e-003
9.426117e-003
9.424837e-003
9.423648e-003
9.422587e-003
9.421687e-003
9.420979e-003
9.420485e-003
9.420222e-003
9.420201e-003
9.420422e-003
9.420877e-003
9.421550e-003
9.422420e-003
9.423457e-003
9.424628e-003
9.425897e-003
9.427228e-003
9.428583e-003
9.429930e-003
9.431236e-003
9.432478e-003
9.433633e-003
9.434687e-003
9.435631e-003
9.436461e-003
9.437177e-003
9.437783e-003
9.438288e-003
9.438699e-003
9.439028e-003
9.439286e-003
9.439485e-003
9.439633e-003
9.439741e-003
9.439818e-003
9.439871e-003
9.439905e-003
9.439926e-003
9.439938e-003
9.439943e-003
9.439945e-003
9.439944e-003
9.439941e-003
9.439938e-003
9.439935e-003
9.439932e-003
9.439929e-003
9.439927e-003
9.439925e-003
9.439923e-003
9.439922e-003
9.439922e-003
9.439921e-003
9.439921e-003
9.439921e-003
9.439921e-003
9.439920e-003
9.439920e-003
9.439920e-003
9.439920e-003
9.439920e-003
9.439920e-003
9.439920e-003
9.439920e-003
9.439920e-003
9.439932e-003
9.439934e-003
9.439937e-003
9.439942e-003
9.439948e-003
9.439955e-003
9.439961e-003
9.439966e-003
9.439970e-003
9.439972e-003
9.439969e-003
9.439960e-003
9.439942e-003
9.439911e-003
9.439861e-003
9.439786e-003
9.439677e-003
9.439524e-003
9.439316e-003
9.439037e-003
9.438672e-003
9.438206e-003
9.437619e-003
9.436894e-003
9.436015e-003
9.434966e-003
9.433737e-003
9.432322e-003
9.430720e-003
9.428939e-003
9.426995e-003
9.424913e-003
9.422727e-003
9.420481e-003
9.418222e-003
9.416006e-003
9.413892e-003
9.411939e-003
9.410203e-003
9.408737e-003
9.407587e-003
9.406789e-003
9.406368e-003
9.406339e-003
9.406701e-003
9.407444e-003
9.408543e-003
9.409965e-003
9.411665e-003
9.413592e-003
9.415689e-003
9.417897e-003
9.420158e-003
9.422417e-003
9.424621e-003
9.426727e-003
9.428699e-003
9.430511e-003
9.432143e-003
9.433588e-003
9.434844e-003
9.435916e-003
9.436816e-003
9.437556e-003
9.438155e-003
9.438631e-003
9.439001e-003
9.439283e-003
9.439494e-003
9.439648e-003
9.439756e-003
9.439831e-003
9.439881e-003
9.439912e-003
9.439930e-003
9.439939e-003
9.439943e-003
9.439943e-003
9.439941e-003
9.439938e-003
9.439934e-003
9.439931e-003
9.439929e-003
9.439926e-003
9.439925e-003
9.439923e-003
9.439923e-003
9.439922e-003
9.439922e-003
9.439921e-003
9.439921e-003
9.439920e-003
9.439920e-003
9.439920e-003
9.439920e-003
9.439920e-003
9.439920e-003
9.439920e-003
9.439920e-003
9.439920e-003
9.439940e-003
9.439942e-003
9.439947e-003
9.439953e-003
9.439959e-003
9.439966e-003
9.439972e-003
9.439975e-003
9.439975e-003
9.439969e-003
9.439955e-003
9.439928e-003
9.439884e-003
9.439815e-003
9.439711e-003
9.439561e-003
9.439350e-003
9.439062e-003
9.438674e-003
9.438164e-003
9.437507e-003
9.436675e-003
9.435639e-003
9.434372e-003
9.432847e-003
9.431044e-003
9.428946e-003
9.426547e-003
9.423853e-003
9.420879e-003
9.417657e-003
9.414234e-003
9.410667e-003
9.407029e-003
9.403401e-003
9.399871e-003
9.396530e-003
9.393466e-003
9.390764e-003
9.388499e-003
9.386734e-003
9.385518e-003
9.384885e-003
9.384852e-003
9.385421e-003
9.386573e-003
9.388278e-003
9.390487e-003
9.393139e-003
9.396161e-003
9.399471e-003
9.402983e-003
9.406605e-003
9.410250e-003
9.413836e-003
9.417290e-003
9.420550e-003
9.423566e-003
9.426306e-003
9.428750e-003
9.430889e-003
9.432730e-003
9.434285e-003
9.435577e-003
9.436631e-003
9.437476e-003
9.438140e-003
9.438653e-003
9.439042e-003
9.439330e-003
9.439538e-003
9.439686e-003
9.439787e-003
9.439854e-003
9.439896e-003
9.439922e-003
9.439935e-003
9.439941e-003
9.439942e-003
9.439940e-003
9.439938e-003
9.439934e-003
9.439931e-003
9.439929e-003
9.439927e-003
9.439925e-003
9.439924e-003
9.439923e-003
9.439922e-003
9.439922e-003
9.439921e-003
9.439921e-003
9.439920e-003
9.439920e-003
9.439920e-003
9.439920e-003
9.439920e-003
9.439920e-003
9.439920e-003
9.439920e-003
9.439954e-003
9.439956e-003
9.439960e-003
9.439966e-003
9.439972e-003
9.439977e-003
9.439980e-003
9.439978e-003
9.439969e-003
9.439949e-003
9.439912e-003
9.439853e-003
9.439761e-003
9.439624e-003
9.439425e-003
9.439145e-003
9.438759e-003
9.438238e-003
9.437549e-003
9.436653e-003
9.435509e-003
9.434074e-003
9.432304e-003
9.430156e-003
9.427593e-003
9.424586e-003
9.421118e-003
9.417188e-003
9.412814e-003
9.408034e-003
9.402910e-003
9.397525e-003
9.391982e-003
9.386401e-003
9.380909e-003
9.375640e-003
9.370724e-003
9.366280e-003
9.362417e-003
9.359223e-003
9.356769e-003
9.355106e-003
9.354263e-003
9.354257e-003
9.355083e-003
9.356723e-003
9.359142e-003
9.362290e-003
9.366097e-003
9.370479e-003
9.375335e-003
9.380550e-003
9.385999e-003
9.391556e-003
9.397092e-003
9.402490e-003
9.407644e-003
9.412468e-003
9.416895e-003
9.420882e-003
9.424406e-003
9.427465e-003
9.430072e-003
9.432256e-003
9.434053e-003
9.435505e-003
9.436658e-003
9.437557e-003
9.438246e-003
9.438762e-003
9.439142e-003
9.439416e-003
9.439608e-003
9.439739e-003
9.439825e-003
9.439880e-003
9.439913e-003
9.439930e-003
9.439939e-003
9.439941e-003
9.439940e-003
9.439937e-003
9.439934e-003
9.439932e-003
9.439929e-003
9.439927e-003
9.439926e-003
9.439924e-003
9.439923e-003
9.439922e-003
9.439921e-003
9.439921e-003
9.439920e-003
9.439920e-003
9.439920e-003
9.439920e-003
9.439920e-003
9.439920e-003
9.439920e-003
9.439920e-003
9.439972e-003
9.439974e-003
9.439978e-003
9.439982e-003
9.439985e-003
9.439986e-003
9.439981e-003
9.439968e-003
9.439941e-003
9.439895e-003
9.439818e-003
9.439700e-003
9.439525e-003
9.439270e-003
9.438909e-003
9.438409e-003
9.437729e-003
9.436824e-003
9.435638e-003
9.434113e-003
9.432184e-003
9.429784e-003
9.426850e-003
9.423322e-003
9.419151e-003
9.414308e-003
9.408783e-003
9.402597e-003
9.395805e-003
9.388495e-003
9.380791e-003
9.372849e-003
9.364847e-003
9.356977e-003
9.349434e-003
9.342399e-003
9.336032e-003
9.330462e-003
9.325779e-003
9.322042e-003
9.319275e-003
9.317481e-003
9.316649e-003
9.316765e-003
9.317815e-003
9.319788e-003
9.322677e-003
9.326466e-003
9.331130e-003
9.336620e-003
9.342860e-003
9.349740e-003
9.357124e-003
9.364846e-003
9.372727e-003
9.380584e-003
9.388241e-003
9.395540e-003
9.402351e-003
9.408577e-003
9.414154e-003
9.419054e-003
9.423278e-003
9.426851e-003
9.429819e-003
9.432241e-003
9.434181e-003
9.435708e-003
9.436888e-003
9.437784e-003
9.438450e-003
9.438936e-003
9.439282e-003
9.439524e-003
9.439688e-003
9.439795e-003
9.439863e-003
9.439903e-003
9.439926e-003
9.439936e-003
9.439940e-003
9.439940e-003
9.439938e-003
9.439935e-003
9.439932e-003
9.439930e-003
9.439928e-003
9.439926e-003
9.439924e-003
9.439923e-003
9.439922e-003
9.439921e-003
9.439920e-003
9.439920e-003
9.439920e-003
9.439920e-003
9.439920e-003
9.439920e-003
9.439920e-003
9.439920e-003
9.439994e-003
9.439995e-003
9.439996e-003
9.439997e-003
9.439994e-003
9.439986e-003
9.439968e-003
9.439934e-003
9.439875e-003
9.439780e-003
9.439634e-003
9.439416e-003
9.439097e-003
9.438644e-003
9.438013e-003
9.437150e-003
9.435993e-003
9.434466e-003
9.432488e-003
9.429966e-003
9.426806e-003
9.422914e-003
9.418203e-003
9.412600e-003
9.406059e-003
9.398570e-003
9.390165e-003
9.380934e-003
9.371022e-003
9.360634e-003
9.350025e-003
9.339488e-003
9.329336e-003
9.319870e-003
9.311359e-003
9.304008e-003
9.297942e-003
9.293198e-003
9.289720e-003
9.287381e-003
9.286007e-003
9.285411e-003
9.285425e-003
9.285934e-003
9.286894e-003
9.288336e-003
9.290360e-003
9.293112e-003
9.296753e-003
9.301426e-003
9.307223e-003
9.314164e-003
9.322185e-003
9.331138e-003
9.340807e-003
9.350923e-003
9.361199e-003
9.371346e-003
9.381104e-003
9.390254e-003
9.398632e-003
9.406132e-003
9.412702e-003
9.418339e-003
9.423081e-003
9.426994e-003
9.430161e-003
9.432679e-003
9.434643e-003
9.436148e-003
9.437279e-003
9.438114e-003
9.438717e-003
9.439143e-003
9.439438e-003
9.439636e-003
9.439765e-003
9.439846e-003
9.439894e-003
9.439921e-003
9.439934e-003
9.439939e-003
9.439940e-003
9.439938e-003
9.439936e-003
9.439933e-003
9.439930e-003
9.439928e-003
9.439925e-003
9.439924e-003
9.439922e-003
9.439921e-003
9.439921e-003
9.439921e-003
9.439920e-003
9.439920e-003
9.439920e-003
9.439920e-003
9.439920e-003
9.439920e-003
9.440016e-003
9.440015e-003
9.440013e-003
9.440007e-003
9.439994e-003
9.439970e-003
9.439927e-003
9.439856e-003
9.439741e-003
9.439564e-003
9.439299e-003
9.438912e-003
9.438357e-003
9.437581e-003
9.436512e-003
9.435069e-003
9.433152e-003
9.430651e-003
9.427440e-003
9.423390e-003
9.418370e-003
9.412259e-003
9.404959e-003
9.396412e-003
9.386617e-003
9.375648e-003
9.363671e-003
9.350951e-003
9.337861e-003
9.324864e-003
9.312493e-003
9.301310e-003
9.291853e-003
9.284577e-003
9.279791e-003
9.277610e-003
9.277918e-003
9.280367e-003
9.284402e-003
9.289320e-003
9.294353e-003
9.298766e-003
9.301956e-003
9.303534e-003
9.303375e-003
9.301638e-003
9.298738e-003
9.295284e-003
9.291995e-003
9.289599e-003
9.288743e-003
9.289910e-003
9.293374e-003
9.299184e-003
9.307173e-003
9.316999e-003
9.328199e-003
9.340250e-003
9.352623e-003
9.364835e-003
9.376481e-003
9.387252e-003
9.396942e-003
9.405441e-003
9.412723e-003
9.418824e-003
9.423830e-003
9.427857e-003
9.431034e-003
9.433492e-003
9.435359e-003
9.436750e-003
9.437767e-003
9.438495e-003
9.439005e-003
9.439354e-003
9.439587e-003
9.439737e-003
9.439831e-003
9.439887e-003
9.439918e-003
9.439933e-003
9.439940e-003
9.439941e-003
9.439939e-003
9.439936e-003
9.439933e-003
9.439930e-003
9.439927e-003
9.439925e-003
9.439923e-003
9.439922e-003
9.439921e-003
9.439921e-003
9.439921e-003
9.439921e-003
9.439921e-003
9.439920e-003
9.439920e-003
9.439920e-003
9.440035e-003
9.440031e-003
9.440022e-003
9.440005e-003
9.439974e-003
9.439922e-003
9.439837e-003
9.439701e-003
9.439493e-003
9.439179e-003
9.438719e-003
9.438057e-003
9.437123e-003
9.435830e-003
9.434072e-003
9.431723e-003
9.428635e-003
9.424647e-003
9.419586e-003
9.413278e-003
9.405566e-003
9.396330e-003
9.385511e-003
9.373146e-003
9.359403e-003
9.344605e-003
9.329264e-003
9.314083e-003
9.299950e-003
9.287894e-003
9.279017e-003
9.274388e-003
9.274920e-003
9.281232e-003
9.293520e-003
9.311462e-003
9.334165e-003
9.360191e-003
9.387649e-003
9.414359e-003
9.438075e-003
9.456728e-003
9.468663e-003
9.472839e-003
9.468952e-003
9.457472e-003
9.439579e-003
9.417020e-003
9.391895e-003
9.366417e-003
9.342670e-003
9.322403e-003
9.306890e-003
9.296851e-003
9.292455e-003
9.293386e-003
9.298948e-003
9.308199e-003
9.320085e-003
9.333558e-003
9.347668e-003
9.361623e-003
9.374819e-003
9.386844e-003
9.397458e-003
9.406566e-003
9.414186e-003
9.420415e-003
9.425396e-003
9.429299e-003
9.432295e-003
9.434552e-003
9.436218e-003
9.437425e-003
9.438281e-003
9.438875e-003
9.439277e-003
9.439543e-003
9.439714e-003
9.439819e-003
9.439881e-003
9.439916e-003
9.439933e-003
9.439940e-003
9.439941e-003
9.439939e-003
9.439936e-003
9.439932e-003
9.439929e-003
9.439926e-003
9.439924e-003
9.439923e-003
9.439922e-003
9.439922e-003
9.439921e-003
9.439921e-003
9.439921e-003
9.439921e-003
9.439920e-003
9.439920e-003
9.440046e-003
9.440037e-003
9.440017e-003
9.439980e-003
9.439919e-003
9.439820e-003
9.439663e-003
9.439422e-003
9.439059e-003
9.438524e-003
9.437750e-003
9.436653e-003
9.435124e-003
9.433031e-003
9.430215e-003
9.426491e-003
9.421651e-003
9.415475e-003
9.407743e-003
9.398260e-003
9.386892e-003
9.373607e-003
9.358531e-003
9.342008e-003
9.324665e-003
9.307465e-003
9.291739e-003
9.279181e-003
9.271796e-003
9.271783e-003
9.281351e-003
9.302479e-003
9.336633e-003
9.384478e-003
9.445625e-003
9.518455e-003
9.600073e-003
9.686405e-003
9.772463e-003
9.852742e-003
9.921730e-003
9.974456e-003
1.000701e-002
1.001696e-002
1.000362e-002
9.968146e-003
9.913364e-003
9.843486e-003
9.763645e-003
9.679358e-003
9.595987e-003
9.518259e-003
9.449902e-003
9.393427e-003
9.350080e-003
9.319926e-003
9.302054e-003
9.294844e-003
9.296258e-003
9.304110e-003
9.316295e-003
9.330946e-003
9.346532e-003
9.361890e-003
9.376215e-003
9.389019e-003
9.400067e-003
9.409319e-003
9.416862e-003
9.422867e-003
9.427541e-003
9.431103e-003
9.433763e-003
9.435709e-003
9.437106e-003
9.438086e-003
9.438760e-003
9.439212e-003
9.439508e-003
9.439696e-003
9.439811e-003
9.439879e-003
9.439915e-003
9.439934e-003
9.439940e-003
9.439941e-003
9.439939e-003
9.439935e-003
9.439932e-003
9.439928e-003
9.439926e-003
9.439924e-003
9.439923e-003
9.439922e-003
9.439922e-003
9.439921e-003
9.439921e-003
9.439921e-003
9.439920e-003
9.439920e-003
9.440040e-003
9.440023e-003
9.439984e-003
9.439916e-003
9.439804e-003
9.439626e-003
9.439353e-003
9.438942e-003
9.438332e-003
9.437447e-003
9.436184e-003
9.434414e-003
9.431975e-003
9.428672e-003
9.424277e-003
9.418532e-003
9.411163e-003
9.401903e-003
9.390524e-003
9.376893e-003
9.361042e-003
9.343264e-003
9.324217e-003
9.305042e-003
9.287480e-003
9.273949e-003
9.267580e-003
9.272152e-003
9.291932e-003
9.331375e-003
9.394699e-003
9.485355e-003
9.605447e-003
9.755164e-003
9.932326e-003
1.013212e-002
1.034711e-002
1.056754e-002
1.078199e-002
1.097820e-002
1.114417e-002
1.126928e-002
1.134523e-002
1.136694e-002
1.133302e-002
1.124592e-002
1.111164e-002
1.093921e-002
1.073971e-002
1.052528e-002
1.030799e-002
1.009883e-002
9.906893e-003
9.738841e-003
9.598687e-003
9.487869e-003
9.405579e-003
9.349263e-003
9.315202e-003
9.299091e-003
9.296536e-003
9.303449e-003
9.316298e-003
9.332239e-003
9.349138e-003
9.365517e-003
9.380456e-003
9.393473e-003
9.404408e-003
9.413314e-003
9.420375e-003
9.425838e-003
9.429971e-003
9.433031e-003
9.435251e-003
9.436827e-003
9.437923e-003
9.438669e-003
9.439164e-003
9.439485e-003
9.439686e-003
9.439808e-003
9.439878e-003
9.439916e-003
9.439934e-003
9.439940e-003
9.439941e-003
9.439938e-003
9.439934e-003
9.439931e-003
9.439928e-003
9.439926e-003
9.439924e-003
9.439923e-003
9.439922e-003
9.439922e-003
9.439921e-003
9.439921e-003
9.439920e-003
9.439920e-003
9.440005e-003
9.439974e-003
9.439905e-003
9.439784e-003
9.439589e-003
9.439287e-003
9.438829e-003
9.438149e-003
9.437155e-003
9.435731e-003
9.433722e-003
9.430938e-003
9.427143e-003
9.422063e-003
9.415384e-003
9.406778e-003
9.395926e-003
9.382576e-003
9.366621e-003
9.348212e-003
9.327909e-003
9.306866e-003
9.287039e-003
9.271406e-003
9.264144e-003
9.270744e-003
9.297983e-003
9.353719e-003
9.446446e-003
9.584611e-003
9.775698e-003
1.002516e-002
1.033531e-002
1.070431e-002
1.112547e-002
1.158697e-002
1.207206e-002
1.255992e-002
1.302700e-002
1.344878e-002
1.380171e-002
1.406525e-002
1.422363e-002
1.426725e-002
1.419351e-002
1.400706e-002
1.371938e-002
1.334777e-002
1.291380e-002
1.244147e-002
1.195518e-002
1.147783e-002
1.102914e-002
1.062443e-002
1.027400e-002
9.983033e-003
9.752005e-003
9.577528e-003
9.453403e-003
9.371738e-003
9.323991e-003
9.301828e-003
9.297737e-003
9.305394e-003
9.319802e-003
9.337266e-003
9.355240e-003
9.372127e-003
9.387053e-003
9.399658e-003
9.409924e-003
9.418035e-003
9.424273e-003
9.428958e-003
9.432397e-003
9.434868e-003
9.436606e-003
9.437802e-003
9.438607e-003
9.439136e-003
9.439475e-003
9.439684e-003
9.439809e-003
9.439880e-003
9.439917e-003
9.439934e-003
9.439940e-003
9.439940e-003
9.439937e-003
9.439934e-003
9.439930e-003
9.439928e-003
9.439926e-003
9.439924e-003
9.439923e-003
9.439922e-003
9.439921e-003
9.439921e-003
9.439920e-003
9.439920e-003
9.439920e-003
9.439866e-003
9.439748e-003
9.439543e-003
9.439218e-003
9.438720e-003
9.437975e-003
9.436882e-003
9.435306e-003
9.433070e-003
9.429951e-003
9.425676e-003
9.419917e-003
9.412306e-003
9.402454e-003
9.389993e-003
9.374655e-003
9.356388e-003
9.335526e-003
9.313023e-003
9.290754e-003
9.271871e-003
9.261182e-003
9.265516e-003
9.293985e-003
9.358064e-003
9.471372e-003
9.649079e-003
9.906866e-003
1.025946e-002
1.071882e-002
1.129215e-002
1.197998e-002
1.277463e-002
1.365934e-002
1.460823e-002
1.558726e-002
1.655612e-002
1.747092e-002
1.828731e-002
1.896379e-002
1.946485e-002
1.976364e-002
1.984400e-002
1.970160e-002
1.934434e-002
1.879167e-002
1.807321e-002
1.722651e-002
1.629424e-002
1.532093e-002
1.434976e-002
1.341941e-002
1.256170e-002
1.179986e-002
1.114789e-002
1.061084e-002
1.018590e-002
9.864132e-003
9.632419e-003
9.475469e-003
9.377557e-003
9.323879e-003
9.301463e-003
9.299635e-003
9.310123e-003
9.326896e-003
9.345843e-003
9.364383e-003
9.381076e-003
9.395275e-003
9.406848e-003
9.415960e-003
9.422927e-003
9.428119e-003
9.431897e-003
9.434586e-003
9.436458e-003
9.437732e-003
9.438580e-003
9.439130e-003
9.439478e-003
9.439690e-003
9.439815e-003
9.439884e-003
9.439919e-003
9.439935e-003
9.439940e-003
9.439940e-003
9.439937e-003
9.439933e-003
9.439930e-003
9.439927e-003
9.439925e-003
9.439924e-003
9.439922e-003
9.439922e-003
9.439921e-003
9.439921e-003
9.439921e-003
9.439752e-003
9.439663e-003
9.439467e-003
9.439133e-003
9.438607e-003
9.437809e-003
9.436629e-003
9.434916e-003
9.432473e-003
9.429045e-003
9.424316e-003
9.417909e-003
9.409396e-003
9.398326e-003
9.384285e-003
9.366998e-003
9.346495e-003
9.323361e-003
9.299084e-003
9.276516e-003
9.260440e-003
9.258209e-003
9.280387e-003
9.341288e-003
9.459253e-003
9.656507e-003
9.958403e-003
1.039195e-002
1.098358e-002
1.175622e-002
1.272603e-002
1.389902e-002
1.526820e-002
1.681175e-002
1.849247e-002
2.025893e-002
2.204814e-002
2.378946e-002
2.540941e-002
2.683660e-002
2.800650e-002
2.886543e-002
2.937375e-002
2.950795e-002
2.926189e-002
2.864707e-002
2.769207e-002
2.644098e-002
2.495107e-002
2.328931e-002
2.152818e-002
1.974085e-002
1.799620e-002
1.635425e-002
1.486251e-002
1.355368e-002
1.244502e-002
1.153922e-002
1.082667e-002
1.028852e-002
9.900122e-003
9.634309e-003
9.464167e-003
9.365075e-003
9.315960e-003
9.299833e-003
9.303764e-003
9.318467e-003
9.337689e-003
9.357527e-003
9.375792e-003
9.391456e-003
9.404232e-003
9.414256e-003
9.421873e-003
9.427503e-003
9.431562e-003
9.434422e-003
9.436391e-003
9.437717e-003
9.438588e-003
9.439147e-003
9.439494e-003
9.439703e-003
9.439824e-003
9.439889e-003
9.439922e-003
9.439936e-003
9.439940e-003
9.439939e-003
9.439936e-003
9.439933e-003
9.439929e-003
9.439927e-003
9.439925e-003
9.439923e-003
9.439922e-003
9.439921e-003
9.439921e-003
9.439921e-003
9.439453e-003
9.439309e-003
9.438996e-003
9.438465e-003
9.437635e-003
9.436389e-003
9.434564e-003
9.431943e-003
9.428241e-003
9.423103e-003
9.416101e-003
9.406747e-003
9.394526e-003
9.378978e-003
9.359827e-003
9.337214e-003
9.312033e-003
9.286440e-003
9.264522e-003
9.253156e-003
9.263014e-003
9.309615e-003
9.414290e-003
9.604807e-003
9.915398e-003
1.038588e-002
1.105962e-002
1.198027e-002
1.318727e-002
1.471061e-002
1.656536e-002
1.874681e-002
2.122719e-002
2.395457e-002
2.685441e-002
2.983373e-002
3.278723e-002
3.560467e-002
3.817827e-002
4.040926e-002
4.221304e-002
4.352255e-002
4.429023e-002
4.448877e-002
4.411137e-002
4.317164e-002
4.170350e-002
3.976073e-002
3.741584e-002
3.475788e-002
3.188859e-002
2.891696e-002
2.595246e-002
2.309755e-002
2.044052e-002
1.804977e-002
1.597024e-002
1.422252e-002
1.280467e-002
1.169606e-002
1.086259e-002
1.026232e-002
9.850644e-003
9.584519e-003
9.425448e-003
9.341119e-003
9.305957e-003
9.300817e-003
9.312166e-003
9.331010e-003
9.351795e-003
9.371408e-003
9.388369e-003
9.402205e-003
9.413013e-003
9.421169e-003
9.427146e-003
9.431413e-003
9.434387e-003
9.436411e-003
9.437758e-003
9.438631e-003
9.439184e-003
9.439522e-003
9.439722e-003
9.439836e-003
9.439896e-003
9.439926e-003
9.439938e-003
9.439941e-003
9.439939e-003
9.439936e-003
9.439932e-003
9.439928e-003
9.439926e-003
9.439924e-003
9.439923e-003
9.439922e-003
9.439921e-003
9.439921e-003
9.438953e-003
9.438726e-003
9.438237e-003
9.437413e-003
9.436136e-003
9.434235e-003
9.431476e-003
9.427550e-003
9.422065e-003
9.414543e-003
9.404436e-003
9.391167e-003
9.374225e-003
9.353340e-003
9.328770e-003
9.301771e-003
9.275270e-003
9.254819e-003
9.249825e-003
9.275040e-003
9.352189e-003
9.511536e-003
9.793045e-003
1.024671e-002
1.093159e-002
1.191305e-002
1.325804e-002
1.502844e-002
1.727285e-002
2.001805e-002
2.326121e-002
2.696466e-002
3.105415e-002
3.542179e-002
3.993310e-002
4.443747e-002
4.878018e-002
5.281391e-002
5.640803e-002
5.945448e-002
6.187002e-002
6.359540e-002
6.459268e-002
6.484205e-002
6.433947e-002
6.309576e-002
6.113766e-002
5.851021e-002
5.527981e-002
5.153653e-002
4.739441e-002
4.298853e-002
3.846850e-002
3.398857e-002
2.969588e-002
2.571853e-002
2.215565e-002
1.907114e-002
1.649195e-002
1.441078e-002
1.279237e-002
1.158187e-002
1.071367e-002
1.011949e-002
9.734611e-003
9.502148e-003
9.375142e-003
9.317023e-003
9.300861e-003
9.307912e-003
9.325901e-003
9.347343e-003
9.368086e-003
9.386148e-003
9.400865e-003
9.412299e-003
9.420858e-003
9.427071e-003
9.431460e-003
9.434483e-003
9.436517e-003
9.437852e-003
9.438706e-003
9.439238e-003
9.439560e-003
9.439747e-003
9.439851e-003
9.439905e-003
9.439930e-003
9.439939e-003
9.439941e-003
9.439938e-003
9.439934e-003
9.439931e-003
9.439927e-003
9.439925e-003
9.439923e-003
9.439922e-003
9.439922e-003
9.439922e-003
9.438152e-003
9.437805e-003
9.437059e-003
9.435809e-003
9.433886e-003
9.431046e-003
9.426962e-003
9.421209e-003
9.413265e-003
9.402522e-003
9.388341e-003
9.370158e-003
9.347699e-003
9.321344e-003
9.292721e-003
9.265594e-003
9.247144e-003
9.249653e-003
9.292616e-003
9.405110e-003
9.628173e-003
1.001671e-002
1.064027e-002
1.158204e-002
1.293512e-002
1.479581e-002
1.725375e-002
2.037958e-002
2.421174e-002
2.874453e-002
3.392013e-002
3.962669e-002
4.570400e-002
5.195644e-002
5.817120e-002
6.413875e-002
6.967147e-002
7.461719e-002
7.886558e-002
8.234713e-002
8.502629e-002
8.689135e-002
8.794362e-002
8.818849e-002
8.762967e-002
8.626747e-002
8.410121e-002
8.113557e-002
7.738980e-002
7.290822e-002
6.776989e-002
6.209447e-002
5.604204e-002
4.980549e-002
4.359593e-002
3.762323e-002
3.207550e-002
2.710130e-002
2.279793e-002
1.920749e-002
1.632050e-002
1.408560e-002
1.242258e-002
1.123607e-002
1.042772e-002
9.905458e-003
9.589411e-003
9.414598e-003
9.331183e-003
9.303033e-003
9.305401e-003
9.322336e-003
9.344261e-003
9.365938e-003
9.384890e-003
9.400281e-003
9.412153e-003
9.420959e-003
9.427283e-003
9.431699e-003
9.434705e-003
9.436700e-003
9.437992e-003
9.438808e-003
9.439308e-003
9.439605e-003