# vtk DataFile Version 3.0
vtk output
ASCII
DATASET STRUCTURED_POINTS
DIMENSIONS 100 100 1
SPACING 1 1 1
ORIGIN 0 0 0
POINT_DATA 10000
SCALARS SFBox_profile double
LOOKUP_TABLE default 
9.439918e-003
9.439919e-003
9.439920e-003
9.439920e-003
9.439921e-003
9.439920e-003
9.439920e-003
9.439920e-003
9.439920e-003
9.439920e-003
9.439920e-003
9.439920e-003
9.439920e-003
9.439920e-003
9.439920e-003
9.439920e-003
9.439920e-003
9.439920e-003
9.439920e-003
9.439920e-003
9.439920e-003
9.439920e-003
9.439920e-003
9.439920e-003
9.439920e-003
9.439920e-003
9.439920e-003
9.439920e-003
9.439921e-003
9.439921e-003
9.439921e-003
9.439921e-003
9.439921e-003
9.439921e-003
9.439921e-003
9.439922e-003
9.439922e-003
9.439922e-003
9.439922e-003
9.439922e-003
9.439922e-003
9.439923e-003
9.439923e-003
9.439923e-003
9.439923e-003
9.439923e-003
9.439923e-003
9.439923e-003
9.439923e-003
9.439923e-003
9.439923e-003
9.439922e-003
9.439922e-003
9.439922e-003
9.439922e-003
9.439922e-003
9.439922e-003
9.439921e-003
9.439921e-003
9.439921e-003
9.439921e-003
9.439921e-003
9.439921e-003
9.439921e-003
9.439920e-003
9.439920e-003
9.439920e-003
9.439920e-003
9.439920e-003
9.439920e-003
9.439920e-003
9.439920e-003
9.439920e-003
9.439920e-003
9.439920e-003
9.439920e-003
9.439920e-003
9.439920e-003
9.439920e-003
9.439920e-003
9.439920e-003
9.439920e-003
9.439920e-003
9.439920e-003
9.439920e-003
9.439920e-003
9.439920e-003
9.439920e-003
9.439920e-003
9.439920e-003
9.439920e-003
9.439920e-003
9.439920e-003
9.439920e-003
9.439920e-003
9.439920e-003
9.439920e-003
9.439920e-003
9.439920e-003
9.439920e-003
9.439918e-003
9.439919e-003
9.439920e-003
9.439920e-003
9.439921e-003
9.439920e-003
9.439920e-003
9.439920e-003
9.439920e-003
9.439920e-003
9.439920e-003
9.439920e-003
9.439920e-003
9.439920e-003
9.439920e-003
9.439920e-003
9.439920e-003
9.439920e-003
9.439920e-003
9.439920e-003
9.439920e-003
9.439920e-003
9.439920e-003
9.439920e-003
9.439920e-003
9.439920e-003
9.439920e-003
9.439920e-003
9.439921e-003
9.439921e-003
9.439921e-003
9.439921e-003
9.439921e-003
9.439921e-003
9.439921e-003
9.439922e-003
9.439922e-003
9.439922e-003
9.439922e-003
9.439922e-003
9.439922e-003
9.439923e-003
9.439923e-003
9.439923e-003
9.439923e-003
9.439923e-003
9.439923e-003
9.439923e-003
9.439923e-003
9.439923e-003
9.439923e-003
9.439922e-003
9.439922e-003
9.439922e-003
9.439922e-003
9.439922e-003
9.439922e-003
9.439921e-003
9.439921e-003
9.439921e-003
9.439921e-003
9.439921e-003
9.439921e-003
9.439921e-003
9.439920e-003
9.439920e-003
9.439920e-003
9.439920e-003
9.439920e-003
9.439920e-003
9.439920e-003
9.439920e-003
9.439920e-003
9.439920e-003
9.439920e-003
9.439920e-003
9.439920e-003
9.439920e-003
9.439920e-003
9.439920e-003
9.439920e-003
9.439920e-003
9.439920e-003
9.439920e-003
9.439920e-003
9.439920e-003
9.439920e-003
9.439920e-003
9.439920e-003
9.439920e-003
9.439920e-003
9.439920e-003
9.439920e-003
9.439920e-003
9.439920e-003
9.439920e-003
9.439920e-003
9.439920e-003
9.439920e-003
9.439920e-003
9.439920e-003
9.439920e-003
9.439920e-003
9.439920e-003
9.439920e-003
9.439920e-003
9.439920e-003
9.439920e-003
9.439920e-003
9.439920e-003
9.439920e-003
9.439920e-003
9.439920e-003
9.439920e-003
9.439920e-003
9.439920e-003
9.439920e-003
9.439920e-003
9.439920e-003
9.439920e-003
9.439920e-003
9.439920e-003
9.439920e-003
9.439920e-003
9.439920e-003
9.439920e-003
9.439920e-003
9.439921e-003
9.439921e-003
9.439921e-003
9.439921e-003
9.439921e-003
9.439922e-003
9.439922e-003
9.439922e-003
9.439922e-003
9.439923e-003
9.439923e-003
9.439923e-003
9.439924e-003
9.439924e-003
9.439924e-003
9.439924e-003
9.439924e-003
9.439924e-003
9.439924e-003
9.439924e-003
9.439924e-003
9.439924e-003
9.439924e-003
9.439924e-003
9.439924e-003
9.439924e-003
9.439924e-003
9.439923e-003
9.439923e-003
9.439923e-003
9.439922e-003
9.439922e-003
9.439922e-003
9.439922e-003
9.439921e-003
9.439921e-003
9.439921e-003
9.439921e-003
9.439920e-003
9.439920e-003
9.439920e-003
9.439920e-003
9.439920e-003
9.439920e-003
9.439920e-003
9.439920e-003
9.439920e-003
9.439920e-003
9.439920e-003
9.439920e-003
9.439920e-003
9.439920e-003
9.439920e-003
9.439920e-003
9.439920e-003
9.439920e-003
9.439920e-003
9.439920e-003
9.439920e-003
9.439920e-003
9.439920e-003
9.439920e-003
9.439920e-003
9.439920e-003
9.439920e-003
9.439920e-003
9.439920e-003
9.439920e-003
9.439920e-003
9.439920e-003
9.439920e-003
9.439920e-003
9.439920e-003
9.439921e-003
9.439921e-003
9.439920e-003
9.439920e-003
9.439920e-003
9.439920e-003
9.439920e-003
9.439920e-003
9.439920e-003
9.439920e-003
9.439920e-003
9.439920e-003
9.439920e-003
9.439920e-003
9.439920e-003
9.439920e-003
9.439920e-003
9.439920e-003
9.439920e-003
9.439920e-003
9.439920e-003
9.439920e-003
9.439920e-003
9.439920e-003
9.439921e-003
9.439921e-003
9.439921e-003
9.439921e-003
9.439922e-003
9.439922e-003
9.439922e-003
9.439923e-003
9.439923e-003
9.439924e-003
9.439924e-003
9.439925e-003
9.439925e-003
9.439926e-003
9.439926e-003
9.439927e-003
9.439927e-003
9.439927e-003
9.439928e-003
9.439928e-003
9.439928e-003
9.439928e-003
9.439928e-003
9.439928e-003
9.439928e-003
9.439928e-003
9.439927e-003
9.439927e-003
9.439927e-003
9.439926e-003
9.439926e-003
9.439926e-003
9.439925e-003
9.439924e-003
9.439924e-003
9.439923e-003
9.439923e-003
9.439922e-003
9.439922e-003
9.439922e-003
9.439921e-003
9.439921e-003
9.439921e-003
9.439921e-003
9.439920e-003
9.439920e-003
9.439920e-003
9.439920e-003
9.439920e-003
9.439920e-003
9.439920e-003
9.439920e-003
9.439920e-003
9.439920e-003
9.439920e-003
9.439920e-003
9.439920e-003
9.439920e-003
9.439920e-003
9.439920e-003
9.439920e-003
9.439920e-003
9.439920e-003
9.439920e-003
9.439920e-003
9.439920e-003
9.439920e-003
9.439920e-003
9.439920e-003
9.439920e-003
9.439920e-003
9.439920e-003
9.439920e-003
9.439920e-003
9.439920e-003
9.439920e-003
9.439922e-003
9.439921e-003
9.439920e-003
9.439920e-003
9.439919e-003
9.439920e-003
9.439920e-003
9.439920e-003
9.439920e-003
9.439920e-003
9.439920e-003
9.439920e-003
9.439920e-003
9.439920e-003
9.439920e-003
9.439920e-003
9.439920e-003
9.439920e-003
9.439920e-003
9.439920e-003
9.439920e-003
9.439921e-003
9.439921e-003
9.439921e-003
9.439921e-003
9.439922e-003
9.439922e-003
9.439923e-003
9.439923e-003
9.439924e-003
9.439925e-003
9.439926e-003
9.439926e-003
9.439927e-003
9.439928e-003
9.439929e-003
9.439930e-003
9.439930e-003
9.439931e-003
9.439932e-003
9.439932e-003
9.439933e-003
9.439933e-003
9.439934e-003
9.439934e-003
9.439934e-003
9.439934e-003
9.439934e-003
9.439934e-003
9.439933e-003
9.439933e-003
9.439933e-003
9.439932e-003
9.439931e-003
9.439931e-003
9.439930e-003
9.439929e-003
9.439928e-003
9.439927e-003
9.439927e-003
9.439926e-003
9.439925e-003
9.439924e-003
9.439923e-003
9.439923e-003
9.439922e-003
9.439922e-003
9.439921e-003
9.439921e-003
9.439921e-003
9.439921e-003
9.439920e-003
9.439920e-003
9.439920e-003
9.439920e-003
9.439920e-003
9.439920e-003
9.439920e-003
9.439920e-003
9.439920e-003
9.439920e-003
9.439920e-003
9.439920e-003
9.439920e-003
9.439920e-003
9.439920e-003
9.439920e-003
9.439920e-003
9.439920e-003
9.439920e-003
9.439920e-003
9.439920e-003
9.439920e-003
9.439920e-003
9.439920e-003
9.439920e-003
9.439920e-003
9.439920e-003
9.439920e-003
9.439920e-003
9.439921e-003
9.439921e-003
9.439920e-003
9.439920e-003
9.439920e-003
9.439920e-003
9.439920e-003
9.439920e-003
9.439920e-003
9.439920e-003
9.439920e-003
9.439920e-003
9.439920e-003
9.439920e-003
9.439920e-003
9.439920e-003
9.439920e-003
9.439920e-003
9.439920e-003
9.439921e-003
9.439921e-003
9.439921e-003
9.439921e-003
9.439922e-003
9.439923e-003
9.439924e-003
9.439924e-003
9.439925e-003
9.439926e-003
9.439928e-003
9.439929e-003
9.439930e-003
9.439931e-003
9.439933e-003
9.439934e-003
9.439935e-003
9.439936e-003
9.439937e-003
9.439938e-003
9.439939e-003
9.439940e-003
9.439940e-003
9.439941e-003
9.439941e-003
9.439941e-003
9.439941e-003
9.439941e-003
9.439941e-003
9.439941e-003
9.439940e-003
9.439940e-003
9.439940e-003
9.439939e-003
9.439938e-003
9.439937e-003
9.439936e-003
9.439935e-003
9.439934e-003
9.439933e-003
9.439931e-003
9.439930e-003
9.439929e-003
9.439928e-003
9.439926e-003
9.439925e-003
9.439924e-003
9.439923e-003
9.439923e-003
9.439922e-003
9.439921e-003
9.439921e-003
9.439921e-003
9.439921e-003
9.439920e-003
9.439920e-003
9.439920e-003
9.439920e-003
9.439920e-003
9.439920e-003
9.439920e-003
9.439920e-003
9.439920e-003
9.439920e-003
9.439920e-003
9.439920e-003
9.439920e-003
9.439920e-003
9.439920e-003
9.439920e-003
9.439920e-003
9.439920e-003
9.439920e-003
9.439920e-003
9.439920e-003
9.439920e-003
9.439920e-003
9.439920e-003
9.439920e-003
9.439920e-003
9.439920e-003
9.439920e-003
9.439920e-003
9.439920e-003
9.439920e-003
9.439920e-003
9.439920e-003
9.439920e-003
9.439920e-003
9.439920e-003
9.439920e-003
9.439920e-003
9.439920e-003
9.439920e-003
9.439920e-003
9.439920e-003
9.439920e-003
9.439920e-003
9.439921e-003
9.439921e-003
9.439921e-003
9.439922e-003
9.439922e-003
9.439923e-003
9.439924e-003
9.439925e-003
9.439927e-003
9.439928e-003
9.439930e-003
9.439931e-003
9.439933e-003
9.439935e-003
9.439937e-003
9.439939e-003
9.439940e-003
9.439941e-003
9.439943e-003
9.439944e-003
9.439944e-003
9.439945e-003
9.439945e-003
9.439946e-003
9.439946e-003
9.439946e-003
9.439945e-003
9.439945e-003
9.439945e-003
9.439945e-003
9.439945e-003
9.439945e-003
9.439944e-003
9.439944e-003
9.439944e-003
9.439944e-003
9.439944e-003
9.439943e-003
9.439942e-003
9.439942e-003
9.439941e-003
9.439939e-003
9.439938e-003
9.439936e-003
9.439935e-003
9.439933e-003
9.439931e-003
9.439930e-003
9.439928e-003
9.439926e-003
9.439925e-003
9.439924e-003
9.439923e-003
9.439922e-003
9.439922e-003
9.439921e-003
9.439921e-003
9.439920e-003
9.439920e-003
9.439920e-003
9.439920e-003
9.439920e-003
9.439920e-003
9.439920e-003
9.439920e-003
9.439920e-003
9.439920e-003
9.439920e-003
9.439920e-003
9.439920e-003
9.439920e-003
9.439920e-003
9.439920e-003
9.439920e-003
9.439920e-003
9.439920e-003
9.439920e-003
9.439920e-003
9.439920e-003
9.439920e-003
9.439920e-003
9.439920e-003
9.439920e-003
9.439919e-003
9.439919e-003
9.439920e-003
9.439920e-003
9.439920e-003
9.439920e-003
9.439920e-003
9.439920e-003
9.439920e-003
9.439920e-003
9.439920e-003
9.439920e-003
9.439920e-003
9.439920e-003
9.439920e-003
9.439921e-003
9.439921e-003
9.439921e-003
9.439922e-003
9.439922e-003
9.439923e-003
9.439925e-003
9.439926e-003
9.439928e-003
9.439930e-003
9.439932e-003
9.439934e-003
9.439936e-003
9.439939e-003
9.439941e-003
9.439943e-003
9.439944e-003
9.439945e-003
9.439946e-003
9.439946e-003
9.439946e-003
9.439945e-003
9.439943e-003
9.439941e-003
9.439939e-003
9.439937e-003
9.439935e-003
9.439933e-003
9.439931e-003
9.439929e-003
9.439928e-003
9.439927e-003
9.439927e-003
9.439927e-003
9.439928e-003
9.439930e-003
9.439932e-003
9.439933e-003
9.439936e-003
9.439938e-003
9.439939e-003
9.439941e-003
9.439942e-003
9.439943e-003
9.439942e-003
9.439942e-003
9.439941e-003
9.439939e-003
9.439937e-003
9.439935e-003
9.439933e-003
9.439931e-003
9.439929e-003
9.439927e-003
9.439926e-003
9.439924e-003
9.439923e-003
9.439922e-003
9.439921e-003
9.439921e-003
9.439921e-003
9.439920e-003
9.439920e-003
9.439920e-003
9.439920e-003
9.439920e-003
9.439920e-003
9.439920e-003
9.439920e-003
9.439920e-003
9.439920e-003
9.439920e-003
9.439920e-003
9.439920e-003
9.439920e-003
9.439920e-003
9.439920e-003
9.439920e-003
9.439920e-003
9.439920e-003
9.439920e-003
9.439920e-003
9.439920e-003
9.439920e-003
9.439920e-003
9.439918e-003
9.439919e-003
9.439920e-003
9.439921e-003
9.439921e-003
9.439920e-003
9.439920e-003
9.439920e-003
9.439920e-003
9.439920e-003
9.439920e-003
9.439920e-003
9.439920e-003
9.439920e-003
9.439921e-003
9.439921e-003
9.439922e-003
9.439922e-003
9.439923e-003
9.439925e-003
9.439926e-003
9.439928e-003
9.439931e-003
9.439933e-003
9.439936e-003
9.439939e-003
9.439942e-003
9.439944e-003
9.439946e-003
9.439947e-003
9.439947e-003
9.439945e-003
9.439942e-003
9.439938e-003
9.439932e-003
9.439924e-003
9.439916e-003
9.439906e-003
9.439896e-003
9.439885e-003
9.439875e-003
9.439865e-003
9.439856e-003
9.439849e-003
9.439843e-003
9.439839e-003
9.439837e-003
9.439837e-003
9.439839e-003
9.439844e-003
9.439850e-003
9.439858e-003
9.439868e-003
9.439878e-003
9.439889e-003
9.439899e-003
9.439909e-003
9.439919e-003
9.439926e-003
9.439933e-003
9.439937e-003
9.439940e-003
9.439942e-003
9.439942e-003
9.439941e-003
9.439939e-003
9.439937e-003
9.439935e-003
9.439932e-003
9.439930e-003
9.439928e-003
9.439926e-003
9.439924e-003
9.439923e-003
9.439922e-003
9.439921e-003
9.439921e-003
9.439920e-003
9.439920e-003
9.439920e-003
9.439920e-003
9.439920e-003
9.439920e-003
9.439920e-003
9.439920e-003
9.439920e-003
9.439920e-003
9.439920e-003
9.439920e-003
9.439920e-003
9.439920e-003
9.439920e-003
9.439920e-003
9.439920e-003
9.439920e-003
9.439920e-003
9.439920e-003
9.439920e-003
9.439920e-003
9.439920e-003
9.439919e-003
9.439920e-003
9.439920e-003
9.439921e-003
9.439920e-003
9.439920e-003
9.439919e-003
9.439919e-003
9.439920e-003
9.439920e-003
9.439921e-003
9.439921e-003
9.439920e-003
9.439921e-003
9.439921e-003
9.439922e-003
9.439923e-003
9.439924e-003
9.439926e-003
9.439928e-003
9.439931e-003
9.439934e-003
9.439938e-003
9.439941e-003
9.439944e-003
9.439946e-003
9.439948e-003
9.439947e-003
9.439944e-003
9.439938e-003
9.439929e-003
9.439916e-003
9.439899e-003
9.439877e-003
9.439852e-003
9.439824e-003
9.439793e-003
9.439760e-003
9.439726e-003
9.439692e-003
9.439659e-003
9.439628e-003
9.439601e-003
9.439578e-003
9.439560e-003
9.439549e-003
9.439543e-003
9.439544e-003
9.439552e-003
9.439567e-003
9.439587e-003
9.439613e-003
9.439643e-003
9.439677e-003
9.439712e-003
9.439748e-003
9.439783e-003
9.439816e-003
9.439846e-003
9.439873e-003
9.439895e-003
9.439912e-003
9.439925e-003
9.439934e-003
9.439939e-003
9.439942e-003
9.439942e-003
9.439941e-003
9.439938e-003
9.439935e-003
9.439933e-003
9.439930e-003
9.439927e-003
9.439925e-003
9.439924e-003
9.439922e-003
9.439922e-003
9.439921e-003
9.439921e-003
9.439920e-003
9.439920e-003
9.439920e-003
9.439920e-003
9.439920e-003
9.439920e-003
9.439920e-003
9.439920e-003
9.439920e-003
9.439920e-003
9.439920e-003
9.439920e-003
9.439920e-003
9.439920e-003
9.439920e-003
9.439920e-003
9.439920e-003
9.439920e-003
9.439920e-003
9.439920e-003
9.439920e-003
9.439920e-003
9.439920e-003
9.439920e-003
9.439920e-003
9.439920e-003
9.439920e-003
9.439920e-003
9.439920e-003
9.439920e-003
9.439921e-003
9.439921e-003
9.439921e-003
9.439921e-003
9.439921e-003
9.439922e-003
9.439924e-003
9.439926e-003
9.439928e-003
9.439931e-003
9.439934e-003
9.439938e-003
9.439942e-003
9.439946e-003
9.439948e-003
9.439949e-003
9.439946e-003
9.439940e-003
9.439927e-003
9.439907e-003
9.439879e-003
9.439842e-003
9.439795e-003
9.439737e-003
9.439670e-003
9.439593e-003
9.439509e-003
9.439418e-003
9.439325e-003
9.439230e-003
9.439136e-003
9.439047e-003
9.438965e-003
9.438893e-003
9.438833e-003
9.438787e-003
9.438757e-003
9.438743e-003
9.438748e-003
9.438770e-003
9.438809e-003
9.438865e-003
9.438935e-003
9.439017e-003
9.439108e-003
9.439205e-003
9.439306e-003
9.439405e-003
9.439501e-003
9.439590e-003
9.439671e-003
9.439741e-003
9.439799e-003
9.439846e-003
9.439882e-003
9.439908e-003
9.439926e-003
9.439936e-003
9.439941e-003
9.439942e-003
9.439941e-003
9.439938e-003
9.439935e-003
9.439932e-003
9.439929e-003
9.439927e-003
9.439925e-003
9.439923e-003
9.439922e-003
9.439921e-003
9.439921e-003
9.439921e-003
9.439920e-003
9.439920e-003
9.439920e-003
9.439920e-003
9.439920e-003
9.439920e-003
9.439920e-003
9.439920e-003
9.439920e-003
9.439920e-003
9.439920e-003
9.439920e-003
9.439920e-003
9.439920e-003
9.439920e-003
9.439920e-003
9.439920e-003
9.439920e-003
9.439920e-003
9.439921e-003
9.439921e-003
9.439920e-003
9.439920e-003
9.439920e-003
9.439920e-003
9.439920e-003
9.439920e-003
9.439920e-003
9.439920e-003
9.439921e-003
9.439921e-003
9.439922e-003
9.439923e-003
9.439925e-003
9.439927e-003
9.439930e-003
9.439934e-003
9.439938e-003
9.439942e-003
9.439946e-003
9.439949e-003
9.439950e-003
9.439946e-003
9.439936e-003
9.439916e-003
9.439883e-003
9.439835e-003
9.439768e-003
9.439680e-003
9.439568e-003
9.439432e-003
9.439272e-003
9.439089e-003
9.438886e-003
9.438666e-003
9.438434e-003
9.438197e-003
9.437959e-003
9.437727e-003
9.437507e-003
9.437307e-003
9.437131e-003
9.436986e-003
9.436875e-003
9.436803e-003
9.436772e-003
9.436784e-003
9.436839e-003
9.436936e-003
9.437072e-003
9.437244e-003
9.437446e-003
9.437673e-003
9.437916e-003
9.438168e-003
9.438421e-003
9.438668e-003
9.438901e-003
9.439114e-003
9.439304e-003
9.439467e-003
9.439602e-003
9.439709e-003
9.439792e-003
9.439852e-003
9.439893e-003
9.439919e-003
9.439934e-003
9.439941e-003
9.439943e-003
9.439941e-003
9.439938e-003
9.439934e-003
9.439931e-003
9.439928e-003
9.439926e-003
9.439924e-003
9.439922e-003
9.439921e-003
9.439921e-003
9.439920e-003
9.439920e-003
9.439920e-003
9.439920e-003
9.439920e-003
9.439920e-003
9.439920e-003
9.439920e-003
9.439920e-003
9.439920e-003
9.439920e-003
9.439920e-003
9.439920e-003
9.439920e-003
9.439920e-003
9.439920e-003
9.439920e-003
9.439920e-003
9.439920e-003
9.439922e-003
9.439921e-003
9.439920e-003
9.439919e-003
9.439920e-003
9.439920e-003
9.439921e-003
9.439921e-003
9.439920e-003
9.439920e-003
9.439921e-003
9.439922e-003
9.439924e-003
9.439926e-003
9.439929e-003
9.439932e-003
9.439936e-003
9.439941e-003
9.439946e-003
9.439950e-003
9.439951e-003
9.439948e-003
9.439935e-003
9.439910e-003
9.439865e-003
9.439796e-003
9.439694e-003
9.439554e-003
9.439368e-003
9.439131e-003
9.438839e-003
9.438493e-003
9.438093e-003
9.437643e-003
9.437150e-003
9.436623e-003
9.436074e-003
9.435516e-003
9.434962e-003
9.434427e-003
9.433924e-003
9.433467e-003
9.433069e-003
9.432741e-003
9.432493e-003
9.432332e-003
9.432264e-003
9.432293e-003
9.432419e-003
9.432640e-003
9.432951e-003
9.433343e-003
9.433807e-003
9.434328e-003
9.434891e-003
9.435480e-003
9.436075e-003
9.436660e-003
9.437219e-003
9.437737e-003
9.438203e-003
9.438610e-003
9.438954e-003
9.439236e-003
9.439458e-003
9.439626e-003
9.439748e-003
9.439832e-003
9.439886e-003
9.439918e-003
9.439935e-003
9.439942e-003
9.439943e-003
9.439940e-003
9.439937e-003
9.439933e-003
9.439929e-003
9.439926e-003
9.439924e-003
9.439923e-003
9.439922e-003
9.439921e-003
9.439920e-003
9.439920e-003
9.439920e-003
9.439920e-003
9.439920e-003
9.439920e-003
9.439920e-003
9.439920e-003
9.439920e-003
9.439920e-003
9.439920e-003
9.439920e-003
9.439920e-003
9.439920e-003
9.439920e-003
9.439920e-003
9.439920e-003
9.439920e-003
9.439921e-003
9.439921e-003
9.439920e-003
9.439919e-003
9.439920e-003
9.439921e-003
9.439921e-003
9.439921e-003
9.439921e-003
9.439921e-003
9.439922e-003
9.439924e-003
9.439927e-003
9.439930e-003
9.439934e-003
9.439939e-003
9.439944e-003
9.439950e-003
9.439953e-003
9.439951e-003
9.439940e-003
9.439914e-003
9.439863e-003
9.439778e-003
9.439646e-003
9.439453e-003
9.439184e-003
9.438824e-003
9.438360e-003
9.437782e-003
9.437086e-003
9.436271e-003
9.435342e-003
9.434312e-003
9.433197e-003
9.432019e-003
9.430803e-003
9.429579e-003
9.428374e-003
9.427218e-003
9.426140e-003
9.425167e-003
9.424324e-003
9.423633e-003
9.423112e-003
9.422777e-003
9.422638e-003
9.422703e-003
9.422972e-003
9.423441e-003
9.424102e-003
9.424938e-003
9.425930e-003
9.427050e-003
9.428268e-003
9.429550e-003
9.430857e-003
9.432154e-003
9.433405e-003
9.434577e-003
9.435646e-003
9.436591e-003
9.437402e-003
9.438077e-003
9.438619e-003
9.439040e-003
9.439354e-003
9.439579e-003
9.439733e-003
9.439832e-003
9.439891e-003
9.439924e-003
9.439939e-003
9.439943e-003
9.439942e-003
9.439938e-003
9.439934e-003
9.439930e-003
9.439927e-003
9.439925e-003
9.439923e-003
9.439922e-003
9.439921e-003
9.439921e-003
9.439920e-003
9.439920e-003
9.439920e-003
9.439920e-003
9.439920e-003
9.439920e-003
9.439920e-003
9.439920e-003
9.439920e-003
9.439920e-003
9.439920e-003
9.439920e-003
9.439920e-003
9.439920e-003
9.439920e-003
9.439920e-003
9.439921e-003
9.439920e-003
9.439920e-003
9.439920e-003
9.439920e-003
9.439920e-003
9.439921e-003
9.439921e-003
9.439921e-003
9.439922e-003
9.439925e-003
9.439928e-003
9.439931e-003
9.439936e-003
9.439941e-003
9.439947e-003
9.439952e-003
9.439954e-003
9.439948e-003
9.439926e-003
9.439879e-003
9.439791e-003
9.439645e-003
9.439416e-003
9.439078e-003
9.438599e-003
9.437950e-003
9.437102e-003
9.436031e-003
9.434721e-003
9.433165e-003
9.431369e-003
9.429351e-003
9.427141e-003
9.424779e-003
9.422315e-003
9.419801e-003
9.417296e-003
9.414858e-003
9.412541e-003
9.410401e-003
9.408485e-003
9.406837e-003
9.405496e-003
9.404493e-003
9.403853e-003
9.403594e-003
9.403728e-003
9.404258e-003
9.405177e-003
9.406471e-003
9.408116e-003
9.410075e-003
9.412304e-003
9.414748e-003
9.417342e-003
9.420016e-003
9.422699e-003
9.425316e-003
9.427800e-003
9.430093e-003
9.432150e-003
9.433940e-003
9.435450e-003
9.436685e-003
9.437659e-003
9.438402e-003
9.438947e-003
9.439331e-003
9.439589e-003
9.439754e-003
9.439852e-003
9.439906e-003
9.439933e-003
9.439942e-003
9.439943e-003
9.439940e-003
9.439935e-003
9.439931e-003
9.439928e-003
9.439925e-003
9.439923e-003
9.439922e-003
9.439921e-003
9.439921e-003
9.439920e-003
9.439920e-003
9.439920e-003
9.439920e-003
9.439920e-003
9.439920e-003
9.439920e-003
9.439920e-003
9.439920e-003
9.439920e-003
9.439920e-003
9.439920e-003
9.439920e-003
9.439920e-003
9.439920e-003
9.439919e-003
9.439920e-003
9.439920e-003
9.439921e-003
9.439920e-003
9.439920e-003
9.439921e-003
9.439921e-003
9.439923e-003
9.439925e-003
9.439928e-003
9.439932e-003
9.439937e-003
9.439943e-003
9.439950e-003
9.439955e-003
9.439954e-003
9.439942e-003
9.439906e-003
9.439831e-003
9.439693e-003
9.439460e-003
9.439092e-003
9.438540e-003
9.437746e-003
9.436651e-003
9.435195e-003
9.433327e-003
9.431006e-003
9.428213e-003
9.424948e-003
9.421241e-003
9.417144e-003
9.412731e-003
9.408093e-003
9.403335e-003
9.398563e-003
9.393887e-003
9.389409e-003
9.385223e-003
9.381413e-003
9.378052e-003
9.375200e-003
9.372909e-003
9.371217e-003
9.370156e-003
9.369748e-003
9.370007e-003
9.370937e-003
9.372535e-003
9.374784e-003
9.377656e-003
9.381108e-003
9.385079e-003
9.389491e-003
9.394245e-003
9.399228e-003
9.404310e-003
9.409357e-003
9.414234e-003
9.418816e-003
9.422996e-003
9.426697e-003
9.429873e-003
9.432511e-003
9.434630e-003
9.436273e-003
9.437501e-003
9.438385e-003
9.438996e-003
9.439399e-003
9.439653e-003
9.439802e-003
9.439884e-003
9.439925e-003
9.439940e-003
9.439943e-003
9.439941e-003
9.439936e-003
9.439932e-003
9.439928e-003
9.439925e-003
9.439923e-003
9.439922e-003
9.439921e-003
9.439920e-003
9.439920e-003
9.439920e-003
9.439920e-003
9.439920e-003
9.439920e-003
9.439920e-003
9.439920e-003
9.439920e-003
9.439920e-003
9.439920e-003
9.439920e-003
9.439920e-003
9.439920e-003
9.439920e-003
9.439918e-003
9.439919e-003
9.439921e-003
9.439921e-003
9.439921e-003
9.439920e-003
9.439921e-003
9.439923e-003
9.439925e-003
9.439929e-003
9.439933e-003
9.439938e-003
9.439945e-003
9.439952e-003
9.439957e-003
9.439954e-003
9.439934e-003
9.439883e-003
9.439774e-003
9.439572e-003
9.439228e-003
9.438675e-003
9.437829e-003
9.436591e-003
9.434851e-003
9.432496e-003
9.429424e-003
9.425550e-003
9.420828e-003
9.415256e-003
9.408882e-003
9.401808e-003
9.394182e-003
9.386186e-003
9.378020e-003
9.369892e-003
9.361997e-003
9.354511e-003
9.347582e-003
9.341327e-003
9.335829e-003
9.331146e-003
9.327308e-003
9.324329e-003
9.322213e-003
9.320956e-003
9.320555e-003
9.321008e-003
9.322322e-003
9.324505e-003
9.327570e-003
9.331527e-003
9.336378e-003
9.342105e-003
9.348661e-003
9.355961e-003
9.363877e-003
9.372234e-003
9.380816e-003
9.389383e-003
9.397680e-003
9.405470e-003
9.412550e-003
9.418773e-003
9.424056e-003
9.428385e-003
9.431806e-003
9.434412e-003
9.436323e-003
9.437670e-003
9.438582e-003
9.439172e-003
9.439535e-003
9.439746e-003
9.439860e-003
9.439916e-003
9.439938e-003
9.439944e-003
9.439941e-003
9.439937e-003
9.439932e-003
9.439928e-003
9.439925e-003
9.439923e-003
9.439922e-003
9.439921e-003
9.439920e-003
9.439920e-003
9.439920e-003
9.439920e-003
9.439920e-003
9.439920e-003
9.439920e-003
9.439920e-003
9.439920e-003
9.439920e-003
9.439920e-003
9.439920e-003
9.439920e-003
9.439920e-003
9.439917e-003
9.439919e-003
9.439921e-003
9.439922e-003
9.439921e-003
9.439921e-003
9.439922e-003
9.439925e-003
9.439929e-003
9.439933e-003
9.439939e-003
9.439946e-003
9.439953e-003
9.439958e-003
9.439954e-003
9.439927e-003
9.439858e-003
9.439712e-003
9.439439e-003
9.438963e-003
9.438182e-003
9.436963e-003
9.435143e-003
9.432534e-003
9.428938e-003
9.424166e-003
9.418066e-003
9.410554e-003
9.401637e-003
9.391434e-003
9.380176e-003
9.368195e-003
9.355894e-003
9.343706e-003
9.332054e-003
9.321311e-003
9.311771e-003
9.303629e-003
9.296979e-003
9.291815e-003
9.288043e-003
9.285504e-003
9.283993e-003
9.283286e-003
9.283164e-003
9.283434e-003
9.283951e-003
9.284630e-003
9.285460e-003
9.286508e-003
9.287918e-003
9.289898e-003
9.292702e-003
9.296598e-003
9.301829e-003
9.308573e-003
9.316903e-003
9.326753e-003
9.337913e-003
9.350030e-003
9.362641e-003
9.375228e-003
9.387275e-003
9.398335e-003
9.408076e-003
9.416310e-003
9.422992e-003
9.428199e-003
9.432097e-003
9.434900e-003
9.436835e-003
9.438115e-003
9.438925e-003
9.439412e-003
9.439690e-003
9.439837e-003
9.439907e-003
9.439936e-003
9.439943e-003
9.439942e-003
9.439937e-003
9.439932e-003
9.439928e-003
9.439925e-003
9.439923e-003
9.439922e-003
9.439921e-003
9.439920e-003
9.439920e-003
9.439920e-003
9.439920e-003
9.439920e-003
9.439920e-003
9.439920e-003
9.439920e-003
9.439920e-003
9.439920e-003
9.439920e-003
9.439920e-003
9.439920e-003
9.439918e-003
9.439919e-003
9.439921e-003
9.439922e-003
9.439922e-003
9.439923e-003
9.439925e-003
9.439928e-003
9.439933e-003
9.439940e-003
9.439947e-003
9.439955e-003
9.439959e-003
9.439954e-003
9.439922e-003
9.439837e-003
9.439655e-003
9.439308e-003
9.438690e-003
9.437653e-003
9.435998e-003
9.433471e-003
9.429772e-003
9.424577e-003
9.417571e-003
9.408506e-003
9.397267e-003
9.383940e-003
9.368859e-003
9.352624e-003
9.336073e-003
9.320209e-003
9.306087e-003
9.294697e-003
9.286843e-003
9.283062e-003
9.283567e-003
9.288240e-003
9.296646e-003
9.308082e-003
9.321637e-003
9.336262e-003
9.350847e-003
9.364301e-003
9.375619e-003
9.383950e-003
9.388652e-003
9.389344e-003
9.385937e-003
9.378668e-003
9.368098e-003
9.355099e-003
9.340806e-003
9.326533e-003
9.313664e-003
9.303509e-003
9.297161e-003
9.295362e-003
9.298399e-003
9.306062e-003
9.317672e-003
9.332183e-003
9.348335e-003
9.364850e-003
9.380600e-003
9.394737e-003
9.406749e-003
9.416454e-003
9.423931e-003
9.429438e-003
9.433321e-003
9.435943e-003
9.437638e-003
9.438685e-003
9.439300e-003
9.439642e-003
9.439819e-003
9.439902e-003
9.439935e-003
9.439943e-003
9.439942e-003
9.439937e-003
9.439932e-003
9.439928e-003
9.439925e-003
9.439923e-003
9.439921e-003
9.439921e-003
9.439920e-003
9.439920e-003
9.439920e-003
9.439920e-003
9.439920e-003
9.439920e-003
9.439920e-003
9.439920e-003
9.439920e-003
9.439920e-003
9.439920e-003
9.439920e-003
9.439920e-003
9.439921e-003
9.439921e-003
9.439922e-003
9.439923e-003
9.439925e-003
9.439928e-003
9.439933e-003
9.439939e-003
9.439947e-003
9.439956e-003
9.439961e-003
9.439954e-003
9.439919e-003
9.439823e-003
9.439612e-003
9.439197e-003
9.438441e-003
9.437143e-003
9.435020e-003
9.431703e-003
9.426742e-003
9.419637e-003
9.409901e-003
9.397177e-003
9.381374e-003
9.362841e-003
9.342506e-003
9.321951e-003
9.303368e-003
9.289384e-003
9.282777e-003
9.286121e-003
9.301448e-003
9.329972e-003
9.371929e-003
9.426542e-003
9.492085e-003
9.566025e-003
9.645208e-003
9.726068e-003
9.804834e-003
9.877740e-003
9.941217e-003
9.992068e-003
1.002762e-002
1.004586e-002
1.004556e-002
1.002637e-002
9.988910e-003
9.934816e-003
9.866729e-003
9.788212e-003
9.703581e-003
9.617620e-003
9.535220e-003
9.460946e-003
9.398590e-003
9.350776e-003
9.318681e-003
9.301945e-003
9.298803e-003
9.306433e-003
9.321457e-003
9.340479e-003
9.360549e-003
9.379464e-003
9.395860e-003
9.409139e-003
9.419285e-003
9.426643e-003
9.431729e-003
9.435088e-003
9.437207e-003
9.438483e-003
9.439214e-003
9.439610e-003
9.439809e-003
9.439900e-003
9.439935e-003
9.439943e-003
9.439941e-003
9.439936e-003
9.439931e-003
9.439927e-003
9.439924e-003