# vtk DataFile Version 3.0
vtk output
ASCII
DATASET STRUCTURED_POINTS
DIMENSIONS 100 100 1
SPACING 1 1 1
ORIGIN 0 0 0
POINT_DATA 10000
SCALARS SFBox_profile double
LOOKUP_TABLE default 
0.000000e+000
0.000000e+000
0.000000e+000
0.000000e+000
0.000000e+000
0.000000e+000
0.000000e+000
0.000000e+000
0.000000e+000
0.000000e+000
0.000000e+000
0.000000e+000
0.000000e+000
0.000000e+000
0.000000e+000
0.000000e+000
0.000000e+000
0.000000e+000
0.000000e+000
0.000000e+000
0.000000e+000
0.000000e+000
0.000000e+000
0.000000e+000
0.000000e+000
0.000000e+000
0.000000e+000
0.000000e+000
0.000000e+000
0.000000e+000
0.000000e+000
0.000000e+000
0.000000e+000
0.000000e+000
0.000000e+000
0.000000e+000
0.000000e+000
0.000000e+000
0.000000e+000
0.000000e+000
0.000000e+000
0.000000e+000
0.000000e+000
0.000000e+000
0.000000e+000
0.000000e+000
0.000000e+000
0.000000e+000
0.000000e+000
0.000000e+000
0.000000e+000
0.000000e+000
0.000000e+000
0.000000e+000
0.000000e+000
0.000000e+000
0.000000e+000
0.000000e+000
0.000000e+000
0.000000e+000
0.000000e+000
0.000000e+000
0.000000e+000
0.000000e+000
0.000000e+000
0.000000e+000
0.000000e+000
0.000000e+000
0.000000e+000
0.000000e+000
0.000000e+000
0.000000e+000
0.000000e+000
0.000000e+000
0.000000e+000
0.000000e+000
0.000000e+000
0.000000e+000
0.000000e+000
0.000000e+000
0.000000e+000
0.000000e+000
0.000000e+000
0.000000e+000
0.000000e+000
0.000000e+000
0.000000e+000
0.000000e+000
0.000000e+000
0.000000e+000
0.000000e+000
0.000000e+000
0.000000e+000
0.000000e+000
0.000000e+000
0.000000e+000
0.000000e+000
0.000000e+000
0.000000e+000
0.000000e+000
-7.622597e-009
-2.791616e-009
3.322838e-009
6.767853e-009
5.685589e-009
1.233487e-009
-3.508127e-009
-5.711723e-009
-4.506758e-009
-1.156745e-009
2.159268e-009
3.874957e-009
3.757002e-009
2.515027e-009
9.153342e-010
-7.328741e-010
-2.384933e-009
-3.772985e-009
-4.274083e-009
-3.341215e-009
-1.071534e-009
1.686275e-009
3.839773e-009
4.738372e-009
4.453035e-009
3.481762e-009
2.243165e-009
8.436177e-010
-7.499887e-010
-2.419657e-009
-3.837314e-009
-4.683285e-009
-4.884455e-009
-4.623827e-009
-4.139394e-009
-3.538414e-009
-2.796846e-009
-1.894967e-009
-9.134922e-010
6.137370e-012
7.706348e-010
1.386422e-009
1.912068e-009
2.379883e-009
2.770054e-009
3.047390e-009
3.206218e-009
3.276373e-009
3.294342e-009
3.274390e-009
3.203226e-009
3.055725e-009
2.816350e-009
2.491440e-009
2.102530e-009
1.662683e-009
1.156624e-009
5.514962e-010
-1.615458e-010
-9.348334e-010
-1.683350e-009
-2.344198e-009
-2.909226e-009
-3.382128e-009
-3.700674e-009
-3.724123e-009
-3.328354e-009
-2.524358e-009
-1.468388e-009
-3.412466e-010
7.700133e-010
1.841674e-009
2.759402e-009
3.237637e-009
2.965170e-009
1.885305e-009
3.357418e-010
-1.122911e-009
-2.053813e-009
-2.346504e-009
-2.111156e-009
-1.437024e-009
-3.324024e-010
1.062603e-009
2.260655e-009
2.563643e-009
1.573304e-009
-3.384637e-010
-2.092977e-009
-2.580997e-009
-1.475710e-009
4.747840e-010
1.949892e-009
1.995854e-009
6.935084e-010
-9.401095e-010
-1.721764e-009
-1.156919e-009
2.407895e-010
1.369947e-009
-1.112428e-009
-3.362780e-010
5.934739e-010
1.000818e-009
6.293120e-010
-1.923304e-010
-8.065907e-010
-7.275709e-010
-1.848677e-011
7.492760e-010
9.397403e-010
3.578152e-010
-5.898987e-010
-1.212896e-009
-1.070483e-009
-2.814858e-010
6.255544e-010
1.153963e-009
1.171349e-009
8.752952e-010
4.987500e-010
8.532437e-011
-4.561806e-010
-1.124022e-009
-1.702681e-009
-1.894064e-009
-1.565671e-009
-8.597390e-010
-6.168803e-011
6.259634e-010
1.182118e-009
1.673271e-009
2.104102e-009
2.380842e-009
2.408083e-009
2.193469e-009
1.844247e-009
1.471197e-009
1.110156e-009
7.346370e-010
3.259113e-010
-8.499599e-011
-4.413786e-010
-7.119293e-010
-9.100583e-010
-1.068105e-009
-1.201365e-009
-1.298112e-009
-1.337670e-009
-1.312655e-009
-1.234993e-009
-1.124198e-009
-9.898315e-010
-8.224764e-010
-6.019140e-010
-3.185666e-010
1.029217e-011
3.487648e-010
6.713819e-010
9.819572e-010
1.294867e-009
1.592819e-009
1.810699e-009
1.875006e-009
1.764514e-009
1.523642e-009
1.207164e-009
8.186281e-010
3.235744e-010
-2.641040e-010
-8.210613e-010
-1.167204e-009
-1.198932e-009
-9.691256e-010
-6.256546e-010
-2.737028e-010
8.402133e-011
4.624855e-010
7.723701e-010
8.282442e-010
5.165538e-010
-4.004507e-011
-5.151972e-010
-6.168038e-010
-3.245891e-010
9.602608e-011
3.213810e-010
2.313663e-010
-2.424367e-011
-1.926242e-010
-1.452481e-010
3.783544e-011
1.746977e-010
1.532336e-010
1.011489e-011
-1.281992e-010
-1.612250e-010
-8.097747e-011
4.516492e-011
1.338118e-010
6.340778e-009
2.387654e-009
-2.649693e-009
-5.581918e-009
-4.887580e-009
-1.404618e-009
2.537287e-009
4.739023e-009
4.343460e-009
1.974881e-009
-9.914530e-010
-3.307949e-009
-4.299705e-009
-3.823578e-009
-2.073195e-009
4.912139e-010
3.126977e-009
4.932449e-009
5.195299e-009
3.765831e-009
1.154906e-009
-1.741167e-009
-4.084607e-009
-5.399076e-009
-5.589980e-009
-4.788731e-009
-3.216144e-009
-1.148906e-009
1.075599e-009
3.105772e-009
4.671446e-009
5.649789e-009
6.048740e-009
5.939040e-009
5.404366e-009
4.538111e-009
3.455822e-009
2.284053e-009
1.127150e-009
4.546180e-011
-9.350766e-010
-1.797864e-009
-2.523875e-009
-3.100936e-009
-3.536134e-009
-3.852774e-009
-4.073668e-009
-4.207959e-009
-4.253207e-009
-4.207475e-009
-4.076837e-009
-3.870361e-009
-3.588587e-009
-3.218629e-009
-2.742508e-009
-2.151669e-009
-1.453631e-009
-6.649206e-010
1.995488e-010
1.124606e-009
2.078009e-009
2.995767e-009
3.788153e-009
4.363462e-009
4.646529e-009
4.577452e-009
4.105238e-009
3.203878e-009
1.912835e-009
3.675583e-010
-1.214512e-009
-2.585392e-009
-3.514800e-009
-3.813885e-009
-3.361811e-009
-2.170336e-009
-4.620110e-010
1.323781e-009
2.658140e-009
3.136038e-009
2.643580e-009
1.381249e-009
-2.348904e-010
-1.698761e-009
-2.519668e-009
-2.351128e-009
-1.176556e-009
5.468970e-010
1.981592e-009
2.324098e-009
1.340302e-009
-3.826269e-010
-1.745646e-009
-1.869209e-009
-7.297824e-010
8.041973e-010
1.605047e-009
1.126259e-009
-1.944843e-010
-1.287395e-009
8.432358e-009
2.980792e-009
-3.804836e-009
-7.426423e-009
-5.948855e-009
-9.382120e-010
4.017275e-009
5.918850e-009
4.178639e-009
5.270572e-010
-2.597950e-009
-3.756570e-009
-3.079500e-009
-1.586700e-009
-1.326855e-010
1.060119e-009
2.076888e-009
2.777299e-009
2.719125e-009
1.608238e-009
-2.517254e-010
-2.030140e-009
-2.931119e-009
-2.726557e-009
-1.798068e-009
-7.221868e-010
1.645972e-010
8.532167e-010
1.433975e-009
1.871171e-009
2.012794e-009
1.769997e-009
1.234735e-009
6.124259e-010
6.224555e-011
-3.846922e-010
-7.722573e-010
-1.121183e-009
-1.396981e-009
-1.557182e-009
-1.604451e-009
-1.584773e-009
-1.544040e-009
-1.497607e-009
-1.439575e-009
-1.369269e-009
-1.300863e-009
-1.251061e-009
-1.225886e-009
-1.222023e-009
-1.235789e-009
-1.265540e-009
-1.306713e-009
-1.350311e-009
-1.388540e-009
-1.417592e-009
-1.429655e-009
-1.403621e-009
-1.311343e-009
-1.138243e-009
-8.942244e-010
-5.973373e-010
-2.481903e-010
1.664324e-010
6.322156e-010
1.072776e-009
1.374067e-009
1.457550e-009
1.326249e-009
1.027494e-009
5.762386e-010
-5.299303e-011
-8.259059e-010
-1.544472e-009
-1.891365e-009
-1.638609e-009
-8.438980e-010
1.660409e-010
1.023202e-009
1.533547e-009
1.673527e-009
1.420725e-009
6.825135e-010
-5.189568e-010
-1.787203e-009
-2.390293e-009
-1.740511e-009
2.030079e-011
1.898939e-009
2.646451e-009
1.689650e-009
-3.551833e-010
-2.065708e-009
-2.250893e-009
-8.439461e-010
1.054682e-009
2.021746e-009
1.386884e-009
-2.846406e-010
-1.655692e-009
3.498119e-009
9.770474e-010
-1.967649e-009
-3.130394e-009
-1.802617e-009
7.997944e-010
2.552320e-009
2.088635e-009
-1.587943e-010
-2.340708e-009
-2.677053e-009
-8.510419e-010
1.794005e-009
3.358822e-009
2.832897e-009
7.073515e-010
-1.622772e-009
-2.999776e-009
-3.170345e-009
-2.552057e-009
-1.555847e-009
-2.301795e-010
1.490783e-009
3.342901e-009
4.668598e-009
4.844280e-009
3.762313e-009
1.887691e-009
-1.338018e-010
-1.906256e-009
-3.373388e-009
-4.585980e-009
-5.471762e-009
-5.851640e-009
-5.631992e-009
-4.925173e-009
-3.969661e-009
-2.955500e-009
-1.940061e-009
-9.097162e-010
1.166604e-010
1.061957e-009
1.849611e-009
2.461775e-009
2.933421e-009
3.302806e-009
3.578630e-009
3.749030e-009
3.806648e-009
3.757754e-009
3.613730e-009
3.382362e-009
3.065860e-009
2.658886e-009
2.146431e-009
1.512871e-009
7.631291e-010
-6.634790e-011
-9.267542e-010
-1.788728e-009
-2.642297e-009
-3.451101e-009
-4.110679e-009
-4.475243e-009
-4.446078e-009
-4.031953e-009
-3.308543e-009
-2.322322e-009
-1.068483e-009
4.003933e-010
1.848230e-009
2.889609e-009
3.211412e-009
2.789417e-009
1.879270e-009
7.901648e-010
-3.082251e-010
-1.333258e-009
-2.083005e-009
-2.191655e-009
-1.411200e-009
1.655056e-011
1.334369e-009
1.749363e-009
1.059570e-009
-1.483238e-010
-9.558817e-010
-8.481666e-010
-8.657209e-011
5.867846e-010
6.141782e-010
5.853960e-011
-5.306842e-010
-6.370159e-010
-1.987387e-010
3.950978e-010
6.640390e-010
4.156211e-010
-1.401740e-010
-5.789784e-010
-4.236757e-009
-1.786509e-009
1.442370e-009
3.579873e-009
3.632899e-009
1.821227e-009
-8.238465e-010
-3.096470e-009
-4.053083e-009
-3.218811e-009
-7.506366e-010
2.442020e-009
4.888758e-009
5.232829e-009
3.083983e-009
-6.051598e-010
-4.046098e-009
-5.699093e-009
-5.119806e-009
-2.965667e-009
-3.037234e-010
2.088828e-009
3.890483e-009
4.949836e-009
5.046111e-009
4.010080e-009
2.020717e-009
-3.329950e-010
-2.363201e-009
-3.682969e-009
-4.321616e-009
-4.498095e-009
-4.336374e-009
-3.808139e-009
-2.895483e-009
-1.734875e-009
-5.699241e-010
4.178733e-010
1.206376e-009
1.871214e-009
2.460190e-009
2.944374e-009
3.274162e-009
3.451648e-009
3.535700e-009
3.588819e-009
3.633812e-009
3.659049e-009
3.650232e-009
3.609054e-009
3.548449e-009
3.479887e-009
3.403926e-009
3.303535e-009
3.143985e-009
2.888896e-009
2.525804e-009
2.072279e-009
1.545955e-009
9.289203e-010
1.795727e-010
-7.023602e-010
-1.625304e-009
-2.439674e-009
-3.033023e-009
-3.379006e-009
-3.474577e-009
-3.240489e-009
-2.531315e-009
-1.291359e-009
2.920353e-010
1.821468e-009
2.907154e-009
3.360709e-009
3.181149e-009
2.398021e-009
1.017904e-009
-8.061372e-010
-2.576135e-009
-3.540974e-009
-3.139654e-009
-1.461652e-009
7.062352e-010
2.336384e-009
2.765920e-009
1.995853e-009
5.439111e-010
-9.143051e-010
-1.818681e-009
-1.845353e-009
-9.919971e-010
3.395198e-010
1.422892e-009
1.583159e-009
6.963683e-010
-6.167222e-010
-1.382920e-009
-1.027566e-009
1.341733e-010
1.129478e-009
-8.442097e-009
-2.879723e-009
3.887080e-009
7.263566e-009
5.555909e-009
6.678121e-010
-3.794669e-009
-5.234845e-009
-3.512948e-009
-3.850553e-010
2.153069e-009
3.118424e-009
2.642508e-009
1.329508e-009
-2.712923e-010
-1.701361e-009
-2.454945e-009
-2.111548e-009
-7.104849e-010
1.084490e-009
2.331680e-009
2.428162e-009
1.454829e-009
-1.781023e-011
-1.404483e-009
-2.398135e-009
-2.906665e-009
-2.859528e-009
-2.176591e-009
-9.133279e-010
6.482944e-010
2.121258e-009
3.239740e-009
3.960630e-009
4.362706e-009
4.488432e-009
4.305904e-009
3.800876e-009
3.059669e-009
2.237629e-009
1.455816e-009
7.441143e-010
7.959615e-011
-5.412633e-010
-1.079166e-009
-1.488056e-009
-1.756135e-009
-1.907151e-009
-1.970622e-009
-1.956763e-009
-1.854558e-009
-1.645549e-009
-1.320272e-009
-8.893883e-010
-3.817785e-010
1.741646e-010
7.712377e-010
1.417862e-009
2.099898e-009
2.747588e-009
3.254212e-009
3.539046e-009
3.587042e-009
3.414905e-009
3.004049e-009
2.296565e-009
1.285554e-009
1.079714e-010
-9.795363e-010
-1.739769e-009
-2.071604e-009
-1.990414e-009
-1.527002e-009
-7.056919e-010
3.436869e-010
1.288251e-009
1.696468e-009
1.324384e-009
3.340342e-010
-7.773891e-010
-1.484163e-009
-1.506133e-009
-8.650727e-010
2.038413e-010
1.311009e-009
1.938145e-009
1.608334e-009
2.587678e-010
-1.471300e-009
-2.458602e-009
-1.869152e-009
6.735582e-011
2.030682e-009
2.535108e-009
1.138995e-009
-1.102085e-009
-2.418366e-009
-1.761134e-009
3.111945e-010
2.076649e-009
-5.987497e-009
-1.463581e-009
3.621324e-009
5.296960e-009
2.634252e-009
-1.815264e-009
-4.325750e-009
-3.032606e-009
7.522672e-010
3.844470e-009
3.840182e-009
8.811312e-010
-2.753077e-009
-4.601925e-009
-3.756591e-009
-1.091236e-009
1.806731e-009
3.804522e-009
4.560488e-009
4.129210e-009
2.577406e-009
6.636857e-011
-2.851737e-009
-5.250687e-009
-6.286887e-009
-5.690272e-009
-3.837119e-009
-1.392921e-009
1.091565e-009
3.304045e-009
5.049493e-009
6.143724e-009
6.464064e-009
6.054688e-009
5.121326e-009
3.904038e-009
2.563055e-009
1.178541e-009
-1.781780e-010
-1.410520e-009
-2.436158e-009
-3.237768e-009
-3.857757e-009
-4.345539e-009
-4.718341e-009
-4.970216e-009
-5.105406e-009
-5.152968e-009
-5.149962e-009
-5.115134e-009
-5.038778e-009
-4.894631e-009
-4.661189e-009
-4.334286e-009
-3.919663e-009
-3.411294e-009
-2.778764e-009
-1.984589e-009
-1.022255e-009
6.317791e-011
1.196916e-009
2.313330e-009
3.359522e-009
4.252316e-009
4.845339e-009
4.967396e-009
4.514078e-009
3.504821e-009
2.054702e-009
3.177851e-010
-1.505975e-009
-3.109409e-009
-4.087155e-009
-4.099583e-009
-3.094674e-009
-1.383551e-009
5.113790e-010
2.088557e-009
2.978772e-009
2.932111e-009
1.866467e-009
6.246697e-011
-1.717717e-009
-2.511311e-009
-1.811732e-009
-8.314957e-011
1.440831e-009
1.666649e-009
5.379266e-010
-9.004798e-010
-1.391311e-009
-5.495582e-010
8.213494e-010
1.463038e-009
7.835719e-010
-6.292924e-010
-1.538606e-009
-1.144302e-009
2.275614e-010
1.413813e-009
8.186426e-010
1.054643e-009
8.221252e-010
-3.865480e-010
-2.118034e-009
-3.032230e-009
-1.916163e-009
1.099929e-009
4.223803e-009
5.098193e-009
2.628386e-009
-1.942523e-009
-5.736944e-009
-6.289956e-009
-3.314987e-009
1.223926e-009
4.684581e-009
5.560341e-009
4.112587e-009
1.616514e-009
-7.950722e-010
-2.635896e-009
-3.774527e-009
-4.013318e-009
-3.124073e-009
-1.227041e-009
1.039214e-009
2.838793e-009
3.655430e-009
3.513068e-009
2.757709e-009
1.700875e-009
4.784927e-010
-8.349329e-010
-2.088764e-009
-3.079675e-009
-3.683671e-009
-3.924699e-009
-3.911153e-009
-3.730398e-009
-3.414841e-009
-2.986497e-009
-2.500211e-009
-2.030478e-009
-1.627337e-009
-1.298621e-009
-1.034635e-009
-8.403631e-010
-7.385793e-010
-7.461820e-010
-8.553638e-010
-1.041424e-009
-1.286599e-009
-1.591082e-009
-1.956935e-009
-2.361944e-009
-2.754181e-009
-3.075745e-009
-3.288339e-009
-3.368016e-009
-3.275462e-009
-2.947214e-009
-2.336488e-009
-1.469000e-009
-4.487919e-010
5.964315e-010
1.560483e-009
2.330604e-009
2.729193e-009
2.543451e-009
1.680332e-009
3.156002e-010
-1.138007e-009
-2.245759e-009
-2.746421e-009
-2.553184e-009
-1.640665e-009
-6.333184e-011
1.830091e-009
3.271418e-009
3.380351e-009
1.830716e-009
-6.907255e-010
-2.773119e-009
-3.222491e-009
-1.912449e-009
1.745011e-010
1.726481e-009
2.014038e-009
1.219029e-009
6.682549e-011
-7.725205e-010
-1.014976e-009
-7.276182e-010
-1.574263e-010
3.859481e-010
6.182758e-010
4.179112e-010
-5.943419e-011
-4.501848e-010
6.618134e-009
2.424765e-009
-2.699243e-009
-5.390123e-009
-4.458310e-009
-1.196989e-009
2.072335e-009
3.684645e-009
3.283744e-009
1.444465e-009
-9.099545e-010
-2.767810e-009
-3.192394e-009
-1.771194e-009
8.612257e-010
3.113145e-009
3.416863e-009
1.427734e-009
-1.635836e-009
-3.883576e-009
-4.108728e-009
-2.450926e-009
5.122052e-011
2.389186e-009
4.086663e-009
5.015371e-009
5.018738e-009
3.891058e-009
1.692799e-009
-1.059081e-009
-3.618424e-009
-5.446638e-009
-6.432287e-009
-6.739304e-009
-6.522614e-009
-5.819632e-009
-4.660123e-009
-3.191062e-009
-1.648362e-009
-2.213387e-010
1.028634e-009
2.123498e-009
3.076035e-009
3.857950e-009
4.441584e-009
4.842606e-009
5.108428e-009
5.273781e-009
5.339853e-009
5.294793e-009
5.140625e-009
4.890158e-009
4.541714e-009
4.069552e-009
3.446301e-009
2.669975e-009
1.760395e-009
7.314078e-010
-4.164842e-010
-1.659095e-009
-2.905109e-009
-4.006830e-009
-4.826619e-009
-5.284995e-009
-5.330395e-009
-4.876984e-009
-3.824413e-009
-2.190604e-009
-2.301598e-010
1.620464e-009
2.957965e-009
3.584998e-009
3.480242e-009
2.659226e-009
1.172707e-009
-6.924509e-010
-2.278129e-009
-2.802996e-009
-1.926423e-009
-1.335238e-010
1.498270e-009
2.032395e-009
1.296066e-009
-1.078051e-010
-1.314372e-009
-1.728417e-009
-1.214013e-009
-2.309997e-011
1.294416e-009
2.002787e-009
1.518029e-009
-7.312254e-011
-1.797056e-009
-2.339317e-009
-1.120640e-009
1.032048e-009
2.401051e-009
1.805959e-009
-2.994731e-010
-2.138131e-009
7.483514e-009
1.617567e-009
-4.738471e-009
-6.460500e-009
-2.789114e-009
2.593586e-009
5.120992e-009
3.138583e-009
-1.212849e-009
-4.287767e-009
-3.980250e-009
-9.410904e-010
2.543768e-009
4.485747e-009
4.215441e-009
2.140004e-009
-9.028834e-010
-3.919076e-009
-5.776572e-009
-5.511881e-009
-2.963845e-009
8.875529e-010
4.391603e-009
6.219696e-009
6.043624e-009
4.398162e-009
2.040095e-009
-5.038678e-010
-2.896418e-009
-4.759059e-009
-5.676956e-009
-5.461313e-009
-4.326963e-009
-2.745183e-009
-1.118244e-009
3.966405e-010
1.792136e-009
3.026055e-009
3.976060e-009
4.550170e-009
4.785757e-009
4.815140e-009
4.751715e-009
4.630015e-009
4.445663e-009
4.220969e-009
4.013047e-009
3.869449e-009
3.797726e-009
3.782944e-009
3.819592e-009
3.912341e-009
4.050405e-009
4.197824e-009
4.315914e-009
4.383484e-009
4.379518e-009
4.248525e-009
3.904651e-009
3.288340e-009
2.415028e-009
1.352613e-009
1.542924e-010
-1.154213e-009
-2.490561e-009
-3.629631e-009
-4.251624e-009
-4.123221e-009
-3.242570e-009
-1.801686e-009
-3.472225e-011
1.835764e-009
3.480746e-009
4.377619e-009
4.004947e-009
2.263089e-009
-2.674670e-010
-2.550834e-009
-3.675723e-009
-3.322138e-009
-1.797741e-009
2.296608e-010
1.983142e-009
2.735298e-009
2.067410e-009
2.572917e-010
-1.604027e-009
-2.195418e-009
-1.024838e-009
9.689766e-010
2.045880e-009
1.179447e-009
-9.039991e-010
-2.269639e-009
-1.544323e-009
7.220481e-010
2.472468e-009
2.036751e-009
-2.657628e-010
-2.370802e-009
3.541790e-009
-3.881470e-010
-3.984801e-009
-3.495252e-009
8.226736e-010
5.002234e-009
5.036396e-009
5.223178e-010
-4.956949e-009
-6.939527e-009
-3.828250e-009
1.968468e-009
6.240686e-009
6.339514e-009
2.818500e-009
-1.623768e-009
-4.458830e-009
-4.789194e-009
-3.168544e-009
-6.259473e-010
1.941764e-009
3.763271e-009
4.146371e-009
2.794767e-009
1.766009e-010
-2.602627e-009
-4.445359e-009
-4.860852e-009
-4.020321e-009
-2.365059e-009
-2.592762e-010
2.023587e-009
4.151395e-009
5.734221e-009
6.517353e-009
6.528277e-009
5.996804e-009
5.144368e-009
4.070702e-009
2.817770e-009
1.479610e-009
2.077418e-010
-8.799475e-010
-1.762606e-009
-2.481647e-009
-3.064172e-009
-3.496136e-009
-3.757245e-009
-3.854550e-009
-3.811127e-009
-3.635751e-009
-3.319470e-009
-2.857791e-009
-2.258928e-009
-1.525047e-009
-6.425792e-010
3.881591e-010
1.513100e-009
2.630746e-009
3.645762e-009
4.500087e-009
5.131118e-009
5.409246e-009
5.159914e-009
4.287223e-009
2.880488e-009
1.182768e-009
-5.410139e-010
-2.074107e-009
-3.183283e-009
-3.557161e-009
-2.932005e-009
-1.365578e-009
6.211749e-010
2.246409e-009
2.884127e-009
2.349494e-009
8.819191e-010
-1.009580e-009
-2.627175e-009
-3.174442e-009
-2.111771e-009
2.868553e-010
2.735428e-009
3.604930e-009
2.173210e-009
-6.128793e-010
-2.728885e-009
-2.682911e-009
-7.523166e-010
1.310284e-009
1.855187e-009
7.375119e-010
-7.279045e-010
-1.125749e-009
-2.562455e-010
8.198999e-010
9.448894e-010
2.383542e-011
-9.469508e-010
-1.991425e-009
-1.712258e-009
-7.031116e-010
1.156221e-009
3.025656e-009
3.429519e-009
1.495529e-009
-1.914388e-009
-4.420393e-009
-3.886838e-009
-3.784305e-010
3.551371e-009
4.786565e-009
2.255611e-009
-2.106327e-009
-4.942167e-009
-4.181068e-009
-4.974106e-010
3.548596e-009
5.613828e-009
4.987995e-009
2.434958e-009
-8.378572e-010
-3.890570e-009
-6.054229e-009
-6.746467e-009
-5.621894e-009
-2.916643e-009
5.214593e-010
3.674836e-009
5.878667e-009
6.973681e-009
7.079027e-009
6.338418e-009
4.891622e-009
2.976977e-009
9.342706e-010
-9.382764e-010
-2.509083e-009
-3.786957e-009
-4.801951e-009
-5.542698e-009
-5.998041e-009
-6.215757e-009
-6.291277e-009
-6.305419e-009
-6.289977e-009
-6.249903e-009
-6.197117e-009
-6.151220e-009
-6.118778e-009
-6.087741e-009
-6.039736e-009
-5.951856e-009
-5.781070e-009
-5.461908e-009
-4.936428e-009
-4.184903e-009
-3.214315e-009
-2.020014e-009
-5.870936e-010
1.042864e-009
2.708937e-009
4.159650e-009
5.158375e-009
5.552432e-009
5.243468e-009
4.146343e-009
2.264734e-009
-1.456528e-010
-2.525028e-009
-4.203254e-009
-4.714176e-009
-3.968270e-009
-2.198124e-009
1.439360e-010
2.379849e-009
3.639913e-009
3.218279e-009
1.177095e-009
-1.370403e-009
-2.817073e-009
-2.223372e-009
-1.169298e-010
1.869265e-009
2.288478e-009
9.876361e-010
-9.028604e-010
-1.981408e-009
-1.631300e-009
-2.948499e-010
1.046748e-009
1.595770e-009
1.141391e-009
5.147476e-011
-9.861416e-010
-1.334217e-009
-7.781181e-010
3.002212e-010
1.140875e-009
-5.762913e-009
-1.364367e-009
3.395776e-009
4.772801e-009
2.296543e-009
-1.440330e-009
-3.425833e-009
-2.577200e-009
1.867088e-011
2.469612e-009
3.393515e-009
2.327157e-009
-3.599128e-010
-3.491576e-009
-5.284193e-009
-4.232476e-009
-3.639053e-010
4.327331e-009
7.028893e-009
6.097153e-009
2.194142e-009
-2.374099e-009
-5.396503e-009
-6.008752e-009
-4.636397e-009
-2.155363e-009
7.083059e-010
3.366568e-009
5.185494e-009
5.614793e-009
4.540185e-009
2.406135e-009
-7.763086e-011
-2.354322e-009
-4.182102e-009
-5.498828e-009
-6.252005e-009
-6.394414e-009
-5.980326e-009
-5.186227e-009
-4.214234e-009
-3.193542e-009
-2.178603e-009
-1.211573e-009
-3.554566e-010
3.311245e-010
8.268421e-010
1.142782e-009
1.293500e-009
1.281456e-009
1.102423e-009
7.532016e-010
2.342888e-010
-4.428956e-010
-1.245502e-009
-2.122749e-009
-3.024274e-009
-3.903980e-009
-4.691021e-009
-5.261410e-009
-5.462627e-009
-5.185172e-009
-4.408435e-009
-3.175613e-009
-1.554229e-009
3.282157e-010
2.193283e-009
3.606322e-009
4.144361e-009
3.624532e-009
2.186088e-009
1.817030e-010
-1.941943e-009
-3.629629e-009
-4.209525e-009
-3.162453e-009
-6.305069e-010
2.321807e-009
4.158517e-009
3.864531e-009
1.689226e-009
-1.023000e-009
-2.771591e-009
-2.815651e-009
-1.431099e-009
4.496592e-010
1.776572e-009
1.835772e-009
6.157257e-010
-1.038508e-009
-1.824889e-009
-9.687195e-010
9.343521e-010
2.193429e-009
1.485349e-009
-7.600426e-010
-2.543738e-009
-2.112012e-009
2.834356e-010
2.499318e-009
-6.361158e-009
2.000976e-011
6.006376e-009
5.791558e-009
-1.384663e-010
-5.996323e-009
-6.442671e-009
-1.321703e-009
4.764230e-009
6.940199e-009
4.041180e-009
-1.192888e-009
-5.005194e-009
-5.444893e-009
-2.981917e-009
6.426183e-010
3.657331e-009
4.775791e-009
3.412621e-009
4.788179e-011
-3.654188e-009
-5.588397e-009
-4.555733e-009
-1.099289e-009
2.952453e-009
5.793015e-009
6.619466e-009
5.620346e-009
3.357625e-009
3.395720e-010
-2.934131e-009
-5.823637e-009
-7.685365e-009
-8.202203e-009
-7.525761e-009
-6.074966e-009
-4.223733e-009
-2.177273e-009
-6.580335e-011
1.946898e-009
3.686137e-009
5.061819e-009
6.100107e-009
6.879100e-009
7.453172e-009
7.840548e-009
8.058590e-009
8.146545e-009
8.151002e-009
8.098141e-009
7.982227e-009
7.775240e-009
7.445390e-009
6.970093e-009
6.332966e-009
5.506944e-009
4.446134e-009
3.110994e-009
1.515834e-009
-2.495563e-010
-2.051353e-009
-3.754029e-009
-5.208106e-009
-6.196039e-009
-6.439199e-009
-5.730031e-009
-4.098089e-009
-1.842554e-009
6.021005e-010
2.805292e-009
4.339881e-009
4.742971e-009
3.679333e-009
1.318122e-009
-1.448179e-009
-3.331559e-009
-3.418424e-009
-1.776953e-009
6.102582e-010
2.483323e-009
2.960509e-009
1.840957e-009
-3.659628e-010
-2.536099e-009
-3.312986e-009
-1.945495e-009
8.734683e-010
3.133507e-009
2.977465e-009
4.469156e-010
-2.282044e-009
-2.759295e-009
-6.195954e-010
1.964274e-009
2.388896e-009
2.609060e-010
-2.173631e-009
-2.344232e-009
-4.362134e-011
2.345038e-009
-4.245503e-009
1.040900e-009
5.467708e-009
4.072406e-009
-1.960888e-009
-6.682203e-009
-5.384324e-009
8.359023e-010
6.284332e-009
6.163281e-009
8.897878e-010
-4.676232e-009
-5.886447e-009
-2.201085e-009
2.977171e-009
5.661281e-009
4.344474e-009
3.876172e-010
-3.706473e-009
-6.026261e-009
-5.792571e-009
-3.136951e-009
1.055587e-009
5.215279e-009
7.579943e-009
7.122062e-009
4.174876e-009
1.326263e-010
-3.506636e-009
-5.890051e-009
-6.842699e-009
-6.471070e-009
-4.920387e-009
-2.460962e-009
4.003570e-010
3.062792e-009
5.122146e-009
6.502821e-009
7.325804e-009
7.702176e-009
7.670054e-009
7.277252e-009
6.651481e-009
5.960949e-009
5.324285e-009
4.777442e-009
4.319107e-009
3.966839e-009
3.762837e-009
3.737678e-009
3.882588e-009
4.160510e-009
4.539107e-009
5.005650e-009
5.543546e-009
6.093526e-009
6.545404e-009
6.777660e-009
6.704413e-009
6.273570e-009
5.422447e-009
4.070783e-009
2.206729e-009
2.368196e-013
-2.191282e-009
-3.960715e-009
-4.999854e-009
-5.116545e-009
-4.172738e-009
-2.142875e-009
6.548617e-010
3.409705e-009
5.061085e-009
4.880503e-009
2.940865e-009
8.074546e-011
-2.551979e-009
-3.970000e-009
-3.616471e-009
-1.573062e-009
1.234099e-009
3.196683e-009
2.925310e-009
4.714187e-010
-2.324722e-009
-3.120943e-009
-1.151642e-009
1.882002e-009
3.233947e-009
1.682741e-009
-1.267761e-009
-2.848191e-009
-1.733539e-009
7.424634e-010
2.077483e-009
1.179667e-009
-6.725314e-010
-1.397438e-009
-3.960618e-010
9.369895e-010
-5.538500e-010
9.376132e-010
1.780747e-009
4.879146e-010
-1.935236e-009
-2.871453e-009
-8.891758e-010
2.427468e-009
3.720346e-009
1.201043e-009
-3.221719e-009
-5.399499e-009
-2.819684e-009
2.831215e-009
6.987650e-009
6.190290e-009
9.802176e-010
-4.814998e-009
-7.378026e-009
-5.610618e-009
-1.213048e-009
3.174599e-009
5.697905e-009
5.733114e-009
3.514570e-009
-1.580731e-010
-3.994938e-009
-6.531682e-009
-6.803188e-009
-4.850477e-009
-1.558368e-009
2.006712e-009
5.127395e-009
7.471849e-009
8.857485e-009
9.150181e-009
8.382461e-009
6.842547e-009
4.949153e-009
3.024850e-009
1.200244e-009
-4.945803e-010
-2.005207e-009
-3.241639e-009
-4.157731e-009
-4.796157e-009
-5.240741e-009
-5.538851e-009
-5.681149e-009
-5.646113e-009
-5.442776e-009
-5.098831e-009
-4.613972e-009
-3.941272e-009
-3.025691e-009
-1.859100e-009
-4.886311e-010
1.027480e-009
2.649026e-009
4.309117e-009
5.834712e-009
6.941820e-009
7.349439e-009
6.914526e-009
5.656156e-009
3.679960e-009
1.157934e-009
-1.555910e-009
-3.830396e-009
-4.919918e-009
-4.375289e-009
-2.376752e-009
3.138147e-010
2.714858e-009
3.975357e-009
3.562375e-009
1.451577e-009
-1.595344e-009
-4.029134e-009
-4.250596e-009
-1.856287e-009
1.692669e-009
3.915606e-009
3.252322e-009
4.169220e-010
-2.191466e-009
-2.577246e-009
-8.100077e-010
1.254158e-009
1.802387e-009
6.277134e-010
-9.553505e-010
-1.518543e-009
-7.633982e-010
4.693063e-010
1.159467e-009
9.613497e-010
2.466221e-010
-4.362356e-010
-7.981008e-010
3.572678e-009
1.118353e-010
-3.260682e-009
-3.465021e-009
-5.429185e-010
2.846955e-009
4.022826e-009
2.280404e-009
-1.072117e-009
-3.916137e-009
-4.506289e-009
-2.254145e-009
1.785042e-009
5.106426e-009
5.172825e-009
1.475241e-009
-3.583167e-009
-6.242319e-009
-4.363693e-009
7.931353e-010
5.622742e-009
7.015505e-009
4.422895e-009
-3.493157e-010
-4.857199e-009
-7.459414e-009
-7.600830e-009
-5.434364e-009
-1.576135e-009
2.913540e-009
6.743158e-009
8.918596e-009
9.172500e-009
7.896273e-009
5.700119e-009
3.063338e-009
3.157712e-010
-2.230055e-009
-4.271932e-009
-5.651681e-009
-6.429676e-009
-6.787936e-009
-6.872526e-009
-6.742408e-009
-6.440210e-009
-6.059617e-009
-5.719047e-009
-5.486654e-009
-5.357102e-009
-5.303475e-009
-5.331690e-009
-5.468832e-009
-5.705370e-009
-5.968809e-009
-6.163178e-009
-6.221274e-009
-6.097941e-009
-5.712587e-009
-4.929435e-009
-3.632666e-009
-1.835111e-009
2.960665e-010
2.517452e-009
4.578238e-009
6.185579e-009
6.946019e-009
6.459598e-009
4.589701e-009
1.683951e-009
-1.491053e-009
-4.059261e-009
-5.320777e-009
-4.874622e-009
-2.729403e-009
4.707261e-010
3.367259e-009
4.401101e-009
2.865744e-009
-3.250737e-010
-3.045920e-009
-3.459334e-009
-1.412485e-009
1.484275e-009
3.145409e-009
2.541007e-009
2.882621e-010
-1.955946e-009
-2.682229e-009
-1.493365e-009
6.605434e-010
2.119184e-009
1.733464e-009
-1.406728e-010
-1.810827e-009
-1.694365e-009
1.437542e-010
1.928068e-009
1.851835e-009
-8.326949e-011
-1.995767e-009
6.808932e-009
-5.549751e-010
-7.033406e-009
-6.038750e-009
1.013480e-009
6.912076e-009
6.229906e-009
2.140655e-010
-5.292680e-009
-5.777049e-009
-1.660617e-009
3.094090e-009
4.879429e-009
2.911909e-009
-1.068984e-009
-4.462125e-009
-5.204471e-009
-2.601942e-009
2.200763e-009
6.486720e-009
7.431063e-009
4.090891e-009
-1.732605e-009
-6.696108e-009
-8.225906e-009