# vtk DataFile Version 3.0
vtk output
ASCII
DATASET STRUCTURED_POINTS
DIMENSIONS 100 100 1
SPACING 1 1 1
ORIGIN 0 0 0
POINT_DATA 10000
SCALARS SFBox_profile double
LOOKUP_TABLE default 
9.439876e-003
9.439881e-003
9.439890e-003
9.439902e-003
9.439915e-003
9.439926e-003
9.439935e-003
9.439939e-003
9.439939e-003
9.439934e-003
9.439928e-003
9.439922e-003
9.439919e-003
9.439921e-003
9.439926e-003
9.439935e-003
9.439944e-003
9.439953e-003
9.439958e-003
9.439961e-003
9.439961e-003
9.439962e-003
9.439963e-003
9.439966e-003
9.439969e-003
9.439972e-003
9.439971e-003
9.439966e-003
9.439957e-003
9.439944e-003
9.439929e-003
9.439914e-003
9.439898e-003
9.439881e-003
9.439863e-003
9.439844e-003
9.439822e-003
9.439799e-003
9.439773e-003
9.439747e-003
9.439721e-003
9.439696e-003
9.439670e-003
9.439646e-003
9.439622e-003
9.439599e-003
9.439577e-003
9.439557e-003
9.439540e-003
9.439527e-003
9.439517e-003
9.439511e-003
9.439510e-003
9.439513e-003
9.439522e-003
9.439536e-003
9.439555e-003
9.439579e-003
9.439607e-003
9.439640e-003
9.439675e-003
9.439712e-003
9.439749e-003
9.439786e-003
9.439822e-003
9.439855e-003
9.439884e-003
9.439909e-003
9.439929e-003
9.439944e-003
9.439954e-003
9.439960e-003
9.439962e-003
9.439961e-003
9.439958e-003
9.439954e-003
9.439949e-003
9.439944e-003
9.439939e-003
9.439935e-003
9.439931e-003
9.439928e-003
9.439926e-003
9.439924e-003
9.439923e-003
9.439922e-003
9.439921e-003
9.439921e-003
9.439920e-003
9.439920e-003
9.439920e-003
9.439920e-003
9.439920e-003
9.439920e-003
9.439920e-003
9.439920e-003
9.439920e-003
9.439920e-003
9.439920e-003
9.439920e-003
9.439876e-003
9.439881e-003
9.439890e-003
9.439902e-003
9.439915e-003
9.439926e-003
9.439935e-003
9.439939e-003
9.439939e-003
9.439934e-003
9.439928e-003
9.439922e-003
9.439919e-003
9.439921e-003
9.439926e-003
9.439935e-003
9.439944e-003
9.439953e-003
9.439958e-003
9.439961e-003
9.439961e-003
9.439962e-003
9.439963e-003
9.439966e-003
9.439969e-003
9.439972e-003
9.439971e-003
9.439966e-003
9.439957e-003
9.439944e-003
9.439929e-003
9.439914e-003
9.439898e-003
9.439881e-003
9.439863e-003
9.439844e-003
9.439822e-003
9.439799e-003
9.439773e-003
9.439747e-003
9.439721e-003
9.439696e-003
9.439670e-003
9.439646e-003
9.439622e-003
9.439599e-003
9.439577e-003
9.439557e-003
9.439540e-003
9.439527e-003
9.439517e-003
9.439511e-003
9.439510e-003
9.439513e-003
9.439522e-003
9.439536e-003
9.439555e-003
9.439579e-003
9.439607e-003
9.439640e-003
9.439675e-003
9.439712e-003
9.439749e-003
9.439786e-003
9.439822e-003
9.439855e-003
9.439884e-003
9.439909e-003
9.439929e-003
9.439944e-003
9.439954e-003
9.439960e-003
9.439962e-003
9.439961e-003
9.439958e-003
9.439954e-003
9.439949e-003
9.439944e-003
9.439939e-003
9.439935e-003
9.439931e-003
9.439928e-003
9.439926e-003
9.439924e-003
9.439923e-003
9.439922e-003
9.439921e-003
9.439921e-003
9.439920e-003
9.439920e-003
9.439920e-003
9.439920e-003
9.439920e-003
9.439920e-003
9.439920e-003
9.439920e-003
9.439920e-003
9.439920e-003
9.439920e-003
9.439920e-003
9.439891e-003
9.439894e-003
9.439900e-003
9.439907e-003
9.439916e-003
9.439924e-003
9.439930e-003
9.439934e-003
9.439934e-003
9.439932e-003
9.439929e-003
9.439926e-003
9.439925e-003
9.439927e-003
9.439932e-003
9.439940e-003
9.439949e-003
9.439955e-003
9.439960e-003
9.439960e-003
9.439958e-003
9.439954e-003
9.439949e-003
9.439943e-003
9.439934e-003
9.439922e-003
9.439905e-003
9.439881e-003
9.439851e-003
9.439816e-003
9.439777e-003
9.439735e-003
9.439691e-003
9.439645e-003
9.439598e-003
9.439548e-003
9.439495e-003
9.439441e-003
9.439385e-003
9.439328e-003
9.439272e-003
9.439216e-003
9.439162e-003
9.439110e-003
9.439059e-003
9.439011e-003
9.438967e-003
9.438927e-003
9.438894e-003
9.438867e-003
9.438848e-003
9.438838e-003
9.438837e-003
9.438846e-003
9.438866e-003
9.438896e-003
9.438938e-003
9.438990e-003
9.439052e-003
9.439122e-003
9.439199e-003
9.439281e-003
9.439365e-003
9.439450e-003
9.439533e-003
9.439612e-003
9.439684e-003
9.439749e-003
9.439804e-003
9.439850e-003
9.439886e-003
9.439913e-003
9.439931e-003
9.439943e-003
9.439949e-003
9.439951e-003
9.439949e-003
9.439946e-003
9.439942e-003
9.439938e-003
9.439934e-003
9.439930e-003
9.439927e-003
9.439925e-003
9.439924e-003
9.439922e-003
9.439921e-003
9.439921e-003
9.439921e-003
9.439920e-003
9.439920e-003
9.439920e-003
9.439920e-003
9.439920e-003
9.439920e-003
9.439920e-003
9.439920e-003
9.439920e-003
9.439920e-003
9.439920e-003
9.439916e-003
9.439916e-003
9.439916e-003
9.439917e-003
9.439918e-003
9.439920e-003
9.439923e-003
9.439925e-003
9.439928e-003
9.439930e-003
9.439931e-003
9.439932e-003
9.439934e-003
9.439938e-003
9.439943e-003
9.439948e-003
9.439954e-003
9.439956e-003
9.439955e-003
9.439949e-003
9.439936e-003
9.439916e-003
9.439888e-003
9.439853e-003
9.439809e-003
9.439755e-003
9.439689e-003
9.439612e-003
9.439523e-003
9.439423e-003
9.439314e-003
9.439198e-003
9.439077e-003
9.438951e-003
9.438821e-003
9.438688e-003
9.438552e-003
9.438414e-003
9.438275e-003
9.438136e-003
9.437998e-003
9.437864e-003
9.437732e-003
9.437606e-003
9.437485e-003
9.437372e-003
9.437268e-003
9.437177e-003
9.437099e-003
9.437038e-003
9.436995e-003
9.436973e-003
9.436974e-003
9.436998e-003
9.437047e-003
9.437123e-003
9.437224e-003
9.437351e-003
9.437501e-003
9.437673e-003
9.437862e-003
9.438064e-003
9.438275e-003
9.438490e-003
9.438702e-003
9.438906e-003
9.439098e-003
9.439274e-003
9.439429e-003
9.439562e-003
9.439672e-003
9.439760e-003
9.439827e-003
9.439876e-003
9.439909e-003
9.439929e-003
9.439940e-003
9.439945e-003
9.439945e-003
9.439942e-003
9.439939e-003
9.439935e-003
9.439931e-003
9.439928e-003
9.439926e-003
9.439924e-003
9.439922e-003
9.439922e-003
9.439921e-003
9.439921e-003
9.439920e-003
9.439920e-003
9.439920e-003
9.439920e-003
9.439920e-003
9.439920e-003
9.439920e-003
9.439920e-003
9.439920e-003
9.439920e-003
9.439943e-003
9.439940e-003
9.439934e-003
9.439928e-003
9.439922e-003
9.439918e-003
9.439916e-003
9.439918e-003
9.439922e-003
9.439928e-003
9.439935e-003
9.439941e-003
9.439947e-003
9.439951e-003
9.439953e-003
9.439953e-003
9.439950e-003
9.439940e-003
9.439922e-003
9.439891e-003
9.439844e-003
9.439779e-003
9.439692e-003
9.439582e-003
9.439447e-003
9.439288e-003
9.439102e-003
9.438892e-003
9.438658e-003
9.438403e-003
9.438129e-003
9.437839e-003
9.437537e-003
9.437225e-003
9.436906e-003
9.436583e-003
9.436257e-003
9.435930e-003
9.435603e-003
9.435280e-003
9.434962e-003
9.434651e-003
9.434349e-003
9.434060e-003
9.433786e-003
9.433530e-003
9.433297e-003
9.433092e-003
9.432919e-003
9.432784e-003
9.432691e-003
9.432644e-003
9.432648e-003
9.432706e-003
9.432822e-003
9.432996e-003
9.433229e-003
9.433521e-003
9.433867e-003
9.434263e-003
9.434702e-003
9.435174e-003
9.435670e-003
9.436178e-003
9.436686e-003
9.437180e-003
9.437650e-003
9.438084e-003
9.438475e-003
9.438817e-003
9.439107e-003
9.439345e-003
9.439532e-003
9.439675e-003
9.439779e-003
9.439851e-003
9.439897e-003
9.439924e-003
9.439938e-003
9.439943e-003
9.439943e-003
9.439940e-003
9.439936e-003
9.439933e-003
9.439929e-003
9.439926e-003
9.439924e-003
9.439923e-003
9.439922e-003
9.439921e-003
9.439921e-003
9.439920e-003
9.439920e-003
9.439920e-003
9.439920e-003
9.439920e-003
9.439920e-003
9.439920e-003
9.439920e-003
9.439920e-003
9.439961e-003
9.439956e-003
9.439948e-003
9.439937e-003
9.439927e-003
9.439918e-003
9.439914e-003
9.439915e-003
9.439921e-003
9.439931e-003
9.439941e-003
9.439951e-003
9.439958e-003
9.439959e-003
9.439954e-003
9.439939e-003
9.439911e-003
9.439867e-003
9.439800e-003
9.439702e-003
9.439566e-003
9.439384e-003
9.439151e-003
9.438862e-003
9.438515e-003
9.438110e-003
9.437650e-003
9.437137e-003
9.436576e-003
9.435972e-003
9.435331e-003
9.434659e-003
9.433965e-003
9.433255e-003
9.432534e-003
9.431809e-003
9.431083e-003
9.430361e-003
9.429646e-003
9.428942e-003
9.428252e-003
9.427581e-003
9.426934e-003
9.426315e-003
9.425732e-003
9.425192e-003
9.424702e-003
9.424272e-003
9.423911e-003
9.423630e-003
9.423438e-003
9.423344e-003
9.423358e-003
9.423486e-003
9.423735e-003
9.424108e-003
9.424608e-003
9.425233e-003
9.425976e-003
9.426830e-003
9.427780e-003
9.428810e-003
9.429898e-003
9.431021e-003
9.432151e-003
9.433263e-003
9.434331e-003
9.435329e-003
9.436239e-003
9.437045e-003
9.437739e-003
9.438318e-003
9.438786e-003
9.439151e-003
9.439425e-003
9.439622e-003
9.439757e-003
9.439845e-003
9.439898e-003
9.439927e-003
9.439940e-003
9.439943e-003
9.439942e-003
9.439938e-003
9.439934e-003
9.439930e-003
9.439927e-003
9.439925e-003
9.439923e-003
9.439922e-003
9.439921e-003
9.439921e-003
9.439920e-003
9.439920e-003
9.439920e-003
9.439920e-003
9.439920e-003
9.439920e-003
9.439920e-003
9.439920e-003
9.439966e-003
9.439961e-003
9.439953e-003
9.439943e-003
9.439932e-003
9.439923e-003
9.439919e-003
9.439920e-003
9.439927e-003
9.439938e-003
9.439950e-003
9.439959e-003
9.439961e-003
9.439949e-003
9.439920e-003
9.439865e-003
9.439777e-003
9.439646e-003
9.439456e-003
9.439193e-003
9.438842e-003
9.438387e-003
9.437816e-003
9.437123e-003
9.436306e-003
9.435367e-003
9.434312e-003
9.433151e-003
9.431896e-003
9.430560e-003
9.429159e-003
9.427707e-003
9.426220e-003
9.424711e-003
9.423193e-003
9.421678e-003
9.420173e-003
9.418687e-003
9.417227e-003
9.415799e-003
9.414409e-003
9.413066e-003
9.411778e-003
9.410554e-003
9.409408e-003
9.408351e-003
9.407399e-003
9.406568e-003
9.405875e-003
9.405338e-003
9.404975e-003
9.404804e-003
9.404842e-003
9.405102e-003
9.405598e-003
9.406338e-003
9.407327e-003
9.408563e-003
9.410040e-003
9.411743e-003
9.413651e-003
9.415733e-003
9.417950e-003
9.420258e-003
9.422606e-003
9.424940e-003
9.427204e-003
9.429348e-003
9.431327e-003
9.433103e-003
9.434654e-003
9.435967e-003
9.437045e-003
9.437902e-003
9.438558e-003
9.439043e-003
9.439387e-003
9.439620e-003
9.439770e-003
9.439860e-003
9.439910e-003
9.439934e-003
9.439943e-003
9.439943e-003
9.439940e-003
9.439935e-003
9.439931e-003
9.439928e-003
9.439925e-003
9.439923e-003
9.439922e-003
9.439921e-003
9.439921e-003
9.439920e-003
9.439920e-003
9.439920e-003
9.439920e-003
9.439920e-003
9.439920e-003
9.439920e-003
9.439957e-003
9.439954e-003
9.439950e-003
9.439944e-003
9.439937e-003
9.439932e-003
9.439930e-003
9.439932e-003
9.439939e-003
9.439949e-003
9.439956e-003
9.439955e-003
9.439936e-003
9.439887e-003
9.439795e-003
9.439643e-003
9.439410e-003
9.439072e-003
9.438599e-003
9.437961e-003
9.437127e-003
9.436072e-003
9.434775e-003
9.433227e-003
9.431427e-003
9.429387e-003
9.427125e-003
9.424668e-003
9.422045e-003
9.419290e-003
9.416434e-003
9.413512e-003
9.410553e-003
9.407586e-003
9.404634e-003
9.401718e-003
9.398853e-003
9.396053e-003
9.393328e-003
9.390689e-003
9.388147e-003
9.385714e-003
9.383403e-003
9.381230e-003
9.379213e-003
9.377372e-003
9.375728e-003
9.374308e-003
9.373137e-003
9.372243e-003
9.371653e-003
9.371395e-003
9.371497e-003
9.371981e-003
9.372871e-003
9.374185e-003
9.375934e-003
9.378125e-003
9.380755e-003
9.383809e-003
9.387260e-003
9.391066e-003
9.395172e-003
9.399502e-003
9.403972e-003
9.408483e-003
9.412930e-003
9.417208e-003
9.421219e-003
9.424879e-003
9.428124e-003
9.430918e-003
9.433249e-003
9.435130e-003
9.436599e-003
9.437704e-003
9.438506e-003
9.439063e-003
9.439435e-003
9.439670e-003
9.439810e-003
9.439888e-003
9.439926e-003
9.439941e-003
9.439944e-003
9.439941e-003
9.439937e-003
9.439932e-003
9.439928e-003
9.439925e-003
9.439923e-003
9.439922e-003
9.439921e-003
9.439921e-003
9.439920e-003
9.439920e-003
9.439920e-003
9.439920e-003
9.439920e-003
9.439920e-003
9.439938e-003
9.439939e-003
9.439940e-003
9.439941e-003
9.439942e-003
9.439944e-003
9.439946e-003
9.439950e-003
9.439954e-003
9.439955e-003
9.439945e-003
9.439912e-003
9.439837e-003
9.439695e-003
9.439456e-003
9.439080e-003
9.438521e-003
9.437727e-003
9.436639e-003
9.435201e-003
9.433356e-003
9.431064e-003
9.428296e-003
9.425047e-003
9.421334e-003
9.417192e-003
9.412676e-003
9.407850e-003
9.402789e-003
9.397563e-003
9.392246e-003
9.386903e-003
9.381590e-003
9.376359e-003
9.371248e-003
9.366289e-003
9.361505e-003
9.356913e-003
9.352529e-003
9.348364e-003
9.344431e-003
9.340743e-003
9.337313e-003
9.334158e-003
9.331296e-003
9.328744e-003
9.326523e-003
9.324656e-003
9.323166e-003
9.322078e-003
9.321417e-003
9.321210e-003
9.321487e-003
9.322276e-003
9.323608e-003
9.325516e-003
9.328030e-003
9.331181e-003
9.334995e-003
9.339486e-003
9.344656e-003
9.350486e-003
9.356932e-003
9.363915e-003
9.371325e-003
9.379017e-003
9.386816e-003
9.394528e-003
9.401951e-003
9.408896e-003
9.415201e-003
9.420748e-003
9.425470e-003
9.429357e-003
9.432445e-003
9.434813e-003
9.436563e-003
9.437806e-003
9.438654e-003
9.439207e-003
9.439551e-003
9.439752e-003
9.439862e-003
9.439916e-003
9.439938e-003
9.439944e-003
9.439942e-003
9.439937e-003
9.439932e-003
9.439928e-003
9.439925e-003
9.439923e-003
9.439922e-003
9.439921e-003
9.439921e-003
9.439920e-003
9.439920e-003
9.439920e-003
9.439920e-003
9.439920e-003
9.439919e-003
9.439923e-003
9.439930e-003
9.439939e-003
9.439948e-003
9.439957e-003
9.439963e-003
9.439965e-003
9.439960e-003
9.439938e-003
9.439884e-003
9.439772e-003
9.439565e-003
9.439212e-003
9.438647e-003
9.437788e-003
9.436540e-003
9.434798e-003
9.432455e-003
9.429408e-003
9.425574e-003
9.420899e-003
9.415369e-003
9.409018e-003
9.401922e-003
9.394200e-003
9.385999e-003
9.377480e-003
9.368808e-003
9.360139e-003
9.351613e-003
9.343347e-003
9.335435e-003
9.327947e-003
9.320932e-003
9.314420e-003
9.308430e-003
9.302970e-003
9.298043e-003
9.293648e-003
9.289782e-003
9.286440e-003
9.283614e-003
9.281288e-003
9.279444e-003
9.278054e-003
9.277087e-003
9.276505e-003
9.276267e-003
9.276334e-003
9.276665e-003
9.277226e-003
9.277996e-003
9.278966e-003
9.280151e-003
9.281593e-003
9.283362e-003
9.285561e-003
9.288322e-003
9.291798e-003
9.296149e-003
9.301529e-003
9.308059e-003
9.315806e-003
9.324760e-003
9.334818e-003
9.345775e-003
9.357331e-003
9.369110e-003
9.380699e-003
9.391694e-003
9.401742e-003
9.410583e-003
9.418067e-003
9.424164e-003
9.428942e-003
9.432542e-003
9.435150e-003
9.436966e-003
9.438178e-003
9.438952e-003
9.439422e-003
9.439692e-003
9.439837e-003
9.439907e-003
9.439936e-003
9.439944e-003
9.439942e-003
9.439938e-003
9.439932e-003
9.439928e-003
9.439925e-003
9.439923e-003
9.439922e-003
9.439921e-003
9.439920e-003
9.439920e-003
9.439920e-003
9.439920e-003
9.439920e-003
9.439908e-003
9.439914e-003
9.439926e-003
9.439941e-003
9.439956e-003
9.439969e-003
9.439975e-003
9.439968e-003
9.439936e-003
9.439858e-003
9.439702e-003
9.439416e-003
9.438923e-003
9.438122e-003
9.436879e-003
9.435035e-003
9.432408e-003
9.428807e-003
9.424050e-003
9.417989e-003
9.410535e-003
9.401684e-003
9.391529e-003
9.380268e-003
9.368189e-003
9.355648e-003
9.343032e-003
9.330728e-003
9.319091e-003
9.308421e-003
9.298950e-003
9.290840e-003
9.284187e-003
9.279030e-003
9.275362e-003
9.273149e-003
9.272335e-003
9.272860e-003
9.274657e-003
9.277659e-003
9.281787e-003
9.286948e-003
9.293027e-003
9.299874e-003
9.307306e-003
9.315102e-003
9.323004e-003
9.330723e-003
9.337949e-003
9.344357e-003
9.349627e-003
9.353455e-003
9.355576e-003
9.355788e-003
9.353976e-003
9.350136e-003
9.344400e-003
9.337054e-003
9.328541e-003
9.319454e-003
9.310514e-003
9.302520e-003
9.296293e-003
9.292591e-003
9.292026e-003
9.294981e-003
9.301536e-003
9.311441e-003
9.324121e-003
9.338745e-003
9.354333e-003
9.369891e-003
9.384541e-003
9.397620e-003
9.408729e-003
9.417729e-003
9.424699e-003
9.429868e-003
9.433541e-003
9.436043e-003
9.437676e-003
9.438694e-003
9.439299e-003
9.439638e-003
9.439815e-003
9.439900e-003
9.439934e-003
9.439944e-003
9.439942e-003
9.439937e-003
9.439932e-003
9.439928e-003
9.439925e-003
9.439923e-003
9.439922e-003
9.439921e-003
9.439920e-003
9.439920e-003
9.439920e-003
9.439920e-003
9.439911e-003
9.439918e-003
9.439932e-003
9.439949e-003
9.439966e-003
9.439977e-003
9.439972e-003
9.439935e-003
9.439838e-003
9.439638e-003
9.439265e-003
9.438615e-003
9.437540e-003
9.435839e-003
9.433264e-003
9.429519e-003
9.424288e-003
9.417267e-003
9.408217e-003
9.397023e-003
9.383755e-003
9.368711e-003
9.352439e-003
9.335705e-003
9.319438e-003
9.304641e-003
9.292287e-003
9.283234e-003
9.278161e-003
9.277528e-003
9.281579e-003
9.290354e-003
9.303731e-003
9.321466e-003
9.343240e-003
9.368703e-003
9.397508e-003
9.429327e-003
9.463855e-003
9.500793e-003
9.539822e-003
9.580570e-003
9.622581e-003
9.665285e-003
9.707988e-003
9.749861e-003
9.789954e-003
9.827203e-003
9.860465e-003
9.888547e-003
9.910252e-003
9.924425e-003
9.930020e-003
9.926171e-003
9.912265e-003
9.888034e-003
9.853632e-003
9.809705e-003
9.757442e-003
9.698587e-003
9.635403e-003
9.570587e-003
9.507120e-003
9.448053e-003
9.396253e-003
9.354106e-003
9.323246e-003
9.304333e-003
9.296965e-003
9.299738e-003
9.310470e-003
9.326556e-003
9.345357e-003
9.364561e-003
9.382418e-003
9.397840e-003
9.410353e-003
9.419961e-003
9.426978e-003
9.431869e-003
9.435127e-003
9.437204e-003
9.438467e-003
9.439198e-003
9.439598e-003
9.439802e-003
9.439897e-003
9.439934e-003
9.439944e-003
9.439942e-003
9.439937e-003
9.439932e-003
9.439927e-003
9.439924e-003
9.439922e-003
9.439921e-003
9.439921e-003
9.439920e-003
9.439920e-003
9.439920e-003
9.439931e-003
9.439937e-003
9.439949e-003
9.439964e-003
9.439975e-003
9.439971e-003
9.439932e-003
9.439823e-003
9.439587e-003
9.439134e-003
9.438326e-003
9.436960e-003
9.434756e-003
9.431348e-003
9.426290e-003
9.419094e-003
9.409285e-003
9.396517e-003
9.380700e-003
9.362162e-003
9.341771e-003
9.321010e-003
9.301936e-003
9.287035e-003
9.278982e-003
9.280354e-003
9.293365e-003
9.319654e-003
9.360183e-003
9.415227e-003
9.484444e-003
9.567003e-003
9.661724e-003
9.767235e-003
9.882104e-003
1.000495e-002
1.013453e-002
1.026975e-002
1.040964e-002
1.055329e-002
1.069978e-002
1.084801e-002
1.099669e-002
1.114417e-002
1.128847e-002
1.142725e-002
1.155780e-002
1.167713e-002
1.178202e-002
1.186909e-002
1.193493e-002
1.197623e-002
1.198990e-002
1.197325e-002
1.192423e-002
1.184160e-002
1.172520e-002
1.157613e-002
1.139696e-002
1.119186e-002
1.096655e-002
1.072827e-002
1.048547e-002
1.024733e-002
1.002318e-002
9.821644e-003
9.649806e-003
9.512371e-003
9.411115e-003
9.344710e-003
9.309054e-003
9.298037e-003
9.304598e-003
9.321812e-003
9.343783e-003
9.366146e-003
9.386180e-003
9.402592e-003
9.415124e-003
9.424147e-003
9.430312e-003
9.434327e-003
9.436823e-003
9.438302e-003
9.439136e-003
9.439579e-003
9.439799e-003
9.439897e-003
9.439935e-003
9.439944e-003
9.439941e-003
9.439936e-003
9.439931e-003
9.439927e-003
9.439924e-003
9.439922e-003
9.439921e-003
9.439921e-003
9.439920e-003
9.439920e-003
9.439963e-003
9.439967e-003
9.439975e-003
9.439980e-003
9.439973e-003
9.439931e-003
9.439815e-003
9.439555e-003
9.439039e-003
9.438094e-003
9.436456e-003
9.433751e-003
9.429474e-003
9.422996e-003
9.413602e-003
9.400607e-003
9.383557e-003
9.362523e-003
9.338471e-003
9.313622e-003
9.291701e-003
9.277935e-003
9.278743e-003
9.301134e-003
9.351917e-003
9.436897e-003
9.560236e-003
9.724084e-003
9.928528e-003
1.017181e-002
1.045073e-002
1.076110e-002
1.109824e-002
1.145734e-002
1.183386e-002
1.222372e-002
1.262345e-002
1.303016e-002
1.344146e-002
1.385520e-002
1.426919e-002
1.468096e-002
1.508745e-002
1.548488e-002
1.586863e-002
1.623326e-002
1.657250e-002
1.687945e-002
1.714663e-002
1.736624e-002
1.753033e-002
1.763105e-002
1.766093e-002
1.761326e-002
1.748244e-002
1.726453e-002
1.695771e-002
1.656285e-002
1.608406e-002
1.552908e-002
1.490963e-002
1.424149e-002
1.354421e-002
1.284044e-002
1.215472e-002
1.151166e-002
1.093367e-002
1.043858e-002
1.003750e-002
9.733476e-003
9.521442e-003
9.389465e-003
9.321107e-003
9.298320e-003
9.304180e-003
9.324832e-003
9.350385e-003
9.374812e-003
9.395188e-003
9.410697e-003
9.421701e-003
9.429068e-003
9.433753e-003
9.436590e-003
9.438226e-003
9.439123e-003
9.439585e-003
9.439807e-003
9.439903e-003
9.439937e-003
9.439944e-003
9.439940e-003
9.439935e-003
9.439930e-003
9.439926e-003
9.439923e-003
9.439922e-003
9.439921e-003
9.439921e-003
9.439920e-003
9.440000e-003
9.440001e-003
9.439999e-003
9.439986e-003
9.439940e-003
9.439819e-003
9.439547e-003
9.438994e-003
9.437951e-003
9.436096e-003
9.432954e-003
9.427868e-003
9.419990e-003
9.408341e-003
9.391983e-003
9.370375e-003
9.343967e-003
9.315017e-003
9.288501e-003
9.272875e-003
9.280338e-003
9.326319e-003
9.428105e-003
9.602829e-003
9.865242e-003
1.022579e-002
1.068942e-002
1.125530e-002
1.191736e-002
1.266548e-002
1.348689e-002
1.436762e-002
1.529367e-002
1.625193e-002
1.723082e-002
1.822065e-002
1.921369e-002
2.020398e-002
2.118691e-002
2.215860e-002
2.311522e-002
2.405235e-002
2.496450e-002
2.584467e-002
2.668430e-002
2.747319e-002
2.819967e-002
2.885081e-002
2.941267e-002
2.987061e-002
3.020957e-002
3.041442e-002
3.047039e-002
3.036353e-002
3.008139e-002
2.961377e-002
2.895365e-002
2.809827e-002
2.705036e-002
2.581934e-002
2.442258e-002
2.288633e-002
2.124635e-002
1.954763e-002
1.784303e-002
1.619030e-002
1.464747e-002
1.326697e-002
1.208931e-002
1.113791e-002
1.041622e-002
9.908329e-003
9.582919e-003
9.399762e-003
9.316909e-003
9.296814e-003
9.310111e-003
9.336727e-003
9.364877e-003
9.388946e-003
9.407205e-003
9.419958e-003
9.428310e-003
9.433488e-003
9.436540e-003
9.438251e-003
9.439160e-003
9.439615e-003
9.439824e-003
9.439911e-003
9.439939e-003
9.439943e-003
9.439939e-003
9.439933e-003
9.439928e-003
9.439925e-003
9.439923e-003
9.439921e-003
9.439921e-003
9.439920e-003
9.440032e-003
9.440027e-003
9.440010e-003
9.439961e-003
9.439840e-003
9.439567e-003
9.439004e-003
9.437916e-003
9.435928e-003
9.432474e-003
9.426740e-003
9.417647e-003
9.403912e-003
9.384303e-003
9.358210e-003
9.326721e-003
9.294243e-003
9.270574e-003
9.272920e-003
9.327068e-003
9.466879e-003
9.731587e-003
1.016111e-002
1.079038e-002
1.164399e-002
1.273265e-002
1.405199e-002
1.558389e-002
1.729969e-002
1.916423e-002
2.113995e-002
2.319021e-002
2.528172e-002
2.738594e-002
2.947977e-002
3.154557e-002
3.357074e-002
3.554678e-002
3.746818e-002
3.933093e-002
4.113126e-002
4.286441e-002
4.452373e-002
4.610027e-002
4.758250e-002
4.895646e-002
5.020600e-002
5.131316e-002
5.225844e-002
5.302115e-002
5.357964e-002
5.391154e-002
5.399404e-002
5.380426e-002
5.331976e-002
5.251936e-002
5.138424e-002
4.989942e-002
4.805582e-002
4.585268e-002
4.330062e-002
4.042503e-002
3.726958e-002
3.389904e-002
3.040047e-002
2.688139e-002
2.346360e-002
2.027247e-002
1.742238e-002
1.500124e-002
1.305759e-002
1.159442e-002
1.057180e-002
9.917733e-003
9.544243e-003
9.363674e-003
9.301137e-003
9.300806e-003
9.326335e-003
9.357370e-003
9.384583e-003
9.405097e-003
9.419160e-003
9.428149e-003
9.433574e-003
9.436682e-003
9.438372e-003
9.439242e-003
9.439662e-003
9.439848e-003
9.439920e-003
9.439941e-003
9.439942e-003
9.439937e-003
9.439932e-003
9.439927e-003
9.439924e-003
9.439922e-003
9.439921e-003
9.439921e-003
9.440053e-003
9.440037e-003
9.439990e-003
9.439875e-003
9.439615e-003
9.439069e-003
9.437991e-003
9.435972e-003
9.432372e-003
9.426241e-003
9.416274e-003
9.400867e-003
9.378443e-003
9.348293e-003
9.312294e-003
9.277833e-003
9.261913e-003
9.295784e-003
9.428520e-003
9.727429e-003
1.027352e-002
1.115170e-002
1.243742e-002
1.418315e-002
1.640847e-002
1.909640e-002
2.219661e-002
2.563387e-002
2.931922e-002
3.316092e-002
3.707324e-002
4.098220e-002
4.482827e-002
4.856675e-002
5.216677e-002
5.560934e-002
5.888503e-002
6.199140e-002
6.493034e-002
6.770565e-002
7.032096e-002
7.277813e-002
7.507636e-002
7.721167e-002
7.917699e-002
8.096245e-002
8.255576e-002
8.394261e-002
8.510693e-002
8.603093e-002
8.669500e-002
8.707740e-002
8.715397e-002
8.689771e-002
8.627847e-002
8.526288e-002
8.381456e-002
8.189505e-002
7.946542e-002
7.648928e-002
7.293739e-002
6.879432e-002
6.406729e-002
5.879660e-002
5.306621e-002
4.701153e-002
4.082065e-002
3.472497e-002
2.897686e-002
2.381607e-002
1.943162e-002
1.592994e-002
1.331984e-002
1.151986e-002
1.038508e-002
9.743760e-003
9.431475e-003
9.314053e-003
9.296380e-003
9.319738e-003
9.352986e-003
9.382611e-003
9.404652e-003
9.419420e-003
9.428609e-003
9.433997e-003
9.436992e-003
9.438570e-003
9.439355e-003
9.439720e-003
9.439874e-003
9.439929e-003
9.439943e-003
9.439941e-003
9.439935e-003
9.439930e-003
9.439926e-003
9.439923e-003
9.439922e-003
9.439921e-003
9.440052e-003
9.440017e-003
9.439916e-003
9.439682e-003
9.439179e-003
9.438163e-003
9.436215e-003
9.432653e-003
9.426431e-003
9.416051e-003
9.399599e-003
9.375105e-003
9.341635e-003
9.301762e-003
9.266186e-003
9.260966e-003
9.336725e-003
9.577293e-003
1.010342e-002
1.106667e-002
1.263102e-002
1.494402e-002
1.810500e-002
2.214003e-002
2.699213e-002
3.252953e-002
3.856841e-002
4.490239e-002
5.133039e-002
5.767734e-002
6.380535e-002
6.961664e-002
7.505046e-002
8.007693e-002
8.468979e-002
8.889942e-002
9.272672e-002
9.619821e-002
9.934214e-002
1.021858e-001
1.047538e-001
1.070669e-001
1.091424e-001
1.109936e-001
1.126307e-001
1.140613e-001
1.152906e-001
1.163218e-001
1.171562e-001
1.177926e-001
1.182269e-001
1.184515e-001
1.184541e-001
1.182166e-001
1.177133e-001
1.169096e-001
1.157601e-001
1.142064e-001
1.121762e-001
1.095825e-001
1.063257e-001
1.022983e-001
9.739633e-002
9.153570e-002
8.467752e-002
7.685798e-002
6.821854e-002
5.902591e-002
4.966837e-002
4.061759e-002
3.235585e-002
2.528502e-002
1.964711e-002
1.548597e-002
1.266399e-002
1.092293e-002
9.961661e-003
9.502321e-003
9.328583e-003
9.295048e-003
9.316973e-003
9.352088e-003
9.383257e-003
9.405929e-003
9.420699e-003
9.429620e-003
9.434692e-003
9.437423e-003
9.438815e-003
9.439483e-003
9.439780e-003
9.439898e-003
9.439936e-003
9.439943e-003
9.439939e-003
9.439933e-003
9.439928e-003
9.439925e-003
9.439923e-003
9.439922e-003
9.440021e-003
9.439948e-003
9.439752e-003
9.439314e-003
9.438404e-003
9.436617e-003
9.433267e-003
9.427265e-003
9.416988e-003
9.400258e-003
9.374688e-003
9.338918e-003
9.295760e-003
9.258660e-003
9.262899e-003
9.381548e-003
9.743020e-003
1.054258e-002
1.203712e-002
1.451426e-002
1.823568e-002
2.336773e-002
2.992310e-002
3.773762e-002
4.649283e-002
5.577618e-002
6.515631e-002
7.424916e-002
8.275990e-002
9.049713e-002
9.736580e-002
1.033482e-001
1.084814e-001
1.128363e-001
1.165000e-001
1.195634e-001
1.221130e-001
1.242266e-001
1.259718e-001
1.274065e-001
1.285797e-001
1.295329e-001
1.303013e-001
1.309151e-001
1.313997e-001
1.317765e-001
1.320634e-001
1.322748e-001
1.324220e-001
1.325131e-001
1.325533e-001
1.325446e-001
1.324856e-001
1.323708e-001
1.321900e-001
1.319262e-001
1.315538e-001
1.310348e-001
1.303139e-001
1.293115e-001
1.279164e-001
1.259766e-001
1.232943e-001
1.196271e-001
1.147040e-001
1.082635e-001
1.001190e-001
9.024869e-002
7.888353e-002
6.655239e-002
5.404113e-002
4.225125e-002
3.199310e-002
2.379347e-002
1.779995e-002
1.381447e-002
1.142186e-002
1.014316e-002
9.553118e-003
9.336985e-003
9.295041e-003
9.317935e-003
9.354736e-003
9.386440e-003
9.408751e-003
9.422814e-003
9.431035e-003
9.435559e-003
9.437915e-003
9.439074e-003
9.439608e-003
9.439834e-003
9.439917e-003
9.439941e-003
9.439942e-003
9.439936e-003
9.439930e-003
9.439926e-003
9.439924e-003
9.439923e-003
9.439942e-003
9.439806e-003
9.439450e-003
9.438677e-003
9.437118e-003
9.434121e-003
9.428614e-003
9.418933e-003
9.402730e-003
9.377226e-003
9.340433e-003
9.294664e-003
9.254520e-003
9.262140e-003
9.411433e-003
9.878631e-003
1.094835e-002
1.301539e-002
1.654011e-002
2.194742e-002
2.948784e-002
3.911140e-002
5.041670e-002
6.271078e-002
7.516179e-002
8.698126e-002
9.756758e-002
1.065728e-001
1.138938e-001
1.196149e-001
1.239340e-001
1.270981e-001
1.293566e-001
1.309337e-001
1.320142e-001
1.327416e-001
1.332217e-001
1.335310e-001
1.337243e-001
1.338410e-001
1.339100e-001
1.339519e-001
1.339811e-001
1.340071e-001
1.340352e-001
1.340675e-001
1.341043e-001
1.341448e-001
1.341877e-001
1.342320e-001
1.342765e-001
1.343199e-001
1.343603e-001
1.343944e-001
1.344171e-001
1.344207e-001
1.343946e-001
1.343253e-001
1.341962e-001
1.339869e-001
1.336699e-001
1.332027e-001
1.325118e-001
1.314662e-001
1.298377e-001
1.272597e-001
1.232089e-001
1.170651e-001
1.082892e-001
9.669444e-002
8.269189e-002
6.734742e-002
5.215550e-002
3.859898e-002
2.770795e-002
1.983598e-002
1.472480e-002
1.175736e-002
1.023512e-002
9.565657e-003
9.334819e-003
9.295866e-003
9.322632e-003
9.360706e-003
9.391780e-003
9.412745e-003