# vtk DataFile Version 3.0
vtk output
ASCII
DATASET STRUCTURED_POINTS
DIMENSIONS 100 100 1
SPACING 1 1 1
ORIGIN 0 0 0
POINT_DATA 10000
SCALARS SFBox_profile double
LOOKUP_TABLE default 
0.000000e+000
0.000000e+000
0.000000e+000
0.000000e+000
0.000000e+000
0.000000e+000
0.000000e+000
0.000000e+000
0.000000e+000
0.000000e+000
0.000000e+000
0.000000e+000
0.000000e+000
0.000000e+000
0.000000e+000
0.000000e+000
0.000000e+000
0.000000e+000
0.000000e+000
0.000000e+000
0.000000e+000
0.000000e+000
0.000000e+000
0.000000e+000
0.000000e+000
0.000000e+000
0.000000e+000
0.000000e+000
0.000000e+000
0.000000e+000
0.000000e+000
0.000000e+000
0.000000e+000
0.000000e+000
0.000000e+000
0.000000e+000
0.000000e+000
0.000000e+000
0.000000e+000
0.000000e+000
0.000000e+000
0.000000e+000
0.000000e+000
0.000000e+000
0.000000e+000
0.000000e+000
0.000000e+000
0.000000e+000
0.000000e+000
0.000000e+000
0.000000e+000
0.000000e+000
0.000000e+000
0.000000e+000
0.000000e+000
0.000000e+000
0.000000e+000
0.000000e+000
0.000000e+000
0.000000e+000
0.000000e+000
0.000000e+000
0.000000e+000
0.000000e+000
0.000000e+000
0.000000e+000
0.000000e+000
0.000000e+000
0.000000e+000
0.000000e+000
0.000000e+000
0.000000e+000
0.000000e+000
0.000000e+000
0.000000e+000
0.000000e+000
0.000000e+000
0.000000e+000
0.000000e+000
0.000000e+000
0.000000e+000
0.000000e+000
0.000000e+000
0.000000e+000
0.000000e+000
0.000000e+000
0.000000e+000
0.000000e+000
0.000000e+000
0.000000e+000
0.000000e+000
0.000000e+000
0.000000e+000
0.000000e+000
0.000000e+000
0.000000e+000
0.000000e+000
0.000000e+000
0.000000e+000
0.000000e+000
-1.458794e-010
5.719913e-012
1.257938e-010
9.062640e-011
-2.452096e-011
-6.569882e-011
-8.683030e-012
2.974221e-011
-1.720674e-011
-6.351177e-011
-1.366913e-011
7.508102e-011
7.550911e-011
-1.097424e-011
-6.008086e-011
-1.960253e-011
2.620425e-011
8.562258e-012
-2.702027e-011
-2.024455e-011
5.114240e-012
2.241726e-012
-1.409617e-011
-5.289295e-012
2.161057e-011
3.486243e-011
3.138658e-011
2.725172e-011
2.175207e-011
4.033099e-012
-2.222715e-011
-4.444637e-011
-5.927507e-011
-6.958032e-011
-7.290909e-011
-6.416660e-011
-4.375830e-011
-1.618086e-011
1.530059e-011
4.860367e-011
8.076757e-011
1.090205e-010
1.325085e-010
1.515894e-010
1.665483e-010
1.777750e-010
1.862028e-010
1.928275e-010
1.982881e-010
2.030532e-010
2.075044e-010
2.117662e-010
2.156395e-010
2.186422e-010
2.200494e-010
2.189306e-010
2.141844e-010
2.045786e-010
1.889423e-010
1.664284e-010
1.366930e-010
1.000595e-010
5.771555e-011
1.176893e-011
-3.486491e-011
-7.857988e-011
-1.152687e-010
-1.407750e-010
-1.515632e-010
-1.453834e-010
-1.217529e-010
-8.234162e-011
-3.151103e-011
2.322891e-011
7.188621e-011
1.042682e-010
1.125659e-010
9.319102e-011
4.886794e-011
-9.077885e-012
-6.205618e-011
-9.122905e-011
-8.553374e-011
-4.579321e-011
1.355057e-011
6.512304e-011
7.957574e-011
4.723562e-011
-9.524920e-012
-5.193266e-011
-5.558749e-011
-2.489563e-011
1.712258e-011
4.446537e-011
3.864192e-011
1.151101e-012
-3.844867e-011
-4.185986e-011
-2.700651e-012
3.952416e-011
4.743074e-011
8.050714e-012
-2.257016e-011
-2.473932e-011
-2.450348e-011
-3.179485e-011
-1.397320e-011
4.051908e-011
7.734335e-011
4.296491e-011
-3.152355e-011
-6.683273e-011
-4.080623e-011
-2.821589e-012
9.374550e-012
9.268362e-012
1.479589e-011
1.725267e-011
1.061228e-011
8.297337e-012
1.589610e-011
1.919569e-011
9.110423e-012
-6.877056e-012
-2.248338e-011
-3.948912e-011
-5.422245e-011
-5.573071e-011
-3.978791e-011
-1.219670e-011
2.117307e-011
5.739111e-011
9.113127e-011
1.147740e-010
1.235266e-010
1.161028e-010
9.222302e-011
5.306909e-011
2.907043e-012
-5.229843e-011
-1.075522e-010
-1.594685e-010
-2.056251e-010
-2.446518e-010
-2.765495e-010
-3.021664e-010
-3.224815e-010
-3.385236e-010
-3.513611e-010
-3.618273e-010
-3.703571e-010
-3.769920e-010
-3.813591e-010
-3.826504e-010
-3.796661e-010
-3.708831e-010
-3.545741e-010
-3.290466e-010
-2.929152e-010
-2.454048e-010
-1.867262e-010
-1.183708e-010
-4.319579e-011
3.458521e-011
1.095175e-010
1.752364e-010
2.251168e-010
2.531557e-010
2.549050e-010
2.283317e-010
1.746797e-010
9.934144e-011
1.228591e-011
-7.269689e-011
-1.400731e-010
-1.755399e-010
-1.697535e-010
-1.224129e-010
-4.483104e-011
4.118055e-011
1.085929e-010
1.337085e-010
1.064149e-010
3.786218e-011
-4.096169e-011
-9.244246e-011
-9.178004e-011
-4.203823e-011
2.511265e-011
6.721546e-011
5.957790e-011
1.374270e-011
-3.219988e-011
-4.524274e-011
-2.252679e-011
1.162516e-011
2.959007e-011
2.129665e-011
-2.580038e-012
-2.189133e-011
2.021081e-010
-2.152354e-011
-1.877974e-010
-1.181400e-010
5.759699e-011
1.080320e-010
1.375633e-011
-4.756377e-011
8.256619e-012
5.850388e-011
-4.039623e-012
-8.845062e-011
-5.805992e-011
4.565841e-011
7.609154e-011
1.202476e-011
-3.476300e-011
-1.165603e-011
1.720983e-011
3.845170e-012
-1.606138e-011
-7.583621e-012
6.385067e-012
-5.844747e-013
-1.408343e-011
-1.307783e-011
-2.738953e-012
4.852525e-012
1.123244e-011
1.992468e-011
2.527197e-011
2.167092e-011
1.135762e-011
-1.564261e-012
-1.655688e-011
-3.357223e-011
-4.995599e-011
-6.227025e-011
-6.849792e-011
-6.786494e-011
-6.043958e-011
-4.739347e-011
-3.068216e-011
-1.221926e-011
6.448282e-012
2.406148e-011
3.966469e-011
5.260623e-011
6.245310e-011
6.890348e-011
7.169415e-011
7.060061e-011
6.546835e-011
5.621224e-011
4.281865e-011
2.543276e-011
4.482773e-012
-1.922416e-011
-4.446013e-011
-6.958462e-011
-9.265032e-011
-1.115659e-010
-1.242509e-010
-1.288117e-010
-1.238004e-010
-1.086189e-010
-8.388194e-011
-5.149990e-011
-1.456058e-011
2.273217e-011
5.507262e-011
7.659843e-011
8.236393e-011
7.018533e-011
4.181046e-011
3.142210e-012
-3.612933e-011
-6.389974e-011
-6.930110e-011
-4.822618e-011
-7.240772e-012
3.748615e-011
6.584552e-011
6.185991e-011
2.338860e-011
-3.048861e-011
-6.549184e-011
-5.617042e-011
-9.341413e-012
3.970952e-011
5.677792e-011
3.361531e-011
-1.135460e-011
-4.681135e-011
-4.532413e-011
-3.999804e-012
4.327244e-011
4.915748e-011
3.718516e-012
-4.644581e-011
8.903531e-011
-3.532957e-011
-1.258919e-010
-5.664498e-011
1.054441e-010
1.598795e-010
2.409815e-011
-1.412101e-010
-1.377922e-010
3.459237e-012
8.804919e-011
4.829643e-011
2.276361e-012
2.321626e-011
3.400284e-011
-1.999265e-011
-6.264540e-011
-3.025545e-011
1.607614e-011
5.251479e-012
-2.879556e-011
-2.485133e-011
4.083676e-012
1.689825e-011
2.034154e-011
3.879783e-011
5.987661e-011
5.706885e-011
3.147017e-011
-5.556355e-013
-3.474282e-011
-7.211395e-011
-1.039739e-010
-1.192722e-010
-1.156995e-010
-9.544199e-011
-5.874395e-011
-7.043488e-012
5.343031e-011
1.148817e-010
1.719038e-010
2.213269e-010
2.611967e-010
2.911810e-010
3.126274e-010
3.275431e-010
3.378471e-010
3.453407e-010
3.516989e-010
3.582110e-010
3.656059e-010
3.740934e-010
3.833953e-010
3.926724e-010
4.004920e-010
4.048750e-010
4.034079e-010
3.934396e-010
3.723728e-010
3.380737e-010
2.893307e-010
2.262299e-010
1.504031e-010
6.524740e-011
-2.389765e-011
-1.099597e-010
-1.848493e-010
-2.403706e-010
-2.690503e-010
-2.650912e-010
-2.259920e-010
-1.545800e-010
-6.016738e-011
4.202569e-011
1.327030e-010
1.913568e-010
2.013447e-010
1.570115e-010
6.897231e-011
-3.656073e-011
-1.243059e-010
-1.606689e-010
-1.286298e-010
-4.186992e-011
5.573722e-011
1.132103e-010
1.036042e-010
3.886018e-011
-3.904378e-011
-8.136085e-011
-6.193277e-011
-5.229577e-014
4.932079e-011
4.497679e-011
1.970184e-012
-2.792553e-011
-1.871318e-011
4.763820e-012
9.528316e-012
-4.069736e-013
-1.970875e-010
3.065278e-011
1.794056e-010
9.427987e-011
-5.271587e-011
-6.803367e-011
-6.771823e-012
-1.164181e-011
-5.008232e-011
-2.329805e-012
9.155036e-011
8.465010e-011
-2.345852e-011
-8.636790e-011
-4.732486e-011
4.308968e-012
9.225031e-012
7.470860e-012
2.451915e-011
2.726521e-011
7.041415e-012
-1.145507e-012
1.014589e-011
1.131693e-011
-5.110366e-012
-1.847288e-011
-2.400317e-011
-3.386476e-011
-4.457580e-011
-3.987656e-011
-1.704729e-011
1.373611e-011
4.674686e-011
8.073566e-011
1.099792e-010
1.270788e-010
1.295943e-010
1.178701e-010
9.120743e-011
5.018542e-011
-8.049589e-013
-5.593125e-011
-1.108341e-010
-1.625786e-010
-2.089178e-010
-2.486406e-010
-2.817216e-010
-3.086379e-010
-3.297960e-010
-3.455095e-010
-3.559686e-010
-3.610352e-010
-3.601601e-010
-3.524636e-010
-3.368157e-010
-3.119839e-010
-2.768961e-010
-2.309674e-010
-1.744436e-010
-1.086599e-010
-3.610477e-011
3.957031e-011
1.134896e-010
1.796959e-010
2.317954e-010
2.639212e-010
2.715269e-010
2.519286e-010
2.050754e-010
1.348546e-010
5.004513e-011
-3.636834e-011
-1.093462e-010
-1.543718e-010
-1.606936e-010
-1.257526e-010
-5.870749e-011
2.008345e-011
8.421340e-011
1.096641e-010
8.551806e-011
2.311415e-011
-4.493645e-011
-8.069485e-011
-6.380587e-011
-6.066112e-012
5.283659e-011
6.959320e-011
3.050950e-011
-3.235716e-011
-6.488663e-011
-3.986870e-011
1.727124e-011
5.412728e-011
4.072888e-011
-6.588742e-012
-4.398066e-011
-3.930865e-011
1.192302e-012
3.920046e-011
-2.588741e-010
8.862825e-011
3.103109e-010
1.172557e-010
-2.255706e-010
-2.697592e-010
1.318921e-011
2.311710e-010
1.446354e-010
-4.902198e-011
-8.970832e-011
-2.504432e-011
-2.463427e-011
-6.213590e-011
-1.669771e-011
7.180345e-011
7.672300e-011
8.246538e-012
-2.536635e-011
-2.963751e-012
1.231667e-011
1.273247e-013
-9.510075e-012
-1.134599e-011
-2.322896e-011
-3.989694e-011
-4.177198e-011
-2.650463e-011
-2.344447e-012
2.842850e-011
6.231496e-011
8.792489e-011
9.634201e-011
8.748350e-011
6.374591e-011
2.643812e-011
-2.074183e-011
-7.104485e-011
-1.178323e-010
-1.556603e-010
-1.800426e-010
-1.889754e-010
-1.840446e-010
-1.689425e-010
-1.475228e-010
-1.233688e-010
-9.985724e-011
-7.980615e-011
-6.522666e-011
-5.756122e-011
-5.785949e-011
-6.669813e-011
-8.414284e-011
-1.097586e-010
-1.424800e-010
-1.804667e-010
-2.210300e-010
-2.606318e-010
-2.950933e-010
-3.199919e-010
-3.310335e-010
-3.243881e-010
-2.972638e-010
-2.487433e-010
-1.804672e-010
-9.673394e-011
-4.207106e-012
8.813704e-011
1.689406e-010
2.255223e-010
2.465917e-010
2.253399e-010
1.618570e-010
6.515839e-011
-4.566167e-011
-1.433971e-010
-1.992142e-010
-1.924387e-010
-1.207167e-010
-6.237920e-012
1.073565e-010
1.704007e-010
1.514164e-010
5.869184e-011
-5.695762e-011
-1.283444e-010
-1.154617e-010
-3.404771e-011
5.570650e-011
9.212662e-011
5.541442e-011
-1.731461e-011
-6.014033e-011
-3.772324e-011
1.679295e-011
3.785789e-011
7.146239e-012
-2.539252e-011
-1.390583e-011
1.843215e-011
7.862864e-011
-2.123392e-013
-3.891533e-011
-3.119867e-011
-5.428915e-011
-5.924598e-011
5.056567e-011
1.652914e-010
8.192832e-011
-1.314948e-010
-1.885250e-010
-2.525354e-011
1.166056e-010
8.881680e-011
1.503521e-011
1.009107e-011
9.007046e-012
-4.234525e-011
-7.019024e-011
-2.958456e-011
1.044179e-011
2.789701e-013
-1.648501e-011
-4.555242e-013
2.533143e-011
3.738180e-011
4.746365e-011
6.216134e-011
6.459205e-011
4.396249e-011
8.054141e-012
-3.325666e-011
-7.396346e-011
-1.048204e-010
-1.155089e-010
-1.021205e-010
-6.592124e-011
-8.568016e-012
6.723831e-011
1.554239e-010
2.477660e-010
3.365390e-010
4.158990e-010
4.825301e-010
5.358526e-010
5.772454e-010
6.088771e-010
6.330553e-010
6.519629e-010
6.673009e-010
6.800304e-010
6.903510e-010
6.976735e-010
7.005440e-010
6.966975e-010
6.832141e-010
6.568337e-010
6.144992e-010
5.539200e-010
4.739587e-010
3.749980e-010
2.594973e-010
1.325707e-010
2.016037e-012
-1.224478e-010
-2.301640e-010
-3.100926e-010
-3.515740e-010
-3.465867e-010
-2.929029e-010
-1.962279e-010
-7.065578e-011
6.188626e-011
1.738534e-010
2.377128e-010
2.348255e-010
1.643168e-010
4.760572e-011
-7.462181e-011
-1.546512e-010
-1.582169e-010
-8.575962e-011
2.096238e-011
9.908137e-011
1.035811e-010
3.789389e-011
-4.684699e-011
-8.548484e-011
-4.763350e-011
3.169468e-011
7.612874e-011
4.187850e-011
-3.166533e-011
-6.397859e-011
-2.696793e-011
2.781671e-011
4.120899e-011
1.477542e-011
-1.137362e-011
-1.950453e-011
4.037139e-010
-1.525020e-010
-4.538832e-010
-1.199057e-010
3.218543e-010
2.878163e-010
-6.449116e-011
-2.238618e-010
-1.039792e-010
9.808360e-012
2.259107e-011
6.629334e-011
1.265824e-010
6.302964e-011
-7.842063e-011
-1.185747e-010
-4.455520e-011
1.117850e-011
1.149010e-011
1.761585e-011
3.357619e-011
2.066946e-011
-1.716471e-012
7.017822e-012
3.042715e-011
3.220940e-011
1.683190e-011
4.078994e-012
-8.607255e-012
-2.613191e-011
-3.438826e-011
-1.867609e-011
1.982424e-011
7.364936e-011
1.376763e-010
2.049371e-010
2.656949e-010
3.126800e-010
3.419215e-010
3.500331e-010
3.351821e-010
2.998811e-010
2.503637e-010
1.936065e-010
1.355234e-010
8.058637e-011
3.174064e-011
-9.396168e-012
-4.194903e-011
-6.532548e-011
-7.900729e-011
-8.237685e-011
-7.462715e-011
-5.486108e-011
-2.233291e-011
2.315944e-011
8.082063e-011
1.485944e-010
2.231240e-010
2.997235e-010
3.722638e-010
4.332719e-010
4.747691e-010
4.896868e-010
4.728459e-010
4.212028e-010
3.346687e-010
2.182123e-010
8.345708e-011
-5.209518e-011
-1.675445e-010
-2.415299e-010
-2.565369e-010
-2.055496e-010
-9.856027e-011
3.558366e-011
1.543591e-010
2.136702e-010
1.857762e-010
7.766181e-011
-6.291567e-011
-1.653826e-010
-1.740677e-010
-8.402938e-011
4.928671e-011
1.390172e-010
1.252875e-010
2.490916e-011
-7.681469e-011
-9.868947e-011
-3.636117e-011
3.990174e-011
5.939321e-011
1.769963e-011
-2.938398e-011
-3.098674e-011
5.462042e-012
2.891984e-011
1.005112e-011
-2.244931e-011
1.996721e-010
-1.138689e-010
-2.714098e-010
-1.345380e-011
3.109470e-010
2.088723e-010
-2.094761e-010
-3.519832e-010
-2.815610e-011
2.859375e-010
2.059423e-010
-4.980499e-011
-1.336247e-010
-7.702560e-011
-5.470440e-011
-3.880758e-011
4.339069e-011
1.059456e-010
6.783813e-011
1.320778e-012
-1.206093e-011
-1.224133e-013
-5.496118e-012
-1.371493e-011
-1.247493e-011
-1.841369e-011
-2.975121e-011
-2.160181e-011
1.346029e-011
6.388544e-011
1.245328e-010
1.931307e-010
2.554873e-010
2.945537e-010
3.050379e-010
2.903860e-010
2.548322e-010
2.038142e-010
1.455937e-010
8.892440e-011
4.145710e-011
9.788151e-012
-2.190738e-012
4.611970e-012
2.523144e-011
5.326148e-011
8.252280e-011
1.075268e-010
1.238075e-010
1.281710e-010
1.186157e-010
9.423476e-011
5.530854e-011
3.468147e-012
-5.814475e-011
-1.248534e-010
-1.907062e-010
-2.489844e-010
-2.926631e-010
-3.147594e-010
-3.090393e-010
-2.714621e-010
-2.016000e-010
-1.028452e-010
1.807146e-011
1.506025e-010
2.793571e-010
3.850861e-010
4.483200e-010
4.534282e-010
3.920381e-010
2.671737e-010
9.754547e-011
-8.203134e-011
-2.269514e-010
-2.949468e-010
-2.618225e-010
-1.367878e-010
3.178484e-011
1.704601e-010
2.142375e-010
1.439419e-010
4.237107e-012
-1.161818e-010
-1.403187e-010
-6.049160e-011
5.173231e-011
1.016359e-010
5.223047e-011
-4.154751e-011
-8.345941e-011
-3.296954e-011
4.871867e-011
6.684899e-011
7.742187e-012
-4.691151e-011
-3.331798e-011
1.197979e-011
2.035242e-011
-2.674463e-012
-3.677063e-010
1.486022e-010
3.873661e-010
8.324894e-011
-2.282579e-010
-1.856950e-010
-1.868168e-011
5.936207e-011
1.323466e-010
1.746670e-010
1.502252e-011
-2.253146e-010
-2.191008e-010
2.207239e-011
1.715277e-010
1.147840e-010
2.699205e-011
1.321511e-013
-3.323744e-011
-7.558405e-011
-5.796033e-011
7.804628e-013
2.638618e-011
1.864918e-011
2.521250e-011
5.320728e-011
8.478955e-011
1.218449e-010
1.677171e-010
2.070462e-010
2.271371e-010
2.311405e-010
2.250515e-010
2.138565e-010
2.097304e-010
2.281569e-010
2.768122e-010
3.554015e-010
4.620423e-010
5.940719e-010
7.453339e-010
9.062723e-010
1.066111e-009
1.214820e-009
1.345083e-009
1.453642e-009
1.540611e-009
1.607610e-009
1.656505e-009
1.688932e-009
1.705871e-009
1.707255e-009
1.691860e-009
1.657411e-009
1.600919e-009
1.519331e-009
1.410287e-009
1.272582e-009
1.106514e-009
9.147040e-010
7.033041e-010
4.822636e-010
2.640454e-010
6.235202e-011
-1.077873e-010
-2.303380e-010
-2.913618e-010
-2.835361e-010
-2.089726e-010
-8.043666e-011
7.743312e-011
2.288104e-010
3.329016e-010
3.554384e-010
2.818029e-010
1.278996e-010
-5.681969e-011
-2.014987e-010
-2.429306e-010
-1.608704e-010
1.242640e-012
1.503442e-010
1.954380e-010
1.096737e-010
-4.347766e-011
-1.494685e-010
-1.292320e-010
-8.683989e-012
9.824905e-011
9.644482e-011
6.620203e-012
-6.279216e-011
-4.536970e-011
1.358093e-011
3.380728e-011
6.143077e-012
-1.790511e-011
-1.187420e-011
3.296489e-012
8.958567e-012
-5.506188e-010
3.050438e-010
6.422681e-010
-2.005681e-011
-6.074872e-010
-2.656147e-010
3.931366e-010
4.180734e-010
-5.983668e-011
-3.072233e-010
-1.698065e-010
2.568907e-012
8.632871e-011
1.633001e-010
1.552923e-010
-8.263610e-012
-1.552336e-010
-1.312458e-010
-3.008421e-011
1.854402e-011
3.592539e-011
6.558969e-011
7.879652e-011
6.955757e-011
8.375871e-011
1.313096e-010
1.752896e-010
2.001627e-010
2.203500e-010
2.427597e-010
2.681177e-010
3.098263e-010
3.841822e-010
4.954189e-010
6.394442e-010
8.083951e-010
9.878864e-010
1.160246e-009
1.312519e-009
1.437116e-009
1.527576e-009
1.579046e-009
1.592089e-009
1.573302e-009
1.532569e-009
1.480199e-009
1.425037e-009
1.373464e-009
1.329609e-009
1.296274e-009
1.275555e-009
1.268983e-009
1.277486e-009
1.301120e-009
1.338531e-009
1.386589e-009
1.440524e-009
1.494060e-009
1.539030e-009
1.565160e-009
1.561328e-009
1.517941e-009
1.428097e-009
1.287218e-009
1.094034e-009
8.540792e-010
5.822820e-010
3.020318e-010
4.282112e-011
-1.619806e-010
-2.801944e-010
-2.906411e-010
-1.939585e-010
-1.924861e-011
1.767596e-010
3.215604e-010
3.519937e-010
2.463571e-010
4.590063e-011
-1.541750e-010
-2.502634e-010
-1.928618e-010
-2.608876e-011
1.317779e-010
1.683653e-010
6.769930e-011
-6.981065e-011
-1.160221e-010
-4.017659e-011
6.277403e-011
8.048468e-011
6.997020e-012
-6.199906e-011
-4.992625e-011
1.484342e-011
4.722911e-011
1.679624e-011
-2.286459e-011
-1.791974e-011
1.154447e-011
-1.015735e-011
6.655549e-011
5.167622e-011
-1.248854e-010
-2.017627e-010
6.920599e-011
3.618689e-010
1.526390e-010
-3.448733e-010
-3.972710e-010
7.515259e-011
3.915473e-010
2.107256e-010
-9.249659e-011
-1.806630e-010
-1.385587e-010
-8.033936e-011
2.810008e-011
1.413912e-010
1.466228e-010
7.338668e-011
3.618597e-011
5.286806e-011
7.882749e-011
1.135690e-010
1.701225e-010
2.302000e-010
2.869574e-010
3.666119e-010
4.867683e-010
6.390479e-010
8.121534e-010
9.978332e-010
1.178843e-009
1.332495e-009
1.443441e-009
1.506355e-009
1.523235e-009
1.502263e-009
1.454630e-009
1.390590e-009
1.319919e-009
1.253532e-009
1.200787e-009
1.165295e-009
1.144494e-009
1.132435e-009
1.122434e-009
1.108573e-009
1.086519e-009
1.053756e-009
1.009489e-009
9.547668e-010
8.926441e-010
8.278402e-010
7.659813e-010
7.132225e-010
6.764236e-010
6.626761e-010
6.772104e-010
7.213161e-010
7.926054e-010
8.862114e-010
9.934340e-010
1.098887e-009
1.181027e-009
1.216460e-009
1.183789e-009
1.066741e-009
8.604114e-010
5.795480e-010
2.625250e-010
-3.266261e-011
-2.403632e-010
-3.077407e-010
-2.210842e-010
-2.497593e-011
1.838761e-010
2.958984e-010
2.473716e-010
6.603655e-011
-1.330203e-010
-2.159677e-010
-1.295581e-010
4.727002e-011
1.613694e-010
1.201671e-010
-2.071261e-011
-1.143681e-010
-7.640076e-011
2.862705e-011
7.182005e-011
1.871504e-011
-3.983559e-011
-2.532462e-011
2.188633e-011
2.259001e-011
-1.250756e-011
-1.645751e-011
1.034963e-011
6.585709e-010
-3.722224e-010
-7.152338e-010
4.753075e-011
5.935008e-010
2.274564e-010
-2.938924e-010
-3.196780e-010
-7.507301e-011
1.377815e-010
2.785474e-010
2.052826e-010
-1.304212e-010
-3.591069e-010
-1.884143e-010
1.279091e-010
2.312614e-010
1.498446e-010
6.791912e-011
1.295634e-011
-2.763264e-011
3.234473e-012
1.084697e-010
2.125030e-010
2.893585e-010
3.787907e-010
5.004619e-010
6.456724e-010
8.157492e-010
1.008724e-009
1.199117e-009
1.360197e-009
1.483087e-009
1.566568e-009
1.610422e-009
1.623200e-009
1.622425e-009
1.623912e-009
1.635552e-009
1.659380e-009
1.695135e-009
1.741690e-009
1.796393e-009
1.853672e-009
1.905836e-009
1.946842e-009
1.975475e-009
1.994980e-009
2.010477e-009
2.026633e-009
2.046170e-009
2.068892e-009
2.091488e-009
2.108261e-009
2.112112e-009
2.095040e-009
2.048539e-009
1.965323e-009
1.842337e-009
1.682256e-009
1.492045e-009
1.281944e-009
1.067496e-009
8.704995e-010
7.144971e-010
6.182707e-010
5.924017e-010
6.364742e-010
7.336672e-010
8.475901e-010
9.275778e-010
9.214412e-010
7.924545e-010
5.390812e-010
2.101253e-010
-9.976819e-011
-2.835517e-010
-2.749316e-010
-9.483464e-011
1.421552e-010
2.828474e-010
2.339928e-010
3.753077e-011
-1.506849e-010
-1.838193e-010
-5.420268e-011
9.661095e-011
1.183447e-010
1.008937e-011
-8.606196e-011
-6.155981e-011
3.031930e-011
6.354618e-011
1.342357e-011
-3.380165e-011
-2.376036e-011
5.503755e-012
1.037529e-011
1.655973e-012
-7.850655e-013
6.305931e-010
-4.816012e-010
-7.019685e-010
3.176896e-010
7.728159e-010
-7.886840e-011
-7.621626e-010
-2.308013e-010
5.481274e-010
4.585101e-010
-1.303629e-010
-3.819025e-010
-2.325983e-010
2.164906e-012
2.122487e-010
3.011454e-010
1.468571e-010
-1.005882e-010
-1.661075e-010
-3.680966e-011
1.184715e-010
2.421165e-010
3.668326e-010
4.833254e-010
5.866983e-010
7.228120e-010
9.125437e-010
1.120139e-009
1.312006e-009
1.479394e-009
1.612077e-009
1.698693e-009
1.742842e-009
1.752718e-009
1.725882e-009
1.654408e-009
1.531216e-009
1.345142e-009
1.081031e-009
7.303109e-010
2.971234e-010
-2.058682e-010
-7.623783e-010
-1.351865e-009
-1.947106e-009
-2.514821e-009
-3.019870e-009
-3.430347e-009
-3.720821e-009
-3.872974e-009
-3.875199e-009
-3.722771e-009
-3.418776e-009
-2.974713e-009
-2.410063e-009
-1.751616e-009
-1.033779e-009
-2.985101e-010
4.081804e-010
1.042259e-009
1.565055e-009
1.943521e-009
2.153432e-009
2.186727e-009
2.055627e-009
1.790631e-009
1.438251e-009
1.059774e-009
7.240500e-010
4.923671e-010
4.018319e-010
4.514366e-010
5.930327e-010
7.363514e-010
7.779516e-010
6.491952e-010
3.611307e-010
1.719847e-011
-2.282990e-010
-2.598003e-010
-8.745019e-011
1.417120e-010
2.416795e-010
1.367669e-010
-6.605462e-011
-1.721246e-010
-9.324716e-011
6.156093e-011
1.162190e-010
3.322924e-011
-6.064413e-011
-5.361209e-011
1.605207e-011
4.096663e-011
8.218993e-013
-3.073577e-011
-9.757811e-012
2.174341e-011
1.379207e-011
-1.522005e-011
-1.383063e-010
-1.942752e-011
1.380212e-010
2.094444e-010
1.866599e-011
-3.293379e-010
-2.915518e-010
2.696815e-010
5.520173e-010
1.396796e-011
-5.897810e-010
-3.764903e-010
2.768873e-010
4.854823e-010
1.837359e-010
-1.227490e-010
-2.135614e-010
-1.440045e-010
6.195075e-011
3.212703e-010
4.725778e-010
5.046727e-010
5.548942e-010
6.916073e-010
8.843061e-010
1.112551e-009
1.364274e-009
1.593738e-009
1.759414e-009
1.852649e-009
1.861965e-009
1.752410e-009
1.484383e-009
1.020886e-009
3.216089e-010
-6.469235e-010
-1.897129e-009
-3.420407e-009
-5.188940e-009
-7.152376e-009
-9.242580e-009
-1.138674e-008
-1.351369e-008
-1.555174e-008
-1.742940e-008
-1.908233e-008
-2.045907e-008
-2.152118e-008
-2.224038e-008
-2.259605e-008
-2.257448e-008
-2.216953e-008
-2.138476e-008
-2.023609e-008
-1.875296e-008
-1.697718e-008
-1.496182e-008
-1.277242e-008
-1.048683e-008
-8.188983e-009
-5.960870e-009
-3.879963e-009
-2.019542e-009
-4.437400e-010
8.000281e-010
1.683108e-009
2.195290e-009
2.350247e-009
2.193524e-009
1.805006e-009
1.295200e-009
7.946470e-010
4.289287e-010
2.784611e-010
3.400445e-010
5.156604e-010
6.474587e-010
5.979928e-010
3.407434e-010
-3.419943e-012
-2.335861e-010
-2.168721e-010
-7.491588e-012
1.854166e-010
1.844759e-010
1.621941e-011
-1.243893e-010
-9.604755e-011
3.381515e-011
9.114304e-011
2.154428e-011
-5.844724e-011
-4.269280e-011
2.199597e-011
3.285600e-011
-6.149652e-012
-1.637616e-011
9.911625e-012
1.221292e-011
-1.379867e-011
-8.607404e-010
6.165724e-010
8.992041e-010
-3.312595e-010
-8.456417e-010
5.204928e-012
6.582816e-010
3.081851e-010
-2.904717e-010
-4.564560e-010
-1.838448e-010
2.837951e-010
5.094833e-010
1.740013e-010
-3.446496e-010
-3.989593e-010
1.104627e-011
3.890632e-010
5.135914e-010
5.157769e-010
5.122332e-010
5.631720e-010
7.515906e-010
1.076893e-009
1.426551e-009
1.713801e-009
1.917384e-009
2.001141e-009
1.895198e-009
1.527532e-009
8.137328e-010
-3.543796e-010
-2.077434e-009
-4.420720e-009
-7.413399e-009
-1.104662e-008
-1.526747e-008
-1.998497e-008
-2.508153e-008
-3.042124e-008
-3.586014e-008
-4.125590e-008
-4.646873e-008
-5.135981e-008
-5.579729e-008
-5.966405e-008
-6.285804e-008
-6.528811e-008
-6.687371e-008
-6.755035e-008
-6.727631e-008
-6.603722e-008
-6.384908e-008
-6.076152e-008
-5.686034e-008
-5.226576e-008
-4.712549e-008
-4.160796e-008
-3.589818e-008
-3.018859e-008
-2.466146e-008
-1.947286e-008
-1.474683e-008
-1.057223e-008
-6.997586e-009
-4.033120e-009
-1.664628e-009
1.318278e-010
1.382854e-009
2.115935e-009
2.365277e-009
2.191729e-009
1.708275e-009
1.087752e-009
5.345393e-010
2.195894e-010
2.012107e-010
3.804995e-010
5.448064e-010
5.037367e-010
2.362365e-010
-7.943680e-011
-2.118629e-010
-9.230630e-011
1.128007e-010
1.734736e-010
4.412069e-011
-9.994265e-011
-9.205529e-011
2.084714e-011
7.009443e-011
1.107765e-011
-4.151892e-011
-1.512562e-011
2.481156e-011
1.357986e-011
-1.261181e-011
-8.717327e-012
3.766915e-012
2.243674e-012
-7.925915e-010
7.557346e-010
7.760920e-010
-7.164940e-010
-8.352156e-010
5.913209e-010
9.223065e-010
-3.176292e-010
-9.232311e-010
-8.545684e-011
6.967476e-010
4.605111e-010
-1.699067e-010
-4.506155e-010
-2.724816e-010
1.891781e-010
6.035898e-010
6.458323e-010
4.185459e-010
3.376082e-010
5.801365e-010
1.000334e-009
1.446396e-009
1.844491e-009
2.103409e-009
2.137656e-009
1.889733e-009
1.246525e-009
8.073711e-012
-2.047626e-009
-5.124369e-009
-9.406270e-009
-1.503421e-008
-2.207723e-008
-3.053291e-008
-4.033599e-008
-5.135787e-008
-6.340964e-008
-7.625325e-008
-8.961352e-008
-1.031880e-007
-1.166545e-007
-1.296782e-007
-1.419246e-007
-1.530735e-007
-1.628275e-007
-1.709110e-007
-1.770744e-007
-1.811043e-007
-1.828365e-007
-1.821653e-007
-1.790507e-007
-1.735228e-007
-1.656871e-007
-1.557316e-007
-1.439316e-007
-1.306437e-007
-1.162898e-007
-1.013400e-007
-8.629529e-008
-7.165578e-008
-5.787957e-008
-4.534818e-008
-3.434347e-008
-2.502701e-008
-1.742698e-008
-1.144773e-008
-6.900246e-009
-3.541526e-009
-1.121518e-009
5.661161e-010
1.650832e-009
2.191718e-009
2.224618e-009
1.830398e-009
1.187498e-009
5.595896e-010
1.934630e-010
1.757693e-010
3.641121e-010
4.847671e-010
3.564813e-010
5.464148e-011
-1.631999e-010
-1.285084e-010
5.443504e-011
1.405896e-010
4.488229e-011
-7.581416e-011
-6.403922e-011
2.808154e-011
5.412682e-011
5.803719e-014
-3.210832e-011
-6.344863e-012
1.648243e-011
2.557507e-012
-1.382945e-011
-5.173301e-012
1.179578e-011
3.175051e-011
1.522992e-010
-1.043816e-010
-3.772537e-010
5.180504e-011
5.932144e-010
1.321818e-010
-7.215492e-010
-4.315483e-010
6.477532e-010
7.486879e-010
-2.619125e-010
-7.815929e-010
-1.697538e-010
6.017738e-010
7.452049e-010
4.679258e-010
2.355761e-010
3.012566e-010
7.443509e-010
1.402123e-009
1.948604e-009
2.213604e-009
2.218669e-009
1.919751e-009
1.108286e-009
-5.145580e-010
-3.322891e-009
-7.766248e-009
-1.429436e-008
-2.329599e-008
-3.509599e-008
-4.993962e-008
-6.794996e-008
-8.910478e-008
-1.132342e-007
-1.400170e-007
-1.689835e-007
-1.995397e-007
-2.310026e-007
-2.626334e-007
-2.936672e-007
-3.233465e-007
-3.509527e-007
-3.758239e-007
-3.973597e-007
-4.150246e-007
-4.283595e-007
-4.369912e-007
-4.406369e-007
-4.391081e-007
-4.323221e-007
-4.203175e-007
-4.032680e-007
-3.814970e-007
-3.554926e-007
-3.259141e-007
-2.935763e-007
-2.594183e-007
-2.244691e-007
-1.898015e-007
-1.564632e-007
-1.254013e-007
-9.740272e-008
-7.304420e-008
-5.265117e-008
-3.627954e-008
-2.372979e-008
-1.458232e-008
-8.250611e-009
-4.062842e-009
-1.367739e-009
3.608203e-010
1.451513e-009
2.029456e-009
2.101624e-009
1.708208e-009
1.042444e-009
4.287123e-010
1.430661e-010
2.103893e-010
3.823693e-010
3.696366e-010
1.301155e-010
-1.036274e-010
-1.142728e-010
3.747393e-011
1.166448e-010
3.581580e-011
-6.012225e-011
-4.118335e-011
2.841014e-011
3.095659e-011
-1.617822e-011
-2.386508e-011
8.822054e-012
1.659251e-011
-6.243507e-012
-1.062359e-011
7.545725e-012
9.008596e-010
-7.367076e-010
-9.039483e-010
5.206658e-010
8.841660e-010
-2.247530e-010
-8.169255e-010
-1.499278e-010
6.366114e-010
5.450331e-010
-2.394248e-010
-7.167946e-010
-1.893961e-010
7.456085e-010
9.235721e-010
3.060900e-010
-6.531612e-011
3.675975e-010
1.196538e-009
1.891371e-009
2.273200e-009
2.314195e-009
1.991381e-009
1.204997e-009
-4.110981e-010
-3.518429e-009
-8.898755e-009
-1.736173e-008
-2.976237e-008
-4.695945e-008
-6.972624e-008
-9.869034e-008
-1.342678e-007