# vtk DataFile Version 3.0
vtk output
ASCII
DATASET STRUCTURED_POINTS
DIMENSIONS 100 100 1
SPACING 1 1 1
ORIGIN 0 0 0
POINT_DATA 10000
SCALARS SFBox_profile double
LOOKUP_TABLE default 
9.439920e-003
9.439920e-003
9.439920e-003
9.439920e-003
9.439920e-003
9.439920e-003
9.439920e-003
9.439920e-003
9.439920e-003
9.439920e-003
9.439920e-003
9.439920e-003
9.439920e-003
9.439920e-003
9.439920e-003
9.439920e-003
9.439920e-003
9.439920e-003
9.439920e-003
9.439920e-003
9.439920e-003
9.439920e-003
9.439920e-003
9.439920e-003
9.439920e-003
9.439920e-003
9.439921e-003
9.439921e-003
9.439921e-003
9.439921e-003
9.439922e-003
9.439922e-003
9.439922e-003
9.439923e-003
9.439923e-003
9.439923e-003
9.439924e-003
9.439924e-003
9.439925e-003
9.439925e-003
9.439926e-003
9.439926e-003
9.439926e-003
9.439927e-003
9.439927e-003
9.439927e-003
9.439928e-003
9.439928e-003
9.439928e-003
9.439928e-003
9.439928e-003
9.439928e-003
9.439928e-003
9.439928e-003
9.439928e-003
9.439928e-003
9.439928e-003
9.439927e-003
9.439927e-003
9.439927e-003
9.439926e-003
9.439926e-003
9.439925e-003
9.439925e-003
9.439924e-003
9.439924e-003
9.439923e-003
9.439923e-003
9.439922e-003
9.439922e-003
9.439922e-003
9.439921e-003
9.439921e-003
9.439921e-003
9.439921e-003
9.439920e-003
9.439920e-003
9.439920e-003
9.439920e-003
9.439920e-003
9.439920e-003
9.439920e-003
9.439920e-003
9.439920e-003
9.439920e-003
9.439920e-003
9.439920e-003
9.439920e-003
9.439920e-003
9.439920e-003
9.439920e-003
9.439920e-003
9.439920e-003
9.439920e-003
9.439920e-003
9.439920e-003
9.439920e-003
9.439920e-003
9.439920e-003
9.439920e-003
9.439920e-003
9.439920e-003
9.439920e-003
9.439920e-003
9.439920e-003
9.439920e-003
9.439920e-003
9.439920e-003
9.439920e-003
9.439920e-003
9.439920e-003
9.439920e-003
9.439920e-003
9.439920e-003
9.439920e-003
9.439920e-003
9.439920e-003
9.439920e-003
9.439920e-003
9.439920e-003
9.439920e-003
9.439920e-003
9.439920e-003
9.439920e-003
9.439920e-003
9.439920e-003
9.439921e-003
9.439921e-003
9.439921e-003
9.439921e-003
9.439922e-003
9.439922e-003
9.439922e-003
9.439923e-003
9.439923e-003
9.439923e-003
9.439924e-003
9.439924e-003
9.439925e-003
9.439925e-003
9.439926e-003
9.439926e-003
9.439926e-003
9.439927e-003
9.439927e-003
9.439927e-003
9.439928e-003
9.439928e-003
9.439928e-003
9.439928e-003
9.439928e-003
9.439928e-003
9.439928e-003
9.439928e-003
9.439928e-003
9.439928e-003
9.439928e-003
9.439927e-003
9.439927e-003
9.439927e-003
9.439926e-003
9.439926e-003
9.439925e-003
9.439925e-003
9.439924e-003
9.439924e-003
9.439923e-003
9.439923e-003
9.439922e-003
9.439922e-003
9.439922e-003
9.439921e-003
9.439921e-003
9.439921e-003
9.439921e-003
9.439920e-003
9.439920e-003
9.439920e-003
9.439920e-003
9.439920e-003
9.439920e-003
9.439920e-003
9.439920e-003
9.439920e-003
9.439920e-003
9.439920e-003
9.439920e-003
9.439920e-003
9.439920e-003
9.439920e-003
9.439920e-003
9.439920e-003
9.439920e-003
9.439920e-003
9.439920e-003
9.439920e-003
9.439920e-003
9.439920e-003
9.439920e-003
9.439920e-003
9.439920e-003
9.439920e-003
9.439920e-003
9.439920e-003
9.439920e-003
9.439920e-003
9.439920e-003
9.439920e-003
9.439920e-003
9.439920e-003
9.439920e-003
9.439920e-003
9.439920e-003
9.439920e-003
9.439920e-003
9.439920e-003
9.439920e-003
9.439920e-003
9.439920e-003
9.439920e-003
9.439920e-003
9.439920e-003
9.439920e-003
9.439920e-003
9.439921e-003
9.439921e-003
9.439921e-003
9.439921e-003
9.439922e-003
9.439922e-003
9.439923e-003
9.439923e-003
9.439924e-003
9.439924e-003
9.439925e-003
9.439925e-003
9.439926e-003
9.439927e-003
9.439927e-003
9.439928e-003
9.439928e-003
9.439929e-003
9.439930e-003
9.439930e-003
9.439930e-003
9.439931e-003
9.439931e-003
9.439931e-003
9.439932e-003
9.439932e-003
9.439932e-003
9.439932e-003
9.439932e-003
9.439932e-003
9.439932e-003
9.439931e-003
9.439931e-003
9.439931e-003
9.439930e-003
9.439930e-003
9.439929e-003
9.439928e-003
9.439928e-003
9.439927e-003
9.439926e-003
9.439926e-003
9.439925e-003
9.439924e-003
9.439924e-003
9.439923e-003
9.439923e-003
9.439922e-003
9.439922e-003
9.439921e-003
9.439921e-003
9.439921e-003
9.439921e-003
9.439920e-003
9.439920e-003
9.439920e-003
9.439920e-003
9.439920e-003
9.439920e-003
9.439920e-003
9.439920e-003
9.439920e-003
9.439920e-003
9.439920e-003
9.439920e-003
9.439920e-003
9.439920e-003
9.439920e-003
9.439920e-003
9.439920e-003
9.439920e-003
9.439920e-003
9.439920e-003
9.439920e-003
9.439920e-003
9.439920e-003
9.439920e-003
9.439920e-003
9.439920e-003
9.439920e-003
9.439920e-003
9.439920e-003
9.439920e-003
9.439920e-003
9.439920e-003
9.439920e-003
9.439920e-003
9.439920e-003
9.439920e-003
9.439920e-003
9.439920e-003
9.439920e-003
9.439920e-003
9.439920e-003
9.439920e-003
9.439920e-003
9.439920e-003
9.439920e-003
9.439921e-003
9.439921e-003
9.439921e-003
9.439922e-003
9.439922e-003
9.439923e-003
9.439923e-003
9.439924e-003
9.439925e-003
9.439926e-003
9.439927e-003
9.439927e-003
9.439928e-003
9.439929e-003
9.439930e-003
9.439931e-003
9.439932e-003
9.439933e-003
9.439934e-003
9.439935e-003
9.439935e-003
9.439936e-003
9.439937e-003
9.439937e-003
9.439938e-003
9.439938e-003
9.439938e-003
9.439938e-003
9.439938e-003
9.439938e-003
9.439938e-003
9.439938e-003
9.439938e-003
9.439938e-003
9.439937e-003
9.439937e-003
9.439936e-003
9.439935e-003
9.439935e-003
9.439934e-003
9.439933e-003
9.439932e-003
9.439931e-003
9.439930e-003
9.439929e-003
9.439928e-003
9.439927e-003
9.439926e-003
9.439925e-003
9.439924e-003
9.439923e-003
9.439922e-003
9.439922e-003
9.439921e-003
9.439921e-003
9.439921e-003
9.439921e-003
9.439920e-003
9.439920e-003
9.439920e-003
9.439920e-003
9.439920e-003
9.439920e-003
9.439920e-003
9.439920e-003
9.439920e-003
9.439920e-003
9.439920e-003
9.439920e-003
9.439920e-003
9.439920e-003
9.439920e-003
9.439920e-003
9.439920e-003
9.439920e-003
9.439920e-003
9.439920e-003
9.439920e-003
9.439920e-003
9.439920e-003
9.439920e-003
9.439920e-003
9.439920e-003
9.439920e-003
9.439920e-003
9.439920e-003
9.439920e-003
9.439920e-003
9.439920e-003
9.439920e-003
9.439920e-003
9.439920e-003
9.439920e-003
9.439920e-003
9.439920e-003
9.439920e-003
9.439920e-003
9.439920e-003
9.439921e-003
9.439921e-003
9.439921e-003
9.439922e-003
9.439923e-003
9.439923e-003
9.439924e-003
9.439925e-003
9.439926e-003
9.439928e-003
9.439929e-003
9.439930e-003
9.439932e-003
9.439933e-003
9.439934e-003
9.439936e-003
9.439937e-003
9.439938e-003
9.439939e-003
9.439940e-003
9.439941e-003
9.439942e-003
9.439943e-003
9.439944e-003
9.439944e-003
9.439945e-003
9.439945e-003
9.439945e-003
9.439945e-003
9.439946e-003
9.439946e-003
9.439946e-003
9.439945e-003
9.439945e-003
9.439945e-003
9.439944e-003
9.439944e-003
9.439943e-003
9.439943e-003
9.439942e-003
9.439941e-003
9.439940e-003
9.439939e-003
9.439938e-003
9.439937e-003
9.439936e-003
9.439934e-003
9.439933e-003
9.439931e-003
9.439930e-003
9.439929e-003
9.439927e-003
9.439926e-003
9.439925e-003
9.439924e-003
9.439923e-003
9.439922e-003
9.439922e-003
9.439921e-003
9.439921e-003
9.439921e-003
9.439920e-003
9.439920e-003
9.439920e-003
9.439920e-003
9.439920e-003
9.439920e-003
9.439920e-003
9.439920e-003
9.439920e-003
9.439920e-003
9.439920e-003
9.439920e-003
9.439920e-003
9.439920e-003
9.439920e-003
9.439920e-003
9.439920e-003
9.439920e-003
9.439920e-003
9.439920e-003
9.439920e-003
9.439920e-003
9.439920e-003
9.439920e-003
9.439920e-003
9.439920e-003
9.439920e-003
9.439920e-003
9.439920e-003
9.439920e-003
9.439920e-003
9.439920e-003
9.439920e-003
9.439920e-003
9.439920e-003
9.439920e-003
9.439920e-003
9.439921e-003
9.439921e-003
9.439922e-003
9.439922e-003
9.439923e-003
9.439924e-003
9.439925e-003
9.439926e-003
9.439928e-003
9.439930e-003
9.439931e-003
9.439933e-003
9.439935e-003
9.439937e-003
9.439939e-003
9.439940e-003
9.439942e-003
9.439943e-003
9.439944e-003
9.439945e-003
9.439946e-003
9.439947e-003
9.439947e-003
9.439947e-003
9.439947e-003
9.439947e-003
9.439947e-003
9.439947e-003
9.439946e-003
9.439946e-003
9.439946e-003
9.439945e-003
9.439945e-003
9.439945e-003
9.439944e-003
9.439944e-003
9.439944e-003
9.439944e-003
9.439944e-003
9.439944e-003
9.439944e-003
9.439944e-003
9.439944e-003
9.439944e-003
9.439944e-003
9.439943e-003
9.439943e-003
9.439942e-003
9.439941e-003
9.439939e-003
9.439938e-003
9.439936e-003
9.439934e-003
9.439932e-003
9.439930e-003
9.439929e-003
9.439927e-003
9.439926e-003
9.439924e-003
9.439923e-003
9.439922e-003
9.439922e-003
9.439921e-003
9.439921e-003
9.439921e-003
9.439920e-003
9.439920e-003
9.439920e-003
9.439920e-003
9.439920e-003
9.439920e-003
9.439920e-003
9.439920e-003
9.439920e-003
9.439920e-003
9.439920e-003
9.439920e-003
9.439920e-003
9.439920e-003
9.439920e-003
9.439920e-003
9.439920e-003
9.439920e-003
9.439920e-003
9.439920e-003
9.439920e-003
9.439920e-003
9.439920e-003
9.439920e-003
9.439920e-003
9.439920e-003
9.439920e-003
9.439920e-003
9.439920e-003
9.439920e-003
9.439920e-003
9.439920e-003
9.439920e-003
9.439921e-003
9.439921e-003
9.439922e-003
9.439922e-003
9.439923e-003
9.439924e-003
9.439926e-003
9.439927e-003
9.439929e-003
9.439931e-003
9.439934e-003
9.439936e-003
9.439938e-003
9.439941e-003
9.439943e-003
9.439944e-003
9.439946e-003
9.439946e-003
9.439947e-003
9.439946e-003
9.439945e-003
9.439944e-003
9.439942e-003
9.439939e-003
9.439936e-003
9.439933e-003
9.439930e-003
9.439927e-003
9.439923e-003
9.439920e-003
9.439917e-003
9.439914e-003
9.439912e-003
9.439910e-003
9.439908e-003
9.439907e-003
9.439907e-003
9.439907e-003
9.439908e-003
9.439909e-003
9.439911e-003
9.439914e-003
9.439917e-003
9.439921e-003
9.439924e-003
9.439928e-003
9.439932e-003
9.439935e-003
9.439938e-003
9.439940e-003
9.439942e-003
9.439942e-003
9.439942e-003
9.439942e-003
9.439940e-003
9.439939e-003
9.439936e-003
9.439934e-003
9.439932e-003
9.439930e-003
9.439928e-003
9.439926e-003
9.439924e-003
9.439923e-003
9.439922e-003
9.439922e-003
9.439921e-003
9.439921e-003
9.439920e-003
9.439920e-003
9.439920e-003
9.439920e-003
9.439920e-003
9.439920e-003
9.439920e-003
9.439920e-003
9.439920e-003
9.439920e-003
9.439920e-003
9.439920e-003
9.439920e-003
9.439920e-003
9.439920e-003
9.439920e-003
9.439920e-003
9.439920e-003
9.439920e-003
9.439920e-003
9.439920e-003
9.439920e-003
9.439920e-003
9.439920e-003
9.439920e-003
9.439920e-003
9.439920e-003
9.439920e-003
9.439920e-003
9.439920e-003
9.439921e-003
9.439921e-003
9.439921e-003
9.439922e-003
9.439923e-003
9.439924e-003
9.439926e-003
9.439928e-003
9.439930e-003
9.439933e-003
9.439935e-003
9.439938e-003
9.439941e-003
9.439944e-003
9.439946e-003
9.439947e-003
9.439947e-003
9.439945e-003
9.439943e-003
9.439938e-003
9.439932e-003
9.439924e-003
9.439915e-003
9.439904e-003
9.439892e-003
9.439879e-003
9.439866e-003
9.439852e-003
9.439839e-003
9.439825e-003
9.439812e-003
9.439800e-003
9.439790e-003
9.439780e-003
9.439771e-003
9.439765e-003
9.439760e-003
9.439757e-003
9.439756e-003
9.439758e-003
9.439762e-003
9.439768e-003
9.439776e-003
9.439787e-003
9.439799e-003
9.439813e-003
9.439829e-003
9.439845e-003
9.439861e-003
9.439877e-003
9.439892e-003
9.439905e-003
9.439917e-003
9.439926e-003
9.439933e-003
9.439938e-003
9.439941e-003
9.439942e-003
9.439942e-003
9.439940e-003
9.439938e-003
9.439935e-003
9.439933e-003
9.439930e-003
9.439928e-003
9.439926e-003
9.439924e-003
9.439923e-003
9.439922e-003
9.439921e-003
9.439921e-003
9.439921e-003
9.439920e-003
9.439920e-003
9.439920e-003
9.439920e-003
9.439920e-003
9.439920e-003
9.439920e-003
9.439920e-003
9.439920e-003
9.439920e-003
9.439920e-003
9.439920e-003
9.439920e-003
9.439920e-003
9.439920e-003
9.439920e-003
9.439920e-003
9.439920e-003
9.439920e-003
9.439920e-003
9.439920e-003
9.439920e-003
9.439920e-003
9.439920e-003
9.439920e-003
9.439920e-003
9.439920e-003
9.439921e-003
9.439921e-003
9.439922e-003
9.439923e-003
9.439924e-003
9.439926e-003
9.439928e-003
9.439930e-003
9.439933e-003
9.439937e-003
9.439940e-003
9.439943e-003
9.439946e-003
9.439948e-003
9.439947e-003
9.439945e-003
9.439939e-003
9.439930e-003
9.439917e-003
9.439900e-003
9.439878e-003
9.439852e-003
9.439821e-003
9.439787e-003
9.439749e-003
9.439709e-003
9.439668e-003
9.439625e-003
9.439583e-003
9.439541e-003
9.439501e-003
9.439463e-003
9.439428e-003
9.439396e-003
9.439368e-003
9.439345e-003
9.439327e-003
9.439313e-003
9.439306e-003
9.439305e-003
9.439310e-003
9.439322e-003
9.439341e-003
9.439366e-003
9.439398e-003
9.439435e-003
9.439478e-003
9.439525e-003
9.439574e-003
9.439625e-003
9.439676e-003
9.439724e-003
9.439770e-003
9.439811e-003
9.439846e-003
9.439876e-003
9.439900e-003
9.439918e-003
9.439930e-003
9.439938e-003
9.439941e-003
9.439942e-003
9.439941e-003
9.439939e-003
9.439936e-003
9.439933e-003
9.439930e-003
9.439928e-003
9.439925e-003
9.439924e-003
9.439923e-003
9.439922e-003
9.439921e-003
9.439921e-003
9.439920e-003
9.439920e-003
9.439920e-003
9.439920e-003
9.439920e-003
9.439920e-003
9.439920e-003
9.439920e-003
9.439920e-003
9.439920e-003
9.439920e-003
9.439920e-003
9.439920e-003
9.439920e-003
9.439920e-003
9.439920e-003
9.439920e-003
9.439920e-003
9.439920e-003
9.439920e-003
9.439920e-003
9.439920e-003
9.439920e-003
9.439920e-003
9.439921e-003
9.439921e-003
9.439921e-003
9.439922e-003
9.439923e-003
9.439925e-003
9.439927e-003
9.439930e-003
9.439933e-003
9.439937e-003
9.439941e-003
9.439945e-003
9.439948e-003
9.439949e-003
9.439947e-003
9.439941e-003
9.439930e-003
9.439911e-003
9.439884e-003
9.439847e-003
9.439799e-003
9.439740e-003
9.439670e-003
9.439589e-003
9.439498e-003
9.439398e-003
9.439292e-003
9.439181e-003
9.439067e-003
9.438953e-003
9.438839e-003
9.438729e-003
9.438624e-003
9.438526e-003
9.438435e-003
9.438354e-003
9.438283e-003
9.438224e-003
9.438178e-003
9.438145e-003
9.438128e-003
9.438126e-003
9.438141e-003
9.438172e-003
9.438222e-003
9.438288e-003
9.438371e-003
9.438470e-003
9.438582e-003
9.438705e-003
9.438837e-003
9.438973e-003
9.439110e-003
9.439244e-003
9.439371e-003
9.439489e-003
9.439594e-003
9.439684e-003
9.439759e-003
9.439819e-003
9.439865e-003
9.439898e-003
9.439920e-003
9.439934e-003
9.439940e-003
9.439943e-003
9.439942e-003
9.439939e-003
9.439936e-003
9.439932e-003
9.439929e-003
9.439927e-003
9.439925e-003
9.439923e-003
9.439922e-003
9.439921e-003
9.439921e-003
9.439920e-003
9.439920e-003
9.439920e-003
9.439920e-003
9.439920e-003
9.439920e-003
9.439920e-003
9.439920e-003
9.439920e-003
9.439920e-003
9.439920e-003
9.439920e-003
9.439920e-003
9.439920e-003
9.439920e-003
9.439920e-003
9.439920e-003
9.439920e-003
9.439920e-003
9.439920e-003
9.439920e-003
9.439920e-003
9.439921e-003
9.439921e-003
9.439922e-003
9.439923e-003
9.439924e-003
9.439926e-003
9.439929e-003
9.439932e-003
9.439936e-003
9.439941e-003
9.439945e-003
9.439949e-003
9.439950e-003
9.439947e-003
9.439939e-003
9.439921e-003
9.439891e-003
9.439845e-003
9.439780e-003
9.439693e-003
9.439582e-003
9.439445e-003
9.439280e-003
9.439090e-003
9.438875e-003
9.438638e-003
9.438383e-003
9.438114e-003
9.437836e-003
9.437554e-003
9.437273e-003
9.436997e-003
9.436731e-003
9.436479e-003
9.436243e-003
9.436028e-003
9.435837e-003
9.435671e-003
9.435533e-003
9.435426e-003
9.435351e-003
9.435311e-003
9.435309e-003
9.435345e-003
9.435422e-003
9.435540e-003
9.435698e-003
9.435897e-003
9.436133e-003
9.436402e-003
9.436700e-003
9.437019e-003
9.437352e-003
9.437690e-003
9.438024e-003
9.438345e-003
9.438644e-003
9.438916e-003
9.439155e-003
9.439359e-003
9.439526e-003
9.439659e-003
9.439760e-003
9.439833e-003
9.439883e-003
9.439914e-003
9.439932e-003
9.439941e-003
9.439943e-003
9.439941e-003
9.439938e-003
9.439935e-003
9.439931e-003
9.439928e-003
9.439925e-003
9.439924e-003
9.439922e-003
9.439921e-003
9.439921e-003
9.439920e-003
9.439920e-003
9.439920e-003
9.439920e-003
9.439920e-003
9.439920e-003
9.439920e-003
9.439920e-003
9.439920e-003
9.439920e-003
9.439920e-003
9.439920e-003
9.439920e-003
9.439920e-003
9.439920e-003
9.439920e-003
9.439920e-003
9.439920e-003
9.439920e-003
9.439920e-003
9.439921e-003
9.439921e-003
9.439922e-003
9.439923e-003
9.439925e-003
9.439927e-003
9.439931e-003
9.439935e-003
9.439939e-003
9.439944e-003
9.439949e-003
9.439951e-003
9.439949e-003
9.439939e-003
9.439917e-003
9.439877e-003
9.439813e-003
9.439718e-003
9.439583e-003
9.439402e-003
9.439168e-003
9.438877e-003
9.438526e-003
9.438115e-003
9.437646e-003
9.437125e-003
9.436558e-003
9.435955e-003
9.435326e-003
9.434682e-003
9.434034e-003
9.433393e-003
9.432768e-003
9.432170e-003
9.431605e-003
9.431082e-003
9.430607e-003
9.430184e-003
9.429820e-003
9.429519e-003
9.429286e-003
9.429125e-003
9.429041e-003
9.429039e-003
9.429121e-003
9.429293e-003
9.429554e-003
9.429907e-003
9.430348e-003
9.430874e-003
9.431477e-003
9.432146e-003
9.432867e-003
9.433624e-003
9.434398e-003
9.435169e-003
9.435917e-003
9.436623e-003
9.437271e-003
9.437850e-003
9.438351e-003
9.438770e-003
9.439110e-003
9.439376e-003
9.439575e-003
9.439718e-003
9.439816e-003
9.439878e-003
9.439915e-003
9.439934e-003
9.439942e-003
9.439943e-003
9.439940e-003
9.439937e-003
9.439933e-003
9.439929e-003
9.439926e-003
9.439924e-003
9.439923e-003
9.439922e-003
9.439921e-003
9.439921e-003
9.439920e-003
9.439920e-003
9.439920e-003
9.439920e-003
9.439920e-003
9.439920e-003
9.439920e-003
9.439920e-003
9.439920e-003
9.439920e-003
9.439920e-003
9.439920e-003
9.439920e-003
9.439920e-003
9.439920e-003
9.439920e-003
9.439920e-003
9.439921e-003
9.439921e-003
9.439922e-003
9.439924e-003
9.439926e-003
9.439928e-003
9.439932e-003
9.439937e-003
9.439942e-003
9.439948e-003
9.439952e-003
9.439952e-003
9.439944e-003
9.439922e-003
9.439879e-003
9.439803e-003
9.439682e-003
9.439502e-003
9.439247e-003
9.438900e-003
9.438448e-003
9.437877e-003
9.437180e-003
9.436353e-003
9.435400e-003
9.434327e-003
9.433149e-003
9.431883e-003
9.430550e-003
9.429174e-003
9.427779e-003
9.426387e-003
9.425021e-003
9.423701e-003
9.422444e-003
9.421266e-003
9.420181e-003
9.419200e-003
9.418333e-003
9.417589e-003
9.416977e-003
9.416505e-003
9.416182e-003
9.416017e-003
9.416018e-003
9.416192e-003
9.416548e-003
9.417088e-003
9.417817e-003
9.418730e-003
9.419821e-003
9.421077e-003
9.422478e-003
9.423999e-003
9.425606e-003
9.427263e-003
9.428927e-003
9.430558e-003
9.432115e-003
9.433561e-003
9.434868e-003
9.436013e-003
9.436988e-003
9.437790e-003
9.438429e-003
9.438920e-003
9.439282e-003
9.439539e-003
9.439712e-003
9.439822e-003
9.439888e-003
9.439923e-003
9.439939e-003
9.439943e-003
9.439942e-003
9.439938e-003
9.439934e-003
9.439930e-003
9.439927e-003
9.439924e-003
9.439923e-003
9.439922e-003
9.439921e-003
9.439921e-003
9.439920e-003
9.439920e-003
9.439920e-003
9.439920e-003
9.439920e-003
9.439920e-003
9.439920e-003
9.439920e-003
9.439920e-003
9.439920e-003
9.439920e-003
9.439920e-003
9.439920e-003
9.439920e-003
9.439920e-003
9.439921e-003
9.439921e-003
9.439922e-003
9.439924e-003
9.439926e-003
9.439929e-003
9.439934e-003
9.439939e-003
9.439945e-003
9.439951e-003
9.439954e-003
9.439950e-003
9.439934e-003
9.439895e-003
9.439820e-003
9.439691e-003
9.439484e-003
9.439171e-003
9.438723e-003
9.438106e-003
9.437288e-003
9.436241e-003
9.434944e-003
9.433384e-003
9.431562e-003
9.429490e-003
9.427190e-003
9.424698e-003
9.422053e-003
9.419304e-003
9.416499e-003
9.413687e-003
9.410913e-003
9.408218e-003
9.405639e-003
9.403207e-003
9.400947e-003
9.398881e-003
9.397027e-003
9.395400e-003
9.394014e-003
9.392881e-003
9.392015e-003
9.391430e-003
9.391138e-003
9.391156e-003
9.391496e-003
9.392173e-003
9.393197e-003
9.394573e-003
9.396302e-003
9.398376e-003
9.400776e-003
9.403473e-003
9.406424e-003
9.409574e-003
9.412857e-003
9.416195e-003
9.419507e-003
9.422709e-003
9.425725e-003
9.428488e-003
9.430946e-003
9.433068e-003
9.434842e-003
9.436277e-003
9.437399e-003
9.438245e-003
9.438858e-003
9.439284e-003
9.439567e-003
9.439745e-003
9.439850e-003
9.439906e-003
9.439933e-003
9.439943e-003
9.439943e-003
9.439940e-003
9.439935e-003
9.439931e-003
9.439927e-003
9.439925e-003
9.439923e-003
9.439922e-003
9.439921e-003
9.439921e-003
9.439920e-003
9.439920e-003
9.439920e-003
9.439920e-003
9.439920e-003
9.439920e-003
9.439920e-003
9.439920e-003
9.439920e-003
9.439920e-003
9.439920e-003
9.439920e-003
9.439920e-003
9.439921e-003
9.439921e-003
9.439922e-003
9.439924e-003
9.439926e-003
9.439930e-003
9.439935e-003
9.439941e-003
9.439947e-003
9.439953e-003
9.439955e-003
9.439947e-003
9.439920e-003
9.439858e-003
9.439741e-003
9.439538e-003
9.439209e-003
9.438705e-003
9.437970e-003
9.436940e-003
9.435552e-003
9.433746e-003
9.431473e-003
9.428704e-003
9.425429e-003
9.421666e-003
9.417456e-003
9.412864e-003
9.407973e-003
9.402874e-003
9.397668e-003
9.392449e-003
9.387308e-003
9.382323e-003
9.377562e-003
9.373080e-003
9.368917e-003
9.365107e-003
9.361673e-003
9.358633e-003
9.356000e-003
9.353787e-003
9.352004e-003
9.350664e-003
9.349782e-003
9.349373e-003
9.349458e-003
9.350056e-003
9.351188e-003
9.352875e-003
9.355133e-003
9.357975e-003
9.361402e-003
9.365406e-003
9.369958e-003
9.375012e-003
9.380498e-003
9.386321e-003
9.392360e-003
9.398474e-003
9.404511e-003
9.410314e-003
9.415736e-003
9.420655e-003
9.424980e-003
9.428663e-003
9.431695e-003
9.434105e-003
9.435954e-003
9.437320e-003
9.438291e-003
9.438952e-003
9.439383e-003
9.439649e-003
9.439804e-003
9.439887e-003
9.439926e-003
9.439941e-003
9.439944e-003
9.439941e-003
9.439936e-003
9.439931e-003
9.439927e-003
9.439925e-003
9.439923e-003
9.439922e-003
9.439921e-003
9.439920e-003
9.439920e-003
9.439920e-003
9.439920e-003
9.439920e-003
9.439920e-003
9.439920e-003
9.439920e-003
9.439920e-003
9.439920e-003
9.439920e-003
9.439920e-003
9.439921e-003
9.439921e-003
9.439922e-003
9.439924e-003
9.439927e-003
9.439930e-003
9.439936e-003
9.439942e-003
9.439949e-003
9.439955e-003
9.439955e-003
9.439943e-003
9.439903e-003
9.439815e-003
9.439646e-003
9.439349e-003
9.438861e-003
9.438100e-003
9.436968e-003
9.435351e-003
9.433131e-003
9.430193e-003
9.426440e-003
9.421805e-003
9.416269e-003
9.409860e-003
9.402665e-003
9.394816e-003
9.386486e-003
9.377868e-003
9.369162e-003
9.360560e-003
9.352231e-003
9.344315e-003
9.336919e-003
9.330116e-003
9.323950e-003
9.318439e-003
9.313585e-003
9.309375e-003
9.305790e-003
9.302810e-003
9.300412e-003
9.298577e-003
9.297291e-003
9.296542e-003
9.296327e-003
9.296649e-003
9.297520e-003
9.298961e-003
9.301002e-003
9.303685e-003
9.307059e-003
9.311179e-003
9.316103e-003
9.321877e-003
9.328531e-003
9.336058e-003
9.344405e-003
9.353456e-003
9.363034e-003
9.372898e-003
9.382764e-003
9.392328e-003
9.401298e-003
9.409427e-003
9.416534e-003
9.422527e-003
9.427396e-003
9.431205e-003
9.434073e-003
9.436150e-003
9.437594e-003
9.438557e-003
9.439170e-003
9.439542e-003
9.439754e-003
9.439866e-003
9.439919e-003
9.439940e-003
9.439944e-003
9.439941e-003
9.439936e-003
9.439931e-003
9.439927e-003
9.439925e-003
9.439923e-003
9.439922e-003
9.439921e-003
9.439920e-003
9.439920e-003
9.439920e-003
9.439920e-003
9.439920e-003
9.439920e-003
9.439920e-003
9.439920e-003
9.439920e-003
9.439920e-003
9.439921e-003
9.439921e-003
9.439922e-003
9.439924e-003
9.439927e-003
9.439931e-003
9.439936e-003
9.439943e-003
9.439951e-003
9.439957e-003
9.439956e-003
9.439938e-003
9.439886e-003
9.439770e-003
9.439544e-003
9.439139e-003
9.438460e-003
9.437379e-003
9.435736e-003
9.433342e-003
9.429991e-003
9.425477e-003
9.419625e-003
9.412318e-003
9.403528e-003
9.393342e-003
9.381963e-003
9.369709e-003
9.356979e-003
9.344215e-003
9.331861e-003
9.320317e-003
9.309908e-003
9.300864e-003
9.293316e-003
9.287296e-003
9.282755e-003
9.279580e-003
9.277615e-003
9.276680e-003
9.276590e-003
9.277161e-003
9.278223e-003
9.279615e-003
9.281191e-003
9.282815e-003
9.284364e-003
9.285727e-003
9.286813e-003
9.287555e-003
9.287923e-003
9.287935e-003
9.287670e-003
9.287280e-003
9.286997e-003
9.287127e-003
9.288040e-003
9.290137e-003
9.293803e-003
9.299350e-003
9.306958e-003
9.316621e-003
9.328125e-003
9.341052e-003
9.354819e-003
9.368759e-003
9.382204e-003
9.394574e-003
9.405446e-003
9.414585e-003
9.421940e-003
9.427612e-003
9.431808e-003
9.434784e-003
9.436810e-003
9.438129e-003
9.438951e-003
9.439436e-003
9.439708e-003
9.439848e-003
9.439913e-003
9.439938e-003
9.439944e-003
9.439941e-003
9.439936e-003
9.439931e-003
9.439927e-003
9.439924e-003
9.439923e-003
9.439921e-003
9.439921e-003
9.439920e-003
9.439920e-003
9.439920e-003
9.439920e-003
9.439920e-003
9.439920e-003
9.439920e-003
9.439920e-003
9.439921e-003
9.439921e-003
9.439922e-003
9.439924e-003
9.439926e-003
9.439930e-003
9.439936e-003
9.439943e-003
9.439951e-003
9.439958e-003
9.439956e-003
9.439935e-003
9.439873e-003
9.439730e-003
9.439447e-003
9.438930e-003
9.438041e-003
9.436594e-003
9.434344e-003
9.430995e-003
9.426211e-003
9.419655e-003
9.411037e-003
9.400187e-003
9.387121e-003
9.372110e-003
9.355708e-003
9.338737e-003
9.322223e-003
9.307289e-003
9.295027e-003
9.286375e-003
9.282022e-003
9.282350e-003
9.287424e-003
9.297011e-003
9.310633e-003
9.327628e-003
9.347223e-003
9.368602e-003
9.390954e-003
9.413518e-003
9.435595e-003
9.456552e-003
9.475816e-003
9.492853e-003
9.507160e-003
9.518250e-003
9.525660e-003
9.528960e-003
9.527780e-003
9.521853e-003
9.511063e-003
9.495506e-003
9.475551e-003
9.451886e-003
9.425548e-003
9.397911e-003
9.370618e-003
9.345461e-003
9.324199e-003
9.308345e-003
9.298962e-003
9.296490e-003
9.300678e-003
9.310611e-003
9.324862e-003
9.341721e-003
9.359466e-003
9.376599e-003
9.392017e-003
9.405069e-003
9.415530e-003
9.423503e-003
9.429300e-003
9.433330e-003
9.436010e-003
9.437715e-003
9.438750e-003
9.439347e-003
9.439671e-003
9.439835e-003
9.439910e-003
9.439938e-003
9.439944e-003
9.439941e-003
9.439936e-003
9.439931e-003
9.439927e-003
9.439924e-003
9.439922e-003
9.439921e-003
9.439921e-003
9.439920e-003
9.439920e-003
9.439920e-003
9.439920e-003
9.439920e-003
9.439920e-003
9.439921e-003
9.439921e-003
9.439922e-003
9.439924e-003
9.439926e-003
9.439930e-003
9.439936e-003
9.439943e-003
9.439952e-003
9.439959e-003
9.439958e-003
9.439935e-003
9.439865e-003
9.439703e-003
9.439371e-003
9.438748e-003
9.437653e-003
9.435825e-003
9.432914e-003
9.428481e-003
9.422018e-003
9.413005e-003
9.401010e-003
9.385836e-003
9.367692e-003
9.347368e-003
9.326342e-003
9.306778e-003
9.291390e-003
9.283162e-003
9.284993e-003
9.299331e-003
9.327867e-003
9.371358e-003
9.429579e-003
9.501400e-003
9.584945e-003
9.677807e-003
9.777266e-003
9.880498e-003
9.984753e-003
1.008748e-002
1.018638e-002
1.027945e-002
1.036492e-002
1.044122e-002
1.050688e-002
1.056048e-002
1.060061e-002
1.062588e-002
1.063490e-002
1.062642e-002
1.059937e-002
1.055310e-002
1.048750e-002
1.040323e-002
1.030193e-002
1.018634e-002
1.006037e-002
9.928996e-003
9.798001e-003
9.673519e-003
9.561425e-003
9.466668e-003
9.392657e-003
9.340826e-003
9.310493e-003
9.299062e-003
9.302548e-003
9.316289e-003
9.335708e-003
9.356924e-003
9.377112e-003
9.394576e-003
9.408606e-003
9.419200e-003
9.426777e-003
9.431936e-003
9.435287e-003
9.437366e-003
9.438596e-003
9.439287e-003
9.439652e-003
9.439831e-003
9.439910e-003
9.439938e-003
9.439944e-003
9.439940e-003
9.439935e-003
9.439930e-003
9.439926e-003
9.439924e-003
9.439922e-003
9.439921e-003
9.439921e-003
9.439920e-003
9.439920e-003
9.439920e-003
9.439921e-003
9.439921e-003
9.439921e-003
9.439922e-003
9.439923e-003
9.439926e-003
9.439929e-003
9.439935e-003
9.439942e-003
9.439951e-003
9.439959e-003
9.439959e-003
9.439938e-003
9.439866e-003
9.439693e-003
9.439327e-003
9.438623e-003
9.437349e-003
9.435167e-003
9.431606e-003
9.426051e-003
9.417778e-003
9.406034e-003
9.390227e-003
9.370214e-003
9.346708e-003
9.321703e-003
9.298841e-003
9.283515e-003
9.282633e-003
9.303975e-003
9.355252e-003
9.443063e-003
9.571973e-003
9.743909e-003
9.957964e-003
1.021059e-002
1.049609e-002
1.080725e-002
1.113599e-002
1.147402e-002
1.181330e-002
1.214648e-002
1.246705e-002
1.276947e-002
1.304907e-002
1.330189e-002
1.352444e-002
1.371349e-002
1.386584e-002
1.397819e-002
1.404710e-002
1.406905e-002
1.404056e-002
1.395850e-002
1.382046e-002
1.362525e-002
1.337342e-002
1.306789e-002
1.271447e-002
1.232214e-002
1.190316e-002
1.147262e-002
1.104751e-002
1.064532e-002
1.028230e-002
9.971564e-003
9.721540e-003
9.534980e-003
9.408876e-003
9.335335e-003
9.303236e-003
9.300279e-003
9.314911e-003
9.337719e-003
9.362063e-003
9.384011e-003
9.401804e-003
9.415140e-003
9.424523e-003
9.430776e-003
9.434740e-003
9.437135e-003
9.438514e-003
9.439266e-003
9.439652e-003