# vtk DataFile Version 3.0
vtk output
ASCII
DATASET STRUCTURED_POINTS
DIMENSIONS 100 100 1
SPACING 1 1 1
ORIGIN 0 0 0
POINT_DATA 10000
SCALARS SFBox_profile double
LOOKUP_TABLE default 
9.439922e-003
9.439921e-003
9.439919e-003
9.439919e-003
9.439919e-003
9.439920e-003
9.439921e-003
9.439921e-003
9.439921e-003
9.439919e-003
9.439919e-003
9.439919e-003
9.439919e-003
9.439920e-003
9.439921e-003
9.439921e-003
9.439921e-003
9.439921e-003
9.439920e-003
9.439920e-003
9.439919e-003
9.439919e-003
9.439919e-003
9.439920e-003
9.439920e-003
9.439921e-003
9.439922e-003
9.439922e-003
9.439923e-003
9.439924e-003
9.439924e-003
9.439924e-003
9.439925e-003
9.439925e-003
9.439926e-003
9.439926e-003
9.439927e-003
9.439928e-003
9.439929e-003
9.439929e-003
9.439930e-003
9.439931e-003
9.439932e-003
9.439933e-003
9.439933e-003
9.439934e-003
9.439935e-003
9.439935e-003
9.439935e-003
9.439935e-003
9.439935e-003
9.439935e-003
9.439935e-003
9.439935e-003
9.439934e-003
9.439934e-003
9.439933e-003
9.439932e-003
9.439932e-003
9.439931e-003
9.439930e-003
9.439929e-003
9.439928e-003
9.439927e-003
9.439926e-003
9.439926e-003
9.439925e-003
9.439924e-003
9.439924e-003
9.439924e-003
9.439924e-003
9.439923e-003
9.439922e-003
9.439922e-003
9.439921e-003
9.439921e-003
9.439920e-003
9.439920e-003
9.439919e-003
9.439919e-003
9.439919e-003
9.439920e-003
9.439920e-003
9.439921e-003
9.439921e-003
9.439921e-003
9.439921e-003
9.439920e-003
9.439920e-003
9.439919e-003
9.439919e-003
9.439920e-003
9.439921e-003
9.439921e-003
9.439920e-003
9.439920e-003
9.439919e-003
9.439920e-003
9.439920e-003
9.439920e-003
9.439922e-003
9.439921e-003
9.439919e-003
9.439919e-003
9.439919e-003
9.439920e-003
9.439921e-003
9.439921e-003
9.439921e-003
9.439919e-003
9.439919e-003
9.439919e-003
9.439919e-003
9.439920e-003
9.439921e-003
9.439921e-003
9.439921e-003
9.439921e-003
9.439920e-003
9.439920e-003
9.439919e-003
9.439919e-003
9.439919e-003
9.439920e-003
9.439920e-003
9.439921e-003
9.439922e-003
9.439922e-003
9.439923e-003
9.439924e-003
9.439924e-003
9.439924e-003
9.439925e-003
9.439925e-003
9.439926e-003
9.439926e-003
9.439927e-003
9.439928e-003
9.439929e-003
9.439929e-003
9.439930e-003
9.439931e-003
9.439932e-003
9.439933e-003
9.439933e-003
9.439934e-003
9.439935e-003
9.439935e-003
9.439935e-003
9.439935e-003
9.439935e-003
9.439935e-003
9.439935e-003
9.439935e-003
9.439934e-003
9.439934e-003
9.439933e-003
9.439932e-003
9.439932e-003
9.439931e-003
9.439930e-003
9.439929e-003
9.439928e-003
9.439927e-003
9.439926e-003
9.439926e-003
9.439925e-003
9.439924e-003
9.439924e-003
9.439924e-003
9.439924e-003
9.439923e-003
9.439922e-003
9.439922e-003
9.439921e-003
9.439921e-003
9.439920e-003
9.439920e-003
9.439919e-003
9.439919e-003
9.439919e-003
9.439920e-003
9.439920e-003
9.439921e-003
9.439921e-003
9.439921e-003
9.439921e-003
9.439920e-003
9.439920e-003
9.439919e-003
9.439919e-003
9.439920e-003
9.439921e-003
9.439921e-003
9.439920e-003
9.439920e-003
9.439919e-003
9.439920e-003
9.439920e-003
9.439920e-003
9.439919e-003
9.439920e-003
9.439920e-003
9.439920e-003
9.439920e-003
9.439920e-003
9.439920e-003
9.439920e-003
9.439920e-003
9.439920e-003
9.439920e-003
9.439920e-003
9.439920e-003
9.439920e-003
9.439920e-003
9.439920e-003
9.439919e-003
9.439920e-003
9.439920e-003
9.439920e-003
9.439921e-003
9.439921e-003
9.439921e-003
9.439921e-003
9.439921e-003
9.439921e-003
9.439921e-003
9.439922e-003
9.439922e-003
9.439923e-003
9.439924e-003
9.439925e-003
9.439926e-003
9.439927e-003
9.439928e-003
9.439930e-003
9.439931e-003
9.439933e-003
9.439934e-003
9.439935e-003
9.439936e-003
9.439937e-003
9.439938e-003
9.439939e-003
9.439940e-003
9.439941e-003
9.439941e-003
9.439941e-003
9.439942e-003
9.439942e-003
9.439942e-003
9.439942e-003
9.439941e-003
9.439941e-003
9.439941e-003
9.439940e-003
9.439939e-003
9.439938e-003
9.439938e-003
9.439937e-003
9.439935e-003
9.439934e-003
9.439933e-003
9.439932e-003
9.439930e-003
9.439929e-003
9.439927e-003
9.439926e-003
9.439925e-003
9.439924e-003
9.439923e-003
9.439922e-003
9.439922e-003
9.439921e-003
9.439921e-003
9.439921e-003
9.439921e-003
9.439921e-003
9.439921e-003
9.439920e-003
9.439920e-003
9.439920e-003
9.439920e-003
9.439920e-003
9.439920e-003
9.439920e-003
9.439920e-003
9.439920e-003
9.439920e-003
9.439920e-003
9.439920e-003
9.439920e-003
9.439920e-003
9.439920e-003
9.439920e-003
9.439920e-003
9.439920e-003
9.439920e-003
9.439920e-003
9.439920e-003
9.439917e-003
9.439919e-003
9.439920e-003
9.439922e-003
9.439921e-003
9.439920e-003
9.439919e-003
9.439918e-003
9.439919e-003
9.439920e-003
9.439921e-003
9.439922e-003
9.439921e-003
9.439920e-003
9.439919e-003
9.439919e-003
9.439919e-003
9.439919e-003
9.439920e-003
9.439921e-003
9.439922e-003
9.439922e-003
9.439922e-003
9.439922e-003
9.439922e-003
9.439922e-003
9.439922e-003
9.439923e-003
9.439923e-003
9.439925e-003
9.439926e-003
9.439928e-003
9.439930e-003
9.439932e-003
9.439934e-003
9.439936e-003
9.439938e-003
9.439940e-003
9.439941e-003
9.439942e-003
9.439944e-003
9.439945e-003
9.439946e-003
9.439946e-003
9.439947e-003
9.439947e-003
9.439947e-003
9.439948e-003
9.439948e-003
9.439948e-003
9.439948e-003
9.439948e-003
9.439947e-003
9.439947e-003
9.439947e-003
9.439946e-003
9.439946e-003
9.439945e-003
9.439944e-003
9.439943e-003
9.439942e-003
9.439941e-003
9.439940e-003
9.439938e-003
9.439936e-003
9.439934e-003
9.439932e-003
9.439930e-003
9.439929e-003
9.439927e-003
9.439925e-003
9.439924e-003
9.439923e-003
9.439922e-003
9.439922e-003
9.439922e-003
9.439922e-003
9.439922e-003
9.439922e-003
9.439922e-003
9.439921e-003
9.439921e-003
9.439920e-003
9.439919e-003
9.439919e-003
9.439919e-003
9.439920e-003
9.439920e-003
9.439921e-003
9.439921e-003
9.439921e-003
9.439920e-003
9.439919e-003
9.439919e-003
9.439920e-003
9.439920e-003
9.439921e-003
9.439921e-003
9.439920e-003
9.439919e-003
9.439918e-003
9.439919e-003
9.439921e-003
9.439921e-003
9.439921e-003
9.439920e-003
9.439919e-003
9.439919e-003
9.439920e-003
9.439921e-003
9.439921e-003
9.439921e-003
9.439920e-003
9.439919e-003
9.439919e-003
9.439919e-003
9.439920e-003
9.439920e-003
9.439920e-003
9.439921e-003
9.439922e-003
9.439922e-003
9.439922e-003
9.439923e-003
9.439923e-003
9.439924e-003
9.439926e-003
9.439928e-003
9.439929e-003
9.439931e-003
9.439933e-003
9.439936e-003
9.439938e-003
9.439940e-003
9.439941e-003
9.439943e-003
9.439944e-003
9.439945e-003
9.439946e-003
9.439946e-003
9.439946e-003
9.439946e-003
9.439946e-003
9.439945e-003
9.439945e-003
9.439944e-003
9.439943e-003
9.439942e-003
9.439942e-003
9.439942e-003
9.439941e-003
9.439941e-003
9.439941e-003
9.439942e-003
9.439942e-003
9.439943e-003
9.439943e-003
9.439944e-003
9.439944e-003
9.439944e-003
9.439944e-003
9.439944e-003
9.439944e-003
9.439943e-003
9.439942e-003
9.439940e-003
9.439939e-003
9.439937e-003
9.439935e-003
9.439933e-003
9.439931e-003
9.439929e-003
9.439928e-003
9.439926e-003
9.439925e-003
9.439923e-003
9.439922e-003
9.439922e-003
9.439922e-003
9.439922e-003
9.439921e-003
9.439921e-003
9.439920e-003
9.439920e-003
9.439920e-003
9.439920e-003
9.439919e-003
9.439920e-003
9.439920e-003
9.439921e-003
9.439921e-003
9.439920e-003
9.439920e-003
9.439919e-003
9.439919e-003
9.439920e-003
9.439921e-003
9.439920e-003
9.439920e-003
9.439920e-003
9.439922e-003
9.439921e-003
9.439920e-003
9.439920e-003
9.439919e-003
9.439920e-003
9.439920e-003
9.439920e-003
9.439921e-003
9.439920e-003
9.439920e-003
9.439919e-003
9.439919e-003
9.439919e-003
9.439920e-003
9.439921e-003
9.439922e-003
9.439922e-003
9.439921e-003
9.439921e-003
9.439921e-003
9.439922e-003
9.439923e-003
9.439924e-003
9.439926e-003
9.439929e-003
9.439932e-003
9.439935e-003
9.439938e-003
9.439940e-003
9.439942e-003
9.439944e-003
9.439946e-003
9.439947e-003
9.439947e-003
9.439946e-003
9.439945e-003
9.439943e-003
9.439940e-003
9.439936e-003
9.439932e-003
9.439927e-003
9.439922e-003
9.439917e-003
9.439912e-003
9.439907e-003
9.439903e-003
9.439899e-003
9.439897e-003
9.439895e-003
9.439894e-003
9.439895e-003
9.439896e-003
9.439899e-003
9.439902e-003
9.439906e-003
9.439910e-003
9.439915e-003
9.439920e-003
9.439925e-003
9.439930e-003
9.439934e-003
9.439937e-003
9.439940e-003
9.439942e-003
9.439943e-003
9.439944e-003
9.439943e-003
9.439942e-003
9.439941e-003
9.439939e-003
9.439937e-003
9.439934e-003
9.439932e-003
9.439929e-003
9.439927e-003
9.439925e-003
9.439923e-003
9.439922e-003
9.439921e-003
9.439921e-003
9.439921e-003
9.439921e-003
9.439921e-003
9.439921e-003
9.439921e-003
9.439920e-003
9.439919e-003
9.439919e-003
9.439920e-003
9.439920e-003
9.439920e-003
9.439920e-003
9.439920e-003
9.439920e-003
9.439920e-003
9.439920e-003
9.439920e-003
9.439920e-003
9.439920e-003
9.439925e-003
9.439922e-003
9.439920e-003
9.439918e-003
9.439918e-003
9.439920e-003
9.439921e-003
9.439922e-003
9.439921e-003
9.439920e-003
9.439919e-003
9.439918e-003
9.439919e-003
9.439920e-003
9.439921e-003
9.439922e-003
9.439922e-003
9.439922e-003
9.439922e-003
9.439922e-003
9.439923e-003
9.439925e-003
9.439927e-003
9.439929e-003
9.439932e-003
9.439936e-003
9.439939e-003
9.439942e-003
9.439945e-003
9.439947e-003
9.439948e-003
9.439948e-003
9.439946e-003
9.439943e-003
9.439937e-003
9.439929e-003
9.439919e-003
9.439907e-003
9.439892e-003
9.439876e-003
9.439858e-003
9.439839e-003
9.439820e-003
9.439801e-003
9.439783e-003
9.439767e-003
9.439752e-003
9.439740e-003
9.439732e-003
9.439726e-003
9.439724e-003
9.439726e-003
9.439731e-003
9.439740e-003
9.439752e-003
9.439766e-003
9.439782e-003
9.439800e-003
9.439819e-003
9.439838e-003
9.439857e-003
9.439875e-003
9.439891e-003
9.439905e-003
9.439917e-003
9.439927e-003
9.439934e-003
9.439939e-003
9.439942e-003
9.439944e-003
9.439943e-003
9.439942e-003
9.439940e-003
9.439938e-003
9.439935e-003
9.439932e-003
9.439929e-003
9.439927e-003
9.439925e-003
9.439923e-003
9.439922e-003
9.439921e-003
9.439921e-003
9.439921e-003
9.439922e-003
9.439921e-003
9.439921e-003
9.439920e-003
9.439919e-003
9.439919e-003
9.439919e-003
9.439920e-003
9.439921e-003
9.439921e-003
9.439920e-003
9.439920e-003
9.439919e-003
9.439919e-003
9.439920e-003
9.439921e-003
9.439924e-003
9.439922e-003
9.439919e-003
9.439918e-003
9.439919e-003
9.439920e-003
9.439921e-003
9.439921e-003
9.439920e-003
9.439919e-003
9.439919e-003
9.439919e-003
9.439920e-003
9.439921e-003
9.439921e-003
9.439921e-003
9.439921e-003
9.439922e-003
9.439923e-003
9.439925e-003
9.439928e-003
9.439931e-003
9.439934e-003
9.439937e-003
9.439940e-003
9.439944e-003
9.439946e-003
9.439948e-003
9.439948e-003
9.439946e-003
9.439941e-003
9.439932e-003
9.439918e-003
9.439899e-003
9.439874e-003
9.439843e-003
9.439806e-003
9.439764e-003
9.439716e-003
9.439664e-003
9.439609e-003
9.439552e-003
9.439495e-003
9.439440e-003
9.439389e-003
9.439342e-003
9.439301e-003
9.439268e-003
9.439244e-003
9.439229e-003
9.439225e-003
9.439230e-003
9.439245e-003
9.439270e-003
9.439303e-003
9.439344e-003
9.439392e-003
9.439444e-003
9.439500e-003
9.439557e-003
9.439614e-003
9.439669e-003
9.439721e-003
9.439769e-003
9.439811e-003
9.439847e-003
9.439876e-003
9.439900e-003
9.439917e-003
9.439929e-003
9.439937e-003
9.439941e-003
9.439943e-003
9.439942e-003
9.439941e-003
9.439938e-003
9.439935e-003
9.439933e-003
9.439930e-003
9.439927e-003
9.439925e-003
9.439923e-003
9.439922e-003
9.439921e-003
9.439921e-003
9.439921e-003
9.439921e-003
9.439921e-003
9.439920e-003
9.439919e-003
9.439919e-003
9.439920e-003
9.439920e-003
9.439921e-003
9.439921e-003
9.439920e-003
9.439919e-003
9.439919e-003
9.439920e-003
9.439921e-003
9.439919e-003
9.439919e-003
9.439920e-003
9.439920e-003
9.439921e-003
9.439921e-003
9.439920e-003
9.439920e-003
9.439919e-003
9.439919e-003
9.439920e-003
9.439921e-003
9.439922e-003
9.439922e-003
9.439921e-003
9.439921e-003
9.439922e-003
9.439924e-003
9.439927e-003
9.439930e-003
9.439934e-003
9.439938e-003
9.439942e-003
9.439946e-003
9.439948e-003
9.439950e-003
9.439949e-003
9.439944e-003
9.439934e-003
9.439917e-003
9.439890e-003
9.439853e-003
9.439803e-003
9.439739e-003
9.439660e-003
9.439566e-003
9.439458e-003
9.439336e-003
9.439203e-003
9.439062e-003
9.438915e-003
9.438765e-003
9.438618e-003
9.438476e-003
9.438344e-003
9.438225e-003
9.438123e-003
9.438040e-003
9.437980e-003
9.437943e-003
9.437932e-003
9.437945e-003
9.437984e-003
9.438047e-003
9.438132e-003
9.438237e-003
9.438359e-003
9.438494e-003
9.438639e-003
9.438789e-003
9.438940e-003
9.439089e-003
9.439231e-003
9.439363e-003
9.439483e-003
9.439589e-003
9.439680e-003
9.439755e-003
9.439815e-003
9.439861e-003
9.439894e-003
9.439917e-003
9.439931e-003
9.439939e-003
9.439943e-003
9.439943e-003
9.439942e-003
9.439939e-003
9.439936e-003
9.439932e-003
9.439929e-003
9.439926e-003
9.439924e-003
9.439922e-003
9.439921e-003
9.439920e-003
9.439921e-003
9.439921e-003
9.439921e-003
9.439920e-003
9.439920e-003
9.439919e-003
9.439920e-003
9.439920e-003
9.439920e-003
9.439920e-003
9.439920e-003
9.439920e-003
9.439920e-003
9.439920e-003
9.439914e-003
9.439917e-003
9.439920e-003
9.439922e-003
9.439922e-003
9.439921e-003
9.439919e-003
9.439918e-003
9.439919e-003
9.439920e-003
9.439921e-003
9.439922e-003
9.439922e-003
9.439922e-003
9.439922e-003
9.439923e-003
9.439925e-003
9.439928e-003
9.439933e-003
9.439937e-003
9.439941e-003
9.439945e-003
9.439949e-003
9.439951e-003
9.439950e-003
9.439943e-003
9.439929e-003
9.439902e-003
9.439860e-003
9.439799e-003
9.439713e-003
9.439600e-003
9.439455e-003
9.439277e-003
9.439064e-003
9.438818e-003
9.438539e-003
9.438231e-003
9.437899e-003
9.437551e-003
9.437192e-003
9.436831e-003
9.436478e-003
9.436142e-003
9.435829e-003
9.435550e-003
9.435312e-003
9.435120e-003
9.434980e-003
9.434895e-003
9.434869e-003
9.434902e-003
9.434994e-003
9.435141e-003
9.435341e-003
9.435588e-003
9.435876e-003
9.436197e-003
9.436542e-003
9.436903e-003
9.437270e-003
9.437633e-003
9.437985e-003
9.438316e-003
9.438622e-003
9.438896e-003
9.439135e-003
9.439339e-003
9.439507e-003
9.439641e-003
9.439744e-003
9.439819e-003
9.439872e-003
9.439907e-003
9.439928e-003
9.439939e-003
9.439943e-003
9.439943e-003
9.439941e-003
9.439938e-003
9.439934e-003
9.439931e-003
9.439928e-003
9.439925e-003
9.439923e-003
9.439921e-003
9.439921e-003
9.439921e-003
9.439921e-003
9.439921e-003
9.439920e-003
9.439920e-003
9.439919e-003
9.439919e-003
9.439920e-003
9.439920e-003
9.439921e-003
9.439921e-003
9.439920e-003
9.439919e-003
9.439914e-003
9.439917e-003
9.439921e-003
9.439923e-003
9.439922e-003
9.439920e-003
9.439918e-003
9.439919e-003
9.439920e-003
9.439921e-003
9.439922e-003
9.439921e-003
9.439921e-003
9.439922e-003
9.439924e-003
9.439927e-003
9.439931e-003
9.439935e-003
9.439940e-003
9.439945e-003
9.439949e-003
9.439951e-003
9.439951e-003
9.439944e-003
9.439927e-003
9.439894e-003
9.439837e-003
9.439750e-003
9.439624e-003
9.439449e-003
9.439217e-003
9.438921e-003
9.438553e-003
9.438110e-003
9.437591e-003
9.436998e-003
9.436337e-003
9.435617e-003
9.434850e-003
9.434051e-003
9.433237e-003
9.432427e-003
9.431638e-003
9.430890e-003
9.430202e-003
9.429590e-003
9.429068e-003
9.428651e-003
9.428347e-003
9.428165e-003
9.428110e-003
9.428183e-003
9.428384e-003
9.428706e-003
9.429144e-003
9.429687e-003
9.430321e-003
9.431031e-003
9.431800e-003
9.432609e-003
9.433437e-003
9.434265e-003
9.435072e-003
9.435842e-003
9.436559e-003
9.437211e-003
9.437789e-003
9.438288e-003
9.438708e-003
9.439050e-003
9.439322e-003
9.439529e-003
9.439681e-003
9.439787e-003
9.439859e-003
9.439903e-003
9.439928e-003
9.439939e-003
9.439943e-003
9.439942e-003
9.439940e-003
9.439937e-003
9.439933e-003
9.439929e-003
9.439926e-003
9.439924e-003
9.439922e-003
9.439921e-003
9.439921e-003
9.439921e-003
9.439921e-003
9.439921e-003
9.439920e-003
9.439919e-003
9.439919e-003
9.439920e-003
9.439921e-003
9.439921e-003
9.439920e-003
9.439919e-003
9.439918e-003
9.439920e-003
9.439921e-003
9.439921e-003
9.439920e-003
9.439919e-003
9.439919e-003
9.439920e-003
9.439921e-003
9.439922e-003
9.439922e-003
9.439921e-003
9.439922e-003
9.439925e-003
9.439928e-003
9.439933e-003
9.439938e-003
9.439943e-003
9.439948e-003
9.439952e-003
9.439953e-003
9.439948e-003
9.439931e-003
9.439896e-003
9.439831e-003
9.439725e-003
9.439562e-003
9.439325e-003
9.438997e-003
9.438559e-003
9.437993e-003
9.437284e-003
9.436422e-003
9.435400e-003
9.434221e-003
9.432891e-003
9.431427e-003
9.429851e-003
9.428190e-003
9.426478e-003
9.424751e-003
9.423046e-003
9.421401e-003
9.419854e-003
9.418440e-003
9.417190e-003
9.416131e-003
9.415287e-003
9.414676e-003
9.414313e-003
9.414204e-003
9.414354e-003
9.414761e-003
9.415416e-003
9.416306e-003
9.417414e-003
9.418714e-003
9.420179e-003
9.421775e-003
9.423467e-003
9.425213e-003
9.426974e-003
9.428710e-003
9.430382e-003
9.431957e-003
9.433406e-003
9.434707e-003
9.435846e-003
9.436819e-003
9.437626e-003
9.438277e-003
9.438786e-003
9.439171e-003
9.439451e-003
9.439647e-003
9.439778e-003
9.439860e-003
9.439907e-003
9.439931e-003
9.439942e-003
9.439944e-003
9.439942e-003
9.439938e-003
9.439934e-003
9.439931e-003
9.439927e-003
9.439924e-003
9.439922e-003
9.439921e-003
9.439921e-003
9.439921e-003
9.439921e-003
9.439921e-003
9.439920e-003
9.439919e-003
9.439920e-003
9.439920e-003
9.439920e-003
9.439920e-003
9.439920e-003
9.439924e-003
9.439923e-003
9.439920e-003
9.439919e-003
9.439918e-003
9.439919e-003
9.439920e-003
9.439921e-003
9.439922e-003
9.439922e-003
9.439922e-003
9.439923e-003
9.439925e-003
9.439929e-003
9.439935e-003
9.439940e-003
9.439946e-003
9.439951e-003
9.439954e-003
9.439953e-003
9.439941e-003
9.439910e-003
9.439847e-003
9.439734e-003
9.439552e-003
9.439271e-003
9.438861e-003
9.438286e-003
9.437509e-003
9.436495e-003
9.435209e-003
9.433627e-003
9.431732e-003
9.429521e-003
9.427005e-003
9.424210e-003
9.421175e-003
9.417953e-003
9.414604e-003
9.411198e-003
9.407806e-003
9.404500e-003
9.401349e-003
9.398418e-003
9.395766e-003
9.393443e-003
9.391493e-003
9.389950e-003
9.388842e-003
9.388188e-003
9.387999e-003
9.388280e-003
9.389029e-003
9.390233e-003
9.391875e-003
9.393928e-003
9.396357e-003
9.399115e-003
9.402151e-003
9.405401e-003
9.408798e-003
9.412267e-003
9.415730e-003
9.419113e-003
9.422343e-003
9.425356e-003
9.428102e-003
9.430542e-003
9.432655e-003
9.434437e-003
9.435898e-003
9.437060e-003
9.437956e-003
9.438625e-003
9.439106e-003
9.439439e-003
9.439659e-003
9.439796e-003
9.439876e-003
9.439919e-003
9.439938e-003
9.439944e-003
9.439943e-003
9.439940e-003
9.439936e-003
9.439932e-003
9.439928e-003
9.439925e-003
9.439922e-003
9.439921e-003
9.439921e-003
9.439921e-003
9.439921e-003
9.439920e-003
9.439920e-003
9.439920e-003
9.439919e-003
9.439920e-003
9.439920e-003
9.439920e-003
9.439927e-003
9.439924e-003
9.439919e-003
9.439917e-003
9.439918e-003
9.439920e-003
9.439922e-003
9.439922e-003
9.439921e-003
9.439922e-003
9.439923e-003
9.439926e-003
9.439931e-003
9.439936e-003
9.439942e-003
9.439948e-003
9.439953e-003
9.439955e-003
9.439950e-003
9.439929e-003
9.439878e-003
9.439777e-003
9.439599e-003
9.439308e-003
9.438857e-003
9.438189e-003
9.437242e-003
9.435944e-003
9.434226e-003
9.432022e-003
9.429278e-003
9.425958e-003
9.422050e-003
9.417571e-003
9.412569e-003
9.407117e-003
9.401315e-003
9.395281e-003
9.389144e-003
9.383036e-003
9.377088e-003
9.371417e-003
9.366130e-003
9.361315e-003
9.357046e-003
9.353378e-003
9.350352e-003
9.347997e-003
9.346333e-003
9.345370e-003
9.345115e-003
9.345570e-003
9.346734e-003
9.348601e-003
9.351159e-003
9.354391e-003
9.358265e-003
9.362740e-003
9.367756e-003
9.373236e-003
9.379084e-003
9.385188e-003
9.391420e-003
9.397640e-003
9.403710e-003
9.409494e-003
9.414871e-003
9.419744e-003
9.424044e-003
9.427736e-003
9.430816e-003
9.433310e-003
9.435268e-003
9.436757e-003
9.437850e-003
9.438625e-003
9.439153e-003
9.439497e-003
9.439711e-003
9.439835e-003
9.439901e-003
9.439932e-003
9.439942e-003
9.439944e-003
9.439941e-003
9.439937e-003
9.439932e-003
9.439928e-003
9.439925e-003
9.439923e-003
9.439921e-003
9.439921e-003
9.439921e-003
9.439921e-003
9.439921e-003
9.439920e-003
9.439919e-003
9.439919e-003
9.439920e-003
9.439921e-003
9.439925e-003
9.439922e-003
9.439919e-003
9.439918e-003
9.439919e-003
9.439922e-003
9.439923e-003
9.439922e-003
9.439921e-003
9.439923e-003
9.439926e-003
9.439932e-003
9.439938e-003
9.439944e-003
9.439950e-003
9.439956e-003
9.439957e-003
9.439947e-003
9.439913e-003
9.439838e-003
9.439690e-003
9.439427e-003
9.438992e-003
9.438309e-003
9.437285e-003
9.435809e-003
9.433756e-003
9.431001e-003
9.427420e-003
9.422915e-003
9.417417e-003
9.410911e-003
9.403435e-003
9.395092e-003
9.386043e-003
9.376499e-003
9.366704e-003
9.356917e-003
9.347391e-003
9.338357e-003
9.330005e-003
9.322477e-003
9.315865e-003
9.310211e-003
9.305514e-003
9.301739e-003
9.298828e-003
9.296713e-003
9.295326e-003
9.294609e-003
9.294520e-003
9.295046e-003
9.296195e-003
9.298002e-003
9.300522e-003
9.303820e-003
9.307966e-003
9.313017e-003
9.319009e-003
9.325941e-003
9.333768e-003
9.342391e-003
9.351657e-003
9.361359e-003
9.371252e-003
9.381065e-003
9.390528e-003
9.399392e-003
9.407450e-003
9.414554e-003
9.420625e-003
9.425651e-003
9.429677e-003
9.432798e-003
9.435136e-003
9.436826e-003
9.438004e-003
9.438792e-003
9.439299e-003
9.439608e-003
9.439786e-003
9.439880e-003
9.439924e-003
9.439941e-003
9.439944e-003
9.439942e-003
9.439937e-003
9.439933e-003
9.439929e-003
9.439925e-003
9.439922e-003
9.439921e-003
9.439920e-003
9.439921e-003
9.439921e-003
9.439921e-003
9.439919e-003
9.439919e-003
9.439920e-003
9.439921e-003
9.439921e-003
9.439920e-003
9.439919e-003
9.439919e-003
9.439921e-003
9.439922e-003
9.439923e-003
9.439922e-003
9.439923e-003
9.439926e-003
9.439932e-003
9.439938e-003
9.439945e-003
9.439952e-003
9.439957e-003
9.439957e-003
9.439943e-003
9.439897e-003
9.439794e-003
9.439591e-003
9.439227e-003
9.438616e-003
9.437640e-003
9.436151e-003
9.433969e-003
9.430889e-003
9.426694e-003
9.421177e-003
9.414171e-003
9.405578e-003
9.395402e-003
9.383774e-003
9.370962e-003
9.357365e-003
9.343491e-003
9.329912e-003
9.317211e-003
9.305929e-003
9.296508e-003
9.289250e-003
9.284296e-003
9.281614e-003
9.281015e-003
9.282173e-003
9.284667e-003
9.288016e-003
9.291720e-003
9.295302e-003
9.298341e-003
9.300507e-003
9.301582e-003
9.301481e-003
9.300254e-003
9.298088e-003
9.295293e-003
9.292276e-003
9.289515e-003
9.287521e-003
9.286795e-003
9.287780e-003
9.290823e-003
9.296126e-003
9.303720e-003
9.313449e-003
9.324981e-003
9.337835e-003
9.351430e-003
9.365149e-003
9.378402e-003
9.390688e-003
9.401631e-003
9.411009e-003
9.418748e-003
9.424899e-003
9.429612e-003
9.433091e-003
9.435565e-003
9.437259e-003
9.438373e-003
9.439075e-003
9.439495e-003
9.439733e-003
9.439858e-003
9.439917e-003
9.439939e-003
9.439944e-003
9.439942e-003
9.439938e-003
9.439933e-003
9.439929e-003
9.439925e-003
9.439922e-003
9.439921e-003
9.439921e-003
9.439921e-003
9.439921e-003
9.439920e-003
9.439919e-003
9.439920e-003
9.439920e-003
9.439917e-003
9.439918e-003
9.439920e-003
9.439921e-003
9.439922e-003
9.439922e-003
9.439922e-003
9.439924e-003
9.439927e-003
9.439932e-003
9.439938e-003
9.439946e-003
9.439953e-003
9.439959e-003
9.439957e-003
9.439938e-003
9.439881e-003
9.439751e-003
9.439490e-003
9.439016e-003
9.438203e-003
9.436882e-003
9.434829e-003
9.431767e-003
9.427374e-003
9.421305e-003
9.413236e-003
9.402919e-003
9.390257e-003
9.375378e-003
9.358703e-003
9.340975e-003
9.323257e-003
9.306867e-003
9.293269e-003
9.283931e-003
9.280160e-003
9.282951e-003
9.292867e-003
9.309959e-003
9.333747e-003
9.363247e-003
9.397055e-003
9.433453e-003
9.470537e-003
9.506340e-003
9.538953e-003
9.566632e-003
9.587892e-003
9.601589e-003
9.606983e-003
9.603776e-003
9.592137e-003
9.572693e-003
9.546502e-003
9.515003e-003
9.479935e-003
9.443251e-003
9.406998e-003
9.373189e-003
9.343657e-003
9.319911e-003
9.303002e-003
9.293435e-003
9.291126e-003
9.295429e-003
9.305231e-003
9.319099e-003
9.335458e-003
9.352780e-003
9.369741e-003
9.385329e-003
9.398893e-003
9.410131e-003
9.419028e-003
9.425777e-003
9.430692e-003
9.434129e-003
9.436439e-003
9.437928e-003
9.438846e-003
9.439386e-003
9.439685e-003
9.439839e-003
9.439911e-003
9.439938e-003
9.439944e-003
9.439942e-003
9.439938e-003
9.439933e-003
9.439928e-003
9.439925e-003
9.439922e-003
9.439921e-003
9.439921e-003
9.439921e-003
9.439920e-003
9.439920e-003
9.439920e-003
9.439920e-003
9.439914e-003
9.439918e-003
9.439922e-003
9.439923e-003
9.439922e-003
9.439921e-003
9.439922e-003
9.439926e-003
9.439932e-003
9.439939e-003
9.439946e-003
9.439954e-003
9.439960e-003
9.439958e-003
9.439936e-003
9.439869e-003
9.439715e-003
9.439400e-003
9.438815e-003
9.437792e-003
9.436096e-003
9.433408e-003
9.429323e-003
9.423361e-003
9.415009e-003
9.403793e-003
9.389400e-003
9.371842e-003
9.351634e-003
9.329969e-003
9.308830e-003
9.290989e-003
9.279882e-003
9.279331e-003
9.293166e-003
9.324787e-003
9.376735e-003
9.450344e-003
9.545513e-003
9.660623e-003
9.792611e-003
9.937175e-003
1.008908e-002
1.024251e-002
1.039141e-002
1.052984e-002
1.065224e-002
1.075368e-002
1.083003e-002
1.087818e-002
1.089610e-002
1.088299e-002
1.083928e-002
1.076663e-002
1.066790e-002
1.054706e-002
1.040900e-002
1.025940e-002
1.010445e-002
9.950537e-003
9.803878e-003
9.670110e-003
9.553870e-003
9.458430e-003
9.385449e-003
9.334895e-003
9.305145e-003
9.293274e-003
9.295486e-003
9.307625e-003
9.325674e-003
9.346166e-003
9.366442e-003
9.384740e-003
9.400122e-003
9.412314e-003
9.421493e-003
9.428089e-003
9.432624e-003
9.435613e-003
9.437499e-003
9.438638e-003
9.439292e-003
9.439647e-003
9.439826e-003
9.439907e-003
9.439937e-003
9.439944e-003
9.439942e-003
9.439937e-003
9.439932e-003
9.439928e-003
9.439925e-003
9.439922e-003
9.439920e-003
9.439920e-003
9.439921e-003
9.439921e-003
9.439920e-003
9.439919e-003
9.439914e-003
9.439919e-003
9.439923e-003
9.439924e-003
9.439923e-003
9.439922e-003
9.439925e-003
9.439931e-003
9.439939e-003
9.439947e-003
9.439954e-003
9.439961e-003
9.439960e-003
9.439937e-003
9.439865e-003
9.439692e-003
9.439334e-003
9.438651e-003
9.437430e-003
9.435361e-003
9.432014e-003
9.426826e-003
9.419123e-003
9.408175e-003
9.393340e-003
9.374301e-003
9.351410e-003
9.326115e-003
9.301396e-003
9.282092e-003
9.275001e-003
9.288623e-003
9.332544e-003
9.416489e-003
9.549190e-003
9.737258e-003
9.984237e-003
1.028998e-002
1.065040e-002
1.105768e-002
1.150072e-002
1.196598e-002
1.243834e-002
1.290207e-002
1.334162e-002
1.374233e-002
1.409096e-002
1.437608e-002
1.458834e-002
1.472075e-002
1.476883e-002
1.473074e-002
1.460734e-002
1.440225e-002
1.412174e-002
1.377470e-002
1.337241e-002
1.292834e-002
1.245768e-002
1.197687e-002
1.150275e-002
1.105161e-002
1.063813e-002
1.027423e-002
9.968198e-003
9.724043e-003
9.541344e-003
9.415585e-003
9.338976e-003
9.301642e-003
9.292978e-003
9.302924e-003
9.322943e-003
9.346568e-003
9.369501e-003
9.389360e-003
9.405215e-003
9.417087e-003
9.425508e-003
9.431197e-003
9.434872e-003
9.437141e-003
9.438479e-003
9.439229e-003
9.439626e-003
9.439821e-003
9.439907e-003
9.439938e-003
9.439944e-003
9.439941e-003
9.439936e-003
9.439932e-003
9.439928e-003
9.439924e-003
9.439921e-003
9.439920e-003
9.439921e-003
9.439921e-003
9.439920e-003
9.439919e-003
9.439916e-003
9.439919e-003
9.439923e-003
9.439924e-003
9.439924e-003
9.439925e-003
9.439929e-003
9.439937e-003
9.439946e-003
9.439954e-003
9.439961e-003
9.439961e-003
9.439940e-003
9.439867e-003
9.439687e-003
9.439301e-003
9.438546e-003
9.437164e-003
9.434766e-003
9.430799e-003
9.424525e-003
9.415034e-003
9.401344e-003
9.382637e-003
9.358700e-003
9.330620e-003
9.301711e-003
9.278551e-003
9.271866e-003
9.296952e-003
9.373299e-003
9.523277e-003
9.769943e-003
1.013429e-002
1.063242e-002
1.127315e-002
1.205645e-002
1.297290e-002
1.400420e-002
1.512452e-002
1.630246e-002
1.750329e-002
1.869118e-002
1.983117e-002
2.089061e-002
2.184027e-002
2.265484e-002
2.331325e-002
2.379880e-002
2.409919e-002
2.420660e-002
2.411772e-002
2.383379e-002
2.336074e-002
2.270926e-002
2.189490e-002
2.093820e-002
1.986461e-002
1.870439e-002
1.749192e-002
1.626465e-002
1.506132e-002
1.391967e-002
1.287379e-002
1.195139e-002
1.117145e-002
1.054271e-002
1.006321e-002
9.721212e-003
9.497350e-003
9.367694e-003
9.307117e-003
9.292322e-003
9.303999e-003
9.327840e-003
9.354488e-003
9.378730e-003
9.398346e-003
9.412978e-003
9.423219e-003
9.430014e-003
9.434309e-003
9.436901e-003
9.438391e-003
9.439206e-003
9.439625e-003