# vtk DataFile Version 3.0
vtk output
ASCII
DATASET STRUCTURED_POINTS
DIMENSIONS 100 100 1
SPACING 1 1 1
ORIGIN 0 0 0
POINT_DATA 10000
SCALARS SFBox_profile double
LOOKUP_TABLE default 
9.439919e-003
9.439920e-003
9.439920e-003
9.439921e-003
9.439921e-003
9.439920e-003
9.439920e-003
9.439919e-003
9.439919e-003
9.439920e-003
9.439920e-003
9.439920e-003
9.439921e-003
9.439921e-003
9.439920e-003
9.439920e-003
9.439920e-003
9.439920e-003
9.439920e-003
9.439920e-003
9.439920e-003
9.439920e-003
9.439920e-003
9.439920e-003
9.439920e-003
9.439920e-003
9.439920e-003
9.439920e-003
9.439920e-003
9.439920e-003
9.439921e-003
9.439920e-003
9.439920e-003
9.439920e-003
9.439920e-003
9.439920e-003
9.439920e-003
9.439920e-003
9.439920e-003
9.439920e-003
9.439920e-003
9.439920e-003
9.439920e-003
9.439920e-003
9.439920e-003
9.439920e-003
9.439920e-003
9.439920e-003
9.439920e-003
9.439920e-003
9.439920e-003
9.439920e-003
9.439920e-003
9.439920e-003
9.439920e-003
9.439920e-003
9.439920e-003
9.439920e-003
9.439920e-003
9.439920e-003
9.439920e-003
9.439920e-003
9.439920e-003
9.439920e-003
9.439920e-003
9.439920e-003
9.439920e-003
9.439920e-003
9.439920e-003
9.439920e-003
9.439920e-003
9.439920e-003
9.439920e-003
9.439920e-003
9.439920e-003
9.439920e-003
9.439920e-003
9.439920e-003
9.439920e-003
9.439920e-003
9.439920e-003
9.439920e-003
9.439920e-003
9.439920e-003
9.439920e-003
9.439920e-003
9.439920e-003
9.439920e-003
9.439920e-003
9.439920e-003
9.439920e-003
9.439920e-003
9.439920e-003
9.439920e-003
9.439920e-003
9.439920e-003
9.439920e-003
9.439920e-003
9.439920e-003
9.439920e-003
9.439919e-003
9.439920e-003
9.439920e-003
9.439921e-003
9.439921e-003
9.439920e-003
9.439920e-003
9.439919e-003
9.439919e-003
9.439920e-003
9.439920e-003
9.439920e-003
9.439921e-003
9.439921e-003
9.439920e-003
9.439920e-003
9.439920e-003
9.439920e-003
9.439920e-003
9.439920e-003
9.439920e-003
9.439920e-003
9.439920e-003
9.439920e-003
9.439920e-003
9.439920e-003
9.439920e-003
9.439920e-003
9.439920e-003
9.439920e-003
9.439921e-003
9.439920e-003
9.439920e-003
9.439920e-003
9.439920e-003
9.439920e-003
9.439920e-003
9.439920e-003
9.439920e-003
9.439920e-003
9.439920e-003
9.439920e-003
9.439920e-003
9.439920e-003
9.439920e-003
9.439920e-003
9.439920e-003
9.439920e-003
9.439920e-003
9.439920e-003
9.439920e-003
9.439920e-003
9.439920e-003
9.439920e-003
9.439920e-003
9.439920e-003
9.439920e-003
9.439920e-003
9.439920e-003
9.439920e-003
9.439920e-003
9.439920e-003
9.439920e-003
9.439920e-003
9.439920e-003
9.439920e-003
9.439920e-003
9.439920e-003
9.439920e-003
9.439920e-003
9.439920e-003
9.439920e-003
9.439920e-003
9.439920e-003
9.439920e-003
9.439920e-003
9.439920e-003
9.439920e-003
9.439920e-003
9.439920e-003
9.439920e-003
9.439920e-003
9.439920e-003
9.439920e-003
9.439920e-003
9.439920e-003
9.439920e-003
9.439920e-003
9.439920e-003
9.439920e-003
9.439920e-003
9.439920e-003
9.439920e-003
9.439920e-003
9.439920e-003
9.439920e-003
9.439920e-003
9.439920e-003
9.439920e-003
9.439920e-003
9.439920e-003
9.439920e-003
9.439920e-003
9.439920e-003
9.439920e-003
9.439920e-003
9.439920e-003
9.439920e-003
9.439920e-003
9.439920e-003
9.439920e-003
9.439920e-003
9.439920e-003
9.439920e-003
9.439920e-003
9.439920e-003
9.439920e-003
9.439920e-003
9.439920e-003
9.439920e-003
9.439920e-003
9.439920e-003
9.439920e-003
9.439920e-003
9.439920e-003
9.439920e-003
9.439920e-003
9.439920e-003
9.439920e-003
9.439920e-003
9.439920e-003
9.439920e-003
9.439920e-003
9.439920e-003
9.439920e-003
9.439920e-003
9.439920e-003
9.439920e-003
9.439920e-003
9.439920e-003
9.439920e-003
9.439920e-003
9.439920e-003
9.439920e-003
9.439920e-003
9.439921e-003
9.439921e-003
9.439921e-003
9.439921e-003
9.439921e-003
9.439921e-003
9.439921e-003
9.439921e-003
9.439921e-003
9.439921e-003
9.439920e-003
9.439920e-003
9.439920e-003
9.439920e-003
9.439920e-003
9.439920e-003
9.439920e-003
9.439920e-003
9.439920e-003
9.439920e-003
9.439920e-003
9.439920e-003
9.439920e-003
9.439920e-003
9.439920e-003
9.439920e-003
9.439920e-003
9.439920e-003
9.439920e-003
9.439920e-003
9.439920e-003
9.439920e-003
9.439920e-003
9.439920e-003
9.439920e-003
9.439920e-003
9.439920e-003
9.439920e-003
9.439920e-003
9.439920e-003
9.439920e-003
9.439920e-003
9.439920e-003
9.439920e-003
9.439920e-003
9.439920e-003
9.439920e-003
9.439920e-003
9.439920e-003
9.439920e-003
9.439920e-003
9.439920e-003
9.439920e-003
9.439920e-003
9.439920e-003
9.439921e-003
9.439920e-003
9.439920e-003
9.439919e-003
9.439919e-003
9.439920e-003
9.439920e-003
9.439920e-003
9.439921e-003
9.439920e-003
9.439920e-003
9.439920e-003
9.439920e-003
9.439920e-003
9.439920e-003
9.439920e-003
9.439920e-003
9.439920e-003
9.439920e-003
9.439920e-003
9.439921e-003
9.439920e-003
9.439920e-003
9.439920e-003
9.439920e-003
9.439920e-003
9.439920e-003
9.439920e-003
9.439919e-003
9.439919e-003
9.439920e-003
9.439920e-003
9.439920e-003
9.439920e-003
9.439920e-003
9.439920e-003
9.439920e-003
9.439920e-003
9.439921e-003
9.439921e-003
9.439921e-003
9.439921e-003
9.439921e-003
9.439921e-003
9.439921e-003
9.439921e-003
9.439922e-003
9.439922e-003
9.439922e-003
9.439922e-003
9.439922e-003
9.439922e-003
9.439922e-003
9.439922e-003
9.439921e-003
9.439921e-003
9.439921e-003
9.439921e-003
9.439921e-003
9.439921e-003
9.439921e-003
9.439921e-003
9.439921e-003
9.439920e-003
9.439920e-003
9.439920e-003
9.439920e-003
9.439920e-003
9.439920e-003
9.439920e-003
9.439920e-003
9.439920e-003
9.439920e-003
9.439920e-003
9.439920e-003
9.439920e-003
9.439920e-003
9.439920e-003
9.439920e-003
9.439920e-003
9.439920e-003
9.439920e-003
9.439920e-003
9.439920e-003
9.439920e-003
9.439920e-003
9.439920e-003
9.439920e-003
9.439920e-003
9.439920e-003
9.439920e-003
9.439920e-003
9.439920e-003
9.439920e-003
9.439920e-003
9.439920e-003
9.439920e-003
9.439920e-003
9.439920e-003
9.439920e-003
9.439921e-003
9.439920e-003
9.439920e-003
9.439919e-003
9.439919e-003
9.439920e-003
9.439920e-003
9.439921e-003
9.439921e-003
9.439920e-003
9.439920e-003
9.439920e-003
9.439919e-003
9.439920e-003
9.439920e-003
9.439920e-003
9.439920e-003
9.439920e-003
9.439920e-003
9.439920e-003
9.439920e-003
9.439920e-003
9.439920e-003
9.439920e-003
9.439920e-003
9.439920e-003
9.439920e-003
9.439920e-003
9.439920e-003
9.439920e-003
9.439920e-003
9.439920e-003
9.439920e-003
9.439920e-003
9.439921e-003
9.439921e-003
9.439921e-003
9.439921e-003
9.439921e-003
9.439921e-003
9.439922e-003
9.439922e-003
9.439922e-003
9.439922e-003
9.439922e-003
9.439922e-003
9.439922e-003
9.439922e-003
9.439922e-003
9.439922e-003
9.439922e-003
9.439922e-003
9.439922e-003
9.439922e-003
9.439922e-003
9.439922e-003
9.439922e-003
9.439922e-003
9.439922e-003
9.439922e-003
9.439921e-003
9.439921e-003
9.439921e-003
9.439921e-003
9.439921e-003
9.439921e-003
9.439920e-003
9.439920e-003
9.439920e-003
9.439920e-003
9.439920e-003
9.439920e-003
9.439920e-003
9.439920e-003
9.439920e-003
9.439920e-003
9.439920e-003
9.439920e-003
9.439920e-003
9.439920e-003
9.439920e-003
9.439920e-003
9.439920e-003
9.439920e-003
9.439920e-003
9.439920e-003
9.439920e-003
9.439920e-003
9.439920e-003
9.439920e-003
9.439920e-003
9.439920e-003
9.439920e-003
9.439920e-003
9.439920e-003
9.439920e-003
9.439920e-003
9.439920e-003
9.439920e-003
9.439920e-003
9.439920e-003
9.439920e-003
9.439920e-003
9.439920e-003
9.439920e-003
9.439920e-003
9.439920e-003
9.439920e-003
9.439920e-003
9.439920e-003
9.439920e-003
9.439920e-003
9.439920e-003
9.439920e-003
9.439920e-003
9.439920e-003
9.439920e-003
9.439920e-003
9.439920e-003
9.439920e-003
9.439920e-003
9.439920e-003
9.439920e-003
9.439920e-003
9.439920e-003
9.439920e-003
9.439920e-003
9.439921e-003
9.439921e-003
9.439921e-003
9.439921e-003
9.439921e-003
9.439921e-003
9.439921e-003
9.439922e-003
9.439922e-003
9.439922e-003
9.439922e-003
9.439922e-003
9.439923e-003
9.439923e-003
9.439923e-003
9.439923e-003
9.439923e-003
9.439924e-003
9.439924e-003
9.439924e-003
9.439924e-003
9.439924e-003
9.439924e-003
9.439924e-003
9.439924e-003
9.439924e-003
9.439924e-003
9.439924e-003
9.439924e-003
9.439923e-003
9.439923e-003
9.439923e-003
9.439923e-003
9.439923e-003
9.439922e-003
9.439922e-003
9.439922e-003
9.439922e-003
9.439921e-003
9.439921e-003
9.439921e-003
9.439921e-003
9.439921e-003
9.439921e-003
9.439921e-003
9.439920e-003
9.439920e-003
9.439920e-003
9.439920e-003
9.439920e-003
9.439920e-003
9.439920e-003
9.439920e-003
9.439920e-003
9.439920e-003
9.439920e-003
9.439920e-003
9.439920e-003
9.439920e-003
9.439920e-003
9.439920e-003
9.439920e-003
9.439920e-003
9.439920e-003
9.439920e-003
9.439920e-003
9.439920e-003
9.439920e-003
9.439920e-003
9.439920e-003
9.439920e-003
9.439920e-003
9.439920e-003
9.439920e-003
9.439920e-003
9.439920e-003
9.439920e-003
9.439920e-003
9.439920e-003
9.439920e-003
9.439920e-003
9.439920e-003
9.439920e-003
9.439920e-003
9.439920e-003
9.439920e-003
9.439920e-003
9.439921e-003
9.439920e-003
9.439920e-003
9.439920e-003
9.439920e-003
9.439919e-003
9.439919e-003
9.439920e-003
9.439920e-003
9.439920e-003
9.439920e-003
9.439921e-003
9.439921e-003
9.439921e-003
9.439922e-003
9.439922e-003
9.439922e-003
9.439922e-003
9.439923e-003
9.439923e-003
9.439923e-003
9.439924e-003
9.439924e-003
9.439924e-003
9.439925e-003
9.439925e-003
9.439926e-003
9.439926e-003
9.439926e-003
9.439927e-003
9.439927e-003
9.439927e-003
9.439928e-003
9.439928e-003
9.439928e-003
9.439928e-003
9.439928e-003
9.439928e-003
9.439928e-003
9.439928e-003
9.439927e-003
9.439927e-003
9.439927e-003
9.439926e-003
9.439926e-003
9.439926e-003
9.439925e-003
9.439925e-003
9.439924e-003
9.439924e-003
9.439923e-003
9.439923e-003
9.439923e-003
9.439922e-003
9.439922e-003
9.439922e-003
9.439921e-003
9.439921e-003
9.439921e-003
9.439921e-003
9.439920e-003
9.439920e-003
9.439920e-003
9.439920e-003
9.439920e-003
9.439920e-003
9.439920e-003
9.439920e-003
9.439920e-003
9.439920e-003
9.439920e-003
9.439920e-003
9.439920e-003
9.439920e-003
9.439920e-003
9.439920e-003
9.439920e-003
9.439920e-003
9.439920e-003
9.439920e-003
9.439920e-003
9.439920e-003
9.439920e-003
9.439920e-003
9.439920e-003
9.439920e-003
9.439919e-003
9.439920e-003
9.439920e-003
9.439921e-003
9.439921e-003
9.439920e-003
9.439920e-003
9.439919e-003
9.439919e-003
9.439920e-003
9.439920e-003
9.439920e-003
9.439920e-003
9.439920e-003
9.439920e-003
9.439920e-003
9.439920e-003
9.439920e-003
9.439920e-003
9.439920e-003
9.439920e-003
9.439920e-003
9.439920e-003
9.439920e-003
9.439921e-003
9.439921e-003
9.439921e-003
9.439922e-003
9.439922e-003
9.439923e-003
9.439923e-003
9.439924e-003
9.439924e-003
9.439925e-003
9.439926e-003
9.439927e-003
9.439928e-003
9.439928e-003
9.439929e-003
9.439930e-003
9.439931e-003
9.439932e-003
9.439932e-003
9.439933e-003
9.439933e-003
9.439934e-003
9.439934e-003
9.439934e-003
9.439935e-003
9.439935e-003
9.439935e-003
9.439935e-003
9.439934e-003
9.439934e-003
9.439934e-003
9.439933e-003
9.439933e-003
9.439932e-003
9.439931e-003
9.439931e-003
9.439930e-003
9.439929e-003
9.439928e-003
9.439927e-003
9.439926e-003
9.439925e-003
9.439925e-003
9.439924e-003
9.439923e-003
9.439923e-003
9.439922e-003
9.439922e-003
9.439921e-003
9.439921e-003
9.439921e-003
9.439921e-003
9.439920e-003
9.439920e-003
9.439920e-003
9.439920e-003
9.439920e-003
9.439920e-003
9.439920e-003
9.439920e-003
9.439920e-003
9.439920e-003
9.439920e-003
9.439920e-003
9.439920e-003
9.439920e-003
9.439920e-003
9.439920e-003
9.439920e-003
9.439920e-003
9.439920e-003
9.439920e-003
9.439920e-003
9.439920e-003
9.439920e-003
9.439920e-003
9.439919e-003
9.439920e-003
9.439920e-003
9.439921e-003
9.439921e-003
9.439920e-003
9.439920e-003
9.439919e-003
9.439920e-003
9.439920e-003
9.439920e-003
9.439920e-003
9.439920e-003
9.439920e-003
9.439920e-003
9.439920e-003
9.439920e-003
9.439920e-003
9.439920e-003
9.439920e-003
9.439921e-003
9.439921e-003
9.439921e-003
9.439921e-003
9.439921e-003
9.439922e-003
9.439922e-003
9.439923e-003
9.439923e-003
9.439924e-003
9.439925e-003
9.439927e-003
9.439928e-003
9.439929e-003
9.439931e-003
9.439932e-003
9.439933e-003
9.439935e-003
9.439936e-003
9.439937e-003
9.439938e-003
9.439939e-003
9.439940e-003
9.439941e-003
9.439942e-003
9.439942e-003
9.439942e-003
9.439943e-003
9.439943e-003
9.439943e-003
9.439943e-003
9.439943e-003
9.439942e-003
9.439942e-003
9.439942e-003
9.439941e-003
9.439940e-003
9.439940e-003
9.439939e-003
9.439938e-003
9.439937e-003
9.439935e-003
9.439934e-003
9.439933e-003
9.439931e-003
9.439930e-003
9.439928e-003
9.439927e-003
9.439926e-003
9.439925e-003
9.439924e-003
9.439923e-003
9.439922e-003
9.439922e-003
9.439921e-003
9.439921e-003
9.439921e-003
9.439921e-003
9.439921e-003
9.439920e-003
9.439920e-003
9.439920e-003
9.439920e-003
9.439920e-003
9.439920e-003
9.439920e-003
9.439920e-003
9.439920e-003
9.439920e-003
9.439920e-003
9.439920e-003
9.439920e-003
9.439920e-003
9.439920e-003
9.439920e-003
9.439920e-003
9.439920e-003
9.439920e-003
9.439920e-003
9.439920e-003
9.439920e-003
9.439920e-003
9.439920e-003
9.439920e-003
9.439920e-003
9.439920e-003
9.439920e-003
9.439920e-003
9.439920e-003
9.439920e-003
9.439920e-003
9.439920e-003
9.439920e-003
9.439920e-003
9.439919e-003
9.439920e-003
9.439920e-003
9.439920e-003
9.439921e-003
9.439921e-003
9.439921e-003
9.439921e-003
9.439922e-003
9.439922e-003
9.439923e-003
9.439923e-003
9.439924e-003
9.439925e-003
9.439927e-003
9.439928e-003
9.439930e-003
9.439932e-003
9.439934e-003
9.439936e-003
9.439938e-003
9.439939e-003
9.439941e-003
9.439942e-003
9.439944e-003
9.439945e-003
9.439945e-003
9.439946e-003
9.439946e-003
9.439947e-003
9.439947e-003
9.439947e-003
9.439947e-003
9.439946e-003
9.439946e-003
9.439946e-003
9.439946e-003
9.439946e-003
9.439945e-003
9.439945e-003
9.439945e-003
9.439945e-003
9.439945e-003
9.439944e-003
9.439944e-003
9.439944e-003
9.439943e-003
9.439942e-003
9.439941e-003
9.439939e-003
9.439938e-003
9.439936e-003
9.439934e-003
9.439932e-003
9.439930e-003
9.439929e-003
9.439927e-003
9.439925e-003
9.439924e-003
9.439923e-003
9.439922e-003
9.439922e-003
9.439921e-003
9.439921e-003
9.439921e-003
9.439921e-003
9.439921e-003
9.439920e-003
9.439920e-003
9.439920e-003
9.439920e-003
9.439920e-003
9.439920e-003
9.439920e-003
9.439920e-003
9.439920e-003
9.439920e-003
9.439920e-003
9.439920e-003
9.439920e-003
9.439920e-003
9.439920e-003
9.439920e-003
9.439920e-003
9.439920e-003
9.439920e-003
9.439921e-003
9.439920e-003
9.439920e-003
9.439919e-003
9.439920e-003
9.439920e-003
9.439920e-003
9.439920e-003
9.439920e-003
9.439920e-003
9.439920e-003
9.439920e-003
9.439920e-003
9.439920e-003
9.439920e-003
9.439920e-003
9.439920e-003
9.439921e-003
9.439921e-003
9.439921e-003
9.439922e-003
9.439922e-003
9.439923e-003
9.439924e-003
9.439925e-003
9.439927e-003
9.439928e-003
9.439931e-003
9.439933e-003
9.439935e-003
9.439938e-003
9.439940e-003
9.439942e-003
9.439944e-003
9.439945e-003
9.439946e-003
9.439946e-003
9.439946e-003
9.439945e-003
9.439944e-003
9.439942e-003
9.439940e-003
9.439938e-003
9.439936e-003
9.439933e-003
9.439931e-003
9.439928e-003
9.439926e-003
9.439925e-003
9.439924e-003
9.439923e-003
9.439923e-003
9.439923e-003
9.439924e-003
9.439926e-003
9.439928e-003
9.439930e-003
9.439933e-003
9.439935e-003
9.439937e-003
9.439939e-003
9.439941e-003
9.439942e-003
9.439943e-003
9.439943e-003
9.439942e-003
9.439941e-003
9.439939e-003
9.439937e-003
9.439935e-003
9.439933e-003
9.439930e-003
9.439928e-003
9.439926e-003
9.439925e-003
9.439924e-003
9.439923e-003
9.439922e-003
9.439921e-003
9.439921e-003
9.439921e-003
9.439921e-003
9.439920e-003
9.439920e-003
9.439920e-003
9.439920e-003
9.439920e-003
9.439920e-003
9.439920e-003
9.439920e-003
9.439920e-003
9.439920e-003
9.439920e-003
9.439920e-003
9.439920e-003
9.439920e-003
9.439920e-003
9.439920e-003
9.439920e-003
9.439920e-003
9.439921e-003
9.439920e-003
9.439920e-003
9.439919e-003
9.439919e-003
9.439920e-003
9.439920e-003
9.439920e-003
9.439920e-003
9.439920e-003
9.439920e-003
9.439920e-003
9.439920e-003
9.439920e-003
9.439920e-003
9.439920e-003
9.439921e-003
9.439921e-003
9.439921e-003
9.439922e-003
9.439922e-003
9.439923e-003
9.439925e-003
9.439927e-003
9.439929e-003
9.439932e-003
9.439935e-003
9.439938e-003
9.439941e-003
9.439943e-003
9.439945e-003
9.439946e-003
9.439947e-003
9.439946e-003
9.439943e-003
9.439940e-003
9.439934e-003
9.439927e-003
9.439919e-003
9.439910e-003
9.439900e-003
9.439889e-003
9.439878e-003
9.439867e-003
9.439856e-003
9.439846e-003
9.439837e-003
9.439830e-003
9.439824e-003
9.439820e-003
9.439818e-003
9.439819e-003
9.439822e-003
9.439826e-003
9.439833e-003
9.439842e-003
9.439852e-003
9.439863e-003
9.439875e-003
9.439887e-003
9.439899e-003
9.439910e-003
9.439919e-003
9.439928e-003
9.439934e-003
9.439939e-003
9.439941e-003
9.439943e-003
9.439942e-003
9.439941e-003
9.439939e-003
9.439937e-003
9.439934e-003
9.439931e-003
9.439929e-003
9.439927e-003
9.439925e-003
9.439923e-003
9.439922e-003
9.439921e-003
9.439921e-003
9.439921e-003
9.439921e-003
9.439920e-003
9.439920e-003
9.439920e-003
9.439920e-003
9.439920e-003
9.439920e-003
9.439920e-003
9.439920e-003
9.439920e-003
9.439920e-003
9.439920e-003
9.439920e-003
9.439920e-003
9.439920e-003
9.439920e-003
9.439920e-003
9.439920e-003
9.439921e-003
9.439920e-003
9.439920e-003
9.439919e-003
9.439920e-003
9.439920e-003
9.439920e-003
9.439920e-003
9.439920e-003
9.439920e-003
9.439920e-003
9.439920e-003
9.439920e-003
9.439921e-003
9.439921e-003
9.439921e-003
9.439921e-003
9.439922e-003
9.439922e-003
9.439923e-003
9.439925e-003
9.439927e-003
9.439929e-003
9.439932e-003
9.439936e-003
9.439939e-003
9.439942e-003
9.439945e-003
9.439947e-003
9.439947e-003
9.439945e-003
9.439940e-003
9.439932e-003
9.439921e-003
9.439906e-003
9.439886e-003
9.439863e-003
9.439836e-003
9.439806e-003
9.439773e-003
9.439738e-003
9.439702e-003
9.439667e-003
9.439632e-003
9.439599e-003
9.439569e-003
9.439543e-003
9.439521e-003
9.439504e-003
9.439494e-003
9.439489e-003
9.439491e-003
9.439500e-003
9.439515e-003
9.439537e-003
9.439564e-003
9.439596e-003
9.439631e-003
9.439669e-003
9.439709e-003
9.439748e-003
9.439785e-003
9.439820e-003
9.439851e-003
9.439878e-003
9.439899e-003
9.439916e-003
9.439929e-003
9.439937e-003
9.439941e-003
9.439943e-003
9.439942e-003
9.439940e-003
9.439937e-003
9.439934e-003
9.439931e-003
9.439929e-003
9.439926e-003
9.439924e-003
9.439923e-003
9.439922e-003
9.439921e-003
9.439921e-003
9.439921e-003
9.439921e-003
9.439920e-003
9.439920e-003
9.439920e-003
9.439920e-003
9.439920e-003
9.439920e-003
9.439920e-003
9.439920e-003
9.439920e-003
9.439920e-003
9.439920e-003
9.439920e-003
9.439920e-003
9.439920e-003
9.439920e-003
9.439920e-003
9.439920e-003
9.439920e-003
9.439920e-003
9.439920e-003
9.439920e-003
9.439920e-003
9.439920e-003
9.439920e-003
9.439920e-003
9.439920e-003
9.439920e-003
9.439920e-003
9.439921e-003
9.439921e-003
9.439922e-003
9.439922e-003
9.439923e-003
9.439924e-003
9.439926e-003
9.439929e-003
9.439932e-003
9.439936e-003
9.439940e-003
9.439943e-003
9.439946e-003
9.439948e-003
9.439946e-003
9.439941e-003
9.439931e-003
9.439914e-003
9.439890e-003
9.439857e-003
9.439814e-003
9.439761e-003
9.439698e-003
9.439625e-003
9.439544e-003
9.439456e-003
9.439362e-003
9.439264e-003
9.439166e-003
9.439068e-003
9.438975e-003
9.438887e-003
9.438808e-003
9.438739e-003
9.438682e-003
9.438639e-003
9.438612e-003
9.438601e-003
9.438608e-003
9.438632e-003
9.438673e-003
9.438731e-003
9.438804e-003
9.438889e-003
9.438986e-003
9.439090e-003
9.439198e-003
9.439307e-003
9.439413e-003
9.439514e-003
9.439606e-003
9.439688e-003
9.439757e-003
9.439814e-003
9.439859e-003
9.439892e-003
9.439916e-003
9.439930e-003
9.439939e-003
9.439942e-003
9.439942e-003
9.439940e-003
9.439937e-003
9.439934e-003
9.439931e-003
9.439928e-003
9.439925e-003
9.439924e-003
9.439922e-003
9.439921e-003
9.439921e-003
9.439921e-003
9.439921e-003
9.439921e-003
9.439920e-003
9.439920e-003
9.439920e-003
9.439920e-003
9.439920e-003
9.439920e-003
9.439920e-003
9.439920e-003
9.439920e-003
9.439920e-003
9.439920e-003
9.439920e-003
9.439920e-003
9.439919e-003
9.439920e-003
9.439920e-003
9.439920e-003
9.439920e-003
9.439920e-003
9.439920e-003
9.439920e-003
9.439920e-003
9.439920e-003
9.439920e-003
9.439920e-003
9.439921e-003
9.439921e-003
9.439922e-003
9.439922e-003
9.439923e-003
9.439925e-003
9.439928e-003
9.439932e-003
9.439936e-003
9.439940e-003
9.439944e-003
9.439947e-003
9.439949e-003
9.439946e-003
9.439938e-003
9.439922e-003
9.439895e-003
9.439853e-003
9.439795e-003
9.439716e-003
9.439615e-003
9.439489e-003
9.439340e-003
9.439167e-003
9.438972e-003
9.438758e-003
9.438529e-003
9.438289e-003
9.438044e-003
9.437798e-003
9.437557e-003
9.437327e-003
9.437113e-003
9.436921e-003
9.436755e-003
9.436619e-003
9.436518e-003
9.436454e-003
9.436430e-003
9.436447e-003
9.436506e-003
9.436607e-003
9.436748e-003
9.436925e-003
9.437135e-003
9.437372e-003
9.437629e-003
9.437899e-003
9.438174e-003
9.438444e-003
9.438703e-003
9.438944e-003
9.439161e-003
9.439350e-003
9.439510e-003
9.439639e-003
9.439741e-003
9.439816e-003
9.439870e-003
9.439905e-003
9.439927e-003
9.439938e-003
9.439942e-003
9.439942e-003
9.439940e-003
9.439937e-003
9.439933e-003
9.439930e-003
9.439927e-003
9.439924e-003
9.439923e-003
9.439922e-003
9.439921e-003
9.439921e-003
9.439921e-003
9.439920e-003
9.439920e-003
9.439920e-003
9.439920e-003
9.439920e-003
9.439920e-003
9.439920e-003
9.439920e-003
9.439920e-003
9.439920e-003
9.439920e-003
9.439920e-003
9.439920e-003
9.439919e-003
9.439920e-003
9.439920e-003
9.439921e-003
9.439920e-003
9.439920e-003
9.439920e-003
9.439920e-003
9.439920e-003
9.439920e-003
9.439921e-003
9.439921e-003
9.439921e-003
9.439921e-003
9.439923e-003
9.439924e-003
9.439926e-003
9.439929e-003
9.439934e-003
9.439938e-003
9.439943e-003
9.439947e-003
9.439950e-003
9.439948e-003
9.439939e-003
9.439918e-003
9.439882e-003
9.439823e-003
9.439735e-003
9.439612e-003
9.439445e-003
9.439230e-003
9.438963e-003
9.438641e-003
9.438264e-003
9.437835e-003
9.437359e-003
9.436843e-003
9.436297e-003
9.435731e-003
9.435158e-003
9.434588e-003
9.434035e-003
9.433511e-003
9.433026e-003
9.432593e-003
9.432220e-003
9.431917e-003
9.431691e-003
9.431550e-003
9.431498e-003
9.431539e-003
9.431674e-003
9.431902e-003
9.432221e-003
9.432624e-003
9.433102e-003
9.433643e-003
9.434234e-003
9.434858e-003
9.435497e-003
9.436133e-003
9.436748e-003
9.437326e-003
9.437854e-003
9.438321e-003
9.438722e-003
9.439055e-003
9.439322e-003
9.439528e-003
9.439680e-003
9.439787e-003
9.439859e-003
9.439903e-003
9.439928e-003
9.439940e-003
9.439943e-003
9.439942e-003
9.439939e-003
9.439935e-003
9.439931e-003
9.439928e-003
9.439925e-003
9.439923e-003
9.439922e-003
9.439921e-003
9.439921e-003
9.439921e-003
9.439920e-003
9.439920e-003
9.439920e-003
9.439920e-003
9.439920e-003
9.439920e-003
9.439920e-003
9.439920e-003
9.439920e-003
9.439920e-003
9.439920e-003
9.439920e-003
9.439919e-003
9.439920e-003
9.439920e-003
9.439921e-003
9.439920e-003
9.439920e-003
9.439919e-003
9.439920e-003
9.439920e-003
9.439921e-003
9.439921e-003
9.439921e-003
9.439922e-003
9.439923e-003
9.439925e-003
9.439927e-003
9.439931e-003
9.439936e-003
9.439941e-003
9.439946e-003
9.439950e-003
9.439950e-003
9.439942e-003
9.439922e-003
9.439882e-003
9.439812e-003
9.439700e-003
9.439533e-003
9.439296e-003
9.438975e-003
9.438556e-003
9.438027e-003
9.437382e-003
9.436619e-003
9.435739e-003
9.434751e-003
9.433668e-003
9.432509e-003
9.431295e-003
9.430049e-003
9.428797e-003
9.427565e-003
9.426377e-003
9.425259e-003
9.424232e-003
9.423319e-003
9.422538e-003
9.421906e-003
9.421438e-003
9.421147e-003
9.421043e-003
9.421133e-003
9.421419e-003
9.421901e-003
9.422574e-003
9.423426e-003
9.424440e-003
9.425595e-003
9.426863e-003
9.428210e-003
9.429601e-003
9.430997e-003
9.432361e-003
9.433657e-003
9.434853e-003
9.435926e-003
9.436860e-003
9.437647e-003
9.438290e-003
9.438796e-003
9.439181e-003
9.439461e-003
9.439655e-003
9.439784e-003
9.439864e-003
9.439910e-003
9.439933e-003
9.439942e-003
9.439943e-003
9.439941e-003
9.439937e-003
9.439932e-003
9.439928e-003
9.439925e-003
9.439923e-003
9.439922e-003
9.439921e-003
9.439921e-003
9.439921e-003
9.439920e-003
9.439920e-003
9.439920e-003
9.439920e-003
9.439920e-003
9.439920e-003
9.439920e-003
9.439920e-003
9.439920e-003
9.439920e-003
9.439920e-003
9.439920e-003
9.439920e-003
9.439920e-003
9.439920e-003
9.439920e-003
9.439920e-003
9.439920e-003
9.439920e-003
9.439921e-003
9.439921e-003
9.439922e-003
9.439922e-003
9.439923e-003
9.439925e-003
9.439928e-003
9.439932e-003
9.439938e-003
9.439943e-003
9.439948e-003
9.439951e-003
9.439948e-003
9.439932e-003
9.439896e-003
9.439826e-003
9.439705e-003
9.439511e-003
9.439219e-003
9.438801e-003
9.438224e-003
9.437461e-003
9.436485e-003
9.435277e-003
9.433826e-003
9.432133e-003
9.430210e-003
9.428079e-003
9.425775e-003
9.423338e-003
9.420814e-003
9.418255e-003
9.415712e-003
9.413234e-003
9.410869e-003
9.408662e-003
9.406653e-003
9.404880e-003
9.403374e-003
9.402164e-003
9.401275e-003
9.400729e-003
9.400541e-003
9.400724e-003
9.401284e-003
9.402221e-003
9.403527e-003
9.405186e-003
9.407171e-003
9.409446e-003
9.411962e-003
9.414661e-003
9.417475e-003
9.420331e-003
9.423154e-003
9.425868e-003
9.428408e-003
9.430716e-003
9.432754e-003
9.434497e-003
9.435942e-003
9.437100e-003
9.437995e-003
9.438661e-003
9.439139e-003
9.439466e-003
9.439679e-003
9.439809e-003
9.439884e-003
9.439923e-003
9.439939e-003
9.439943e-003
9.439942e-003
9.439938e-003
9.439933e-003
9.439929e-003
9.439926e-003
9.439924e-003
9.439922e-003
9.439921e-003
9.439921e-003
9.439921e-003
9.439921e-003
9.439920e-003
9.439920e-003
9.439920e-003
9.439920e-003
9.439920e-003
9.439920e-003
9.439920e-003
9.439920e-003
9.439920e-003
9.439920e-003
9.439920e-003
9.439920e-003
9.439920e-003
9.439920e-003
9.439920e-003
9.439920e-003
9.439920e-003
9.439921e-003
9.439921e-003
9.439922e-003
9.439923e-003
9.439925e-003
9.439929e-003
9.439933e-003
9.439939e-003
9.439945e-003
9.439950e-003
9.439952e-003
9.439944e-003
9.439918e-003
9.439860e-003
9.439750e-003
9.439558e-003
9.439248e-003
9.438774e-003
9.438082e-003
9.437114e-003
9.435810e-003
9.434116e-003
9.431986e-003
9.429394e-003
9.426331e-003
9.422813e-003
9.418882e-003
9.414598e-003
9.410041e-003
9.405302e-003
9.400478e-003
9.395667e-003
9.390963e-003
9.386455e-003
9.382220e-003
9.378327e-003
9.374834e-003
9.371792e-003
9.369242e-003
9.367220e-003
9.365757e-003
9.364876e-003
9.364599e-003
9.364942e-003
9.365916e-003
9.367526e-003
9.369766e-003
9.372623e-003
9.376067e-003
9.380056e-003
9.384524e-003
9.389389e-003
9.394546e-003
9.399871e-003
9.405230e-003
9.410479e-003
9.415481e-003
9.420110e-003
9.424269e-003
9.427889e-003
9.430939e-003
9.433424e-003
9.435380e-003
9.436863e-003
9.437946e-003
9.438706e-003
9.439216e-003
9.439543e-003
9.439741e-003
9.439852e-003
9.439910e-003
9.439935e-003
9.439943e-003
9.439943e-003
9.439939e-003
9.439934e-003
9.439930e-003
9.439926e-003
9.439924e-003
9.439922e-003
9.439921e-003
9.439921e-003
9.439921e-003
9.439920e-003
9.439920e-003
9.439920e-003
9.439920e-003
9.439920e-003
9.439920e-003
9.439920e-003
9.439920e-003
9.439920e-003
9.439921e-003
9.439920e-003
9.439920e-003
9.439920e-003
9.439920e-003
9.439920e-003
9.439921e-003
9.439921e-003
9.439921e-003
9.439922e-003
9.439923e-003
9.439926e-003
9.439929e-003
9.439934e-003
9.439940e-003
9.439947e-003
9.439952e-003
9.439952e-003
9.439939e-003
9.439901e-003
9.439818e-003
9.439657e-003
9.439375e-003
9.438912e-003
9.438191e-003
9.437118e-003
9.435589e-003
9.433492e-003
9.430719e-003
9.427181e-003
9.422816e-003
9.417603e-003
9.411571e-003
9.404797e-003
9.397406e-003
9.389557e-003
9.381435e-003
9.373231e-003
9.365133e-003
9.357311e-003
9.349913e-003
9.343060e-003
9.336841e-003
9.331320e-003
9.326538e-003
9.322516e-003
9.319263e-003
9.316779e-003
9.315059e-003
9.314102e-003
9.313907e-003
9.314479e-003
9.315829e-003
9.317976e-003
9.320943e-003
9.324755e-003
9.329432e-003
9.334982e-003
9.341389e-003
9.348601e-003
9.356524e-003
9.365010e-003
9.373862e-003
9.382844e-003
9.391690e-003
9.400138e-003
9.407945e-003
9.414920e-003
9.420938e-003
9.425946e-003
9.429965e-003
9.433072e-003
9.435383e-003
9.437036e-003
9.438172e-003
9.438918e-003
9.439386e-003
9.439664e-003
9.439818e-003
9.439896e-003
9.439931e-003
9.439943e-003
9.439943e-003
9.439939e-003
9.439934e-003
9.439930e-003