# vtk DataFile Version 3.0
vtk output
ASCII
DATASET STRUCTURED_POINTS
DIMENSIONS 100 100 1
SPACING 1 1 1
ORIGIN 0 0 0
POINT_DATA 10000
SCALARS SFBox_profile double
LOOKUP_TABLE default 
9.439922e-003
9.439922e-003
9.439920e-003
9.439920e-003
9.439920e-003
9.439920e-003
9.439920e-003
9.439920e-003
9.439919e-003
9.439919e-003
9.439919e-003
9.439921e-003
9.439922e-003
9.439922e-003
9.439921e-003
9.439920e-003
9.439919e-003
9.439918e-003
9.439919e-003
9.439919e-003
9.439919e-003
9.439919e-003
9.439919e-003
9.439920e-003
9.439922e-003
9.439923e-003
9.439922e-003
9.439922e-003
9.439922e-003
9.439921e-003
9.439921e-003
9.439921e-003
9.439921e-003
9.439920e-003
9.439920e-003
9.439920e-003
9.439921e-003
9.439921e-003
9.439921e-003
9.439922e-003
9.439922e-003
9.439922e-003
9.439923e-003
9.439923e-003
9.439923e-003
9.439923e-003
9.439923e-003
9.439923e-003
9.439923e-003
9.439923e-003
9.439922e-003
9.439922e-003
9.439922e-003
9.439921e-003
9.439921e-003
9.439921e-003
9.439920e-003
9.439920e-003
9.439920e-003
9.439920e-003
9.439921e-003
9.439921e-003
9.439921e-003
9.439921e-003
9.439922e-003
9.439922e-003
9.439922e-003
9.439922e-003
9.439921e-003
9.439920e-003
9.439920e-003
9.439919e-003
9.439919e-003
9.439919e-003
9.439919e-003
9.439919e-003
9.439920e-003
9.439921e-003
9.439921e-003
9.439921e-003
9.439920e-003
9.439920e-003
9.439920e-003
9.439920e-003
9.439920e-003
9.439919e-003
9.439919e-003
9.439920e-003
9.439921e-003
9.439921e-003
9.439921e-003
9.439920e-003
9.439919e-003
9.439919e-003
9.439920e-003
9.439921e-003
9.439921e-003
9.439921e-003
9.439920e-003
9.439919e-003
9.439922e-003
9.439922e-003
9.439920e-003
9.439920e-003
9.439920e-003
9.439920e-003
9.439920e-003
9.439920e-003
9.439919e-003
9.439919e-003
9.439919e-003
9.439921e-003
9.439922e-003
9.439922e-003
9.439921e-003
9.439920e-003
9.439919e-003
9.439918e-003
9.439919e-003
9.439919e-003
9.439919e-003
9.439919e-003
9.439919e-003
9.439920e-003
9.439922e-003
9.439923e-003
9.439922e-003
9.439922e-003
9.439922e-003
9.439921e-003
9.439921e-003
9.439921e-003
9.439921e-003
9.439920e-003
9.439920e-003
9.439920e-003
9.439921e-003
9.439921e-003
9.439921e-003
9.439922e-003
9.439922e-003
9.439922e-003
9.439923e-003
9.439923e-003
9.439923e-003
9.439923e-003
9.439923e-003
9.439923e-003
9.439923e-003
9.439923e-003
9.439922e-003
9.439922e-003
9.439922e-003
9.439921e-003
9.439921e-003
9.439921e-003
9.439920e-003
9.439920e-003
9.439920e-003
9.439920e-003
9.439921e-003
9.439921e-003
9.439921e-003
9.439921e-003
9.439922e-003
9.439922e-003
9.439922e-003
9.439922e-003
9.439921e-003
9.439920e-003
9.439920e-003
9.439919e-003
9.439919e-003
9.439919e-003
9.439919e-003
9.439919e-003
9.439920e-003
9.439921e-003
9.439921e-003
9.439921e-003
9.439920e-003
9.439920e-003
9.439920e-003
9.439920e-003
9.439920e-003
9.439919e-003
9.439919e-003
9.439920e-003
9.439921e-003
9.439921e-003
9.439921e-003
9.439920e-003
9.439919e-003
9.439919e-003
9.439920e-003
9.439921e-003
9.439921e-003
9.439921e-003
9.439920e-003
9.439919e-003
9.439921e-003
9.439921e-003
9.439920e-003
9.439919e-003
9.439920e-003
9.439920e-003
9.439921e-003
9.439921e-003
9.439920e-003
9.439920e-003
9.439919e-003
9.439920e-003
9.439920e-003
9.439920e-003
9.439920e-003
9.439920e-003
9.439920e-003
9.439920e-003
9.439921e-003
9.439921e-003
9.439921e-003
9.439920e-003
9.439920e-003
9.439920e-003
9.439920e-003
9.439920e-003
9.439920e-003
9.439920e-003
9.439920e-003
9.439920e-003
9.439921e-003
9.439922e-003
9.439922e-003
9.439922e-003
9.439922e-003
9.439923e-003
9.439923e-003
9.439924e-003
9.439924e-003
9.439924e-003
9.439924e-003
9.439925e-003
9.439925e-003
9.439925e-003
9.439925e-003
9.439925e-003
9.439925e-003
9.439925e-003
9.439925e-003
9.439925e-003
9.439925e-003
9.439924e-003
9.439924e-003
9.439924e-003
9.439924e-003
9.439924e-003
9.439923e-003
9.439923e-003
9.439922e-003
9.439922e-003
9.439922e-003
9.439921e-003
9.439921e-003
9.439920e-003
9.439920e-003
9.439920e-003
9.439920e-003
9.439920e-003
9.439920e-003
9.439920e-003
9.439920e-003
9.439920e-003
9.439920e-003
9.439920e-003
9.439920e-003
9.439920e-003
9.439920e-003
9.439920e-003
9.439920e-003
9.439920e-003
9.439920e-003
9.439920e-003
9.439920e-003
9.439920e-003
9.439920e-003
9.439920e-003
9.439920e-003
9.439920e-003
9.439920e-003
9.439920e-003
9.439920e-003
9.439920e-003
9.439920e-003
9.439920e-003
9.439920e-003
9.439920e-003
9.439920e-003
9.439920e-003
9.439920e-003
9.439920e-003
9.439919e-003
9.439919e-003
9.439919e-003
9.439919e-003
9.439920e-003
9.439920e-003
9.439920e-003
9.439921e-003
9.439921e-003
9.439921e-003
9.439920e-003
9.439919e-003
9.439918e-003
9.439918e-003
9.439919e-003
9.439920e-003
9.439921e-003
9.439921e-003
9.439922e-003
9.439922e-003
9.439922e-003
9.439921e-003
9.439921e-003
9.439920e-003
9.439919e-003
9.439919e-003
9.439919e-003
9.439919e-003
9.439920e-003
9.439921e-003
9.439922e-003
9.439923e-003
9.439924e-003
9.439925e-003
9.439926e-003
9.439926e-003
9.439927e-003
9.439927e-003
9.439928e-003
9.439928e-003
9.439928e-003
9.439928e-003
9.439928e-003
9.439928e-003
9.439929e-003
9.439928e-003
9.439928e-003
9.439929e-003
9.439929e-003
9.439928e-003
9.439928e-003
9.439928e-003
9.439928e-003
9.439928e-003
9.439928e-003
9.439927e-003
9.439927e-003
9.439926e-003
9.439925e-003
9.439924e-003
9.439923e-003
9.439922e-003
9.439921e-003
9.439920e-003
9.439920e-003
9.439919e-003
9.439919e-003
9.439919e-003
9.439919e-003
9.439920e-003
9.439921e-003
9.439921e-003
9.439921e-003
9.439921e-003
9.439921e-003
9.439921e-003
9.439920e-003
9.439919e-003
9.439919e-003
9.439919e-003
9.439919e-003
9.439920e-003
9.439920e-003
9.439921e-003
9.439921e-003
9.439921e-003
9.439920e-003
9.439920e-003
9.439919e-003
9.439919e-003
9.439920e-003
9.439920e-003
9.439921e-003
9.439921e-003
9.439920e-003
9.439920e-003
9.439919e-003
9.439920e-003
9.439920e-003
9.439921e-003
9.439918e-003
9.439919e-003
9.439920e-003
9.439920e-003
9.439920e-003
9.439920e-003
9.439920e-003
9.439920e-003
9.439921e-003
9.439922e-003
9.439921e-003
9.439919e-003
9.439918e-003
9.439918e-003
9.439919e-003
9.439920e-003
9.439921e-003
9.439921e-003
9.439921e-003
9.439921e-003
9.439921e-003
9.439921e-003
9.439921e-003
9.439921e-003
9.439920e-003
9.439920e-003
9.439921e-003
9.439922e-003
9.439923e-003
9.439924e-003
9.439925e-003
9.439926e-003
9.439927e-003
9.439928e-003
9.439929e-003
9.439930e-003
9.439930e-003
9.439931e-003
9.439932e-003
9.439933e-003
9.439933e-003
9.439933e-003
9.439934e-003
9.439934e-003
9.439934e-003
9.439934e-003
9.439934e-003
9.439934e-003
9.439934e-003
9.439934e-003
9.439933e-003
9.439933e-003
9.439932e-003
9.439932e-003
9.439931e-003
9.439931e-003
9.439930e-003
9.439929e-003
9.439928e-003
9.439927e-003
9.439926e-003
9.439925e-003
9.439924e-003
9.439923e-003
9.439922e-003
9.439921e-003
9.439921e-003
9.439920e-003
9.439920e-003
9.439921e-003
9.439921e-003
9.439921e-003
9.439921e-003
9.439921e-003
9.439921e-003
9.439921e-003
9.439920e-003
9.439919e-003
9.439919e-003
9.439919e-003
9.439920e-003
9.439920e-003
9.439920e-003
9.439920e-003
9.439920e-003
9.439921e-003
9.439921e-003
9.439920e-003
9.439919e-003
9.439919e-003
9.439919e-003
9.439920e-003
9.439921e-003
9.439921e-003
9.439920e-003
9.439919e-003
9.439919e-003
9.439919e-003
9.439920e-003
9.439921e-003
9.439917e-003
9.439919e-003
9.439921e-003
9.439922e-003
9.439921e-003
9.439920e-003
9.439918e-003
9.439919e-003
9.439920e-003
9.439921e-003
9.439921e-003
9.439921e-003
9.439920e-003
9.439920e-003
9.439920e-003
9.439921e-003
9.439921e-003
9.439920e-003
9.439919e-003
9.439919e-003
9.439920e-003
9.439921e-003
9.439922e-003
9.439923e-003
9.439923e-003
9.439924e-003
9.439926e-003
9.439927e-003
9.439928e-003
9.439929e-003
9.439929e-003
9.439930e-003
9.439932e-003
9.439933e-003
9.439934e-003
9.439935e-003
9.439936e-003
9.439937e-003
9.439938e-003
9.439939e-003
9.439940e-003
9.439940e-003
9.439941e-003
9.439941e-003
9.439942e-003
9.439942e-003
9.439942e-003
9.439941e-003
9.439941e-003
9.439941e-003
9.439940e-003
9.439939e-003
9.439938e-003
9.439937e-003
9.439936e-003
9.439935e-003
9.439934e-003
9.439933e-003
9.439932e-003
9.439931e-003
9.439930e-003
9.439929e-003
9.439928e-003
9.439928e-003
9.439927e-003
9.439925e-003
9.439924e-003
9.439923e-003
9.439923e-003
9.439922e-003
9.439921e-003
9.439920e-003
9.439919e-003
9.439920e-003
9.439920e-003
9.439920e-003
9.439920e-003
9.439920e-003
9.439920e-003
9.439920e-003
9.439921e-003
9.439921e-003
9.439920e-003
9.439919e-003
9.439919e-003
9.439920e-003
9.439921e-003
9.439921e-003
9.439920e-003
9.439919e-003
9.439919e-003
9.439920e-003
9.439921e-003
9.439921e-003
9.439920e-003
9.439919e-003
9.439919e-003
9.439919e-003
9.439920e-003
9.439921e-003
9.439918e-003
9.439919e-003
9.439921e-003
9.439922e-003
9.439922e-003
9.439920e-003
9.439918e-003
9.439918e-003
9.439918e-003
9.439920e-003
9.439921e-003
9.439922e-003
9.439921e-003
9.439921e-003
9.439921e-003
9.439921e-003
9.439920e-003
9.439919e-003
9.439919e-003
9.439919e-003
9.439920e-003
9.439922e-003
9.439924e-003
9.439925e-003
9.439926e-003
9.439928e-003
9.439930e-003
9.439932e-003
9.439934e-003
9.439935e-003
9.439936e-003
9.439937e-003
9.439938e-003
9.439940e-003
9.439941e-003
9.439942e-003
9.439943e-003
9.439943e-003
9.439944e-003
9.439945e-003
9.439945e-003
9.439945e-003
9.439945e-003
9.439945e-003
9.439945e-003
9.439945e-003
9.439944e-003
9.439944e-003
9.439944e-003
9.439944e-003
9.439944e-003
9.439944e-003
9.439943e-003
9.439943e-003
9.439942e-003
9.439941e-003
9.439940e-003
9.439939e-003
9.439938e-003
9.439937e-003
9.439936e-003
9.439934e-003
9.439933e-003
9.439932e-003
9.439931e-003
9.439929e-003
9.439928e-003
9.439926e-003
9.439925e-003
9.439923e-003
9.439922e-003
9.439920e-003
9.439919e-003
9.439919e-003
9.439920e-003
9.439920e-003
9.439920e-003
9.439920e-003
9.439921e-003
9.439921e-003
9.439921e-003
9.439921e-003
9.439920e-003
9.439919e-003
9.439919e-003
9.439919e-003
9.439920e-003
9.439921e-003
9.439921e-003
9.439920e-003
9.439920e-003
9.439920e-003
9.439920e-003
9.439920e-003
9.439920e-003
9.439920e-003
9.439920e-003
9.439920e-003
9.439920e-003
9.439920e-003
9.439919e-003
9.439919e-003
9.439920e-003
9.439921e-003
9.439921e-003
9.439921e-003
9.439920e-003
9.439919e-003
9.439918e-003
9.439919e-003
9.439920e-003
9.439921e-003
9.439921e-003
9.439921e-003
9.439921e-003
9.439921e-003
9.439921e-003
9.439921e-003
9.439921e-003
9.439922e-003
9.439923e-003
9.439924e-003
9.439926e-003
9.439928e-003
9.439930e-003
9.439932e-003
9.439934e-003
9.439937e-003
9.439939e-003
9.439941e-003
9.439942e-003
9.439944e-003
9.439945e-003
9.439946e-003
9.439946e-003
9.439945e-003
9.439944e-003
9.439942e-003
9.439939e-003
9.439937e-003
9.439934e-003
9.439931e-003
9.439928e-003
9.439925e-003
9.439924e-003
9.439922e-003
9.439922e-003
9.439922e-003
9.439923e-003
9.439924e-003
9.439927e-003
9.439929e-003
9.439932e-003
9.439935e-003
9.439937e-003
9.439939e-003
9.439941e-003
9.439942e-003
9.439943e-003
9.439942e-003
9.439941e-003
9.439940e-003
9.439939e-003
9.439937e-003
9.439935e-003
9.439933e-003
9.439931e-003
9.439929e-003
9.439927e-003
9.439926e-003
9.439924e-003
9.439922e-003
9.439921e-003
9.439921e-003
9.439921e-003
9.439921e-003
9.439920e-003
9.439920e-003
9.439920e-003
9.439921e-003
9.439921e-003
9.439920e-003
9.439920e-003
9.439919e-003
9.439919e-003
9.439920e-003
9.439920e-003
9.439920e-003
9.439921e-003
9.439921e-003
9.439920e-003
9.439920e-003
9.439919e-003
9.439919e-003
9.439920e-003
9.439920e-003
9.439921e-003
9.439921e-003
9.439920e-003
9.439919e-003
9.439922e-003
9.439920e-003
9.439919e-003
9.439918e-003
9.439919e-003
9.439921e-003
9.439922e-003
9.439921e-003
9.439920e-003
9.439919e-003
9.439919e-003
9.439919e-003
9.439920e-003
9.439920e-003
9.439920e-003
9.439920e-003
9.439922e-003
9.439923e-003
9.439925e-003
9.439926e-003
9.439927e-003
9.439928e-003
9.439930e-003
9.439933e-003
9.439935e-003
9.439937e-003
9.439940e-003
9.439942e-003
9.439944e-003
9.439946e-003
9.439946e-003
9.439944e-003
9.439941e-003
9.439937e-003
9.439930e-003
9.439921e-003
9.439910e-003
9.439899e-003
9.439886e-003
9.439873e-003
9.439861e-003
9.439849e-003
9.439838e-003
9.439829e-003
9.439822e-003
9.439818e-003
9.439817e-003
9.439818e-003
9.439822e-003
9.439829e-003
9.439838e-003
9.439848e-003
9.439860e-003
9.439873e-003
9.439886e-003
9.439898e-003
9.439909e-003
9.439920e-003
9.439928e-003
9.439934e-003
9.439938e-003
9.439941e-003
9.439941e-003
9.439941e-003
9.439940e-003
9.439937e-003
9.439935e-003
9.439933e-003
9.439931e-003
9.439929e-003
9.439928e-003
9.439926e-003
9.439925e-003
9.439924e-003
9.439923e-003
9.439922e-003
9.439921e-003
9.439920e-003
9.439920e-003
9.439920e-003
9.439920e-003
9.439920e-003
9.439920e-003
9.439920e-003
9.439920e-003
9.439920e-003
9.439920e-003
9.439920e-003
9.439920e-003
9.439921e-003
9.439921e-003
9.439920e-003
9.439919e-003
9.439919e-003
9.439919e-003
9.439921e-003
9.439921e-003
9.439921e-003
9.439920e-003
9.439919e-003
9.439925e-003
9.439922e-003
9.439919e-003
9.439917e-003
9.439918e-003
9.439920e-003
9.439923e-003
9.439923e-003
9.439921e-003
9.439920e-003
9.439919e-003
9.439919e-003
9.439920e-003
9.439920e-003
9.439920e-003
9.439921e-003
9.439923e-003
9.439925e-003
9.439928e-003
9.439930e-003
9.439932e-003
9.439934e-003
9.439937e-003
9.439940e-003
9.439943e-003
9.439945e-003
9.439946e-003
9.439946e-003
9.439943e-003
9.439938e-003
9.439928e-003
9.439914e-003
9.439894e-003
9.439870e-003
9.439841e-003
9.439809e-003
9.439772e-003
9.439733e-003
9.439692e-003
9.439652e-003
9.439614e-003
9.439579e-003
9.439547e-003
9.439522e-003
9.439503e-003
9.439491e-003
9.439488e-003
9.439492e-003
9.439504e-003
9.439524e-003
9.439550e-003
9.439583e-003
9.439619e-003
9.439658e-003
9.439699e-003
9.439740e-003
9.439779e-003
9.439815e-003
9.439847e-003
9.439875e-003
9.439897e-003
9.439915e-003
9.439927e-003
9.439935e-003
9.439939e-003
9.439941e-003
9.439941e-003
9.439939e-003
9.439937e-003
9.439935e-003
9.439932e-003
9.439930e-003
9.439928e-003
9.439926e-003
9.439924e-003
9.439923e-003
9.439921e-003
9.439921e-003
9.439920e-003
9.439920e-003
9.439919e-003
9.439919e-003
9.439920e-003
9.439921e-003
9.439921e-003
9.439921e-003
9.439920e-003
9.439919e-003
9.439919e-003
9.439920e-003
9.439921e-003
9.439921e-003
9.439920e-003
9.439919e-003
9.439919e-003
9.439920e-003
9.439921e-003
9.439921e-003
9.439920e-003
9.439919e-003
9.439926e-003
9.439924e-003
9.439920e-003
9.439917e-003
9.439917e-003
9.439919e-003
9.439921e-003
9.439922e-003
9.439921e-003
9.439920e-003
9.439919e-003
9.439920e-003
9.439921e-003
9.439922e-003
9.439922e-003
9.439923e-003
9.439924e-003
9.439927e-003
9.439931e-003
9.439934e-003
9.439938e-003
9.439941e-003
9.439945e-003
9.439949e-003
9.439950e-003
9.439948e-003
9.439941e-003
9.439928e-003
9.439908e-003
9.439879e-003
9.439839e-003
9.439787e-003
9.439722e-003
9.439646e-003
9.439559e-003
9.439463e-003
9.439360e-003
9.439251e-003
9.439141e-003
9.439034e-003
9.438932e-003
9.438839e-003
9.438757e-003
9.438691e-003
9.438642e-003
9.438613e-003
9.438604e-003
9.438616e-003
9.438649e-003
9.438701e-003
9.438771e-003
9.438856e-003
9.438953e-003
9.439059e-003
9.439170e-003
9.439282e-003
9.439392e-003
9.439496e-003
9.439591e-003
9.439675e-003
9.439747e-003
9.439807e-003
9.439854e-003
9.439889e-003
9.439913e-003
9.439929e-003
9.439939e-003
9.439943e-003
9.439943e-003
9.439941e-003
9.439938e-003
9.439935e-003
9.439932e-003
9.439929e-003
9.439926e-003
9.439924e-003
9.439923e-003
9.439922e-003
9.439921e-003
9.439921e-003
9.439920e-003
9.439920e-003
9.439920e-003
9.439921e-003
9.439921e-003
9.439921e-003
9.439920e-003
9.439919e-003
9.439919e-003
9.439920e-003
9.439920e-003
9.439921e-003
9.439920e-003
9.439920e-003
9.439920e-003
9.439920e-003
9.439920e-003
9.439920e-003
9.439920e-003
9.439920e-003
9.439923e-003
9.439922e-003
9.439921e-003
9.439920e-003
9.439919e-003
9.439919e-003
9.439919e-003
9.439920e-003
9.439920e-003
9.439920e-003
9.439921e-003
9.439922e-003
9.439923e-003
9.439925e-003
9.439926e-003
9.439926e-003
9.439928e-003
9.439931e-003
9.439936e-003
9.439941e-003
9.439945e-003
9.439948e-003
9.439950e-003
9.439948e-003
9.439940e-003
9.439921e-003
9.439888e-003
9.439839e-003
9.439770e-003
9.439677e-003
9.439557e-003
9.439410e-003
9.439233e-003
9.439030e-003
9.438802e-003
9.438555e-003
9.438292e-003
9.438020e-003
9.437748e-003
9.437483e-003
9.437234e-003
9.437007e-003
9.436812e-003
9.436653e-003
9.436536e-003
9.436467e-003
9.436447e-003
9.436477e-003
9.436556e-003
9.436683e-003
9.436853e-003
9.437061e-003
9.437299e-003
9.437560e-003
9.437835e-003
9.438115e-003
9.438392e-003
9.438657e-003
9.438903e-003
9.439126e-003
9.439321e-003
9.439486e-003
9.439620e-003
9.439726e-003
9.439806e-003
9.439863e-003
9.439902e-003
9.439925e-003
9.439937e-003
9.439942e-003
9.439942e-003
9.439940e-003
9.439937e-003
9.439933e-003
9.439929e-003
9.439926e-003
9.439925e-003
9.439924e-003
9.439923e-003
9.439922e-003
9.439921e-003
9.439920e-003
9.439920e-003
9.439920e-003
9.439920e-003
9.439920e-003
9.439920e-003
9.439920e-003
9.439920e-003
9.439920e-003
9.439920e-003
9.439920e-003
9.439921e-003
9.439921e-003
9.439920e-003
9.439920e-003
9.439919e-003
9.439919e-003
9.439920e-003
9.439921e-003
9.439916e-003
9.439919e-003
9.439922e-003
9.439923e-003
9.439922e-003
9.439919e-003
9.439918e-003
9.439918e-003
9.439920e-003
9.439921e-003
9.439922e-003
9.439923e-003
9.439924e-003
9.439926e-003
9.439929e-003
9.439932e-003
9.439935e-003
9.439939e-003
9.439945e-003
9.439950e-003
9.439952e-003
9.439949e-003
9.439938e-003
9.439915e-003
9.439874e-003
9.439806e-003
9.439705e-003
9.439561e-003
9.439369e-003
9.439122e-003
9.438813e-003
9.438440e-003
9.438004e-003
9.437508e-003
9.436961e-003
9.436372e-003
9.435754e-003
9.435122e-003
9.434493e-003
9.433885e-003
9.433317e-003
9.432804e-003
9.432363e-003
9.432007e-003
9.431747e-003
9.431593e-003
9.431549e-003
9.431619e-003
9.431799e-003
9.432086e-003
9.432471e-003
9.432942e-003
9.433485e-003
9.434083e-003
9.434717e-003
9.435368e-003
9.436016e-003
9.436642e-003
9.437231e-003
9.437769e-003
9.438246e-003
9.438658e-003
9.439001e-003
9.439277e-003
9.439492e-003
9.439653e-003
9.439768e-003
9.439846e-003
9.439895e-003
9.439923e-003
9.439937e-003
9.439942e-003
9.439942e-003
9.439939e-003
9.439935e-003
9.439931e-003
9.439929e-003
9.439927e-003
9.439925e-003
9.439923e-003
9.439922e-003
9.439921e-003
9.439920e-003
9.439920e-003
9.439919e-003
9.439920e-003
9.439920e-003
9.439921e-003
9.439921e-003
9.439920e-003
9.439919e-003
9.439919e-003
9.439920e-003
9.439921e-003
9.439921e-003
9.439920e-003
9.439919e-003
9.439919e-003
9.439920e-003
9.439921e-003
9.439910e-003
9.439915e-003
9.439921e-003
9.439924e-003
9.439923e-003
9.439920e-003
9.439918e-003
9.439918e-003
9.439921e-003
9.439923e-003
9.439923e-003
9.439923e-003
9.439924e-003
9.439928e-003
9.439933e-003
9.439939e-003
9.439944e-003
9.439950e-003
9.439954e-003
9.439954e-003
9.439945e-003
9.439921e-003
9.439874e-003
9.439794e-003
9.439667e-003
9.439477e-003
9.439209e-003
9.438844e-003
9.438367e-003
9.437766e-003
9.437031e-003
9.436159e-003
9.435155e-003
9.434028e-003
9.432797e-003
9.431486e-003
9.430125e-003
9.428747e-003
9.427389e-003
9.426087e-003
9.424877e-003
9.423793e-003
9.422865e-003
9.422121e-003
9.421581e-003
9.421262e-003
9.421175e-003
9.421322e-003
9.421702e-003
9.422305e-003
9.423116e-003
9.424113e-003
9.425268e-003
9.426546e-003
9.427912e-003
9.429324e-003
9.430743e-003
9.432128e-003
9.433444e-003
9.434660e-003
9.435752e-003
9.436706e-003
9.437513e-003
9.438176e-003
9.438702e-003
9.439106e-003
9.439404e-003
9.439615e-003
9.439757e-003
9.439847e-003
9.439900e-003
9.439929e-003
9.439941e-003
9.439944e-003
9.439942e-003
9.439938e-003
9.439934e-003
9.439930e-003
9.439927e-003
9.439924e-003
9.439923e-003
9.439922e-003
9.439921e-003
9.439920e-003
9.439919e-003
9.439919e-003
9.439920e-003
9.439921e-003
9.439921e-003
9.439920e-003
9.439919e-003
9.439919e-003
9.439920e-003
9.439921e-003
9.439921e-003
9.439920e-003
9.439919e-003
9.439919e-003
9.439920e-003
9.439921e-003
9.439909e-003
9.439914e-003
9.439920e-003
9.439923e-003
9.439923e-003
9.439921e-003
9.439919e-003
9.439920e-003
9.439922e-003
9.439925e-003
9.439925e-003
9.439925e-003
9.439927e-003
9.439932e-003
9.439940e-003
9.439948e-003
9.439954e-003
9.439956e-003
9.439952e-003
9.439934e-003
9.439893e-003
9.439813e-003
9.439676e-003
9.439458e-003
9.439131e-003
9.438663e-003
9.438017e-003
9.437160e-003
9.436063e-003
9.434702e-003
9.433065e-003
9.431153e-003
9.428979e-003
9.426574e-003
9.423982e-003
9.421256e-003
9.418461e-003
9.415665e-003
9.412940e-003
9.410355e-003
9.407977e-003
9.405866e-003
9.404074e-003
9.402646e-003
9.401618e-003
9.401016e-003
9.400857e-003
9.401146e-003
9.401881e-003
9.403047e-003
9.404618e-003
9.406558e-003
9.408820e-003
9.411346e-003
9.414070e-003
9.416917e-003
9.419809e-003
9.422667e-003
9.425416e-003
9.427991e-003
9.430335e-003
9.432410e-003
9.434193e-003
9.435679e-003
9.436878e-003
9.437815e-003
9.438521e-003
9.439034e-003
9.439391e-003
9.439629e-003
9.439779e-003
9.439867e-003
9.439915e-003
9.439937e-003
9.439944e-003
9.439944e-003
9.439940e-003
9.439934e-003
9.439929e-003
9.439926e-003
9.439924e-003
9.439923e-003
9.439923e-003
9.439921e-003
9.439920e-003
9.439919e-003
9.439920e-003
9.439921e-003
9.439921e-003
9.439920e-003
9.439919e-003
9.439919e-003
9.439919e-003
9.439920e-003
9.439921e-003
9.439921e-003
9.439920e-003
9.439919e-003
9.439920e-003
9.439920e-003
9.439916e-003
9.439917e-003
9.439919e-003
9.439921e-003
9.439921e-003
9.439920e-003
9.439921e-003
9.439922e-003
9.439924e-003
9.439926e-003
9.439928e-003
9.439930e-003
9.439934e-003
9.439940e-003
9.439949e-003
9.439956e-003
9.439957e-003
9.439947e-003
9.439916e-003
9.439851e-003
9.439728e-003
9.439515e-003
9.439171e-003
9.438645e-003
9.437878e-003
9.436805e-003
9.435359e-003
9.433475e-003
9.431103e-003
9.428209e-003
9.424786e-003
9.420853e-003
9.416459e-003
9.411682e-003
9.406625e-003
9.401406e-003
9.396153e-003
9.390996e-003
9.386062e-003
9.381464e-003
9.377306e-003
9.373672e-003
9.370634e-003
9.368247e-003
9.366551e-003
9.365577e-003
9.365340e-003
9.365849e-003
9.367099e-003
9.369076e-003
9.371751e-003
9.375083e-003
9.379013e-003
9.383463e-003
9.388338e-003
9.393523e-003
9.398886e-003
9.404287e-003
9.409583e-003
9.414635e-003
9.419320e-003
9.423542e-003
9.427234e-003
9.430364e-003
9.432934e-003
9.434975e-003
9.436541e-003
9.437700e-003
9.438526e-003
9.439091e-003
9.439460e-003
9.439689e-003
9.439823e-003
9.439895e-003
9.439929e-003
9.439943e-003
9.439944e-003
9.439940e-003
9.439935e-003
9.439930e-003
9.439927e-003
9.439925e-003
9.439924e-003
9.439923e-003
9.439921e-003
9.439920e-003
9.439920e-003
9.439920e-003
9.439920e-003
9.439920e-003
9.439920e-003
9.439919e-003
9.439920e-003
9.439920e-003
9.439920e-003
9.439920e-003
9.439920e-003
9.439920e-003
9.439920e-003
9.439920e-003
9.439926e-003
9.439923e-003
9.439920e-003
9.439918e-003
9.439919e-003
9.439920e-003
9.439922e-003
9.439923e-003
9.439925e-003
9.439927e-003
9.439932e-003
9.439937e-003
9.439944e-003
9.439952e-003
9.439958e-003
9.439957e-003
9.439942e-003
9.439897e-003
9.439802e-003
9.439623e-003
9.439313e-003
9.438803e-003
9.438010e-003
9.436831e-003
9.435151e-003
9.432845e-003
9.429794e-003
9.425894e-003
9.421074e-003
9.415314e-003
9.408647e-003
9.401170e-003
9.393036e-003
9.384446e-003
9.375633e-003
9.366841e-003
9.358308e-003
9.350248e-003
9.342838e-003
9.336213e-003
9.330465e-003
9.325648e-003
9.321782e-003
9.318864e-003
9.316880e-003
9.315811e-003
9.315642e-003
9.316366e-003
9.317987e-003
9.320516e-003
9.323972e-003
9.328368e-003
9.333705e-003
9.339961e-003
9.347074e-003
9.354939e-003
9.363398e-003
9.372247e-003
9.381245e-003
9.390127e-003
9.398631e-003
9.406519e-003
9.413602e-003
9.419753e-003
9.424915e-003
9.429098e-003
9.432369e-003
9.434836e-003
9.436628e-003
9.437880e-003
9.438719e-003
9.439257e-003
9.439584e-003
9.439772e-003
9.439873e-003
9.439922e-003
9.439941e-003
9.439944e-003
9.439941e-003
9.439936e-003
9.439931e-003
9.439928e-003
9.439925e-003
9.439923e-003
9.439922e-003
9.439921e-003
9.439920e-003
9.439920e-003
9.439920e-003
9.439920e-003
9.439920e-003
9.439921e-003
9.439920e-003
9.439920e-003
9.439919e-003
9.439920e-003
9.439920e-003
9.439921e-003
9.439920e-003
9.439919e-003
9.439933e-003
9.439927e-003
9.439920e-003
9.439917e-003
9.439918e-003
9.439922e-003
9.439924e-003
9.439925e-003
9.439926e-003
9.439929e-003
9.439937e-003
9.439947e-003
9.439955e-003
9.439961e-003
9.439957e-003
9.439936e-003
9.439878e-003
9.439753e-003
9.439512e-003
9.439086e-003
9.438375e-003
9.437247e-003
9.435537e-003
9.433051e-003
9.429576e-003
9.424901e-003
9.418843e-003
9.411278e-003
9.402180e-003
9.391641e-003
9.379888e-003
9.367275e-003
9.354254e-003
9.341337e-003
9.329038e-003
9.317823e-003
9.308064e-003
9.300003e-003
9.293742e-003
9.289238e-003
9.286328e-003
9.284754e-003
9.284203e-003
9.284344e-003
9.284870e-003
9.285526e-003
9.286141e-003
9.286639e-003
9.287056e-003
9.287530e-003
9.288300e-003
9.289671e-003
9.291991e-003
9.295597e-003
9.300772e-003
9.307695e-003
9.316401e-003
9.326759e-003
9.338474e-003
9.351107e-003
9.364126e-003
9.376970e-003
9.389110e-003
9.400114e-003
9.409687e-003
9.417683e-003
9.424099e-003
9.429047e-003
9.432717e-003
9.435333e-003
9.437124e-003
9.438299e-003
9.439035e-003
9.439475e-003
9.439723e-003
9.439854e-003
9.439915e-003
9.439940e-003
9.439945e-003
9.439942e-003
9.439937e-003
9.439931e-003
9.439927e-003
9.439924e-003
9.439923e-003
9.439922e-003
9.439921e-003
9.439920e-003
9.439919e-003
9.439920e-003
9.439921e-003
9.439922e-003
9.439921e-003
9.439919e-003
9.439919e-003
9.439919e-003
9.439921e-003
9.439921e-003
9.439920e-003
9.439919e-003
9.439933e-003
9.439926e-003
9.439919e-003
9.439917e-003
9.439919e-003
9.439925e-003
9.439928e-003
9.439928e-003
9.439929e-003
9.439934e-003
9.439944e-003
9.439956e-003
9.439963e-003
9.439959e-003
9.439932e-003
9.439861e-003
9.439708e-003
9.439407e-003
9.438858e-003
9.437923e-003
9.436407e-003
9.434061e-003
9.430580e-003
9.425623e-003
9.418844e-003
9.409947e-003
9.398757e-003
9.385297e-003
9.369859e-003
9.353045e-003
9.335758e-003
9.319141e-003
9.304461e-003
9.292961e-003
9.285705e-003
9.283445e-003
9.286516e-003
9.294793e-003
9.307698e-003
9.324251e-003
9.343163e-003
9.362953e-003
9.382078e-003
9.399055e-003
9.412576e-003
9.421605e-003
9.425447e-003
9.423802e-003
9.416795e-003
9.404977e-003
9.389303e-003
9.371074e-003
9.351845e-003
9.333292e-003
9.317060e-003
9.304592e-003
9.296976e-003
9.294815e-003
9.298166e-003
9.306539e-003
9.318981e-003
9.334224e-003
9.350870e-003
9.367588e-003
9.383271e-003
9.397138e-003
9.408764e-003
9.418045e-003
9.425122e-003
9.430286e-003
9.433896e-003
9.436316e-003
9.437869e-003
9.438820e-003
9.439376e-003
9.439681e-003
9.439838e-003
9.439910e-003
9.439938e-003
9.439945e-003
9.439942e-003
9.439936e-003
9.439930e-003
9.439926e-003
9.439924e-003
9.439923e-003
9.439922e-003
9.439921e-003
9.439919e-003
9.439919e-003
9.439921e-003
9.439922e-003
9.439921e-003
9.439919e-003
9.439918e-003
9.439919e-003
9.439921e-003
9.439921e-003
9.439920e-003
9.439919e-003
9.439926e-003
9.439922e-003
9.439918e-003
9.439918e-003
9.439922e-003
9.439927e-003
9.439931e-003
9.439932e-003
9.439935e-003
9.439943e-003
9.439954e-003
9.439963e-003
9.439960e-003
9.439931e-003
9.439850e-003
9.439673e-003
9.439317e-003
9.438655e-003
9.437495e-003
9.435570e-003
9.432523e-003
9.427906e-003
9.421204e-003
9.411889e-003
9.399525e-003
9.383923e-003
9.365315e-003
9.344547e-003
9.323200e-003
9.303619e-003
9.288776e-003
9.281992e-003
9.286536e-003
9.305183e-003
9.339806e-003
9.391077e-003
9.458315e-003
9.539481e-003
9.631322e-003
9.729618e-003
9.829507e-003
9.925835e-003
1.001352e-002
1.008786e-002
1.014483e-002
1.018130e-002
1.019516e-002
1.018552e-002
1.015269e-002
1.009829e-002
1.002515e-002
9.937275e-003
9.839564e-003
9.737554e-003
9.636997e-003
9.543394e-003
9.461506e-003
9.394910e-003
9.345666e-003
9.314163e-003
9.299183e-003
9.298179e-003
9.307742e-003
9.324150e-003
9.343897e-003
9.364101e-003
9.382725e-003
9.398593e-003
9.411269e-003
9.420846e-003
9.427727e-003
9.432446e-003
9.435539e-003
9.437479e-003
9.438639e-003
9.439299e-003
9.439652e-003
9.439828e-003
9.439908e-003
9.439938e-003
9.439945e-003
9.439941e-003
9.439934e-003
9.439929e-003
9.439926e-003
9.439925e-003