# vtk DataFile Version 3.0
vtk output
ASCII
DATASET STRUCTURED_POINTS
DIMENSIONS 100 100 1
SPACING 1 1 1
ORIGIN 0 0 0
POINT_DATA 10000
SCALARS SFBox_profile double
LOOKUP_TABLE default 
0.000000e+000
0.000000e+000
0.000000e+000
0.000000e+000
0.000000e+000
0.000000e+000
0.000000e+000
0.000000e+000
0.000000e+000
0.000000e+000
0.000000e+000
0.000000e+000
0.000000e+000
0.000000e+000
0.000000e+000
0.000000e+000
0.000000e+000
0.000000e+000
0.000000e+000
0.000000e+000
0.000000e+000
0.000000e+000
0.000000e+000
0.000000e+000
0.000000e+000
0.000000e+000
0.000000e+000
0.000000e+000
0.000000e+000
0.000000e+000
0.000000e+000
0.000000e+000
0.000000e+000
0.000000e+000
0.000000e+000
0.000000e+000
0.000000e+000
0.000000e+000
0.000000e+000
0.000000e+000
0.000000e+000
0.000000e+000
0.000000e+000
0.000000e+000
0.000000e+000
0.000000e+000
0.000000e+000
0.000000e+000
0.000000e+000
0.000000e+000
0.000000e+000
0.000000e+000
0.000000e+000
0.000000e+000
0.000000e+000
0.000000e+000
0.000000e+000
0.000000e+000
0.000000e+000
0.000000e+000
0.000000e+000
0.000000e+000
0.000000e+000
0.000000e+000
0.000000e+000
0.000000e+000
0.000000e+000
0.000000e+000
0.000000e+000
0.000000e+000
0.000000e+000
0.000000e+000
0.000000e+000
0.000000e+000
0.000000e+000
0.000000e+000
0.000000e+000
0.000000e+000
0.000000e+000
0.000000e+000
0.000000e+000
0.000000e+000
0.000000e+000
0.000000e+000
0.000000e+000
0.000000e+000
0.000000e+000
0.000000e+000
0.000000e+000
0.000000e+000
0.000000e+000
0.000000e+000
0.000000e+000
0.000000e+000
0.000000e+000
0.000000e+000
0.000000e+000
0.000000e+000
0.000000e+000
0.000000e+000
4.078884e-010
1.421061e-010
-1.896077e-010
-3.634411e-010
-2.935606e-010
-7.021813e-011
1.394503e-010
2.275209e-010
2.011276e-010
1.286444e-010
5.096366e-011
-4.583741e-011
-1.766734e-010
-2.948184e-010
-3.036856e-010
-1.442111e-010
1.289132e-010
3.672753e-010
4.368426e-010
3.168067e-010
1.002266e-010
-9.566334e-011
-2.177037e-010
-2.852203e-010
-3.296966e-010
-3.431743e-010
-2.898178e-010
-1.576685e-010
1.451747e-011
1.656327e-010
2.616893e-010
3.127940e-010
3.456221e-010
3.683907e-010
3.667680e-010
3.284142e-010
2.625896e-010
1.927585e-010
1.344609e-010
8.529912e-011
3.560690e-011
-1.629447e-011
-6.218972e-011
-9.447015e-011
-1.141754e-010
-1.277547e-010
-1.387459e-010
-1.450567e-010
-1.434144e-010
-1.336751e-010
-1.178211e-010
-9.658831e-011
-6.903824e-011
-3.496422e-011
4.278410e-012
4.786730e-011
9.658696e-011
1.499443e-010
2.027930e-010
2.470540e-010
2.775742e-010
2.944077e-010
2.973479e-010
2.795246e-010
2.304237e-010
1.478108e-010
4.509039e-011
-5.632555e-011
-1.420976e-010
-2.091520e-010
-2.532682e-010
-2.571560e-010
-1.995269e-010
-8.117687e-011
6.067260e-011
1.709384e-010
2.138358e-010
1.917932e-010
1.288194e-010
4.197164e-011
-6.239417e-011
-1.641692e-010
-2.143701e-010
-1.631848e-010
-1.441666e-011
1.517503e-010
2.254834e-010
1.533199e-010
-1.278904e-011
-1.523660e-010
-1.708020e-010
-7.050908e-011
5.956400e-011
1.213342e-010
8.283856e-011
-7.780709e-012
-7.155459e-011
-6.366392e-011
-2.663393e-012
5.226565e-011
6.392803e-011
3.453117e-012
-5.992958e-011
-6.683685e-011
-8.611096e-012
6.415928e-011
8.487661e-011
2.952286e-011
-6.030055e-011
-1.112190e-010
-8.006203e-011
1.060454e-011
9.417927e-011
1.170765e-010
7.779942e-011
1.531259e-011
-3.467386e-011
-6.771704e-011
-9.734419e-011
-1.224649e-010
-1.175603e-010
-5.907063e-011
4.217320e-011
1.409422e-010
1.925591e-010
1.867738e-010
1.468847e-010
9.939278e-011
4.965500e-011
-1.237534e-011
-8.860692e-011
-1.619456e-010
-2.100898e-010
-2.260274e-010
-2.214040e-010
-2.110588e-010
-1.982727e-010
-1.764811e-010
-1.421182e-010
-1.016480e-010
-6.550354e-011
-3.808179e-011
-1.591265e-011
5.489775e-012
2.562123e-011
4.041637e-011
4.760995e-011
4.877432e-011
4.644334e-011
4.105648e-011
3.142990e-011
1.702882e-011
-1.533465e-012
-2.382087e-011
-4.989953e-011
-7.877433e-011
-1.076292e-010
-1.336866e-010
-1.562634e-010
-1.754378e-010
-1.883797e-010
-1.887359e-010
-1.714522e-010
-1.379881e-010
-9.505698e-011
-4.779892e-011
3.725131e-012
5.903242e-011
1.090549e-010
1.372235e-010
1.318112e-010
9.694138e-011
4.922910e-011
3.253361e-012
-3.720845e-011
-7.212119e-011
-9.278431e-011
-8.311223e-011
-3.753535e-011
2.425599e-011
6.633596e-011
6.493466e-011
2.869027e-011
-1.038418e-011
-2.622130e-011
-1.868484e-011
-6.163401e-012
-2.521785e-012
-4.706690e-012
-1.993017e-012
7.546383e-012
1.398647e-011
8.449272e-012
-4.890116e-012
-1.266359e-011
-7.395891e-012
4.119916e-012
8.913445e-012
2.694326e-012
-5.826623e-012
-3.251839e-010
-1.333781e-010
1.176464e-010
2.759714e-010
2.711527e-010
1.379616e-010
-3.680182e-011
-1.805601e-010
-2.571523e-010
-2.479684e-010
-1.388361e-010
5.865550e-011
2.771928e-010
4.053656e-010
3.532751e-010
1.233932e-010
-1.787213e-010
-4.092870e-010
-4.747667e-010
-3.744380e-010
-1.743966e-010
4.942541e-011
2.467497e-010
3.904282e-010
4.601941e-010
4.407795e-010
3.348236e-010
1.698317e-010
-1.331554e-011
-1.803011e-010
-3.135694e-010
-4.077172e-010
-4.607104e-010
-4.717443e-010
-4.448776e-010
-3.903688e-010
-3.203918e-010
-2.438633e-010
-1.656870e-010
-8.961475e-011
-1.999972e-011
3.955080e-011
8.805482e-011
1.267055e-010
1.567249e-010
1.781717e-010
1.906713e-010
1.945203e-010
1.906310e-010
1.796461e-010
1.614794e-010
1.356105e-010
1.015416e-010
5.904754e-011
8.445554e-012
-4.910425e-011
-1.116476e-010
-1.767652e-010
-2.413913e-010
-3.008679e-010
-3.483622e-010
-3.759531e-010
-3.768684e-010
-3.469010e-010
-2.842894e-010
-1.898947e-010
-6.946071e-011
6.358410e-011
1.885696e-010
2.825434e-010
3.264666e-010
3.088893e-010
2.278125e-010
9.419770e-011
-6.371734e-011
-2.024667e-010
-2.773397e-010
-2.628422e-010
-1.656327e-010
-2.095196e-011
1.224286e-010
2.170461e-010
2.274932e-010
1.428093e-010
-8.723133e-012
-1.574126e-010
-2.206365e-010
-1.558710e-010
-1.624516e-013
1.447172e-010
1.817931e-010
9.232150e-011
-4.893646e-011
-1.332492e-010
-1.045051e-010
-5.331974e-013
8.447342e-011
8.217104e-011
5.676181e-012
-6.749325e-011
-4.351124e-010
-1.339940e-010
2.272647e-010
3.889491e-010
2.723261e-010
1.177375e-011
-1.868572e-010
-2.188062e-010
-1.327592e-010
-4.036062e-011
5.355897e-012
3.878096e-011
1.053024e-010
1.800327e-010
1.796444e-010
5.621080e-011
-1.322547e-010
-2.572012e-010
-2.304531e-010
-8.015080e-011
8.118315e-011
1.584153e-010
1.429089e-010
9.122604e-011
5.251295e-011
2.648921e-011
-1.370120e-011
-7.396426e-011
-1.254752e-010
-1.351097e-010
-9.966083e-011
-4.563873e-011
-1.760540e-013
3.143088e-011
6.020120e-011
9.299194e-011
1.230438e-010
1.392741e-010
1.394545e-010
1.314651e-010
1.237124e-010
1.176159e-010
1.097212e-010
9.846902e-011
8.676366e-011
7.850001e-011
7.459486e-011
7.325600e-011
7.311478e-011
7.481541e-011
7.949462e-011
8.677357e-011
9.498076e-011
1.029341e-010
1.105373e-010
1.172921e-010
1.209436e-010
1.185439e-010
1.088989e-010
9.309723e-011
7.210722e-011
4.478438e-011
9.959821e-012
-2.893829e-011
-6.283704e-011
-8.250972e-011
-8.524496e-011
-7.452194e-011
-5.276686e-011
-1.737636e-011
3.213070e-011
8.283028e-011
1.092943e-010
9.187189e-011
3.588407e-011
-3.009922e-011
-7.730965e-011
-9.651542e-011
-9.304543e-011
-6.674338e-011
-7.803161e-012
7.943176e-011
1.532420e-010
1.516038e-010
4.862605e-011
-1.028124e-010
-1.961107e-010
-1.552603e-010
-5.207761e-012
1.412572e-010
1.745975e-010
7.820781e-011
-6.222756e-011
-1.348790e-010
-9.355205e-011
1.263257e-011
8.959258e-011
7.889866e-011
8.058543e-013
-6.995891e-011
-1.966563e-010
-6.899694e-012
1.877145e-010
2.018103e-010
1.747915e-011
-1.998788e-010
-2.496606e-010
-7.551368e-011
1.836185e-010
3.147533e-010
2.130236e-010
-3.839521e-011
-2.537896e-010
-3.046595e-010
-2.035864e-010
-5.103007e-011
7.707602e-011
1.782099e-010
2.730672e-010
3.353179e-010
2.950338e-010
1.153692e-010
-1.474226e-010
-3.733797e-010
-4.705184e-010
-4.355010e-010
-3.289257e-010
-2.040379e-010
-6.845394e-011
9.099602e-011
2.637629e-010
4.083503e-010
4.870663e-010
4.982274e-010
4.700832e-010
4.284923e-010
3.769887e-010
3.069429e-010
2.189277e-010
1.281582e-010
5.077889e-011
-9.622075e-012
-6.000367e-011
-1.058407e-010
-1.446799e-010
-1.709729e-010
-1.836066e-010
-1.864672e-010
-1.829083e-010
-1.722076e-010
-1.518703e-010
-1.214673e-010
-8.261881e-011
-3.598641e-011
1.953198e-011
8.377544e-011
1.527922e-010
2.208108e-010
2.841423e-010
3.408975e-010
3.858412e-010
4.075402e-010
3.938444e-010
3.412544e-010
2.571297e-010
1.515609e-010
2.973505e-011
-1.031437e-010
-2.287199e-010
-3.130436e-010
-3.250390e-010
-2.607959e-010
-1.475221e-010
-2.173560e-011
9.353711e-011
1.866442e-010
2.374977e-010
2.143633e-010
1.041986e-010
-5.284618e-011
-1.722939e-010
-1.847975e-010
-9.462609e-011
2.275562e-011
8.575906e-011
7.214793e-011
2.356781e-011
-7.359772e-012
-7.090733e-012
2.594266e-013
-7.043387e-012
-2.154964e-011
-2.114394e-011
-8.068790e-013
1.975117e-011
2.019374e-011
3.443468e-012
-9.883624e-012
-7.532354e-012
1.376264e-012
1.734811e-010
1.126062e-010
5.959649e-012
-1.191824e-010
-2.185318e-010
-2.334058e-010
-1.200711e-010
1.002577e-010
3.177165e-010
3.840758e-010
2.215683e-010
-9.732591e-011
-3.826287e-010
-4.603977e-010
-2.972279e-010
-9.510420e-012
2.409474e-010
3.610361e-010
3.535433e-010
2.615713e-010
1.131812e-010
-7.477343e-011
-2.601498e-010
-3.725700e-010
-3.613923e-010
-2.418124e-010
-8.335381e-011
4.905649e-011
1.385925e-010
2.040175e-010
2.563866e-010
2.796770e-010
2.534015e-010
1.831763e-010
1.002161e-010
3.238453e-011
-1.745751e-011
-6.321358e-011
-1.121791e-010
-1.557812e-010
-1.820048e-010
-1.905819e-010
-1.923951e-010
-1.965365e-010
-2.022640e-010
-2.039599e-010
-2.002673e-010
-1.955768e-010
-1.938639e-010
-1.942465e-010
-1.934332e-010
-1.902562e-010
-1.856508e-010
-1.789577e-010
-1.668156e-010
-1.466193e-010
-1.192763e-010
-8.663685e-011
-4.714454e-011
2.940491e-012
6.252724e-011
1.218174e-010
1.681305e-010
1.953183e-010
2.044570e-010
1.941754e-010
1.543353e-010
7.540534e-011
-3.397524e-011
-1.426796e-010
-2.150209e-010
-2.334916e-010
-2.020099e-010
-1.295370e-010
-1.980743e-011
1.149196e-010
2.335272e-010
2.742592e-010
1.984606e-010
3.173859e-011
-1.424383e-010
-2.370269e-010
-2.162125e-010
-1.063111e-010
3.419709e-011
1.477660e-010
1.910237e-010
1.412676e-010
1.387076e-011
-1.248135e-010
-1.839850e-010
-1.154905e-010
3.389698e-011
1.472019e-010
1.334130e-010
1.105018e-011
-1.054535e-010
-1.112201e-010
-9.569048e-012
9.318263e-011
3.887187e-010
1.084570e-010
-2.138235e-010
-3.361904e-010
-2.099665e-010
1.641989e-011
1.607701e-010
1.611551e-010
8.378847e-011
1.482434e-011
-2.575465e-011
-6.449832e-011
-1.010950e-010
-8.880402e-011
3.219443e-012
1.270061e-010
1.794201e-010
9.745510e-011
-7.586502e-011
-2.255452e-010
-2.610353e-010
-1.772511e-010
-3.202142e-011
1.164354e-010
2.406058e-010
3.268102e-010
3.531527e-010
2.990539e-010
1.717251e-010
1.020211e-011
-1.421388e-010
-2.652664e-010
-3.611017e-010
-4.315140e-010
-4.668221e-010
-4.573848e-010
-4.095191e-010
-3.434625e-010
-2.762088e-010
-2.106432e-010
-1.422528e-010
-7.207281e-011
-9.106562e-012
3.877418e-011
7.211858e-011
9.659265e-011
1.148606e-010
1.242931e-010
1.218126e-010
1.080426e-010
8.555399e-011
5.497509e-011
1.500825e-011
-3.418543e-011
-8.976604e-011
-1.489143e-010
-2.106485e-010
-2.729310e-010
-3.286998e-010
-3.673571e-010
-3.812424e-010
-3.690063e-010
-3.312618e-010
-2.650616e-010
-1.670800e-010
-4.423929e-011
8.137461e-011
1.819549e-010
2.391902e-010
2.490778e-010
2.137572e-010
1.354740e-010
2.459879e-011
-8.854287e-011
-1.597043e-010
-1.580664e-010
-9.062810e-011
1.908387e-012
7.375618e-011
9.868560e-011
7.284803e-011
7.455019e-012
-7.031623e-011
-1.149684e-010
-8.317832e-011
2.330083e-011
1.353956e-010
1.576424e-010
5.333004e-011
-1.058792e-010
-1.882965e-010
-1.178683e-010
4.971845e-011
1.701226e-010
1.396701e-010
-9.166477e-012
-1.379220e-010
-1.309317e-010
-1.726147e-012
1.225126e-010
3.245826e-010
2.166917e-013
-3.196812e-010
-3.217115e-010
-2.884524e-012
3.364735e-010
3.805357e-010
8.607832e-011
-2.930793e-010
-4.473925e-010
-2.763655e-010
6.116210e-011
3.218393e-010
3.807711e-010
2.778126e-010
1.115523e-010
-6.737139e-011
-2.524190e-010
-4.086411e-010
-4.504962e-010
-3.118471e-010
-2.715871e-011
2.750618e-010
4.651870e-010
4.973035e-010
4.102463e-010
2.651490e-010
9.657454e-011
-8.245725e-011
-2.512406e-010
-3.756121e-010
-4.310817e-010
-4.214418e-010
-3.699280e-010
-2.967384e-010
-2.097091e-010
-1.131146e-010
-1.693159e-011
6.660488e-011
1.323517e-010
1.838465e-010
2.258730e-010
2.586338e-010
2.800972e-010
2.913460e-010
2.969506e-010
3.005577e-010
3.021939e-010
3.002714e-010
2.944769e-010
2.855002e-010
2.728842e-010
2.547049e-010
2.292605e-010
1.956861e-010
1.526174e-010
9.780681e-011
3.055366e-011
-4.587857e-011
-1.253827e-010
-2.021331e-010
-2.706459e-010
-3.220784e-010
-3.427982e-010
-3.199490e-010
-2.497177e-010
-1.396702e-010
-4.123198e-012
1.390302e-010
2.649808e-010
3.402135e-010
3.337637e-010
2.379053e-010
7.903486e-011
-9.376427e-011
-2.313262e-010
-2.972373e-010
-2.683967e-010
-1.415272e-010
4.698684e-011
2.136685e-010
2.651291e-010
1.679583e-010
-1.127441e-011
-1.476781e-010
-1.565649e-010
-6.003451e-011
4.247637e-011
6.957630e-011
2.488828e-011
-2.444007e-011
-2.485329e-011
1.412465e-011
4.159174e-011
2.430068e-011
-2.148496e-011
-5.126681e-011
-3.712047e-011
8.682037e-012
4.743731e-011
6.596269e-011
-8.997951e-011
-2.073036e-010
-1.106022e-010
1.660952e-010
3.858727e-010
3.181396e-010
-3.554342e-011
-4.147223e-010
-5.128134e-010
-2.429215e-010
1.877492e-010
4.614290e-010
4.144838e-010
1.408951e-010
-1.350984e-010
-2.629351e-010
-2.474305e-010
-1.687813e-010
-7.105231e-011
5.220553e-011
1.891360e-010
2.712077e-010
2.257861e-010
5.703360e-011
-1.443820e-010
-2.761361e-010
-3.012616e-010
-2.517877e-010
-1.725479e-010
-7.758929e-011
4.010084e-011
1.740967e-010
2.947352e-010
3.726738e-010
4.026186e-010
4.001198e-010
3.806724e-010
3.478868e-010
3.000655e-010
2.411482e-010
1.812279e-010
1.286098e-010
8.504065e-011
4.879405e-011
1.976465e-011
2.210506e-013
-8.009366e-012
-5.274851e-012
6.945378e-012
2.774461e-011
5.709188e-011
9.493646e-011
1.401795e-010
1.901051e-010
2.405731e-010
2.870094e-010
3.251730e-010
3.504069e-010
3.562438e-010
3.353699e-010
2.838559e-010
2.048008e-010
1.070022e-010
6.406234e-013
-1.032196e-010
-1.879496e-010
-2.303877e-010
-2.119235e-010
-1.349563e-010
-2.688359e-011
7.542736e-011
1.450169e-010
1.679786e-010
1.337801e-010
3.714022e-011
-9.930736e-011
-2.102026e-010
-2.171290e-010
-9.379461e-011
9.440493e-011
2.274871e-010
2.217068e-010
9.224116e-011
-6.823836e-011
-1.669707e-010
-1.684225e-010
-9.241512e-011
1.800801e-011
1.147800e-010
1.490722e-010
9.206734e-011
-2.899094e-011
-1.280592e-010
-1.227328e-010
-1.554682e-011
9.570763e-011
1.066976e-010
1.162589e-011
-8.823390e-011
-2.136700e-010
-7.363835e-011
8.964439e-011
1.654199e-010
1.354827e-010
5.290745e-011
-3.266872e-011
-1.018156e-010
-1.314736e-010
-8.128480e-011
5.265061e-011
1.839911e-010
1.815537e-010
-8.199947e-014
-2.427950e-010
-3.462392e-010
-2.049863e-010
9.488266e-011
3.555497e-010
4.348090e-010
3.332086e-010
1.394422e-010
-7.270416e-011
-2.768768e-010
-4.485869e-010
-5.307110e-010
-4.685166e-010
-2.707441e-010
-1.629006e-011
2.060450e-010
3.580049e-010
4.523607e-010
5.078724e-010
5.192643e-010
4.717017e-010
3.708543e-010
2.470007e-010
1.305651e-010
3.096802e-011
-5.893068e-011
-1.440593e-010
-2.185223e-010
-2.738444e-010
-3.097101e-010
-3.336149e-010
-3.521274e-010
-3.655097e-010
-3.706860e-010
-3.668227e-010
-3.563038e-010
-3.410026e-010
-3.192564e-010
-2.871610e-010
-2.422265e-010
-1.849042e-010
-1.164641e-010
-3.645383e-011
5.605092e-011
1.577472e-010
2.583954e-010
3.442439e-010
4.043008e-010
4.316841e-010
4.185006e-010
3.532360e-010
2.294880e-010
6.041738e-011
-1.181820e-010
-2.638839e-010
-3.480892e-010
-3.602053e-010
-2.965161e-010
-1.573970e-010
3.403720e-011
2.147736e-010
3.022064e-010
2.507759e-010
9.470815e-011
-7.109627e-011
-1.596224e-010
-1.464524e-010
-6.638795e-011
2.756515e-011
9.257243e-011
9.804672e-011
3.193242e-011
-7.410267e-011
-1.391520e-010
-8.909585e-011
5.906456e-011
1.820188e-010
1.525679e-010
-2.473713e-011
-1.936034e-010
-1.877429e-010
-2.994151e-012
1.845651e-010
1.891202e-010
5.736841e-012
-1.800458e-010
-3.780447e-010
1.717945e-011
3.882620e-010
3.600399e-010
-3.125741e-011
-4.010169e-010
-4.094911e-010
-6.988154e-011
3.104931e-010
4.419461e-010
2.811287e-010
-8.983351e-012
-2.509394e-010
-3.685877e-010
-3.546449e-010
-2.065511e-010
5.732691e-011
3.408152e-010
4.889679e-010
4.019404e-010
1.278544e-010
-1.725000e-010
-3.546188e-010
-3.806179e-010
-2.972978e-010
-1.583459e-010
1.083347e-011
1.858936e-010
3.173960e-010
3.545160e-010
2.900878e-010
1.672578e-010
3.821306e-011
-7.576988e-011
-1.811815e-010
-2.807166e-010
-3.578565e-010
-3.936769e-010
-3.892850e-010
-3.645543e-010
-3.372748e-010
-3.096238e-010
-2.754190e-010
-2.347986e-010
-1.972502e-010
-1.718581e-010
-1.591134e-010
-1.538620e-010
-1.537125e-010
-1.617426e-010
-1.812796e-010
-2.105656e-010
-2.440852e-010
-2.779606e-010
-3.117088e-010
-3.438228e-010
-3.672509e-010
-3.715711e-010
-3.501705e-010
-3.036441e-010
-2.350841e-010
-1.443299e-010
-3.136844e-011
9.263302e-011
2.009478e-010
2.631905e-010
2.636542e-010
2.067473e-010
1.058390e-010
-2.585214e-011
-1.665319e-010
-2.721460e-010
-2.869972e-010
-1.836339e-010
3.439611e-012
1.893368e-010
2.904743e-010
2.701802e-010
1.446874e-010
-3.651127e-011
-2.044130e-010
-2.799309e-010
-2.081033e-010
-1.373208e-011
1.823462e-010
2.382562e-010
1.142702e-010
-7.718748e-011
-1.658161e-010
-8.446203e-011
6.600149e-011
1.222781e-010
2.932074e-011
-1.040126e-010
-1.246396e-010
-2.342941e-012
1.355596e-010
1.396315e-010
-1.071093e-012
-1.448279e-010
-3.588334e-010
7.865586e-011
4.624629e-010
3.622314e-010
-1.483459e-010
-5.718056e-010
-4.891721e-010
3.248133e-011
5.224042e-010
5.666033e-010
1.743135e-010
-2.845991e-010
-4.543173e-010
-2.831252e-010
1.632004e-011
2.172654e-010
2.507984e-010
1.712883e-010
3.637054e-011
-1.304366e-010
-2.854528e-010
-3.388331e-010
-2.208047e-010
3.610881e-011
3.058623e-010
4.654971e-010
4.757489e-010
3.726090e-010
2.051324e-010
8.932163e-013
-2.171328e-010
-4.087490e-010
-5.305309e-010
-5.677580e-010
-5.407940e-010
-4.784837e-010
-3.930877e-010
-2.840964e-010
-1.581214e-010
-3.473334e-011
6.832527e-011
1.491353e-010
2.170574e-010
2.775756e-010
3.262572e-010
3.570252e-010
3.714174e-010
3.766323e-010
3.763915e-010
3.671689e-010
3.437814e-010
3.058056e-010
2.563117e-010
1.956195e-010
1.195659e-010
2.540441e-011
-8.223152e-011
-1.932460e-010
-2.990688e-010
-3.944649e-010
-4.708126e-010
-5.105676e-010
-4.936371e-010
-4.118344e-010
-2.758613e-010
-1.075684e-010
7.075492e-011
2.350224e-010
3.505543e-010
3.768865e-010
2.939118e-010
1.268606e-010
-5.921462e-011
-1.944901e-010
-2.371579e-010
-1.808472e-010
-4.835288e-011
1.074010e-010
2.054414e-010
1.730296e-010
1.081535e-011
-1.770424e-010
-2.455500e-010
-1.309371e-010
8.206242e-011
2.257960e-010
1.949777e-010
3.309335e-011
-1.196167e-010
-1.560917e-010
-8.151652e-011
1.924129e-011
7.074201e-011
5.989032e-011
2.039977e-011
-1.153642e-011
-2.194642e-011
-1.539332e-011
-2.600470e-012
6.693249e-012
-1.412291e-010
5.209093e-011
2.114723e-010
1.403755e-010
-1.119770e-010
-2.874974e-010
-1.824267e-010
1.252321e-010
3.302977e-010
2.039461e-010
-1.574702e-010
-4.067045e-010
-2.826575e-010
1.299310e-010
4.808369e-010
4.830491e-010
1.536551e-010
-2.484767e-010
-4.768280e-010
-4.683336e-010
-3.038239e-010
-7.416122e-011
1.750472e-010
3.976522e-010
5.123175e-010
4.509876e-010
2.314626e-010
-4.326066e-011
-2.635314e-010
-3.828145e-010
-4.143449e-010
-3.821890e-010
-2.943832e-010
-1.583037e-010
-2.810204e-013
1.438840e-010
2.539955e-010
3.327441e-010
3.894451e-010
4.248920e-010
4.351803e-010
4.240774e-010
4.042930e-010
3.864886e-010
3.718023e-010
3.569861e-010
3.434013e-010
3.373454e-010
3.425443e-010
3.560378e-010
3.726958e-010
3.911421e-010
4.125382e-010
4.343273e-010
4.482251e-010
4.455416e-010
4.224385e-010
3.779202e-010
3.083076e-010
2.080285e-010
7.831759e-011
-6.644514e-011
-2.033557e-010
-3.110533e-010
-3.728635e-010
-3.722265e-010
-2.939049e-010
-1.389053e-010
6.027879e-011
2.450241e-010
3.569326e-010
3.621639e-010
2.568711e-010
6.413315e-011
-1.608263e-010
-3.286934e-010
-3.488536e-010
-1.959794e-010
4.723245e-011
2.312967e-010
2.483846e-010
1.138593e-010
-5.562068e-011
-1.426445e-010
-1.115448e-010
-1.028415e-011
8.296970e-011
1.085307e-010
4.833185e-011
-6.232595e-011
-1.404917e-010
-1.069261e-010
3.325397e-011
1.652537e-010
1.560558e-010
-4.859076e-012
-1.706722e-010
-1.734612e-010
-2.900742e-012
1.711434e-010
2.129662e-010
-2.413050e-011
-2.386430e-010
-2.110683e-010
2.298237e-011
2.419404e-010
2.712652e-010
1.142020e-010
-1.102370e-010
-2.848638e-010
-3.316703e-010
-2.015921e-010
8.734957e-011
3.913669e-010
4.903964e-010
2.681186e-010
-1.477327e-010
-4.620479e-010
-4.587617e-010
-1.754029e-010
1.606815e-010
3.449825e-010
3.324881e-010
1.963216e-010
1.175077e-011
-1.873480e-010
-3.653766e-010
-4.545600e-010
-3.966144e-010
-2.032295e-010
4.586322e-011
2.668294e-010
4.243786e-010
5.246202e-010
5.759177e-010
5.723197e-010
5.106192e-010
4.071880e-010
2.895145e-010
1.759134e-010
6.960815e-011
-3.009925e-011
-1.183781e-010
-1.884796e-010
-2.395395e-010
-2.760898e-010
-3.009222e-010
-3.120237e-010
-3.068285e-010
-2.862109e-010
-2.522838e-010
-2.041176e-010
-1.384168e-010
-5.436751e-011
4.434983e-011
1.526976e-010
2.666998e-010
3.803038e-010
4.808817e-010
5.508992e-010
5.751469e-010
5.450692e-010
4.567107e-010
3.099723e-010
1.163094e-010
-9.233219e-011
-2.682547e-010
-3.678626e-010
-3.694708e-010
-2.752323e-010
-1.059761e-010
9.461895e-011
2.538079e-010
2.907009e-010
1.711947e-010
-4.702712e-011
-2.355899e-010
-2.809132e-010
-1.632474e-010
3.838977e-011
2.086336e-010
2.624791e-010
1.754464e-010
-1.076191e-011
-1.931962e-010
-2.481436e-010
-1.217505e-010
9.558151e-011
2.164039e-010
1.260206e-010
-8.513849e-011
-1.934581e-010
-7.612711e-011
1.414068e-010
2.096519e-010
3.477238e-011
-2.010006e-010
-2.321165e-010
-1.034266e-011
2.307773e-010
5.309621e-010
-7.241883e-011
-5.991235e-010
-4.836766e-010
1.387583e-010
6.230424e-010
5.109764e-010
-3.851087e-011
-4.863894e-010
-4.765757e-010
-1.143408e-010
2.412616e-010
3.456324e-010
2.094625e-010
-2.358342e-011
-2.261439e-010
-3.130794e-010
-2.209247e-010
4.757406e-011
3.618533e-010
5.139672e-010
3.799057e-010
3.094861e-011
-3.285849e-010
-5.286564e-010
-5.330915e-010
-3.993377e-010
-1.873844e-010
6.872072e-011
3.253476e-010
5.117356e-010
5.696446e-010
5.002019e-010
3.570438e-010
1.954322e-010
3.733680e-011
-1.172786e-010
-2.619353e-010
-3.781280e-010
-4.535256e-010
-4.943938e-010
-5.166906e-010
-5.303653e-010
-5.361917e-010
-5.342190e-010
-5.293063e-010
-5.275463e-010
-5.310092e-010
-5.381290e-010
-5.472661e-010
-5.574443e-010
-5.661972e-010
-5.688438e-010
-5.601192e-010
-5.349355e-010
-4.873018e-010
-4.107597e-010
-3.019718e-010
-1.636354e-010
-3.306921e-012
1.684175e-010
3.349633e-010
4.691910e-010
5.374060e-010
5.144277e-010
3.972663e-010
2.048954e-010
-3.041485e-011
-2.643096e-010
-4.348647e-010
-4.737189e-010
-3.467394e-010
-9.577472e-011
1.667797e-010
3.206344e-010
3.087484e-010
1.601192e-010
-4.008817e-011
-1.932241e-010
-2.196506e-010
-9.524516e-011
1.096310e-010
2.426731e-010
1.759272e-010
-6.083992e-011
-2.681376e-010
-2.462252e-010
-1.529832e-012
2.373057e-010
2.417730e-010
2.203173e-011
-1.834708e-010
-1.670434e-010
2.532077e-011
1.583272e-010
8.289505e-011
-9.707516e-011
-1.573437e-010
-2.331981e-011
1.438340e-010
5.870102e-010
-6.160662e-011
-6.158976e-010
-4.757125e-010
1.730605e-010
6.045439e-010
3.673792e-010
-2.482523e-010
-5.678727e-010
-2.692699e-010
3.119240e-010
5.820919e-010
3.014062e-010
-2.370095e-010
-5.627935e-010
-4.684220e-010
-1.031056e-010
2.586098e-010
4.481444e-010
4.343406e-010
2.450105e-010
-5.875517e-011
-3.538535e-010
-4.836530e-010
-3.666940e-010
-7.123607e-011
2.384404e-010
4.291782e-010
4.682230e-010
3.883016e-010
2.231942e-010
-5.140849e-012
-2.578810e-010
-4.728785e-010
-6.003781e-010
-6.360726e-010
-6.107261e-010
-5.529556e-010
-4.704837e-010
-3.637472e-010
-2.444968e-010
-1.334997e-010
-4.421626e-011
2.437476e-011
7.889720e-011
1.206202e-010
1.450343e-010
1.486441e-010
1.325144e-010
9.954651e-011
5.080514e-011
-1.472726e-011
-9.786429e-011
-1.969219e-010
-3.064606e-010
-4.175311e-010
-5.196147e-010
-6.023103e-010
-6.539576e-010
-6.588832e-010
-5.999035e-010
-4.686883e-010
-2.757022e-010
-4.895630e-011
1.764171e-010
3.641093e-010
4.733729e-010
4.620838e-010
3.114082e-010
5.788146e-011
-2.041725e-010
-3.661076e-010
-3.638905e-010
-2.065715e-010
3.630765e-011
2.622292e-010
3.631915e-010
2.698833e-010
1.358202e-011
-2.525445e-010
-3.385891e-010
-1.754072e-010
1.016345e-010
2.554099e-010
1.637792e-010
-6.338919e-011
-1.963696e-010
-1.164154e-010
7.516044e-011
1.774899e-010
1.003822e-010
-6.005695e-011
-1.424183e-010
-8.743498e-011
2.526501e-011
8.425687e-011
5.925959e-011
3.884243e-012
-2.617087e-011
-2.859015e-011
2.699186e-010
-2.116188e-011
-2.504234e-010
-1.548025e-010
1.295212e-010
2.299484e-010
-1.329698e-011
-3.327963e-010
-3.198674e-010
9.638829e-011
5.246891e-010
5.066493e-010
1.045063e-011
-5.178936e-010
-6.006921e-010
-1.902689e-010
3.236001e-010
5.180408e-010
3.017785e-010
-9.138445e-011
-3.768829e-010
-4.313969e-010
-2.850351e-010
-1.398542e-011
3.014455e-010
5.536048e-010
6.235388e-010
4.602183e-010
1.310747e-010
-2.262201e-010
-5.010272e-010
-6.562405e-010
-6.990648e-010
-6.385744e-010
-4.841087e-010
-2.670505e-010
-3.917904e-011
1.577379e-010
3.135959e-010
4.388901e-010
5.400625e-010
6.123923e-010
6.529683e-010
6.710492e-010
6.817468e-010
6.931194e-010
7.029739e-010
7.066501e-010
7.041011e-010
6.984764e-010
6.899754e-010
6.728848e-010
6.384359e-010
5.798449e-010
4.945698e-010
3.821569e-010
2.408538e-010
6.852721e-011
-1.303311e-010
-3.376348e-010
-5.234300e-010
-6.563078e-010
-7.118853e-010
-6.720296e-010
-5.232814e-010
-2.685791e-010
5.176762e-011
3.553194e-010
5.465996e-010
5.634880e-010
4.055177e-010
1.302234e-010
-1.653112e-010
-3.649399e-010
-3.714498e-010
-1.709100e-010
1.220492e-010
3.105533e-010
2.561237e-010
2.575536e-012
-2.460549e-010
-2.936664e-010
-1.163831e-010
1.288149e-010
2.495419e-010
1.744043e-010
-1.090467e-011
-1.526099e-010
-1.508821e-010
-2.589702e-011
1.051953e-010
1.225885e-010
8.646887e-012
-1.249421e-010
-1.344889e-010
6.576583e-012
1.622110e-010
1.642458e-010
-4.043459e-012
-1.768654e-010
-2.810188e-010
1.516780e-011
2.951003e-010
2.875229e-010
1.775995e-011
-2.612963e-010
-3.279670e-010
-1.551289e-010
1.203967e-010
3.123550e-010
2.836191e-010
2.911208e-011
-2.777724e-010
-3.707820e-010
-1.184123e-010
3.039219e-010
5.226063e-010
3.049715e-010
-2.042331e-010
-6.047172e-010
-5.988158e-010
-2.232475e-010
2.424318e-010
5.378634e-010
5.765557e-010
4.054848e-010
1.036242e-010
-2.476851e-010
-5.432047e-010
-6.723780e-010
-5.864922e-010
-3.342102e-010
-1.818252e-011
2.781391e-010
5.190222e-010
6.927546e-010
7.871034e-010
7.962064e-010
7.374040e-010
6.455993e-010
5.492342e-010
4.574087e-010
3.699785e-010
2.924553e-010
2.360890e-010
2.067501e-010
1.998377e-010
2.075365e-010
2.280975e-010
2.659468e-010
3.240186e-010
3.982804e-010
4.801461e-010
5.626211e-010
6.420822e-010
7.130763e-010
7.621098e-010
7.687447e-010
7.148096e-010
5.930120e-010
4.069194e-010
1.662387e-010
-1.108418e-010
-3.864252e-010
-5.986428e-010
-6.801848e-010
-5.922475e-010
-3.477865e-010
-9.332568e-012
3.275550e-010
5.519682e-010
5.665955e-010
3.416549e-010
-3.372503e-011
-3.669895e-010
-4.713581e-010
-2.994593e-010
1.555899e-011
2.569471e-010
2.804019e-010
1.042166e-010
-1.215538e-010
-2.257107e-010
-1.306268e-010
8.936377e-011
2.483286e-010
1.908108e-010
-5.437335e-011
-2.658160e-010
-2.273909e-010
3.603932e-011
2.545174e-010
1.921085e-010
-8.023603e-011
-2.488038e-010
-1.155286e-010
1.619596e-010
2.497542e-010
3.728425e-011
-2.250102e-010
-7.329603e-010
5.072582e-011
7.168798e-010
5.647367e-010
-1.582977e-010
-6.232447e-010
-3.772373e-010
2.279758e-010
5.226320e-010
2.532383e-010
-2.448810e-010
-4.873530e-010
-3.065572e-010
9.821970e-011
4.190658e-010
4.642269e-010
2.164800e-010
-1.858467e-010
-4.949967e-010
-4.807923e-010
-1.140805e-010
3.659739e-010
6.178789e-010
4.681437e-010
2.890754e-011
-4.307412e-010