# vtk DataFile Version 3.0
vtk output
ASCII
DATASET STRUCTURED_POINTS
DIMENSIONS 100 100 1
SPACING 1 1 1
ORIGIN 0 0 0
POINT_DATA 10000
SCALARS SFBox_profile double
LOOKUP_TABLE default 
0.000000e+000
0.000000e+000
0.000000e+000
0.000000e+000
0.000000e+000
0.000000e+000
0.000000e+000
0.000000e+000
0.000000e+000
0.000000e+000
0.000000e+000
0.000000e+000
0.000000e+000
0.000000e+000
0.000000e+000
0.000000e+000
0.000000e+000
0.000000e+000
0.000000e+000
0.000000e+000
0.000000e+000
0.000000e+000
0.000000e+000
0.000000e+000
0.000000e+000
0.000000e+000
0.000000e+000
0.000000e+000
0.000000e+000
0.000000e+000
0.000000e+000
0.000000e+000
0.000000e+000
0.000000e+000
0.000000e+000
0.000000e+000
0.000000e+000
0.000000e+000
0.000000e+000
0.000000e+000
0.000000e+000
0.000000e+000
0.000000e+000
0.000000e+000
0.000000e+000
0.000000e+000
0.000000e+000
0.000000e+000
0.000000e+000
0.000000e+000
0.000000e+000
0.000000e+000
0.000000e+000
0.000000e+000
0.000000e+000
0.000000e+000
0.000000e+000
0.000000e+000
0.000000e+000
0.000000e+000
0.000000e+000
0.000000e+000
0.000000e+000
0.000000e+000
0.000000e+000
0.000000e+000
0.000000e+000
0.000000e+000
0.000000e+000
0.000000e+000
0.000000e+000
0.000000e+000
0.000000e+000
0.000000e+000
0.000000e+000
0.000000e+000
0.000000e+000
0.000000e+000
0.000000e+000
0.000000e+000
0.000000e+000
0.000000e+000
0.000000e+000
0.000000e+000
0.000000e+000
0.000000e+000
0.000000e+000
0.000000e+000
0.000000e+000
0.000000e+000
0.000000e+000
0.000000e+000
0.000000e+000
0.000000e+000
0.000000e+000
0.000000e+000
0.000000e+000
0.000000e+000
0.000000e+000
0.000000e+000
3.574997e-010
2.937919e-010
1.900985e-010
7.626513e-011
-1.983761e-011
-7.912589e-011
-9.500736e-011
-7.319810e-011
-2.825680e-011
2.173468e-011
6.050465e-011
7.760972e-011
7.025109e-011
4.294935e-011
5.441005e-012
-3.042728e-011
-5.399179e-011
-5.864331e-011
-4.357864e-011
-1.410839e-011
1.970584e-011
4.588847e-011
5.400680e-011
3.845213e-011
1.539489e-013
-5.363038e-011
-1.117204e-010
-1.626227e-010
-1.980255e-010
-2.147678e-010
-2.145587e-010
-2.015726e-010
-1.791235e-010
-1.471168e-010
-1.015322e-010
-3.640678e-011
5.255708e-011
1.644343e-010
2.913747e-010
4.199460e-010
5.350994e-010
6.254727e-010
6.875380e-010
7.269057e-010
7.560203e-010
7.889484e-010
8.355574e-010
8.973232e-010
9.666371e-010
1.029855e-009
1.072910e-009
1.086966e-009
1.071932e-009
1.036285e-009
9.933875e-010
9.559223e-010
9.308530e-010
9.169375e-010
9.058224e-010
8.859828e-010
8.477436e-010
7.870629e-010
7.065905e-010
6.136492e-010
5.163021e-010
4.195115e-010
3.231427e-010
2.228367e-010
1.131060e-010
-8.774404e-012
-1.401758e-010
-2.729372e-010
-3.957759e-010
-4.981728e-010
-5.737211e-010
-6.213838e-010
-6.439856e-010
-6.447952e-010
-6.238256e-010
-5.760999e-010
-4.930518e-010
-3.670472e-010
-1.972835e-010
5.240692e-012
2.163752e-010
4.021677e-010
5.266348e-010
5.617790e-010
4.965991e-010
3.421763e-010
1.307998e-010
-9.102157e-011
-2.737619e-010
-3.773636e-010
-3.814294e-010
-2.903341e-010
-1.319569e-010
4.964135e-011
2.057208e-010
2.952146e-010
2.721759e-010
2.259476e-010
1.507631e-010
6.830741e-011
-1.296049e-012
-4.440684e-011
-5.643715e-011
-4.157886e-011
-1.018224e-011
2.504198e-011
5.271654e-011
6.541495e-011
6.084754e-011
4.163460e-011
1.406274e-011
-1.376963e-011
-3.404144e-011
-4.118330e-011
-3.340954e-011
-1.341724e-011
1.212490e-011
3.430508e-011
4.458466e-011
3.762492e-011
1.312831e-011
-2.383433e-011
-6.446772e-011
-9.926589e-011
-1.212120e-010
-1.278876e-010
-1.215750e-010
-1.073045e-010
-8.974237e-011
-7.050942e-011
-4.710175e-011
-1.422182e-011
3.314857e-011
9.633381e-011
1.709265e-010
2.473402e-010
3.138790e-010
3.612866e-010
3.865817e-010
3.945805e-010
3.961306e-010
4.037689e-010
4.264732e-010
4.658381e-010
5.152614e-010
5.625430e-010
5.948870e-010
6.040649e-010
5.896964e-010
5.591643e-010
5.243537e-010
4.966223e-010
4.822095e-010
4.800412e-010
4.827057e-010
4.801045e-010
4.639248e-010
4.310391e-010
3.842565e-010
3.303924e-010
2.766028e-010
2.268825e-010
1.804273e-010
1.324829e-010
7.730893e-011
1.160948e-011
-6.313931e-011
-1.407505e-010
-2.125918e-010
-2.710806e-010
-3.125412e-010
-3.381233e-010
-3.521773e-010
-3.588927e-010
-3.588513e-010
-3.473227e-010
-3.153862e-010
-2.538048e-010
-1.582333e-010
-3.356649e-011
1.045345e-010
2.320298e-010
3.223951e-010
3.542505e-010
3.182225e-010
2.207679e-010
8.348787e-011
-6.195021e-011
-1.818466e-010
-2.491314e-010
-2.502445e-010
-1.884095e-010
-8.243322e-011
3.838213e-011
1.418445e-010
2.010606e-010
1.243140e-010
1.086803e-010
8.336406e-011
5.569791e-011
3.222097e-011
1.702916e-011
1.121460e-011
1.331526e-011
2.041526e-011
2.928698e-011
3.714713e-011
4.191161e-011
4.219624e-011
3.729719e-011
2.743162e-011
1.403119e-011
-1.685987e-013
-1.157490e-011
-1.677625e-011
-1.388879e-011
-3.654854e-012
1.048808e-011
2.342429e-011
3.035308e-011
2.884787e-011
2.007405e-011
8.540893e-012
2.840963e-013
1.666687e-013
9.648730e-012
2.590853e-011
4.293784e-011
5.417959e-011
5.537210e-011
4.648514e-011
3.152820e-011
1.652734e-011
6.360842e-012
2.255535e-012
9.661299e-013
-3.691741e-012
-1.767433e-011
-4.340750e-011
-7.795505e-011
-1.136286e-010
-1.409386e-010
-1.525968e-010
-1.467618e-010
-1.280660e-010
-1.058824e-010
-9.045941e-011
-8.872560e-011
-1.015004e-010
-1.233802e-010
-1.452591e-010
-1.583428e-010
-1.578173e-010
-1.445730e-010
-1.243348e-010
-1.046492e-010
-9.128167e-011
-8.572856e-011
-8.480572e-011
-8.258521e-011
-7.348968e-011
-5.507673e-011
-2.916418e-011
-8.485895e-013
2.402885e-011
4.164464e-011
5.181448e-011
5.769971e-011
6.369879e-011
7.273019e-011
8.415849e-011
9.353237e-011
9.434213e-011
8.104266e-011
5.204488e-011
1.120077e-011
-3.284323e-011
-6.937504e-011
-8.929657e-011
-8.839848e-011
-6.871834e-011
-3.778891e-011
-5.875496e-012
1.752919e-011
2.675700e-011
2.135126e-011
5.587010e-012
-1.351167e-011
-2.882228e-011
-3.534329e-011
-3.140188e-011
-1.851294e-011
-4.493422e-013
1.819676e-011
3.318169e-011
4.145017e-011
-4.703306e-011
-2.662677e-011
6.711122e-012
4.332402e-011
7.364530e-011
9.054434e-011
9.102705e-011
7.694281e-011
5.424641e-011
3.099223e-011
1.463063e-011
9.476070e-012
1.530184e-011
2.754624e-011
3.921387e-011
4.373217e-011
3.755540e-011
2.163668e-011
1.036487e-012
-1.715672e-011
-2.657626e-011
-2.399939e-011
-1.021243e-011
1.082810e-011
3.416626e-011
5.628049e-011
7.642218e-011
9.642369e-011
1.188698e-010
1.447147e-010
1.715156e-010
1.933004e-010
2.023520e-010
1.920235e-010
1.594983e-010
1.070029e-010
4.102797e-011
-3.014842e-011
-9.955685e-011
-1.637373e-010
-2.231206e-010
-2.805114e-010
-3.385346e-010
-3.973704e-010
-4.539586e-010
-5.031063e-010
-5.398761e-010
-5.620580e-010
-5.714949e-010
-5.734743e-010
-5.745194e-010
-5.794869e-010
-5.895531e-010
-6.018529e-010
-6.110090e-010
-6.117915e-010
-6.014824e-010
-5.809589e-010
-5.538648e-010
-5.245125e-010
-4.954189e-010
-4.659111e-010
-4.323405e-010
-3.898256e-010
-3.346113e-010
-2.658983e-010
-1.862718e-010
-1.005760e-010
-1.392758e-011
7.011046e-011
1.502764e-010
2.269483e-010
3.003807e-010
3.688924e-010
4.278290e-010
4.700014e-010
4.874107e-010
4.736437e-010
4.259088e-010
3.461569e-010
2.408191e-010
1.195911e-010
-6.110913e-012
-1.245430e-010
-2.244872e-010
-2.958332e-010
-3.303146e-010
-3.227266e-010
-2.726548e-010
-1.861298e-010
-7.629194e-011
3.768776e-011
1.339706e-010
1.930079e-010
2.028451e-010
1.631258e-010
8.604117e-011
-6.259563e-012
-8.754274e-011
-1.347714e-010
-1.975112e-010
-1.447643e-010
-5.890129e-011
3.502252e-011
1.129306e-010
1.575593e-010
1.623622e-010
1.322327e-010
8.118365e-011
2.749491e-011
-1.206809e-011
-2.723988e-011
-1.699017e-011
1.087687e-011
4.297686e-011
6.532452e-011
6.831219e-011
4.988196e-011
1.597712e-011
-2.193655e-011
-5.109380e-011
-6.183028e-011
-5.047975e-011
-1.972024e-011
2.342863e-011
7.098524e-011
1.170932e-010
1.595305e-010
1.990298e-010
2.370100e-010
2.729041e-010
3.026834e-010
3.193181e-010
3.151249e-010
2.850174e-010
2.289401e-010
1.525951e-010
6.580098e-011
-2.067368e-011
-9.844406e-011
-1.636944e-010
-2.173323e-010
-2.632381e-010
-3.057303e-010
-3.473339e-010
-3.878893e-010
-4.251770e-010
-4.565555e-010
-4.804970e-010
-4.973748e-010
-5.090239e-010
-5.175537e-010
-5.241904e-010
-5.287571e-010
-5.301200e-010
-5.271870e-010
-5.198666e-010
-5.092747e-010
-4.970104e-010
-4.839862e-010
-4.692975e-010
-4.500288e-010
-4.220627e-010
-3.815911e-010
-3.265836e-010
-2.575176e-010
-1.770185e-010
-8.863777e-011
4.477528e-012
1.003572e-010
1.980220e-010
2.964504e-010
3.932514e-010
4.838770e-010
5.616484e-010
6.187722e-010
6.477467e-010
6.426479e-010
5.998891e-010
5.184520e-010
3.998815e-010
2.487741e-010
7.357004e-011
-1.122770e-010
-2.898750e-010
-4.360396e-010
-5.268069e-010
-5.427775e-010
-4.753792e-010
-3.317336e-010
-1.361737e-010
7.304925e-011
2.516992e-010
3.604805e-010
3.757998e-010
2.971089e-010
1.482013e-010
-2.854809e-011
-1.834410e-010
-2.731981e-010
-2.894681e-010
-2.165142e-010
-9.796044e-011
3.141426e-011
1.383456e-010
1.993013e-010
2.055212e-010
1.638769e-010
9.336570e-011
1.864784e-011
-3.759087e-011
-6.105787e-011
-4.939660e-011
-1.186234e-011
3.453530e-011
7.110035e-011
8.372544e-011
6.738441e-011
2.741597e-011
-2.270349e-011
-6.620442e-011
-8.866216e-011
-8.238531e-011
-4.817403e-011
6.212848e-012
6.978389e-011
1.327255e-010
1.895039e-010
2.396076e-010
2.857157e-010
3.305575e-010
3.739957e-010
4.119391e-010
4.375984e-010
4.445264e-010
4.299862e-010
3.969809e-010
3.539311e-010
3.120628e-010
2.815617e-010
2.681227e-010
2.713289e-010
2.853942e-010
3.017500e-010
3.124132e-010
3.125916e-010
3.017478e-010
2.829801e-010
2.612221e-010
2.412807e-010
2.263797e-010
2.175811e-010
2.139830e-010
2.133205e-010
2.125522e-010
2.085286e-010
1.985413e-010
1.810117e-010
1.560392e-010
1.257747e-010
9.410584e-011
6.576811e-011
4.506220e-011
3.467337e-011
3.516598e-011
4.540724e-011
6.367196e-011
8.877939e-011
1.207623e-010
1.605378e-010
2.088015e-010
2.647997e-010
3.255699e-010
3.861490e-010
4.406908e-010
4.837294e-010
5.109765e-010
5.191327e-010
5.048517e-010
4.637944e-010
3.906143e-010
2.807792e-010
1.339372e-010
-4.234811e-011
-2.300617e-010
-4.015359e-010
-5.240589e-010
-5.679658e-010
-5.160144e-010
-3.708777e-010
-1.579858e-010
7.828638e-011
2.845791e-010
4.124236e-010
4.318594e-010
3.407052e-010
1.661981e-010
-4.179861e-011
-2.244440e-010
-3.303977e-010
-3.015337e-010
-2.261957e-010
-1.039222e-010
2.922483e-011
1.388909e-010
2.009034e-010
2.063010e-010
1.620495e-010
8.741742e-011
7.463304e-012
-5.447488e-011
-8.305644e-011
-7.455984e-011
-3.690463e-011
1.360494e-011
5.786473e-011
8.007097e-011
7.263358e-011
3.836979e-011
-1.070696e-011
-5.748394e-011
-8.539850e-011
-8.365255e-011
-5.017694e-011
8.637895e-012
8.119475e-011
1.555511e-010
2.237658e-010
2.841895e-010
3.406973e-010
3.996083e-010
4.657365e-010
5.396057e-010
6.169886e-010
6.910514e-010
7.559273e-010
8.099579e-010
8.570234e-010
9.051775e-010
9.632861e-010
1.036943e-009
1.125691e-009
1.222556e-009
1.316210e-009
1.394724e-009
1.449452e-009
1.477591e-009
1.482496e-009
1.472054e-009
1.455684e-009
1.441346e-009
1.433307e-009
1.431334e-009
1.431232e-009
1.426405e-009
1.409926e-009
1.376513e-009
1.323927e-009
1.253452e-009
1.169332e-009
1.077332e-009
9.829158e-010
8.897189e-010
7.989304e-010
7.098108e-010
6.211899e-010
5.330468e-010
4.475262e-010
3.686355e-010
3.009192e-010
2.475690e-010
2.091675e-010
1.836227e-010
1.675527e-010
1.582591e-010
1.551843e-010
1.598081e-010
1.737169e-010
1.956177e-010
2.188776e-010
2.311490e-010
2.171403e-010
1.639210e-010
6.717595e-011
-6.418097e-011
-2.073915e-010
-3.301241e-010
-3.990541e-010
-3.903253e-010
-2.983243e-010
-1.397276e-010
4.918219e-011
2.215545e-010
3.329535e-010
3.543904e-010
2.812927e-010
1.354442e-010
-4.080275e-011
-1.966020e-010
-2.872834e-010
-2.331951e-010
-1.748541e-010
-8.025135e-011
2.266220e-011
1.073911e-010
1.553277e-010
1.594629e-010
1.246821e-010
6.505216e-011
-8.205403e-013
-5.499298e-011
-8.454915e-011
-8.442144e-011
-5.802270e-011
-1.582914e-011
2.780826e-011
5.893253e-011
6.822928e-011
5.404450e-011
2.316177e-011
-1.108911e-011
-3.304950e-011
-2.975367e-011
4.884620e-012
6.844095e-011
1.515509e-010
2.420783e-010
3.301899e-010
4.121589e-010
4.913847e-010
5.762056e-010
6.756052e-010
7.948371e-010
9.329506e-010
1.083220e-009
1.236320e-009
1.384452e-009
1.524567e-009
1.659042e-009
1.793592e-009
1.933386e-009
2.079248e-009
2.225795e-009
2.362340e-009
2.476245e-009
2.557405e-009
2.601839e-009
2.613183e-009
2.601464e-009
2.579723e-009
2.559896e-009
2.549211e-009
2.548419e-009
2.552218e-009
2.551426e-009
2.536189e-009
2.499020e-009
2.436671e-009
2.350438e-009
2.244747e-009
2.124853e-009
1.994505e-009
1.854604e-009
1.703414e-009
1.538297e-009
1.358069e-009
1.164921e-009
9.649113e-010
7.666236e-010
5.786797e-010
4.072033e-010
2.545936e-010
1.202933e-010
3.245598e-012
-9.523780e-011
-1.698810e-010
-2.123073e-010
-2.145407e-010
-1.737660e-010
-9.638310e-011
9.494505e-013
9.425699e-011
1.586491e-010
1.761355e-010
1.418888e-010
6.659091e-011
-2.633625e-011
-1.078619e-010
-1.524332e-010
-1.461846e-010
-9.129907e-011
-5.362236e-012
8.438322e-011
1.496210e-010
1.699818e-010
1.391916e-010
6.693281e-011
-2.442472e-011
-1.068511e-010
-1.552809e-010
-1.036549e-010
-7.868332e-011
-3.814798e-011
6.181883e-012
4.339045e-011
6.586026e-011
7.033050e-011
5.769733e-011
3.196684e-011
-8.879610e-013
-3.388849e-011
-5.984151e-011
-7.252122e-011
-6.801504e-011
-4.626747e-011
-1.182902e-011
2.686825e-011
6.005620e-011
8.031834e-011
8.604007e-011
8.308753e-011
8.347624e-011
1.013971e-010
1.479859e-010
2.271240e-010
3.340977e-010
4.579196e-010
5.862420e-010
7.107387e-010
8.304495e-010
9.515585e-010
1.083746e-009
1.234766e-009
1.405882e-009
1.590271e-009
1.775030e-009
1.945947e-009
2.092641e-009
2.211748e-009
2.306826e-009
2.385104e-009
2.452918e-009
2.511892e-009
2.557902e-009
2.583042e-009
2.579893e-009
2.545904e-009
2.486033e-009
2.412474e-009
2.341483e-009
2.288614e-009
2.264215e-009
2.270751e-009
2.302889e-009
2.350025e-009
2.400117e-009
2.443312e-009
2.473984e-009
2.490538e-009
2.493417e-009
2.482244e-009
2.453559e-009
2.400352e-009
2.313652e-009
2.185709e-009
2.013331e-009
1.799955e-009
1.555357e-009
1.293166e-009
1.027055e-009
7.674521e-010
5.202394e-010
2.879390e-010
7.291304e-011
-1.192254e-010
-2.778710e-010
-3.886557e-010
-4.376443e-010
-4.170275e-010
-3.300395e-010
-1.928178e-010
-3.205420e-011
1.210601e-010
2.386424e-010
3.029070e-010
3.096966e-010
2.677229e-010
1.943966e-010
1.099266e-010
3.194186e-011
-2.789542e-011
-6.478197e-011
-7.961416e-011
-7.675945e-011
-6.196154e-011
-4.074020e-011
-1.782513e-011
2.948583e-012
1.858652e-011
2.696357e-011
5.400702e-011
3.630623e-011
7.774351e-012
-2.243579e-011
-4.510304e-011
-5.356725e-011
-4.605879e-011
-2.670678e-011
-4.497261e-012
9.962709e-012
8.922704e-012
-8.748072e-012
-3.617186e-011
-6.055000e-011
-6.809768e-011
-4.975098e-011
-5.170903e-012
5.717960e-011
1.240026e-010
1.836499e-010
2.321219e-010
2.756231e-010
3.284621e-010
4.069708e-010
5.222257e-010
6.748397e-010
8.541997e-010
1.042458e-009
1.221248e-009
1.377998e-009
1.508861e-009
1.616956e-009
1.707063e-009
1.779513e-009
1.826433e-009
1.832347e-009
1.779024e-009
1.652286e-009
1.447738e-009
1.172788e-009
8.442836e-010
4.829086e-010
1.070271e-010
-2.711711e-010
-6.458640e-010
-1.014296e-009
-1.371866e-009
-1.708257e-009
-2.006345e-009
-2.244696e-009
-2.402364e-009
-2.464150e-009
-2.424048e-009
-2.285715e-009
-2.060065e-009
-1.761395e-009
-1.403799e-009
-9.995300e-010
-5.597850e-010
-9.730121e-011
3.708633e-010
8.220034e-010
1.229148e-009
1.564979e-009
1.807187e-009
1.943193e-009
1.972515e-009
1.905801e-009
1.761023e-009
1.558424e-009
1.316253e-009
1.048907e-009
7.678445e-010
4.843473e-010
2.124236e-010
-3.012217e-011
-2.232457e-010
-3.486172e-010
-3.945600e-010
-3.600687e-010
-2.563870e-010
-1.053971e-010
6.467198e-011
2.248872e-010
3.508422e-010
4.260168e-010
4.428183e-010
4.018349e-010
3.106082e-010
1.826996e-010
3.705202e-011
-1.032481e-010
-2.137758e-010
-2.734815e-010
-2.702010e-010
-2.052794e-010
-9.507180e-011
3.191178e-011
1.419780e-010
2.055180e-010
2.012598e-010
1.412052e-010
4.409512e-011
-6.014894e-011
-1.421172e-010
-1.804851e-010
-1.679337e-010
-1.131411e-010
-3.800184e-011
2.982511e-011
6.675955e-011
6.206230e-011
2.214258e-011
-3.162595e-011
-7.095128e-011
-7.144717e-011
-2.170764e-011
7.330269e-011
1.958870e-010
3.247144e-010
4.450949e-010
5.557439e-010
6.689597e-010
8.038922e-010
9.759689e-010
1.187122e-009
1.421103e-009
1.645815e-009
1.821415e-009
1.910318e-009
1.884777e-009
1.728938e-009
1.435337e-009
9.984452e-010
4.093032e-010
-3.455211e-010
-1.279694e-009
-2.399459e-009
-3.696113e-009
-5.142476e-009
-6.695004e-009
-8.300914e-009
-9.907306e-009
-1.146856e-008
-1.294939e-008
-1.432280e-008
-1.556501e-008
-1.665013e-008
-1.754750e-008
-1.822309e-008
-1.864423e-008
-1.878532e-008
-1.863228e-008
-1.818395e-008
-1.745056e-008
-1.645064e-008
-1.520838e-008
-1.375305e-008
-1.212069e-008
-1.035706e-008
-8.519569e-009
-6.676249e-009
-4.900840e-009
-3.264679e-009
-1.827531e-009
-6.302149e-010
3.088771e-010
9.925160e-010
1.439569e-009
1.678424e-009
1.741282e-009
1.661011e-009
1.470685e-009
1.204555e-009
8.985556e-010
5.890101e-010
3.093218e-010
8.582078e-011
-6.544024e-011
-1.396818e-010
-1.420205e-010
-8.474073e-011
1.544532e-011
1.392609e-010
2.659045e-010
3.738455e-010
4.421626e-010
4.530485e-010
3.957820e-010
2.712786e-010
9.571654e-011
-9.936207e-011
-2.721659e-010
-3.807516e-010
-3.956194e-010
-3.104765e-010
-1.466946e-010
5.081399e-011
2.259566e-010
3.282039e-010
3.025658e-010
2.107543e-010
6.186991e-011
-9.883683e-011
-2.265983e-010
-2.883506e-010
-2.713358e-010
-1.865609e-010
-6.516101e-011
5.167187e-011
1.266764e-010
1.396820e-010
9.503844e-011
2.023152e-011
-4.414543e-011
-5.925003e-011
-1.660475e-012
1.295945e-010
3.154372e-010
5.270403e-010
7.392160e-010
9.406992e-010
1.136227e-009
1.339211e-009
1.557780e-009
1.780317e-009
1.966704e-009
2.049195e-009
1.942582e-009
1.559497e-009
8.247629e-010
-3.161205e-010
-1.896083e-009
-3.931271e-009
-6.427065e-009
-9.380841e-009
-1.277940e-008
-1.659223e-008
-2.076432e-008
-2.521302e-008
-2.983168e-008
-3.449957e-008
-3.909502e-008
-4.350689e-008
-4.764076e-008
-5.141837e-008
-5.477206e-008
-5.763800e-008
-5.995170e-008
-6.164835e-008
-6.266731e-008
-6.295876e-008
-6.248975e-008
-6.124761e-008
-5.924054e-008
-5.649678e-008
-5.306426e-008
-4.901213e-008
-4.443399e-008
-3.945094e-008
-3.421129e-008
-2.888497e-008
-2.365178e-008
-1.868532e-008
-1.413606e-008
-1.011766e-008
-6.699694e-009
-3.907682e-009
-1.729304e-009
-1.237441e-010
9.688950e-010
1.620495e-009
1.910435e-009
1.922633e-009
1.742119e-009
1.449864e-009
1.116085e-009
7.939553e-010
5.165463e-010
2.986190e-010
1.427973e-010
4.689279e-011
8.534028e-012
2.491332e-011
8.860342e-011
1.830093e-010
2.812455e-010
3.501218e-010
3.588022e-010
2.892910e-010
1.450978e-010
-4.572537e-011
-2.357651e-010
-3.712732e-010
-4.095657e-010
-3.346458e-010
-1.649835e-010
5.018568e-011
2.456320e-010
3.610829e-010
3.320808e-010
2.278071e-010
5.781618e-011
-1.274991e-010
-2.772295e-010
-3.522026e-010
-3.350437e-010
-2.351185e-010
-8.597626e-011
6.498250e-011
1.721946e-010
2.079188e-010
1.725979e-010
9.536124e-011
2.397198e-011
8.157642e-012
8.271238e-011
2.568979e-010
5.139130e-010
8.199997e-010
1.138217e-009
1.439983e-009
1.707667e-009
1.925993e-009
2.064947e-009
2.061586e-009
1.808669e-009
1.156042e-009
-7.475296e-011
-2.066956e-009
-4.983769e-009
-8.949329e-009
-1.403948e-008
-2.028161e-008
-2.765955e-008
-3.611831e-008
-4.556540e-008
-5.586867e-008
-6.685403e-008
-7.830730e-008
-8.998308e-008
-1.016204e-007
-1.129613e-007
-1.237670e-007
-1.338273e-007
-1.429605e-007
-1.510072e-007
-1.578211e-007
-1.632628e-007
-1.671984e-007
-1.695050e-007
-1.700786e-007
-1.688441e-007
-1.657623e-007
-1.608353e-007
-1.541104e-007
-1.456842e-007
-1.357091e-007
-1.243992e-007
-1.120338e-007
-9.895395e-008
-8.554830e-008
-7.222937e-008
-5.940194e-008
-4.742973e-008
-3.660643e-008
-2.713642e-008
-1.912775e-008
-1.259680e-008
-7.481976e-009
-3.661979e-009
-9.751511e-010
7.630334e-010
1.745338e-009
2.160611e-009
2.183413e-009
1.964659e-009
1.624140e-009
1.246392e-009
8.825285e-010
5.585119e-010
2.874962e-010
8.057613e-011
-4.963317e-011
-9.408698e-011
-5.677331e-011
3.891580e-011
1.521647e-010
2.356732e-010
2.510820e-010
1.829808e-010
4.582701e-011
-1.192964e-010
-2.577888e-010
-3.206183e-010
-2.825940e-010
-1.528312e-010
2.703611e-011
1.968109e-010
2.989160e-010
2.774740e-010
1.854459e-010
3.346066e-011
-1.359362e-010
-2.777454e-010
-3.542472e-010
-3.447084e-010
-2.519477e-010
-1.028518e-010
5.911207e-011
1.881209e-010
2.523905e-010
2.466964e-010
1.958072e-010
1.472311e-010
1.557431e-010
2.652801e-010
4.944401e-010
8.305165e-010
1.233348e-009
1.644988e-009
1.998105e-009
2.215949e-009
2.201081e-009
1.816152e-009
8.645301e-010
-9.195702e-010
-3.864543e-009
-8.336732e-009
-1.470221e-008
-2.328393e-008
-3.432423e-008
-4.795975e-008
-6.421097e-008
-8.298408e-008
-1.040797e-007
-1.272042e-007
-1.519805e-007
-1.779612e-007
-2.046443e-007
-2.314954e-007
-2.579737e-007
-2.835589e-007
-3.077725e-007
-3.301884e-007
-3.504327e-007
-3.681740e-007
-3.831102e-007
-3.949587e-007
-4.034532e-007
-4.083495e-007
-4.094380e-007
-4.065586e-007
-3.996154e-007
-3.885903e-007
-3.735555e-007
-3.546880e-007
-3.322857e-007
-3.067811e-007
-2.787484e-007
-2.488968e-007
-2.180458e-007
-1.870812e-007
-1.568974e-007
-1.283313e-007
-1.020999e-007
-7.874981e-008
-5.862555e-008
-4.186073e-008
-2.839103e-008
-1.798580e-008
-1.029273e-008
-4.888287e-009
-1.326586e-009
8.201266e-010
1.933526e-009
2.334763e-009
2.280769e-009
1.966963e-009
1.532888e-009
1.070533e-009
6.363637e-010
2.659678e-010
-1.401460e-011
-1.828287e-010
-2.321223e-010
-1.754895e-010
-5.126645e-011
8.598757e-011
1.826957e-010
2.042623e-010
1.462069e-010
3.428388e-011
-8.619181e-011
-1.680693e-010
-1.803716e-010
-1.200924e-010
-1.292530e-011
9.723495e-011
1.659419e-010
1.411445e-010
8.681988e-011
-6.756201e-012
-1.183767e-010
-2.214756e-010
-2.879523e-010
-2.954243e-010
-2.353729e-010
-1.182975e-010
2.777283e-011
1.664119e-010
2.665861e-010
3.158827e-010
3.281635e-010
3.422108e-010
4.107595e-010
5.822463e-010
8.809373e-010
1.291699e-009
1.752759e-009
2.154230e-009
2.336016e-009
2.079498e-009
1.091500e-009
-1.015609e-009
-4.739345e-009
-1.068778e-008
-1.955714e-008
-3.208342e-008
-4.897290e-008
-7.082348e-008
-9.805159e-008
-1.308386e-007
-1.691039e-007
-2.125067e-007
-2.604697e-007
-3.122177e-007
-3.668239e-007
-4.232579e-007
-4.804349e-007
-5.372633e-007
-5.926893e-007
-6.457332e-007
-6.955136e-007
-7.412559e-007
-7.822846e-007
-8.180046e-007
-8.478785e-007
-8.714084e-007
-8.881277e-007
-8.976062e-007
-8.994660e-007
-8.934035e-007
-8.792143e-007
-8.568185e-007
-8.262902e-007
-7.878912e-007
-7.421073e-007
-6.896824e-007
-6.316403e-007
-5.692839e-007
-5.041646e-007
-4.380166e-007
-3.726603e-007
-3.098829e-007
-2.513100e-007
-1.982864e-007
-1.517804e-007
-1.123260e-007
-8.001146e-008
-5.451474e-008
-3.518171e-008
-2.113469e-008
-1.139377e-008
-4.990933e-009
-1.057990e-009
1.124083e-009
2.115676e-009
2.338004e-009
2.103035e-009
1.638428e-009
1.103050e-009
5.990423e-010
1.864974e-010
-1.014118e-010
-2.501598e-010
-2.650678e-010
-1.753273e-010
-3.103219e-011
1.101102e-010
2.008895e-010
2.187213e-010
1.697963e-010
8.265267e-011
-5.439593e-012
-6.358276e-011
-7.828746e-011
-5.648561e-011
-1.987290e-011
6.504125e-012
-6.064356e-011
-5.608795e-011
-5.744774e-011
-7.584238e-011
-1.136682e-010
-1.598009e-010
-1.923930e-010
-1.879803e-010
-1.321384e-010
-2.650090e-011
1.116155e-010
2.568894e-010
3.888326e-010
5.049565e-010
6.277990e-010
7.993875e-010
1.061634e-009
1.427723e-009
1.852408e-009
2.205387e-009
2.246971e-009
1.603350e-009
-2.591888e-010
-4.058862e-009
-1.071639e-008
-2.135683e-008
-3.728306e-008
-5.990983e-008
-9.065561e-008
-1.308011e-007
-1.813352e-007
-2.428168e-007
-3.152783e-007
-3.981883e-007
-4.904790e-007
-5.906259e-007
-6.967633e-007
-8.068138e-007
-9.186147e-007
-1.030029e-006
-1.139037e-006
-1.243797e-006
-1.342692e-006
-1.434332e-006
-1.517552e-006
-1.591372e-006
-1.654957e-006
-1.707574e-006
-1.748545e-006
-1.777238e-006
-1.793051e-006
-1.795434e-006
-1.783908e-006
-1.758096e-006
-1.717763e-006
-1.662863e-006
-1.593610e-006
-1.510548e-006
-1.414629e-006
-1.307287e-006
-1.190479e-006
-1.066689e-006
-9.388634e-007
-8.102969e-007
-6.844391e-007
-5.646610e-007
-4.539954e-007
-3.548915e-007
-2.690215e-007
-1.971699e-007
-1.392285e-007
-9.429353e-008
-6.085145e-008
-3.701746e-008
-2.078859e-008
-1.026876e-008
-3.830517e-009
-1.915989e-010
1.592884e-009
2.196133e-009
2.099784e-009
1.652333e-009
1.096533e-009
5.824691e-010
1.856296e-010
-6.759796e-011
-1.789053e-010
-1.690962e-010
-7.580865e-011
5.203413e-011
1.663737e-010
2.332754e-010
2.402841e-010
1.953456e-010
1.192608e-010
3.587220e-011
-3.618451e-011
-8.758844e-011
-1.177996e-010
-1.310024e-010
-3.000483e-010
-2.243791e-010
-1.134078e-010
-1.649177e-011
2.881347e-011
1.149798e-011
-4.968751e-011
-1.148200e-010
-1.389589e-010
-8.924052e-011
4.352334e-011
2.441277e-010
4.848590e-010
7.447533e-010
1.023479e-009
1.337393e-009
1.694056e-009
2.050635e-009
2.261758e-009
2.018417e-009
7.801490e-010
-2.292385e-009
-8.394647e-009
-1.911596e-008
-3.644706e-008
-6.274154e-008
-1.006118e-007
-1.527463e-007
-2.216529e-007
-3.093550e-007
-4.170907e-007
-5.450726e-007
-6.923627e-007
-8.568890e-007
-1.035603e-006
-1.224740e-006
-1.420139e-006
-1.617558e-006
-1.812946e-006
-2.002652e-006
-2.183549e-006
-2.353086e-006
-2.509279e-006
-2.650654e-006
-2.776157e-006
-2.885054e-006
-2.976826e-006
-3.051075e-006
-3.107448e-006
-3.145589e-006
-3.165103e-006
-3.165546e-006
-3.146421e-006
-3.107189e-006
-3.047295e-006
-2.966219e-006
-2.863564e-006
-2.739181e-006
-2.593332e-006
-2.426894e-006
-2.241556e-006
-2.039998e-006
-1.825991e-006
-1.604375e-006
-1.380875e-006
-1.161746e-006
-9.532693e-007
-7.611677e-007
-5.900462e-007
-4.429561e-007
-3.211755e-007
-2.242393e-007
-1.501979e-007
-9.603774e-008
-5.817081e-008
-3.291122e-008
-1.686895e-008
-7.215049e-009
-1.791515e-009
9.282673e-010
1.979748e-009
2.068505e-009
1.684938e-009
1.156613e-009
6.712983e-010
3.078554e-010
7.994839e-011
-2.658608e-011
-3.636448e-011
1.885369e-011
1.024923e-010
1.796117e-010
2.244086e-010
2.241881e-010
1.791402e-010
9.955178e-011
2.162895e-012
-9.361960e-011
-1.694136e-010
-2.110475e-010
-5.408127e-010
-3.941241e-010
-1.697338e-010
4.603820e-011
1.803106e-010
1.980942e-010
1.125763e-010
-2.120021e-011
-1.268235e-010
-1.343284e-010
-4.686415e-012
2.610429e-010
6.325412e-010
1.071148e-009
1.541584e-009
2.000412e-009
2.359496e-009
2.424481e-009
1.801931e-009
-2.275561e-010
-4.856006e-009
-1.388686e-008
-2.983944e-008
-5.599586e-008
-9.636154e-008
-1.555016e-007
-2.382200e-007
-3.490743e-007
-4.917653e-007
-6.684924e-007
-8.794029e-007
-1.122270e-006
-1.392498e-006
-1.683468e-006
-1.987168e-006
-2.294985e-006
-2.598498e-006
-2.890157e-006
-3.163767e-006
-3.414729e-006
-3.640076e-006
-3.838332e-006
-4.009263e-006
-4.153576e-006
-4.272621e-006
-4.368121e-006
-4.441953e-006
-4.495988e-006
-4.531960e-006
-4.551377e-006
-4.555437e-006
-4.544937e-006
-4.520176e-006
-4.480848e-006
-4.425945e-006
-4.353693e-006
-4.261562e-006
-4.146386e-006
-4.004637e-006
-3.832883e-006
-3.628407e-006
-3.389944e-006
-3.118419e-006
-2.817532e-006
-2.494012e-006
-2.157389e-006
-1.819235e-006
-1.491935e-006
-1.187209e-006
-9.146769e-007
-6.807998e-007
-4.883997e-007
-3.368164e-007
-2.225772e-007
-1.403478e-007
-8.392215e-008
-4.708045e-008
-2.423100e-008
-1.080673e-008
-3.407728e-009
2.924920e-010
1.800134e-009
2.084984e-009
1.783124e-009
1.294794e-009
8.320025e-010
4.724462e-010
2.247074e-010
7.726236e-011
1.634148e-011
2.381486e-011
7.353052e-011
1.339299e-010
1.748475e-010
1.746991e-010
1.257704e-010
3.640770e-011
-7.096206e-011
-1.664975e-010
-2.224593e-010
-7.423483e-010
-5.387023e-010
-2.213518e-010
9.561309e-011
3.109035e-010
3.678723e-010
2.721461e-010
8.930445e-011
-7.829233e-011
-1.282590e-010
7.576163e-012
3.479443e-010
8.674224e-010
1.504967e-009
2.156817e-009
2.648171e-009
2.679046e-009
1.721166e-009
-1.161567e-009
-7.563092e-009
-2.000880e-008
-4.219512e-008
-7.914407e-008
-1.372119e-007
-2.238673e-007
-3.471480e-007
-5.147455e-007