# vtk DataFile Version 3.0
vtk output
ASCII
DATASET STRUCTURED_POINTS
DIMENSIONS 100 100 1
SPACING 1 1 1
ORIGIN 0 0 0
POINT_DATA 10000
SCALARS SFBox_profile double
LOOKUP_TABLE default 
0.000000e+000
0.000000e+000
0.000000e+000
0.000000e+000
0.000000e+000
0.000000e+000
0.000000e+000
0.000000e+000
0.000000e+000
0.000000e+000
0.000000e+000
0.000000e+000
0.000000e+000
0.000000e+000
0.000000e+000
0.000000e+000
0.000000e+000
0.000000e+000
0.000000e+000
0.000000e+000
0.000000e+000
0.000000e+000
0.000000e+000
0.000000e+000
0.000000e+000
0.000000e+000
0.000000e+000
0.000000e+000
0.000000e+000
0.000000e+000
0.000000e+000
0.000000e+000
0.000000e+000
0.000000e+000
0.000000e+000
0.000000e+000
0.000000e+000
0.000000e+000
0.000000e+000
0.000000e+000
0.000000e+000
0.000000e+000
0.000000e+000
0.000000e+000
0.000000e+000
0.000000e+000
0.000000e+000
0.000000e+000
0.000000e+000
0.000000e+000
0.000000e+000
0.000000e+000
0.000000e+000
0.000000e+000
0.000000e+000
0.000000e+000
0.000000e+000
0.000000e+000
0.000000e+000
0.000000e+000
0.000000e+000
0.000000e+000
0.000000e+000
0.000000e+000
0.000000e+000
0.000000e+000
0.000000e+000
0.000000e+000
0.000000e+000
0.000000e+000
0.000000e+000
0.000000e+000
0.000000e+000
0.000000e+000
0.000000e+000
0.000000e+000
0.000000e+000
0.000000e+000
0.000000e+000
0.000000e+000
0.000000e+000
0.000000e+000
0.000000e+000
0.000000e+000
0.000000e+000
0.000000e+000
0.000000e+000
0.000000e+000
0.000000e+000
0.000000e+000
0.000000e+000
0.000000e+000
0.000000e+000
0.000000e+000
0.000000e+000
0.000000e+000
0.000000e+000
0.000000e+000
0.000000e+000
0.000000e+000
-3.604955e-009
-1.519337e-009
1.236887e-009
2.976851e-009
2.851434e-009
1.278734e-009
-5.416111e-010
-1.578449e-009
-1.624263e-009
-1.194769e-009
-8.650390e-010
-6.940380e-010
-2.628840e-010
7.476959e-010
2.041176e-009
2.802689e-009
2.367617e-009
8.407575e-010
-9.391748e-010
-2.076624e-009
-2.304265e-009
-2.045149e-009
-1.849392e-009
-1.814387e-009
-1.566487e-009
-7.616774e-010
4.735696e-010
1.630541e-009
2.304123e-009
2.530498e-009
2.638763e-009
2.833411e-009
2.989307e-009
2.851100e-009
2.360676e-009
1.729151e-009
1.203119e-009
8.233691e-010
4.438102e-010
-4.922608e-011
-5.932527e-010
-1.032389e-009
-1.299527e-009
-1.475898e-009
-1.676159e-009
-1.912646e-009
-2.096154e-009
-2.155281e-009
-2.122742e-009
-2.090667e-009
-2.097198e-009
-2.082672e-009
-1.965274e-009
-1.742577e-009
-1.494566e-009
-1.281936e-009
-1.063665e-009
-7.418550e-010
-2.881780e-010
2.040482e-010
6.185805e-010
9.525821e-010
1.312669e-009
1.756276e-009
2.170240e-009
2.357638e-009
2.250754e-009
1.988425e-009
1.740328e-009
1.480748e-009
1.008274e-009
2.224080e-010
-6.688483e-010
-1.291183e-009
-1.465077e-009
-1.365775e-009
-1.274324e-009
-1.202888e-009
-8.577272e-010
-2.546078e-011
1.046270e-009
1.742364e-009
1.606749e-009
7.685364e-010
-1.783656e-010
-7.127624e-010
-7.832995e-010
-6.881996e-010
-6.316707e-010
-4.807033e-010
8.736154e-012
7.673236e-010
1.297331e-009
1.060005e-009
2.536635e-011
-1.162312e-009
-1.622117e-009
-9.436444e-010
4.356462e-010
1.523769e-009
-1.085169e-010
8.051657e-011
2.640958e-010
2.278720e-010
-7.701102e-011
-4.635161e-010
-6.213121e-010
-3.501283e-010
2.556986e-010
8.311752e-010
9.847252e-010
5.881189e-010
-1.233375e-010
-7.332944e-010
-9.596507e-010
-8.299232e-010
-5.722401e-010
-3.491098e-010
-1.105713e-010
2.887790e-010
8.494528e-010
1.340921e-009
1.481197e-009
1.198690e-009
6.943853e-010
2.362814e-010
-9.034300e-011
-4.112094e-010
-8.580156e-010
-1.376507e-009
-1.764365e-009
-1.882624e-009
-1.790760e-009
-1.658942e-009
-1.574452e-009
-1.468870e-009
-1.233683e-009
-8.699656e-010
-4.949860e-010
-2.125546e-010
-1.098060e-011
1.969317e-010
4.542916e-010
7.086168e-010
8.805478e-010
9.589938e-010
1.007486e-009
1.081816e-009
1.163827e-009
1.189185e-009
1.129969e-009
1.028979e-009
9.448353e-010
8.770289e-010
7.651237e-010
5.653774e-010
3.102668e-010
7.347087e-011
-1.200702e-010
-3.247064e-010
-5.988185e-010
-9.128313e-010
-1.161515e-009
-1.276549e-009
-1.301776e-009
-1.328186e-009
-1.361128e-009
-1.290814e-009
-1.019457e-009
-5.974174e-010
-1.928545e-010
8.233854e-011
2.813013e-010
5.243185e-010
8.067659e-010
9.542404e-010
7.991565e-010
3.828837e-010
-5.619519e-011
-3.043262e-010
-3.558495e-010
-3.578923e-010
-3.963448e-010
-3.841058e-010
-1.843416e-010
1.795938e-010
4.816367e-010
4.854323e-010
1.770417e-010
-2.045757e-010
-3.732665e-010
-2.376376e-010
4.294582e-011
2.203524e-010
1.723395e-010
-1.816821e-011
-1.638221e-010
-1.426904e-010
9.911161e-012
1.484840e-010
3.404850e-009
1.541564e-009
-9.664409e-010
-2.665790e-009
-2.797381e-009
-1.630034e-009
-5.137537e-011
1.155674e-009
1.746146e-009
1.888087e-009
1.734889e-009
1.185307e-009
7.207592e-011
-1.452191e-009
-2.786754e-009
-3.217732e-009
-2.448470e-009
-8.391863e-010
8.676269e-010
2.078533e-009
2.662870e-009
2.824978e-009
2.749357e-009
2.406845e-009
1.674801e-009
5.730382e-010
-6.698322e-010
-1.775340e-009
-2.603025e-009
-3.173233e-009
-3.543175e-009
-3.706354e-009
-3.618413e-009
-3.283775e-009
-2.780547e-009
-2.200737e-009
-1.590283e-009
-9.572704e-010
-3.194718e-010
2.803705e-010
8.066587e-010
1.258823e-009
1.655386e-009
1.999158e-009
2.272494e-009
2.466086e-009
2.597564e-009
2.692307e-009
2.752961e-009
2.759897e-009
2.701482e-009
2.591681e-009
2.450284e-009
2.273165e-009
2.034334e-009
1.718033e-009
1.337548e-009
9.155811e-010
4.547349e-010
-5.869264e-011
-6.205612e-010
-1.190983e-009
-1.718085e-009
-2.170546e-009
-2.533140e-009
-2.773378e-009
-2.832995e-009
-2.666630e-009
-2.281120e-009
-1.722202e-009
-1.028586e-009
-2.255203e-010
6.221996e-010
1.372580e-009
1.859206e-009
1.995654e-009
1.810790e-009
1.370288e-009
6.935439e-010
-2.001960e-010
-1.149158e-009
-1.805832e-009
-1.822677e-009
-1.138916e-009
-8.495409e-011
8.280198e-010
1.252026e-009
1.167904e-009
7.608427e-010
1.988493e-010
-4.264045e-010
-9.732121e-010
-1.168221e-009
-7.649491e-010
1.594588e-010
1.096649e-009
1.394565e-009
7.667396e-010
-4.127309e-010
-1.329469e-009
3.565785e-009
1.330133e-009
-1.511014e-009
-3.071153e-009
-2.533126e-009
-5.958949e-010
1.218497e-009
1.780919e-009
1.113300e-009
1.392164e-010
-2.593487e-010
-1.609130e-012
2.707169e-010
-3.858671e-011
-8.128515e-010
-1.318237e-009
-9.526318e-010
1.179945e-010
1.082521e-009
1.239550e-009
6.219178e-010
-1.154434e-010
-3.812694e-010
-1.796688e-010
2.126050e-011
-1.340626e-010
-5.189250e-010
-7.188370e-010
-5.077812e-010
-6.118372e-011
2.828159e-010
3.895513e-010
4.097276e-010
5.407991e-010
7.875114e-010
9.851054e-010
1.009535e-009
9.049512e-010
8.028640e-010
7.651533e-010
7.408422e-010
6.582690e-010
5.179133e-010
3.818752e-010
2.967806e-010
2.519735e-010
2.095217e-010
1.543979e-010
1.063790e-010
9.253175e-011
1.187573e-010
1.672493e-010
2.160325e-010
2.606115e-010
3.183241e-010
4.080562e-010
5.216388e-010
6.208115e-010
6.733742e-010
6.912676e-010
7.161033e-010
7.566558e-010
7.566788e-010
6.515675e-010
4.580469e-010
2.757828e-010
1.751551e-010
1.037857e-010
-4.996858e-011
-2.904886e-010
-4.589468e-010
-3.946799e-010
-1.416012e-010
7.006262e-011
8.413590e-011
1.713554e-011
1.217008e-010
4.390681e-010
6.628119e-010
4.335098e-010
-2.267129e-010
-8.456649e-010
-9.278907e-010
-4.417072e-010
1.635951e-010
4.319899e-010
3.436149e-010
2.448765e-010
3.682061e-010
5.100883e-010
2.584328e-010
-4.644596e-010
-1.158319e-009
-1.130747e-009
-1.839897e-010
1.075269e-009
1.659146e-009
1.025782e-009
-4.149257e-010
-1.582755e-009
4.388056e-010
-2.195446e-010
-8.690791e-010
-7.866439e-010
1.776917e-010
1.395388e-009
1.875756e-009
1.035998e-009
-7.622020e-010
-2.380316e-009
-2.710758e-009
-1.508015e-009
4.446624e-010
1.979884e-009
2.438238e-009
2.027719e-009
1.387518e-009
8.612343e-010
2.349573e-010
-8.335937e-010
-2.221596e-009
-3.277777e-009
-3.384563e-009
-2.539454e-009
-1.326938e-009
-3.273694e-010
3.853567e-010
1.143393e-009
2.162721e-009
3.223582e-009
3.890300e-009
3.969953e-009
3.673078e-009
3.333197e-009
3.051879e-009
2.668886e-009
2.034272e-009
1.223429e-009
4.585276e-010
-1.278945e-010
-5.944999e-010
-1.068015e-009
-1.574692e-009
-2.022712e-009
-2.324663e-009
-2.495160e-009
-2.619215e-009
-2.749681e-009
-2.857471e-009
-2.878286e-009
-2.790508e-009
-2.637160e-009
-2.473544e-009
-2.300759e-009
-2.059480e-009
-1.695668e-009
-1.228277e-009
-7.360074e-010
-2.673417e-010
2.202884e-010
8.021624e-010
1.462028e-009
2.059534e-009
2.455552e-009
2.656513e-009
2.783990e-009
2.881292e-009
2.799541e-009
2.342983e-009
1.528890e-009
6.333681e-010
-7.304605e-011
-5.973377e-010
-1.149627e-009
-1.781594e-009
-2.186389e-009
-1.959677e-009
-1.066558e-009
3.201196e-011
7.767771e-010
1.003682e-009
9.822954e-010
9.807961e-010
8.996548e-010
4.298374e-010
-4.471796e-010
-1.235506e-009
-1.306598e-009
-5.272434e-010
5.335875e-010
1.068774e-009
7.326472e-010
-8.799908e-011
-6.607365e-010
-5.584943e-010
1.981446e-011
4.976046e-010
4.582202e-010
-1.513391e-011
-4.580023e-010
-2.825879e-009
-1.378782e-009
5.917867e-010
2.012775e-009
2.339520e-009
1.716422e-009
6.244161e-010
-5.412150e-010
-1.565889e-009
-2.224316e-009
-2.178998e-009
-1.210036e-009
4.315783e-010
1.994311e-009
2.683819e-009
2.241886e-009
1.096213e-009
-6.376797e-011
-8.505719e-010
-1.330961e-009
-1.694098e-009
-1.890941e-009
-1.678604e-009
-9.796504e-010
-7.885313e-011
6.099054e-010
9.373323e-010
1.105059e-009
1.354002e-009
1.643643e-009
1.704716e-009
1.380223e-009
8.281565e-010
3.504314e-010
7.322181e-011
-1.388097e-010
-4.622426e-010
-8.819100e-010
-1.218605e-009
-1.351419e-009
-1.349037e-009
-1.368489e-009
-1.469707e-009
-1.570318e-009
-1.570728e-009
-1.480379e-009
-1.400661e-009
-1.403678e-009
-1.457495e-009
-1.476516e-009
-1.427394e-009
-1.366225e-009
-1.368128e-009
-1.432840e-009
-1.477219e-009
-1.427695e-009
-1.306457e-009
-1.202447e-009
-1.151250e-009
-1.070135e-009
-8.447017e-010
-4.761659e-010
-1.010171e-010
1.628540e-010
3.601342e-010
6.338101e-010
1.009992e-009
1.305637e-009
1.306216e-009
1.015498e-009
6.579443e-010
4.076446e-010
1.772201e-010
-2.487119e-010
-8.802890e-010
-1.408575e-009
-1.480520e-009
-1.051974e-009
-4.039380e-010
1.788912e-010
6.554440e-010
1.103135e-009
1.417741e-009
1.279436e-009
4.979702e-010
-6.479866e-010
-1.509706e-009
-1.564323e-009
-8.279190e-010
1.994474e-010
9.515136e-010
1.152109e-009
8.483118e-010
2.391147e-010
-4.415465e-010
-9.262190e-010
-9.537882e-010
-4.407621e-010
3.634655e-010
9.652408e-010
-3.329095e-009
-1.000023e-009
1.787817e-009
2.982006e-009
1.922667e-009
-2.951439e-010
-1.864462e-009
-1.754601e-009
-3.923736e-010
9.317494e-010
1.267206e-009
6.928927e-010
-3.314592e-011
-3.587464e-010
-4.080501e-010
-6.288585e-010
-1.115202e-009
-1.405082e-009
-9.671557e-010
1.929530e-010
1.482797e-009
2.258482e-009
2.342705e-009
2.008788e-009
1.554158e-009
1.003216e-009
2.298505e-010
-7.478488e-010
-1.704929e-009
-2.428297e-009
-2.904250e-009
-3.242502e-009
-3.470218e-009
-3.481719e-009
-3.195639e-009
-2.692119e-009
-2.144412e-009
-1.640030e-009
-1.123297e-009
-5.199999e-010
1.296440e-010
6.986555e-010
1.114522e-009
1.429349e-009
1.737654e-009
2.053701e-009
2.299359e-009
2.407106e-009
2.404310e-009
2.377398e-009
2.364863e-009
2.311297e-009
2.137212e-009
1.838561e-009
1.493199e-009
1.164093e-009
8.188474e-010
3.718689e-010
-1.951810e-010
-7.857317e-010
-1.282937e-009
-1.673444e-009
-2.037219e-009
-2.406145e-009
-2.674111e-009
-2.689983e-009
-2.428021e-009
-2.015493e-009
-1.574259e-009
-1.082883e-009
-4.489999e-010
2.978118e-010
9.551332e-010
1.321514e-009
1.375475e-009
1.229823e-009
9.408285e-010
4.595357e-010
-1.859736e-010
-7.399757e-010
-8.722656e-010
-5.172327e-010
8.766401e-012
2.961963e-010
2.309358e-010
3.907645e-011
-4.279753e-011
-4.552374e-011
-1.460131e-010
-3.247276e-010
-2.890244e-010
1.686432e-010
7.854167e-010
9.431476e-010
2.776485e-010
-8.300356e-010
-1.463899e-009
-9.796271e-010
3.424585e-010
1.462148e-009
-1.050127e-009
3.065998e-010
1.658738e-009
1.576857e-009
-1.712565e-010
-2.326577e-009
-3.093076e-009
-1.608882e-009
1.270962e-009
3.573500e-009
3.732032e-009
1.763012e-009
-8.863226e-010
-2.613569e-009
-2.863263e-009
-2.220168e-009
-1.499387e-009
-8.895159e-010
-6.384036e-012
1.356271e-009
2.734826e-009
3.343761e-009
2.844850e-009
1.658782e-009
5.046960e-010
-2.729034e-010
-8.619087e-010
-1.555714e-009
-2.320288e-009
-2.838438e-009
-2.889821e-009
-2.568876e-009
-2.122873e-009
-1.673333e-009
-1.164213e-009
-5.380049e-010
1.330306e-010
7.185226e-010
1.174007e-009
1.557500e-009
1.918214e-009
2.224347e-009
2.420161e-009
2.517112e-009
2.587959e-009
2.676677e-009
2.750983e-009
2.759658e-009
2.712642e-009
2.674370e-009
2.680290e-009
2.689468e-009
2.637018e-009
2.516396e-009
2.381066e-009
2.262298e-009
2.113755e-009
1.860751e-009
1.491708e-009
1.068945e-009
6.431050e-010
1.901729e-010
-3.362355e-010
-9.057062e-010
-1.407320e-009
-1.755519e-009
-1.959627e-009
-2.054097e-009
-1.990018e-009
-1.662844e-009
-1.064560e-009
-3.484042e-010
3.124704e-010
8.955298e-010
1.470769e-009
1.956606e-009
2.037396e-009
1.443857e-009
3.201589e-010
-7.891828e-010
-1.388542e-009
-1.429333e-009
-1.201002e-009
-8.767131e-010
-3.175751e-010
5.859329e-010
1.479230e-009
1.663120e-009
7.825813e-010
-6.461131e-010
-1.541982e-009
-1.205433e-009
1.609020e-011
1.030626e-009
1.000043e-009
7.754721e-011
-7.977547e-010
-8.131102e-010
-2.140880e-011
7.611821e-010
1.694570e-009
1.042614e-009
6.259568e-011
-8.839157e-010
-1.558570e-009
-1.778409e-009
-1.328633e-009
-1.306927e-010
1.429259e-009
2.471222e-009
2.174304e-009
5.427404e-010
-1.394576e-009
-2.313580e-009
-1.681923e-009
-1.746456e-010
1.001695e-009
1.196660e-009
7.302245e-010
3.043525e-010
1.630907e-010
-5.331069e-011
-6.898936e-010
-1.513349e-009
-1.894593e-009
-1.493597e-009
-6.148056e-010
1.621977e-010
5.994955e-010
9.466913e-010
1.517913e-009
2.267330e-009
2.852331e-009
3.036025e-009
2.910692e-009
2.718830e-009
2.555689e-009
2.319756e-009
1.911413e-009
1.385479e-009
8.821274e-010
4.680609e-010
1.015882e-010
-2.649597e-010
-6.070949e-010
-8.687474e-010
-1.040277e-009
-1.158834e-009
-1.243908e-009
-1.270131e-009
-1.211806e-009
-1.084467e-009
-9.197412e-010
-7.155775e-010
-4.417394e-010
-9.435885e-011
2.849211e-010
6.580289e-010
1.032752e-009
1.426060e-009
1.797566e-009
2.062011e-009
2.180812e-009
2.201662e-009
2.170316e-009
2.030443e-009
1.677198e-009
1.125500e-009
5.590439e-010
1.489467e-010
-1.442322e-010
-4.946386e-010
-9.132575e-010
-1.121740e-009
-8.320393e-010
-1.385525e-010
4.840607e-010
6.380846e-010
3.905334e-010
1.158327e-010
-5.535280e-012
-1.772887e-010
-6.002939e-010
-1.016174e-009
-8.468954e-010
1.239728e-010
1.315240e-009
1.755314e-009
9.913835e-010
-4.386326e-010
-1.468709e-009
-1.427946e-009
-5.280199e-010
4.611857e-010
9.136124e-010
7.481473e-010
2.905581e-010
-1.099511e-010
-3.171033e-010
-3.800412e-010
2.784774e-009
5.659561e-010
-1.896959e-009
-2.585311e-009
-1.129626e-009
1.054820e-009
2.156497e-009
1.500136e-009
-1.277624e-010
-1.439893e-009
-1.782121e-009
-1.369697e-009
-6.563362e-010
2.397432e-010
1.387580e-009
2.509133e-009
2.896186e-009
2.023834e-009
1.766548e-010
-1.691850e-009
-2.768378e-009
-2.978561e-009
-2.766087e-009
-2.417448e-009
-1.776086e-009
-6.232407e-010
8.481693e-010
2.108042e-009
2.810379e-009
3.094320e-009
3.309084e-009
3.542838e-009
3.543245e-009
3.081664e-009
2.266144e-009
1.426947e-009
7.620372e-010
1.928290e-010
-4.390545e-010
-1.131128e-009
-1.730305e-009
-2.130768e-009
-2.382416e-009
-2.598148e-009
-2.815303e-009
-2.985534e-009
-3.068632e-009
-3.086595e-009
-3.084738e-009
-3.078318e-009
-3.054422e-009
-3.001216e-009
-2.911172e-009
-2.769017e-009
-2.563361e-009
-2.306183e-009
-2.012445e-009
-1.656508e-009
-1.183162e-009
-5.861889e-010
5.042276e-011
6.314947e-010
1.161518e-009
1.718819e-009
2.293973e-009
2.709769e-009
2.774420e-009
2.503956e-009
2.107919e-009
1.715342e-009
1.191405e-009
3.287673e-010
-7.886308e-010
-1.729165e-009
-2.092466e-009
-1.883352e-009
-1.416737e-009
-8.894404e-010
-2.020855e-010
7.161629e-010
1.533074e-009
1.674498e-009
9.336760e-010
-1.910108e-010
-8.948231e-010
-8.022462e-010
-2.373456e-010
2.159698e-010
2.982253e-010
1.629480e-010
1.228728e-011
-1.519099e-010
-3.624920e-010
-4.415370e-010
-1.301245e-010
5.027052e-010
9.382517e-010
6.632705e-010
-2.344979e-010
-1.033483e-009
1.911617e-009
-3.471036e-010
-2.577991e-009
-2.489624e-009
1.235472e-010
3.157195e-009
4.012908e-009
1.844236e-009
-1.741163e-009
-4.095562e-009
-3.727711e-009
-1.314710e-009
1.216523e-009
2.446704e-009
2.348680e-009
1.707329e-009
1.030773e-009
2.162149e-010
-8.720988e-010
-1.855310e-009
-2.089539e-009
-1.380432e-009
-2.388475e-010
6.385221e-010
1.016933e-009
1.156798e-009
1.306002e-009
1.357700e-009
1.064055e-009
4.362363e-010
-2.294868e-010
-7.032948e-010
-1.054994e-009
-1.475204e-009
-1.959443e-009
-2.284048e-009
-2.282386e-009
-2.040210e-009
-1.771076e-009
-1.563288e-009
-1.324003e-009
-9.539038e-010
-4.976853e-010
-9.122526e-011
1.919880e-010
3.924617e-010
5.786130e-010
7.567902e-010
8.773731e-010
8.977717e-010
8.175080e-010
6.666946e-010
4.800303e-010
2.737646e-010
3.080278e-011
-2.827510e-010
-6.629441e-010
-1.034218e-009
-1.303262e-009
-1.457413e-009
-1.573189e-009
-1.693979e-009
-1.728299e-009
-1.532826e-009
-1.105840e-009
-6.320768e-010
-2.836035e-010
-1.923194e-011
3.328498e-010
7.898473e-010
1.108595e-009
1.034232e-009
5.999766e-010
8.078347e-011
-3.375789e-010
-7.126628e-010
-1.100359e-009
-1.272653e-009
-8.688622e-010
1.256614e-010
1.185528e-009
1.657222e-009
1.340491e-009
5.752519e-010
-2.053501e-010
-8.395477e-010
-1.291419e-009
-1.332810e-009
-6.629282e-010
5.634208e-010
1.534371e-009
1.395815e-009
1.628388e-010
-1.119838e-009
-1.305965e-009
-2.824722e-010
8.942057e-010
1.056980e-009
1.073704e-010
-9.093119e-010
8.001692e-011
-6.102475e-010
-1.164471e-009
-7.321879e-010
7.112490e-010
2.140414e-009
2.223620e-009
5.505442e-010
-1.761926e-009
-2.837036e-009
-1.674585e-009
8.414413e-010
2.631091e-009
2.249085e-009
1.184731e-010
-1.999071e-009
-2.670871e-009
-1.883333e-009
-6.088822e-010
4.061629e-010
1.207277e-009
2.105513e-009
2.945279e-009
3.144432e-009
2.385734e-009
1.025090e-009
-2.798253e-010
-1.210739e-009
-1.927460e-009
-2.646359e-009
-3.278834e-009
-3.557478e-009
-3.390247e-009
-2.944350e-009
-2.399762e-009
-1.751895e-009
-9.129973e-010
7.651683e-011
1.036144e-009
1.832149e-009
2.495768e-009
3.128328e-009
3.743376e-009
4.252713e-009
4.588185e-009
4.784778e-009
4.931156e-009
5.069901e-009
5.167899e-009
5.170269e-009
5.062505e-009
4.880741e-009
4.671237e-009
4.438173e-009
4.127411e-009
3.672987e-009
3.071891e-009
2.400529e-009
1.733736e-009
1.055223e-009
2.888380e-010
-5.642822e-010
-1.360348e-009
-1.931931e-009
-2.255686e-009
-2.439526e-009
-2.530770e-009
-2.409202e-009
-1.935087e-009
-1.164621e-009
-3.267365e-010
4.184685e-010
1.090816e-009
1.692175e-009
1.993587e-009
1.688638e-009
7.990288e-010
-2.013666e-010
-7.814564e-010
-8.248481e-010
-6.042381e-010
-3.351631e-010
4.516394e-011
5.599132e-010
8.407662e-010
3.951170e-010
-6.878303e-010
-1.517468e-009
-1.165464e-009
2.946552e-010
1.672140e-009
1.737900e-009
4.297683e-010
-1.078071e-009
-1.514954e-009
-6.890380e-010
4.519988e-010
8.413505e-010
3.123421e-010
-3.628068e-010
-1.657740e-009
-1.066760e-010
1.457117e-009
1.613061e-009
3.509982e-010
-1.127517e-009
-1.682986e-009
-1.153976e-009
-1.159259e-010
9.209686e-010
1.796165e-009
2.284686e-009
1.833522e-009
9.026515e-011
-2.321258e-009
-3.902699e-009
-3.471035e-009
-1.278133e-009
1.188480e-009
2.556510e-009
2.636438e-009
2.165782e-009
1.738074e-009
1.243040e-009
3.353645e-010
-8.546886e-010
-1.728353e-009
-1.871923e-009
-1.473041e-009
-1.007887e-009
-6.658303e-010
-2.333533e-010
5.113410e-010
1.468897e-009
2.343257e-009
2.977788e-009
3.451064e-009
3.874012e-009
4.214784e-009
4.368829e-009
4.328045e-009
4.202479e-009
4.087602e-009
3.973402e-009
3.803529e-009
3.582736e-009
3.388236e-009
3.284665e-009
3.259283e-009
3.251568e-009
3.232287e-009
3.237776e-009
3.322893e-009
3.486562e-009
3.655532e-009
3.751233e-009
3.766269e-009
3.753022e-009
3.727853e-009
3.613187e-009
3.309414e-009
2.817436e-009
2.244936e-009
1.674831e-009
1.076222e-009
3.967959e-010
-2.866838e-010
-7.943166e-010
-1.038530e-009
-1.108551e-009
-1.088792e-009
-8.589625e-010
-2.172713e-010
7.631521e-010
1.627356e-009
1.907522e-009
1.556830e-009
9.010846e-010
1.892635e-010
-6.132774e-010
-1.480679e-009
-1.961163e-009
-1.471029e-009
-5.782932e-011
1.337840e-009
1.643006e-009
7.130356e-010
-5.043914e-010
-9.284714e-010
-3.801117e-010
3.968730e-010
6.245309e-010
2.307227e-010
-2.760489e-010
-4.540626e-010
-2.986358e-010
-6.090973e-011
9.007007e-011
1.545795e-010
1.796465e-010
-2.628100e-009
3.703579e-010
3.243459e-009
3.055971e-009
-1.520175e-010
-3.516674e-009
-4.115745e-009
-1.580554e-009
1.846718e-009
3.569067e-009
2.810544e-009
7.550090e-010
-1.005449e-009
-1.805030e-009
-1.831147e-009
-1.291689e-009
-1.497868e-010
1.345314e-009
2.339787e-009
1.991564e-009
3.894075e-010
-1.403651e-009
-2.332207e-009
-2.242821e-009
-1.717994e-009
-1.200117e-009
-5.401360e-010
5.771487e-010
2.029656e-009
3.299079e-009
4.044017e-009
4.417466e-009
4.756386e-009
5.110181e-009
5.213493e-009
4.866395e-009
4.186367e-009
3.445660e-009
2.768429e-009
2.079150e-009
1.304030e-009
5.151285e-010
-1.532524e-010
-6.621201e-010
-1.082019e-009
-1.470957e-009
-1.795492e-009
-1.988054e-009
-2.044368e-009
-2.027104e-009
-1.978696e-009
-1.863793e-009
-1.616385e-009
-1.228129e-009
-7.610982e-010
-2.674278e-010
2.751932e-010
9.177476e-010
1.638463e-009
2.328430e-009
2.896859e-009
3.353371e-009
3.739750e-009
4.000050e-009
3.994354e-009
3.672359e-009
3.164986e-009
2.624928e-009
2.010315e-009
1.147363e-009
5.185783e-011
-9.192987e-010
-1.358234e-009
-1.217442e-009
-8.067495e-010
-3.759884e-010
1.261535e-010
7.532422e-010
1.165155e-009
8.247361e-010
-3.000945e-010
-1.425058e-009
-1.586639e-009
-6.103009e-010
7.033482e-010
1.393321e-009
1.198224e-009
5.446089e-010
-1.094051e-010
-6.388385e-010
-9.855848e-010
-8.881196e-010
-1.805406e-010
7.314334e-010
1.048556e-009
4.229116e-010
-5.317177e-010
-8.228104e-010
-1.852664e-010
5.983763e-010
-2.270058e-009
2.384441e-010
2.654735e-009
2.499184e-009
-1.966508e-010
-2.902492e-009
-3.005268e-009
-3.441191e-010
2.596903e-009
3.062555e-009
6.481641e-010
-2.400964e-009
-3.412073e-009
-1.703499e-009
1.135668e-009
3.041261e-009
3.226605e-009
2.244484e-009
8.495470e-010
-7.035034e-010
-2.286601e-009
-3.362445e-009
-3.260465e-009
-1.939190e-009
-1.524357e-010
1.273659e-009
2.166577e-009
2.887650e-009
3.646161e-009
4.188045e-009
4.185990e-009
3.706812e-009
3.117844e-009
2.616768e-009
2.045289e-009
1.195487e-009
1.482759e-010
-8.005286e-010
-1.481825e-009
-1.997028e-009
-2.519022e-009
-3.057940e-009
-3.486922e-009
-3.740765e-009
-3.898725e-009
-4.065477e-009
-4.240099e-009
-4.345287e-009
-4.350650e-009
-4.309970e-009
-4.273677e-009
-4.213242e-009
-4.064383e-009
-3.819760e-009
-3.532663e-009
-3.225748e-009
-2.842486e-009
-2.322844e-009
-1.699025e-009
-1.062166e-009
-4.341791e-010
2.616241e-010
1.058729e-009
1.825656e-009
2.370539e-009
2.666478e-009
2.875506e-009
3.089097e-009
3.122208e-009
2.685584e-009
1.757031e-009
6.563391e-010
-2.975290e-010
-1.073152e-009
-1.736416e-009
-2.066674e-009
-1.628515e-009
-3.581124e-010
1.081829e-009
1.771244e-009
1.386953e-009
4.501520e-010
-2.974754e-010
-5.806717e-010
-5.539362e-010
-3.095840e-010
2.189841e-010
8.245208e-010
8.775997e-010
-1.393372e-011
-1.261288e-009
-1.616322e-009
-4.938929e-010
1.185492e-009
1.796657e-009
7.337054e-010
-8.763344e-010
-1.365734e-009
-3.439904e-010
9.051506e-010
-3.328841e-010
-2.091661e-010
-1.050798e-011
1.043661e-010
2.415621e-011
-3.228583e-011
3.529381e-010
1.145108e-009
1.487109e-009
4.125535e-010
-1.852568e-009
-3.566418e-009
-2.907555e-009
9.769533e-011
3.292265e-009
4.266346e-009
2.521625e-009
-2.941579e-010
-2.146033e-009
-2.333521e-009
-1.506018e-009
-4.478075e-010
6.822459e-010
1.961527e-009
3.072679e-009
3.449729e-009
2.953486e-009
2.072181e-009
1.357175e-009
8.583289e-010
2.571477e-010
-5.858962e-010
-1.441463e-009
-2.061709e-009
-2.511813e-009
-3.034420e-009
-3.693987e-009
-4.313955e-009
-4.757024e-009
-5.127580e-009
-5.630150e-009
-6.308552e-009
-7.018122e-009
-7.629369e-009
-8.162542e-009
-8.693944e-009
-9.201964e-009
-9.572007e-009
-9.729754e-009
-9.702873e-009
-9.540836e-009
-9.231928e-009
-8.741715e-009
-8.101581e-009
-7.400330e-009
-6.686208e-009
-5.933180e-009
-5.132805e-009
-4.370166e-009
-3.744125e-009
-3.226097e-009
-2.677205e-009
-2.037126e-009
-1.425896e-009
-9.825602e-010
-6.399227e-010
-1.705373e-010
5.161797e-010
1.225253e-009
1.702084e-009
1.923308e-009
2.020310e-009
1.938747e-009
1.387259e-009
2.709091e-010
-9.387797e-010
-1.492252e-009
-1.071101e-009
-7.484906e-011
8.451401e-010
1.365549e-009
1.476731e-009
1.097388e-009
9.720194e-011
-1.190644e-009
-1.839225e-009
-1.139417e-009
4.409895e-010
1.467615e-009
9.682486e-010
-4.658741e-010
-1.263597e-009
-5.819947e-010
7.791700e-010
1.295391e-009
4.154262e-010
-8.659288e-010
-1.150806e-009
-1.787282e-010
9.269546e-010
2.377069e-009
-3.404901e-010
-2.831404e-009
-2.552959e-009
1.375831e-010
2.651752e-009
2.924453e-009
1.167808e-009
-9.008270e-010
-1.956896e-009
-1.873378e-009
-1.055773e-009
2.476355e-010
1.677298e-009
2.315528e-009
1.252184e-009
-1.199441e-009
-3.274465e-009
-3.193337e-009
-8.489061e-010
2.139124e-009
4.027665e-009
4.377125e-009
3.885090e-009
3.210989e-009
2.365410e-009
1.175716e-009
-1.171247e-010
-1.027875e-009
-1.439466e-009
-1.749050e-009
-2.375544e-009
-3.335524e-009
-4.410167e-009
-5.573310e-009
-7.066707e-009
-9.084763e-009
-1.155928e-008
-1.431313e-008
-1.730253e-008
-2.059245e-008
-2.413711e-008
-2.770394e-008
-3.103814e-008
-3.402220e-008
-3.662667e-008
-3.876354e-008
-4.026717e-008
-4.101265e-008
-4.098665e-008
-4.022393e-008
-3.873215e-008
-3.652665e-008
-3.370771e-008
-3.044272e-008
-2.687302e-008
-2.309650e-008
-1.926020e-008
-1.560449e-008
-1.234602e-008
-9.536172e-009
-7.105652e-009
-5.051921e-009
-3.495569e-009
-2.497596e-009
-1.891547e-009
-1.399726e-009
-8.965732e-010
-4.380448e-010
-6.147331e-012
6.190429e-010
1.577583e-009
2.577948e-009
3.028616e-009
2.602842e-009
1.560549e-009
4.345991e-010
-4.597972e-010
-1.039608e-009
-1.120332e-009
-4.524636e-010
7.332820e-010
1.506885e-009
9.990710e-010
-5.420168e-010
-1.762101e-009
-1.515987e-009
-7.427327e-011
1.186526e-009
1.250928e-009
3.984538e-010
-3.438938e-010
-3.990485e-010
-7.245186e-011
5.993211e-011
-1.329190e-010
-3.247688e-010
-2.234059e-010
1.139777e-010
3.985749e-010
3.977072e-009
-6.010578e-011
-3.816012e-009
-3.535800e-009
2.076705e-010
3.408815e-009
2.939784e-009
-3.932764e-010
-3.046291e-009
-2.524720e-009
3.742264e-010
2.863111e-009
3.065478e-009
1.326260e-009
-8.704625e-010
-2.469949e-009
-3.122247e-009
-2.571600e-009
-6.157295e-010
2.191418e-009
4.381096e-009
4.656658e-009
3.127205e-009
1.174398e-009
6.250083e-011
-1.015746e-010
-2.075511e-011
-1.938712e-010
-5.721125e-010
-1.094951e-009
-2.154041e-009
-4.329462e-009
-7.848807e-009
-1.253164e-008
-1.821455e-008
-2.501121e-008
-3.308847e-008
-4.233660e-008
-5.238331e-008
-6.286337e-008
-7.354222e-008
-8.418081e-008
-9.441001e-008
-1.038142e-007
-1.120875e-007
-1.190423e-007
-1.244966e-007
-1.282301e-007
-1.300625e-007
-1.299207e-007
-1.278038e-007
-1.237327e-007
-1.177802e-007
-1.101290e-007
-1.010491e-007
-9.082574e-008
-7.976209e-008
-6.825821e-008
-5.681442e-008
-4.589377e-008
-3.579924e-008
-2.672768e-008
-1.890286e-008
-1.255265e-008
-7.727785e-009
-4.237498e-009
-1.842251e-009
-4.433671e-010
3.972413e-011
-4.477898e-011
-9.955028e-011
2.993592e-010
1.072934e-009
1.832847e-009
2.318800e-009
2.474116e-009
2.151852e-009
1.092790e-009
-5.616277e-010
-1.929804e-009
-1.989311e-009
-6.720874e-010
8.779616e-010
1.380488e-009
6.703706e-010
-3.084990e-010
-6.550618e-010
-3.489055e-010
8.893176e-011
3.715327e-010
5.483287e-010
5.426437e-010
1.005506e-010
-6.539023e-010
-1.019334e-009
-4.684789e-010
5.373359e-010
9.183306e-010
2.630165e-010
-6.036860e-010
2.925071e-009
1.628015e-010
-2.372594e-009
-2.106630e-009
4.265924e-010
2.219723e-009
1.088685e-009
-1.870449e-009
-3.360239e-009
-1.423816e-009
2.359987e-009
4.434524e-009
2.883422e-009
-7.772394e-010
-3.349333e-009
-3.058627e-009
-7.152218e-010
1.744070e-009
3.139840e-009
3.381232e-009
2.660696e-009
1.107810e-009
-7.569342e-010
-1.895181e-009