# vtk DataFile Version 3.0
vtk output
ASCII
DATASET STRUCTURED_POINTS
DIMENSIONS 100 100 1
SPACING 1 1 1
ORIGIN 0 0 0
POINT_DATA 10000
SCALARS SFBox_profile double
LOOKUP_TABLE default 
9.439921e-003
9.439920e-003
9.439920e-003
9.439920e-003
9.439920e-003
9.439920e-003
9.439920e-003
9.439920e-003
9.439920e-003
9.439920e-003
9.439920e-003
9.439920e-003
9.439920e-003
9.439920e-003
9.439919e-003
9.439919e-003
9.439920e-003
9.439920e-003
9.439920e-003
9.439920e-003
9.439920e-003
9.439920e-003
9.439920e-003
9.439920e-003
9.439920e-003
9.439920e-003
9.439920e-003
9.439920e-003
9.439920e-003
9.439920e-003
9.439920e-003
9.439920e-003
9.439920e-003
9.439921e-003
9.439921e-003
9.439921e-003
9.439921e-003
9.439922e-003
9.439922e-003
9.439922e-003
9.439922e-003
9.439922e-003
9.439923e-003
9.439923e-003
9.439923e-003
9.439923e-003
9.439923e-003
9.439923e-003
9.439923e-003
9.439923e-003
9.439923e-003
9.439923e-003
9.439923e-003
9.439923e-003
9.439923e-003
9.439923e-003
9.439923e-003
9.439923e-003
9.439923e-003
9.439923e-003
9.439922e-003
9.439922e-003
9.439922e-003
9.439922e-003
9.439922e-003
9.439921e-003
9.439921e-003
9.439921e-003
9.439921e-003
9.439920e-003
9.439920e-003
9.439920e-003
9.439920e-003
9.439920e-003
9.439920e-003
9.439920e-003
9.439920e-003
9.439920e-003
9.439920e-003
9.439920e-003
9.439920e-003
9.439920e-003
9.439920e-003
9.439920e-003
9.439920e-003
9.439920e-003
9.439920e-003
9.439920e-003
9.439920e-003
9.439920e-003
9.439920e-003
9.439920e-003
9.439920e-003
9.439920e-003
9.439920e-003
9.439920e-003
9.439920e-003
9.439920e-003
9.439920e-003
9.439920e-003
9.439921e-003
9.439920e-003
9.439920e-003
9.439920e-003
9.439920e-003
9.439920e-003
9.439920e-003
9.439920e-003
9.439920e-003
9.439920e-003
9.439920e-003
9.439920e-003
9.439920e-003
9.439920e-003
9.439919e-003
9.439919e-003
9.439920e-003
9.439920e-003
9.439920e-003
9.439920e-003
9.439920e-003
9.439920e-003
9.439920e-003
9.439920e-003
9.439920e-003
9.439920e-003
9.439920e-003
9.439920e-003
9.439920e-003
9.439920e-003
9.439920e-003
9.439920e-003
9.439920e-003
9.439921e-003
9.439921e-003
9.439921e-003
9.439921e-003
9.439922e-003
9.439922e-003
9.439922e-003
9.439922e-003
9.439922e-003
9.439923e-003
9.439923e-003
9.439923e-003
9.439923e-003
9.439923e-003
9.439923e-003
9.439923e-003
9.439923e-003
9.439923e-003
9.439923e-003
9.439923e-003
9.439923e-003
9.439923e-003
9.439923e-003
9.439923e-003
9.439923e-003
9.439923e-003
9.439923e-003
9.439922e-003
9.439922e-003
9.439922e-003
9.439922e-003
9.439922e-003
9.439921e-003
9.439921e-003
9.439921e-003
9.439921e-003
9.439920e-003
9.439920e-003
9.439920e-003
9.439920e-003
9.439920e-003
9.439920e-003
9.439920e-003
9.439920e-003
9.439920e-003
9.439920e-003
9.439920e-003
9.439920e-003
9.439920e-003
9.439920e-003
9.439920e-003
9.439920e-003
9.439920e-003
9.439920e-003
9.439920e-003
9.439920e-003
9.439920e-003
9.439920e-003
9.439920e-003
9.439920e-003
9.439920e-003
9.439920e-003
9.439920e-003
9.439920e-003
9.439920e-003
9.439920e-003
9.439920e-003
9.439920e-003
9.439920e-003
9.439920e-003
9.439920e-003
9.439920e-003
9.439920e-003
9.439920e-003
9.439920e-003
9.439920e-003
9.439920e-003
9.439920e-003
9.439920e-003
9.439920e-003
9.439920e-003
9.439920e-003
9.439920e-003
9.439920e-003
9.439920e-003
9.439920e-003
9.439920e-003
9.439920e-003
9.439920e-003
9.439920e-003
9.439920e-003
9.439920e-003
9.439920e-003
9.439920e-003
9.439920e-003
9.439921e-003
9.439921e-003
9.439921e-003
9.439921e-003
9.439921e-003
9.439921e-003
9.439921e-003
9.439922e-003
9.439922e-003
9.439922e-003
9.439922e-003
9.439922e-003
9.439923e-003
9.439923e-003
9.439923e-003
9.439923e-003
9.439923e-003
9.439924e-003
9.439924e-003
9.439924e-003
9.439924e-003
9.439924e-003
9.439924e-003
9.439924e-003
9.439924e-003
9.439924e-003
9.439924e-003
9.439924e-003
9.439924e-003
9.439924e-003
9.439923e-003
9.439923e-003
9.439923e-003
9.439923e-003
9.439922e-003
9.439922e-003
9.439922e-003
9.439922e-003
9.439921e-003
9.439921e-003
9.439921e-003
9.439921e-003
9.439921e-003
9.439921e-003
9.439921e-003
9.439920e-003
9.439920e-003
9.439920e-003
9.439920e-003
9.439920e-003
9.439920e-003
9.439920e-003
9.439920e-003
9.439920e-003
9.439920e-003
9.439920e-003
9.439920e-003
9.439920e-003
9.439920e-003
9.439920e-003
9.439920e-003
9.439920e-003
9.439920e-003
9.439920e-003
9.439920e-003
9.439920e-003
9.439920e-003
9.439920e-003
9.439920e-003
9.439920e-003
9.439920e-003
9.439920e-003
9.439919e-003
9.439920e-003
9.439920e-003
9.439920e-003
9.439920e-003
9.439920e-003
9.439920e-003
9.439920e-003
9.439920e-003
9.439920e-003
9.439920e-003
9.439920e-003
9.439920e-003
9.439920e-003
9.439921e-003
9.439920e-003
9.439920e-003
9.439920e-003
9.439920e-003
9.439920e-003
9.439919e-003
9.439920e-003
9.439920e-003
9.439920e-003
9.439920e-003
9.439921e-003
9.439921e-003
9.439921e-003
9.439921e-003
9.439922e-003
9.439922e-003
9.439922e-003
9.439922e-003
9.439923e-003
9.439923e-003
9.439923e-003
9.439923e-003
9.439924e-003
9.439924e-003
9.439924e-003
9.439925e-003
9.439925e-003
9.439926e-003
9.439926e-003
9.439926e-003
9.439926e-003
9.439927e-003
9.439927e-003
9.439927e-003
9.439927e-003
9.439927e-003
9.439927e-003
9.439927e-003
9.439927e-003
9.439927e-003
9.439927e-003
9.439927e-003
9.439926e-003
9.439926e-003
9.439926e-003
9.439925e-003
9.439925e-003
9.439924e-003
9.439924e-003
9.439923e-003
9.439923e-003
9.439923e-003
9.439922e-003
9.439922e-003
9.439922e-003
9.439922e-003
9.439921e-003
9.439921e-003
9.439921e-003
9.439921e-003
9.439921e-003
9.439920e-003
9.439920e-003
9.439920e-003
9.439920e-003
9.439920e-003
9.439920e-003
9.439920e-003
9.439920e-003
9.439920e-003
9.439920e-003
9.439920e-003
9.439920e-003
9.439920e-003
9.439920e-003
9.439920e-003
9.439920e-003
9.439920e-003
9.439920e-003
9.439920e-003
9.439920e-003
9.439920e-003
9.439920e-003
9.439920e-003
9.439920e-003
9.439919e-003
9.439920e-003
9.439920e-003
9.439920e-003
9.439920e-003
9.439920e-003
9.439920e-003
9.439920e-003
9.439920e-003
9.439920e-003
9.439920e-003
9.439920e-003
9.439920e-003
9.439920e-003
9.439920e-003
9.439920e-003
9.439920e-003
9.439920e-003
9.439920e-003
9.439920e-003
9.439920e-003
9.439920e-003
9.439920e-003
9.439920e-003
9.439921e-003
9.439921e-003
9.439921e-003
9.439922e-003
9.439922e-003
9.439922e-003
9.439923e-003
9.439923e-003
9.439924e-003
9.439925e-003
9.439925e-003
9.439926e-003
9.439927e-003
9.439928e-003
9.439928e-003
9.439929e-003
9.439930e-003
9.439931e-003
9.439931e-003
9.439932e-003
9.439932e-003
9.439933e-003
9.439933e-003
9.439934e-003
9.439934e-003
9.439934e-003
9.439934e-003
9.439934e-003
9.439934e-003
9.439934e-003
9.439934e-003
9.439933e-003
9.439933e-003
9.439932e-003
9.439932e-003
9.439931e-003
9.439930e-003
9.439930e-003
9.439929e-003
9.439928e-003
9.439927e-003
9.439926e-003
9.439925e-003
9.439925e-003
9.439924e-003
9.439923e-003
9.439923e-003
9.439922e-003
9.439922e-003
9.439921e-003
9.439921e-003
9.439921e-003
9.439921e-003
9.439920e-003
9.439920e-003
9.439920e-003
9.439920e-003
9.439920e-003
9.439920e-003
9.439920e-003
9.439920e-003
9.439920e-003
9.439920e-003
9.439920e-003
9.439920e-003
9.439920e-003
9.439920e-003
9.439920e-003
9.439920e-003
9.439920e-003
9.439920e-003
9.439920e-003
9.439920e-003
9.439920e-003
9.439920e-003
9.439920e-003
9.439920e-003
9.439920e-003
9.439920e-003
9.439920e-003
9.439920e-003
9.439920e-003
9.439920e-003
9.439920e-003
9.439920e-003
9.439920e-003
9.439920e-003
9.439920e-003
9.439920e-003
9.439920e-003
9.439920e-003
9.439920e-003
9.439920e-003
9.439920e-003
9.439920e-003
9.439921e-003
9.439921e-003
9.439921e-003
9.439921e-003
9.439921e-003
9.439921e-003
9.439922e-003
9.439922e-003
9.439923e-003
9.439923e-003
9.439924e-003
9.439925e-003
9.439926e-003
9.439927e-003
9.439929e-003
9.439930e-003
9.439931e-003
9.439933e-003
9.439934e-003
9.439935e-003
9.439936e-003
9.439937e-003
9.439938e-003
9.439939e-003
9.439940e-003
9.439941e-003
9.439941e-003
9.439942e-003
9.439942e-003
9.439942e-003
9.439942e-003
9.439942e-003
9.439942e-003
9.439942e-003
9.439942e-003
9.439942e-003
9.439941e-003
9.439941e-003
9.439940e-003
9.439939e-003
9.439938e-003
9.439937e-003
9.439936e-003
9.439935e-003
9.439934e-003
9.439933e-003
9.439931e-003
9.439930e-003
9.439929e-003
9.439927e-003
9.439926e-003
9.439925e-003
9.439924e-003
9.439923e-003
9.439922e-003
9.439922e-003
9.439921e-003
9.439921e-003
9.439921e-003
9.439921e-003
9.439921e-003
9.439921e-003
9.439920e-003
9.439920e-003
9.439920e-003
9.439920e-003
9.439920e-003
9.439920e-003
9.439920e-003
9.439920e-003
9.439920e-003
9.439920e-003
9.439920e-003
9.439920e-003
9.439920e-003
9.439920e-003
9.439920e-003
9.439920e-003
9.439920e-003
9.439920e-003
9.439920e-003
9.439920e-003
9.439920e-003
9.439920e-003
9.439920e-003
9.439920e-003
9.439920e-003
9.439920e-003
9.439920e-003
9.439920e-003
9.439921e-003
9.439921e-003
9.439920e-003
9.439920e-003
9.439920e-003
9.439920e-003
9.439920e-003
9.439920e-003
9.439920e-003
9.439921e-003
9.439921e-003
9.439921e-003
9.439922e-003
9.439922e-003
9.439922e-003
9.439923e-003
9.439923e-003
9.439924e-003
9.439926e-003
9.439927e-003
9.439928e-003
9.439930e-003
9.439932e-003
9.439933e-003
9.439935e-003
9.439937e-003
9.439939e-003
9.439940e-003
9.439942e-003
9.439943e-003
9.439944e-003
9.439945e-003
9.439946e-003
9.439946e-003
9.439947e-003
9.439947e-003
9.439947e-003
9.439947e-003
9.439947e-003
9.439947e-003
9.439947e-003
9.439947e-003
9.439946e-003
9.439946e-003
9.439946e-003
9.439946e-003
9.439946e-003
9.439945e-003
9.439945e-003
9.439945e-003
9.439944e-003
9.439943e-003
9.439943e-003
9.439942e-003
9.439941e-003
9.439939e-003
9.439938e-003
9.439936e-003
9.439935e-003
9.439933e-003
9.439931e-003
9.439929e-003
9.439928e-003
9.439926e-003
9.439925e-003
9.439924e-003
9.439923e-003
9.439922e-003
9.439921e-003
9.439921e-003
9.439921e-003
9.439921e-003
9.439921e-003
9.439920e-003
9.439920e-003
9.439920e-003
9.439920e-003
9.439920e-003
9.439920e-003
9.439920e-003
9.439920e-003
9.439920e-003
9.439920e-003
9.439920e-003
9.439920e-003
9.439920e-003
9.439920e-003
9.439920e-003
9.439920e-003
9.439920e-003
9.439920e-003
9.439921e-003
9.439920e-003
9.439920e-003
9.439920e-003
9.439920e-003
9.439920e-003
9.439920e-003
9.439920e-003
9.439920e-003
9.439920e-003
9.439920e-003
9.439920e-003
9.439920e-003
9.439920e-003
9.439920e-003
9.439920e-003
9.439920e-003
9.439921e-003
9.439921e-003
9.439921e-003
9.439921e-003
9.439922e-003
9.439923e-003
9.439924e-003
9.439925e-003
9.439927e-003
9.439929e-003
9.439931e-003
9.439933e-003
9.439935e-003
9.439937e-003
9.439940e-003
9.439941e-003
9.439943e-003
9.439945e-003
9.439946e-003
9.439946e-003
9.439947e-003
9.439947e-003
9.439946e-003
9.439945e-003
9.439944e-003
9.439943e-003
9.439941e-003
9.439939e-003
9.439938e-003
9.439936e-003
9.439934e-003
9.439933e-003
9.439931e-003
9.439930e-003
9.439930e-003
9.439930e-003
9.439930e-003
9.439930e-003
9.439931e-003
9.439932e-003
9.439934e-003
9.439936e-003
9.439937e-003
9.439939e-003
9.439940e-003
9.439942e-003
9.439942e-003
9.439943e-003
9.439943e-003
9.439942e-003
9.439941e-003
9.439939e-003
9.439937e-003
9.439935e-003
9.439933e-003
9.439931e-003
9.439929e-003
9.439927e-003
9.439926e-003
9.439924e-003
9.439923e-003
9.439922e-003
9.439921e-003
9.439921e-003
9.439921e-003
9.439921e-003
9.439920e-003
9.439920e-003
9.439920e-003
9.439920e-003
9.439920e-003
9.439920e-003
9.439920e-003
9.439920e-003
9.439920e-003
9.439920e-003
9.439920e-003
9.439920e-003
9.439920e-003
9.439920e-003
9.439920e-003
9.439920e-003
9.439920e-003
9.439920e-003
9.439920e-003
9.439920e-003
9.439920e-003
9.439920e-003
9.439920e-003
9.439920e-003
9.439920e-003
9.439920e-003
9.439920e-003
9.439920e-003
9.439920e-003
9.439920e-003
9.439920e-003
9.439921e-003
9.439921e-003
9.439921e-003
9.439921e-003
9.439921e-003
9.439922e-003
9.439922e-003
9.439924e-003
9.439925e-003
9.439928e-003
9.439930e-003
9.439932e-003
9.439935e-003
9.439938e-003
9.439941e-003
9.439943e-003
9.439945e-003
9.439946e-003
9.439947e-003
9.439947e-003
9.439945e-003
9.439943e-003
9.439939e-003
9.439935e-003
9.439929e-003
9.439923e-003
9.439916e-003
9.439908e-003
9.439899e-003
9.439891e-003
9.439882e-003
9.439874e-003
9.439867e-003
9.439860e-003
9.439854e-003
9.439849e-003
9.439846e-003
9.439844e-003
9.439844e-003
9.439846e-003
9.439849e-003
9.439854e-003
9.439860e-003
9.439868e-003
9.439877e-003
9.439886e-003
9.439895e-003
9.439905e-003
9.439914e-003
9.439922e-003
9.439929e-003
9.439934e-003
9.439938e-003
9.439941e-003
9.439942e-003
9.439942e-003
9.439941e-003
9.439940e-003
9.439937e-003
9.439935e-003
9.439932e-003
9.439930e-003
9.439928e-003
9.439926e-003
9.439924e-003
9.439922e-003
9.439922e-003
9.439921e-003
9.439921e-003
9.439921e-003
9.439920e-003
9.439920e-003
9.439920e-003
9.439920e-003
9.439920e-003
9.439920e-003
9.439920e-003
9.439920e-003
9.439920e-003
9.439920e-003
9.439920e-003
9.439920e-003
9.439920e-003
9.439920e-003
9.439920e-003
9.439920e-003
9.439920e-003
9.439920e-003
9.439920e-003
9.439920e-003
9.439920e-003
9.439921e-003
9.439921e-003
9.439920e-003
9.439920e-003
9.439919e-003
9.439920e-003
9.439920e-003
9.439920e-003
9.439921e-003
9.439921e-003
9.439921e-003
9.439921e-003
9.439922e-003
9.439923e-003
9.439924e-003
9.439926e-003
9.439928e-003
9.439930e-003
9.439933e-003
9.439936e-003
9.439940e-003
9.439943e-003
9.439945e-003
9.439947e-003
9.439947e-003
9.439946e-003
9.439942e-003
9.439936e-003
9.439928e-003
9.439916e-003
9.439902e-003
9.439884e-003
9.439864e-003
9.439841e-003
9.439816e-003
9.439790e-003
9.439762e-003
9.439734e-003
9.439706e-003
9.439679e-003
9.439653e-003
9.439629e-003
9.439608e-003
9.439591e-003
9.439577e-003
9.439568e-003
9.439563e-003
9.439564e-003
9.439569e-003
9.439581e-003
9.439597e-003
9.439618e-003
9.439643e-003
9.439671e-003
9.439702e-003
9.439734e-003
9.439767e-003
9.439798e-003
9.439828e-003
9.439856e-003
9.439879e-003
9.439899e-003
9.439915e-003
9.439927e-003
9.439935e-003
9.439940e-003
9.439942e-003
9.439942e-003
9.439940e-003
9.439938e-003
9.439935e-003
9.439933e-003
9.439930e-003
9.439927e-003
9.439925e-003
9.439924e-003
9.439922e-003
9.439922e-003
9.439921e-003
9.439921e-003
9.439921e-003
9.439921e-003
9.439920e-003
9.439920e-003
9.439920e-003
9.439920e-003
9.439920e-003
9.439920e-003
9.439920e-003
9.439920e-003
9.439920e-003
9.439920e-003
9.439920e-003
9.439920e-003
9.439920e-003
9.439920e-003
9.439920e-003
9.439920e-003
9.439920e-003
9.439920e-003
9.439920e-003
9.439920e-003
9.439920e-003
9.439920e-003
9.439920e-003
9.439920e-003
9.439920e-003
9.439921e-003
9.439921e-003
9.439921e-003
9.439921e-003
9.439922e-003
9.439924e-003
9.439925e-003
9.439928e-003
9.439931e-003
9.439934e-003
9.439937e-003
9.439941e-003
9.439944e-003
9.439947e-003
9.439948e-003
9.439946e-003
9.439942e-003
9.439933e-003
9.439919e-003
9.439899e-003
9.439872e-003
9.439837e-003
9.439795e-003
9.439745e-003
9.439688e-003
9.439624e-003
9.439554e-003
9.439481e-003
9.439403e-003
9.439325e-003
9.439246e-003
9.439168e-003
9.439094e-003
9.439024e-003
9.438961e-003
9.438905e-003
9.438859e-003
9.438823e-003
9.438800e-003
9.438789e-003
9.438791e-003
9.438808e-003
9.438839e-003
9.438883e-003
9.438940e-003
9.439009e-003
9.439087e-003
9.439172e-003
9.439263e-003
9.439355e-003
9.439447e-003
9.439535e-003
9.439617e-003
9.439691e-003
9.439756e-003
9.439810e-003
9.439853e-003
9.439887e-003
9.439911e-003
9.439927e-003
9.439936e-003
9.439941e-003
9.439942e-003
9.439941e-003
9.439938e-003
9.439935e-003
9.439932e-003
9.439929e-003
9.439927e-003
9.439925e-003
9.439923e-003
9.439922e-003
9.439921e-003
9.439921e-003
9.439921e-003
9.439920e-003
9.439920e-003
9.439920e-003
9.439920e-003
9.439920e-003
9.439920e-003
9.439920e-003
9.439920e-003
9.439920e-003
9.439920e-003
9.439920e-003
9.439920e-003
9.439920e-003
9.439920e-003
9.439920e-003
9.439920e-003
9.439920e-003
9.439920e-003
9.439920e-003
9.439920e-003
9.439920e-003
9.439920e-003
9.439920e-003
9.439921e-003
9.439921e-003
9.439921e-003
9.439921e-003
9.439921e-003
9.439922e-003
9.439924e-003
9.439927e-003
9.439930e-003
9.439933e-003
9.439937e-003
9.439941e-003
9.439945e-003
9.439948e-003
9.439949e-003
9.439946e-003
9.439938e-003
9.439923e-003
9.439898e-003
9.439861e-003
9.439809e-003
9.439741e-003
9.439656e-003
9.439552e-003
9.439429e-003
9.439288e-003
9.439131e-003
9.438959e-003
9.438775e-003
9.438582e-003
9.438384e-003
9.438184e-003
9.437985e-003
9.437792e-003
9.437608e-003
9.437437e-003
9.437282e-003
9.437147e-003
9.437036e-003
9.436951e-003
9.436894e-003
9.436870e-003
9.436878e-003
9.436920e-003
9.436996e-003
9.437106e-003
9.437247e-003
9.437417e-003
9.437611e-003
9.437825e-003
9.438052e-003
9.438287e-003
9.438522e-003
9.438751e-003
9.438967e-003
9.439165e-003
9.439342e-003
9.439494e-003
9.439621e-003
9.439722e-003
9.439800e-003
9.439857e-003
9.439896e-003
9.439920e-003
9.439935e-003
9.439941e-003
9.439943e-003
9.439941e-003
9.439938e-003
9.439935e-003
9.439931e-003
9.439928e-003
9.439926e-003
9.439924e-003
9.439922e-003
9.439921e-003
9.439921e-003
9.439920e-003
9.439920e-003
9.439920e-003
9.439920e-003
9.439920e-003
9.439920e-003
9.439920e-003
9.439920e-003
9.439920e-003
9.439920e-003
9.439920e-003
9.439920e-003
9.439920e-003
9.439919e-003
9.439920e-003
9.439921e-003
9.439921e-003
9.439920e-003
9.439919e-003
9.439919e-003
9.439920e-003
9.439921e-003
9.439921e-003
9.439921e-003
9.439921e-003
9.439921e-003
9.439922e-003
9.439923e-003
9.439925e-003
9.439928e-003
9.439932e-003
9.439936e-003
9.439940e-003
9.439945e-003
9.439948e-003
9.439950e-003
9.439947e-003
9.439937e-003
9.439916e-003
9.439879e-003
9.439823e-003
9.439740e-003
9.439627e-003
9.439479e-003
9.439291e-003
9.439061e-003
9.438788e-003
9.438474e-003
9.438119e-003
9.437729e-003
9.437309e-003
9.436865e-003
9.436404e-003
9.435935e-003
9.435465e-003
9.435003e-003
9.434556e-003
9.434134e-003
9.433743e-003
9.433391e-003
9.433087e-003
9.432836e-003
9.432645e-003
9.432521e-003
9.432467e-003
9.432488e-003
9.432586e-003
9.432761e-003
9.433012e-003
9.433335e-003
9.433725e-003
9.434173e-003
9.434667e-003
9.435197e-003
9.435747e-003
9.436303e-003
9.436849e-003
9.437370e-003
9.437855e-003
9.438292e-003
9.438676e-003
9.439001e-003
9.439268e-003
9.439479e-003
9.439639e-003
9.439756e-003
9.439836e-003
9.439889e-003
9.439920e-003
9.439936e-003
9.439942e-003
9.439943e-003
9.439940e-003
9.439937e-003
9.439933e-003
9.439929e-003
9.439926e-003
9.439924e-003
9.439923e-003
9.439921e-003
9.439921e-003
9.439920e-003
9.439920e-003
9.439920e-003
9.439920e-003
9.439920e-003
9.439920e-003
9.439920e-003
9.439920e-003
9.439920e-003
9.439920e-003
9.439920e-003
9.439920e-003
9.439919e-003
9.439920e-003
9.439921e-003
9.439921e-003
9.439920e-003
9.439919e-003
9.439920e-003
9.439920e-003
9.439921e-003
9.439921e-003
9.439921e-003
9.439921e-003
9.439922e-003
9.439924e-003
9.439927e-003
9.439930e-003
9.439934e-003
9.439938e-003
9.439943e-003
9.439948e-003
9.439950e-003
9.439949e-003
9.439939e-003
9.439916e-003
9.439872e-003
9.439799e-003
9.439687e-003
9.439524e-003
9.439300e-003
9.439004e-003
9.438625e-003
9.438158e-003
9.437597e-003
9.436944e-003
9.436201e-003
9.435376e-003
9.434478e-003
9.433522e-003
9.432522e-003
9.431495e-003
9.430458e-003
9.429428e-003
9.428423e-003
9.427458e-003
9.426551e-003
9.425717e-003
9.424971e-003
9.424328e-003
9.423801e-003
9.423403e-003
9.423145e-003
9.423036e-003
9.423085e-003
9.423295e-003
9.423669e-003
9.424204e-003
9.424895e-003
9.425729e-003
9.426692e-003
9.427761e-003
9.428913e-003
9.430118e-003
9.431344e-003
9.432560e-003
9.433734e-003
9.434836e-003
9.435843e-003
9.436737e-003
9.437506e-003
9.438149e-003
9.438667e-003
9.439071e-003
9.439373e-003
9.439590e-003
9.439739e-003
9.439835e-003
9.439893e-003
9.439924e-003
9.439939e-003
9.439943e-003
9.439942e-003
9.439938e-003
9.439934e-003
9.439930e-003
9.439927e-003
9.439925e-003
9.439923e-003
9.439922e-003
9.439921e-003
9.439921e-003
9.439921e-003
9.439920e-003
9.439920e-003
9.439920e-003
9.439920e-003
9.439920e-003
9.439920e-003
9.439920e-003
9.439920e-003
9.439920e-003
9.439920e-003
9.439920e-003
9.439920e-003
9.439920e-003
9.439920e-003
9.439920e-003
9.439920e-003
9.439920e-003
9.439921e-003
9.439921e-003
9.439921e-003
9.439922e-003
9.439924e-003
9.439927e-003
9.439931e-003
9.439936e-003
9.439941e-003
9.439946e-003
9.439951e-003
9.439952e-003
9.439945e-003
9.439925e-003
9.439881e-003
9.439801e-003
9.439670e-003
9.439469e-003
9.439175e-003
9.438764e-003
9.438215e-003
9.437505e-003
9.436617e-003
9.435539e-003
9.434267e-003
9.432805e-003
9.431165e-003
9.429365e-003
9.427433e-003
9.425397e-003
9.423292e-003
9.421153e-003
9.419014e-003
9.416911e-003
9.414875e-003
9.412940e-003
9.411135e-003
9.409487e-003
9.408024e-003
9.406771e-003
9.405750e-003
9.404985e-003
9.404494e-003
9.404294e-003
9.404399e-003
9.404818e-003
9.405556e-003
9.406610e-003
9.407972e-003
9.409624e-003
9.411539e-003
9.413682e-003
9.416008e-003
9.418463e-003
9.420987e-003
9.423515e-003
9.425984e-003
9.428330e-003
9.430502e-003
9.432454e-003
9.434160e-003
9.435603e-003
9.436787e-003
9.437725e-003
9.438443e-003
9.438971e-003
9.439345e-003
9.439596e-003
9.439757e-003
9.439854e-003
9.439907e-003
9.439933e-003
9.439942e-003
9.439943e-003
9.439940e-003
9.439936e-003
9.439932e-003
9.439928e-003
9.439925e-003
9.439923e-003
9.439922e-003
9.439921e-003
9.439921e-003
9.439920e-003
9.439920e-003
9.439920e-003
9.439920e-003
9.439920e-003
9.439920e-003
9.439920e-003
9.439920e-003
9.439920e-003
9.439920e-003
9.439920e-003
9.439920e-003
9.439920e-003
9.439920e-003
9.439921e-003
9.439921e-003
9.439921e-003
9.439921e-003
9.439921e-003
9.439923e-003
9.439925e-003
9.439928e-003
9.439932e-003
9.439937e-003
9.439943e-003
9.439948e-003
9.439952e-003
9.439951e-003
9.439938e-003
9.439903e-003
9.439831e-003
9.439701e-003
9.439485e-003
9.439151e-003
9.438656e-003
9.437956e-003
9.437003e-003
9.435753e-003
9.434167e-003
9.432215e-003
9.429884e-003
9.427175e-003
9.424107e-003
9.420718e-003
9.417055e-003
9.413180e-003
9.409159e-003
9.405063e-003
9.400960e-003
9.396917e-003
9.392996e-003
9.389254e-003
9.385744e-003
9.382511e-003
9.379597e-003
9.377040e-003
9.374875e-003
9.373134e-003
9.371845e-003
9.371035e-003
9.370727e-003
9.370942e-003
9.371695e-003
9.372997e-003
9.374849e-003
9.377245e-003
9.380167e-003
9.383585e-003
9.387449e-003
9.391694e-003
9.396239e-003
9.400983e-003
9.405813e-003
9.410606e-003
9.415241e-003
9.419603e-003
9.423591e-003
9.427132e-003
9.430179e-003
9.432718e-003
9.434764e-003
9.436357e-003
9.437551e-003
9.438414e-003
9.439011e-003
9.439407e-003
9.439657e-003
9.439804e-003
9.439886e-003
9.439925e-003
9.439940e-003
9.439943e-003
9.439941e-003
9.439936e-003
9.439932e-003
9.439928e-003
9.439925e-003
9.439923e-003
9.439922e-003
9.439921e-003
9.439920e-003
9.439920e-003
9.439920e-003
9.439920e-003
9.439920e-003
9.439920e-003
9.439920e-003
9.439920e-003
9.439920e-003
9.439921e-003
9.439920e-003
9.439919e-003
9.439919e-003
9.439920e-003
9.439921e-003
9.439921e-003
9.439921e-003
9.439921e-003
9.439923e-003
9.439925e-003
9.439928e-003
9.439933e-003
9.439938e-003
9.439944e-003
9.439950e-003
9.439954e-003
9.439949e-003
9.439928e-003
9.439875e-003
9.439767e-003
9.439571e-003
9.439243e-003
9.438725e-003
9.437946e-003
9.436824e-003
9.435270e-003
9.433197e-003
9.430524e-003
9.427191e-003
9.423162e-003
9.418438e-003
9.413053e-003
9.407079e-003
9.400617e-003
9.393791e-003
9.386737e-003
9.379595e-003
9.372500e-003
9.365576e-003
9.358933e-003
9.352665e-003
9.346846e-003
9.341538e-003
9.336786e-003
9.332625e-003
9.329079e-003
9.326165e-003
9.323895e-003
9.322281e-003
9.321333e-003
9.321061e-003
9.321480e-003
9.322607e-003
9.324462e-003
9.327067e-003
9.330443e-003
9.334607e-003
9.339563e-003
9.345296e-003
9.351766e-003
9.358895e-003
9.366567e-003
9.374625e-003
9.382875e-003
9.391096e-003
9.399057e-003
9.406537e-003
9.413345e-003
9.419342e-003
9.424447e-003
9.428642e-003
9.431968e-003
9.434509e-003
9.436379e-003
9.437700e-003
9.438597e-003
9.439179e-003
9.439538e-003
9.439748e-003
9.439861e-003
9.439916e-003
9.439938e-003
9.439944e-003
9.439941e-003
9.439937e-003
9.439932e-003
9.439928e-003
9.439925e-003
9.439923e-003
9.439922e-003
9.439921e-003
9.439920e-003
9.439920e-003
9.439920e-003
9.439920e-003
9.439920e-003
9.439920e-003
9.439920e-003
9.439920e-003
9.439921e-003
9.439920e-003
9.439919e-003
9.439919e-003
9.439920e-003
9.439921e-003
9.439921e-003
9.439921e-003
9.439922e-003
9.439925e-003
9.439929e-003
9.439933e-003
9.439939e-003
9.439945e-003
9.439952e-003
9.439955e-003
9.439948e-003
9.439918e-003
9.439844e-003
9.439695e-003
9.439421e-003
9.438953e-003
9.438201e-003
9.437048e-003
9.435354e-003
9.432963e-003
9.429715e-003
9.425463e-003
9.420089e-003
9.413531e-003
9.405796e-003
9.396969e-003
9.387212e-003
9.376756e-003
9.365878e-003
9.354876e-003
9.344047e-003
9.333661e-003
9.323947e-003
9.315086e-003
9.307204e-003
9.300376e-003
9.294628e-003
9.289947e-003
9.286280e-003
9.283548e-003
9.281647e-003
9.280461e-003
9.279869e-003
9.279753e-003
9.280008e-003
9.280550e-003
9.281326e-003
9.282322e-003
9.283570e-003
9.285151e-003
9.287196e-003
9.289878e-003
9.293401e-003
9.297972e-003
9.303777e-003
9.310948e-003
9.319528e-003
9.329446e-003
9.340507e-003
9.352389e-003
9.364676e-003
9.376896e-003
9.388576e-003
9.399300e-003
9.408758e-003
9.416768e-003
9.423284e-003
9.428376e-003
9.432198e-003
9.434954e-003
9.436862e-003
9.438127e-003
9.438930e-003
9.439414e-003
9.439691e-003
9.439837e-003
9.439908e-003
9.439936e-003
9.439943e-003
9.439942e-003
9.439937e-003
9.439932e-003
9.439928e-003
9.439925e-003
9.439923e-003
9.439921e-003
9.439921e-003
9.439921e-003
9.439921e-003
9.439920e-003
9.439920e-003
9.439920e-003
9.439920e-003
9.439920e-003
9.439921e-003
9.439920e-003
9.439920e-003
9.439920e-003
9.439921e-003
9.439921e-003
9.439922e-003
9.439922e-003
9.439924e-003
9.439928e-003
9.439933e-003
9.439939e-003
9.439946e-003
9.439953e-003
9.439955e-003
9.439946e-003
9.439908e-003
9.439815e-003
9.439623e-003
9.439264e-003
9.438640e-003
9.437613e-003
9.436003e-003
9.433587e-003
9.430110e-003
9.425299e-003
9.418903e-003
9.410728e-003
9.400688e-003
9.388848e-003
9.375454e-003
9.360930e-003
9.345861e-003
9.330935e-003
9.316877e-003
9.304377e-003
9.294024e-003
9.286266e-003
9.281379e-003
9.279471e-003
9.280490e-003
9.284244e-003
9.290422e-003
9.298614e-003
9.308329e-003
9.319014e-003
9.330071e-003
9.340883e-003
9.350834e-003
9.359334e-003
9.365854e-003
9.369951e-003
9.371299e-003
9.369729e-003
9.365257e-003
9.358111e-003
9.348747e-003
9.337848e-003
9.326296e-003
9.315117e-003
9.305403e-003
9.298201e-003
9.294398e-003
9.294604e-003
9.299057e-003
9.307576e-003
9.319567e-003
9.334100e-003
9.350047e-003
9.366242e-003
9.381648e-003
9.395472e-003
9.407232e-003
9.416751e-003
9.424102e-003
9.429529e-003
9.433365e-003
9.435961e-003
9.437644e-003
9.438686e-003
9.439300e-003
9.439642e-003
9.439819e-003
9.439902e-003
9.439935e-003
9.439943e-003
9.439942e-003
9.439937e-003
9.439932e-003
9.439928e-003
9.439925e-003
9.439922e-003
9.439921e-003
9.439921e-003
9.439921e-003
9.439920e-003
9.439920e-003
9.439920e-003
9.439920e-003
9.439920e-003
9.439920e-003
9.439920e-003
9.439920e-003
9.439921e-003
9.439921e-003
9.439921e-003
9.439922e-003
9.439924e-003
9.439928e-003
9.439932e-003
9.439939e-003
9.439946e-003
9.439953e-003
9.439956e-003
9.439945e-003
9.439902e-003
9.439794e-003
9.439563e-003
9.439123e-003
9.438338e-003
9.437015e-003
9.434894e-003
9.431638e-003
9.426851e-003
9.420106e-003
9.411005e-003
9.399265e-003
9.384831e-003
9.367982e-003
9.349422e-003
9.330303e-003
9.312177e-003
9.296863e-003
9.286260e-003
9.282134e-003
9.285926e-003
9.298612e-003
9.320633e-003
9.351891e-003
9.391801e-003
9.439371e-003
9.493289e-003
9.551996e-003
9.613747e-003
9.676653e-003
9.738720e-003
9.797892e-003
9.852099e-003
9.899309e-003
9.937595e-003
9.965206e-003
9.980646e-003
9.982768e-003
9.970874e-003
9.944819e-003
9.905111e-003
9.852985e-003
9.790440e-003
9.720215e-003
9.645680e-003
9.570650e-003
9.499105e-003
9.434841e-003
9.381093e-003
9.340172e-003
9.313180e-003
9.299888e-003
9.298802e-003
9.307446e-003
9.322787e-003
9.341727e-003
9.361541e-003
9.380164e-003
9.396308e-003
9.409401e-003
9.419423e-003
9.426708e-003
9.431755e-003
9.435094e-003
9.437206e-003
9.438480e-003
9.439212e-003
9.439609e-003
9.439809e-003
9.439900e-003
9.439935e-003