# vtk DataFile Version 3.0
vtk output
ASCII
DATASET STRUCTURED_POINTS
DIMENSIONS 100 100 1
SPACING 1 1 1
ORIGIN 0 0 0
POINT_DATA 10000
SCALARS SFBox_profile double
LOOKUP_TABLE default 
0.000000e+000
0.000000e+000
0.000000e+000
0.000000e+000
0.000000e+000
0.000000e+000
0.000000e+000
0.000000e+000
0.000000e+000
0.000000e+000
0.000000e+000
0.000000e+000
0.000000e+000
0.000000e+000
0.000000e+000
0.000000e+000
0.000000e+000
0.000000e+000
0.000000e+000
0.000000e+000
0.000000e+000
0.000000e+000
0.000000e+000
0.000000e+000
0.000000e+000
0.000000e+000
0.000000e+000
0.000000e+000
0.000000e+000
0.000000e+000
0.000000e+000
0.000000e+000
0.000000e+000
0.000000e+000
0.000000e+000
0.000000e+000
0.000000e+000
0.000000e+000
0.000000e+000
0.000000e+000
0.000000e+000
0.000000e+000
0.000000e+000
0.000000e+000
0.000000e+000
0.000000e+000
0.000000e+000
0.000000e+000
0.000000e+000
0.000000e+000
0.000000e+000
0.000000e+000
0.000000e+000
0.000000e+000
0.000000e+000
0.000000e+000
0.000000e+000
0.000000e+000
0.000000e+000
0.000000e+000
0.000000e+000
0.000000e+000
0.000000e+000
0.000000e+000
0.000000e+000
0.000000e+000
0.000000e+000
0.000000e+000
0.000000e+000
0.000000e+000
0.000000e+000
0.000000e+000
0.000000e+000
0.000000e+000
0.000000e+000
0.000000e+000
0.000000e+000
0.000000e+000
0.000000e+000
0.000000e+000
0.000000e+000
0.000000e+000
0.000000e+000
0.000000e+000
0.000000e+000
0.000000e+000
0.000000e+000
0.000000e+000
0.000000e+000
0.000000e+000
0.000000e+000
0.000000e+000
0.000000e+000
0.000000e+000
0.000000e+000
0.000000e+000
0.000000e+000
0.000000e+000
0.000000e+000
0.000000e+000
-6.492699e-011
-3.370808e-011
1.661055e-011
5.997591e-011
6.552184e-011
2.409318e-011
-3.501995e-011
-6.320851e-011
-3.612177e-011
2.054771e-011
5.214474e-011
2.729113e-011
-2.750636e-011
-5.045650e-011
-1.174890e-011
4.484252e-011
4.778326e-011
-9.351236e-012
-5.141144e-011
-2.170908e-011
3.512200e-011
3.760313e-011
-1.052454e-011
-3.201005e-011
-3.334843e-012
1.350681e-011
-1.505325e-011
-3.547051e-011
-5.515465e-012
2.888912e-011
1.779750e-011
-7.180899e-014
3.396681e-011
8.907170e-011
9.069791e-011
4.381869e-011
2.127652e-011
4.090141e-011
4.035370e-011
-1.655065e-011
-8.415945e-011
-1.116513e-010
-1.161235e-010
-1.423360e-010
-1.900263e-010
-2.225879e-010
-2.267578e-010
-2.253437e-010
-2.364837e-010
-2.507482e-010
-2.526003e-010
-2.433204e-010
-2.338275e-010
-2.271322e-010
-2.173039e-010
-2.001076e-010
-1.771710e-010
-1.515538e-010
-1.243113e-010
-9.527940e-011
-6.440384e-011
-3.234959e-011
-1.433043e-012
2.469041e-011
4.376761e-011
5.659333e-011
6.449408e-011
6.645246e-011
6.090329e-011
4.946380e-011
3.616832e-011
2.321241e-011
1.011284e-011
-2.773672e-012
-1.277795e-011
-1.787124e-011
-1.867971e-011
-1.643882e-011
-1.126703e-011
-4.036768e-012
2.150415e-012
4.640030e-012
4.273901e-012
3.713634e-012
3.512747e-012
2.056553e-012
-8.244931e-013
-2.558057e-012
-1.115681e-012
1.862008e-012
2.629496e-012
-3.085751e-013
-4.324536e-012
-5.241693e-012
-1.457717e-012
4.367539e-012
7.427306e-012
4.828406e-012
-1.764195e-012
-7.246576e-012
-3.192131e-012
-6.746962e-012
-6.435773e-012
2.478610e-012
1.424849e-011
1.646013e-011
3.739790e-012
-1.372773e-011
-1.903599e-011
-6.743035e-012
1.043788e-011
1.486314e-011
2.936125e-012
-1.054710e-011
-8.367362e-012
8.100283e-012
1.771973e-011
5.438340e-012
-1.487024e-011
-1.681757e-011
-6.107062e-014
8.160776e-012
-3.702556e-012
-1.247997e-011
2.445038e-014
1.573242e-011
1.317622e-011
5.113789e-012
1.078008e-011
1.457593e-011
-7.542347e-012
-3.924129e-011
-4.654906e-011
-3.695375e-011
-4.714225e-011
-7.636255e-011
-8.240073e-011
-4.962213e-011
-1.342254e-011
-1.672498e-012
6.768988e-012
4.182913e-011
9.272456e-011
1.272830e-010
1.404607e-010
1.545019e-010
1.800418e-010
2.031351e-010
2.106643e-010
2.082666e-010
2.075332e-010
2.088824e-010
2.047175e-010
1.920559e-010
1.747058e-010
1.560844e-010
1.355466e-010
1.112917e-010
8.342899e-011
5.384712e-011
2.492465e-011
-1.388067e-012
-2.417906e-011
-4.321470e-011
-5.753646e-011
-6.521626e-011
-6.536138e-011
-5.956804e-011
-5.028405e-011
-3.845511e-011
-2.413016e-011
-8.832795e-012
4.369811e-012
1.326449e-011
1.766451e-011
1.813457e-011
1.496630e-011
8.919134e-012
1.852420e-012
-4.158254e-012
-7.810019e-012
-8.411603e-012
-5.707199e-012
-7.119538e-013
3.866325e-012
5.272507e-012
3.114417e-012
-3.072470e-013
-2.271905e-012
-1.976208e-012
-5.983613e-013
4.059198e-013
6.021673e-013
4.021558e-013
2.222000e-013
1.192751e-013
8.890781e-015
-9.967819e-014
-1.484727e-013
-1.467143e-013
5.077752e-011
2.670412e-011
-1.383859e-011
-4.869171e-011
-4.993529e-011
-1.260342e-011
3.238487e-011
4.473774e-011
1.537031e-011
-2.398798e-011
-3.273158e-011
-2.272483e-012
3.373854e-011
3.252714e-011
-8.846983e-012
-4.329346e-011
-2.743653e-011
1.895911e-011
3.453906e-011
1.258101e-012
-2.962660e-011
-1.513784e-011
1.669371e-011
1.732273e-011
-4.873914e-012
-6.910507e-012
1.313137e-011
1.789957e-011
-2.724958e-012
-2.038777e-011
-2.230959e-011
-2.808918e-011
-4.679164e-011
-5.893634e-011
-5.129871e-011
-3.572368e-011
-2.215689e-011
-1.012898e-012
3.559173e-011
7.737668e-011
1.126966e-010
1.447303e-010
1.797865e-010
2.127189e-010
2.350164e-010
2.483980e-010
2.604204e-010
2.721652e-010
2.787539e-010
2.789441e-010
2.769442e-010
2.754646e-010
2.723733e-010
2.648085e-010
2.529132e-010
2.382688e-010
2.209074e-010
1.994194e-010
1.731473e-010
1.431184e-010
1.109817e-010
7.788259e-011
4.478179e-011
1.346505e-011
-1.355399e-011
-3.440902e-011
-4.872113e-011
-5.685462e-011
-5.896037e-011
-5.526014e-011
-4.673578e-011
-3.488698e-011
-2.119176e-011
-7.316169e-012
4.741112e-012
1.347769e-011
1.842618e-011
1.934216e-011
1.575387e-011
8.377562e-012
2.408508e-013
-5.102838e-012
-6.482433e-012
-5.335842e-012
-3.372997e-012
-1.223467e-012
6.788761e-013
1.378390e-012
4.214685e-013
-1.041848e-012
-1.065907e-012
1.038957e-012
3.670398e-012
4.105703e-012
1.009091e-012
-3.866927e-012
-6.605573e-012
-4.409566e-012
1.529925e-012
6.579580e-012
5.103192e-011
4.018707e-011
3.804310e-012
-4.991496e-011
-7.822784e-011
-4.615725e-011
2.557830e-011
7.197981e-011
5.012432e-011
-1.369055e-011
-5.100432e-011
-2.411109e-011
3.258193e-011
4.831921e-011
-2.607392e-012
-6.226258e-011
-5.293021e-011
1.909763e-011
6.194308e-011
2.256097e-011
-3.481783e-011
-2.503740e-011
2.753195e-011
3.357375e-011
-1.404361e-011
-3.615096e-011
-6.458455e-012
1.094239e-011
-1.618078e-011
-3.089741e-011
6.785571e-012
4.756548e-011
4.190932e-011
2.552351e-011
5.164308e-011
9.678684e-011
1.026602e-010
7.209608e-011
5.591346e-011
6.636122e-011
6.545208e-011
3.332585e-011
-3.972154e-012
-2.107479e-011
-2.781198e-011
-4.393132e-011
-6.687132e-011
-8.115430e-011
-8.363833e-011
-8.378198e-011
-8.645612e-011
-8.707765e-011
-8.149307e-011
-7.159534e-011
-6.048400e-011
-4.793739e-011
-3.251551e-011
-1.471057e-011
3.905717e-012
2.258017e-011
4.062829e-011
5.613152e-011
6.721339e-011
7.388205e-011
7.693457e-011
7.567088e-011
6.867912e-011
5.664484e-011
4.221892e-011
2.697298e-011
1.080070e-011
-5.154801e-012
-1.751874e-011
-2.382368e-011
-2.454488e-011
-2.089462e-011
-1.300643e-011
-2.066765e-012
7.996917e-012
1.339899e-011
1.379988e-011
1.086177e-011
5.167033e-012
-2.820542e-012
-9.837908e-012
-1.122844e-011
-6.073403e-012
1.091188e-012
4.771700e-012
3.757580e-012
1.231980e-012
5.512443e-013
1.820796e-012
2.415224e-012
2.274037e-013
-3.756633e-012
-6.036046e-012
-3.888468e-012
1.691649e-012
6.421684e-012
2.333716e-011
2.065672e-011
6.820402e-012
-2.063525e-011
-4.440132e-011
-3.672714e-011
7.204353e-012
5.130880e-011
5.026989e-011
1.687915e-012
-4.613660e-011
-4.500373e-011
7.587957e-013
3.845817e-011
2.489539e-011
-2.156250e-011
-3.830026e-011
1.107473e-012
4.350614e-011
2.651905e-011
-2.576079e-011
-3.548583e-011
5.966289e-012
2.575021e-011
-5.482571e-012
-2.613774e-011
2.760331e-012
2.935602e-011
1.231898e-011
1.288116e-012
4.310700e-011
8.738854e-011
7.126420e-011
3.231703e-011
4.333226e-011
8.408979e-011
7.615168e-011
1.581002e-011
-2.357572e-011
-1.309131e-011
-4.967224e-012
-3.801457e-011
-7.940879e-011
-8.577093e-011
-6.823599e-011
-6.395271e-011
-7.757154e-011
-8.474052e-011
-7.561660e-011
-6.515219e-011
-6.565476e-011
-7.159977e-011
-7.344495e-011
-7.144763e-011
-7.083392e-011
-7.217860e-011
-7.201460e-011
-6.841317e-011
-6.161938e-011
-5.156747e-011
-3.817594e-011
-2.281982e-011
-6.973389e-012
9.544788e-012
2.672396e-011
4.195764e-011
5.218656e-011
5.765618e-011
6.060763e-011
6.066499e-011
5.490824e-011
4.287860e-011
2.819512e-011
1.425512e-011
1.445208e-012
-1.004521e-011
-1.770250e-011
-1.913435e-011
-1.499664e-011
-7.731011e-012
6.323443e-013
7.639081e-012
9.694796e-012
5.244243e-012
-2.029018e-012
-5.872268e-012
-3.769626e-012
9.204062e-013
3.329539e-012
2.138584e-012
-2.439285e-013
-1.250394e-012
-6.622059e-013
1.218152e-013
1.408243e-013
-3.241904e-013
-5.355186e-013
-2.368105e-013
2.720531e-013
6.133073e-013
6.287151e-012
-1.876222e-011
-2.399300e-011
5.733392e-012
3.289540e-011
2.390530e-011
-3.867184e-012
-1.219811e-011
1.922193e-012
6.813652e-012
-1.448140e-011
-3.849121e-011
-2.984771e-011
1.367239e-011
5.104228e-011
4.029599e-011
-6.715370e-012
-3.191922e-011
-8.840505e-012
1.736847e-011
6.483996e-013
-3.088258e-011
-2.348673e-011
1.153100e-011
2.371478e-011
1.340360e-011
1.952028e-011
3.873117e-011
3.728679e-011
2.589874e-011
4.015147e-011
6.192476e-011
4.570795e-011
1.088407e-011
1.959490e-011
6.820173e-011
8.980463e-011
6.938527e-011
6.979351e-011
1.252811e-010
1.874511e-010
2.079439e-010
2.107827e-010
2.423791e-010
2.960923e-010
3.306963e-010
3.361990e-010
3.395419e-010
3.565148e-010
3.728030e-010
3.726792e-010
3.608552e-010
3.493979e-010
3.393308e-010
3.237093e-010
2.999379e-010
2.713483e-010
2.408448e-010
2.088194e-010
1.756556e-010
1.424504e-010
1.100929e-010
8.003648e-011
5.488304e-011
3.607279e-011
2.221145e-011
1.183837e-011
6.513017e-012
8.470167e-012
1.609560e-011
2.460706e-011
3.092521e-011
3.512010e-011
3.705399e-011
3.452012e-011
2.573567e-011
1.190876e-011
-3.338315e-012
-1.574765e-011
-2.159555e-011
-1.922399e-011
-1.065828e-011
-7.474363e-013
6.300348e-012
9.326320e-012
9.239388e-012
6.815676e-012
2.431501e-012
-2.584261e-012
-5.780701e-012
-5.554753e-012
-2.862265e-012
-2.109763e-013
1.031781e-012
1.633035e-012
2.629325e-012
3.324188e-012
2.046759e-012
-1.267146e-012
-4.217254e-012
-1.233540e-011
-4.409697e-011
-3.810346e-011
3.017047e-011
9.151479e-011
6.755381e-011
-2.321773e-011
-8.261992e-011
-5.248680e-011
1.962992e-011
4.656010e-011
6.340292e-012
-3.995609e-011
-2.700811e-011
3.338471e-011
6.211003e-011
1.331673e-011
-5.466170e-011
-5.101938e-011
1.546714e-011
4.649974e-011
5.890960e-012
-2.807795e-011
3.148943e-012
4.670778e-011
3.886976e-011
9.512265e-012
1.499842e-011
4.190662e-011
5.122043e-011
5.521706e-011
8.153032e-011
1.152786e-010
1.377144e-010
1.720410e-010
2.364248e-010
2.990862e-010
3.308464e-010
3.583160e-010
4.155003e-010
4.810824e-010
5.135567e-010
5.193075e-010
5.370682e-010
5.731589e-010
5.973566e-010
5.958158e-010
5.891635e-010
5.956721e-010
6.065022e-010
6.059049e-010
5.952037e-010
5.856803e-010
5.800272e-010
5.715229e-010
5.556710e-010
5.342652e-010
5.099948e-010
4.826946e-010
4.507747e-010
4.132958e-010
3.706763e-010
3.248872e-010
2.784312e-010
2.322712e-010
1.858707e-010
1.400347e-010
9.817399e-011
6.365793e-011
3.727836e-011
1.832428e-011
6.660116e-012
2.420463e-012
4.587254e-012
1.070482e-011
1.723206e-011
2.016350e-011
1.702361e-011
8.975853e-012
-1.046746e-013
-6.874608e-012
-9.895232e-012
-8.503961e-012
-2.738595e-012
4.965627e-012
9.951228e-012
8.827537e-012
2.598396e-012
-4.157461e-012
-7.140683e-012
-5.521952e-012
-1.864018e-012
7.795599e-013
1.603400e-012
1.896374e-012
2.610786e-012
2.920872e-012
1.488504e-012
-1.450300e-012
-3.881567e-012
-6.189161e-011
-2.836972e-011
1.971194e-011
6.081616e-011
7.001158e-011
2.617926e-011
-5.204448e-011
-9.585349e-011
-5.209758e-011
4.342446e-011
9.406159e-011
5.001156e-011
-3.610070e-011
-7.019184e-011
-2.246836e-011
3.849161e-011
2.926520e-011
-3.494676e-011
-5.321738e-011
1.355348e-011
7.440297e-011
4.637310e-011
-1.232717e-011
-1.687085e-012
5.400180e-011
6.099007e-011
2.651302e-011
3.839245e-011
1.050662e-010
1.524737e-010
1.661681e-010
2.077652e-010
2.919155e-010
3.630162e-010
4.005992e-010
4.467489e-010
5.179054e-010
5.764790e-010
6.047053e-010
6.337132e-010
6.820786e-010
7.252744e-010
7.449137e-010
7.604271e-010
7.915547e-010
8.257744e-010
8.434762e-010
8.493391e-010
8.590189e-010
8.718789e-010
8.748896e-010
8.641418e-010
8.477406e-010
8.312663e-010
8.114602e-010
7.840171e-010
7.502391e-010
7.143638e-010
6.782115e-010
6.402706e-010
5.986295e-010
5.535949e-010
5.072629e-010
4.607827e-010
4.130310e-010
3.627161e-010
3.106222e-010
2.584401e-010
2.067318e-010
1.560489e-010
1.088956e-010
6.832602e-011
3.566185e-011
1.174556e-011
-1.254001e-012
-2.395518e-012
4.694232e-012
1.384227e-011
2.074617e-011
2.321328e-011
1.931402e-011
9.209016e-012
-2.204077e-012
-8.494306e-012
-8.051638e-012
-4.828007e-012
-2.758918e-012
-1.826782e-012
-9.310077e-014
2.493536e-012
3.765496e-012
2.243298e-012
-7.560754e-013
-2.408053e-012
-1.494492e-012
4.548706e-013
1.288266e-012
6.633660e-013
-2.540623e-013
-6.794666e-013
-1.106492e-010
1.776965e-011
1.081293e-010
6.861020e-011
-2.474196e-011
-6.474928e-011
-4.551551e-011
-1.951846e-011
6.341248e-013
3.374326e-011
6.415674e-011
4.849855e-011
-1.656591e-011
-7.276831e-011
-6.027290e-011
8.215100e-012
5.168102e-011
2.051927e-011
-2.871743e-011
-1.159203e-011
5.021008e-011
6.228342e-011
1.899192e-011
1.397865e-011
7.585148e-011
1.266568e-010
1.349575e-010
1.704329e-010
2.613813e-010
3.365636e-010
3.630003e-010
4.095575e-010
5.139094e-010
6.092595e-010
6.475819e-010
6.855910e-010
7.803642e-010
8.930971e-010
9.658284e-010
1.018792e-009
1.102965e-009
1.210569e-009
1.296768e-009
1.354930e-009
1.414456e-009
1.483345e-009
1.539016e-009
1.568994e-009
1.585562e-009
1.599372e-009
1.603559e-009
1.588957e-009
1.558504e-009
1.519915e-009
1.473760e-009
1.415385e-009
1.343905e-009
1.263836e-009
1.179197e-009
1.090054e-009
9.956625e-010
8.985201e-010
8.031650e-010
7.120062e-010
6.249655e-010
5.431047e-010
4.692969e-010
4.041615e-010
3.446105e-010
2.883654e-010
2.367776e-010
1.908631e-010
1.480345e-010
1.061949e-010
6.832518e-011
3.949131e-011
2.143387e-011
1.285952e-011
1.206214e-011
1.566635e-011
1.751742e-011
1.319434e-011
4.555548e-012
-3.252849e-012
-7.993537e-012
-1.067109e-011
-1.108654e-011
-6.949923e-012
1.774255e-012
1.016277e-011
1.197921e-011
5.896203e-012
-2.863307e-012
-7.494690e-012
-5.846352e-012
-1.342017e-012
1.623206e-012
1.875508e-012
9.920481e-013
4.119952e-013
-7.199886e-011
4.886492e-011
1.060337e-010
1.294262e-011
-1.035277e-010
-8.993557e-011
2.427378e-011
8.573187e-011
3.461761e-011
-3.642560e-011
-3.361406e-011
1.746859e-011
3.062446e-011
-1.566401e-011
-5.258559e-011
-1.609620e-011
5.741553e-011
6.956141e-011
3.168189e-012
-3.999581e-011
9.027683e-012
8.003797e-011
8.923067e-011
8.173898e-011
1.412419e-010
2.425811e-010
3.155068e-010
3.763642e-010
4.740938e-010
5.811531e-010
6.564169e-010
7.416737e-010
8.829619e-010
1.030114e-009
1.122695e-009
1.204423e-009
1.345505e-009
1.513840e-009
1.628245e-009
1.691683e-009
1.771821e-009
1.879729e-009
1.959170e-009
1.984838e-009
1.994250e-009
2.018273e-009
2.039957e-009
2.036090e-009
2.016586e-009
2.003603e-009
1.998445e-009
1.987950e-009
1.968635e-009
1.948173e-009
1.929428e-009
1.905653e-009
1.870359e-009
1.823344e-009
1.765618e-009
1.694399e-009
1.606338e-009
1.502441e-009
1.386389e-009
1.260075e-009
1.124774e-009
9.857837e-010
8.513128e-010
7.261422e-010
6.103311e-010
5.048935e-010
4.140331e-010
3.395599e-010
2.770868e-010
2.205598e-010
1.677576e-010
1.194820e-010
7.682851e-011
4.176277e-011
1.731760e-011
4.310776e-012
-3.806262e-013
-6.478634e-013
1.607393e-012
4.712984e-012
5.473417e-012
1.893344e-012
-3.493530e-012
-5.507246e-012
-1.891722e-012
4.097190e-012
6.976455e-012
4.314083e-012
-1.434299e-012
-5.632242e-012
-5.426450e-012
-1.603782e-012
2.422834e-012
3.443078e-012
1.172805e-012
-1.507173e-012
8.486350e-011
2.834521e-011
-4.275741e-011
-8.833739e-011
-7.710407e-011
3.114832e-012
9.964515e-011
1.107398e-010
7.005929e-012
-1.049806e-010
-1.022419e-010
2.056481e-012
8.104355e-011
5.258681e-011
-2.867414e-011
-4.601230e-011
2.784492e-011
8.941442e-011
5.126738e-011
-1.565003e-011
1.895381e-011
1.384629e-010
2.118232e-010
2.176662e-010
2.695327e-010
4.099935e-010
5.533688e-010
6.562870e-010
7.792310e-010
9.512913e-010
1.124621e-009
1.284181e-009
1.465509e-009
1.652074e-009
1.781650e-009
1.858642e-009
1.942406e-009
2.024973e-009
2.033130e-009
1.955136e-009
1.861262e-009
1.787387e-009
1.690200e-009
1.538406e-009
1.371454e-009
1.237767e-009
1.131767e-009
1.025615e-009
9.245912e-010
8.574043e-010
8.334868e-010
8.388851e-010
8.648557e-010
9.178318e-010
1.002558e-009
1.111251e-009
1.231970e-009
1.357336e-009
1.481018e-009
1.592453e-009
1.680118e-009
1.736706e-009
1.757525e-009
1.737122e-009
1.672343e-009
1.567438e-009
1.431986e-009
1.274505e-009
1.101796e-009
9.235210e-010
7.524722e-010
5.989908e-010
4.675531e-010
3.585195e-010
2.701184e-010
1.987222e-010
1.403158e-010
9.271589e-011
5.533399e-011
2.765067e-011
9.496793e-012
1.454811e-012
2.603805e-012
8.420872e-012
1.287306e-011
1.259984e-011
8.133461e-012
1.727052e-012
-4.484464e-012
-8.302948e-012
-7.563345e-012
-2.377784e-012
3.237784e-012
4.467712e-012
1.265152e-012
-1.439423e-012
-4.296007e-013
1.552252e-012
6.201935e-013
-1.920015e-012
2.501265e-010
-2.973640e-011
-2.266378e-010
-1.481700e-010
4.127401e-011
1.245434e-010
8.814844e-011
2.397768e-011
-3.376055e-011
-8.062563e-011
-7.598808e-011
-9.343445e-013
7.856956e-011
7.587678e-011
-4.937371e-012
-6.078764e-011
-1.075497e-011
9.100880e-011
1.223620e-010
8.128438e-011
1.023533e-010
2.411689e-010
3.816760e-010
4.418668e-010
5.163491e-010
6.999626e-010
9.243748e-010
1.098550e-009
1.265027e-009
1.486224e-009
1.707584e-009
1.852992e-009
1.937768e-009
1.986121e-009
1.947253e-009
1.781010e-009
1.528049e-009
1.223054e-009
8.298986e-010
3.263512e-010
-2.289959e-010
-7.738494e-010
-1.317981e-009
-1.887405e-009
-2.448504e-009
-2.941701e-009
-3.352793e-009
-3.702253e-009
-3.986587e-009
-4.172369e-009
-4.238942e-009
-4.194164e-009
-4.048975e-009
-3.800882e-009
-3.447497e-009
-3.000837e-009
-2.482184e-009
-1.912482e-009
-1.313469e-009
-7.116917e-010
-1.351814e-010
3.916924e-010
8.477354e-010
1.213895e-009
1.477653e-009
1.637156e-009
1.698561e-009
1.671592e-009
1.569868e-009
1.412298e-009
1.220221e-009
1.013735e-009
8.110355e-010
6.273274e-010
4.715239e-010
3.457721e-010
2.488643e-010
1.775874e-010
1.254626e-010
8.514883e-011
5.362737e-011
3.186664e-011
1.915950e-011
1.156945e-011
6.477211e-012
4.663917e-012
6.077312e-012
6.335718e-012
5.215846e-013
-9.599639e-012
-1.492002e-011
-8.412669e-012
5.238313e-012
1.312657e-011
8.556538e-012
-1.689507e-012
-6.748259e-012
-4.238370e-012
3.158076e-013
2.658063e-012
2.435167e-010
-6.781904e-011
-2.488438e-010
-9.346163e-011
1.330521e-010
1.363696e-010
-1.480163e-011
-7.960140e-011
-1.718394e-011
2.761974e-011
-5.817068e-012
-3.023530e-011
1.507371e-011
6.770973e-011
4.559603e-011
-2.178305e-011
-1.970008e-011
9.052344e-011
2.034810e-010
2.305738e-010
2.545406e-010
3.993917e-010
6.215066e-010
7.976161e-010
9.489337e-010
1.182115e-009
1.469844e-009
1.691376e-009
1.831526e-009
1.943170e-009
1.970880e-009
1.797073e-009
1.409210e-009
8.587777e-010
1.133363e-010
-9.009172e-010
-2.161777e-009
-3.586168e-009
-5.154732e-009
-6.887670e-009
-8.736739e-009
-1.060263e-008
-1.243364e-008
-1.422403e-008
-1.593291e-008
-1.747669e-008
-1.879659e-008
-1.987807e-008
-2.070246e-008
-2.122360e-008
-2.140094e-008
-2.122645e-008
-2.070978e-008
-1.985843e-008
-1.868438e-008
-1.721900e-008
-1.551225e-008
-1.362330e-008
-1.161754e-008
-9.567028e-009
-7.546286e-009
-5.626148e-009
-3.870234e-009
-2.330851e-009
-1.042923e-009
-2.180841e-011
7.335610e-010
1.238787e-009
1.524167e-009
1.629891e-009
1.597274e-009
1.465477e-009
1.273324e-009
1.056460e-009
8.409312e-010
6.432656e-010
4.752076e-010
3.427586e-010
2.425777e-010
1.664819e-010
1.096683e-010
7.015083e-011
4.270624e-011
2.033774e-011
1.843972e-012
-7.505241e-012
-4.606834e-012
4.685699e-012
9.250406e-012
3.439771e-012
-6.534962e-012
-8.978527e-012
-3.973155e-013
9.682447e-012
9.720615e-012
-3.480357e-013
-9.665966e-012
-9.053601e-012
3.005029e-014
8.439054e-012
-1.147490e-012
-3.704481e-011
-2.812034e-011
4.697061e-011
8.726417e-011
7.812669e-012
-1.022396e-010
-8.418267e-011
4.533623e-011
1.062933e-010
2.273929e-011
-7.310393e-011
-4.282640e-011
7.132078e-011
1.219705e-010
6.318827e-011
1.832551e-011
1.172749e-010
3.096898e-010
4.421597e-010
5.112259e-010
6.751397e-010
9.846147e-010
1.301237e-009
1.538021e-009
1.761885e-009
1.984241e-009
2.064062e-009
1.888221e-009
1.445641e-009
6.716937e-010
-5.830316e-010
-2.386094e-009
-4.700007e-009
-7.541707e-009
-1.099245e-008
-1.503248e-008
-1.951964e-008
-2.434514e-008
-2.947415e-008
-3.481959e-008
-4.019992e-008
-4.544807e-008
-5.046935e-008
-5.516889e-008
-5.940121e-008
-6.302365e-008
-6.594766e-008
-6.811092e-008
-6.943748e-008
-6.985368e-008
-6.932339e-008
-6.784916e-008
-6.545333e-008
-6.217710e-008
-5.809495e-008
-5.332010e-008
-4.799697e-008
-4.229234e-008
-3.638919e-008
-3.047962e-008
-2.475486e-008
-1.939232e-008
-1.454049e-008
-1.030711e-008
-6.756385e-009
-3.910443e-009
-1.748141e-009
-2.067389e-010
8.042641e-010
1.384469e-009
1.633521e-009
1.648685e-009
1.516796e-009
1.304704e-009
1.060452e-009
8.200716e-010
6.073176e-010
4.310411e-010
2.912946e-010
1.876116e-010
1.177115e-010
7.279004e-011
4.134363e-011
1.735714e-011
1.666450e-012
-3.309338e-012
1.541903e-012
1.024538e-011
1.388571e-011
7.465047e-012
-4.042503e-012
-9.544878e-012
-4.204004e-012
4.179327e-012
4.456115e-012
-3.344012e-012
-7.718950e-012
-1.430973e-012
7.894084e-012
-3.302384e-010
5.246880e-011
2.933024e-010
1.584945e-010
-8.079312e-011
-1.506817e-010
-7.852221e-011
1.039116e-011
7.186598e-011
8.069063e-011
1.560063e-011
-5.959707e-011
-4.048306e-011
7.437079e-011
1.686622e-010
1.601610e-010
1.280820e-010
2.332977e-010
4.971213e-010
7.583613e-010
9.251227e-010
1.128788e-009
1.486963e-009
1.867603e-009
2.064746e-009
2.041045e-009
1.792995e-009
1.131955e-009
-2.053614e-010
-2.371923e-009
-5.493486e-009
-9.777824e-009
-1.539008e-008
-2.234901e-008
-3.064327e-008
-4.029860e-008
-5.123539e-008
-6.319654e-008
-7.589746e-008
-8.912871e-008
-1.026496e-007
-1.161031e-007
-1.291179e-007
-1.414169e-007
-1.527673e-007
-1.628971e-007
-1.715245e-007
-1.784335e-007
-1.834713e-007
-1.864972e-007
-1.873785e-007
-1.860305e-007
-1.824366e-007
-1.766359e-007
-1.687171e-007
-1.588329e-007
-1.472150e-007
-1.341708e-007
-1.200683e-007
-1.053203e-007
-9.036973e-008
-7.567123e-008
-6.166040e-008
-4.871827e-008
-3.714426e-008
-2.714421e-008
-1.882414e-008
-1.218424e-008
-7.123960e-009
-3.467399e-009
-9.961028e-010
5.271217e-010
1.340162e-009
1.659863e-009
1.664027e-009
1.488397e-009
1.232176e-009
9.610286e-010
7.112167e-010
5.001709e-010
3.355578e-010
2.167442e-010
1.360322e-010
8.413883e-011
5.277901e-011
3.262401e-011
1.568122e-011
2.294012e-012
-6.199114e-013
7.135854e-012
1.280362e-011
4.686680e-012
-1.075021e-011
-1.535486e-011
-3.785140e-012
8.760616e-012
8.006563e-012
-6.062890e-013
-3.502366e-012
-2.742540e-013
-4.779561e-010
1.273595e-010
4.538699e-010
1.531537e-010
-2.241465e-010
-2.008388e-010
2.352671e-011
8.991799e-011
2.089458e-011
7.027718e-012
4.541333e-011
3.267512e-011
-3.988982e-012
4.252924e-011
1.754747e-010
2.914135e-010
3.560056e-010
4.895896e-010
7.976758e-010
1.184202e-009
1.484531e-009
1.720691e-009
1.996375e-009
2.174681e-009
1.911373e-009
9.608619e-010
-8.321974e-010
-3.806225e-009
-8.469204e-009
-1.523790e-008
-2.441017e-008
-3.631456e-008
-5.124384e-008
-6.927377e-008
-9.030093e-008
-1.141661e-007
-1.405818e-007
-1.690268e-007
-1.988622e-007
-2.294923e-007
-2.603203e-007
-2.906474e-007
-3.197478e-007
-3.470097e-007
-3.719230e-007
-3.939777e-007
-4.126629e-007
-4.275505e-007
-4.383163e-007
-4.446886e-007
-4.464264e-007
-4.433609e-007
-4.354344e-007
-4.227016e-007
-4.053243e-007
-3.835887e-007
-3.579329e-007
-3.289526e-007
-2.973834e-007
-2.640733e-007
-2.299551e-007
-1.960084e-007
-1.632004e-007
-1.324137e-007
-1.043848e-007
-7.966391e-008
-5.858585e-008
-4.125292e-008
-2.754426e-008
-1.715724e-008
-9.663567e-009
-4.563234e-009
-1.335737e-009
5.108280e-010
1.403423e-009
1.687150e-009
1.621889e-009
1.387525e-009
1.098331e-009
8.208300e-010
5.861678e-010
4.000508e-010
2.578971e-010
1.578116e-010
9.799467e-011
6.566927e-011
3.985624e-011
1.082876e-011
-9.989210e-012
-8.352187e-012
7.917501e-012
1.423130e-011
8.911891e-013
-1.402894e-011
-1.075537e-011
5.212699e-012
1.355607e-011
7.318009e-012
-3.213465e-012
-8.827483e-012
-2.949069e-010
1.036139e-010
2.928629e-010
5.435643e-011
-1.877976e-010
-1.049824e-010
7.905809e-011
6.255289e-011
-4.793295e-011
-1.004049e-011
1.196601e-010
1.271836e-010
2.337238e-011
2.598937e-011
2.373374e-010
5.199990e-010
7.140936e-010
8.781443e-010
1.199398e-009
1.676992e-009
2.069839e-009
2.192218e-009
1.999806e-009
1.263955e-009
-5.865850e-010
-4.192938e-009
-1.011763e-008
-1.907294e-008
-3.199814e-008
-4.977058e-008
-7.303720e-008
-1.023317e-007
-1.380561e-007
-1.802474e-007
-2.285305e-007
-2.822888e-007
-3.407003e-007
-4.026383e-007
-4.667526e-007
-5.316917e-007
-5.961614e-007
-6.588382e-007
-7.184049e-007
-7.737005e-007
-8.237523e-007
-8.676745e-007
-9.046268e-007
-9.338819e-007
-9.548624e-007
-9.670961e-007
-9.701809e-007
-9.638198e-007
-9.478771e-007
-9.223991e-007
-8.876217e-007
-8.439998e-007
-7.922538e-007
-7.333977e-007
-6.687333e-007
-5.998211e-007
-5.284390e-007
-4.565182e-007
-3.860379e-007
-3.188928e-007
-2.567601e-007
-2.009869e-007
-1.524981e-007
-1.117405e-007
-7.868395e-008
-5.288019e-008
-3.355993e-008
-1.974767e-008
-1.038234e-008
-4.425154e-009
-9.382698e-010
8.667365e-010
1.605775e-009
1.726942e-009
1.538032e-009
1.236635e-009
9.312182e-010
6.639951e-010
4.439105e-010
2.751639e-010
1.628076e-010
1.003952e-010
6.456585e-011
3.178345e-011
5.902445e-013
-1.192907e-011
3.612910e-013
1.721369e-011
1.504957e-011
-3.248513e-012
-1.434304e-011
-6.201947e-012
8.690763e-012
1.193424e-011
9.007219e-013
-1.119572e-011
1.250470e-010
-3.665732e-011
-1.141132e-010
-4.001731e-011
4.272876e-011
5.233436e-011
1.472014e-011
-3.588957e-011
-4.170096e-011
4.723941e-011
1.539689e-010
1.513025e-010
8.208726e-011
1.460635e-010
4.440027e-010
8.439686e-010
1.150746e-009
1.368934e-009
1.689180e-009
2.134350e-009
2.337959e-009
1.793253e-009
1.026744e-010
-3.284429e-009
-9.414942e-009
-1.966822e-008
-3.544606e-008
-5.824910e-008
-8.979123e-008
-1.317032e-007
-1.851857e-007
-2.509951e-007
-3.294392e-007
-4.201402e-007
-5.219324e-007
-6.330914e-007
-7.515332e-007
-8.748080e-007
-1.000198e-006
-1.125020e-006
-1.246818e-006
-1.363318e-006
-1.472412e-006
-1.572279e-006
-1.661444e-006
-1.738678e-006
-1.802888e-006
-1.853142e-006
-1.888693e-006
-1.908932e-006
-1.913336e-006
-1.901482e-006
-1.873104e-006
-1.828141e-006
-1.766762e-006
-1.689433e-006
-1.596998e-006
-1.490766e-006
-1.372555e-006
-1.244722e-006
-1.110139e-006
-9.721311e-007
-8.343332e-007
-7.004717e-007
-5.741037e-007
-4.583407e-007
-3.555910e-007
-2.673698e-007
-1.942209e-007
-1.357605e-007
-9.082365e-008
-5.768858e-008
-3.433716e-008
-1.869631e-008
-8.823633e-009
-3.034882e-009
2.580018e-011
1.379363e-009
1.754157e-009
1.640311e-009
1.337300e-009
1.002346e-009
7.026573e-010
4.604118e-010
2.816980e-010
1.664190e-010
1.028252e-010
6.538090e-011
3.209057e-011
3.923988e-012
-4.211781e-012
7.695971e-012
1.764569e-011
8.156550e-012
-1.074513e-011
-1.530179e-011
-7.844080e-013
1.189219e-011
5.729145e-012
-8.332470e-012
5.231999e-010
-2.101883e-010
-5.110922e-010
-6.603458e-011
3.084188e-010
1.526593e-010
-1.077468e-010
-8.932832e-011
5.155932e-011
9.800788e-011
9.956473e-011
1.574493e-010
2.726418e-010
4.542705e-010
7.629207e-010
1.192795e-009
1.619008e-009
1.936744e-009
2.156444e-009
2.156807e-009
1.337231e-009
-1.308801e-009
-6.892267e-009
-1.677640e-008
-3.302538e-008
-5.837353e-008
-9.576298e-008
-1.481505e-007
-2.185221e-007
-3.095246e-007
-4.228691e-007
-5.590738e-007
-7.174457e-007
-8.959419e-007
-1.091147e-006