# vtk DataFile Version 3.0
vtk output
ASCII
DATASET STRUCTURED_POINTS
DIMENSIONS 100 100 1
SPACING 1 1 1
ORIGIN 0 0 0
POINT_DATA 10000
SCALARS SFBox_profile double
LOOKUP_TABLE default 
0.000000e+000
0.000000e+000
0.000000e+000
0.000000e+000
0.000000e+000
0.000000e+000
0.000000e+000
0.000000e+000
0.000000e+000
0.000000e+000
0.000000e+000
0.000000e+000
0.000000e+000
0.000000e+000
0.000000e+000
0.000000e+000
0.000000e+000
0.000000e+000
0.000000e+000
0.000000e+000
0.000000e+000
0.000000e+000
0.000000e+000
0.000000e+000
0.000000e+000
0.000000e+000
0.000000e+000
0.000000e+000
0.000000e+000
0.000000e+000
0.000000e+000
0.000000e+000
0.000000e+000
0.000000e+000
0.000000e+000
0.000000e+000
0.000000e+000
0.000000e+000
0.000000e+000
0.000000e+000
0.000000e+000
0.000000e+000
0.000000e+000
0.000000e+000
0.000000e+000
0.000000e+000
0.000000e+000
0.000000e+000
0.000000e+000
0.000000e+000
0.000000e+000
0.000000e+000
0.000000e+000
0.000000e+000
0.000000e+000
0.000000e+000
0.000000e+000
0.000000e+000
0.000000e+000
0.000000e+000
0.000000e+000
0.000000e+000
0.000000e+000
0.000000e+000
0.000000e+000
0.000000e+000
0.000000e+000
0.000000e+000
0.000000e+000
0.000000e+000
0.000000e+000
0.000000e+000
0.000000e+000
0.000000e+000
0.000000e+000
0.000000e+000
0.000000e+000
0.000000e+000
0.000000e+000
0.000000e+000
0.000000e+000
0.000000e+000
0.000000e+000
0.000000e+000
0.000000e+000
0.000000e+000
0.000000e+000
0.000000e+000
0.000000e+000
0.000000e+000
0.000000e+000
0.000000e+000
0.000000e+000
0.000000e+000
0.000000e+000
0.000000e+000
0.000000e+000
0.000000e+000
0.000000e+000
0.000000e+000
2.183333e-010
7.722062e-010
1.523182e-009
2.172216e-009
2.786023e-009
3.626375e-009
4.733459e-009
5.747534e-009
6.035915e-009
4.710220e-009
2.442566e-010
-1.006712e-008
-3.039420e-008
-6.637609e-008
-1.251413e-007
-2.154201e-007
-3.473913e-007
-5.318962e-007
-7.790688e-007
-1.096746e-006
-1.488976e-006
-1.954817e-006
-2.487663e-006
-3.075382e-006
-3.701392e-006
-4.346444e-006
-4.990677e-006
-5.615515e-006
-6.205137e-006
-6.747400e-006
-7.234186e-006
-7.661248e-006
-8.027705e-006
-8.335339e-006
-8.587825e-006
-8.789967e-006
-8.946995e-006
-9.063982e-006
-9.145410e-006
-9.194914e-006
-9.215168e-006
-9.207927e-006
-9.174160e-006
-9.114264e-006
-9.028312e-006
-8.916312e-006
-8.778458e-006
-8.615347e-006
-8.428168e-006
-8.218840e-006
-7.990110e-006
-7.745605e-006
-7.489846e-006
-7.228222e-006
-6.966934e-006
-6.712918e-006
-6.473732e-006
-6.257404e-006
-6.072232e-006
-5.926514e-006
-5.828194e-006
-5.784398e-006
-5.800851e-006
-5.881187e-006
-6.026183e-006
-6.232956e-006
-6.494214e-006
-6.797655e-006
-7.125667e-006
-7.455438e-006
-7.759629e-006
-8.007716e-006
-8.168063e-006
-8.210730e-006
-8.110858e-006
-7.852288e-006
-7.430856e-006
-6.856627e-006
-6.154334e-006
-5.361501e-006
-4.524193e-006
-3.691037e-006
-2.906697e-006
-2.206274e-006
-1.611843e-006
-1.131701e-006
-7.621283e-007
-4.908173e-007
-3.008205e-007
-1.740347e-007
-9.365485e-008
-4.552563e-008
-1.861044e-008
-4.866698e-009
1.222431e-009
3.246736e-009
3.421734e-009
3.004258e-009
2.591502e-009
2.375500e-009
8.300006e-010
1.230092e-009
1.815782e-009
2.405136e-009
3.036066e-009
3.843736e-009
4.727819e-009
5.116662e-009
3.935394e-009
-4.572501e-010
-1.061911e-008
-3.058611e-008
-6.633149e-008
-1.259436e-007
-2.195692e-007
-3.590961e-007
-5.572900e-007
-8.260893e-007
-1.174144e-006
-1.604120e-006
-2.110464e-006
-2.678276e-006
-3.283741e-006
-3.896288e-006
-4.482128e-006
-5.008389e-006
-5.446870e-006
-5.776709e-006
-5.985630e-006
-6.069865e-006
-6.033058e-006
-5.884545e-006
-5.637425e-006
-5.306698e-006
-4.907661e-006
-4.454618e-006
-3.959930e-006
-3.433411e-006
-2.882057e-006
-2.310093e-006
-1.719282e-006
-1.109434e-006
-4.790403e-007
1.740350e-007
8.518788e-007
1.555917e-006
2.286402e-006
3.042021e-006
3.819628e-006
4.614105e-006
5.418327e-006
6.223214e-006
7.017853e-006
7.789660e-006
8.524565e-006
9.207201e-006
9.821109e-006
1.034895e-005
1.077277e-005
1.107432e-005
1.123547e-005
1.123880e-005
1.106839e-005
1.071074e-005
1.015601e-005
9.399384e-006
8.442609e-006
7.295635e-006
5.978137e-006
4.520798e-006
2.966062e-006
1.368003e-006
-2.091071e-007
-1.693921e-006
-3.013081e-006
-4.098118e-006
-4.893562e-006
-5.365053e-006
-5.505741e-006
-5.339126e-006
-4.916935e-006
-4.311789e-006
-3.605917e-006
-2.878486e-006
-2.194631e-006
-1.598681e-006
-1.112671e-006
-7.394321e-007
-4.683664e-007
-2.817247e-007
-1.597912e-007
-8.431240e-008
-4.024099e-008
-1.621172e-008
-4.233664e-009
9.802511e-010
2.738089e-009
2.982966e-009
2.759507e-009
2.558350e-009
1.791202e-009
1.977955e-009
2.358893e-009
2.913190e-009
3.570557e-009
4.165187e-009
4.247038e-009
2.744614e-009
-2.377948e-009
-1.441011e-008
-3.828822e-008
-8.122971e-008
-1.534215e-007
-2.683105e-007
-4.420764e-007
-6.919989e-007
-1.033466e-006
-1.475508e-006
-2.015321e-006
-2.633138e-006
-3.289353e-006
-3.925580e-006
-4.470181e-006
-4.847363e-006
-4.987751e-006
-4.837867e-006
-4.366444e-006
-3.566555e-006
-2.453805e-006
-1.061697e-006
5.643794e-007
2.373271e-006
4.313411e-006
6.336944e-006
8.402538e-006
1.047698e-005
1.253578e-005
1.456297e-005
1.655035e-005
1.849622e-005
2.040384e-005
2.227981e-005
2.413231e-005
2.596952e-005
2.779825e-005
2.962280e-005
3.144423e-005
3.325987e-005
3.506319e-005
3.684392e-005
3.858844e-005
4.028014e-005
4.190004e-005
4.342725e-005
4.483943e-005
4.611314e-005
4.722405e-005
4.814703e-005
4.885618e-005
4.932475e-005
4.952501e-005
4.942827e-005
4.900494e-005
4.822490e-005
4.705827e-005
4.547678e-005
4.345591e-005
4.097812e-005
3.803717e-005
3.464350e-005
3.083043e-005
2.666018e-005
2.222847e-005
1.766596e-005
1.313468e-005
8.818116e-006
4.904434e-006
1.564261e-006
-1.073589e-006
-2.943129e-006
-4.053154e-006
-4.485794e-006
-4.380681e-006
-3.908192e-006
-3.238842e-006
-2.517027e-006
-1.845324e-006
-1.281348e-006
-8.446944e-007
-5.289970e-007
-3.142164e-007
-1.761284e-007
-9.213260e-008
-4.391019e-008
-1.798102e-008
-5.144902e-009
4.917096e-010
2.501040e-009
2.941447e-009
2.920361e-009
2.842523e-009
2.852333e-009
3.096830e-009
3.670304e-009
4.257397e-009
4.138504e-009
2.149279e-009
-3.783838e-009
-1.743042e-008
-4.500738e-008
-9.583610e-008
-1.830984e-007
-3.245118e-007
-5.420674e-007
-8.596874e-007
-1.297912e-006
-1.865294e-006
-2.547160e-006
-3.294144e-006
-4.014751e-006
-4.576703e-006
-4.819665e-006
-4.577850e-006
-3.707025e-006
-2.108768e-006
2.541489e-007
3.354284e-006
7.107327e-006
1.138777e-005
1.604785e-005
2.093569e-005
2.590982e-005
3.084899e-005
3.565741e-005
4.026610e-005
4.463130e-005
4.873105e-005
5.256078e-005
5.612857e-005
5.945069e-005
6.254760e-005
6.544057e-005
6.814910e-005
7.068900e-005
7.307126e-005
7.530157e-005
7.738059e-005
7.930466e-005
8.106707e-005
8.265947e-005
8.407356e-005
8.530259e-005
8.634269e-005
8.719394e-005
8.786093e-005
8.835287e-005
8.868322e-005
8.886861e-005
8.892724e-005
8.887651e-005
8.872988e-005
8.849296e-005
8.815888e-005
8.770322e-005
8.707896e-005
8.621229e-005
8.500046e-005
8.331316e-005
8.099895e-005
7.789824e-005
7.386312e-005
6.878355e-005
6.261707e-005
5.541762e-005
4.735692e-005
3.873087e-005
2.994398e-005
2.146818e-005
1.377895e-005
7.280566e-006
2.238351e-006
-1.262927e-006
-3.322629e-006
-4.188382e-006
-4.191547e-006
-3.674111e-006
-2.928130e-006
-2.161838e-006
-1.494863e-006
-9.745544e-007
-6.010544e-007
-3.507599e-007
-1.929433e-007
-9.901716e-008
-4.630804e-008
-1.860075e-008
-5.171414e-009
6.410581e-010
2.760375e-009
3.341955e-009
3.956982e-009
3.845892e-009
3.985242e-009
4.466811e-009
4.555063e-009
2.633048e-009
-3.786703e-009
-1.869576e-008
-4.893567e-008
-1.056906e-007
-2.056636e-007
-3.717906e-007
-6.329498e-007
-1.021020e-006
-1.562834e-006
-2.265059e-006
-3.092252e-006
-3.942460e-006
-4.629467e-006
-4.883341e-006
-4.377652e-006
-2.782365e-006
1.699122e-007
4.623232e-006
1.056112e-005
1.780262e-005
2.603040e-005
3.484162e-005
4.380726e-005
5.252585e-005
6.066219e-005
6.796809e-005
7.428689e-005
7.954613e-005
8.374268e-005
8.692406e-005
8.916899e-005
9.056952e-005
9.121647e-005
9.118907e-005
9.054894e-005
8.933795e-005
8.757923e-005
8.528047e-005
8.243880e-005
7.904654e-005
7.509747e-005
7.059302e-005
6.554818e-005
5.999659e-005
5.399478e-005
4.762512e-005
4.099756e-005
3.425016e-005
2.754826e-005
2.108262e-005
1.506636e-005
9.730479e-006
5.317817e-006
2.074850e-006
2.407439e-007
3.306285e-008
1.629665e-006
5.146719e-006
1.061345e-005
1.794524e-005
2.691800e-005
3.714817e-005
4.808405e-005
5.901484e-005
6.910369e-005
7.744919e-005
8.317674e-005
8.555536e-005
8.412683e-005
7.882296e-005
7.003647e-005
5.861132e-005
4.573417e-005
3.273899e-005
2.086809e-005
1.105391e-005
3.784709e-006
-9.143606e-007
-3.393481e-006
-4.221142e-006
-4.013138e-006
-3.298634e-006
-2.451161e-006
-1.683168e-006
-1.081224e-006
-6.539777e-007
-3.731698e-007
-2.002790e-007
-1.000476e-007
-4.532851e-008
-1.735383e-008
-4.137800e-009
1.476826e-009
3.419298e-009
5.266945e-009
5.051785e-009
4.954930e-009
4.858515e-009
3.372963e-009
-2.473345e-009
-1.741863e-008
-4.891524e-008
-1.091564e-007
-2.174867e-007
-4.020438e-007
-6.994775e-007
-1.150917e-006
-1.790573e-006
-2.622124e-006
-3.580399e-006
-4.483926e-006
-4.995900e-006
-4.620230e-006
-2.756300e-006
1.183122e-006
7.614762e-006
1.663431e-005
2.792302e-005
4.074411e-005
5.403489e-005
6.657235e-005
7.716446e-005
8.481676e-005
8.884005e-005
8.888744e-005
8.493066e-005
7.719737e-005
6.609190e-005
5.211574e-005
3.579639e-005
1.762944e-005
-1.963774e-006
-2.266151e-005
-4.425039e-005
-6.661985e-005
-8.974556e-005
-1.136660e-004
-1.384553e-004
-1.641965e-004
-1.909554e-004
-2.187586e-004
-2.475753e-004
-2.773035e-004
-3.077621e-004
-3.386863e-004
-3.697281e-004
-4.004602e-004
-4.303820e-004
-4.589269e-004
-4.854709e-004
-5.093409e-004
-5.298233e-004
-5.461738e-004
-5.576291e-004
-5.634227e-004
-5.628075e-004
-5.550859e-004
-5.396524e-004
-5.160490e-004
-4.840349e-004
-4.436692e-004
-3.954025e-004
-3.401676e-004
-2.794555e-004
-2.153564e-004
-1.505392e-004
-8.814005e-005
-3.153078e-005
1.604735e-005
5.196258e-005
7.470115e-005
8.425721e-005
8.223519e-005
7.156822e-005
5.590722e-005
3.886508e-005
2.333858e-005
1.110510e-005
2.777237e-006
-1.957705e-006
-3.950532e-006
-4.200194e-006
-3.571674e-006
-2.664548e-006
-1.810506e-006
-1.141938e-006
-6.751641e-007
-3.754792e-007
-1.958395e-007
-9.461314e-008
-4.094415e-008
-1.431941e-008
-2.211638e-009
2.314951e-009
6.762028e-009
6.424975e-009
5.775855e-009
4.115081e-009
-9.932250e-010
-1.453351e-008
-4.483902e-008
-1.051839e-007
-2.166067e-007
-4.110212e-007
-7.322663e-007
-1.231685e-006
-1.952978e-006
-2.898326e-006
-3.968412e-006
-4.880049e-006
-5.089099e-006
-3.772380e-006
7.164500e-008
7.375201e-006
1.864166e-005
3.357355e-005
5.082163e-005
6.796884e-005
8.181248e-005
8.889441e-005
8.611774e-005
7.127645e-005
4.336117e-005
2.582947e-006
-4.983920e-005
-1.120153e-004
-1.817337e-004
-2.567513e-004
-3.350039e-004
-4.147390e-004
-4.945881e-004
-5.735881e-004
-6.511619e-004
-7.270679e-004
-8.013269e-004
-8.741381e-004
-9.457937e-004
-1.016600e-003
-1.086811e-003
-1.156575e-003
-1.225901e-003
-1.294643e-003
-1.362493e-003
-1.429000e-003
-1.493586e-003
-1.555585e-003
-1.614270e-003
-1.668890e-003
-1.718691e-003
-1.762940e-003
-1.800928e-003
-1.831969e-003
-1.855378e-003
-1.870453e-003
-1.876427e-003
-1.872427e-003
-1.857425e-003
-1.830197e-003
-1.789300e-003
-1.733091e-003
-1.659820e-003
-1.567805e-003
-1.455744e-003
-1.323141e-003
-1.170829e-003
-1.001512e-003
-8.201779e-004
-6.342068e-004
-4.529815e-004
-2.868947e-004
-1.457946e-004
-3.713044e-005
3.573295e-005
7.440590e-005
8.502288e-005
7.646971e-005
5.805573e-005
3.750741e-005
1.983456e-005
7.253893e-006
-1.500755e-007
-3.495644e-006
-4.261217e-006
-3.733379e-006
-2.779601e-006
-1.859656e-006
-1.147254e-006
-6.609150e-007
-3.570097e-007
-1.800723e-007
-8.337188e-008
-3.380218e-008
-1.040544e-008
-1.341659e-009
8.104175e-009
7.584598e-009
5.861097e-009
1.053091e-009
-1.101476e-008
-3.838362e-008
-9.492768e-008
-2.030659e-007
-3.973115e-007
-7.268974e-007
-1.252752e-006
-2.030496e-006
-3.066707e-006
-4.233958e-006
-5.142337e-006
-5.003132e-006
-2.577125e-006
3.662294e-006
1.505214e-005
3.196630e-005
5.292624e-005
7.391873e-005
8.830359e-005
8.763014e-005
6.325457e-005
8.282418e-006
-8.078412e-005
-2.033291e-004
-3.550075e-004
-5.288712e-004
-7.167331e-004
-9.103975e-004
-1.102564e-003
-1.287358e-003
-1.460535e-003
-1.619436e-003
-1.762781e-003
-1.890358e-003
-2.002685e-003
-2.100686e-003
-2.185415e-003
-2.257856e-003
-2.318787e-003
-2.368723e-003
-2.407908e-003
-2.436356e-003
-2.453939e-003
-2.460485e-003
-2.455898e-003
-2.440280e-003
-2.414029e-003
-2.377917e-003
-2.333141e-003
-2.281325e-003
-2.224506e-003
-2.165084e-003
-2.105754e-003
-2.049430e-003
-1.999145e-003
-1.957936e-003
-1.928702e-003
-1.914014e-003
-1.915862e-003
-1.935326e-003
-1.972142e-003
-2.024178e-003
-2.086844e-003
-2.152533e-003
-2.210272e-003
-2.245861e-003
-2.242854e-003
-2.184711e-003
-2.058200e-003
-1.857638e-003
-1.588804e-003
-1.270690e-003
-9.333383e-004
-6.115633e-004
-3.367418e-004
-1.297814e-004
2.807354e-006
6.880987e-005
8.575463e-005
7.402485e-005
5.108933e-005
2.847141e-005
1.161583e-005
1.548104e-006
-3.067067e-006
-4.261246e-006
-3.789604e-006
-2.788251e-006
-1.824985e-006
-1.096224e-006
-6.129864e-007
-3.202731e-007
-1.553080e-007
-6.838053e-008
-2.624729e-008
-9.556498e-009
8.774242e-009
7.837880e-009
4.119476e-009
-6.238155e-009
-3.025419e-008
-8.070312e-008
-1.797976e-007
-3.633713e-007
-6.843766e-007
-1.211656e-006
-2.014014e-006
-3.111167e-006
-4.366545e-006
-5.307025e-006
-4.905438e-006
-1.461536e-006
7.177202e-006
2.279844e-005
4.531349e-005
7.079493e-005
8.975063e-005
8.678051e-005
4.278643e-005
-6.035458e-005
-2.338596e-004
-4.773348e-004
-7.776309e-004
-1.111043e-003
-1.447714e-003
-1.757304e-003
-2.014457e-003
-2.202405e-003
-2.313975e-003
-2.350464e-003
-2.319295e-003
-2.231321e-003
-2.098370e-003
-1.931408e-003
-1.739443e-003
-1.529120e-003
-1.304830e-003
-1.069129e-003
-8.232958e-004
-5.679055e-004
-3.033486e-004
-3.024538e-005
2.502573e-004
5.363190e-004
8.253662e-004
1.114167e-003
1.398996e-003
1.675854e-003
1.940704e-003
2.189678e-003
2.419228e-003
2.626201e-003
2.807831e-003
2.961653e-003
3.085350e-003
3.176543e-003
3.232537e-003
3.250025e-003
3.224782e-003
3.151361e-003
3.022861e-003
2.830884e-003
2.565877e-003
2.218146e-003
1.779947e-003
1.249055e-003
6.339927e-004
-3.956964e-005
-7.230171e-004
-1.343383e-003
-1.811965e-003
-2.047611e-003
-2.010950e-003
-1.730988e-003
-1.300310e-003
-8.361673e-004
-4.351800e-004
-1.496316e-004
1.333905e-005
7.866839e-005
8.363519e-005
6.181847e-005
3.539987e-005
1.486004e-005
2.626491e-006
-2.865799e-006
-4.254128e-006
-3.745945e-006
-2.689930e-006
-1.710024e-006
-9.953156e-007
-5.381053e-007
-2.708785e-007
-1.260480e-007
-5.416091e-008
-2.516053e-008
8.347117e-009
6.342987e-009
-1.066905e-009
-2.060871e-008
-6.370592e-008
-1.503757e-007
-3.149473e-007
-6.114118e-007
-1.114306e-006
-1.905615e-006
-3.026596e-006
-4.358790e-006
-5.399003e-006
-4.947667e-006
-8.757360e-007
9.651480e-006
2.896707e-005
5.629983e-005
8.392131e-005
9.327381e-005
5.398247e-005
-7.067542e-005
-3.110116e-004
-6.736029e-004
-1.127855e-003
-1.602812e-003
-1.997710e-003
-2.210691e-003
-2.175154e-003
-1.880817e-003
-1.368355e-003
-7.067855e-004
3.015201e-005
7.794353e-004
1.495313e-003
2.149770e-003
2.729694e-003
3.232760e-003
3.663329e-003
4.029075e-003
4.338592e-003
4.599911e-003
4.819740e-003
5.003208e-003
5.153926e-003
5.274262e-003
5.365705e-003
5.429285e-003
5.465967e-003
5.476996e-003
5.464151e-003
5.429887e-003
5.377376e-003
5.310447e-003
5.233469e-003
5.151202e-003
5.068635e-003
4.990845e-003
4.922878e-003
4.869633e-003
4.835738e-003
4.825380e-003
4.842035e-003
4.888032e-003
4.963861e-003
5.067111e-003
5.190903e-003
5.321705e-003
5.436472e-003
5.499287e-003
5.458181e-003
5.243897e-003
4.774618e-003
3.974213e-003
2.813327e-003
1.371700e-003
-1.154857e-004
-1.301224e-003
-1.895597e-003
-1.854811e-003
-1.399045e-003
-8.316340e-004
-3.635443e-004
-7.258548e-005
5.853729e-005
8.700655e-005
6.849646e-005
3.938268e-005
1.620921e-005
2.746626e-006
-2.984303e-006
-4.246121e-006
-3.599089e-006
-2.490960e-006
-1.527554e-006
-8.577658e-007
-4.469556e-007
-2.169752e-007
-1.000450e-007
-5.207885e-008
6.484796e-009
2.147398e-009
-1.177778e-008
-4.582994e-008
-1.178639e-007
-2.585033e-007
-5.186662e-007
-9.742905e-007
-1.718337e-006
-2.818994e-006
-4.202781e-006
-5.406108e-006
-5.178800e-006
-1.094869e-006
1.033719e-005
3.218810e-005
6.324921e-005
9.144710e-005
8.624138e-005
-3.939549e-006
-2.398362e-004
-6.594045e-004
-1.229827e-003
-1.806331e-003
-2.132520e-003
-1.940652e-003
-1.127081e-003
1.653673e-004
1.640377e-003
3.011015e-003
4.101818e-003
4.857436e-003
5.301053e-003
5.490252e-003
5.489114e-003
5.355025e-003
5.134005e-003
4.860157e-003
4.557008e-003
4.239592e-003
3.916670e-003
3.592750e-003
3.269749e-003
2.948268e-003
2.628500e-003
2.310834e-003
1.996193e-003
1.686163e-003
1.382954e-003
1.089240e-003
8.079362e-004
5.419497e-004
2.939637e-004
6.627830e-005
-1.392654e-004
-3.212778e-004
-4.787348e-004
-6.108289e-004
-7.167683e-004
-7.955361e-004
-8.456088e-004
-8.646311e-004
-8.490350e-004
-7.935935e-004
-6.909120e-004
-5.308877e-004
-3.002389e-004
1.767417e-005
4.422974e-004
9.938092e-004
1.688189e-003
2.527312e-003
3.481152e-003
4.459688e-003
5.278255e-003
5.639977e-003
5.193468e-003
3.737801e-003
1.538920e-003
-5.745446e-004
-1.735191e-003
-1.776175e-003
-1.208603e-003
-5.842234e-004
-1.616657e-004
3.668492e-005
8.709439e-005
7.095386e-005
3.977698e-005
1.534095e-005
1.873894e-006
-3.362016e-006
-4.192558e-006
-3.342042e-006
-2.206688e-006
-1.298220e-006
-7.011471e-007
-3.530384e-007
-1.713057e-007
-9.551787e-008
2.540441e-009
-6.012970e-009
-3.049574e-008
-8.635042e-008
-2.003579e-007
-4.177076e-007
-8.100992e-007
-1.475329e-006
-2.507503e-006
-3.895702e-006
-5.280953e-006
-5.511071e-006
-2.088020e-006
8.976172e-006
3.170824e-005
6.534700e-005
9.467894e-005
7.701284e-005
-6.414178e-005
-4.179861e-004
-1.016918e-003
-1.716935e-003
-2.093161e-003
-1.560567e-003
9.334934e-005
2.333117e-003
4.285436e-003
5.393959e-003
5.602094e-003
5.145646e-003
4.317792e-003
3.350690e-003
2.391063e-003
1.516556e-003
7.593509e-004
1.249133e-004
-3.954932e-004
-8.169741e-004
-1.156319e-003
-1.429395e-003
-1.649903e-003
-1.828975e-003
-1.975245e-003
-2.095169e-003
-2.193429e-003
-2.273357e-003
-2.337321e-003
-2.387070e-003
-2.424010e-003
-2.449416e-003
-2.464574e-003
-2.470863e-003
-2.469784e-003
-2.462947e-003
-2.452043e-003
-2.438798e-003
-2.424939e-003
-2.412151e-003
-2.402062e-003
-2.396218e-003
-2.396061e-003
-2.402898e-003
-2.417824e-003
-2.441603e-003
-2.474425e-003
-2.515506e-003
-2.562383e-003
-2.609740e-003
-2.647444e-003
-2.657347e-003
-2.608280e-003
-2.448884e-003
-2.099417e-003
-1.448226e-003
-3.685532e-004
1.215333e-003
3.183626e-003
5.025864e-003
5.798542e-003
4.638529e-003
1.849051e-003
-7.986548e-004
-1.817157e-003
-1.468185e-003
-7.492700e-004
-2.207984e-004
2.597137e-005
8.694658e-005
6.932153e-005
3.653067e-005
1.247123e-005
2.896572e-007
-3.815340e-006
-4.026050e-006
-2.976448e-006
-1.862538e-006
-1.048119e-006
-5.467006e-007
-2.765496e-007
-1.618689e-007
-4.833885e-009
-1.993351e-008
-6.005973e-008
-1.469609e-007
-3.192402e-007
-6.406056e-007
-1.205647e-006
-2.125328e-006
-3.452355e-006
-4.971906e-006
-5.761560e-006
-3.522134e-006
5.905868e-006
2.754262e-005
6.229373e-005
9.492849e-005
7.476535e-005
-9.831212e-005
-5.459041e-004
-1.287092e-003
-1.988335e-003
-1.770600e-003
1.755318e-004
3.173153e-003
5.362546e-003
5.679318e-003
4.469431e-003
2.631826e-003
8.637702e-004
-5.179625e-004
-1.464438e-003
-2.048674e-003
-2.371889e-003
-2.522154e-003
-2.564039e-003
-2.541055e-003
-2.481177e-003
-2.401823e-003
-2.313502e-003
-2.222294e-003
-2.131502e-003
-2.042732e-003
-1.956612e-003
-1.873250e-003
-1.792533e-003
-1.714303e-003
-1.638469e-003
-1.565046e-003
-1.494177e-003
-1.426119e-003
-1.361219e-003
-1.299886e-003
-1.242562e-003
-1.189704e-003
-1.141765e-003
-1.099200e-003
-1.062468e-003
-1.032055e-003
-1.008505e-003
-9.924498e-004
-9.846654e-004
-9.861230e-004
-9.980619e-004
-1.022075e-003
-1.060212e-003
-1.115105e-003
-1.190106e-003
-1.289420e-003
-1.418157e-003
-1.582152e-003
-1.787124e-003
-2.036265e-003
-2.324336e-003
-2.624614e-003
-2.862950e-003
-2.874471e-003
-2.357128e-003
-9.054850e-004
1.669392e-003
4.620163e-003
5.930781e-003
4.022367e-003
4.326106e-004
-1.639696e-003
-1.588520e-003
-8.170111e-004
-2.273017e-004
3.274792e-005
8.695387e-005
6.353108e-005
3.017089e-005
8.296197e-006
-1.518158e-006
-4.124427e-006
-3.698271e-006
-2.523916e-006
-1.494047e-006
-8.090085e-007
-4.248082e-007
-2.582757e-007
-1.759808e-008
-4.184825e-008
-1.035157e-007
-2.324345e-007
-4.820774e-007
-9.376433e-007
-1.714054e-006
-2.911973e-006
-4.462576e-006
-5.747296e-006
-4.904344e-006
1.957996e-006
2.051712e-005
5.417925e-005
9.161111e-005
8.236269e-005
-8.884877e-005
-5.795808e-004
-1.416806e-003
-2.071273e-003
-1.139786e-003
2.110043e-003
5.325098e-003
5.671065e-003
3.426664e-003
6.277157e-004
-1.386127e-003
-2.402494e-003
-2.714663e-003
-2.649017e-003
-2.422180e-003
-2.149774e-003
-1.884843e-003
-1.647663e-003
-1.443120e-003
-1.269600e-003
-1.123192e-003
-9.995160e-004
-8.944724e-004
-8.044905e-004
-7.265821e-004
-6.583130e-004
-5.977456e-004
-5.433732e-004
-4.940546e-004
-4.489508e-004
-4.074674e-004
-3.692005e-004
-3.338895e-004
-3.013757e-004
-2.715675e-004
-2.444140e-004
-2.198852e-004
-1.979605e-004
-1.786230e-004
-1.618606e-004
-1.476718e-004
-1.360752e-004
-1.271238e-004
-1.209223e-004
-1.176504e-004
-1.175926e-004
-1.211791e-004
-1.290418e-004
-1.420947e-004
-1.616497e-004
-1.895886e-004
-2.286180e-004
-2.826531e-004
-3.573854e-004
-4.610957e-004
-6.057245e-004
-8.080137e-004
-1.089909e-003
-1.475689e-003
-1.978894e-003
-2.562548e-003
-3.042070e-003
-2.916028e-003
-1.315613e-003
2.176687e-003
5.585151e-003
5.205654e-003
1.281209e-003
-1.511245e-003
-1.597727e-003
-7.732864e-004
-1.788095e-004
5.286946e-005
8.452086e-005
5.364220e-005
2.181695e-005
3.792886e-006
-3.042427e-006
-4.131772e-006
-3.211548e-006
-2.029714e-006
-1.146694e-006
-6.243296e-007
-3.919927e-007
-3.775388e-008
-7.397905e-008
-1.637688e-007
-3.470533e-007
-6.948763e-007
-1.314631e-006
-2.331309e-006
-3.790797e-006
-5.376319e-006
-5.793496e-006
-1.834646e-006
1.214813e-005
4.188890e-005
8.269364e-005
9.379079e-005
-3.935356e-005
-5.058334e-004
-1.390859e-003
-2.095817e-003
-7.520111e-004
3.328475e-003
6.019598e-003
4.211402e-003
4.662583e-004
-2.049913e-003
-2.839600e-003
-2.668936e-003
-2.184348e-003
-1.686625e-003
-1.271894e-003
-9.520794e-004
-7.127027e-004
-5.349656e-004
-4.026112e-004
-3.032088e-004
-2.277047e-004
-1.696180e-004
-1.243176e-004
-8.847520e-005
-5.968076e-005
-3.617801e-005
-1.668367e-005
-2.610826e-007
1.377003e-005
2.590002e-005
3.647924e-005
4.575642e-005
5.390831e-005
6.106273e-005
6.731607e-005
7.274625e-005
7.742171e-005
8.140714e-005
8.476646e-005
8.756374e-005
8.986263e-005
9.172472e-005
9.320717e-005
9.435983e-005
9.522155e-005
9.581539e-005
9.614190e-005
9.616916e-005
9.581747e-005
9.493534e-005
9.326086e-005
9.035842e-005
8.551278e-005
7.754827e-005
6.451629e-005
4.315319e-005
7.945215e-006
-5.045168e-005
-1.477679e-004
-3.098727e-004
-5.770564e-004
-1.004816e-003
-1.647013e-003
-2.480863e-003
-3.183435e-003
-2.723723e-003
3.709070e-004
4.921610e-003
5.566997e-003
1.386110e-003
-1.585622e-003
-1.502196e-003
-6.275787e-004
-9.411231e-005
7.435840e-005
7.643420e-005
4.059287e-005
1.302666e-005
-8.874526e-008
-3.939409e-006
-3.802023e-006
-2.623975e-006
-1.558862e-006
-8.811126e-007
-5.696617e-007
-6.678423e-008
-1.180392e-007
-2.431040e-007
-4.939313e-007
-9.608334e-007
-1.770441e-006
-3.037074e-006
-4.682364e-006
-5.969825e-006
-4.616887e-006
4.232302e-006
2.746784e-005
6.715486e-005
9.853550e-005
2.665505e-005
-3.472008e-004
-1.204165e-003
-2.098381e-003
-9.367421e-004
3.550460e-003
6.056244e-003
2.888097e-003
-1.290579e-003
-2.888308e-003
-2.647032e-003
-1.902973e-003
-1.229528e-003
-7.471839e-004
-4.309399e-004
-2.310194e-004
-1.062034e-004
-2.832684e-005
2.048804e-005
5.126016e-005
7.072534e-005
8.301523e-005
9.069044e-005
9.536057e-005
9.805272e-005
9.943067e-005
9.992679e-005
9.982333e-005
9.930408e-005
9.848830e-005
9.745342e-005
9.625073e-005
9.491599e-005
9.347674e-005
9.195713e-005
9.038085e-005
8.877289e-005
8.716022e-005
8.557192e-005
8.403894e-005
8.259371e-005
8.126984e-005
8.010203e-005
7.912620e-005
7.837999e-005
7.790346e-005
7.774011e-005
7.793801e-005
7.855090e-005
7.963917e-005
8.127004e-005
8.351632e-005
8.645144e-005
9.013657e-005
9.458982e-005
9.971665e-005
1.051568e-004
1.099547e-004
1.118622e-004
1.058958e-004
8.145838e-005
1.696865e-005
-1.289778e-004
-4.283972e-004
-9.848455e-004
-1.881450e-003
-2.951194e-003
-3.156074e-003
-3.120254e-004
4.825827e-003
5.361099e-003
7.138898e-004
-1.767318e-003
-1.275163e-003
-4.153697e-004
-5.090971e-006
8.494969e-005
6.181980e-005
2.644032e-005
5.366276e-006
-2.725649e-006
-4.122497e-006
-3.220299e-006
-2.034207e-006
-1.197423e-006
-7.964901e-007
-1.055084e-007
-1.750011e-007
-3.427536e-007
-6.742442e-007
-1.279119e-006
-2.295505e-006
-3.794358e-006
-5.479363e-006
-5.991929e-006
-1.770611e-006
1.370444e-005
4.693475e-005
8.950302e-005
7.901741e-005
-1.579127e-004
-8.774432e-004
-1.957182e-003
-1.581319e-003
2.736408e-003
6.068077e-003
2.635648e-003
-1.868511e-003
-2.936811e-003
-2.174533e-003
-1.245711e-003
-6.035445e-004
-2.352492e-004
-4.412799e-005
4.788188e-005
8.849149e-005
1.036624e-004
1.067192e-004
1.042881e-004
9.959974e-005
9.419831e-005
8.879743e-005
8.370395e-005
7.902708e-005
7.478169e-005
7.093937e-005
6.745386e-005
6.427413e-005
6.135112e-005
5.864132e-005
5.610858e-005
5.372460e-005
5.146891e-005
4.932820e-005
4.729539e-005
4.536854e-005
4.354978e-005
4.184424e-005
4.025916e-005
3.880319e-005
3.748598e-005
3.631807e-005
3.531096e-005
3.447764e-005
3.383323e-005
3.339607e-005
3.318911e-005
3.324164e-005
3.359175e-005
3.428943e-005
3.540097e-005
3.701510e-005
3.925164e-005
4.227378e-005
4.630453e-005
5.164673e-005
5.870053e-005
6.795650e-005
7.989995e-005
9.465228e-005
1.109214e-004
1.233061e-004
1.161010e-004
5.086305e-005
-1.533784e-004
-6.360514e-004
-1.553953e-003
-2.810365e-003
-3.196530e-003
8.472706e-005
5.395086e-003
4.427518e-003
-4.635793e-004
-1.796929e-003
-9.213427e-004
-1.955640e-004
5.855453e-005
7.930685e-005
4.316117e-005
1.368421e-005
-1.089920e-007
-3.969168e-006
-3.738835e-006
-2.549797e-006
-1.570559e-006
-1.075307e-006
-1.542305e-007
-2.450929e-007
-4.626216e-007
-8.866444e-007
-1.644168e-006
-2.871883e-006
-4.553523e-006
-6.063974e-006
-5.217307e-006
3.016886e-006
2.637181e-005
6.788519e-005
9.860271e-005
-1.531875e-006
-4.915961e-004
-1.553955e-003
-2.164198e-003
9.408827e-004
5.757423e-003
3.594944e-003
-1.595569e-003
-2.883290e-003
-1.919677e-003
-8.973643e-004
-2.936100e-004
-1.433201e-005
8.984358e-005
1.155823e-004
1.114502e-004
9.844786e-005
8.455999e-005
7.232059e-005
6.221007e-005
5.403723e-005
4.745355e-005
4.212387e-005
3.777051e-005
3.417516e-005
3.116920e-005
2.862265e-005
2.643505e-005
2.452859e-005
2.284316e-005
2.133274e-005
1.996266e-005
1.870739e-005
1.754874e-005
1.647430e-005
1.547610e-005
1.454943e-005
1.369189e-005
1.290260e-005
1.218161e-005
1.152950e-005
1.094712e-005
1.043562e-005
9.996477e-006
9.631745e-006
9.344448e-006
9.139079e-006
9.022291e-006
9.003812e-006
9.097710e-006
9.324184e-006
9.712208e-006
1.030359e-005
1.115939e-005
1.237025e-005
1.407346e-005
1.648100e-005
1.992547e-005
2.493218e-005
3.232113e-005
4.331152e-005
5.949116e-005
8.219649e-005
1.100802e-004
1.320986e-004
1.110381e-004
-4.639081e-005
-5.190637e-004
-1.521587e-003
-2.907713e-003
-2.913748e-003
1.601660e-003
5.948435e-003
2.498829e-003
-1.530763e-003
-1.500619e-003
-5.221063e-004
-2.671063e-005
8.352432e-005
6.087238e-005
2.476368e-005
4.189282e-006
-3.139007e-006
-4.084780e-006
-3.072113e-006
-1.992214e-006
-1.405688e-006
-2.127651e-007
-3.277554e-007
-6.011382e-007
-1.127087e-006
-2.045892e-006
-3.475293e-006
-5.260292e-006
-6.331633e-006
-3.502421e-006
9.744129e-006
4.132783e-005
8.627407e-005
8.293517e-005
-1.625908e-004
-9.633848e-004
-2.143708e-003
-1.163518e-003
4.126742e-003