# vtk DataFile Version 3.0
vtk output
ASCII
DATASET STRUCTURED_POINTS
DIMENSIONS 100 100 1
SPACING 1 1 1
ORIGIN 0 0 0
POINT_DATA 10000
SCALARS SFBox_profile double
LOOKUP_TABLE default 
0.000000e+000
0.000000e+000
0.000000e+000
0.000000e+000
0.000000e+000
0.000000e+000
0.000000e+000
0.000000e+000
0.000000e+000
0.000000e+000
0.000000e+000
0.000000e+000
0.000000e+000
0.000000e+000
0.000000e+000
0.000000e+000
0.000000e+000
0.000000e+000
0.000000e+000
0.000000e+000
0.000000e+000
0.000000e+000
0.000000e+000
0.000000e+000
0.000000e+000
0.000000e+000
0.000000e+000
0.000000e+000
0.000000e+000
0.000000e+000
0.000000e+000
0.000000e+000
0.000000e+000
0.000000e+000
0.000000e+000
0.000000e+000
0.000000e+000
0.000000e+000
0.000000e+000
0.000000e+000
0.000000e+000
0.000000e+000
0.000000e+000
0.000000e+000
0.000000e+000
0.000000e+000
0.000000e+000
0.000000e+000
0.000000e+000
0.000000e+000
0.000000e+000
0.000000e+000
0.000000e+000
0.000000e+000
0.000000e+000
0.000000e+000
0.000000e+000
0.000000e+000
0.000000e+000
0.000000e+000
0.000000e+000
0.000000e+000
0.000000e+000
0.000000e+000
0.000000e+000
0.000000e+000
0.000000e+000
0.000000e+000
0.000000e+000
0.000000e+000
0.000000e+000
0.000000e+000
0.000000e+000
0.000000e+000
0.000000e+000
0.000000e+000
0.000000e+000
0.000000e+000
0.000000e+000
0.000000e+000
0.000000e+000
0.000000e+000
0.000000e+000
0.000000e+000
0.000000e+000
0.000000e+000
0.000000e+000
0.000000e+000
0.000000e+000
0.000000e+000
0.000000e+000
0.000000e+000
0.000000e+000
0.000000e+000
0.000000e+000
0.000000e+000
0.000000e+000
0.000000e+000
0.000000e+000
0.000000e+000
-4.324613e-009
-3.027333e-009
-9.884148e-010
9.264049e-010
1.937584e-009
1.725345e-009
5.874859e-010
-7.279283e-010
-1.449711e-009
-1.232668e-009
-3.450180e-010
5.447086e-010
8.505974e-010
4.799515e-010
-1.415627e-010
-4.530207e-010
-2.314416e-010
2.520897e-010
5.234094e-010
3.606328e-010
-2.216742e-011
-2.261105e-010
-8.072862e-011
2.064110e-010
3.000105e-010
1.017290e-010
-1.603847e-010
-1.932721e-010
5.076916e-011
3.473124e-010
4.604071e-010
3.864612e-010
3.236045e-010
4.302516e-010
6.577487e-010
8.294669e-010
8.492227e-010
7.937900e-010
8.024650e-010
9.128766e-010
1.033078e-009
1.062636e-009
1.006577e-009
9.554869e-010
9.734030e-010
1.032489e-009
1.059583e-009
1.024220e-009
9.639129e-010
9.310422e-010
9.346822e-010
9.405862e-010
9.159451e-010
8.620719e-010
8.058404e-010
7.692490e-010
7.496458e-010
7.230003e-010
6.631447e-010
5.636759e-010
4.467060e-010
3.462818e-010
2.757350e-010
2.131406e-010
1.293069e-010
3.332096e-011
-2.217181e-011
4.070342e-012
8.359348e-011
1.325682e-010
9.600497e-011
8.704108e-012
-4.430691e-011
-2.727301e-011
7.107585e-012
-7.799518e-012
-5.425939e-011
-3.961169e-011
8.122649e-011
2.153779e-010
2.026617e-010
-7.120472e-012
-2.660963e-010
-3.473222e-010
-1.641413e-010
1.369589e-010
3.108328e-010
2.389496e-010
1.984266e-011
-1.504508e-010
-1.664254e-010
-7.865858e-011
1.554939e-012
2.730724e-011
3.509054e-011
6.342696e-011
8.868071e-011
5.702240e-011
-3.512603e-011
-1.183922e-010
-3.451702e-010
-2.865424e-010
-1.677926e-010
-1.122406e-011
1.223518e-010
1.607122e-010
7.790123e-011
-6.718996e-011
-1.566867e-010
-1.002258e-010
8.004815e-011
2.453531e-010
2.430005e-010
4.493103e-011
-2.049569e-010
-3.012002e-010
-1.631066e-010
8.018965e-011
2.053821e-010
1.114918e-010
-7.991697e-011
-1.503219e-010
-9.399494e-012
2.169453e-010
3.274076e-010
2.591587e-010
1.429601e-010
1.477723e-010
2.950602e-010
4.469597e-010
4.694163e-010
3.783950e-010
3.095685e-010
3.596069e-010
4.857381e-010
5.690505e-010
5.546908e-010
5.047569e-010
5.145411e-010
6.017010e-010
6.960705e-010
7.290621e-010
7.089864e-010
6.992404e-010
7.378292e-010
7.978995e-010
8.274725e-010
8.106691e-010
7.781030e-010
7.643617e-010
7.700671e-010
7.687512e-010
7.404595e-010
6.901027e-010
6.369137e-010
5.949390e-010
5.647245e-010
5.368711e-010
4.999825e-010
4.501162e-010
3.976014e-010
3.610157e-010
3.469655e-010
3.362238e-010
2.991556e-010
2.304639e-010
1.619060e-010
1.300226e-010
1.319260e-010
1.253646e-010
8.008731e-011
2.003403e-011
-1.156134e-012
3.153763e-011
6.668977e-011
4.198043e-011
-3.687665e-011
-9.181152e-011
-5.784684e-011
3.698828e-011
9.474861e-011
5.413416e-011
-3.964337e-011
-8.385472e-011
-3.225277e-011
5.508442e-011
8.128829e-011
2.048679e-011
-5.774060e-011
-7.012124e-011
-1.080548e-011
4.920996e-011
4.645644e-011
-6.848410e-012
-4.450708e-011
-2.559964e-011
2.210000e-011
4.004158e-011
8.869729e-012
-3.141752e-011
4.047357e-009
2.772734e-009
8.129904e-010
-9.536868e-010
-1.803646e-009
-1.519798e-009
-4.657233e-010
6.566435e-010
1.225092e-009
1.039316e-009
3.760146e-010
-2.638797e-010
-5.192514e-010
-3.751783e-010
-8.434392e-011
8.721114e-011
5.828327e-011
-6.722775e-011
-1.445682e-010
-1.157762e-010
-2.003659e-011
8.018085e-011
1.609776e-010
2.371490e-010
3.270818e-010
4.300557e-010
5.297130e-010
6.065563e-010
6.462114e-010
6.462725e-010
6.229309e-010
6.066386e-010
6.209898e-010
6.614297e-010
6.990604e-010
7.107013e-010
7.044466e-010
7.112892e-010
7.510397e-010
8.112206e-010
8.628124e-010
8.931890e-010
9.170072e-010
9.539111e-010
1.002322e-009
1.041325e-009
1.056102e-009
1.053891e-009
1.051988e-009
1.055452e-009
1.052790e-009
1.032076e-009
9.943475e-010
9.484545e-010
8.982509e-010
8.412419e-010
7.786695e-010
7.200805e-010
6.746762e-010
6.421168e-010
6.163228e-010
5.959752e-010
5.845296e-010
5.777897e-010
5.573040e-010
5.030619e-010
4.134544e-010
3.086691e-010
2.130377e-010
1.377459e-010
8.328902e-011
5.348599e-011
5.678414e-011
8.858743e-011
1.177508e-010
1.017392e-010
2.326499e-011
-8.654591e-011
-1.638811e-010
-1.558580e-010
-5.725357e-011
8.451915e-011
1.947186e-010
2.100105e-010
1.136248e-010
-4.854543e-011
-1.855968e-010
-2.137741e-010
-1.146952e-010
4.615351e-011
1.631493e-010
1.666566e-010
7.006438e-011
-4.947991e-011
-1.153138e-010
-1.034704e-010
-4.450105e-011
1.466395e-011
4.829460e-011
5.921054e-011
4.847096e-009
3.392099e-009
1.121763e-009
-9.817622e-010
-2.058618e-009
-1.789028e-009
-5.477345e-010
8.144990e-010
1.472423e-009
1.122965e-009
1.450638e-010
-7.082624e-010
-8.730535e-010
-3.650715e-010
3.033491e-010
5.896015e-010
3.593382e-010
-6.824222e-011
-2.649749e-010
-8.111301e-011
2.734423e-010
4.848848e-010
4.453209e-010
3.198178e-010
3.421032e-010
5.733645e-010
8.632461e-010
1.023864e-009
1.017449e-009
9.710997e-010
1.028109e-009
1.206018e-009
1.400584e-009
1.508642e-009
1.528135e-009
1.539259e-009
1.606667e-009
1.715990e-009
1.803434e-009
1.831449e-009
1.823999e-009
1.831504e-009
1.873615e-009
1.923263e-009
1.942397e-009
1.924283e-009
1.896917e-009
1.889118e-009
1.899889e-009
1.903218e-009
1.879180e-009
1.834903e-009
1.793210e-009
1.763974e-009
1.731604e-009
1.672564e-009
1.582547e-009
1.482283e-009
1.395418e-009
1.323490e-009
1.246341e-009
1.147436e-009
1.034899e-009
9.330722e-010
8.527357e-010
7.740150e-010
6.644023e-010
5.155324e-010
3.587974e-010
2.399936e-010
1.778961e-010
1.513664e-010
1.289308e-010
1.054421e-010
1.001237e-010
1.161479e-010
1.138969e-010
4.302189e-011
-8.965513e-011
-1.945642e-010
-1.648565e-010
1.457354e-011
2.244261e-010
2.951006e-010
1.540042e-010
-1.008961e-010
-2.776425e-010
-2.514308e-010
-6.295179e-011
1.313763e-010
2.000846e-010
1.328201e-010
1.585443e-011
-6.468300e-011
-8.648128e-011
-7.445434e-011
-4.970660e-011
-1.175347e-011
3.754344e-011
7.525472e-011
1.195626e-009
9.234829e-010
4.470980e-010
-8.119576e-011
-4.446495e-010
-4.628808e-010
-1.355122e-010
2.962189e-010
4.781751e-010
2.163153e-010
-3.236810e-010
-7.039939e-010
-5.685217e-010
2.983564e-011
6.449573e-010
8.164038e-010
4.777336e-010
8.961364e-012
-1.225898e-010
2.094830e-010
7.022654e-010
9.451958e-010
8.191073e-010
5.800823e-010
5.703786e-010
8.739182e-010
1.265083e-009
1.473666e-009
1.464081e-009
1.440393e-009
1.601125e-009
1.926986e-009
2.220919e-009
2.330076e-009
2.294340e-009
2.273755e-009
2.360747e-009
2.492511e-009
2.542832e-009
2.468804e-009
2.346527e-009
2.274095e-009
2.266904e-009
2.259232e-009
2.192977e-009
2.083297e-009
1.994076e-009
1.964540e-009
1.973692e-009
1.973960e-009
1.946818e-009
1.918499e-009
1.925951e-009
1.975257e-009
2.034921e-009
2.065748e-009
2.054403e-009
2.018729e-009
1.982000e-009
1.942533e-009
1.870162e-009
1.736499e-009
1.550662e-009
1.360648e-009
1.211779e-009
1.102174e-009
9.863955e-010
8.294022e-010
6.519818e-010
5.108277e-010
4.306757e-010
3.697537e-010
2.688650e-010
1.331124e-010
4.349080e-011
6.838177e-011
1.687236e-010
2.157630e-010
1.208333e-010
-5.937420e-011
-1.677499e-010
-1.071774e-010
5.301897e-011
1.447602e-010
7.571080e-011
-7.596108e-011
-1.483302e-010
-6.849888e-011
7.543702e-011
1.358272e-010
6.298910e-011
-5.283943e-011
-9.096677e-011
-2.999783e-011
4.454508e-011
4.960000e-011
-4.165301e-012
-4.029195e-011
-1.739233e-011
2.470872e-011
-3.736819e-009
-2.496385e-009
-6.495186e-010
9.086845e-010
1.537026e-009
1.179926e-009
3.085981e-010
-4.612405e-010
-7.740055e-010
-6.659277e-010
-3.812231e-010
-1.015348e-010
1.496344e-010
3.909357e-010
5.532809e-010
5.230557e-010
3.120699e-010
1.287787e-010
2.193865e-010
6.184794e-010
1.083832e-009
1.314767e-009
1.244944e-009
1.102897e-009
1.170909e-009
1.495185e-009
1.852555e-009
1.999160e-009
1.922871e-009
1.828568e-009
1.889269e-009
2.050572e-009
2.100264e-009
1.908599e-009
1.562223e-009
1.252891e-009
1.064720e-009
9.029991e-010
6.271102e-010
2.176548e-010
-2.103594e-010
-5.426382e-010
-7.796701e-010
-1.007213e-009
-1.277978e-009
-1.549534e-009
-1.737898e-009
-1.808293e-009
-1.797403e-009
-1.756042e-009
-1.689519e-009
-1.559226e-009
-1.330536e-009
-1.008884e-009
-6.336195e-010
-2.473527e-010
1.270955e-010
4.879006e-010
8.379003e-010
1.163324e-009
1.425616e-009
1.581311e-009
1.620347e-009
1.584141e-009
1.533754e-009
1.492591e-009
1.427771e-009
1.298666e-009
1.118864e-009
9.511521e-010
8.321045e-010
7.184380e-010
5.351447e-010
2.827827e-010
7.309936e-011
2.977919e-011
1.503991e-010
2.874242e-010
2.834676e-010
1.218572e-010
-6.842883e-011
-1.534028e-010
-1.208554e-010
-5.972304e-011
-3.482131e-011
-1.627514e-011
5.494476e-011
1.572999e-010
1.840156e-010
6.386706e-011
-1.326661e-010
-2.388082e-010
-1.550683e-010
4.417912e-011
1.818201e-010
1.536528e-010
2.083120e-011
-7.393775e-011
-6.387153e-011
-1.207016e-011
-5.498547e-009
-3.775829e-009
-1.157049e-009
1.136829e-009
2.140350e-009
1.655748e-009
3.109248e-010
-8.908376e-010
-1.232337e-009
-6.913069e-010
1.767302e-010
7.396850e-010
7.458961e-010
3.991989e-010
7.844150e-011
1.347322e-011
1.896264e-010
4.787248e-010
7.919984e-010
1.102886e-009
1.382711e-009
1.582593e-009
1.694219e-009
1.787118e-009
1.938082e-009
2.117982e-009
2.181552e-009
1.996679e-009
1.575083e-009
1.047741e-009
5.049028e-010
-1.144935e-010
-9.508330e-010
-2.050772e-009
-3.296311e-009
-4.519389e-009
-5.666940e-009
-6.825936e-009
-8.087844e-009
-9.418525e-009
-1.068194e-008
-1.177679e-008
-1.271884e-008
-1.358137e-008
-1.437961e-008
-1.503879e-008
-1.547037e-008
-1.565282e-008
-1.562516e-008
-1.541787e-008
-1.501280e-008
-1.437151e-008
-1.348417e-008
-1.238084e-008
-1.110685e-008
-9.703842e-009
-8.213380e-009
-6.682913e-009
-5.160052e-009
-3.689934e-009
-2.326905e-009
-1.139359e-009
-1.834437e-010
5.344459e-010
1.056692e-009
1.425183e-009
1.640595e-009
1.685734e-009
1.586608e-009
1.426137e-009
1.277706e-009
1.133594e-009
9.253086e-010
6.265672e-010
3.199902e-010
1.383744e-010
1.355351e-010
2.288144e-010
2.776542e-010
2.112693e-010
7.191883e-011
-5.373684e-011
-1.193911e-010
-1.284994e-010
-8.750468e-011
1.031494e-011
1.420012e-010
2.240910e-010
1.663348e-010
-2.592361e-011
-2.200949e-010
-2.575329e-010
-1.027590e-010
1.132804e-010
2.113409e-010
1.304635e-010
-2.488254e-011
-1.020434e-010
-5.527002e-011
2.362972e-011
-2.389706e-009
-1.688621e-009
-5.739996e-010
4.631443e-010
9.380477e-010
6.614184e-010
-8.741857e-011
-7.028097e-010
-6.789602e-010
-6.295907e-012
8.109389e-010
1.163693e-009
8.383026e-010
1.764678e-010
-2.348868e-010
-5.276955e-011
5.862061e-010
1.254824e-009
1.626330e-009
1.699058e-009
1.696124e-009
1.800266e-009
1.992674e-009
2.102229e-009
1.954175e-009
1.458650e-009
5.971491e-010
-6.245132e-010
-2.197406e-009
-4.114079e-009
-6.381012e-009
-9.021053e-009
-1.203737e-008
-1.536524e-008
-1.887780e-008
-2.246027e-008
-2.607612e-008
-2.974263e-008
-3.343752e-008
-3.704763e-008
-4.042531e-008
-4.348739e-008
-4.623791e-008
-4.869000e-008
-5.078547e-008
-5.240884e-008
-5.347117e-008
-5.395672e-008
-5.388187e-008
-5.323054e-008
-5.195244e-008
-5.002092e-008
-4.747135e-008
-4.437629e-008
-4.080249e-008
-3.681249e-008
-3.250295e-008
-2.801746e-008
-2.351008e-008
-1.910717e-008
-1.491659e-008
-1.106148e-008
-7.676206e-009
-4.853594e-009
-2.605484e-009
-8.876141e-010
3.437760e-010
1.118601e-009
1.497116e-009
1.601713e-009
1.574831e-009
1.497091e-009
1.359033e-009
1.122722e-009
8.051996e-010
4.926021e-010
2.760201e-010
1.839430e-010
1.763562e-010
1.896206e-010
1.778967e-010
1.247472e-010
4.102139e-011
-3.695730e-011
-6.255981e-011
-1.679512e-011
6.104668e-011
9.437736e-011
3.840060e-011
-6.803114e-011
-1.293781e-010
-8.285210e-011
3.635073e-011
1.229218e-010
9.934185e-011
-1.055822e-011
-1.039428e-010
-9.567451e-011
2.870296e-012
9.643580e-011
2.918441e-009
1.923969e-009
5.208608e-010
-5.585786e-010
-9.354133e-010
-7.380688e-010
-3.423940e-010
-7.746119e-013
2.850314e-010
5.873550e-010
8.357347e-010
8.400472e-010
5.382300e-010
1.729587e-010
1.517073e-010
6.836372e-010
1.551199e-009
2.266194e-009
2.476879e-009
2.234035e-009
1.864193e-009
1.590174e-009
1.274525e-009
5.109758e-010
-1.065591e-009
-3.564994e-009
-6.892614e-009
-1.095370e-008
-1.578223e-008
-2.149232e-008
-2.814186e-008
-3.565432e-008
-4.385138e-008
-5.253931e-008
-6.156985e-008
-7.084267e-008
-8.026401e-008
-8.969801e-008
-9.894988e-008
-1.078020e-007
-1.160792e-007
-1.236803e-007
-1.305387e-007
-1.365489e-007
-1.415428e-007
-1.453472e-007
-1.478542e-007
-1.490212e-007
-1.488028e-007
-1.471077e-007
-1.438427e-007
-1.389938e-007
-1.326495e-007
-1.249431e-007
-1.160011e-007
-1.059677e-007
-9.507368e-008
-8.365187e-008
-7.206884e-008
-6.064689e-008
-4.965830e-008
-3.937431e-008
-3.007919e-008
-2.200877e-008
-1.527486e-008
-9.859592e-009
-5.678795e-009
-2.634682e-009
-6.032006e-010
6.066890e-010
1.245123e-009
1.546981e-009
1.653983e-009
1.604059e-009
1.392585e-009
1.047349e-009
6.573095e-010
3.399761e-010
1.768804e-010
1.650603e-010
2.222193e-010
2.473884e-010
1.933147e-010
9.014601e-011
6.639663e-013
-4.501110e-011
-6.617708e-011
-8.735116e-011
-9.375032e-011
-4.736297e-011
5.273427e-011
1.433342e-010
1.468532e-010
4.951644e-011
-7.876329e-011
-1.463218e-010
-1.174161e-010
-2.863897e-011
5.856461e-011
1.066273e-010
5.790893e-009
3.825782e-009
9.980178e-010
-1.220786e-009
-1.921016e-009
-1.224250e-009
-8.054932e-012
8.236103e-010
9.288090e-010
5.740363e-010
2.331695e-010
1.757276e-010
3.842525e-010
7.526576e-010
1.255829e-009
1.893796e-009
2.529465e-009
2.875278e-009
2.688186e-009
1.949915e-009
7.912286e-010
-7.976426e-010
-3.168117e-009
-6.895652e-009
-1.244660e-008
-1.995697e-008
-2.932088e-008
-4.045674e-008
-5.345381e-008
-6.846104e-008
-8.546286e-008
-1.041838e-007
-1.242014e-007
-1.451300e-007
-1.666981e-007
-1.886770e-007
-2.107697e-007
-2.325782e-007
-2.536722e-007
-2.736845e-007
-2.923514e-007
-3.094687e-007
-3.248118e-007
-3.380930e-007
-3.489973e-007
-3.572592e-007
-3.627003e-007
-3.651860e-007
-3.645528e-007
-3.606001e-007
-3.531717e-007
-3.422487e-007
-3.279586e-007
-3.105097e-007
-2.901468e-007
-2.671973e-007
-2.421551e-007
-2.156933e-007
-1.885732e-007
-1.615334e-007
-1.352515e-007
-1.103751e-007
-8.752683e-008
-6.723207e-008
-4.981510e-008
-3.536135e-008
-2.377374e-008
-1.485853e-008
-8.361008e-009
-3.943465e-009
-1.169926e-009
4.430316e-010
1.319782e-009
1.735894e-009
1.813773e-009
1.606830e-009
1.202295e-009
7.550727e-010
4.247102e-010
2.786715e-010
2.608209e-010
2.604706e-010
2.132413e-010
1.335836e-010
5.991411e-011
-5.552890e-012
-8.263162e-011
-1.508900e-010
-1.397349e-010
-9.417022e-012
1.676744e-010
2.433190e-010
1.359353e-010
-7.179111e-011
-2.018744e-010
-1.557908e-010
-7.396924e-012
8.794230e-011
6.322949e-011
-3.676590e-012
3.857930e-009
2.417175e-009
3.747267e-010
-1.126091e-009
-1.364664e-009
-4.784333e-010
6.991780e-010
1.282930e-009
9.756559e-010
2.151204e-010
-2.542466e-010
1.093735e-011
8.776427e-010
1.859535e-009
2.546233e-009
2.819849e-009
2.726153e-009
2.221975e-009
1.072375e-009
-1.073826e-009
-4.611891e-009
-1.002856e-008
-1.796749e-008
-2.914583e-008
-4.413415e-008
-6.320366e-008
-8.639434e-008
-1.137109e-007
-1.452067e-007
-1.808464e-007
-2.203001e-007
-2.629019e-007
-3.078284e-007
-3.543195e-007
-4.017404e-007
-4.494724e-007
-4.967967e-007
-5.429121e-007
-5.870653e-007
-6.286556e-007
-6.672200e-007
-7.023304e-007
-7.335090e-007
-7.602326e-007
-7.820037e-007
-7.984125e-007
-8.091273e-007
-8.138297e-007
-8.121666e-007
-8.037831e-007
-7.884224e-007
-7.660108e-007
-7.366680e-007
-7.006663e-007
-6.584214e-007
-6.105569e-007
-5.579861e-007
-5.019208e-007
-4.437812e-007
-3.850716e-007
-3.272959e-007
-2.719208e-007
-2.203234e-007
-1.736806e-007
-1.328307e-007
-9.818802e-008
-6.976300e-008
-4.726020e-008
-3.017864e-008
-1.785980e-008
-9.499093e-009
-4.186466e-009
-1.019375e-009
7.478277e-010
1.613571e-009
1.863887e-009
1.694953e-009
1.308935e-009
9.044809e-010
6.004196e-010
4.016279e-010
2.579166e-010
1.490014e-010
9.659079e-011
1.010900e-010
1.032014e-010
4.089975e-011
-6.153396e-011
-9.936201e-011
-8.781442e-012
1.326780e-010
1.656934e-010
2.595115e-011
-1.617607e-010
-2.004215e-010
-3.695647e-011
1.651588e-010
1.930491e-010
1.634051e-011
-1.749497e-010
-9.628295e-010
-8.332313e-010
-6.135210e-010
-3.081661e-010
1.225265e-010
6.442328e-010
1.049798e-009
1.071766e-009
6.673359e-010
1.809675e-010
1.441897e-010
8.331935e-010
1.990302e-009
2.987202e-009
3.274308e-009
2.676433e-009
1.258872e-009
-1.084931e-009
-4.934311e-009
-1.130644e-008
-2.140268e-008
-3.639724e-008
-5.737751e-008
-8.533843e-008
-1.211146e-007
-1.652733e-007
-2.180679e-007
-2.794648e-007
-3.491480e-007
-4.264450e-007
-5.102559e-007
-5.991252e-007
-6.914589e-007
-7.857339e-007
-8.805464e-007
-9.745262e-007
-1.066278e-006
-1.154453e-006
-1.237896e-006
-1.315694e-006
-1.387101e-006
-1.451398e-006
-1.507841e-006
-1.555697e-006
-1.594312e-006
-1.623121e-006
-1.641590e-006
-1.649156e-006
-1.645228e-006
-1.629258e-006
-1.600823e-006
-1.559692e-006
-1.505844e-006
-1.439495e-006
-1.361155e-006
-1.271715e-006
-1.172529e-006
-1.065445e-006
-9.527573e-007
-8.371235e-007
-7.214361e-007
-6.086774e-007
-5.017435e-007
-4.032341e-007
-3.152247e-007
-2.390719e-007
-1.753234e-007
-1.237698e-007
-8.360520e-008
-5.360574e-008
-3.226277e-008
-1.788694e-008
-8.749644e-009
-3.278252e-009
-2.279181e-010
1.270145e-009
1.794455e-009
1.755974e-009
1.456803e-009
1.084220e-009
7.184432e-010
3.949388e-010
1.654282e-010
8.304569e-011
1.315092e-010
2.036339e-010
1.863479e-010
7.209418e-011
-3.666756e-011
-4.838974e-011
7.519402e-012
1.763832e-011
-6.745521e-011
-1.534713e-010
-1.023447e-010
9.091218e-011
2.557120e-010
2.099750e-010
-3.616490e-011
-2.665920e-010
-4.510501e-009
-2.958247e-009
-7.919590e-010
8.392440e-010
1.379644e-009
1.085633e-009
5.962973e-010
3.686645e-010
4.870489e-010
8.667953e-010
1.475269e-009
2.285273e-009
3.070772e-009
3.352709e-009
2.587122e-009
3.481721e-010
-3.781619e-009
-1.058677e-008
-2.152420e-008
-3.866712e-008
-6.433403e-008
-1.007072e-007
-1.496710e-007
-2.128217e-007
-2.914426e-007
-3.863351e-007
-4.975929e-007
-6.244673e-007
-7.653840e-007
-9.180667e-007
-1.079721e-006
-1.247273e-006
-1.417624e-006
-1.587854e-006
-1.755296e-006
-1.917526e-006
-2.072388e-006
-2.218075e-006
-2.353210e-006
-2.476793e-006
-2.588053e-006
-2.686292e-006
-2.770855e-006
-2.841169e-006
-2.896762e-006
-2.937189e-006
-2.961936e-006
-2.970383e-006
-2.961850e-006
-2.935667e-006
-2.891205e-006
-2.827882e-006
-2.745190e-006
-2.642807e-006
-2.520734e-006
-2.379444e-006
-2.220016e-006
-2.044268e-006
-1.854897e-006
-1.655556e-006
-1.450788e-006
-1.245799e-006
-1.046121e-006
-8.572015e-007
-6.839350e-007
-5.301782e-007
-3.983498e-007
-2.892641e-007
-2.022590e-007
-1.355258e-007
-8.648297e-008
-5.210172e-008
-2.920356e-008
-1.476659e-008
-6.199403e-009
-1.489504e-009
8.111109e-010
1.697453e-009
1.823044e-009
1.579386e-009
1.176664e-009
7.413834e-010
3.848904e-010
1.938896e-010
1.718388e-010
2.225409e-010
2.239117e-010
1.309235e-010
2.192597e-012
-7.590672e-011
-8.049356e-011
-5.892039e-011
-5.421009e-011
-4.790765e-011
6.909472e-012
1.046499e-010
1.647522e-010
1.083465e-010
-4.590066e-011
-1.793912e-010
-4.294093e-009
-2.389354e-009
1.277767e-010
1.700638e-009
1.674175e-009
6.393537e-010
-2.248201e-010
-1.316985e-010
8.504782e-010
2.097569e-009
3.031505e-009
3.414710e-009
3.156019e-009
1.929264e-009
-1.036486e-009
-6.955202e-009
-1.749360e-008
-3.492923e-008
-6.231081e-008
-1.033644e-007
-1.620870e-007
-2.422388e-007
-3.469763e-007
-4.786465e-007
-6.385695e-007
-8.266991e-007
-1.041284e-006
-1.278775e-006
-1.534114e-006
-1.801290e-006
-2.073951e-006
-2.345918e-006
-2.611554e-006
-2.865998e-006
-3.105305e-006
-3.326487e-006
-3.527529e-006
-3.707351e-006
-3.865697e-006
-4.002908e-006
-4.119657e-006
-4.216763e-006
-4.295130e-006
-4.355741e-006
-4.399592e-006
-4.427548e-006
-4.440210e-006
-4.437888e-006
-4.420633e-006
-4.388224e-006
-4.340048e-006
-4.274953e-006
-4.191203e-006
-4.086576e-006
-3.958574e-006
-3.804651e-006
-3.622536e-006
-3.410707e-006
-3.169038e-006
-2.899435e-006
-2.606228e-006
-2.296183e-006
-1.978163e-006
-1.662464e-006
-1.359841e-006
-1.080292e-006
-8.318035e-007
-6.194484e-007
-4.450749e-007
-3.076064e-007
-2.037152e-007
-1.286159e-007
-7.683173e-008
-4.287736e-008
-2.180105e-008
-9.515133e-009
-2.893431e-009
3.023238e-010
1.570989e-009
1.837663e-009
1.625000e-009
1.218873e-009
7.922001e-010
4.571333e-010
2.616069e-010
1.821427e-010
1.504535e-010
1.051139e-010
3.076008e-011
-4.156482e-011
-6.796334e-011
-3.205750e-011
3.691749e-011
8.268555e-011
6.603242e-011
-2.412287e-013
-5.938394e-011
-6.059465e-011
-6.961036e-012
4.660201e-011
-1.358326e-009
-1.942448e-010
1.194892e-009
1.736343e-009
1.126834e-009
5.697042e-011
-4.028050e-010
3.128461e-010
1.860199e-009
3.327107e-009
3.905936e-009
3.239626e-009
1.136496e-009
-3.085901e-009
-1.112751e-008
-2.584310e-008
-5.112552e-008
-9.179866e-008
-1.535693e-007
-2.428303e-007
-3.661113e-007
-5.292154e-007
-7.362705e-007
-9.888947e-007
-1.285540e-006
-1.621065e-006
-1.986704e-006
-2.370648e-006
-2.759249e-006
-3.138538e-006
-3.495630e-006
-3.819714e-006
-4.102584e-006
-4.338860e-006
-4.525977e-006
-4.664005e-006
-4.755304e-006
-4.804056e-006
-4.815723e-006
-4.796509e-006
-4.752888e-006
-4.691314e-006
-4.618079e-006
-4.539257e-006
-4.460592e-006
-4.387353e-006
-4.324200e-006
-4.275117e-006
-4.243306e-006
-4.230918e-006
-4.238571e-006
-4.264799e-006
-4.305610e-006
-4.354267e-006
-4.401288e-006
-4.434673e-006
-4.440515e-006
-4.404194e-006
-4.312183e-006
-4.154170e-006
-3.925040e-006
-3.626304e-006
-3.266697e-006
-2.861758e-006
-2.432228e-006
-2.001343e-006
-1.591511e-006
-1.221179e-006
-9.027390e-007
-6.418313e-007
-4.379701e-007
-2.860197e-007
-1.780133e-007
-1.048874e-007
-5.784603e-008
-2.922824e-008
-1.289875e-008
-4.283645e-009
-1.976786e-010
1.423620e-009
1.815015e-009
1.650903e-009
1.268250e-009
8.340825e-010
4.510524e-010
1.933262e-010
8.612191e-011
8.133021e-011
8.715642e-011
4.809385e-011
-3.428895e-012
7.080825e-012
9.037295e-011
1.516027e-010
8.169605e-011
-1.047508e-010
-2.488475e-010
-1.946103e-010
3.883355e-011
2.523405e-010
1.427062e-009
1.432287e-009
1.295799e-009
9.141146e-010
4.283398e-010
2.242180e-010
6.755335e-010
1.806335e-009
3.149450e-009
3.926068e-009
3.361194e-009
7.597989e-010
-4.891960e-009
-1.565835e-008
-3.530202e-008
-6.951906e-008
-1.257730e-007
-2.129599e-007
-3.410011e-007
-5.201396e-007
-7.596024e-007
-1.065574e-006
-1.438879e-006
-1.873042e-006
-2.353323e-006
-2.857072e-006
-3.355499e-006
-3.816645e-006
-4.209056e-006
-4.505338e-006
-4.684830e-006
-4.734998e-006
-4.651636e-006
-4.438238e-006
-4.104900e-006
-3.666920e-006
-3.143271e-006
-2.555078e-006
-1.924301e-006
-1.272699e-006
-6.211348e-007
1.079223e-008
6.048317e-007
1.144009e-006
1.612506e-006
1.995580e-006
2.279527e-006
2.451784e-006
2.501271e-006
2.419129e-006
2.199884e-006
1.842884e-006
1.353808e-006
7.460250e-007
4.165413e-008
-7.279084e-007
-1.522415e-006
-2.294618e-006
-2.993807e-006
-3.570826e-006
-3.983929e-006
-4.204586e-006
-4.222190e-006
-4.046553e-006
-3.707188e-006
-3.248987e-006
-2.724934e-006
-2.187536e-006
-1.681118e-006
-1.236792e-006
-8.708838e-007
-5.865169e-007
-3.771761e-007
-2.308653e-007
-1.337254e-007
-7.254912e-008
-3.615239e-008
-1.585729e-008
-5.403397e-009
-5.637156e-010
1.327333e-009
1.809619e-009
1.667691e-009
1.255830e-009
7.634962e-010
3.542617e-010
1.476646e-010
1.344236e-010
1.768042e-010
1.406141e-010
3.044604e-011
-3.173683e-011
2.860419e-011
1.247809e-010
9.688128e-011
-8.701869e-011
-2.588002e-010
-2.167318e-010
4.137146e-011
2.874011e-010
2.401176e-009
1.534636e-009
4.390696e-010
-1.083075e-010
2.572620e-010
1.328457e-009
2.593799e-009
3.582771e-009
3.943247e-009
3.213867e-009
4.758510e-010
-6.007130e-009
-1.924136e-008
-4.412419e-008
-8.808919e-008
-1.614633e-007
-2.772989e-007
-4.506010e-007
-6.968284e-007
-1.029337e-006
-1.455473e-006
-1.971610e-006
-2.558378e-006
-3.177889e-006
-3.774463e-006
-4.279348e-006
-4.618634e-006
-4.722683e-006
-4.535055e-006
-4.019084e-006
-3.161035e-006
-1.969748e-006
-4.736004e-007
1.283999e-006
3.249569e-006
5.364302e-006
7.568202e-006
9.803328e-006
1.201597e-005
1.415780e-005
1.618620e-005
1.806396e-005
1.975849e-005
2.124088e-005
2.248476e-005
2.346533e-005
2.415865e-005
2.454128e-005
2.459059e-005
2.428570e-005
2.360922e-005
2.254983e-005
2.110547e-005
1.928721e-005
1.712323e-005
1.466274e-005
1.197869e-005
9.168254e-006
6.349796e-006
3.655402e-006
1.219026e-006
-8.387697e-007
-2.427184e-006
-3.499297e-006
-4.060156e-006
-4.165876e-006
-3.912974e-006
-3.420107e-006
-2.806877e-006
-2.175235e-006
-1.597925e-006
-1.115606e-006
-7.413027e-007
-4.688189e-007
-2.816261e-007
-1.599027e-007
-8.497621e-008
-4.146675e-008
-1.783081e-008
-6.003610e-009
-6.937782e-010
1.325253e-009
1.819808e-009
1.633103e-009
1.160636e-009
6.649475e-010
3.464054e-010
2.561256e-010
2.639897e-010
1.961476e-010
2.180286e-011
-1.219545e-010
-1.027731e-010
3.805086e-011
1.245912e-010
5.083204e-011
-9.375966e-011
-1.311183e-010
-8.575311e-012
1.358865e-010
2.189974e-009
1.019120e-009
-2.462570e-010
-4.024328e-010
8.663979e-010
2.801441e-009
4.263847e-009
4.525930e-009
3.340805e-009
1.789890e-010
-6.815733e-009
-2.160537e-008
-5.074325e-008
-1.038919e-007
-1.944905e-007
-3.401593e-007
-5.620718e-007
-8.824918e-007
-1.319796e-006
-1.880603e-006
-2.549525e-006
-3.278697e-006
-3.980949e-006
-4.530789e-006
-4.775405e-006
-4.554458e-006
-3.724145e-006
-2.179638e-006
1.292915e-007
3.192355e-006
6.942663e-006
1.126820e-005
1.602737e-005
2.106504e-005
2.622674e-005
3.136954e-005
3.636949e-005
4.112547e-005
4.555990e-005
4.961700e-005
5.325960e-005
5.646519e-005
5.922182e-005
6.152424e-005
6.337032e-005
6.475785e-005
6.568184e-005
6.613227e-005
6.609227e-005
6.553679e-005
6.443215e-005
6.273685e-005
6.040463e-005
5.739031e-005
5.365910e-005
4.919972e-005
4.404025e-005
3.826435e-005
3.202366e-005
2.554100e-005
1.909982e-005
1.301757e-005
7.605183e-006
3.119889e-006
-2.775287e-007
-2.549302e-006
-3.782752e-006
-4.166095e-006
-3.944441e-006
-3.369047e-006
-2.654369e-006
-1.953288e-006
-1.352984e-006
-8.863722e-007
-5.504311e-007
-3.238201e-007
-1.797122e-007
-9.317387e-008
-4.426108e-008
-1.847490e-008
-5.987997e-009
-5.671213e-010
1.412098e-009
1.823002e-009
1.546982e-009
1.043808e-009
6.128935e-010
3.918473e-010
3.166712e-010
2.233661e-010
3.797048e-011
-1.444960e-010
-1.787131e-010
-4.432298e-011
1.242343e-010
1.790654e-010
1.013446e-010
-9.976581e-012
-6.652276e-011
-7.162931e-011
2.158383e-009
1.157166e-009
2.190928e-010
4.667656e-010
2.032564e-009
3.928035e-009
4.834800e-009
3.878290e-009
4.358929e-010
-7.102900e-009
-2.288724e-008
-5.473977e-008
-1.148263e-007
-2.202804e-007
-3.938307e-007
-6.634713e-007
-1.059292e-006
-1.605325e-006
-2.304966e-006
-3.120583e-006
-3.951482e-006
-4.618448e-006
-4.864847e-006
-4.381125e-006
-2.851645e-006
-1.361843e-008