# vtk DataFile Version 3.0
vtk output
ASCII
DATASET STRUCTURED_POINTS
DIMENSIONS 100 100 1
SPACING 1 1 1
ORIGIN 0 0 0
POINT_DATA 10000
SCALARS SFBox_profile double
LOOKUP_TABLE default 
0.000000e+000
0.000000e+000
0.000000e+000
0.000000e+000
0.000000e+000
0.000000e+000
0.000000e+000
0.000000e+000
0.000000e+000
0.000000e+000
0.000000e+000
0.000000e+000
0.000000e+000
0.000000e+000
0.000000e+000
0.000000e+000
0.000000e+000
0.000000e+000
0.000000e+000
0.000000e+000
0.000000e+000
0.000000e+000
0.000000e+000
0.000000e+000
0.000000e+000
0.000000e+000
0.000000e+000
0.000000e+000
0.000000e+000
0.000000e+000
0.000000e+000
0.000000e+000
0.000000e+000
0.000000e+000
0.000000e+000
0.000000e+000
0.000000e+000
0.000000e+000
0.000000e+000
0.000000e+000
0.000000e+000
0.000000e+000
0.000000e+000
0.000000e+000
0.000000e+000
0.000000e+000
0.000000e+000
0.000000e+000
0.000000e+000
0.000000e+000
0.000000e+000
0.000000e+000
0.000000e+000
0.000000e+000
0.000000e+000
0.000000e+000
0.000000e+000
0.000000e+000
0.000000e+000
0.000000e+000
0.000000e+000
0.000000e+000
0.000000e+000
0.000000e+000
0.000000e+000
0.000000e+000
0.000000e+000
0.000000e+000
0.000000e+000
0.000000e+000
0.000000e+000
0.000000e+000
0.000000e+000
0.000000e+000
0.000000e+000
0.000000e+000
0.000000e+000
0.000000e+000
0.000000e+000
0.000000e+000
0.000000e+000
0.000000e+000
0.000000e+000
0.000000e+000
0.000000e+000
0.000000e+000
0.000000e+000
0.000000e+000
0.000000e+000
0.000000e+000
0.000000e+000
0.000000e+000
0.000000e+000
0.000000e+000
0.000000e+000
0.000000e+000
0.000000e+000
0.000000e+000
0.000000e+000
0.000000e+000
7.053621e-011
6.055981e-011
4.297235e-011
2.188257e-011
2.059216e-012
-1.233552e-011
-1.884784e-011
-1.736639e-011
-1.007982e-011
-7.453218e-013
6.545443e-012
8.731096e-012
4.822894e-012
-3.761104e-012
-1.373253e-011
-2.118884e-011
-2.312767e-011
-1.863271e-011
-9.222975e-012
1.787971e-012
1.067507e-011
1.481962e-011
1.370670e-011
8.970634e-012
3.505339e-012
8.956458e-014
1.796139e-013
3.409825e-012
7.971322e-012
1.160568e-011
1.269313e-011
1.091265e-011
7.226844e-012
3.286388e-012
6.179152e-013
-6.750852e-016
1.277893e-012
3.625853e-012
6.033997e-012
7.767397e-012
8.588902e-012
8.709427e-012
8.553856e-012
8.502367e-012
8.727405e-012
9.171465e-012
9.638021e-012
9.915772e-012
9.875686e-012
9.503481e-012
8.874542e-012
8.102609e-012
7.285460e-012
6.478072e-012
5.690579e-012
4.907023e-012
4.112388e-012
3.314338e-012
2.551410e-012
1.884699e-012
1.376447e-012
1.063862e-012
9.406696e-013
9.557814e-013
1.031708e-012
1.096105e-012
1.111228e-012
1.090915e-012
1.089407e-012
1.168622e-012
1.358655e-012
1.627523e-012
1.880222e-012
1.989473e-012
1.846686e-012
1.410488e-012
7.324349e-013
-5.653557e-014
-7.876773e-013
-1.315770e-012
-1.565521e-012
-1.551734e-012
-1.363734e-012
-1.121744e-012
-9.281593e-013
-8.300410e-013
-8.089060e-013
-7.981943e-013
-7.192622e-013
-5.190853e-013
-1.968918e-013
1.914887e-013
5.534062e-013
7.896899e-013
8.307115e-013
6.620598e-013
3.293259e-013
-7.208194e-014
-4.271367e-013
-6.336822e-013
5.173218e-011
4.442009e-011
3.150923e-011
1.598396e-011
1.324595e-012
-9.399995e-012
-1.434032e-011
-1.334480e-011
-7.962394e-012
-9.419070e-013
4.650898e-012
6.446137e-012
3.580907e-012
-2.983697e-012
-1.079547e-011
-1.681236e-011
-1.856417e-011
-1.512458e-011
-7.491030e-012
1.811590e-012
9.754708e-012
1.402629e-011
1.391988e-011
1.050210e-011
6.007518e-012
2.765413e-012
2.172119e-012
4.172521e-012
7.460686e-012
1.022926e-011
1.107527e-011
9.612707e-012
6.542825e-012
3.216915e-012
9.631932e-013
5.282198e-013
1.861470e-012
4.291566e-012
6.929260e-012
9.075049e-012
1.044575e-011
1.116273e-011
1.156900e-011
1.199874e-011
1.262192e-011
1.340512e-011
1.417968e-011
1.475052e-011
1.498438e-011
1.484868e-011
1.439664e-011
1.372191e-011
1.291183e-011
1.201990e-011
1.106128e-011
1.002859e-011
8.916899e-012
7.742795e-012
6.553948e-012
5.420575e-012
4.416442e-012
3.594915e-012
2.971504e-012
2.520446e-012
2.191082e-012
1.929916e-012
1.709728e-012
1.539067e-012
1.453997e-012
1.492077e-012
1.661554e-012
1.918434e-012
2.169187e-012
2.298845e-012
2.209967e-012
1.863361e-012
1.295084e-012
6.070014e-013
-6.743613e-014
-6.084936e-013
-9.473065e-013
-1.080323e-012
-1.061530e-012
-9.704493e-013
-8.791297e-013
-8.243743e-013
-7.991115e-013
-7.635761e-013
-6.694142e-013
-4.852562e-013
-2.155236e-013
9.654359e-014
3.822198e-013
5.706567e-013
6.130187e-013
4.996096e-013
2.655878e-013
-1.954714e-014
-2.721990e-013
-4.195447e-013
1.927864e-011
1.671658e-011
1.211505e-011
6.412375e-012
7.627852e-013
-3.720521e-012
-6.234483e-012
-6.498735e-012
-4.853924e-012
-2.190582e-012
2.975705e-013
1.490538e-012
7.427159e-013
-1.830801e-012
-5.322408e-012
-8.299832e-012
-9.324695e-012
-7.532561e-012
-3.037824e-012
3.033885e-012
8.937599e-012
1.298366e-011
1.420636e-011
1.272783e-011
9.644940e-012
6.496085e-012
4.563249e-012
4.345950e-012
5.442717e-012
6.869304e-012
7.625609e-012
7.209351e-012
5.837770e-012
4.291356e-012
3.504441e-012
4.127673e-012
6.273874e-012
9.540331e-012
1.325029e-011
1.676827e-011
1.972292e-011
2.206986e-011
2.399150e-011
2.573097e-011
2.744342e-011
2.913322e-011
3.067935e-011
3.190952e-011
3.268182e-011
3.292847e-011
3.265933e-011
3.193441e-011
3.082625e-011
2.939330e-011
2.767063e-011
2.568102e-011
2.345035e-011
2.102640e-011
1.848463e-011
1.592335e-011
1.344724e-011
1.114726e-011
9.085853e-012
7.290828e-012
5.764679e-012
4.499130e-012
3.488224e-012
2.735536e-012
2.247020e-012
2.015578e-012
2.007039e-012
2.152924e-012
2.358567e-012
2.522747e-012
2.562572e-012
2.432562e-012
2.132268e-012
1.701253e-012
1.201340e-012
6.983272e-013
2.455353e-013
-1.251745e-013
-4.025377e-013
-5.919562e-013
-7.058055e-013
-7.567660e-013
-7.524515e-013
-6.964800e-013
-5.904782e-013
-4.413666e-013
-2.634109e-013
-8.040254e-014
7.973455e-014
1.909542e-013
2.386285e-013
2.221207e-013
1.572433e-013
7.035317e-014
-9.037320e-015
-5.604768e-014
-1.789486e-011
-1.472084e-011
-9.342653e-012
-3.373890e-012
1.468611e-012
3.927979e-012
3.606922e-012
1.057421e-012
-2.461263e-012
-5.468708e-012
-6.811696e-012
-6.068719e-012
-3.645126e-012
-5.310390e-013
2.184271e-012
3.814206e-012
4.366311e-012
4.477135e-012
5.020387e-012
6.589077e-012
9.118294e-012
1.185814e-011
1.371845e-011
1.381456e-011
1.192532e-011
8.624936e-012
5.030156e-012
2.295902e-012
1.139623e-012
1.620064e-012
3.264544e-012
5.433701e-012
7.707148e-012
1.008468e-011
1.292241e-011
1.667340e-011
2.160026e-011
2.761271e-011
3.429819e-011
4.110007e-011
4.753417e-011
5.332816e-011
5.843931e-011
6.296613e-011
6.702222e-011
7.064076e-011
7.374566e-011
7.618570e-011
7.779626e-011
7.845826e-011
7.812265e-011
7.680852e-011
7.457849e-011
7.151491e-011
6.770438e-011
6.323606e-011
5.821039e-011
5.274694e-011
4.698986e-011
4.110078e-011
3.524947e-011
2.959779e-011
2.428846e-011
1.943843e-011
1.513779e-011
1.145135e-011
8.416314e-012
6.040953e-012
4.298075e-012
3.126128e-012
2.433788e-012
2.114273e-012
2.059894e-012
2.173478e-012
2.371811e-012
2.582519e-012
2.737927e-012
2.775801e-012
2.647846e-012
2.333167e-012
1.851093e-012
1.260955e-012
6.499557e-013
1.092628e-013
-2.931172e-013
-5.283938e-013
-6.098362e-013
-5.820831e-013
-5.007696e-013
-4.142373e-013
-3.502006e-013
-3.130565e-013
-2.887261e-013
-2.551718e-013
-1.926500e-013
-9.314929e-014
3.533756e-014
1.713130e-013
2.852091e-013
3.505362e-013
-4.952407e-011
-4.109623e-011
-2.664919e-011
-1.023879e-011
3.705008e-012
1.174971e-011
1.248236e-011
6.868752e-012
-2.168286e-012
-1.079424e-011
-1.558061e-011
-1.464936e-011
-8.242808e-012
1.484113e-012
1.136630e-011
1.847432e-011
2.120685e-011
1.977950e-011
1.592073e-011
1.193950e-011
9.611974e-012
9.418372e-012
1.047606e-011
1.116065e-011
1.006659e-011
6.803908e-012
2.235653e-012
-1.915399e-012
-3.854535e-012
-2.459558e-012
2.367426e-012
9.862371e-012
1.891671e-011
2.863291e-011
3.864153e-011
4.906760e-011
6.023930e-011
7.234890e-011
8.525050e-011
9.847539e-011
1.114134e-010
1.235276e-010
1.344923e-010
1.442000e-010
1.526676e-010
1.599160e-010
1.658849e-010
1.704195e-010
1.733146e-010
1.743804e-010
1.734985e-010
1.706450e-010
1.658859e-010
1.593553e-010
1.512335e-010
1.417320e-010
1.310853e-010
1.195510e-010
1.074031e-010
9.492936e-011
8.242062e-011
7.016392e-011
5.843483e-011
4.748941e-011
3.755381e-011
2.880863e-011
2.136991e-011
1.527479e-011
1.047784e-011
6.864703e-012
4.282972e-012
2.573429e-012
1.596091e-012
1.233013e-012
1.371058e-012
1.873788e-012
2.567188e-012
3.245234e-012
3.707667e-012
3.810059e-012
3.504700e-012
2.855540e-012
2.012277e-012
1.158086e-012
4.483934e-013
-3.190575e-014
-2.828114e-013
-3.693138e-013
-3.833347e-013
-4.035668e-013
-4.679124e-013
-5.658139e-013
-6.522964e-013
-6.709011e-013
-5.794877e-013
-3.692997e-013
-7.051006e-014
2.544112e-013
5.292617e-013
6.862737e-013
-6.689979e-011
-5.525887e-011
-3.533643e-011
-1.278574e-011
6.224276e-012
1.692285e-011
1.737016e-011
8.963880e-012
-4.128076e-012
-1.640662e-011
-2.288794e-011
-2.074786e-011
-1.021761e-011
5.578561e-012
2.179979e-011
3.365807e-011
3.812154e-011
3.489208e-011
2.627262e-011
1.600842e-011
7.629163e-012
3.044911e-012
2.013317e-012
2.672855e-012
2.807711e-012
1.178663e-012
-1.747301e-012
-3.983183e-012
-2.959126e-012
3.318644e-012
1.547441e-011
3.267311e-011
5.318115e-011
7.520652e-011
9.757218e-011
1.199365e-010
1.425535e-010
1.657981e-010
1.897450e-010
2.140070e-010
2.378461e-010
2.604390e-010
2.811233e-010
2.995087e-010
3.154337e-010
3.288319e-010
3.396040e-010
3.475552e-010
3.524164e-010
3.539155e-010
3.518586e-010
3.461814e-010
3.369654e-010
3.244231e-010
3.088676e-010
2.906856e-010
2.703130e-010
2.482170e-010
2.248849e-010
2.008127e-010
1.764991e-010
1.524427e-010
1.291380e-010
1.070646e-010
8.666447e-011
6.830824e-011
5.225548e-011
3.862597e-011
2.739537e-011
1.842225e-011
1.149775e-011
6.401709e-012
2.935793e-012
9.220592e-013
1.700926e-013
4.321124e-013
1.379347e-012
2.619499e-012
3.758047e-012
4.481045e-012
4.627355e-012
4.212063e-012
3.398909e-012
2.423854e-012
1.509635e-012
7.971824e-013
3.212369e-013
2.905461e-014
-1.719133e-013
-3.628470e-013
-5.775006e-013
-7.938505e-013
-9.525014e-013
-9.867737e-013
-8.533808e-013
-5.555080e-013
-1.433468e-013
2.953366e-013
6.606620e-013
8.674972e-013
-6.542230e-011
-5.386283e-011
-3.414452e-011
-1.197969e-011
6.427309e-012
1.632943e-011
1.589630e-011
6.721845e-012
-6.761817e-012
-1.877180e-011
-2.408677e-011
-1.978467e-011
-6.238390e-012
1.297515e-011
3.226209e-011
4.592027e-011
5.010432e-011
4.411866e-011
3.052489e-011
1.401907e-011
-4.566482e-013
-9.545447e-012
-1.245953e-011
-1.072312e-011
-6.876197e-012
-2.830216e-012
1.286209e-012
7.263630e-012
1.793285e-011
3.579417e-011
6.187539e-011
9.535399e-011
1.340343e-010
1.753390e-010
2.172641e-010
2.588614e-010
3.001142e-010
3.414040e-010
3.829205e-010
4.243176e-010
4.647260e-010
5.030262e-010
5.381815e-010
5.694510e-010
5.964146e-010
6.188534e-010
6.365883e-010
6.493748e-010
6.568909e-010
6.588008e-010
6.548506e-010
6.449428e-010
6.291719e-010
6.078201e-010
5.813278e-010
5.502572e-010
5.152584e-010
4.770415e-010
4.363577e-010
3.939862e-010
3.507303e-010
3.074166e-010
2.648910e-010
2.239991e-010
1.855461e-010
1.502368e-010
1.186093e-010
9.098508e-011
6.745787e-011
4.792655e-011
3.216350e-011
1.988767e-011
1.081088e-011
4.642275e-012
1.048845e-012
-3.932762e-013
-2.225356e-013
9.342225e-013
2.443951e-012
3.770905e-012
4.571098e-012
4.728342e-012
4.329942e-012
3.584140e-012
2.722261e-012
1.916402e-012
1.244505e-012
6.991954e-013
2.311304e-013
-2.026739e-013
-6.066838e-013
-9.427949e-013
-1.149727e-012
-1.173491e-012
-9.950012e-013
-6.418627e-013
-1.850961e-013
2.794075e-013
6.541787e-013
8.622011e-013
-4.605234e-011
-3.838563e-011
-2.531596e-011
-1.064922e-011
1.476377e-012
7.910328e-012
7.495591e-012
1.450287e-012
-7.003196e-012
-1.366207e-011
-1.472948e-011
-8.144209e-012
5.567404e-012
2.323985e-011
3.991935e-011
5.041587e-011
5.107887e-011
4.115783e-011
2.318601e-011
2.176190e-012
-1.610991e-011
-2.711210e-011
-2.881779e-011
-2.192392e-011
-8.802988e-012
8.171447e-012
2.808653e-011
5.202031e-011
8.244619e-011
1.218874e-010
1.715647e-010
2.307129e-010
2.968426e-010
3.667126e-010
4.374594e-010
5.073267e-010
5.757345e-010
6.427917e-010
7.086142e-010
7.728266e-010
8.344497e-010
8.921336e-010
9.445385e-010
9.906396e-010
1.029829e-009
1.061831e-009
1.086511e-009
1.103730e-009
1.113268e-009
1.114862e-009
1.108279e-009
1.093404e-009
1.070290e-009
1.039167e-009
1.000431e-009
9.546175e-010
9.023842e-010
8.444961e-010
7.818232e-010
7.153445e-010
6.461588e-010
5.754906e-010
5.046833e-010
4.351607e-010
3.683527e-010
3.055894e-010
2.479864e-010
1.963530e-010
1.511500e-010
1.125136e-010
8.032556e-011
5.430025e-011
3.405176e-011
1.911646e-011
8.934562e-012
2.817819e-012
-5.868337e-014
-6.167099e-013
2.123175e-013
1.605694e-012
2.945066e-012
3.869656e-012
4.260542e-012
4.173183e-012
3.747706e-012
3.126932e-012
2.413017e-012
1.660870e-012
9.029775e-013
1.750426e-013
-4.664310e-013
-9.506539e-013
-1.216120e-012
-1.234534e-012
-1.026399e-012
-6.565855e-013
-2.158292e-013
2.021260e-013
5.219297e-013
6.932173e-013
-1.517888e-011
-1.466748e-011
-1.361609e-011
-1.203490e-011
-1.004443e-011
-7.875258e-012
-5.750410e-012
-3.692020e-012
-1.360072e-012
1.946472e-012
7.044972e-012
1.440273e-011
2.361902e-011
3.310377e-011
4.020746e-011
4.191414e-011
3.596441e-011
2.201167e-011
2.289291e-012
-1.861598e-011
-3.493617e-011
-4.143480e-011
-3.493947e-011
-1.500155e-011
1.661645e-011
5.734813e-011
1.053948e-010
1.606582e-010
2.245931e-010
2.991181e-010
3.852149e-010
4.819660e-010
5.864948e-010
6.947710e-010
8.028016e-010
9.076042e-010
1.007556e-009
1.102089e-009
1.191031e-009
1.274007e-009
1.350185e-009
1.418420e-009
1.477616e-009
1.527085e-009
1.566699e-009
1.596822e-009
1.618083e-009
1.631129e-009
1.636451e-009
1.634315e-009
1.624780e-009
1.607748e-009
1.583018e-009
1.550319e-009
1.509350e-009
1.459812e-009
1.401473e-009
1.334238e-009
1.258246e-009
1.173957e-009
1.082235e-009
9.844095e-010
8.822700e-010
7.780107e-010
6.740861e-010
5.730146e-010
4.771516e-010
3.884893e-010
3.085199e-010
2.381867e-010
1.779182e-010
1.277078e-010
8.720572e-011
5.578804e-011
3.260034e-011
1.658582e-011
6.524275e-012
1.098541e-012
-1.009099e-012
-1.009205e-012
8.836220e-014
1.531438e-012
2.833007e-012
3.733255e-012
4.141509e-012
4.070399e-012
3.590772e-012
2.804287e-012
1.835910e-012
8.273926e-013
-7.631510e-014
-7.512999e-013
-1.122001e-012
-1.181381e-012
-9.885882e-013
-6.463762e-013
-2.652360e-013
6.731675e-014
3.012191e-013
4.187895e-013
1.710894e-011
8.895757e-012
-4.461721e-012
-1.799328e-011
-2.667713e-011
-2.722470e-011
-1.912105e-011
-4.578622e-012
1.246994e-011
2.785353e-011
3.849599e-011
4.310784e-011
4.205813e-011
3.661649e-011
2.803302e-011
1.696905e-011
3.603955e-012
-1.163204e-011
-2.711633e-011
-3.948031e-011
-4.387994e-011
-3.511909e-011
-9.146279e-012
3.578790e-011
9.891671e-011
1.777868e-010
2.696740e-010
3.728048e-010
4.867252e-010
6.116479e-010
7.471921e-010
8.912427e-010
1.039574e-009
1.186425e-009
1.325724e-009
1.452352e-009
1.562905e-009
1.655749e-009
1.730538e-009
1.787587e-009
1.827465e-009
1.850954e-009
1.859280e-009
1.854390e-009
1.839055e-009
1.816704e-009
1.791054e-009
1.765653e-009
1.743467e-009
1.726593e-009
1.716100e-009
1.711974e-009
1.713137e-009
1.717521e-009
1.722212e-009
1.723659e-009
1.717966e-009
1.701241e-009
1.669986e-009
1.621483e-009
1.554140e-009
1.467745e-009
1.363572e-009
1.244324e-009
1.113890e-009
9.769533e-010
8.385089e-010
7.033723e-010
5.757640e-010
4.590228e-010
3.554683e-010
2.663982e-010
1.921831e-010
1.324165e-010
8.608619e-011
5.174521e-011
2.767261e-011
1.201779e-011
2.925945e-012
-1.355335e-012
-2.395422e-012
-1.519913e-012
2.208419e-013
2.061844e-012
3.509237e-012
4.307079e-012
4.395263e-012
3.860994e-012
2.891091e-012
1.724049e-012
5.998378e-013
-2.875192e-013
-8.276707e-013
-1.009450e-012
-9.094095e-013
-6.515190e-013
-3.597143e-013
-1.192760e-013
3.505545e-014
1.064647e-013
3.984901e-011
2.391635e-011
-1.870057e-012
-2.767662e-011
-4.362213e-011
-4.338819e-011
-2.637105e-011
2.345809e-012
3.402463e-011
5.940682e-011
7.172460e-011
6.854530e-011
5.193714e-011
2.712429e-011
3.338436e-013
-2.321143e-011
-4.035490e-011
-4.979701e-011
-5.089202e-011
-4.219902e-011
-2.063774e-011
1.824945e-011
7.902678e-011
1.647488e-010
2.758414e-010
4.100252e-010
5.632169e-010
7.307888e-010
9.083969e-010
1.091902e-009
1.276496e-009
1.455665e-009
1.620719e-009
1.761330e-009
1.866965e-009
1.928645e-009
1.940371e-009
1.899778e-009
1.808000e-009
1.669076e-009
1.489298e-009
1.276778e-009
1.041263e-009
7.940136e-010
5.475329e-010
3.150143e-010
1.095196e-010
-5.697593e-011
-1.745084e-010
-2.358956e-010
-2.372871e-010
-1.784877e-010
-6.305572e-011
1.018209e-010
3.056844e-010
5.354122e-010
7.760643e-010
1.011932e-009
1.227716e-009
1.409740e-009
1.547061e-009
1.632364e-009
1.662505e-009
1.638625e-009
1.565802e-009
1.452295e-009
1.308480e-009
1.145650e-009
9.748505e-010
8.059138e-010
6.467777e-010
5.031465e-010
3.784704e-010
2.741741e-010
1.900556e-010
1.247455e-010
7.614823e-011
4.180100e-011
1.913051e-011
5.614480e-012
-1.116474e-012
-3.203478e-012
-2.493374e-012
-4.775115e-013
1.747709e-012
3.485002e-012
4.399374e-012
4.449829e-012
3.799648e-012
2.724812e-012
1.528523e-012
4.701939e-013
-2.854048e-013
-6.865830e-013
-7.826615e-013
-6.843110e-013
-5.112970e-013
-3.511447e-013
-2.448021e-013
-1.957844e-013
4.432295e-011
2.453524e-011
-6.988583e-012
-3.731888e-011
-5.369848e-011
-4.843705e-011
-2.176178e-011
1.836284e-011
5.921116e-011
8.779672e-011
9.518816e-011
7.916003e-011
4.443518e-011
6.890614e-013
-4.075467e-011
-7.022300e-011
-8.179608e-011
-7.356167e-011
-4.616287e-011
-4.831069e-013
6.432837e-011
1.515129e-010
2.657222e-010
4.108977e-010
5.880268e-010
7.937603e-010
1.020325e-009
1.256435e-009
1.488439e-009
1.700987e-009
1.877013e-009
1.997445e-009
2.041379e-009
1.987279e-009
1.815260e-009
1.509910e-009
1.062832e-009
4.742186e-010
-2.468043e-010
-1.082859e-009
-2.009555e-009
-2.996862e-009
-4.010398e-009
-5.012679e-009
-5.964506e-009
-6.826614e-009
-7.561602e-009
-8.136002e-009
-8.522300e-009
-8.700695e-009
-8.660486e-009
-8.400992e-009
-7.931971e-009
-7.273466e-009
-6.455055e-009
-5.514439e-009
-4.495385e-009
-3.445086e-009
-2.411110e-009
-1.438143e-009
-5.648750e-010
1.786826e-010
7.730955e-010
1.210390e-009
1.493793e-009
1.636370e-009
1.658760e-009
1.586345e-009
1.446260e-009
1.264651e-009
1.064504e-009
8.642482e-010
6.771884e-010
5.116761e-010
3.718212e-010
2.584916e-010
1.703530e-010
1.047659e-010
5.844259e-011
2.787361e-011
9.581372e-012
2.869486e-013
-2.953651e-012
-2.625934e-012
-6.648231e-013
1.580751e-012
3.314498e-012
4.198292e-012
4.226951e-012
3.597158e-012
2.593315e-012
1.499601e-012
5.385618e-013
-1.605318e-013
-5.655503e-013
-7.196397e-013
-7.081645e-013
-6.214053e-013
-5.287772e-013
-4.733920e-013
2.663469e-011
9.192583e-012
-1.768636e-011
-4.131357e-011
-4.957379e-011
-3.596530e-011
-2.403331e-012
4.125106e-011
8.066348e-011
1.020845e-010
9.710559e-011
6.547350e-011
1.514045e-011
-4.025010e-011
-8.540117e-011
-1.074367e-010
-9.862068e-011
-5.688083e-011
1.584036e-011
1.165149e-010
2.438245e-010
3.994398e-010
5.870692e-010
8.095297e-010
1.064950e-009
1.343508e-009
1.625732e-009
1.882600e-009
2.076927e-009
2.165262e-009
2.099788e-009
1.830297e-009
1.306766e-009
4.829842e-010
-6.787426e-010
-2.202487e-009
-4.094236e-009
-6.339072e-009
-8.900539e-009
-1.172205e-008
-1.472980e-008
-1.783645e-008
-2.094504e-008
-2.395301e-008
-2.675622e-008
-2.925309e-008
-3.134901e-008
-3.296064e-008
-3.402014e-008
-3.447891e-008
-3.431058e-008
-3.351326e-008
-3.211072e-008
-3.015236e-008
-2.771185e-008
-2.488422e-008
-2.178146e-008
-1.852654e-008
-1.524626e-008
-1.206342e-008
-9.088879e-009
-6.414431e-009
-4.107174e-009
-2.206165e-009
-7.217483e-010
3.623608e-010
1.084538e-009
1.498949e-009
1.668401e-009
1.657340e-009
1.525887e-009
1.325545e-009
1.096844e-009
8.688529e-010
6.601607e-010
4.807855e-010
3.344201e-010
2.205492e-010
1.361569e-010
7.694020e-011
3.810437e-011
1.486742e-011
2.802733e-012
-1.919411e-012
-2.375319e-012
-8.294371e-013
1.219882e-012
2.917775e-012
3.887826e-012
4.073479e-012
3.605132e-012
2.708394e-012
1.634387e-012
6.114058e-013
-1.938730e-013
-6.998014e-013
-9.146066e-013
-9.172457e-013
-8.246418e-013
-7.455055e-013
-1.085189e-011
-1.873748e-011
-2.922356e-011
-3.419126e-011
-2.654615e-011
-3.833396e-012
2.994016e-011
6.509164e-011
8.941120e-011
9.251187e-011
6.978522e-011
2.456870e-011
-3.218091e-011
-8.452143e-011
-1.155231e-010
-1.112693e-010
-6.355123e-011
2.957717e-011
1.654177e-010
3.395764e-010
5.487479e-010
7.917310e-010
1.067622e-009
1.371203e-009
1.686675e-009
1.981571e-009
2.202641e-009
2.274765e-009
2.102995e-009
1.577132e-009
5.780907e-010
-1.014409e-009
-3.312978e-009
-6.412660e-009
-1.038055e-008
-1.524607e-008
-2.099349e-008
-2.755789e-008
-3.482551e-008
-4.263801e-008
-5.079991e-008
-5.908774e-008
-6.726000e-008
-7.506703e-008
-8.226055e-008
-8.860296e-008
-9.387635e-008
-9.789108e-008
-1.004939e-007
-1.015753e-007
-1.010757e-007
-9.898988e-008
-9.537037e-008
-9.032779e-008
-8.402898e-008
-7.669174e-008
-6.857625e-008
-5.997289e-008
-5.118704e-008
-4.252156e-008
-3.425843e-008
-2.664122e-008
-1.986027e-008
-1.404247e-008
-9.246869e-009
-5.466773e-009
-2.637998e-009
-6.519672e-010
6.282754e-010
1.351473e-009
1.663203e-009
1.694262e-009
1.553326e-009
1.323949e-009
1.065237e-009
8.150882e-010
5.947080e-010
4.133215e-010
2.723131e-010
1.684470e-010
9.614471e-011
4.899076e-011
2.068040e-011
5.594375e-012
-8.950625e-013
-2.326668e-012
-1.213494e-012
7.914740e-013
2.686200e-012
3.936868e-012
4.339047e-012
3.930333e-012
2.922619e-012
1.631669e-012
3.880825e-013
-5.507600e-013
-1.070378e-012
-1.215360e-012
-1.145425e-012
-1.048794e-012
-5.946414e-011
-5.147027e-011
-3.563667e-011
-1.273479e-011
1.514777e-011
4.407650e-011
6.833405e-011
8.135886e-011
7.749565e-011
5.411953e-011
1.342779e-011
-3.680417e-011
-8.390740e-011
-1.123810e-010
-1.067919e-010
-5.466273e-011
5.152681e-011
2.138235e-010
4.297790e-010
6.941961e-010
1.000245e-009
1.338304e-009
1.691302e-009
2.026426e-009
2.284486e-009
2.369398e-009
2.140705e-009
1.411512e-009
-4.689943e-011
-2.493824e-009
-6.202268e-009
-1.143798e-008
-1.843608e-008
-2.737720e-008
-3.836532e-008
-5.140987e-008
-6.641429e-008
-8.317297e-008
-1.013767e-007
-1.206259e-007
-1.404494e-007
-1.603261e-007
-1.797075e-007
-1.980391e-007
-2.147804e-007
-2.294231e-007
-2.415074e-007
-2.506377e-007
-2.564964e-007
-2.588568e-007
-2.575942e-007
-2.526954e-007
-2.442650e-007
-2.325284e-007
-2.178302e-007
-2.006267e-007
-1.814714e-007
-1.609930e-007
-1.398662e-007
-1.187763e-007
-9.837947e-008
-7.926338e-008
-6.191087e-008
-4.667213e-008
-3.374863e-008
-2.319122e-008
-1.491268e-008
-8.712738e-009
-4.311637e-009
-1.387043e-009
3.908181e-010
1.330225e-009
1.697860e-009
1.708338e-009
1.522363e-009
1.251381e-009
9.660670e-010
7.061938e-010
4.900143e-010
3.220806e-010
1.991271e-010
1.141325e-010
5.891417e-011
2.564474e-011
7.622843e-012
-4.564771e-013
-2.547924e-012
-1.468504e-012
8.449564e-013
3.116263e-012
4.589119e-012
4.945630e-012
4.246344e-012
2.836518e-012
1.202694e-012
-2.016283e-013
-1.102587e-012
-1.473765e-012
-1.493423e-012
-1.415709e-012
-1.055486e-010
-7.826464e-011
-3.130513e-011
2.257930e-011
6.941381e-011
9.787264e-011
1.018386e-010
8.114718e-011
4.081484e-011
-1.048378e-011
-6.194376e-011
-1.017604e-010
-1.178636e-010
-9.848415e-011
-3.279776e-011
8.825560e-011
2.710458e-010
5.183197e-010
8.281418e-010
1.192120e-009
1.591750e-009
1.991389e-009
2.326711e-009
2.488672e-009
2.304847e-009
1.521870e-009
-2.061286e-010
-3.318385e-009
-8.334377e-009
-1.582583e-008
-2.637551e-008
-4.052672e-008
-5.872881e-008
-8.128500e-008
-1.083087e-007
-1.396934e-007
-1.751006e-007
-2.139662e-007
-2.555243e-007
-2.988449e-007
-3.428791e-007
-3.865084e-007
-4.285907e-007
-4.680028e-007
-5.036757e-007
-5.346255e-007
-5.599780e-007
-5.789909e-007
-5.910735e-007
-5.958045e-007
-5.929493e-007
-5.824752e-007
-5.645649e-007
-5.396255e-007
-5.082921e-007
-4.714219e-007
-4.300772e-007
-3.854935e-007
-3.390313e-007
-2.921127e-007
-2.461454e-007
-2.024387e-007
-1.621220e-007
-1.260740e-007
-9.487278e-008
-6.877505e-008
-4.772733e-008
-3.140749e-008
-1.928958e-008
-1.072144e-008
-5.002738e-009
-1.453195e-009
5.366300e-010
1.474878e-009
1.757354e-009
1.672004e-009
1.413575e-009
1.103093e-009
8.078575e-010
5.590781e-010
3.658327e-010
2.251201e-010
1.284987e-010
6.607385e-011
2.861089e-011
8.423293e-012
-4.649634e-013
-2.517288e-012
-9.945478e-013
1.776717e-012
4.239793e-012
5.524912e-012
5.388043e-012
4.094724e-012
2.221005e-012
3.956548e-013
-9.341157e-013
-1.632322e-012
-1.846468e-012
-1.851539e-012
-1.329743e-010
-8.752150e-011
-1.227476e-011
6.730927e-011
1.252041e-010
1.436323e-010
1.182084e-010
5.800829e-011
-1.860882e-011
-9.010177e-011
-1.371785e-010
-1.458073e-010
-1.073836e-010
-1.682933e-011
1.299553e-010
3.378034e-010
6.120281e-010
9.555202e-010
1.362760e-009
1.810206e-009
2.242146e-009
2.550886e-009
2.550620e-009
1.945957e-009
2.987382e-010
-3.000204e-009
-8.745527e-009
-1.790908e-008
-3.160217e-008
-5.100632e-008
-7.727657e-008
-1.114270e-007
-1.542132e-007
-2.060273e-007
-2.668216e-007
-3.360708e-007
-4.127781e-007
-4.955224e-007
-5.825372e-007
-6.718110e-007
-7.611926e-007
-8.484931e-007
-9.315730e-007
-1.008412e-006
-1.077162e-006
-1.136178e-006
-1.184045e-006
-1.219590e-006
-1.241895e-006
-1.250307e-006
-1.244456e-006
-1.224271e-006
-1.190002e-006
-1.142246e-006
-1.081972e-006
-1.010533e-006
-9.296703e-007
-8.414921e-007
-7.484196e-007
-6.530989e-007
-5.582752e-007
-4.666364e-007
-3.806401e-007
-3.023442e-007
-2.332663e-007
-1.742934e-007
-1.256594e-007
-8.699385e-008
-5.743241e-008
-3.576856e-008
-2.061931e-008
-1.057919e-008
-4.342809e-009
-7.857952e-010
9.963961e-010
1.685415e-009
1.762118e-009
1.542556e-009
1.218131e-009
8.930427e-010
6.152194e-010
3.994786e-010
2.433889e-010
1.371884e-010
6.935676e-011
2.930419e-011
8.331396e-012
-3.096846e-013
-1.705930e-012
3.912057e-013
3.340638e-012
5.495649e-012
6.115497e-012
5.224474e-012
3.361897e-012
1.253881e-012
-4.991485e-013
-1.618067e-012
-2.151276e-012
-2.324720e-012
-1.264969e-010
-6.925383e-011
2.282705e-011
1.139493e-010
1.690218e-010
1.668830e-010
1.074549e-010
1.063956e-011
-9.160948e-011
-1.660443e-010
-1.871926e-010
-1.416419e-010
-2.684019e-011
1.539915e-010
3.978441e-010
7.055235e-010
1.080139e-009
1.518626e-009
1.995188e-009
2.435841e-009
2.683270e-009
2.451475e-009
1.270974e-009
-1.571678e-009
-7.091748e-009
-1.664815e-008
-3.195212e-008
-5.502546e-008
-8.809602e-008
-1.334280e-007
-1.930992e-007
-2.687511e-007
-3.613497e-007
-4.709980e-007
-5.968330e-007
-7.370273e-007
-8.888927e-007
-1.049065e-006
-1.213740e-006
-1.378919e-006
-1.540639e-006
-1.695163e-006
-1.839111e-006
-1.969542e-006
-2.083985e-006
-2.180427e-006
-2.257278e-006
-2.313319e-006
-2.347647e-006
-2.359636e-006
-2.348909e-006
-2.315337e-006
-2.259067e-006
-2.180577e-006
-2.080756e-006
-1.961004e-006
-1.823330e-006
-1.670433e-006
-1.505729e-006
-1.333316e-006
-1.157827e-006
-9.842045e-007
-8.173698e-007
-6.618477e-007
-5.213921e-007
-3.986761e-007
-2.951086e-007
-2.108098e-007
-1.447493e-007
-9.501020e-008
-5.912251e-008
-3.440045e-008
-1.823075e-008
-8.279456e-009
-2.608723e-009
2.870381e-010
1.505144e-009
1.795235e-009
1.635093e-009
1.305749e-009
9.562345e-010
6.538206e-010
4.196428e-010
2.518443e-010
1.392774e-010
6.874549e-011
2.823994e-011
7.972571e-012
3.809656e-013
-1.933382e-013
2.180884e-012
4.813002e-012
6.239357e-012
6.030197e-012
4.502010e-012
2.342686e-012
2.428595e-013
-1.356025e-012
-2.329595e-012
-2.761112e-012
-7.549216e-011
-1.762173e-011
7.227074e-011
1.535932e-010
1.882640e-010
1.565971e-010
6.526325e-011
-5.536225e-011
-1.624397e-010
-2.150612e-010
-1.857142e-010
-6.468938e-011
1.432139e-010
4.269485e-010
7.775362e-010
1.190947e-009
1.660705e-009
2.156566e-009
2.586738e-009
2.741843e-009
2.219660e-009
3.313243e-010
-4.006566e-009
-1.238309e-008
-2.698765e-008
-5.065910e-008
-8.685426e-008
-1.395015e-007
-2.127177e-007
-3.103920e-007
-4.356754e-007
-5.904533e-007
-7.749003e-007
-9.872187e-007
-1.223627e-006
-1.478609e-006
-1.745389e-006
-2.016525e-006
-2.284538e-006
-2.542466e-006