# vtk DataFile Version 3.0
vtk output
ASCII
DATASET STRUCTURED_POINTS
DIMENSIONS 100 100 1
SPACING 1 1 1
ORIGIN 0 0 0
POINT_DATA 10000
SCALARS SFBox_profile double
LOOKUP_TABLE default 
0.000000e+000
0.000000e+000
0.000000e+000
0.000000e+000
0.000000e+000
0.000000e+000
0.000000e+000
0.000000e+000
0.000000e+000
0.000000e+000
0.000000e+000
0.000000e+000
0.000000e+000
0.000000e+000
0.000000e+000
0.000000e+000
0.000000e+000
0.000000e+000
0.000000e+000
0.000000e+000
0.000000e+000
0.000000e+000
0.000000e+000
0.000000e+000
0.000000e+000
0.000000e+000
0.000000e+000
0.000000e+000
0.000000e+000
0.000000e+000
0.000000e+000
0.000000e+000
0.000000e+000
0.000000e+000
0.000000e+000
0.000000e+000
0.000000e+000
0.000000e+000
0.000000e+000
0.000000e+000
0.000000e+000
0.000000e+000
0.000000e+000
0.000000e+000
0.000000e+000
0.000000e+000
0.000000e+000
0.000000e+000
0.000000e+000
0.000000e+000
0.000000e+000
0.000000e+000
0.000000e+000
0.000000e+000
0.000000e+000
0.000000e+000
0.000000e+000
0.000000e+000
0.000000e+000
0.000000e+000
0.000000e+000
0.000000e+000
0.000000e+000
0.000000e+000
0.000000e+000
0.000000e+000
0.000000e+000
0.000000e+000
0.000000e+000
0.000000e+000
0.000000e+000
0.000000e+000
0.000000e+000
0.000000e+000
0.000000e+000
0.000000e+000
0.000000e+000
0.000000e+000
0.000000e+000
0.000000e+000
0.000000e+000
0.000000e+000
0.000000e+000
0.000000e+000
0.000000e+000
0.000000e+000
0.000000e+000
0.000000e+000
0.000000e+000
0.000000e+000
0.000000e+000
0.000000e+000
0.000000e+000
0.000000e+000
0.000000e+000
0.000000e+000
0.000000e+000
0.000000e+000
0.000000e+000
0.000000e+000
3.817844e-010
3.482956e-010
2.842784e-010
1.959506e-010
9.301926e-011
-1.171135e-011
-1.038113e-010
-1.698005e-010
-2.002947e-010
-1.927099e-010
-1.523846e-010
-9.133913e-011
-2.473622e-011
3.385414e-011
7.659652e-011
1.032855e-010
1.202519e-010
1.368090e-010
1.607778e-010
1.948879e-010
2.352919e-010
2.725183e-010
2.943383e-010
2.895006e-010
2.511297e-010
1.787721e-010
7.849772e-011
-3.892133e-011
-1.610550e-010
-2.769251e-010
-3.790580e-010
-4.638943e-010
-5.307243e-010
-5.799035e-010
-6.112574e-010
-6.233334e-010
-6.136698e-010
-5.798260e-010
-5.206935e-010
-4.376310e-010
-3.350652e-010
-2.203841e-010
-1.031186e-010
6.420732e-012
9.876392e-011
1.668103e-010
2.069285e-010
2.193865e-010
2.080028e-010
1.790665e-010
1.397597e-010
9.648179e-011
5.357768e-011
1.289020e-011
-2.569304e-011
-6.291686e-011
-9.862830e-011
-1.307602e-010
-1.553195e-010
-1.674288e-010
-1.629980e-010
-1.403202e-010
-1.009488e-010
-4.956535e-011
7.052084e-012
6.156807e-011
1.076542e-010
1.411509e-010
1.605629e-010
1.668517e-010
1.626549e-010
1.512225e-010
1.354085e-010
1.170358e-010
9.678305e-011
7.458101e-011
5.035188e-011
2.479023e-011
-1.640593e-013
-2.143359e-011
-3.555505e-011
-3.987339e-011
-3.372710e-011
-1.909626e-011
-3.409128e-013
1.697695e-011
2.781303e-011
2.927769e-011
2.156240e-011
7.778962e-012
-7.250360e-012
-1.878386e-011
-2.381217e-011
-2.191424e-011
-1.500606e-011
-6.187539e-012
1.697006e-012
7.090058e-012
9.914599e-012
1.096324e-011
2.209272e-010
2.028422e-010
1.676682e-010
1.177432e-010
5.732222e-011
-6.954515e-012
-6.623728e-011
-1.107582e-010
-1.322098e-010
-1.265002e-010
-9.568499e-011
-4.796020e-011
4.654638e-012
5.022748e-011
8.088164e-011
9.519848e-011
9.811664e-011
9.846139e-011
1.052165e-010
1.240338e-010
1.551847e-010
1.935106e-010
2.302354e-010
2.559529e-010
2.637916e-010
2.517142e-010
2.231907e-010
1.860164e-010
1.497541e-010
1.228390e-010
1.104659e-010
1.139576e-010
1.316107e-010
1.604077e-010
1.977384e-010
2.424577e-010
2.950017e-010
3.567097e-010
4.287178e-010
5.108515e-010
6.008629e-010
6.942444e-010
7.846788e-010
8.650282e-010
9.286297e-010
9.705788e-010
9.886789e-010
9.838159e-010
9.596395e-010
9.215941e-010
8.755081e-010
8.261166e-010
7.759771e-010
7.251821e-010
6.720136e-010
6.143379e-010
5.511851e-010
4.838349e-010
4.159305e-010
3.525699e-010
2.987634e-010
2.578906e-010
2.307462e-010
2.154498e-010
2.081437e-010
2.041714e-010
1.993284e-010
1.908234e-010
1.777130e-010
1.607512e-010
1.417639e-010
1.227736e-010
1.051888e-010
8.932720e-011
7.442535e-011
5.911737e-011
4.222432e-011
2.356198e-011
4.415371e-012
-1.258543e-011
-2.424840e-011
-2.803509e-011
-2.324238e-011
-1.160372e-011
3.019479e-012
1.582309e-011
2.268855e-011
2.161792e-011
1.339546e-011
1.213447e-012
-1.059512e-011
-1.820883e-011
-1.969190e-011
-1.553976e-011
-8.185443e-012
-7.365690e-013
4.437547e-012
6.592472e-012
6.577886e-012
5.981852e-012
-3.684964e-011
-2.966726e-011
-1.772254e-011
-5.266425e-012
2.942175e-012
3.556508e-012
-3.540535e-012
-1.457306e-011
-2.303889e-011
-2.242702e-011
-9.271320e-012
1.496608e-011
4.415944e-011
6.985052e-011
8.460984e-011
8.501203e-011
7.308468e-011
5.577026e-011
4.274024e-011
4.342622e-011
6.428621e-011
1.071650e-010
1.692552e-010
2.446497e-010
3.268981e-010
4.115973e-010
4.979730e-010
5.888164e-010
6.888413e-010
8.022460e-010
9.305562e-010
1.071621e-009
1.220048e-009
1.368721e-009
1.510684e-009
1.640676e-009
1.755902e-009
1.855944e-009
1.942033e-009
2.015997e-009
2.079259e-009
2.132170e-009
2.173853e-009
2.202565e-009
2.216432e-009
2.214303e-009
2.196430e-009
2.164729e-009
2.122520e-009
2.073748e-009
2.021871e-009
1.968740e-009
1.913857e-009
1.854358e-009
1.785840e-009
1.703827e-009
1.605379e-009
1.490239e-009
1.361102e-009
1.222960e-009
1.081847e-009
9.434663e-010
8.121871e-010
6.906280e-010
5.798106e-010
4.797024e-010
3.898942e-010
3.101655e-010
2.407570e-010
1.822838e-010
1.353475e-010
1.000113e-010
7.535069e-011
5.929863e-011
4.889079e-011
4.088246e-011
3.257945e-011
2.260917e-011
1.131761e-011
5.606705e-013
-7.119150e-012
-9.675736e-012
-6.626354e-012
4.944313e-013
8.558716e-012
1.402592e-011
1.437505e-011
9.157545e-012
1.901795e-013
-9.202281e-012
-1.555629e-011
-1.666087e-011
-1.241810e-011
-4.819600e-012
2.947823e-012
7.900143e-012
8.542175e-012
5.463236e-012
9.490902e-013
-2.225195e-012
-2.886461e-010
-2.555871e-010
-1.958220e-010
-1.208018e-010
-4.457308e-011
1.967207e-011
6.308785e-011
8.343586e-011
8.510528e-011
7.680306e-011
6.787225e-011
6.476547e-011
6.904698e-011
7.755116e-011
8.443273e-011
8.423572e-011
7.484683e-011
5.930015e-011
4.579364e-011
4.586775e-011
7.132042e-011
1.309344e-010
2.282431e-010
3.611804e-010
5.236637e-010
7.083175e-010
9.090769e-010
1.122531e-009
1.347551e-009
1.583588e-009
1.828601e-009
2.077633e-009
2.322655e-009
2.553673e-009
2.760596e-009
2.935157e-009
3.072302e-009
3.170718e-009
3.232510e-009
3.262235e-009
3.265671e-009
3.248685e-009
3.216458e-009
3.173194e-009
3.122278e-009
3.066661e-009
3.009254e-009
2.953077e-009
2.901058e-009
2.855473e-009
2.817166e-009
2.784825e-009
2.754601e-009
2.720366e-009
2.674640e-009
2.610028e-009
2.520721e-009
2.403616e-009
2.258754e-009
2.089052e-009
1.899570e-009
1.696603e-009
1.486864e-009
1.276891e-009
1.072683e-009
8.795289e-010
7.019400e-010
5.436195e-010
4.073702e-010
2.949086e-010
2.066242e-010
1.413722e-010
9.644083e-011
6.779177e-011
5.062434e-011
4.017933e-011
3.259810e-011
2.557683e-011
1.857144e-011
1.242477e-011
8.516058e-012
7.737663e-012
9.731292e-012
1.275459e-011
1.429482e-011
1.219681e-011
5.781824e-012
-3.616035e-012
-1.303351e-011
-1.907106e-011
-1.934591e-011
-1.354706e-011
-3.629625e-012
6.899219e-012
1.430926e-011
1.606626e-011
1.181053e-011
3.519567e-012
-5.246372e-012
-1.078280e-011
-4.329333e-010
-3.835476e-010
-2.941300e-010
-1.811204e-010
-6.424822e-011
3.775839e-011
1.110217e-010
1.491776e-010
1.542705e-010
1.355685e-010
1.064901e-010
8.049063e-011
6.720946e-011
7.015427e-011
8.669586e-011
1.103947e-010
1.348469e-010
1.576073e-010
1.825965e-010
2.199000e-010
2.829042e-010
3.838672e-010
5.297549e-010
7.200200e-010
9.470796e-010
1.199023e-009
1.463174e-009
1.728954e-009
1.989016e-009
2.238585e-009
2.473692e-009
2.689386e-009
2.878838e-009
3.033715e-009
3.145613e-009
3.207926e-009
3.217486e-009
3.175439e-009
3.087171e-009
2.961443e-009
2.809043e-009
2.641384e-009
2.469356e-009
2.302623e-009
2.149392e-009
2.016499e-009
1.909588e-009
1.833169e-009
1.790443e-009
1.782858e-009
1.809548e-009
1.866832e-009
1.948043e-009
2.043863e-009
2.143169e-009
2.234223e-009
2.305900e-009
2.348692e-009
2.355371e-009
2.321371e-009
2.244984e-009
2.127447e-009
1.972870e-009
1.787940e-009
1.581379e-009
1.363177e-009
1.143708e-009
9.328293e-010
7.390353e-010
5.687424e-010
4.257841e-010
3.112096e-010
2.234520e-010
1.588847e-010
1.127033e-010
7.996864e-011
5.655088e-011
3.970114e-011
2.806390e-011
2.115248e-011
1.853711e-011
1.913158e-011
2.093606e-011
2.139505e-011
1.825823e-011
1.057485e-011
-6.573281e-013
-1.258264e-011
-2.143323e-011
-2.403056e-011
-1.919127e-011
-8.353025e-012
4.888848e-012
1.612185e-011
2.172619e-011
2.010071e-011
1.210311e-011
6.742658e-013
-1.017419e-011
-1.670214e-011
-4.102685e-010
-3.619921e-010
-2.748548e-010
-1.648611e-010
-5.052326e-011
5.074922e-011
1.252119e-010
1.647256e-010
1.683929e-010
1.433656e-010
1.038098e-010
6.758185e-011
5.137527e-011
6.607272e-011
1.141628e-010
1.903446e-010
2.851282e-010
3.899236e-010
5.013608e-010
6.228669e-010
7.627315e-010
9.295252e-010
1.126944e-009
1.350331e-009
1.586243e-009
1.815017e-009
2.015101e-009
2.167336e-009
2.257753e-009
2.278248e-009
2.225467e-009
2.098852e-009
1.898920e-009
1.626540e-009
1.283321e-009
8.727656e-010
4.014862e-010
-1.200640e-010
-6.776638e-010
-1.254145e-009
-1.830668e-009
-2.388084e-009
-2.908084e-009
-3.373937e-009
-3.770816e-009
-4.085852e-009
-4.308136e-009
-4.428844e-009
-4.441604e-009
-4.343109e-009
-4.133815e-009
-3.818569e-009
-3.406934e-009
-2.913096e-009
-2.355381e-009
-1.755482e-009
-1.137578e-009
-5.273212e-010
4.939012e-011
5.680056e-010
1.007256e-009
1.351161e-009
1.590684e-009
1.724611e-009
1.759444e-009
1.708316e-009
1.589152e-009
1.422399e-009
1.228669e-009
1.026623e-009
8.313583e-010
6.535149e-010
4.991512e-010
3.703388e-010
2.662798e-010
1.846393e-010
1.227121e-010
7.809098e-011
4.868574e-011
3.224425e-011
2.577859e-011
2.536033e-011
2.654981e-011
2.538241e-011
1.949639e-011
8.876134e-012
-4.170862e-012
-1.587191e-011
-2.242547e-011
-2.153363e-011
-1.341870e-011
-8.645998e-013
1.180935e-011
2.041037e-011
2.241334e-011
1.768370e-011
8.193098e-012
-2.928157e-012
-1.245189e-011
-1.787161e-011
-2.289874e-010
-2.015233e-010
-1.512947e-010
-8.616376e-011
-1.536334e-011
5.145925e-011
1.046586e-010
1.357581e-010
1.401219e-010
1.202308e-010
8.748047e-011
6.075539e-011
6.170289e-011
1.084075e-010
2.100625e-010
3.648271e-010
5.616231e-010
7.848204e-010
1.019470e-009
1.254560e-009
1.482832e-009
1.697426e-009
1.887175e-009
2.032946e-009
2.106810e-009
2.074554e-009
1.900665e-009
1.554037e-009
1.012633e-009
2.659379e-010
-6.850673e-010
-1.829774e-009
-3.150568e-009
-4.625146e-009
-6.227934e-009
-7.930607e-009
-9.702145e-009
-1.150893e-008
-1.331519e-008
-1.508390e-008
-1.677780e-008
-1.836044e-008
-1.979693e-008
-2.105443e-008
-2.210232e-008
-2.291244e-008
-2.345943e-008
-2.372145e-008
-2.368129e-008
-2.332773e-008
-2.265710e-008
-2.167468e-008
-2.039581e-008
-1.884656e-008
-1.706390e-008
-1.509549e-008
-1.299893e-008
-1.084011e-008
-8.690496e-009
-6.622962e-009
-4.706471e-009
-3.000304e-009
-1.548853e-009
-3.779716e-010
5.064529e-010
1.117519e-009
1.484171e-009
1.646514e-009
1.650401e-009
1.542136e-009
1.364057e-009
1.151529e-009
9.315426e-010
7.228074e-010
5.369466e-010
3.802266e-010
2.552215e-010
1.619444e-010
9.830739e-011
6.014614e-011
4.130669e-011
3.428125e-011
3.154498e-011
2.726820e-011
1.870623e-011
6.568134e-012
-5.881158e-012
-1.462194e-011
-1.679265e-011
-1.193804e-011
-2.173191e-012
8.694377e-012
1.668271e-011
1.918654e-011
1.589736e-011
8.643665e-012
2.536062e-013
-6.854382e-012
-1.150961e-011
-1.367313e-011
3.578773e-011
2.864985e-011
1.907913e-011
1.412856e-011
1.963792e-011
3.712112e-011
6.252219e-011
8.763157e-011
1.040498e-010
1.084604e-010
1.069596e-010
1.160998e-010
1.594842e-010
2.607789e-010
4.357302e-010
6.862641e-010
9.986917e-010
1.346093e-009
1.693095e-009
2.000439e-009
2.227221e-009
2.330253e-009
2.261652e-009
1.966729e-009
1.384182e-009
4.495925e-010
-8.981585e-010
-2.709082e-009
-5.014931e-009
-7.824496e-009
-1.112229e-008
-1.487047e-008
-1.901300e-008
-2.348061e-008
-2.819535e-008
-3.307421e-008
-3.803172e-008
-4.298185e-008
-4.783936e-008
-5.252094e-008
-5.694591e-008
-6.103663e-008
-6.471844e-008
-6.791959e-008
-7.057123e-008
-7.260792e-008
-7.396882e-008
-7.459973e-008
-7.445591e-008
-7.350549e-008
-7.173310e-008
-6.914352e-008
-6.576474e-008
-6.165050e-008
-5.688192e-008
-5.156796e-008
-4.584437e-008
-3.987031e-008
-3.382195e-008
-2.788297e-008
-2.223239e-008
-1.703113e-008
-1.240942e-008
-8.456912e-009
-5.217302e-009
-2.688054e-009
-8.252914e-010
4.472030e-010
1.226454e-009
1.618167e-009
1.725819e-009
1.642340e-009
1.445076e-009
1.193996e-009
9.324624e-010
6.895360e-010
4.827280e-010
3.204216e-010
2.036847e-010
1.277165e-010
8.342547e-011
5.953326e-011
4.518035e-011
3.248251e-011
1.814708e-011
3.393229e-012
-7.913830e-012
-1.210331e-011
-8.121037e-012
1.658410e-012
1.251085e-011
1.957025e-011
1.994609e-011
1.380879e-011
4.087676e-012
-5.032225e-012
-1.018031e-011
-1.044491e-011
-7.658497e-012
-5.053664e-012
2.727141e-010
2.307511e-010
1.621279e-010
9.009914e-011
3.599906e-011
1.227356e-011
2.062918e-011
5.430446e-011
1.027405e-010
1.575145e-010
2.182355e-010
2.960981e-010
4.126101e-010
5.926901e-010
8.540098e-010
1.196273e-009
1.593975e-009
1.994337e-009
2.319857e-009
2.473329e-009
2.342984e-009
1.806395e-009
7.332968e-010
-1.011346e-009
-3.562359e-009
-7.046424e-009
-1.157141e-008
-1.721450e-008
-2.401162e-008
-3.195039e-008
-4.096846e-008
-5.095719e-008
-6.176967e-008
-7.323105e-008
-8.514903e-008
-9.732313e-008
-1.095519e-007
-1.216380e-007
-1.333913e-007
-1.446302e-007
-1.551819e-007
-1.648812e-007
-1.735693e-007
-1.810923e-007
-1.873009e-007
-1.920512e-007
-1.952075e-007
-1.966466e-007
-1.962639e-007
-1.939810e-007
-1.897541e-007
-1.835823e-007
-1.755152e-007
-1.656604e-007
-1.541878e-007
-1.413328e-007
-1.273941e-007
-1.127274e-007
-9.773204e-008
-8.283108e-008
-6.844544e-008
-5.496500e-008
-4.272019e-008
-3.195813e-008
-2.282694e-008
-1.537063e-008
-9.535207e-009
-5.184758e-009
-2.124544e-009
-1.272229e-010
1.041928e-009
1.604134e-009
1.752652e-009
1.645225e-009
1.402554e-009
1.110988e-009
8.274043e-010
5.846298e-010
3.966023e-010
2.631923e-010
1.749791e-010
1.181230e-010
7.902273e-011
4.801494e-011
2.122143e-011
-1.032527e-014
-1.183618e-011
-1.161674e-011
-7.624563e-013
1.487669e-011
2.736854e-011
3.044667e-011
2.244825e-011
6.879857e-012
-9.495279e-012
-1.991757e-011
-2.072622e-011
-1.298959e-011
-1.906131e-012
5.891167e-012
3.835533e-010
3.224547e-010
2.214303e-010
1.131179e-010
2.879751e-011
-1.043658e-011
3.780181e-012
6.882790e-011
1.748933e-010
3.103180e-010
4.681300e-010
6.513751e-010
8.733770e-010
1.150352e-009
1.487238e-009
1.860712e-009
2.204309e-009
2.399306e-009
2.272724e-009
1.601768e-009
1.229813e-010
-2.455564e-009
-6.439986e-009
-1.213437e-008
-1.982244e-008
-2.974732e-008
-4.209059e-008
-5.695285e-008
-7.433905e-008
-9.415125e-008
-1.161907e-007
-1.401693e-007
-1.657274e-007
-1.924568e-007
-2.199221e-007
-2.476811e-007
-2.752997e-007
-3.023619e-007
-3.284753e-007
-3.532720e-007
-3.764066e-007
-3.975524e-007
-4.163965e-007
-4.326359e-007
-4.459754e-007
-4.561287e-007
-4.628229e-007
-4.658060e-007
-4.648589e-007
-4.598096e-007
-4.505506e-007
-4.370559e-007
-4.193995e-007
-3.977713e-007
-3.724913e-007
-3.440172e-007
-3.129461e-007
-2.800040e-007
-2.460226e-007
-2.119022e-007
-1.785612e-007
-1.468774e-007
-1.176268e-007
-9.142766e-008
-6.869923e-008
-4.964017e-008
-3.423069e-008
-2.225762e-008
-1.335761e-008
-7.070791e-009
-2.896217e-009
-3.410499e-010
1.042074e-009
1.631921e-009
1.729131e-009
1.557425e-009
1.271709e-009
9.695540e-010
7.036346e-010
4.939442e-010
3.393197e-010
2.278538e-010
1.454840e-010
8.182917e-011
3.261318e-011
-1.266846e-012
-1.706788e-011
-1.426416e-011
2.635720e-012
2.414662e-011
3.909344e-011
3.956973e-011
2.472621e-011
1.054070e-012
-2.102262e-011
-3.228133e-011
-2.890249e-011
-1.393386e-011
4.386827e-012
1.661295e-011
3.280959e-010
2.736651e-010
1.825664e-010
8.429041e-011
1.113914e-011
-9.793544e-012
3.833085e-011
1.603025e-010
3.501352e-010
5.952602e-010
8.824861e-010
1.202498e-009
1.548362e-009
1.904627e-009
2.227011e-009
2.416367e-009
2.292807e-009
1.575991e-009
-1.238943e-010
-3.302015e-009
-8.541267e-009
-1.648240e-008
-2.778428e-008
-4.307761e-008
-6.291567e-008
-8.772652e-008
-1.177712e-007
-1.531125e-007
-1.935990e-007
-2.388663e-007
-2.883559e-007
-3.413503e-007
-3.970165e-007
-4.544551e-007
-5.127455e-007
-5.709840e-007
-6.283113e-007
-6.839284e-007
-7.371024e-007
-7.871637e-007
-8.334976e-007
-8.755325e-007
-9.127273e-007
-9.445614e-007
-9.705278e-007
-9.901315e-007
-1.002895e-006
-1.008367e-006
-1.006144e-006
-9.958899e-007
-9.773694e-007
-9.504772e-007
-9.152750e-007
-8.720274e-007
-8.212343e-007
-7.636576e-007
-7.003357e-007
-6.325797e-007
-5.619449e-007
-4.901749e-007
-4.191157e-007
-3.506059e-007
-2.863520e-007
-2.278037e-007
-1.760480e-007
-1.317369e-007
-9.506339e-008
-6.578755e-008
-4.330845e-008
-2.676733e-008
-1.516373e-008
-7.466192e-009
-2.702680e-009
-2.286709e-011
1.269165e-009
1.707669e-009
1.676388e-009
1.430603e-009
1.123874e-009
8.353120e-010
5.948656e-010
4.049872e-010
2.573327e-010
1.434691e-010
5.938900e-011
4.925367e-012
-1.969267e-011
-1.758672e-011
2.765423e-012
2.838475e-011
4.555294e-011
4.508242e-011
2.641244e-011
-2.151950e-012
-2.769548e-011
-3.921645e-011
-3.281300e-011
-1.301083e-011
9.900161e-012
2.482791e-011
1.410801e-010
1.178254e-010
7.713102e-011
3.384593e-011
1.291338e-011
4.425104e-011
1.536013e-010
3.551132e-010
6.491608e-010
1.024192e-009
1.458666e-009
1.918822e-009
2.348531e-009
2.648319e-009
2.642809e-009
2.039493e-009
3.857615e-010
-2.966129e-009
-8.876057e-009
-1.840672e-008
-3.278332e-008
-5.332248e-008
-8.133543e-008
-1.180157e-007
-1.643243e-007
-2.208870e-007
-2.879175e-007
-3.651763e-007
-4.519709e-007
-5.471965e-007
-6.494104e-007
-7.569292e-007
-8.679354e-007
-9.805804e-007
-1.093072e-006
-1.203739e-006
-1.311072e-006
-1.413737e-006
-1.510571e-006
-1.600563e-006
-1.682827e-006
-1.756571e-006
-1.821066e-006
-1.875625e-006
-1.919578e-006
-1.952269e-006
-1.973043e-006
-1.981263e-006
-1.976318e-006
-1.957657e-006
-1.924823e-006
-1.877502e-006
-1.815581e-006
-1.739216e-006
-1.648903e-006
-1.545550e-006
-1.430543e-006
-1.305786e-006
-1.173711e-006
-1.037233e-006
-8.996445e-007
-7.644479e-007
-6.351250e-007
-5.148749e-007
-4.063524e-007
-3.114511e-007
-2.311703e-007
-1.655916e-007
-1.139660e-007
-7.489135e-008
-4.654309e-008
-2.691401e-008
-1.402511e-008
-6.083198e-009
-1.575956e-009
6.908712e-010
1.601520e-009
1.767686e-009
1.580887e-009
1.268510e-009
9.460891e-010
6.613414e-010
4.275064e-010
2.450477e-010
1.123473e-010
2.791039e-011
-1.189655e-011
-1.544745e-011
3.764298e-012
2.941955e-011
4.643574e-011
4.546408e-011
2.612277e-011
-3.014669e-012
-2.862382e-011
-3.938168e-011
-3.154212e-011
-1.024003e-011
1.368808e-011
2.904864e-011
-8.712544e-011
-6.602018e-011
-3.211898e-011
1.071288e-011
7.480393e-011
1.877908e-010
3.810784e-010
6.777589e-010
1.085539e-009
1.591424e-009
2.151647e-009
2.672595e-009
2.980691e-009
2.779141e-009
1.590220e-009
-1.313956e-009
-6.981992e-009
-1.683810e-008
-3.270087e-008
-5.674711e-008
-9.140848e-008
-1.391998e-007
-2.024921e-007
-2.832564e-007
-3.828176e-007
-5.016561e-007
-6.392940e-007
-7.942846e-007
-9.643053e-007
-1.146337e-006
-1.336900e-006
-1.532305e-006
-1.728899e-006
-1.923261e-006
-2.112348e-006
-2.293579e-006
-2.464851e-006
-2.624521e-006
-2.771344e-006
-2.904401e-006
-3.023024e-006
-3.126723e-006
-3.215125e-006
-3.287924e-006
-3.344829e-006
-3.385532e-006
-3.409673e-006
-3.416811e-006
-3.406414e-006
-3.377848e-006
-3.330393e-006
-3.263275e-006
-3.175731e-006
-3.067100e-006
-2.936958e-006
-2.785285e-006
-2.612666e-006
-2.420495e-006
-2.211167e-006
-1.988207e-006
-1.756282e-006
-1.521060e-006
-1.288886e-006
-1.066292e-006
-8.593967e-007
-6.732995e-007
-5.115854e-007
-3.760356e-007
-2.666037e-007
-1.816446e-007
-1.183291e-007
-7.314264e-008
-4.236647e-008
-2.246692e-008
-1.035565e-008
-3.520198e-009
-4.706800e-011
1.429683e-009
1.821459e-009
1.692603e-009
1.363391e-009
9.972845e-010
6.673609e-010
4.011663e-010
2.062800e-010
8.118636e-011
1.767818e-011
1.036465e-012
1.201893e-011
3.111086e-011
4.306362e-011
3.989821e-011
2.190816e-011
-3.416864e-012
-2.491320e-011
-3.314945e-011
-2.519240e-011
-5.824137e-012
1.536677e-011
2.879057e-011
-2.527413e-010
-1.879489e-010
-7.522492e-011
6.750807e-011
2.381923e-010
4.552386e-010
7.491551e-010
1.148310e-009
1.662107e-009
2.257621e-009
2.823861e-009
3.120354e-009
2.708381e-009
8.627685e-010
-3.536022e-009
-1.212202e-008
-2.715582e-008
-5.159541e-008
-8.908493e-008
-1.438223e-007
-2.202802e-007
-3.227817e-007
-4.549682e-007
-6.192374e-007
-8.162555e-007
-1.044648e-006
-1.300944e-006
-1.579803e-006
-1.874466e-006
-2.177369e-006
-2.480793e-006
-2.777463e-006
-3.061018e-006
-3.326323e-006
-3.569607e-006
-3.788445e-006
-3.981630e-006
-4.148968e-006
-4.291046e-006
-4.409018e-006
-4.504422e-006
-4.579041e-006
-4.634799e-006
-4.673674e-006
-4.697620e-006
-4.708466e-006
-4.707815e-006
-4.696909e-006
-4.676494e-006
-4.646680e-006
-4.606804e-006
-4.555340e-006
-4.489847e-006
-4.407021e-006
-4.302844e-006
-4.172890e-006
-4.012795e-006
-3.818888e-006
-3.588943e-006
-3.322952e-006
-3.023779e-006
-2.697512e-006
-2.353351e-006
-2.002946e-006
-1.659226e-006
-1.334880e-006
-1.040820e-006
-7.849206e-007
-5.713281e-007
-4.004328e-007
-2.694431e-007
-1.733404e-007
-1.059501e-007
-6.089506e-008
-3.229688e-008
-1.518704e-008
-5.662245e-009
-8.535415e-010
1.216315e-009
1.823519e-009
1.736226e-009
1.382305e-009
9.794224e-010
6.260027e-010
3.581514e-010
1.808057e-010
8.241035e-011
4.191652e-011
3.448207e-011
3.788143e-011
3.765200e-011
2.848482e-011
1.211879e-011
-5.878860e-012
-1.895005e-011
-2.218256e-011
-1.463865e-011
-3.099038e-014
1.509123e-011
2.444647e-011
-2.785404e-010
-1.792491e-010
3.155896e-012
2.458622e-010
5.335957e-010
8.695500e-010
1.275061e-009
1.772232e-009
2.346628e-009
2.888664e-009
3.111657e-009
2.442734e-009
-1.179465e-010
-6.171430e-009
-1.812054e-008
-3.937291e-008
-7.449957e-008
-1.292785e-007
-2.105371e-007
-3.257123e-007
-4.820806e-007
-6.856883e-007
-9.401142e-007
-1.245306e-006
-1.596779e-006
-1.985430e-006
-2.398077e-006
-2.818658e-006
-3.229862e-006
-3.614866e-006
-3.958890e-006
-4.250339e-006
-4.481450e-006
-4.648436e-006
-4.751221e-006
-4.792876e-006
-4.778905e-006
-4.716506e-006
-4.613906e-006
-4.479853e-006
-4.323277e-006
-4.153104e-006
-3.978166e-006
-3.807152e-006
-3.648527e-006
-3.510386e-006
-3.400218e-006
-3.324572e-006
-3.288630e-006
-3.295720e-006
-3.346777e-006
-3.439817e-006
-3.569465e-006
-3.726610e-006
-3.898311e-006
-4.068062e-006
-4.216542e-006
-4.322974e-006
-4.367086e-006
-4.331564e-006
-4.204682e-006
-3.982634e-006
-3.671007e-006
-3.284871e-006
-2.847237e-006
-2.385999e-006
-1.929926e-006
-1.504592e-006
-1.129166e-006
-8.147399e-007
-5.643737e-007
-3.745537e-007
-2.374014e-007
-1.429611e-007
-8.106776e-008
-4.258558e-008
-2.002955e-008
-7.714157e-009
-1.601223e-009
1.000743e-009
1.775621e-009
1.709315e-009
1.337532e-009
9.247431e-010
5.825710e-010
3.421387e-010
1.952069e-010
1.165897e-010
7.728400e-011
5.359059e-011
3.263988e-011
1.236644e-011
-3.655672e-012
-1.223065e-011
-1.320942e-011
-8.650257e-012
-1.162008e-012
6.842354e-012
1.333412e-011
1.690547e-011
-1.319906e-010
-7.780613e-012
2.318128e-010
5.669572e-010
9.729539e-010
1.435184e-009
1.953470e-009
2.511836e-009
3.003420e-009
3.112615e-009
2.154337e-009
-1.138071e-009
-8.885069e-009
-2.438838e-008
-5.248296e-008
-9.984582e-008
-1.751474e-007
-2.888816e-007
-4.526787e-007
-6.779290e-007
-9.736658e-007
-1.343900e-006
-1.784911e-006
-2.283226e-006
-2.815043e-006
-3.347536e-006
-3.841974e-006
-4.258060e-006
-4.558588e-006
-4.713495e-006
-4.702643e-006
-4.517062e-006
-4.158739e-006
-3.639259e-006
-2.977751e-006
-2.198536e-006
-1.328871e-006
-3.970384e-007
5.690459e-007
1.542672e-006
2.498670e-006
3.413368e-006
4.264339e-006
5.030115e-006
5.690003e-006
6.224098e-006
6.613560e-006
6.841135e-006
6.891951e-006
6.754546e-006
6.422110e-006
5.893921e-006
5.176894e-006
4.287129e-006
3.251248e-006
2.107204e-006
9.041350e-007
-2.992002e-007
-1.437779e-006
-2.445603e-006
-3.262613e-006
-3.842360e-006
-4.159058e-006
-4.212300e-006
-4.027928e-006
-3.654292e-006
-3.154306e-006
-2.595017e-006
-2.037186e-006
-1.527408e-006
-1.094365e-006
-7.493750e-007
-4.900809e-007
-3.054878e-007
-1.807433e-007
-1.007031e-007
-5.204960e-008
-2.419102e-008
-9.340542e-009
-2.148609e-009
8.358415e-010
1.704727e-009
1.644260e-009
1.274616e-009
8.832977e-010
5.754059e-010
3.657116e-010
2.321843e-010
1.450293e-010
8.126375e-011
3.056168e-011
-6.115232e-012
-2.390340e-011
-2.248370e-011
-9.094519e-012
5.577504e-012
1.388131e-011
1.440159e-011
1.055517e-011
7.087164e-012
1.816919e-010
3.259439e-010
6.135412e-010
1.031007e-009
1.549297e-009
2.133315e-009
2.733801e-009
3.223066e-009
3.256721e-009
2.059920e-009
-1.868747e-009
-1.115217e-008
-3.003456e-008
-6.495472e-008
-1.250994e-007
-2.227568e-007
-3.731790e-007
-5.935443e-007
-9.005613e-007
-1.306406e-006
-1.813156e-006
-2.406679e-006
-3.051710e-006
-3.690164e-006
-4.244144e-006
-4.623782e-006
-4.738485e-006
-4.509057e-006
-3.878021e-006
-2.816147e-006
-1.324402e-006
5.683068e-007
2.810442e-006
5.334769e-006
8.065589e-006
1.092522e-005
1.383903e-005
1.673879e-005
1.956429e-005
2.226363e-005
2.479248e-005
2.711270e-005
2.919084e-005
3.099658e-005
3.250154e-005
3.367836e-005
3.450029e-005
3.494110e-005
3.497549e-005
3.457992e-005
3.373410e-005
3.242319e-005
3.064091e-005
2.839361e-005
2.570512e-005
2.262199e-005
1.921809e-005
1.559737e-005
1.189310e-005
8.262036e-006
4.872486e-006
1.886751e-006
-5.599172e-007
-2.379687e-006
-3.546742e-006
-4.101556e-006
-4.142591e-006
-3.806708e-006
-3.243236e-006
-2.588650e-006
-1.948305e-006
-1.388765e-006
-9.402043e-007
-6.053579e-007
-3.704764e-007
-2.148339e-007
-1.172011e-007
-5.929337e-008
-2.699109e-008
-1.024556e-008
-2.379125e-009
7.743304e-010
1.654015e-009
1.589139e-009
1.238012e-009
8.795698e-010
5.977667e-010
3.925754e-010
2.407940e-010
1.235913e-010
3.448234e-011
-2.324052e-011
-4.500055e-011
-3.437052e-011
-6.287930e-012
1.945522e-011
2.925412e-011
2.204710e-011
6.925525e-012
-4.385283e-012
6.408638e-010
8.049243e-010
1.135729e-009
1.624912e-009
2.240178e-009
2.910193e-009
3.472586e-009
3.541630e-009
2.265995e-009
-2.044386e-009
-1.244745e-008
-3.407407e-008
-7.498839e-008
-1.470938e-007
-2.668266e-007
-4.551576e-007
-7.361338e-007
-1.132937e-006
-1.660496e-006
-2.314491e-006
-3.058289e-006
-3.811565e-006
-4.445722e-006
-4.790445e-006
-4.652569e-006
-3.844071e-006
-2.212558e-006
3.332896e-007
3.809163e-006
8.153795e-006
1.323952e-005
1.889104e-005
2.490765e-005
3.108496e-005
3.723279e-005
4.318770e-005
4.881948e-005
5.403252e-005
5.876314e-005
6.297484e-005
6.665269e-005
6.979787e-005
7.242285e-005
7.454712e-005
7.619335e-005
7.738373e-005
7.813630e-005
7.846114e-005
7.835638e-005
7.780463e-005
7.677018e-005
7.519794e-005
7.301534e-005
7.013818e-005
6.648174e-005
6.197726e-005
5.659352e-005
5.036080e-005
4.339304e-005
3.590144e-005
2.819230e-005
2.064343e-005
1.365890e-005
7.608579e-006
2.766508e-006
-7.356377e-007
-2.926306e-006
-3.977439e-006
-4.157922e-006
-3.771468e-006
-3.097663e-006
-2.351760e-006
-1.670051e-006
-1.117435e-006
-7.074273e-007
-4.242819e-007
-2.405693e-007
-1.281017e-007
-6.314990e-008
-2.794555e-008
-1.025809e-008
-2.235020e-009
8.503802e-010
1.658724e-009
1.572280e-009
1.232629e-009
8.866097e-010
5.979955e-010
3.665805e-010
1.836922e-010
4.857234e-011
-3.389323e-011
-6.163580e-011
-4.376560e-011
-2.898816e-012
3.280892e-011
4.387611e-011
2.893942e-011
2.289531e-012
-1.718852e-011
1.228484e-009
1.413481e-009
1.784124e-009
2.330836e-009
3.003930e-009
3.645003e-009
3.847819e-009
2.706307e-009
-1.603170e-009
-1.246469e-008
-3.573920e-008
-8.095533e-008
-1.626647e-007
-3.016352e-007
-5.251773e-007
-8.653110e-007
-1.352793e-006
-2.004698e-006
-2.804272e-006
-3.675030e-006
-4.456304e-006
-4.891913e-006
-4.643628e-006
-3.334481e-006
-6.158465e-007
3.757915e-006
9.867634e-006
1.759733e-005
2.663947e-005