# vtk DataFile Version 3.0
vtk output
ASCII
DATASET STRUCTURED_POINTS
DIMENSIONS 100 100 1
SPACING 1 1 1
ORIGIN 0 0 0
POINT_DATA 10000
SCALARS SFBox_profile double
LOOKUP_TABLE default 
0.000000e+000
0.000000e+000
0.000000e+000
0.000000e+000
0.000000e+000
0.000000e+000
0.000000e+000
0.000000e+000
0.000000e+000
0.000000e+000
0.000000e+000
0.000000e+000
0.000000e+000
0.000000e+000
0.000000e+000
0.000000e+000
0.000000e+000
0.000000e+000
0.000000e+000
0.000000e+000
0.000000e+000
0.000000e+000
0.000000e+000
0.000000e+000
0.000000e+000
0.000000e+000
0.000000e+000
0.000000e+000
0.000000e+000
0.000000e+000
0.000000e+000
0.000000e+000
0.000000e+000
0.000000e+000
0.000000e+000
0.000000e+000
0.000000e+000
0.000000e+000
0.000000e+000
0.000000e+000
0.000000e+000
0.000000e+000
0.000000e+000
0.000000e+000
0.000000e+000
0.000000e+000
0.000000e+000
0.000000e+000
0.000000e+000
0.000000e+000
0.000000e+000
0.000000e+000
0.000000e+000
0.000000e+000
0.000000e+000
0.000000e+000
0.000000e+000
0.000000e+000
0.000000e+000
0.000000e+000
0.000000e+000
0.000000e+000
0.000000e+000
0.000000e+000
0.000000e+000
0.000000e+000
0.000000e+000
0.000000e+000
0.000000e+000
0.000000e+000
0.000000e+000
0.000000e+000
0.000000e+000
0.000000e+000
0.000000e+000
0.000000e+000
0.000000e+000
0.000000e+000
0.000000e+000
0.000000e+000
0.000000e+000
0.000000e+000
0.000000e+000
0.000000e+000
0.000000e+000
0.000000e+000
0.000000e+000
0.000000e+000
0.000000e+000
0.000000e+000
0.000000e+000
0.000000e+000
0.000000e+000
0.000000e+000
0.000000e+000
0.000000e+000
0.000000e+000
0.000000e+000
0.000000e+000
0.000000e+000
-1.412249e-009
-7.219793e-010
1.018520e-010
5.993235e-010
6.845743e-010
5.741514e-010
4.712297e-010
3.357960e-010
-2.735821e-011
-6.592896e-010
-1.253819e-009
-1.325846e-009
-6.315103e-010
5.457593e-010
1.540986e-009
1.791680e-009
1.243802e-009
3.299406e-010
-4.318451e-010
-8.298941e-010
-1.000852e-009
-1.150091e-009
-1.282564e-009
-1.215706e-009
-8.178680e-010
-1.854745e-010
4.298832e-010
8.457391e-010
1.076247e-009
1.247764e-009
1.426077e-009
1.552112e-009
1.533865e-009
1.364844e-009
1.132141e-009
9.221341e-010
7.440894e-010
5.515684e-010
3.186147e-010
7.455968e-011
-1.336364e-010
-2.938257e-010
-4.319895e-010
-5.718604e-010
-7.069493e-010
-8.159089e-010
-8.936187e-010
-9.553296e-010
-1.012522e-009
-1.057195e-009
-1.076477e-009
-1.075094e-009
-1.071486e-009
-1.070861e-009
-1.053838e-009
-1.001198e-009
-9.240903e-010
-8.549065e-010
-8.034303e-010
-7.349934e-010
-6.076446e-010
-4.284140e-010
-2.531448e-010
-1.183273e-010
1.371788e-011
2.168078e-010
5.022896e-010
7.808097e-010
9.467647e-010
9.956134e-010
1.026105e-009
1.106843e-009
1.160434e-009
1.020104e-009
6.175721e-010
9.066037e-011
-3.292519e-010
-5.389497e-010
-6.429613e-010
-7.894522e-010
-9.444449e-010
-8.768304e-010
-4.039979e-010
3.509561e-010
9.797452e-010
1.101242e-009
6.773666e-010
3.366157e-011
-4.250789e-010
-5.265907e-010
-3.926629e-010
-2.382066e-010
-1.435870e-010
-2.631288e-011
1.924038e-010
4.322144e-010
4.901353e-010
2.402069e-010
-2.068759e-010
-5.551967e-010
-4.037924e-010
-5.894891e-011
2.829309e-010
3.331347e-010
7.463891e-011
-2.506984e-010
-3.600899e-010
-1.667930e-010
1.608571e-010
3.591927e-010
2.976418e-010
7.032405e-011
-1.213029e-010
-1.680159e-010
-1.354768e-010
-1.570492e-010
-2.614350e-010
-3.247133e-010
-2.001685e-010
1.135500e-010
4.478035e-010
6.111265e-010
5.544321e-010
3.873003e-010
2.430830e-010
1.475287e-010
2.568180e-011
-1.807154e-010
-4.291666e-010
-6.159758e-010
-6.824118e-010
-6.630423e-010
-6.308131e-010
-6.134188e-010
-5.765351e-010
-4.805622e-010
-3.341305e-010
-1.837687e-010
-6.184824e-011
4.082987e-011
1.509456e-010
2.744658e-010
3.915283e-010
4.839236e-010
5.555915e-010
6.220693e-010
6.876912e-010
7.420930e-010
7.777200e-010
8.012807e-010
8.228059e-010
8.391546e-010
8.373661e-010
8.146717e-010
7.860217e-010
7.649263e-010
7.417551e-010
6.920670e-010
6.091385e-010
5.179580e-010
4.463135e-010
3.855580e-010
2.949316e-010
1.524837e-010
-8.726714e-012
-1.313530e-010
-2.013488e-010
-2.675026e-010
-3.789702e-010
-5.108843e-010
-5.744567e-010
-5.116993e-010
-3.662271e-010
-2.392600e-010
-1.746233e-010
-1.091855e-010
4.396018e-011
2.703199e-010
4.370557e-010
4.170901e-010
2.236059e-010
5.129259e-012
-9.731941e-011
-7.820886e-011
-4.663486e-011
-8.788354e-011
-1.643042e-010
-1.626168e-010
-3.114256e-011
1.458816e-010
2.195558e-010
1.211804e-010
-6.625465e-011
-1.810892e-010
-1.293745e-010
3.330510e-011
1.566943e-010
1.323547e-010
-1.258362e-011
-1.444486e-010
7.872786e-010
5.991481e-010
2.915400e-010
-9.119284e-011
-5.109497e-010
-8.646372e-010
-9.550363e-010
-5.958128e-010
1.945695e-010
1.089442e-009
1.589356e-009
1.343278e-009
4.127692e-010
-7.457592e-010
-1.576750e-009
-1.763263e-009
-1.352780e-009
-6.205224e-010
1.603988e-010
8.400588e-010
1.356018e-009
1.650975e-009
1.660571e-009
1.371063e-009
8.582698e-010
2.516738e-010
-3.385318e-010
-8.572424e-010
-1.282429e-009
-1.590833e-009
-1.756829e-009
-1.776679e-009
-1.678154e-009
-1.500040e-009
-1.266988e-009
-9.881991e-010
-6.750419e-010
-3.503955e-010
-3.792206e-011
2.524484e-010
5.235830e-010
7.778828e-010
1.009978e-009
1.212942e-009
1.386705e-009
1.536481e-009
1.664735e-009
1.768903e-009
1.847265e-009
1.903018e-009
1.939942e-009
1.956602e-009
1.948846e-009
1.917647e-009
1.869957e-009
1.809455e-009
1.729775e-009
1.621456e-009
1.484707e-009
1.329730e-009
1.161858e-009
9.709818e-010
7.418490e-010
4.742275e-010
1.864473e-010
-1.035601e-010
-3.941545e-010
-6.889000e-010
-9.708939e-010
-1.197800e-009
-1.328035e-009
-1.346274e-009
-1.255456e-009
-1.048913e-009
-7.085305e-010
-2.437422e-010
2.733146e-010
7.280951e-010
1.027201e-009
1.136413e-009
1.054025e-009
7.667957e-010
2.676768e-010
-3.627803e-010
-9.112919e-010
-1.117464e-009
-8.548650e-010
-2.523062e-010
3.699171e-010
7.104122e-010
6.711700e-010
3.739194e-010
2.478435e-011
-2.323580e-010
-3.577359e-010
-3.624150e-010
-2.552860e-010
-5.255884e-011
1.825443e-010
3.430262e-010
1.310267e-009
6.318305e-010
-1.346558e-010
-5.299991e-010
-5.295393e-010
-4.196531e-010
-4.100277e-010
-3.949484e-010
-1.078522e-010
5.027160e-010
1.090815e-009
1.155921e-009
5.066882e-010
-5.060146e-010
-1.235735e-009
-1.255241e-009
-6.699779e-010
3.746615e-011
4.485228e-010
5.078238e-010
4.407974e-010
4.450978e-010
4.987808e-010
4.478330e-010
2.226566e-010
-7.160039e-011
-2.672172e-010
-2.971057e-010
-2.301999e-010
-1.675585e-010
-1.357098e-010
-8.732041e-011
1.891853e-011
1.650822e-010
2.993043e-010
3.934888e-010
4.628245e-010
5.353128e-010
6.170135e-010
6.916207e-010
7.452321e-010
7.820083e-010
8.157634e-010
8.531051e-010
8.888393e-010
9.153904e-010
9.322793e-010
9.451996e-010
9.580299e-010
9.681998e-010
9.704924e-010
9.642197e-010
9.547416e-010
9.467880e-010
9.374772e-010
9.189647e-010
8.893518e-010
8.578741e-010
8.345860e-010
8.151042e-010
7.820653e-010
7.266159e-010
6.637367e-010
6.159475e-010
5.796142e-010
5.190129e-010
4.063242e-010
2.636722e-010
1.473966e-010
8.105493e-011
1.867990e-011
-1.012423e-010
-2.620789e-010
-3.548709e-010
-2.841905e-010
-8.393689e-011
1.026687e-010
1.765336e-010
1.960674e-010
2.997531e-010
5.056204e-010
6.237013e-010
4.193662e-010
-1.156013e-010
-6.781140e-010
-8.798170e-010
-5.844476e-010
-2.714459e-011
4.011508e-010
4.875520e-010
3.278198e-010
1.563488e-010
8.436792e-011
2.418299e-011
-1.451461e-010
-3.784460e-010
-4.662559e-010
-2.473830e-010
1.907440e-010
5.440719e-010
1.007763e-009
1.042696e-010
-7.587625e-010
-8.268720e-010
-1.104700e-010
7.074658e-010
9.102308e-010
3.566088e-010
-4.563457e-010
-8.840790e-010
-6.937920e-010
-1.833853e-010
1.960628e-010
2.922386e-010
3.220366e-010
5.312331e-010
8.463623e-010
9.089577e-010
4.536392e-010
-3.817016e-010
-1.144776e-009
-1.457587e-009
-1.302209e-009
-9.395704e-010
-5.970594e-010
-2.745849e-010
1.596020e-010
7.442075e-010
1.341936e-009
1.769906e-009
1.969965e-009
2.029267e-009
2.055316e-009
2.065533e-009
2.004250e-009
1.838603e-009
1.608918e-009
1.386114e-009
1.202334e-009
1.037031e-009
8.615257e-010
6.792909e-010
5.180926e-010
3.942445e-010
2.967137e-010
2.059268e-010
1.185874e-010
4.772228e-011
1.880551e-012
-2.741901e-011
-5.416747e-011
-7.862357e-011
-8.687723e-011
-7.106366e-011
-4.334678e-011
-2.210964e-011
-5.180348e-012
3.325076e-011
1.117592e-010
2.137943e-010
3.045264e-010
3.794532e-010
4.819157e-010
6.550204e-010
8.787506e-010
1.077058e-009
1.201609e-009
1.292814e-009
1.427613e-009
1.600313e-009
1.685664e-009
1.554353e-009
1.221880e-009
8.459286e-010
5.534612e-010
2.958002e-010
-7.712714e-011
-5.863503e-010
-1.010350e-009
-1.057133e-009
-6.645218e-010
-9.883081e-011
2.768305e-010
3.303201e-010
2.375761e-010
2.367572e-010
3.429381e-010
3.441499e-010
7.830951e-011
-3.276024e-010
-5.374078e-010
-3.376924e-010
1.235309e-010
4.493039e-010
3.586840e-010
-4.972461e-011
-3.906765e-010
-3.519158e-010
1.963425e-011
3.692860e-010
3.246289e-010
-3.648284e-010
-9.549644e-010
-7.779383e-010
1.841838e-010
1.270768e-009
1.644427e-009
9.458744e-010
-4.138525e-010
-1.561812e-009
-1.816378e-009
-1.143731e-009
-6.794520e-011
8.171001e-010
1.256658e-009
1.336094e-009
1.191382e-009
8.120897e-010
1.438167e-010
-6.870119e-010
-1.346017e-009
-1.533350e-009
-1.237028e-009
-7.166959e-010
-2.408961e-010
1.326934e-010
5.169736e-010
9.834504e-010
1.441579e-009
1.733382e-009
1.807068e-009
1.761287e-009
1.725546e-009
1.731243e-009
1.714786e-009
1.623678e-009
1.486834e-009
1.376350e-009
1.324727e-009
1.300490e-009
1.259124e-009
1.196731e-009
1.144544e-009
1.122958e-009
1.117622e-009
1.102514e-009
1.073810e-009
1.050515e-009
1.045280e-009
1.046665e-009
1.036007e-009
1.014669e-009
1.003210e-009
1.011764e-009
1.021876e-009
1.008317e-009
9.756519e-010
9.584736e-010
9.773239e-010
1.005265e-009
9.965717e-010
9.506083e-010
9.271860e-010
9.801423e-010
1.084259e-009
1.155780e-009
1.156579e-009
1.153984e-009
1.244584e-009
1.418999e-009
1.538142e-009
1.471357e-009
1.241612e-009
9.934757e-010
8.074281e-010
5.860454e-010
1.709940e-010
-4.275763e-010
-9.632693e-010
-1.150564e-009
-9.226109e-010
-4.690238e-010
-2.547328e-011
3.304769e-010
6.473643e-010
9.008040e-010
9.074002e-010
4.978156e-010
-2.275633e-010
-8.683702e-010
-1.006937e-009
-5.577674e-010
1.482112e-010
6.278640e-010
6.196925e-010
2.469776e-010
-1.394022e-010
-2.691906e-010
-1.445843e-010
1.878126e-011
-3.326961e-010
-3.238217e-010
-3.083526e-010
-2.103523e-010
8.008905e-011
5.266486e-010
8.507587e-010
7.127969e-010
5.793876e-011
-7.298274e-010
-1.087168e-009
-7.487266e-010
1.082872e-011
6.169250e-010
6.890798e-010
3.168795e-010
-1.103263e-010
-2.922049e-010
-2.204100e-010
-5.202211e-011
1.237572e-010
3.423287e-010
6.266784e-010
8.782160e-010
9.509255e-010
8.114318e-010
5.792430e-010
3.991808e-010
3.049172e-010
2.299986e-010
1.318099e-010
6.401060e-011
1.149484e-010
3.013959e-010
5.510747e-010
7.857573e-010
9.959860e-010
1.223319e-009
1.487187e-009
1.752649e-009
1.970977e-009
2.132612e-009
2.266721e-009
2.396518e-009
2.511864e-009
2.589893e-009
2.629863e-009
2.654768e-009
2.680812e-009
2.698542e-009
2.691187e-009
2.663615e-009
2.640036e-009
2.631446e-009
2.617699e-009
2.572720e-009
2.501984e-009
2.438640e-009
2.396150e-009
2.338579e-009
2.215736e-009
2.026082e-009
1.823878e-009
1.651139e-009
1.477671e-009
1.235267e-009
9.148869e-010
6.032921e-010
3.998912e-010
3.086000e-010
2.440140e-010
1.524581e-010
9.450427e-011
1.726591e-010
3.843705e-010
5.875493e-010
6.343746e-010
5.167154e-010
3.473635e-010
2.088401e-010
7.161271e-011
-1.100226e-010
-2.601230e-010
-2.121596e-010
8.863896e-011
4.493234e-010
5.572273e-010
2.733883e-010
-2.142598e-010
-5.495352e-010
-5.207098e-010
-2.156704e-010
1.086974e-010
2.723259e-010
2.785884e-010
2.197550e-010
1.401216e-010
1.976379e-011
-1.379671e-010
-2.581876e-010
-9.221028e-010
3.788532e-011
8.635056e-010
7.588420e-010
-1.161613e-010
-9.091256e-010
-9.270822e-010
-2.313344e-010
5.391015e-010
8.377638e-010
6.580734e-010
3.625870e-010
1.844826e-010
-4.953398e-012
-4.352859e-010
-1.036832e-009
-1.395442e-009
-1.127956e-009
-2.645238e-010
7.681664e-010
1.518387e-009
1.832534e-009
1.839390e-009
1.703349e-009
1.462206e-009
1.089920e-009
6.356792e-010
2.380269e-010
9.686343e-012
-4.775428e-011
-1.547834e-012
1.083579e-010
2.942788e-010
5.618538e-010
8.630937e-010
1.126193e-009
1.317319e-009
1.453065e-009
1.555095e-009
1.612506e-009
1.597906e-009
1.507839e-009
1.370910e-009
1.216393e-009
1.048442e-009
8.581000e-010
6.515490e-010
4.537567e-010
2.843851e-010
1.419922e-010
1.927900e-011
-7.332662e-011
-1.114842e-010
-8.513195e-011
-1.118056e-011
9.019278e-011
2.244300e-010
4.131950e-010
6.538655e-010
9.026774e-010
1.110530e-009
1.268505e-009
1.400227e-009
1.506700e-009
1.539147e-009
1.445424e-009
1.235702e-009
9.783981e-010
7.262153e-010
4.714288e-010
1.966639e-010
-4.605594e-011
-1.475442e-010
-4.853974e-011
1.926765e-010
4.686426e-010
7.407429e-010
1.038282e-009
1.323588e-009
1.412937e-009
1.111246e-009
4.502730e-010
-2.550408e-010
-6.465159e-010
-6.288245e-010
-4.109116e-010
-2.419207e-010
-1.510553e-010
1.031984e-011
2.943171e-010
5.067126e-010
3.940440e-010
-3.274135e-011
-4.303175e-010
-4.343286e-010
-3.927618e-011
3.693251e-010
3.904427e-010
1.263966e-011
-3.733521e-010
-1.419844e-009
1.865836e-010
1.640879e-009
1.557059e-009
9.292911e-012
-1.668484e-009
-2.106322e-009
-1.031964e-009
6.331459e-010
1.677104e-009
1.591117e-009
7.829341e-010
-2.311038e-011
-4.753518e-010
-7.053095e-010
-9.063361e-010
-9.776289e-010
-6.510147e-010
1.062462e-010
9.370868e-010
1.390412e-009
1.332884e-009
1.027714e-009
8.314802e-010
8.713197e-010
1.026697e-009
1.157461e-009
1.271703e-009
1.464828e-009
1.756972e-009
2.043282e-009
2.194016e-009
2.160067e-009
1.966440e-009
1.633778e-009
1.140716e-009
4.606344e-010
-3.935135e-010
-1.376342e-009
-2.449290e-009
-3.595930e-009
-4.801174e-009
-6.032063e-009
-7.247158e-009
-8.416590e-009
-9.523123e-009
-1.054646e-008
-1.145686e-008
-1.222665e-008
-1.283989e-008
-1.328433e-008
-1.353928e-008
-1.358097e-008
-1.340014e-008
-1.300563e-008
-1.240667e-008
-1.160049e-008
-1.058823e-008
-9.400338e-009
-8.093625e-009
-6.719128e-009
-5.305339e-009
-3.884145e-009
-2.522932e-009
-1.307662e-009
-2.874749e-010
5.445205e-010
1.199111e-009
1.636850e-009
1.801797e-009
1.717330e-009
1.512594e-009
1.317100e-009
1.141652e-009
9.115983e-010
6.326239e-010
4.698679e-010
5.929967e-010
9.374871e-010
1.185809e-009
1.046565e-009
5.451558e-010
-8.206068e-012
-3.440098e-010
-4.735222e-010
-5.668019e-010
-6.410034e-010
-4.793924e-010
7.455565e-011
7.885795e-010
1.121186e-009
7.136117e-010
-1.971114e-010
-9.133310e-010
-8.825678e-010
-1.991083e-010
4.921815e-010
6.019755e-010
1.306270e-010
-3.733057e-010
-1.408147e-009
-7.304703e-011
1.259504e-009
1.447540e-009
3.775325e-010
-1.021806e-009
-1.592904e-009
-9.221687e-010
3.516901e-010
1.150680e-009
9.179300e-010
4.009714e-011
-6.156950e-010
-5.351196e-010
6.546519e-011
6.038009e-010
7.510781e-010
6.400185e-010
5.440671e-010
5.034529e-010
3.471654e-010
2.050841e-011
-2.368906e-010
-9.676550e-011
5.186116e-010
1.359156e-009
2.094290e-009
2.578218e-009
2.853714e-009
2.952949e-009
2.767478e-009
2.124994e-009
9.453710e-010
-7.170419e-010
-2.767931e-009
-5.167529e-009
-7.921700e-009
-1.101047e-008
-1.435587e-008
-1.785806e-008
-2.144097e-008
-2.505426e-008
-2.864459e-008
-3.214089e-008
-3.546688e-008
-3.855723e-008
-4.135803e-008
-4.381806e-008
-4.588503e-008
-4.750730e-008
-4.863572e-008
-4.922648e-008
-4.924806e-008
-4.868512e-008
-4.753197e-008
-4.578474e-008
-4.345053e-008
-4.057000e-008
-3.722339e-008
-3.350509e-008
-2.949755e-008
-2.528571e-008
-2.099798e-008
-1.680837e-008
-1.287304e-008
-9.269099e-009
-6.021771e-009
-3.196079e-009
-9.250771e-010
6.914874e-010
1.706490e-009
2.294038e-009
2.574849e-009
2.511465e-009
2.032465e-009
1.256023e-009
5.194525e-010
1.288376e-010
9.644862e-011
1.806953e-010
1.891091e-010
1.760246e-010
2.926013e-010
4.929503e-010
5.046142e-010
1.508870e-010
-3.546649e-010
-5.432979e-010
-1.706803e-010
4.747229e-010
8.028257e-010
4.843448e-010
-2.258083e-010
-7.278559e-010
-6.309220e-010
-8.281365e-011
4.078985e-010
4.486292e-010
8.813705e-011
-2.738201e-010
-3.620277e-010
-3.592024e-010
-1.722045e-010
1.988499e-010
4.848277e-010
4.489164e-010
1.791791e-010
-2.474489e-011
-4.236506e-011
-9.106287e-011
-4.135292e-010
-8.627710e-010
-9.338902e-010
-2.821708e-010
8.368441e-010
1.726472e-009
1.865763e-009
1.336195e-009
6.457672e-010
2.131212e-010
9.065835e-011
1.413560e-010
3.383490e-010
7.851794e-010
1.474043e-009
2.136459e-009
2.393499e-009
2.019816e-009
1.010096e-009
-5.966948e-010
-2.890812e-009
-6.058310e-009
-1.021140e-008
-1.530120e-008
-2.119750e-008
-2.781137e-008
-3.511268e-008
-4.304836e-008
-5.148136e-008
-6.022025e-008
-6.908906e-008
-7.795306e-008
-8.668754e-008
-9.514378e-008
-1.031540e-007
-1.105612e-007
-1.172357e-007
-1.230655e-007
-1.279376e-007
-1.317313e-007
-1.343300e-007
-1.356389e-007
-1.355944e-007
-1.341553e-007
-1.312892e-007
-1.269774e-007
-1.212485e-007
-1.142065e-007
-1.060196e-007
-9.687586e-008
-8.696516e-008
-7.651841e-008
-6.585266e-008
-5.533817e-008
-4.529277e-008
-3.591596e-008
-2.734530e-008
-1.975998e-008
-1.337462e-008
-8.296970e-009
-4.420942e-009
-1.517962e-009
5.534577e-010
1.774865e-009
2.137884e-009
1.849568e-009
1.296406e-009
7.862383e-010
3.814851e-010
3.045231e-011
-1.900998e-010
-7.349853e-011
4.337716e-010
1.026021e-009
1.231633e-009
8.531100e-010
1.711426e-010
-3.281964e-010
-4.070940e-010
-2.261537e-010
-7.910598e-011
-6.560385e-011
-6.602783e-011
2.476927e-011
1.414837e-010
1.516258e-010
4.439218e-011
-5.661763e-011
-5.903148e-011
-1.068083e-011
1.523446e-009
-2.051961e-010
-1.684329e-009
-1.494941e-009
6.819089e-011
1.527762e-009
1.724592e-009
7.547371e-010
-4.126023e-010
-9.921572e-010
-9.492872e-010
-6.693170e-010
-3.515214e-010
1.097652e-010
7.476224e-010
1.269614e-009
1.317869e-009
9.179391e-010
5.328075e-010
6.280116e-010
1.240748e-009
2.008014e-009
2.544632e-009
2.695321e-009
2.421819e-009
1.558026e-009
-2.260493e-010
-3.236309e-009
-7.614952e-009
-1.341906e-008
-2.078191e-008
-2.992886e-008
-4.102846e-008
-5.406768e-008
-6.888747e-008
-8.530488e-008
-1.031614e-007
-1.222593e-007
-1.422940e-007
-1.628773e-007
-1.836235e-007
-2.041986e-007
-2.242973e-007
-2.435985e-007
-2.617619e-007
-2.784659e-007
-2.934356e-007
-3.064326e-007
-3.172236e-007
-3.255663e-007
-3.312276e-007
-3.340141e-007
-3.337841e-007
-3.304316e-007
-3.238721e-007
-3.140651e-007
-3.010690e-007
-2.850781e-007
-2.664009e-007
-2.454095e-007
-2.225330e-007
-1.983114e-007
-1.734287e-007
-1.486414e-007
-1.246389e-007
-1.019706e-007
-8.109966e-008
-6.247314e-008
-4.646381e-008
-3.321117e-008
-2.255849e-008
-1.419653e-008
-7.868529e-009
-3.402351e-009
-5.589378e-010
1.060270e-009
1.876726e-009
2.125073e-009
1.863178e-009
1.219854e-009
5.538066e-010
2.660708e-010
4.477734e-010
7.941718e-010
9.204327e-010
7.255306e-010
3.959909e-010
1.011819e-010
-1.879944e-010
-5.243702e-010
-7.368290e-010
-5.280339e-010
1.226739e-010
7.630996e-010
8.264883e-010
2.279426e-010
-4.793283e-010
-6.328518e-010
-1.444174e-010
4.094326e-010
3.009099e-009
3.201575e-010
-2.203679e-009
-2.404533e-009
-4.885836e-010
1.539277e-009
1.924550e-009
6.723561e-010
-7.749989e-010
-1.111610e-009
-3.165397e-010
6.268347e-010
8.855198e-010
4.976200e-010
5.918754e-011
-2.899340e-011
1.585116e-010
4.290444e-010
8.495862e-010
1.626566e-009
2.686765e-009
3.530083e-009
3.537190e-009
2.338326e-009
-1.840517e-010
-4.201871e-009
-1.015257e-008
-1.863384e-008
-3.016695e-008
-4.511511e-008
-6.377787e-008
-8.645099e-008
-1.133276e-007
-1.443538e-007
-1.792108e-007
-2.174241e-007
-2.584585e-007
-3.017109e-007
-3.464648e-007
-3.919142e-007
-4.372570e-007
-4.817668e-007
-5.247874e-007
-5.656860e-007
-6.038396e-007
-6.386686e-007
-6.696665e-007
-6.963882e-007
-7.184079e-007
-7.352971e-007
-7.466444e-007
-7.520935e-007
-7.513581e-007
-7.442067e-007
-7.304567e-007
-7.100166e-007
-6.829628e-007
-6.495874e-007
-6.103819e-007
-5.660016e-007
-5.172802e-007
-4.652913e-007
-4.113570e-007
-3.569388e-007
-3.034731e-007
-2.522833e-007
-2.045877e-007
-1.614776e-007
-1.237742e-007
-9.185728e-008
-6.565457e-008
-4.481558e-008
-2.887359e-008
-1.723685e-008
-9.115534e-009
-3.619421e-009
-3.385064e-011
2.015768e-009
2.731852e-009
2.461496e-009
1.762603e-009
1.120142e-009
6.725150e-010
3.099202e-010
1.397269e-011
-3.349014e-011
2.557407e-010
5.888274e-010
4.919185e-010
-1.300820e-010
-7.481773e-010
-6.861300e-010
1.198529e-010
9.412523e-010
9.473131e-010
8.084483e-011
-8.312806e-010
-8.985027e-010
-8.091182e-011
7.642818e-010
2.675795e-009
6.375565e-010
-1.376772e-009
-1.756351e-009
-5.663276e-010
7.616540e-010
9.117250e-010
-8.062248e-011
-9.874701e-010
-7.111760e-010
6.005043e-010
1.755220e-009
1.749785e-009
7.182342e-010
-3.210094e-010
-5.101671e-010
1.662222e-010
1.143724e-009
1.965123e-009
2.537421e-009
2.783150e-009
2.251908e-009
1.846703e-010
-4.134900e-009
-1.125064e-008
-2.178317e-008
-3.670501e-008
-5.727415e-008
-8.469038e-008
-1.198272e-007
-1.632189e-007
-2.151469e-007
-2.756111e-007
-3.441996e-007
-4.200393e-007
-5.019113e-007
-5.884220e-007
-6.780961e-007
-7.693911e-007
-8.607329e-007
-9.506116e-007
-1.037671e-006
-1.120723e-006
-1.198699e-006
-1.270622e-006
-1.335611e-006
-1.392901e-006
-1.441817e-006
-1.481727e-006
-1.512002e-006
-1.532035e-006
-1.541272e-006
-1.539232e-006
-1.525492e-006
-1.499703e-006
-1.461642e-006
-1.411316e-006
-1.349023e-006
-1.275364e-006
-1.191255e-006
-1.097992e-006
-9.973270e-007
-8.914727e-007
-7.829707e-007
-6.745246e-007
-5.688848e-007
-4.687570e-007
-3.766145e-007
-2.944054e-007
-2.233263e-007
-1.638220e-007
-1.157410e-007
-7.842549e-008
-5.068243e-008
-3.084394e-008
-1.709842e-008
-7.924208e-009
-2.249860e-009
7.647168e-010
1.985290e-009
2.233410e-009
1.997811e-009
1.384352e-009
4.730698e-010
-3.384655e-010
-5.078996e-010
8.530061e-011
8.751648e-010
1.080950e-009
4.883720e-010
-3.174075e-010
-5.609181e-010
-8.587593e-011
5.055525e-010
5.179919e-010
-9.622076e-011
-6.993590e-010
-6.451473e-010
5.052614e-011
7.231367e-010
3.144506e-010
3.310572e-010
2.477126e-010
7.194484e-011
-6.955436e-011
-1.585015e-010
-3.347998e-010
-6.137050e-010
-6.752511e-010
-1.504291e-010
8.373754e-010
1.593584e-009
1.497534e-009
7.174911e-010
1.396902e-010
5.103565e-010
1.700121e-009
2.852315e-009
3.152686e-009
2.299577e-009
2.004482e-010
-3.658172e-009
-1.045022e-008
-2.173493e-008
-3.915175e-008
-6.446029e-008
-9.973236e-008
-1.472657e-007
-2.091400e-007
-2.867596e-007
-3.806945e-007
-4.907601e-007
-6.160791e-007
-7.550354e-007
-9.052794e-007
-1.063922e-006
-1.227849e-006
-1.393970e-006
-1.559338e-006
-1.721213e-006
-1.877154e-006
-2.025101e-006
-2.163387e-006
-2.290679e-006
-2.405890e-006
-2.508137e-006
-2.596711e-006
-2.671025e-006
-2.730537e-006
-2.774700e-006
-2.802949e-006
-2.814724e-006
-2.809462e-006
-2.786590e-006
-2.745529e-006
-2.685760e-006
-2.606917e-006
-2.508871e-006
-2.391793e-006
-2.256259e-006
-2.103429e-006
-1.935224e-006
-1.754411e-006
-1.564555e-006
-1.369935e-006
-1.175433e-006
-9.862983e-007
-8.077021e-007
-6.441601e-007
-4.990917e-007
-3.746583e-007
-2.717577e-007
-1.899882e-007
-1.276365e-007
-8.194816e-008
-4.974136e-008
-2.802409e-008
-1.422089e-008
-6.048195e-009
-1.469252e-009
1.038886e-009
2.227290e-009
2.289233e-009
1.467771e-009
4.211061e-010
-8.661091e-011
1.865926e-010
7.739440e-010
1.008922e-009
6.758879e-010
1.177665e-010
-2.219581e-010
-2.372628e-010
-1.331152e-010
-9.735603e-011
-1.174410e-010
-9.098061e-011
5.183123e-012
1.079880e-010
1.640280e-010
-2.609929e-009
-3.243466e-010
1.732703e-009
1.838971e-009
4.069646e-010
-9.028036e-010
-1.028900e-009
-3.011503e-010
3.400895e-010
4.655905e-010
3.534454e-010
3.685610e-010
5.371806e-010
7.824789e-010
1.265634e-009
2.195031e-009
3.310850e-009
3.765165e-009
2.588585e-009
-8.860209e-010
-7.265904e-009
-1.781629e-008
-3.490578e-008
-6.179498e-008
-1.021218e-007
-1.596083e-007
-2.380085e-007
-3.408908e-007
-4.710432e-007
-6.297867e-007
-8.166242e-007
-1.029314e-006
-1.264130e-006
-1.516106e-006
-1.779343e-006
-2.047484e-006
-2.314306e-006
-2.574210e-006
-2.822473e-006
-3.055318e-006
-3.269932e-006
-3.464457e-006
-3.637916e-006
-3.790041e-006
-3.921073e-006
-4.031590e-006
-4.122375e-006
-4.194303e-006
-4.248216e-006
-4.284839e-006
-4.304725e-006
-4.308219e-006
-4.295404e-006
-4.266026e-006
-4.219433e-006
-4.154551e-006
-4.069904e-006
-3.963648e-006
-3.833677e-006
-3.677879e-006
-3.494545e-006
-3.282867e-006
-3.043393e-006
-2.778424e-006
-2.492332e-006
-2.191709e-006
-1.885113e-006
-1.582312e-006
-1.293192e-006
-1.026695e-006
-7.899916e-007
-5.878415e-007
-4.221412e-007
-2.918527e-007
-1.935591e-007
-1.224909e-007
-7.348395e-008
-4.146944e-008
-2.165769e-008
-9.851813e-009
-2.946528e-009
8.474952e-010
2.406789e-009
2.411808e-009
1.696705e-009
1.003123e-009
6.180712e-010
4.306068e-010
3.112200e-010
2.894933e-010
3.546663e-010
2.936774e-010
-7.027773e-011
-5.237602e-010
-5.744939e-010
-3.736899e-011
6.160867e-010
6.890935e-010
5.700307e-011
-6.263337e-010
-4.062438e-009
-6.328613e-010
2.402549e-009
2.449148e-009
2.509810e-010
-1.481658e-009
-1.093751e-009
5.939944e-010
1.611176e-009
1.067033e-009
-1.604848e-010
-6.576315e-010
6.199523e-011
1.398610e-009
2.567776e-009
3.231260e-009
3.203812e-009
1.830409e-009
-2.179224e-009
-1.053676e-008
-2.544306e-008
-5.014512e-008
-8.942009e-008
-1.493961e-007
-2.367981e-007
-3.581508e-007
-5.191750e-007
-7.241106e-007
-9.747361e-007
-1.269361e-006
-1.602358e-006
-1.964524e-006
-2.344034e-006
-2.727623e-006
-3.101795e-006
-3.454010e-006
-3.773762e-006
-4.053291e-006
-4.287817e-006
-4.475371e-006
-4.616446e-006
-4.713601e-006
-4.771027e-006
-4.794067e-006
-4.788739e-006
-4.761336e-006
-4.718123e-006
-4.665135e-006
-4.608022e-006
-4.551929e-006
-4.501402e-006
-4.460261e-006
-4.431412e-006
-4.416583e-006
-4.416001e-006
-4.428044e-006
-4.448909e-006
-4.472361e-006
-4.489689e-006
-4.490045e-006
-4.461210e-006
-4.390766e-006
-4.267556e-006
-4.083368e-006
-3.834660e-006
-3.523938e-006
-3.160282e-006
-2.758699e-006
-2.338419e-006
-1.920508e-006
-1.525192e-006
-1.169241e-006
-8.639218e-007
-6.141379e-007
-4.190214e-007
-2.735401e-007
-1.702444e-007
-1.005982e-007
-5.598769e-008
-2.869417e-008
-1.270253e-008
-3.904007e-009
3.840331e-010
2.043981e-009
2.382991e-009
2.067094e-009
1.293653e-009
3.006013e-010
-3.601844e-010
-2.243254e-010
4.698504e-010
8.618656e-010
3.784039e-010
-5.322343e-010
-8.213342e-010
-6.019696e-011
9.602283e-010
1.051973e-009
-7.642509e-013
-1.125958e-009
-3.127178e-009
-2.598165e-010
2.095507e-009
1.738294e-009
-4.276008e-010
-1.759273e-009
-8.213185e-010
1.263513e-009
2.284974e-009
1.394460e-009
-1.464628e-010
-5.019681e-010
8.139611e-010
2.652685e-009
3.537996e-009
2.811800e-009
3.463572e-010
-4.690610e-009
-1.469876e-008
-3.364447e-008
-6.684493e-008
-1.211813e-007
-2.054616e-007
-3.301337e-007
-5.060189e-007
-7.424550e-007
-1.045342e-006
-1.415234e-006
-1.845563e-006
-2.321494e-006
-2.820199e-006
-3.312882e-006
-3.768117e-006
-4.155552e-006
-4.449174e-006
-4.629718e-006
-4.686040e-006
-4.615396e-006
-4.422713e-006
-4.119194e-006
-3.720697e-006
-3.246202e-006
-2.716497e-006
-2.153049e-006
-1.577109e-006
-1.009055e-006
-4.680197e-007
2.826699e-008
4.634882e-007
8.227098e-007
1.092396e-006
1.260564e-006
1.317145e-006
1.254619e-006
1.068910e-006
7.605229e-007
3.358166e-007
-1.917713e-007
-8.008332e-007
-1.461781e-006
-2.137597e-006
-2.785716e-006
-3.361155e-006
-3.820845e-006
-4.128839e-006
-4.261525e-006
-4.211679e-006
-3.990285e-006
-3.625525e-006
-3.158866e-006
-2.638730e-006
-2.112884e-006
-1.621396e-006
-1.192025e-006
-8.390075e-007
-5.647359e-007
-3.629388e-007
-2.221385e-007
-1.288211e-007
-7.003305e-008
-3.499615e-008
-1.549949e-008
-5.477755e-009
-6.068059e-010
1.723308e-009
2.538183e-009
2.053808e-009
7.379818e-010
-3.547291e-010
-3.440938e-010
5.567693e-010
1.205430e-009
7.711753e-010
-3.167583e-010
-8.506805e-010
-2.457918e-010
7.611623e-010
9.499311e-010
3.264202e-011
-9.978521e-010
-6.535790e-010
3.784767e-010
1.009620e-009
3.857516e-010
-8.634907e-010
-1.324131e-009
-3.523860e-010
1.192203e-009
1.868558e-009
1.249674e-009
4.114691e-010
7.344633e-010
2.332407e-009
3.809023e-009
3.450996e-009
2.780154e-010
-6.441239e-009
-1.886202e-008
-4.191775e-008
-8.349552e-008
-1.539753e-007
-2.660121e-007