# vtk DataFile Version 3.0
vtk output
ASCII
DATASET STRUCTURED_POINTS
DIMENSIONS 100 100 1
SPACING 1 1 1
ORIGIN 0 0 0
POINT_DATA 10000
SCALARS SFBox_profile double
LOOKUP_TABLE default 
0.000000e+000
0.000000e+000
0.000000e+000
0.000000e+000
0.000000e+000
0.000000e+000
0.000000e+000
0.000000e+000
0.000000e+000
0.000000e+000
0.000000e+000
0.000000e+000
0.000000e+000
0.000000e+000
0.000000e+000
0.000000e+000
0.000000e+000
0.000000e+000
0.000000e+000
0.000000e+000
0.000000e+000
0.000000e+000
0.000000e+000
0.000000e+000
0.000000e+000
0.000000e+000
0.000000e+000
0.000000e+000
0.000000e+000
0.000000e+000
0.000000e+000
0.000000e+000
0.000000e+000
0.000000e+000
0.000000e+000
0.000000e+000
0.000000e+000
0.000000e+000
0.000000e+000
0.000000e+000
0.000000e+000
0.000000e+000
0.000000e+000
0.000000e+000
0.000000e+000
0.000000e+000
0.000000e+000
0.000000e+000
0.000000e+000
0.000000e+000
0.000000e+000
0.000000e+000
0.000000e+000
0.000000e+000
0.000000e+000
0.000000e+000
0.000000e+000
0.000000e+000
0.000000e+000
0.000000e+000
0.000000e+000
0.000000e+000
0.000000e+000
0.000000e+000
0.000000e+000
0.000000e+000
0.000000e+000
0.000000e+000
0.000000e+000
0.000000e+000
0.000000e+000
0.000000e+000
0.000000e+000
0.000000e+000
0.000000e+000
0.000000e+000
0.000000e+000
0.000000e+000
0.000000e+000
0.000000e+000
0.000000e+000
0.000000e+000
0.000000e+000
0.000000e+000
0.000000e+000
0.000000e+000
0.000000e+000
0.000000e+000
0.000000e+000
0.000000e+000
0.000000e+000
0.000000e+000
0.000000e+000
0.000000e+000
0.000000e+000
0.000000e+000
0.000000e+000
0.000000e+000
0.000000e+000
0.000000e+000
-6.834676e-013
-7.514760e-013
-8.613369e-013
-9.495786e-013
-9.071108e-013
-5.540462e-013
3.806781e-013
2.301357e-012
5.767636e-012
1.153499e-011
2.058387e-011
3.412683e-011
5.361240e-011
8.068929e-011
1.171473e-010
1.648246e-010
2.254857e-010
3.006754e-010
3.915734e-010
4.988590e-010
6.225976e-010
7.621857e-010
9.163425e-010
1.083160e-009
1.260212e-009
1.444700e-009
1.633610e-009
1.823903e-009
2.012652e-009
2.197187e-009
2.375177e-009
2.544693e-009
2.704225e-009
2.852660e-009
2.989253e-009
3.113563e-009
3.225400e-009
3.324760e-009
3.411774e-009
3.486668e-009
3.549739e-009
3.601334e-009
3.641849e-009
3.671719e-009
3.691425e-009
3.701474e-009
3.702394e-009
3.694704e-009
3.678887e-009
3.655343e-009
3.624343e-009
3.585986e-009
3.540146e-009
3.486438e-009
3.424194e-009
3.352466e-009
3.270062e-009
3.175619e-009
3.067724e-009
2.945077e-009
2.806695e-009
2.652126e-009
2.481661e-009
2.296504e-009
2.098860e-009
1.891931e-009
1.679786e-009
1.467113e-009
1.258881e-009
1.059954e-009
8.746942e-010
7.066245e-010
5.581927e-010
4.306527e-010
3.240886e-010
2.375508e-010
1.692822e-010
1.169891e-010
7.811493e-011
5.008867e-011
3.051665e-011
1.730867e-011
8.736603e-012
3.446474e-012
4.216223e-013
-1.077161e-012
-1.573923e-012
-1.441842e-012
-9.543094e-013
-3.156609e-013
3.140747e-013
8.213774e-013
1.128332e-012
1.202563e-012
1.057457e-012
7.391754e-013
3.269834e-013
-8.927411e-014
-4.236865e-013
-6.090599e-013
-1.035938e-012
-1.035506e-012
-9.863890e-013
-7.856023e-013
-2.531153e-013
8.953567e-013
3.089988e-012
6.938405e-012
1.328089e-011
2.321880e-011
3.814432e-011
5.973567e-011
8.992827e-011
1.308342e-010
1.846183e-010
2.533283e-010
3.386891e-010
4.418831e-010
5.633457e-010
7.025947e-010
8.581453e-010
1.027500e-009
1.207255e-009
1.393288e-009
1.581023e-009
1.765736e-009
1.942858e-009
2.108254e-009
2.258439e-009
2.390722e-009
2.503273e-009
2.595109e-009
2.666022e-009
2.716473e-009
2.747441e-009
2.760295e-009
2.756648e-009
2.738265e-009
2.706977e-009
2.664649e-009
2.613171e-009
2.554475e-009
2.490561e-009
2.423534e-009
2.355611e-009
2.289128e-009
2.226498e-009
2.170157e-009
2.122451e-009
2.085525e-009
2.061155e-009
2.050584e-009
2.054346e-009
2.072086e-009
2.102430e-009
2.142881e-009
2.189796e-009
2.238461e-009
2.283288e-009
2.318125e-009
2.336700e-009
2.333152e-009
2.302609e-009
2.241737e-009
2.149182e-009
2.025841e-009
1.874891e-009
1.701550e-009
1.512619e-009
1.315816e-009
1.119038e-009
9.296322e-010
7.537755e-010
5.960593e-010
4.592925e-010
3.445335e-010
2.513140e-010
1.779849e-010
1.221183e-010
8.090196e-011
5.147063e-011
3.115479e-011
1.763982e-011
9.024102e-012
3.828579e-012
9.449594e-013
-4.249988e-013
-8.526522e-013
-7.319087e-013
-3.461606e-013
1.142541e-013
5.158532e-013
7.766420e-013
8.668216e-013
7.876004e-013
5.760385e-013
2.891096e-013
-4.710677e-015
-2.428036e-013
-3.744971e-013
-1.540395e-012
-1.359647e-012
-9.029290e-013
3.539158e-014
1.809208e-012
4.956881e-012
1.027025e-011
1.885002e-011
3.216141e-011
5.207926e-011
8.088276e-011
1.212052e-010
1.759089e-010
2.478678e-010
3.396739e-010
4.532554e-010
5.894752e-010
7.477223e-010
9.255923e-010
1.118697e-009
1.320674e-009
1.523407e-009
1.717466e-009
1.892721e-009
2.039053e-009
2.147090e-009
2.208862e-009
2.218315e-009
2.171638e-009
2.067374e-009
1.906332e-009
1.691344e-009
1.426909e-009
1.118770e-009
7.734932e-010
3.980751e-010
-3.652808e-013
-4.148079e-010
-8.384378e-010
-1.264664e-009
-1.687035e-009
-2.099123e-009
-2.494367e-009
-2.865938e-009
-3.206651e-009
-3.508947e-009
-3.764967e-009
-3.966724e-009
-4.106386e-009
-4.176640e-009
-4.171158e-009
-4.085111e-009
-3.915734e-009
-3.662885e-009
-3.329558e-009
-2.922298e-009
-2.451426e-009
-1.931034e-009
-1.378640e-009
-8.145114e-010
-2.605844e-010
2.609124e-010
7.290665e-010
1.125948e-009
1.438110e-009
1.657751e-009
1.783316e-009
1.819457e-009
1.776332e-009
1.668318e-009
1.512354e-009
1.326129e-009
1.126398e-009
9.276181e-010
7.410643e-010
5.744612e-010
4.320817e-010
3.152251e-010
2.228942e-010
1.525549e-010
1.008483e-010
6.416418e-011
3.906803e-011
2.254866e-011
1.213028e-011
5.889971e-012
2.396799e-012
6.300064e-013
-1.081648e-013
-2.833272e-013
-1.928286e-013
-1.441255e-014
1.506809e-013
2.593012e-013
2.964109e-013
2.747312e-013
2.152826e-013
1.436548e-013
8.159160e-014
4.627827e-014
-1.710363e-012
-1.140241e-012
1.910876e-013
2.701075e-012
7.073812e-012
1.435251e-011
2.601514e-011
4.406745e-011
7.110367e-011
1.103083e-010
1.653815e-010
2.403178e-010
3.390373e-010
4.648341e-010
6.196654e-010
8.033286e-010
1.012620e-009
1.240607e-009
1.476150e-009
1.703824e-009
1.904322e-009
2.055374e-009
2.133119e-009
2.113789e-009
1.975516e-009
1.700020e-009
1.273992e-009
6.900076e-010
-5.309399e-011
-9.503699e-010
-1.991384e-009
-3.161168e-009
-4.441369e-009
-5.811448e-009
-7.249806e-009
-8.734740e-009
-1.024513e-008
-1.176088e-008
-1.326301e-008
-1.473358e-008
-1.615531e-008
-1.751115e-008
-1.878381e-008
-1.995530e-008
-2.100664e-008
-2.191778e-008
-2.266774e-008
-2.323503e-008
-2.359832e-008
-2.373738e-008
-2.363430e-008
-2.327479e-008
-2.264971e-008
-2.175658e-008
-2.060107e-008
-1.919823e-008
-1.757339e-008
-1.576242e-008
-1.381127e-008
-1.177452e-008
-9.713067e-009
-7.690746e-009
-5.770336e-009
-4.009173e-009
-2.454919e-009
-1.141993e-009
-8.920739e-011
7.010715e-010
1.242062e-009
1.560134e-009
1.691180e-009
1.676330e-009
1.557634e-009
1.374294e-009
1.159865e-009
9.406227e-010
7.351070e-010
5.546155e-010
4.043731e-010
2.850264e-010
1.941759e-010
1.277343e-010
8.099092e-011
4.934484e-011
2.873861e-011
1.585442e-011
8.140121e-012
3.734183e-012
1.351494e-012
1.463735e-013
-4.040557e-013
-6.008725e-013
-6.057204e-013
-5.017766e-013
-3.285597e-013
-1.155515e-013
1.116841e-013
3.192177e-013
4.803828e-013
5.675406e-013
-5.738544e-013
7.845746e-013
3.880384e-012
9.506017e-012
1.897356e-011
3.420904e-011
5.789057e-011
9.353044e-011
1.454985e-010
2.188868e-010
3.191635e-010
4.515304e-010
6.199379e-010
8.257462e-010
1.066093e-009
1.332134e-009
1.607376e-009
1.866424e-009
2.074476e-009
2.187823e-009
2.155532e-009
1.922262e-009
1.432015e-009
6.323758e-010
-5.212461e-010
-2.061935e-009
-4.008573e-009
-6.364439e-009
-9.117172e-009
-1.223998e-008
-1.569388e-008
-1.943051e-008
-2.339529e-008
-2.753049e-008
-3.177787e-008
-3.608082e-008
-4.038585e-008
-4.464322e-008
-4.880700e-008
-5.283442e-008
-5.668486e-008
-6.031852e-008
-6.369512e-008
-6.677266e-008
-6.950667e-008
-7.184981e-008
-7.375219e-008
-7.516223e-008
-7.602818e-008
-7.630031e-008
-7.593360e-008
-7.489094e-008
-7.314671e-008
-7.069053e-008
-6.753091e-008
-6.369866e-008
-5.924941e-008
-5.426497e-008
-4.885296e-008
-4.314430e-008
-3.728837e-008
-3.144578e-008
-2.577910e-008
-2.044243e-008
-1.557070e-008
-1.127014e-008
-7.611068e-009
-4.624114e-009
-2.300444e-009
-5.958960e-010
5.615549e-010
1.262227e-009
1.604451e-009
1.685029e-009
1.591564e-009
1.397350e-009
1.158959e-009
9.162585e-010
6.942078e-010
5.057303e-010
3.549494e-010
2.402600e-010
1.568765e-010
9.875122e-011
5.982441e-011
3.474799e-011
1.918743e-011
9.871701e-012
4.475679e-012
1.447637e-012
-1.854079e-013
-9.941380e-013
-1.295920e-012
-1.253314e-012
-9.723798e-013
-5.318550e-013
-1.844080e-014
4.764979e-013
8.666025e-013
1.080314e-012
3.671296e-012
6.561372e-012
1.304289e-011
2.458961e-011
4.356931e-011
7.340094e-011
1.186793e-010
1.851946e-010
2.797367e-010
4.095408e-010
5.812272e-010
7.990892e-010
1.062664e-009
1.363622e-009
1.682178e-009
1.983437e-009
2.214259e-009
2.301376e-009
2.151439e-009
1.653566e-009
6.845582e-010
-8.834424e-010
-3.173571e-009
-6.294242e-009
-1.032979e-008
-1.533296e-008
-2.132019e-008
-2.827018e-008
-3.612560e-008
-4.479765e-008
-5.417251e-008
-6.411892e-008
-7.449589e-008
-8.515977e-008
-9.597019e-008
-1.067944e-007
-1.175101e-007
-1.280059e-007
-1.381810e-007
-1.479434e-007
-1.572064e-007
-1.658859e-007
-1.738966e-007
-1.811497e-007
-1.875501e-007
-1.929959e-007
-1.973787e-007
-2.005855e-007
-2.025013e-007
-2.030142e-007
-2.020208e-007
-1.994331e-007
-1.951864e-007
-1.892476e-007
-1.816237e-007
-1.723699e-007
-1.615962e-007
-1.494719e-007
-1.362267e-007
-1.221470e-007
-1.075671e-007
-9.285504e-008
-7.839315e-008
-6.455495e-008
-5.168042e-008
-4.005249e-008
-2.987774e-008
-2.127405e-008
-1.426697e-008
-8.795399e-009
-4.725606e-009
-1.871333e-009
-1.680650e-011
1.060657e-009
1.571366e-009
1.699225e-009
1.593746e-009
1.367749e-009
1.099593e-009
8.383749e-010
6.105249e-010
4.264626e-010
2.864700e-010
1.852975e-010
1.154341e-010
6.916255e-011
3.967844e-011
2.154756e-011
1.074786e-011
4.499970e-012
1.000767e-012
-8.429308e-013
-1.661828e-012
-1.811852e-012
-1.505123e-012
-9.049743e-013
-1.627702e-013
5.701470e-013
1.151859e-012
1.472270e-012
1.423886e-011
1.997418e-011
3.269659e-011
5.499859e-011
9.097111e-011
1.463428e-010
2.284975e-010
3.461752e-010
5.086243e-010
7.239199e-010
9.961301e-010
1.321107e-009
1.680808e-009
2.036366e-009
2.320480e-009
2.430176e-009
2.221308e-009
1.506421e-009
5.741875e-011
-2.386011e-009
-6.102096e-009
-1.136780e-008
-1.843674e-008
-2.751696e-008
-3.875151e-008
-5.220444e-008
-6.785394e-008
-8.559326e-008
-1.052387e-007
-1.265432e-007
-1.492134e-007
-1.729280e-007
-1.973554e-007
-2.221690e-007
-2.470589e-007
-2.717403e-007
-2.959570e-007
-3.194824e-007
-3.421154e-007
-3.636762e-007
-3.839981e-007
-4.029204e-007
-4.202804e-007
-4.359073e-007
-4.496174e-007
-4.612113e-007
-4.704749e-007
-4.771816e-007
-4.810986e-007
-4.819949e-007
-4.796527e-007
-4.738805e-007
-4.645284e-007
-4.515051e-007
-4.347963e-007
-4.144817e-007
-3.907517e-007
-3.639192e-007
-3.344265e-007
-3.028425e-007
-2.698508e-007
-2.362243e-007
-2.027895e-007
-1.703793e-007
-1.397804e-007
-1.116797e-007
-8.661588e-008
-6.494426e-008
-4.681907e-008
-3.219634e-008
-2.085687e-008
-1.244511e-008
-6.517818e-009
-2.594642e-009
-2.037810e-010
1.082539e-009
1.625410e-009
1.709399e-009
1.543542e-009
1.269954e-009
9.766032e-010
7.112256e-010
4.941877e-010
3.290587e-010
2.104680e-010
1.293918e-010
7.633118e-011
4.294610e-011
2.267735e-011
1.076917e-011
4.012483e-012
3.686137e-013
-1.387390e-012
-1.966680e-012
-1.795143e-012
-1.164819e-012
-3.086269e-013
5.623075e-013
1.262356e-012
1.649427e-012
3.661806e-011
4.742600e-011
7.116447e-011
1.121765e-010
1.771322e-010
2.750009e-010
4.166039e-010
6.133778e-010
8.748210e-010
1.204042e-009
1.590838e-009
2.001892e-009
2.368133e-009
2.569916e-009
2.421570e-009
1.657800e-009
-7.490969e-011
-3.218450e-009
-8.291934e-009
-1.586771e-008
-2.653513e-008
-4.085516e-008
-5.931094e-008
-8.226115e-008
-1.099025e-007
-1.422469e-007
-1.791163e-007
-2.201544e-007
-2.648537e-007
-3.125924e-007
-3.626761e-007
-4.143792e-007
-4.669828e-007
-5.198039e-007
-5.722173e-007
-6.236674e-007
-6.736717e-007
-7.218168e-007
-7.677489e-007
-8.111594e-007
-8.517691e-007
-8.893117e-007
-9.235179e-007
-9.541025e-007
-9.807549e-007
-1.003133e-006
-1.020865e-006
-1.033548e-006
-1.040763e-006
-1.042084e-006
-1.037100e-006
-1.025430e-006
-1.006760e-006
-9.808636e-007
-9.476410e-007
-9.071532e-007
-8.596567e-007
-8.056343e-007
-7.458184e-007
-6.812004e-007
-6.130222e-007
-5.427450e-007
-4.719926e-007
-4.024692e-007
-3.358573e-007
-2.737034e-007
-2.173063e-007
-1.676222e-007
-1.252028e-007
-9.017508e-008
-6.226772e-008
-4.087802e-008
-2.516733e-008
-1.416873e-008
-6.890155e-009
-2.399424e-009
1.165448e-010
1.320433e-009
1.717978e-009
1.669982e-009
1.415561e-009
1.099834e-009
8.009221e-010
5.530782e-010
3.645451e-010
2.301352e-010
1.392811e-010
8.063406e-011
4.430589e-011
2.264543e-011
1.021463e-011
3.406199e-012
-3.652963e-014
-1.470368e-012
-1.702110e-012
-1.238583e-012
-4.330876e-013
4.373287e-013
1.153893e-012
1.551885e-012
7.980208e-011
9.926802e-011
1.416219e-010
2.137130e-010
3.256794e-010
4.902825e-010
7.211549e-010
1.029141e-009
1.415661e-009
1.861960e-009
2.313173e-009
2.656659e-009
2.695036e-009
2.115851e-009
4.617412e-010
-2.893285e-009
-8.754385e-009
-1.809620e-008
-3.202749e-008
-5.172818e-008
-7.836187e-008
-1.129727e-007
-1.563796e-007
-2.090842e-007
-2.712064e-007
-3.424579e-007
-4.221567e-007
-5.092791e-007
-6.025389e-007
-7.004816e-007
-8.015802e-007
-9.043233e-007
-1.007286e-006
-1.109181e-006
-1.208887e-006
-1.305463e-006
-1.398134e-006
-1.486276e-006
-1.569388e-006
-1.647057e-006
-1.718926e-006
-1.784662e-006
-1.843931e-006
-1.896372e-006
-1.941579e-006
-1.979096e-006
-2.008406e-006
-2.028938e-006
-2.040076e-006
-2.041168e-006
-2.031553e-006
-2.010585e-006
-1.977671e-006
-1.932309e-006
-1.874148e-006
-1.803039e-006
-1.719110e-006
-1.622830e-006
-1.515079e-006
-1.397197e-006
-1.271023e-006
-1.138887e-006
-1.003561e-006
-8.681502e-007
-7.359283e-007
-6.101200e-007
-4.936575e-007
-3.889415e-007
-2.976473e-007
-2.206095e-007
-1.578070e-007
-1.084492e-007
-7.114422e-008
-4.411476e-008
-2.542242e-008
-1.316511e-008
-5.624887e-009
-1.357005e-009
7.761963e-010
1.615135e-009
1.741297e-009
1.529306e-009
1.200980e-009
8.736161e-010
5.986634e-010
3.899481e-010
2.425346e-010
1.442240e-010
8.179339e-011
4.385794e-011
2.176115e-011
9.464588e-012
3.026996e-012
9.027465e-015
-1.057045e-012
-1.044233e-012
-5.024863e-013
2.042940e-013
8.164378e-013
1.165288e-012
1.578636e-010
1.914697e-010
2.638436e-010
3.850113e-010
5.689075e-010
8.310039e-010
1.183298e-009
1.624987e-009
2.126721e-009
2.606231e-009
2.893539e-009
2.685185e-009
1.489247e-009
-1.433775e-009
-7.125149e-009
-1.696437e-008
-3.267287e-008
-5.627048e-008
-8.997477e-008
-1.360422e-007
-1.965625e-007
-2.732309e-007
-3.671323e-007
-4.785765e-007
-6.070137e-007
-7.510468e-007
-9.085371e-007
-1.076783e-006
-1.252737e-006
-1.433235e-006
-1.615199e-006
-1.795800e-006
-1.972571e-006
-2.143470e-006
-2.306887e-006
-2.461621e-006
-2.606827e-006
-2.741943e-006
-2.866619e-006
-2.980650e-006
-3.083913e-006
-3.176325e-006
-3.257797e-006
-3.328210e-006
-3.387394e-006
-3.435107e-006
-3.471026e-006
-3.494735e-006
-3.505719e-006
-3.503359e-006
-3.486929e-006
-3.455606e-006
-3.408478e-006
-3.344579e-006
-3.262935e-006
-3.162636e-006
-3.042941e-006
-2.903404e-006
-2.744040e-006
-2.565502e-006
-2.369265e-006
-2.157784e-006
-1.934587e-006
-1.704257e-006
-1.472274e-006
-1.244681e-006
-1.027619e-006
-8.267616e-007
-6.467634e-007
-4.908181e-007
-3.604118e-007
-2.553201e-007
-1.738362e-007
-1.131644e-007
-6.988926e-008
-4.042494e-008
-2.137841e-008
-9.791652e-009
-3.261736e-009
4.078043e-011
1.423769e-009
1.763953e-009
1.609330e-009
1.275327e-009
9.246443e-010
6.274681e-010
4.031348e-010
2.466257e-010
1.439258e-010
7.994999e-011
4.193802e-011
2.038467e-011
8.782499e-012
2.962870e-012
3.786517e-013
-4.678153e-013
-4.546609e-013
-9.941140e-014
2.854834e-013
5.211107e-013
2.917688e-010
3.473765e-010
4.657240e-010
6.599383e-010
9.461229e-010
1.336871e-009
1.828858e-009
2.381125e-009
2.880064e-009
3.087066e-009
2.566039e-009
5.910344e-010
-3.960626e-009
-1.271707e-008
-2.790152e-008
-5.237435e-008
-8.959525e-008
-1.434754e-007
-2.181026e-007
-3.173451e-007
-4.443729e-007
-6.011699e-007
-7.881278e-007
-1.003815e-006
-1.244975e-006
-1.506766e-006
-1.783197e-006
-2.067668e-006
-2.353532e-006
-2.634592e-006
-2.905466e-006
-3.161825e-006
-3.400483e-006
-3.619367e-006
-3.817396e-006
-3.994310e-006
-4.150459e-006
-4.286609e-006
-4.403779e-006
-4.503113e-006
-4.585804e-006
-4.653053e-006
-4.706059e-006
-4.746009e-006
-4.774076e-006
-4.791409e-006
-4.799101e-006
-4.798139e-006
-4.789345e-006
-4.773283e-006
-4.750168e-006
-4.719756e-006
-4.681241e-006
-4.633164e-006
-4.573358e-006
-4.498941e-006
-4.406384e-006
-4.291692e-006
-4.150697e-006
-3.979513e-006
-3.775112e-006
-3.536001e-006
-3.262900e-006
-2.959271e-006
-2.631569e-006
-2.289045e-006
-1.943057e-006
-1.605936e-006
-1.289576e-006
-1.004027e-006
-7.563820e-007
-5.501933e-007
-3.854967e-007
-2.593789e-007
-1.668841e-007
-1.020163e-007
-5.862792e-008
-3.107115e-008
-1.457788e-008
-5.400863e-009
-7.805956e-010
1.191687e-009
1.754601e-009
1.658041e-009
1.320383e-009
9.509402e-010
6.373591e-010
4.030955e-010
2.422270e-010
1.386658e-010
7.554175e-011
3.893852e-011
1.873413e-011
8.160791e-012
2.979461e-012
6.727684e-013
-1.927668e-013
-3.993306e-013
-3.668795e-013
-3.067668e-013
5.110639e-010
5.990760e-010
7.836480e-010
1.078754e-009
1.496047e-009
2.029310e-009
2.626283e-009
3.141366e-009
3.261803e-009
2.400479e-009
-4.482773e-010
-6.886500e-009
-1.930905e-008
-4.108819e-008
-7.669790e-008
-1.317135e-007
-2.126141e-007
-3.263245e-007
-4.794698e-007
-6.773875e-007
-9.230335e-007
-1.216005e-006
-1.551930e-006
-1.922425e-006
-2.315679e-006
-2.717577e-006
-3.113134e-006
-3.487965e-006
-3.829526e-006
-4.127993e-006
-4.376692e-006
-4.572138e-006
-4.713768e-006
-4.803443e-006
-4.844858e-006
-4.842912e-006
-4.803146e-006
-4.731284e-006
-4.632928e-006
-4.513414e-006
-4.377799e-006
-4.230947e-006
-4.077668e-006
-3.922844e-006
-3.771529e-006
-3.628980e-006
-3.500614e-006
-3.391879e-006
-3.308053e-006
-3.253958e-006
-3.233619e-006
-3.249853e-006
-3.303826e-006
-3.394593e-006
-3.518645e-006
-3.669529e-006
-3.837590e-006
-4.009947e-006
-4.170805e-006
-4.302219e-006
-4.385403e-006
-4.402570e-006
-4.339178e-006
-4.186265e-006
-3.942451e-006
-3.615075e-006
-3.220051e-006
-2.780243e-006
-2.322517e-006
-1.874022e-006
-1.458492e-006
-1.093400e-006
-7.885525e-007
-5.462407e-007
-3.626648e-007
-2.300183e-007
-1.386222e-007
-7.866259e-008
-4.133902e-008
-1.944009e-008
-7.478016e-009
-1.543076e-009
9.804501e-010
1.734289e-009
1.679750e-009
1.335259e-009
9.510921e-010
6.277374e-010
3.900375e-010
2.299783e-010
1.291568e-010
6.911925e-011
3.513532e-011
1.679534e-011
7.339450e-012
2.669285e-012
4.460221e-013
-5.799289e-013
-1.036876e-012
-1.210855e-012
8.547342e-010
9.873717e-010
1.260093e-009
1.680376e-009
2.237926e-009
2.870408e-009
3.403473e-009
3.453151e-009
2.277555e-009
-1.432781e-009
-9.828637e-009
-2.622642e-008
-5.544394e-008
-1.040736e-007
-1.805778e-007
-2.950539e-007
-4.584985e-007
-6.814387e-007
-9.719287e-007
-1.333136e-006
-1.761014e-006
-2.242720e-006
-2.756404e-006
-3.272659e-006
-3.757459e-006
-4.176010e-006
-4.496671e-006
-4.694196e-006
-4.751797e-006
-4.661877e-006
-4.425585e-006
-4.051526e-006
-3.553978e-006
-2.950968e-006
-2.262424e-006
-1.508611e-006
-7.089429e-007
1.187687e-007
9.586182e-007
1.796524e-006
2.619848e-006
3.416846e-006
4.176073e-006
4.885854e-006
5.533901e-006
6.107122e-006
6.591624e-006
6.972927e-006
7.236359e-006
7.367626e-006
7.353548e-006
7.182956e-006
6.847744e-006
6.344080e-006
5.673751e-006
4.845584e-006
3.876830e-006
2.794311e-006
1.635017e-006
4.457611e-007
-7.185180e-007
-1.798112e-006
-2.733620e-006
-3.472393e-006
-3.975478e-006
-4.223783e-006
-4.221910e-006
-3.998392e-006
-3.601742e-006
-3.092822e-006
-2.535154e-006
-1.985461e-006
-1.486655e-006
-1.064672e-006
-7.292014e-007
-4.772332e-007
-2.977966e-007
-1.764137e-007
-9.841872e-008
-5.093163e-008
-2.369656e-008
-9.154392e-009
-2.095929e-009
8.479852e-010
1.720787e-009
1.677894e-009
1.319969e-009
9.252915e-010
5.995469e-010
3.652940e-010
2.111595e-010
1.163433e-010
6.119473e-011
3.063648e-011
1.438316e-011
5.990055e-012
1.708048e-012
-4.831077e-013
-1.590478e-012
-2.062577e-012
1.370044e-009
1.558780e-009
1.935905e-009
2.484569e-009
3.133530e-009
3.686153e-009
3.699436e-009
2.291966e-009
-2.140680e-009
-1.231747e-008
-3.256525e-008
-6.937160e-008
-1.318957e-007
-2.322517e-007
-3.852775e-007
-6.074058e-007
-9.142426e-007
-1.316642e-006
-1.815550e-006
-2.396615e-006
-3.026198e-006
-3.650547e-006
-4.199226e-006
-4.592628e-006
-4.752046e-006
-4.610010e-006
-4.118610e-006
-3.254281e-006
-2.018624e-006
-4.358129e-007
1.452282e-006
3.591995e-006
5.923759e-006
8.387262e-006
1.092545e-005
1.348721e-005
1.602880e-005
1.851409e-005
2.091400e-005
2.320525e-005
2.536879e-005
2.738814e-005
2.924785e-005
3.093223e-005
3.242446e-005
3.370604e-005
3.475653e-005
3.555367e-005
3.607358e-005
3.629128e-005
3.618129e-005
3.571861e-005
3.487991e-005
3.364535e-005
3.200097e-005
2.994186e-005
2.747618e-005
2.462965e-005
2.145021e-005
1.801187e-005
1.441652e-005
1.079221e-005
7.286778e-006
4.055907e-006
1.246389e-006
-1.023220e-006
-2.680667e-006
-3.712229e-006
-4.165241e-006
-4.139184e-006
-3.766857e-006
-3.190250e-006
-2.537464e-006
-1.906390e-006
-1.358169e-006
-9.198376e-007
-5.928466e-007
-3.633450e-007
-2.110621e-007
-1.153619e-007
-5.847890e-008
-2.667024e-008
-1.012936e-008
-2.323027e-009
8.307631e-010
1.721934e-009
1.653123e-009
1.275085e-009
8.752681e-010
5.551228e-010
3.310817e-010
1.874348e-010
1.012248e-010
5.218599e-011
2.546779e-011
1.134236e-011
3.967016e-012
1.103045e-013
-1.872203e-012
-2.722950e-012
2.107587e-009
2.357260e-009
2.833695e-009
3.458120e-009
4.019816e-009
4.036508e-009
2.521637e-009
-2.376808e-009
-1.389821e-008
-3.736483e-008
-8.101668e-008
-1.568630e-007
-2.812817e-007
-4.748835e-007
-7.608917e-007
-1.161095e-006
-1.688581e-006
-2.337320e-006
-3.070345e-006
-3.810186e-006
-4.436175e-006
-4.792086e-006
-4.704442e-006
-4.007921e-006
-2.571655e-006
-3.199166e-007
2.757362e-006
6.605526e-006
1.111580e-005
1.614195e-005
2.151885e-005
2.707976e-005
3.267009e-005
3.815684e-005
4.343354e-005
4.842123e-005
5.306642e-005
5.733717e-005
6.121835e-005
6.470692e-005
6.780789e-005
7.053105e-005
7.288861e-005
7.489362e-005
7.655884e-005
7.789592e-005
7.891452e-005
7.962118e-005
8.001781e-005
8.009974e-005
7.985330e-005
7.925344e-005
7.826147e-005
7.682384e-005
7.487256e-005
7.232839e-005
6.910754e-005
6.513287e-005
6.034961e-005
5.474479e-005
4.836812e-005
4.134987e-005
3.391012e-005
2.635273e-005
1.904013e-005
1.234913e-005
6.615066e-006
2.076767e-006
-1.163089e-006
-3.150717e-006
-4.062809e-006
-4.161699e-006
-3.737508e-006
-3.054197e-006
-2.313405e-006
-1.641892e-006
-1.099247e-006
-6.968655e-007
-4.187397e-007
-2.379656e-007
-1.270379e-007
-6.279401e-008
-2.785284e-008
-1.021976e-008
-2.176265e-009
9.321673e-010
1.732787e-009
1.603111e-009
1.201890e-009
8.042153e-010
4.979058e-010
2.901661e-010
1.606193e-010
8.476641e-011
4.248338e-011
1.974092e-011
7.754587e-012
1.489236e-012
-1.695850e-012
-3.047567e-012
3.110280e-009
3.407754e-009
3.928024e-009
4.457997e-009
4.500823e-009
3.013825e-009
-2.019763e-009
-1.424045e-008
-3.982482e-008
-8.865075e-008
-1.755896e-007
-3.215783e-007
-5.537434e-007
-9.032885e-007
-1.399241e-006
-2.056000e-006
-2.853836e-006
-3.714854e-006
-4.481721e-006
-4.910108e-006
-4.684695e-006
-3.461681e-006
-9.303827e-007
3.121739e-006
8.758616e-006
1.587320e-005
2.419750e-005
3.334060e-005
4.284378e-005
5.223929e-005
6.110098e-005
6.908027e-005
7.592559e-005
8.148680e-005
8.570757e-005
8.860950e-005
9.027202e-005
9.081220e-005
9.036777e-005
8.908522e-005
8.711334e-005
8.460136e-005
8.170006e-005
7.856415e-005
7.535446e-005
7.223866e-005
6.938959e-005
6.698095e-005
6.517967e-005
6.413539e-005
6.396687e-005
6.474614e-005
6.648092e-005
6.909691e-005
7.242189e-005
7.617445e-005
7.996141e-005
8.328890e-005
8.559227e-005
8.628960e-005
8.485949e-005
8.093659e-005
7.440787e-005
6.548332e-005
5.471256e-005
4.292860e-005
3.112051e-005
2.026014e-005
1.112698e-005
4.180410e-006
-4.866598e-007
-3.107210e-006
-4.132078e-006
-4.093091e-006
-3.480900e-006
-2.668193e-006
-1.886945e-006
-1.247372e-006
-7.764692e-007
-4.565243e-007
-2.532146e-007
-1.316322e-007
-6.316406e-008
-2.703746e-008
-9.410630e-009
-1.689652e-009
1.121609e-009
1.737688e-009
1.524155e-009
1.102960e-009
7.166640e-010
4.320700e-010
2.455327e-010
1.325039e-010
6.790443e-011
3.256492e-011
1.380084e-011
4.040066e-012
-8.436863e-013
-2.882394e-012
4.393734e-009
4.688419e-009
5.097938e-009
5.144890e-009
3.788907e-009
-1.044385e-009
-1.321801e-008
-3.949969e-008
-9.107229e-008
-1.853391e-007
-3.476290e-007
-6.118296e-007
-1.017982e-006
-1.603519e-006
-2.383813e-006
-3.318861e-006
-4.268553e-006
-4.949331e-006
-4.915561e-006
-3.590821e-006
-3.615925e-007
5.278826e-006
1.357207e-005
2.436978e-005
3.708220e-005
5.071911e-005
6.401808e-005
7.562706e-005
8.429328e-005
8.901636e-005
8.914087e-005
8.438387e-005
7.480875e-005
6.076356e-005
4.280134e-005
2.159661e-005
-2.130401e-006
-2.767276e-005
-5.437361e-005
-8.163999e-005
-1.089376e-004
-1.357730e-004
-1.616703e-004
-1.861491e-004
-2.087069e-004
-2.288098e-004
-2.458916e-004
-2.593614e-004
-2.686207e-004
-2.730867e-004
-2.722258e-004
-2.655931e-004
-2.528812e-004
-2.339779e-004
-2.090301e-004
-1.785133e-004
-1.432986e-004
-1.047042e-004
-6.451116e-005
-2.491602e-005
1.161138e-005
4.258170e-005
6.584080e-005
7.996660e-005
8.460251e-005
8.060474e-005
6.991876e-005
5.519204e-005
3.922751e-005
2.443352e-005
1.243017e-005
3.914386e-006
-1.228402e-006
-3.652508e-006
-4.230666e-006
-3.786577e-006
-2.939933e-006
-2.068017e-006
-1.346632e-006
-8.211509e-007
-4.712929e-007
-2.544894e-007
-1.284137e-007
-5.953332e-008
-2.437391e-008
-7.858916e-009
-9.687914e-010
1.344648e-009
1.716371e-009
1.413778e-009
9.827199e-010
6.182175e-010
3.621084e-010
2.001107e-010
1.047740e-010
5.158631e-011
2.307222e-011
8.267836e-012
9.497123e-013
-2.057170e-012
5.915806e-009
6.089019e-009
6.058756e-009
4.863428e-009
4.918336e-010
-1.092852e-008
-3.640389e-008
-8.789733e-008
-1.846641e-007
-3.557160e-007
-6.412662e-007
-1.090508e-006
-1.750664e-006
-2.639623e-006
-3.694457e-006
-4.695890e-006
-5.187774e-006
-4.435707e-006
-1.482534e-006
4.658392e-006
1.468186e-005
2.861269e-005
4.548836e-005
6.322158e-005
7.873310e-005
8.836841e-005
8.848983e-005
7.608227e-005
4.921867e-005
7.276066e-006
-4.911578e-005
-1.183216e-004
-1.980351e-004
-2.856131e-004
-3.783588e-004
-4.737383e-004
-5.695231e-004
-6.638614e-004
-7.552832e-004
-8.426560e-004
-9.251074e-004
-1.001938e-003
-1.072542e-003
-1.136337e-003
-1.192724e-003
-1.241053e-003
-1.280614e-003
-1.310631e-003
-1.330254e-003
-1.338570e-003
-1.334595e-003
-1.317296e-003
-1.285614e-003
-1.238528e-003
-1.175166e-003
-1.094973e-003
-9.979717e-004
-8.850737e-004
-7.584415e-004
-6.217977e-004
-4.805650e-004
-3.416873e-004
-2.130153e-004
-1.022485e-004
-1.558026e-005
4.363157e-005
7.571866e-005
8.464520e-005
7.693025e-005
5.996201e-005
4.034103e-005
2.274319e-005
9.571765e-006
1.295671e-006
-2.862959e-006
-4.199004e-006
-3.970918e-006
-3.110737e-006
-2.167083e-006
-1.384985e-006
-8.248284e-007
-4.608940e-007
-2.416134e-007
-1.179167e-007
-5.251625e-008
-2.032699e-008
-5.848978e-009
-1.598660e-010
1.540096e-009
1.651512e-009
1.273120e-009
8.476173e-010
5.150918e-010
2.924106e-010
1.565619e-010
7.895610e-011
3.677897e-011
1.480844e-011
4.016011e-012
-3.731453e-013
7.534398e-009
7.354813e-009
6.273385e-009
2.491919e-009
-7.644785e-009
-3.098983e-008
-7.964163e-008
-1.737487e-007
-3.447753e-007
-6.380416e-007
-1.111396e-006
-1.823248e-006
-2.798193e-006
-3.955557e-006
-4.994226e-006
-5.256552e-006
-3.644166e-006
1.297454e-006
1.101492e-005
2.627644e-005
4.630764e-005
6.799397e-005
8.549692e-005
9.065404e-005
7.426432e-005