# vtk DataFile Version 3.0
vtk output
ASCII
DATASET STRUCTURED_POINTS
DIMENSIONS 100 100 1
SPACING 1 1 1
ORIGIN 0 0 0
POINT_DATA 10000
SCALARS SFBox_profile double
LOOKUP_TABLE default 
0.000000e+000
0.000000e+000
0.000000e+000
0.000000e+000
0.000000e+000
0.000000e+000
0.000000e+000
0.000000e+000
0.000000e+000
0.000000e+000
0.000000e+000
0.000000e+000
0.000000e+000
0.000000e+000
0.000000e+000
0.000000e+000
0.000000e+000
0.000000e+000
0.000000e+000
0.000000e+000
0.000000e+000
0.000000e+000
0.000000e+000
0.000000e+000
0.000000e+000
0.000000e+000
0.000000e+000
0.000000e+000
0.000000e+000
0.000000e+000
0.000000e+000
0.000000e+000
0.000000e+000
0.000000e+000
0.000000e+000
0.000000e+000
0.000000e+000
0.000000e+000
0.000000e+000
0.000000e+000
0.000000e+000
0.000000e+000
0.000000e+000
0.000000e+000
0.000000e+000
0.000000e+000
0.000000e+000
0.000000e+000
0.000000e+000
0.000000e+000
0.000000e+000
0.000000e+000
0.000000e+000
0.000000e+000
0.000000e+000
0.000000e+000
0.000000e+000
0.000000e+000
0.000000e+000
0.000000e+000
0.000000e+000
0.000000e+000
0.000000e+000
0.000000e+000
0.000000e+000
0.000000e+000
0.000000e+000
0.000000e+000
0.000000e+000
0.000000e+000
0.000000e+000
0.000000e+000
0.000000e+000
0.000000e+000
0.000000e+000
0.000000e+000
0.000000e+000
0.000000e+000
0.000000e+000
0.000000e+000
0.000000e+000
0.000000e+000
0.000000e+000
0.000000e+000
0.000000e+000
0.000000e+000
0.000000e+000
0.000000e+000
0.000000e+000
0.000000e+000
0.000000e+000
0.000000e+000
0.000000e+000
0.000000e+000
0.000000e+000
0.000000e+000
0.000000e+000
0.000000e+000
0.000000e+000
0.000000e+000
-8.109841e-008
-5.495280e-008
-1.533012e-008
1.927256e-008
3.439573e-008
2.693898e-008
5.772123e-009
-1.454309e-008
-2.281379e-008
-1.720503e-008
-4.521071e-009
6.041722e-009
9.603456e-009
7.792799e-009
5.445446e-009
5.385907e-009
6.094931e-009
4.014063e-009
-2.177304e-009
-9.649521e-009
-1.369558e-008
-1.187419e-008
-5.998083e-009
-2.097678e-010
2.767480e-009
3.536157e-009
4.522650e-009
6.961952e-009
9.551580e-009
9.957178e-009
7.346744e-009
3.247958e-009
-1.830161e-011
-1.525645e-009
-2.280522e-009
-3.753982e-009
-6.151980e-009
-8.260085e-009
-8.863526e-009
-8.077083e-009
-7.162034e-009
-7.143078e-009
-7.801431e-009
-8.096344e-009
-7.445258e-009
-6.396099e-009
-5.983631e-009
-6.556837e-009
-7.417215e-009
-7.644944e-009
-7.135580e-009
-6.654741e-009
-6.864804e-009
-7.466021e-009
-7.462767e-009
-6.260698e-009
-4.323372e-009
-2.612390e-009
-1.455412e-009
-1.852970e-010
1.979473e-009
4.812812e-009
7.062348e-009
7.637119e-009
6.678277e-009
5.267332e-009
4.090116e-009
2.635635e-009
-5.363520e-011
-3.880752e-009
-7.224069e-009
-8.207748e-009
-6.440788e-009
-3.330465e-009
-6.068289e-010
1.299071e-009
3.198670e-009
5.509514e-009
7.026510e-009
5.753464e-009
1.151322e-009
-4.593475e-009
-7.882049e-009
-6.593472e-009
-1.860521e-009
2.939855e-009
4.973312e-009
3.910829e-009
1.487728e-009
-4.887749e-010
-1.529154e-009
-2.097824e-009
-2.364970e-009
-1.757821e-009
1.478515e-010
2.552988e-009
3.654693e-009
2.221788e-009
-1.008506e-009
-3.659991e-009
-1.081373e-008
-7.337039e-009
-1.968590e-009
2.781282e-009
4.682827e-009
3.078580e-009
-5.566852e-010
-3.425985e-009
-3.316804e-009
-2.995635e-010
3.216186e-009
4.326472e-009
1.996877e-009
-2.046553e-009
-4.737639e-009
-4.215787e-009
-1.264676e-009
1.599997e-009
2.470909e-009
1.600118e-009
7.788136e-010
1.308582e-009
2.655535e-009
3.091060e-009
1.564458e-009
-1.160500e-009
-3.237476e-009
-3.515609e-009
-2.517294e-009
-1.688763e-009
-1.817675e-009
-2.303048e-009
-1.959197e-009
-3.873866e-010
1.578669e-009
2.767117e-009
2.866791e-009
2.638036e-009
2.981288e-009
3.943245e-009
4.737555e-009
4.687966e-009
3.998082e-009
3.502101e-009
3.722638e-009
4.320538e-009
4.538351e-009
4.095966e-009
3.500260e-009
3.428283e-009
3.917423e-009
4.309041e-009
4.006338e-009
3.154980e-009
2.446104e-009
2.273885e-009
2.247505e-009
1.650488e-009
3.211124e-010
-1.089206e-009
-1.808284e-009
-1.789155e-009
-1.706887e-009
-2.090922e-009
-2.615830e-009
-2.423265e-009
-1.146238e-009
5.519602e-010
1.593154e-009
1.591197e-009
1.188043e-009
1.220010e-009
1.673728e-009
1.667194e-009
5.282119e-010
-1.249544e-009
-2.318358e-009
-1.803571e-009
-2.302016e-010
9.750789e-010
8.984227e-010
-2.316728e-011
-5.933534e-010
-1.856708e-010
6.375155e-010
8.381784e-010
1.066364e-010
-7.836421e-010
-8.414426e-010
2.738538e-011
8.846767e-010
7.600153e-010
-2.846347e-010
-1.170482e-009
-9.050695e-010
3.619033e-010
1.429041e-009
1.214477e-009
-1.558495e-010
-1.433106e-009
6.945589e-008
4.678437e-008
1.279755e-008
-1.638095e-008
-2.885720e-008
-2.281521e-008
-5.962054e-009
1.037123e-008
1.812364e-008
1.598714e-008
8.022920e-009
-5.071171e-010
-6.550663e-009
-9.800585e-009
-1.099163e-008
-1.022860e-008
-6.955508e-009
-1.200401e-009
5.535042e-009
1.083358e-008
1.288086e-008
1.151671e-008
7.952239e-009
3.622173e-009
-6.626071e-010
-4.639962e-009
-8.022685e-009
-1.024915e-008
-1.082598e-008
-9.776272e-009
-7.625091e-009
-4.949876e-009
-2.028292e-009
1.058008e-009
4.091570e-009
6.646067e-009
8.392619e-009
9.397901e-009
1.001905e-008
1.049965e-008
1.074835e-008
1.056129e-008
9.999573e-009
9.437832e-009
9.207039e-009
9.263596e-009
9.294204e-009
9.131818e-009
8.970611e-009
9.111248e-009
9.547446e-009
9.904970e-009
9.813577e-009
9.260356e-009
8.497924e-009
7.633440e-009
6.420908e-009
4.528446e-009
1.964977e-009
-8.463520e-010
-3.426699e-009
-5.587052e-009
-7.350364e-009
-8.583692e-009
-8.846471e-009
-7.699893e-009
-5.152941e-009
-1.746055e-009
1.798820e-009
4.939656e-009
7.310677e-009
8.484924e-009
7.953430e-009
5.494745e-009
1.579625e-009
-2.664549e-009
-5.960593e-009
-7.418821e-009
-6.721275e-009
-4.039549e-009
-2.618060e-011
4.077640e-009
6.610973e-009
6.245379e-009
2.967790e-009
-1.574098e-009
-4.906487e-009
-5.291238e-009
-2.842565e-009
6.707955e-010
3.132004e-009
3.431662e-009
1.914968e-009
-1.872584e-010
-1.695253e-009
-2.072080e-009
-1.445681e-009
-3.038443e-010
8.119770e-010
1.481164e-009
9.113770e-008
6.095283e-008
1.585795e-008
-2.234107e-008
-3.752166e-008
-2.757585e-008
-3.985384e-009
1.661934e-008
2.303626e-008
1.519950e-008
1.789053e-009
-7.542139e-009
-8.994876e-009
-5.634353e-009
-2.867659e-009
-3.089506e-009
-4.214568e-009
-2.755118e-009
2.098117e-009
7.450730e-009
9.463798e-009
6.918533e-009
2.099732e-009
-1.583071e-009
-2.632050e-009
-2.228300e-009
-2.369778e-009
-3.621036e-009
-4.757781e-009
-4.346878e-009
-2.339040e-009
-3.077589e-011
1.323825e-009
1.626639e-009
1.697100e-009
2.182599e-009
2.906808e-009
3.242645e-009
2.903937e-009
2.225093e-009
1.729802e-009
1.590250e-009
1.569607e-009
1.396824e-009
1.076430e-009
8.263594e-010
8.074383e-010
9.809576e-010
1.200935e-009
1.378025e-009
1.537943e-009
1.759444e-009
2.080834e-009
2.445485e-009
2.714280e-009
2.749809e-009
2.523504e-009
2.134053e-009
1.677965e-009
1.094670e-009
2.021859e-010
-1.047729e-009
-2.369896e-009
-3.292570e-009
-3.555853e-009
-3.309999e-009
-2.836747e-009
-2.104357e-009
-7.540487e-010
1.349402e-009
3.613331e-009
4.957454e-009
4.693615e-009
3.128842e-009
1.186377e-009
-5.519137e-010
-2.245645e-009
-4.109738e-009
-5.468466e-009
-4.880152e-009
-1.559881e-009
3.274623e-009
6.760871e-009
6.496077e-009
2.576395e-009
-2.367071e-009
-5.232313e-009
-4.743174e-009
-2.006126e-009
8.678009e-010
2.506698e-009
2.809910e-009
2.219519e-009
9.548258e-010
-8.644828e-010
-2.605214e-009
-3.114863e-009
-1.669978e-009
1.058510e-009
3.220158e-009
3.593016e-008
2.340533e-008
4.851345e-009
-1.025103e-008
-1.475697e-008
-8.077444e-009
3.474231e-009
1.089815e-008
8.782999e-009
-8.258302e-010
-1.010206e-008
-1.161552e-008
-4.174239e-009
6.451443e-009
1.246905e-008
1.034921e-008
3.063278e-009
-3.332442e-009
-5.235976e-009
-3.982864e-009
-3.381732e-009
-5.266105e-009
-7.653353e-009
-7.098137e-009
-2.484045e-009
3.732160e-009
7.905652e-009
8.535381e-009
7.153594e-009
6.195984e-009
6.386420e-009
6.342370e-009
4.476964e-009
8.899529e-010
-2.741730e-009
-4.908962e-009
-5.626016e-009
-6.058327e-009
-7.074242e-009
-8.389020e-009
-9.087870e-009
-8.749528e-009
-7.890087e-009
-7.361212e-009
-7.482983e-009
-7.844355e-009
-7.874271e-009
-7.484517e-009
-7.113929e-009
-7.198717e-009
-7.670733e-009
-8.001140e-009
-7.719606e-009
-6.857321e-009
-5.848694e-009
-4.992804e-009
-4.060696e-009
-2.517714e-009
-1.735722e-010
2.450329e-009
4.507738e-009
5.605716e-009
6.097370e-009
6.497327e-009
6.665334e-009
5.784016e-009
3.305432e-009
-1.573979e-010
-3.113176e-009
-4.489832e-009
-4.543171e-009
-4.303634e-009
-4.163366e-009
-3.308963e-009
-8.195124e-010
2.748778e-009
5.256377e-009
4.806221e-009
1.715518e-009
-1.548882e-009
-2.592964e-009
-1.260462e-009
4.792861e-010
7.341117e-010
-4.085543e-010
-1.259753e-009
-6.211146e-010
8.234245e-010
1.357654e-009
2.971510e-010
-1.132061e-009
-1.150356e-009
4.808498e-010
2.017014e-009
1.549992e-009
-8.207169e-010
-2.862776e-009
-2.404133e-009
3.772029e-010
2.979981e-009
-4.973340e-008
-3.354998e-008
-9.699448e-009
1.039741e-008
1.929125e-008
1.669187e-008
7.477263e-009
-2.739998e-009
-1.051220e-008
-1.439129e-008
-1.348178e-008
-7.287351e-009
2.823201e-009
1.274397e-008
1.738467e-008
1.422467e-008
5.449124e-009
-3.652733e-009
-8.810796e-009
-9.659780e-009
-8.836667e-009
-8.536817e-009
-8.215686e-009
-5.680996e-009
-1.135165e-010
6.422962e-009
1.063731e-008
1.100987e-008
8.947918e-009
7.018601e-009
6.309529e-009
5.707264e-009
3.613714e-009
-1.215105e-012
-3.455653e-009
-5.102337e-009
-4.928575e-009
-4.332389e-009
-4.505544e-009
-5.274312e-009
-5.548002e-009
-4.692247e-009
-3.252229e-009
-2.327148e-009
-2.405087e-009
-2.949856e-009
-3.104412e-009
-2.662900e-009
-2.254042e-009
-2.593186e-009
-3.657977e-009
-4.683092e-009
-4.960171e-009
-4.555931e-009
-4.152089e-009
-4.176435e-009
-4.202431e-009
-3.337317e-009
-1.220291e-009
1.486870e-009
3.723161e-009
5.101208e-009
6.178945e-009
7.550336e-009
8.792948e-009
8.600293e-009
6.116931e-009
2.023458e-009
-1.932510e-009
-4.525413e-009
-5.975874e-009
-7.132096e-009
-7.893933e-009
-6.876410e-009
-2.956042e-009
2.924990e-009
7.854700e-009
9.146486e-009
6.513281e-009
2.055964e-009
-1.777119e-009
-4.019437e-009
-5.039067e-009
-5.052347e-009
-3.434434e-009
1.786761e-010
4.405064e-009
6.423629e-009
4.332620e-009
-6.962222e-010
-4.930013e-009
-5.157166e-009
-1.528779e-009
2.614369e-009
3.827205e-009
1.616824e-009
-1.410207e-009
-2.304643e-009
-6.231355e-010
1.405610e-009
-9.548614e-008
-6.229641e-008
-1.420275e-008
2.405260e-008
3.652168e-008
2.425046e-008
1.623199e-009
-1.515522e-008
-1.836835e-008
-1.104679e-008
-1.416512e-009
4.454468e-009
5.820361e-009
5.123326e-009
4.186687e-009
2.789207e-009
2.283962e-010
-2.779410e-009
-4.337002e-009
-3.344227e-009
-7.522929e-010
1.400949e-009
2.030386e-009
1.802154e-009
1.927375e-009
2.523185e-009
2.501003e-009
1.035327e-009
-1.212691e-009
-2.609693e-009
-2.223427e-009
-7.328067e-010
4.337635e-010
7.022695e-010
8.790925e-010
2.077300e-009
4.339998e-009
6.525694e-009
7.527298e-009
7.410951e-009
7.230281e-009
7.801831e-009
8.845205e-009
9.399641e-009
8.972204e-009
8.103221e-009
7.748339e-009
8.211024e-009
8.826948e-009
8.728832e-009
7.810854e-009
6.806557e-009
6.404555e-009
6.418341e-009
5.972983e-009
4.516789e-009
2.504430e-009
9.445843e-010
3.068891e-010
5.583804e-011
-6.161796e-010
-1.698742e-009
-2.237405e-009
-1.403106e-009
4.512888e-010
2.022472e-009
2.380376e-009
1.872669e-009
1.542019e-009
1.742300e-009
1.638116e-009
2.648453e-010
-2.056634e-009
-3.674832e-009
-3.129790e-009
-6.206020e-010
2.174549e-009
3.665720e-009
3.547736e-009
2.459518e-009
8.425875e-010
-1.387289e-009
-3.945245e-009
-5.418659e-009
-4.074036e-009
2.169176e-010
5.034287e-009
6.903164e-009
4.200737e-009
-1.224118e-009
-5.403897e-009
-5.477073e-009
-1.910243e-009
2.181844e-009
3.824071e-009
2.491094e-009
3.951754e-011
-1.336966e-009
-1.049290e-009
-2.397125e-010
-6.609134e-008
-4.063987e-008
-4.858083e-009
2.102273e-008
2.480612e-008
9.574601e-009
-9.822274e-009
-1.816411e-008
-1.057835e-008
5.226363e-009
1.625159e-008
1.464195e-008
2.879004e-009
-9.688538e-009
-1.500468e-008
-1.185905e-008
-4.838026e-009
1.011106e-009
4.221959e-009
6.427155e-009
9.042628e-009
1.117331e-008
1.070990e-008
6.879576e-009
1.248215e-009
-3.721089e-009
-6.720067e-009
-8.086128e-009
-8.605262e-009
-8.328619e-009
-6.733978e-009
-3.752797e-009
-2.159101e-010
2.841565e-009
5.107061e-009
7.011763e-009
8.890709e-009
1.038219e-008
1.081933e-008
1.010674e-008
8.972181e-009
8.251284e-009
8.043750e-009
7.740631e-009
6.881919e-009
5.814582e-009
5.361352e-009
5.888866e-009
6.879827e-009
7.518910e-009
7.600328e-009
7.680880e-009
8.297443e-009
9.186417e-009
9.451677e-009
8.502716e-009
6.659334e-009
4.709742e-009
2.965497e-009
9.721692e-010
-1.752979e-009
-4.846100e-009
-7.177120e-009
-7.847471e-009
-6.958233e-009
-5.273734e-009
-3.246777e-009
-6.428253e-010
2.762375e-009
6.308738e-009
8.575613e-009
8.490960e-009
6.213414e-009
2.845904e-009
-5.612442e-010
-3.490334e-009
-5.511238e-009
-5.830518e-009
-3.815959e-009
-9.647268e-011
3.239098e-009
4.065094e-009
2.094484e-009
-7.561782e-010
-2.065832e-009
-1.063581e-009
8.755189e-010
1.771264e-009
9.310685e-010
-6.639011e-010
-1.592203e-009
-1.338135e-009
-4.375559e-010
3.743096e-010
8.402248e-010
1.044694e-009
9.545793e-010
3.995992e-010
-5.155857e-010
-1.246612e-009
1.224835e-008
1.125596e-008
8.628604e-009
3.510665e-009
-4.002850e-009
-1.152107e-008
-1.454177e-008
-9.288761e-009
3.357943e-009
1.658677e-008
2.144557e-008
1.358632e-008
-2.659210e-009
-1.696566e-008
-2.072194e-008
-1.328618e-008
-1.483657e-009
6.778229e-009
8.685766e-009
7.164292e-009
6.387446e-009
7.286136e-009
7.395073e-009
4.406840e-009
-8.650033e-010
-5.197924e-009
-6.183658e-009
-4.317549e-009
-1.973250e-009
-7.973989e-010
-4.513464e-010
2.860803e-010
1.723727e-009
2.877275e-009
2.671767e-009
1.096857e-009
-9.870416e-010
-2.935227e-009
-4.886378e-009
-7.243917e-009
-9.900751e-009
-1.223928e-008
-1.383877e-008
-1.491534e-008
-1.592654e-008
-1.688604e-008
-1.729327e-008
-1.676153e-008
-1.551871e-008
-1.413013e-008
-1.280576e-008
-1.119015e-008
-8.907548e-009
-6.160642e-009
-3.612387e-009
-1.702003e-009
-2.696031e-010
1.041742e-009
2.148826e-009
2.507676e-009
1.763730e-009
2.508033e-010
-1.298106e-009
-2.450213e-009
-3.281708e-009
-3.861772e-009
-3.770592e-009
-2.402521e-009
2.403224e-010
3.280855e-009
5.636569e-009
6.831049e-009
6.946915e-009
5.877281e-009
3.078953e-009
-1.523152e-009
-6.460040e-009
-9.078045e-009
-7.515265e-009
-2.490620e-009
3.031204e-009
6.131342e-009
5.973314e-009
3.738412e-009
9.630237e-010
-1.636731e-009
-3.746401e-009
-4.543571e-009
-3.018949e-009
5.363764e-010
3.860344e-009
4.295465e-009
1.390870e-009
-2.307649e-009
-3.506904e-009
-1.372101e-009
1.671794e-009
2.493230e-009
5.069473e-010
-1.839480e-009
7.803070e-008
5.091395e-008
1.241403e-008
-1.727715e-008
-2.680935e-008
-1.879552e-008
-4.318725e-009
6.724571e-009
1.101136e-008
1.019669e-008
6.496718e-009
8.683350e-010
-5.356452e-009
-9.043984e-009
-7.084351e-009
7.590947e-011
7.561300e-009
9.727759e-009
5.139116e-009
-2.188751e-009
-6.634001e-009
-6.001888e-009
-2.748893e-009
-5.887618e-010
-4.662719e-010
-1.400130e-010
2.635451e-009
7.186490e-009
1.044703e-008
1.006962e-008
6.540558e-009
2.172676e-009
-1.549135e-009
-5.222328e-009
-1.027657e-008
-1.700058e-008
-2.414526e-008
-3.029842e-008
-3.522201e-008
-3.967891e-008
-4.422474e-008
-4.852654e-008
-5.187771e-008
-5.406152e-008
-5.546303e-008
-5.643797e-008
-5.685475e-008
-5.634881e-008
-5.483420e-008
-5.256225e-008
-4.972646e-008
-4.622686e-008
-4.191105e-008
-3.689923e-008
-3.150568e-008
-2.589019e-008
-1.998744e-008
-1.385634e-008
-7.945114e-009
-2.836087e-009
1.228609e-009
4.373993e-009
6.598419e-009
7.472832e-009
6.584909e-009
4.262743e-009
1.589026e-009
-4.774770e-010
-1.853967e-009
-2.970700e-009
-3.715471e-009
-3.152959e-009
-6.613401e-010
2.748706e-009
4.737208e-009
3.655039e-009
2.511045e-010
-2.880348e-009
-3.645702e-009
-2.124837e-009
8.054995e-011
1.769883e-009
2.940727e-009
3.712944e-009
3.200135e-009
3.134704e-010
-4.150414e-009
-6.972404e-009
-5.062690e-009
1.057348e-009
6.786285e-009
7.243616e-009
1.958659e-009
-4.389123e-009
-6.281704e-009
-2.591303e-009
2.542274e-009
4.069860e-009
1.110636e-009
-2.475106e-009
8.621314e-008
5.040251e-008
2.270744e-009
-2.887160e-008
-2.892610e-008
-6.947128e-009
1.497890e-008
2.005083e-008
7.946389e-009
-8.653646e-009
-1.670365e-008
-1.260433e-008
-2.017547e-009
7.399459e-009
1.208806e-008
1.269340e-008
1.049886e-008
5.482477e-009
-2.132080e-009
-9.818641e-009
-1.365467e-008
-1.166083e-008
-5.750342e-009
1.081806e-010
3.562912e-009
5.384920e-009
7.404846e-009
9.557465e-009
9.518174e-009
5.199620e-009
-2.935645e-009
-1.239713e-008
-2.127775e-008
-2.991275e-008
-3.987938e-008
-5.176594e-008
-6.434375e-008
-7.588381e-008
-8.586068e-008
-9.509031e-008
-1.043834e-007
-1.134440e-007
-1.211836e-007
-1.268366e-007
-1.304954e-007
-1.326244e-007
-1.333491e-007
-1.323646e-007
-1.293788e-007
-1.244347e-007
-1.178183e-007
-1.098419e-007
-1.007899e-007
-9.093344e-008
-8.044733e-008
-6.936790e-008
-5.779693e-008
-4.616541e-008
-3.512415e-008
-2.506050e-008
-1.585492e-008
-7.334025e-009
4.447755e-011
5.228724e-009
7.507117e-009
7.305750e-009
5.797322e-009
3.691572e-009
7.271307e-010
-3.349813e-009
-7.453527e-009
-9.318040e-009
-7.377968e-009
-2.443424e-009
2.777412e-009
5.912481e-009
6.539339e-009
5.606867e-009
3.752693e-009
8.334489e-010
-2.791252e-009
-5.241587e-009
-4.352587e-009
-2.665636e-010
3.760046e-009
3.998354e-009
6.343515e-011
-4.240809e-009
-4.443012e-009
2.308950e-011
4.984838e-009
5.556460e-009
1.050921e-009
-4.266781e-009
-5.415982e-009
-1.621359e-009
3.076302e-009
4.054459e-009
7.708938e-010
-2.904511e-009
3.960500e-008
1.659678e-008
-1.178091e-008
-2.434683e-008
-1.314155e-008
1.070326e-008
2.657504e-008
2.129129e-008
-7.419788e-010
-2.214476e-008
-2.727995e-008
-1.420277e-008
5.676996e-009
1.839313e-008
1.821922e-008
9.618413e-009
7.299212e-010
-3.934092e-009
-5.077260e-009
-5.006987e-009
-4.203729e-009
-1.690354e-009
2.375723e-009
5.765473e-009
6.098531e-009
3.065223e-009
-1.817879e-009
-7.472513e-009
-1.467049e-008
-2.496916e-008
-3.867873e-008
-5.444534e-008
-7.089111e-008
-8.820698e-008
-1.077560e-007
-1.302387e-007
-1.546445e-007
-1.791311e-007
-2.026413e-007
-2.253474e-007
-2.475798e-007
-2.686712e-007
-2.870529e-007
-3.013400e-007
-3.111006e-007
-3.165940e-007
-3.180156e-007
-3.151527e-007
-3.076775e-007
-2.956002e-007
-2.794347e-007
-2.600557e-007
-2.384294e-007
-2.153491e-007
-1.913127e-007
-1.666983e-007
-1.421440e-007
-1.186733e-007
-9.724213e-008
-7.808852e-008
-6.070259e-008
-4.463499e-008
-3.027786e-008
-1.860560e-008
-1.006514e-008
-3.967356e-009
7.403295e-010
4.162131e-009
5.293081e-009
3.429246e-009
-4.121011e-010
-3.828733e-009
-4.903373e-009
-3.562045e-009
-1.008313e-009
1.822977e-009
4.732540e-009
7.179262e-009
7.483722e-009
4.044658e-009
-2.341969e-009
-7.938046e-009
-8.709320e-009
-3.994478e-009
2.566980e-009
6.095720e-009
4.676448e-009
6.442223e-010
-2.097272e-009
-1.803283e-009
1.611145e-011
8.017693e-010
-2.257174e-010
-1.542116e-009
-1.302352e-009
5.361752e-010
2.172870e-009
1.881967e-009
-1.878972e-010
-2.130331e-009
-2.280307e-008
-2.056570e-008
-1.499213e-008
-5.314371e-009
6.820016e-009
1.647222e-008
1.765194e-008
8.151231e-009
-6.950069e-009
-1.741090e-008
-1.536149e-008
-2.227291e-009
1.170527e-008
1.558695e-008
7.060742e-009
-6.150917e-009
-1.338682e-008
-9.990818e-009
3.612382e-011
9.074742e-009
1.270276e-008
1.177398e-008
9.090861e-009
5.410006e-009
-9.702648e-010
-1.160163e-008
-2.600345e-008
-4.263406e-008
-6.110623e-008
-8.281944e-008
-1.094807e-007
-1.415480e-007
-1.783778e-007
-2.195056e-007
-2.651841e-007
-3.155028e-007
-3.693231e-007
-4.244291e-007
-4.786927e-007
-5.308368e-007
-5.800108e-007
-6.248915e-007
-6.635003e-007
-6.939355e-007
-7.151470e-007
-7.269568e-007
-7.294672e-007
-7.225822e-007
-7.060820e-007
-6.800653e-007
-6.453072e-007
-6.032474e-007
-5.556231e-007
-5.040161e-007
-4.496983e-007
-3.939479e-007
-3.385008e-007
-2.855027e-007
-2.367742e-007
-1.930590e-007
-1.541276e-007
-1.196971e-007
-9.009207e-008
-6.579870e-008
-4.644817e-008
-3.061968e-008
-1.694952e-008
-5.365542e-009
3.044957e-009
7.450329e-009
8.332357e-009
7.016902e-009
4.463137e-009
1.010451e-009
-2.611680e-009
-4.632250e-009
-3.376867e-009
7.052735e-010
4.616166e-009
5.068163e-009
1.476342e-009
-3.371532e-009
-5.742941e-009
-4.093134e-009
2.814370e-011
3.721878e-009
5.024736e-009
3.728575e-009
7.879014e-010
-2.393907e-009
-4.275582e-009
-3.697154e-009
-8.476536e-010
2.358802e-009
3.541605e-009
1.974749e-009
-6.393897e-010
-1.843064e-009
-9.198653e-010
5.163491e-010
-6.272715e-008
-3.676410e-008
-2.538884e-009
1.893117e-008
1.903574e-008
5.343422e-009
-7.803759e-009
-1.143412e-008
-6.225384e-009
2.039178e-009
8.620422e-009
1.150836e-008
9.637308e-009
2.381956e-009
-8.263047e-009
-1.650993e-008
-1.604352e-008
-5.644158e-009
8.717568e-009
1.819419e-008
1.794016e-008
9.918787e-009
-6.863179e-010
-1.124319e-008
-2.379080e-008
-4.223577e-008
-6.856499e-008
-1.022399e-007
-1.426863e-007
-1.913887e-007
-2.511365e-007
-3.235766e-007
-4.079253e-007
-5.019188e-007
-6.034264e-007
-7.108036e-007
-8.219721e-007
-9.337477e-007
-1.042368e-006
-1.144565e-006
-1.237968e-006
-1.320614e-006
-1.390397e-006
-1.445194e-006
-1.483463e-006
-1.504557e-006
-1.508442e-006
-1.495166e-006
-1.464680e-006
-1.417160e-006
-1.353506e-006
-1.275499e-006
-1.185461e-006
-1.085732e-006
-9.785376e-007
-8.664197e-007
-7.526944e-007
-6.412341e-007
-5.355444e-007
-4.379851e-007
-3.499120e-007
-2.724318e-007
-2.066748e-007
-1.530980e-007
-1.106767e-007
-7.717772e-008
-5.045387e-008
-2.940249e-008
-1.361930e-008
-2.445255e-009
5.143121e-009
9.605702e-009
1.033750e-008
6.781483e-009
2.236973e-010
-5.953348e-009
-8.351991e-009
-6.102146e-009
-1.308625e-009
2.933768e-009
4.796768e-009
4.228972e-009
2.035961e-009
-7.590539e-010
-2.748797e-009
-2.408882e-009
4.460576e-010
3.547192e-009
3.583837e-009
-3.723524e-010
-5.070969e-009
-5.705497e-009
-9.458830e-010
5.040353e-009
6.412345e-009
1.746800e-009
-4.209642e-009
-5.394395e-009
-8.662578e-010
4.209015e-009
-6.826562e-008
-3.058880e-008
1.523992e-008
3.555383e-008
2.021245e-008
-1.167123e-008
-3.101973e-008
-2.377442e-008
4.902083e-010
2.091953e-008
2.424068e-008
1.286013e-008
-1.774359e-009
-1.058990e-008
-1.185203e-008
-8.078858e-009
-1.565624e-009
6.071974e-009
1.183484e-008
1.146760e-008
2.722109e-009
-1.231204e-008
-2.941704e-008
-4.725847e-008
-6.994113e-008
-1.044661e-007
-1.560142e-007
-2.259814e-007
-3.141172e-007
-4.214669e-007
-5.504236e-007
-7.019885e-007
-8.735513e-007
-1.059584e-006
-1.254184e-006
-1.452638e-006
-1.650832e-006
-1.843951e-006
-2.026409e-006
-2.193149e-006
-2.340788e-006
-2.467457e-006
-2.571800e-006
-2.652356e-006
-2.707837e-006
-2.737672e-006
-2.742016e-006
-2.721180e-006
-2.675183e-006
-2.603921e-006
-2.507789e-006
-2.388068e-006
-2.246730e-006
-2.086025e-006
-1.908508e-006
-1.717628e-006
-1.518225e-006
-1.316197e-006
-1.117498e-006
-9.273751e-007
-7.504395e-007
-5.909882e-007
-4.526365e-007
-3.372553e-007
-2.443515e-007
-1.717284e-007
-1.167623e-007
-7.689425e-008
-4.906466e-008
-2.942096e-008
-1.444282e-008
-2.665401e-009
5.052725e-009
7.418030e-009
4.949371e-009
2.610010e-010
-3.713067e-009
-5.399369e-009
-4.552279e-009
-1.368316e-009
3.429859e-009
7.666250e-009
8.131852e-009
3.339526e-009
-3.931367e-009
-7.974658e-009
-5.287443e-009
1.502564e-009
5.714522e-009
3.325483e-009
-2.661165e-009
-5.309462e-009
-1.372601e-009
4.893492e-009
6.256292e-009
6.386796e-010
-6.223145e-009
-6.843424e-009
-2.574906e-010
6.703237e-009
-4.985480e-008
-1.626022e-008
2.242968e-008
3.469790e-008
1.344478e-008
-1.940851e-008
-3.415260e-008
-1.970089e-008
8.796349e-009
2.613288e-008
2.002461e-008
-3.356742e-010
-1.561960e-008
-1.436245e-008
-6.405912e-010
1.301118e-008
1.762227e-008
1.287094e-008
2.993549e-009
-9.445775e-009
-2.522747e-008
-4.610444e-008
-7.342851e-008
-1.100752e-007
-1.626747e-007
-2.403704e-007
-3.506692e-007
-4.965813e-007
-6.776371e-007
-8.927372e-007
-1.140930e-006
-1.419163e-006
-1.719949e-006
-2.032037e-006
-2.343685e-006
-2.645379e-006
-2.929923e-006
-3.191009e-006
-3.422734e-006
-3.620851e-006
-3.784158e-006
-3.914276e-006
-4.013988e-006
-4.085739e-006
-4.131392e-006
-4.152719e-006
-4.151463e-006
-4.128631e-006
-4.083778e-006
-4.015082e-006
-3.920137e-006
-3.796685e-006
-3.642818e-006
-3.457003e-006
-3.238618e-006
-2.989020e-006
-2.712334e-006
-2.415269e-006
-2.106219e-006
-1.794553e-006
-1.490389e-006
-1.204112e-006
-9.449859e-007
-7.194206e-007
-5.302770e-007
-3.776729e-007
-2.600879e-007
-1.743984e-007
-1.151893e-007
-7.508531e-008
-4.687818e-008
-2.590610e-008
-1.048215e-008
-2.326612e-010
5.524600e-009
7.710898e-009
6.666531e-009
2.629424e-009
-2.567069e-009
-5.211722e-009
-2.513979e-009
3.903367e-009
8.280350e-009
5.814733e-009
-2.126623e-009
-8.590857e-009
-7.635975e-009
-3.801295e-010
6.059663e-009
5.879211e-009
4.102632e-010
-3.788249e-009
-2.348411e-009
2.255495e-009
3.909124e-009
1.252901e-010
-4.956434e-009
-5.261044e-009
1.868750e-010
5.910793e-009
-2.004439e-008
-4.456516e-009
1.246544e-008
1.555608e-008
2.918360e-009
-1.244140e-008
-1.516921e-008
-2.423838e-009
1.326857e-008
1.609551e-008
2.410370e-009
-1.542515e-008
-2.053292e-008
-7.181323e-009
1.425951e-008
2.703936e-008
2.223816e-008
4.045781e-009
-1.734291e-008
-3.673233e-008
-5.844832e-008
-9.241672e-008
-1.482476e-007
-2.335888e-007
-3.563012e-007
-5.255187e-007
-7.490086e-007
-1.029372e-006
-1.362883e-006
-1.741209e-006
-2.152969e-006
-2.583192e-006
-3.012377e-006
-3.418082e-006
-3.779256e-006
-4.080383e-006
-4.312756e-006
-4.473342e-006
-4.563730e-006
-4.590438e-006
-4.565338e-006
-4.504389e-006
-4.424732e-006
-4.341950e-006
-4.268882e-006
-4.215552e-006
-4.188871e-006
-4.191621e-006
-4.221504e-006
-4.271208e-006
-4.329460e-006
-4.382261e-006
-4.413853e-006
-4.407813e-006
-4.348865e-006
-4.225277e-006
-4.030866e-006
-3.765891e-006
-3.437012e-006
-3.056979e-006
-2.643936e-006
-2.219562e-006
-1.805792e-006
-1.421372e-006
-1.079983e-006
-7.902632e-007
-5.563067e-007
-3.774561e-007
-2.480054e-007
-1.584295e-007
-9.826523e-008
-5.868051e-008
-3.297239e-008
-1.572031e-008
-2.816280e-009
7.134224e-009
1.235420e-008
1.048673e-008
2.627877e-009
-5.585458e-009
-7.934719e-009
-3.194063e-009
3.572176e-009
5.842772e-009
1.934222e-009
-3.666787e-009
-5.183937e-009
-1.392315e-009
3.587582e-009
4.936123e-009
1.963396e-009
-1.815040e-009
-2.834925e-009
-1.026023e-009
8.363013e-010
6.510357e-010
-8.204796e-010
-1.306116e-009
5.049279e-011
1.712770e-009
1.702643e-008
6.515848e-009
-6.380484e-009
-1.235607e-008
-8.123874e-009
2.267191e-009
1.167728e-008
1.470661e-008
9.723118e-009
-1.141260e-009
-1.239638e-008
-1.684297e-008
-9.898309e-009
5.572206e-009
1.918316e-008
1.989988e-008
4.614099e-009
-2.009585e-008
-4.572987e-008
-7.240460e-008
-1.125662e-007
-1.852519e-007
-3.073661e-007
-4.899240e-007
-7.403466e-007
-1.065087e-006
-1.467478e-006
-1.941915e-006
-2.469645e-006
-3.019339e-006
-3.550942e-006
-4.019759e-006
-4.380180e-006
-4.590658e-006
-4.620305e-006
-4.454662e-006
-4.097763e-006
-3.570263e-006
-2.905985e-006
-2.148840e-006
-1.349873e-006
-5.632049e-007
1.590044e-007
7.708915e-007
1.235218e-006
1.524192e-006
1.620209e-006
1.517081e-006
1.221072e-006
7.508795e-007
1.365998e-007
-5.817224e-007
-1.355791e-006
-2.131593e-006
-2.853359e-006
-3.468669e-006
-3.933672e-006
-4.217495e-006
-4.305629e-006
-4.202068e-006
-3.929326e-006
-3.525203e-006
-3.036428e-006
-2.511180e-006
-1.992894e-006
-1.516349e-006
-1.105384e-006
-7.717395e-007
-5.157455e-007
-3.294916e-007
-2.012547e-007
-1.186031e-007
-6.904614e-008
-4.001939e-008
-2.066775e-008
-5.051821e-009
6.592522e-009
1.094109e-008
6.971375e-009
-1.281852e-009
-7.235650e-009
-6.927396e-009
-1.751116e-009
3.551475e-009
5.234875e-009
3.137423e-009
-1.455761e-010
-1.895101e-009
-1.228489e-009
6.985164e-010
1.847792e-009
9.261086e-010
-1.470568e-009
-3.139077e-009
-2.151250e-009
1.086234e-009
3.775585e-009
3.230732e-009
-3.213795e-010
-3.672109e-009
5.767731e-008
2.184862e-008
-1.979423e-008
-3.475045e-008
-1.622382e-008
1.418122e-008
2.908105e-008
1.937151e-008
-2.005281e-009
-1.583658e-008
-1.363441e-008
-1.005789e-009
1.100554e-008
1.495557e-008
9.093779e-009