# vtk DataFile Version 3.0
vtk output
ASCII
DATASET STRUCTURED_POINTS
DIMENSIONS 100 100 1
SPACING 1 1 1
ORIGIN 0 0 0
POINT_DATA 10000
SCALARS SFBox_profile double
LOOKUP_TABLE default 
0.000000e+000
0.000000e+000
0.000000e+000
0.000000e+000
0.000000e+000
0.000000e+000
0.000000e+000
0.000000e+000
0.000000e+000
0.000000e+000
0.000000e+000
0.000000e+000
0.000000e+000
0.000000e+000
0.000000e+000
0.000000e+000
0.000000e+000
0.000000e+000
0.000000e+000
0.000000e+000
0.000000e+000
0.000000e+000
0.000000e+000
0.000000e+000
0.000000e+000
0.000000e+000
0.000000e+000
0.000000e+000
0.000000e+000
0.000000e+000
0.000000e+000
0.000000e+000
0.000000e+000
0.000000e+000
0.000000e+000
0.000000e+000
0.000000e+000
0.000000e+000
0.000000e+000
0.000000e+000
0.000000e+000
0.000000e+000
0.000000e+000
0.000000e+000
0.000000e+000
0.000000e+000
0.000000e+000
0.000000e+000
0.000000e+000
0.000000e+000
0.000000e+000
0.000000e+000
0.000000e+000
0.000000e+000
0.000000e+000
0.000000e+000
0.000000e+000
0.000000e+000
0.000000e+000
0.000000e+000
0.000000e+000
0.000000e+000
0.000000e+000
0.000000e+000
0.000000e+000
0.000000e+000
0.000000e+000
0.000000e+000
0.000000e+000
0.000000e+000
0.000000e+000
0.000000e+000
0.000000e+000
0.000000e+000
0.000000e+000
0.000000e+000
0.000000e+000
0.000000e+000
0.000000e+000
0.000000e+000
0.000000e+000
0.000000e+000
0.000000e+000
0.000000e+000
0.000000e+000
0.000000e+000
0.000000e+000
0.000000e+000
0.000000e+000
0.000000e+000
0.000000e+000
0.000000e+000
0.000000e+000
0.000000e+000
0.000000e+000
0.000000e+000
0.000000e+000
0.000000e+000
0.000000e+000
0.000000e+000
2.042291e-009
1.443311e-009
5.085727e-010
-3.644365e-010
-8.380199e-010
-7.932398e-010
-3.684215e-010
1.425690e-010
4.680287e-010
5.002964e-010
3.183929e-010
9.333695e-011
-4.155985e-011
-6.058080e-011
-2.108736e-011
1.239636e-011
2.335672e-011
3.968696e-011
9.257809e-011
1.846808e-010
2.940476e-010
3.999780e-010
5.005903e-010
6.080770e-010
7.323566e-010
8.724595e-010
1.021068e-009
1.173366e-009
1.328751e-009
1.485841e-009
1.638592e-009
1.779051e-009
1.903285e-009
2.013334e-009
2.112838e-009
2.201731e-009
2.275647e-009
2.331078e-009
2.370077e-009
2.399735e-009
2.426591e-009
2.451218e-009
2.468274e-009
2.471229e-009
2.457819e-009
2.431202e-009
2.396692e-009
2.357461e-009
2.313157e-009
2.261916e-009
2.203914e-009
2.142069e-009
2.079879e-009
2.018157e-009
1.953903e-009
1.883038e-009
1.804814e-009
1.724195e-009
1.650100e-009
1.590088e-009
1.545797e-009
1.512810e-009
1.484800e-009
1.458616e-009
1.435124e-009
1.414792e-009
1.391845e-009
1.352556e-009
1.280132e-009
1.162551e-009
9.975530e-010
7.921184e-010
5.591700e-010
3.159557e-010
8.506047e-011
-1.055447e-010
-2.277362e-010
-2.633178e-010
-2.136796e-010
-1.029296e-010
2.797012e-011
1.341764e-010
1.817426e-010
1.594965e-010
8.316138e-011
-1.082487e-011
-8.112738e-011
-1.005758e-010
-6.889640e-011
-1.137218e-011
3.723880e-011
5.301389e-011
3.530864e-011
3.050188e-012
-2.096423e-011
-2.544144e-011
-1.463137e-011
-4.459743e-013
8.689709e-012
1.196187e-011
-2.096369e-010
-1.466571e-010
-6.213791e-011
-1.959608e-012
2.155154e-011
3.207812e-011
5.583351e-011
8.805369e-011
9.464318e-011
4.885402e-011
-3.464024e-011
-1.031681e-010
-1.063415e-010
-3.550593e-011
7.319873e-011
1.722742e-010
2.398512e-010
2.886245e-010
3.453441e-010
4.257275e-010
5.272614e-010
6.401565e-010
7.594315e-010
8.864151e-010
1.022274e-009
1.164076e-009
1.307305e-009
1.449889e-009
1.591939e-009
1.732195e-009
1.866522e-009
1.991100e-009
2.106146e-009
2.215750e-009
2.323282e-009
2.427463e-009
2.523126e-009
2.605885e-009
2.675827e-009
2.736767e-009
2.792085e-009
2.841553e-009
2.881932e-009
2.910502e-009
2.928053e-009
2.938599e-009
2.946280e-009
2.952253e-009
2.954201e-009
2.948827e-009
2.934674e-009
2.913184e-009
2.886630e-009
2.855318e-009
2.816100e-009
2.763527e-009
2.692551e-009
2.600753e-009
2.488308e-009
2.356357e-009
2.205058e-009
2.033590e-009
1.842079e-009
1.634433e-009
1.419324e-009
1.208383e-009
1.012642e-009
8.399403e-010
6.950029e-010
5.807410e-010
4.984675e-010
4.456563e-010
4.136235e-010
3.883483e-010
3.552120e-010
3.048496e-010
2.364245e-010
1.569079e-010
7.789379e-011
1.230446e-011
-2.909017e-011
-4.139172e-011
-2.852485e-011
-3.224939e-012
1.830486e-011
2.462195e-011
1.503099e-011
-1.305072e-012
-1.239753e-011
-1.196555e-011
-2.928498e-012
6.356818e-012
9.055031e-012
4.566400e-012
-2.286165e-012
-6.211920e-012
-5.366797e-012
-1.635036e-012
2.119536e-012
4.199870e-012
-2.537255e-009
-1.758875e-009
-5.796268e-010
4.634365e-010
9.698893e-010
8.659053e-010
3.837545e-010
-1.284949e-010
-4.215031e-010
-4.455657e-010
-3.023397e-010
-1.220904e-010
2.737515e-011
1.484423e-010
2.664345e-010
3.883804e-010
5.009501e-010
5.935253e-010
6.743756e-010
7.648863e-010
8.823749e-010
1.029070e-009
1.193894e-009
1.361394e-009
1.519604e-009
1.663006e-009
1.791035e-009
1.904559e-009
2.002382e-009
2.080903e-009
2.136807e-009
2.170426e-009
2.186194e-009
2.189418e-009
2.182401e-009
2.163502e-009
2.129566e-009
2.079213e-009
2.013682e-009
1.935558e-009
1.847179e-009
1.750577e-009
1.648886e-009
1.547499e-009
1.453727e-009
1.375044e-009
1.316906e-009
1.281751e-009
1.269478e-009
1.279328e-009
1.311361e-009
1.366926e-009
1.447407e-009
1.552383e-009
1.678351e-009
1.817957e-009
1.960181e-009
2.091057e-009
2.195333e-009
2.258951e-009
2.271430e-009
2.226563e-009
2.121983e-009
1.958617e-009
1.741701e-009
1.482911e-009
1.201703e-009
9.239997e-010
6.782155e-010
4.898736e-010
3.763430e-010
3.423875e-010
3.778267e-010
4.579722e-010
5.478822e-010
6.095176e-010
6.106415e-010
5.335308e-010
3.823366e-010
1.858445e-010
-8.008832e-012
-1.475104e-010
-1.979498e-010
-1.579937e-010
-6.114012e-011
3.989101e-011
9.914834e-011
9.833950e-011
5.195282e-011
-5.650138e-012
-4.222572e-011
-4.474538e-011
-2.239944e-011
4.256389e-012
1.855556e-011
1.679852e-011
6.535126e-012
-2.416567e-012
-5.797545e-012
-5.693842e-012
-2.534149e-009
-1.715192e-009
-4.742368e-010
6.098084e-010
1.086517e-009
8.629146e-010
2.177014e-010
-4.010116e-010
-6.558462e-010
-4.922290e-010
-1.038916e-010
2.519545e-010
4.344139e-010
4.701171e-010
4.740133e-010
5.357118e-010
6.669463e-010
8.290083e-010
9.888455e-010
1.146578e-009
1.320444e-009
1.517047e-009
1.718375e-009
1.893148e-009
2.016205e-009
2.077960e-009
2.079060e-009
2.019412e-009
1.892996e-009
1.691603e-009
1.411929e-009
1.058144e-009
6.382743e-010
1.588302e-010
-3.765303e-010
-9.638502e-010
-1.595685e-009
-2.261364e-009
-2.949994e-009
-3.652262e-009
-4.359000e-009
-5.058136e-009
-5.733424e-009
-6.366147e-009
-6.938038e-009
-7.432937e-009
-7.836622e-009
-8.135940e-009
-8.318581e-009
-8.373656e-009
-8.292796e-009
-8.070946e-009
-7.706901e-009
-7.203601e-009
-6.568299e-009
-5.813723e-009
-4.959899e-009
-4.035861e-009
-3.078638e-009
-2.128745e-009
-1.224201e-009
-3.969377e-010
3.264494e-010
9.221322e-010
1.369071e-009
1.653906e-009
1.777675e-009
1.758612e-009
1.629359e-009
1.429912e-009
1.200806e-009
9.785068e-010
7.919412e-010
6.591968e-010
5.839190e-010
5.534907e-010
5.409992e-010
5.125357e-010
4.396186e-010
3.127600e-010
1.498326e-010
-8.039461e-012
-1.140021e-010
-1.389482e-010
-8.796337e-011
1.030171e-012
7.675051e-011
1.017247e-010
7.091540e-011
1.074510e-011
-4.011837e-011
-5.542956e-011
-3.521967e-011
-8.544232e-013
2.315406e-011
2.584135e-011
1.331559e-011
-1.075196e-012
-9.016087e-012
-1.102734e-011
2.106249e-010
1.783590e-010
1.496012e-010
1.385946e-010
1.018134e-010
-1.724391e-011
-2.004453e-010
-3.274465e-010
-2.596824e-010
3.148473e-011
4.181763e-010
7.055451e-010
7.820638e-010
6.981466e-010
6.106011e-010
6.542048e-010
8.546588e-010
1.142564e-009
1.430532e-009
1.673145e-009
1.866887e-009
2.011459e-009
2.081259e-009
2.031073e-009
1.820588e-009
1.429228e-009
8.502780e-010
7.725687e-011
-9.005817e-010
-2.090564e-009
-3.487848e-009
-5.076065e-009
-6.835722e-009
-8.749784e-009
-1.080117e-008
-1.296613e-008
-1.521250e-008
-1.750499e-008
-1.981175e-008
-2.210502e-008
-2.435592e-008
-2.652966e-008
-2.858577e-008
-3.048283e-008
-3.218210e-008
-3.364714e-008
-3.484104e-008
-3.572497e-008
-3.626036e-008
-3.641340e-008
-3.615905e-008
-3.548346e-008
-3.438474e-008
-3.287269e-008
-3.096823e-008
-2.870323e-008
-2.612212e-008
-2.328471e-008
-2.026746e-008
-1.715993e-008
-1.405623e-008
-1.104634e-008
-8.211900e-009
-5.626802e-009
-3.357679e-009
-1.459326e-009
3.349998e-011
1.112858e-009
1.797628e-009
2.128751e-009
2.163597e-009
1.972510e-009
1.636015e-009
1.239002e-009
8.609914e-010
5.636403e-010
3.795058e-010
3.056270e-010
3.065609e-010
3.285353e-010
3.218098e-010
2.619771e-010
1.592208e-010
4.959740e-011
-2.702665e-011
-4.987414e-011
-2.752204e-011
1.025240e-011
3.272332e-011
2.702170e-011
2.904841e-012
-1.851388e-011
-2.225915e-011
-9.389340e-012
7.242862e-012
1.524645e-011
1.181374e-011
2.650915e-012
-5.375889e-012
-9.306076e-012
3.541909e-009
2.348637e-009
6.240779e-010
-7.569864e-010
-1.258318e-009
-9.339009e-010
-2.461229e-010
3.371256e-010
6.258335e-010
7.002426e-010
7.145542e-010
7.383154e-010
7.575922e-010
7.705458e-010
8.386050e-010
1.037321e-009
1.373238e-009
1.760196e-009
2.072820e-009
2.214940e-009
2.139179e-009
1.815280e-009
1.194483e-009
2.065394e-010
-1.216496e-009
-3.120698e-009
-5.530851e-009
-8.460442e-009
-1.191295e-008
-1.587346e-008
-2.030378e-008
-2.515025e-008
-3.035651e-008
-3.586837e-008
-4.162728e-008
-4.756317e-008
-5.359704e-008
-5.965100e-008
-6.565513e-008
-7.154375e-008
-7.724615e-008
-8.268153e-008
-8.776242e-008
-9.240183e-008
-9.651595e-008
-1.000212e-007
-1.028304e-007
-1.048535e-007
-1.060040e-007
-1.062075e-007
-1.054078e-007
-1.035708e-007
-1.006873e-007
-9.677670e-008
-9.188802e-008
-8.610014e-008
-7.952038e-008
-7.228547e-008
-6.456309e-008
-5.654983e-008
-4.846127e-008
-4.051521e-008
-3.291556e-008
-2.584224e-008
-1.944637e-008
-1.384573e-008
-9.117523e-009
-5.292366e-009
-2.354179e-009
-2.467620e-010
1.117034e-009
1.847789e-009
2.074025e-009
1.936500e-009
1.580208e-009
1.143672e-009
7.450756e-010
4.658233e-010
3.359543e-010
3.300142e-010
3.810037e-010
4.113948e-010
3.689126e-010
2.494091e-010
9.430551e-011
-3.589982e-011
-9.668752e-011
-8.285411e-011
-2.647635e-011
2.685201e-011
4.670745e-011
3.203212e-011
3.721633e-012
-1.531456e-011
-1.606629e-011
-5.147032e-012
4.948328e-012
6.807890e-012
1.813799e-012
-3.391773e-012
4.396099e-009
2.766300e-009
4.402305e-010
-1.328684e-009
-1.757185e-009
-9.494898e-010
3.117673e-010
1.185633e-009
1.314491e-009
9.227539e-010
4.982412e-010
3.890238e-010
6.320408e-010
1.062562e-009
1.515159e-009
1.916182e-009
2.234437e-009
2.396014e-009
2.263449e-009
1.677841e-009
4.993022e-010
-1.393513e-009
-4.125314e-009
-7.828979e-009
-1.262597e-008
-1.860344e-008
-2.580584e-008
-3.423625e-008
-4.385507e-008
-5.457743e-008
-6.627976e-008
-7.881820e-008
-9.204560e-008
-1.058149e-007
-1.199715e-007
-1.343505e-007
-1.487849e-007
-1.631179e-007
-1.772053e-007
-1.909035e-007
-2.040574e-007
-2.164963e-007
-2.280412e-007
-2.385122e-007
-2.477293e-007
-2.555088e-007
-2.616615e-007
-2.659986e-007
-2.683438e-007
-2.685447e-007
-2.664803e-007
-2.620674e-007
-2.552689e-007
-2.461051e-007
-2.346648e-007
-2.211095e-007
-2.056717e-007
-1.886506e-007
-1.704105e-007
-1.513777e-007
-1.320285e-007
-1.128619e-007
-9.436421e-008
-7.697474e-008
-6.106146e-008
-4.690413e-008
-3.468205e-008
-2.446677e-008
-1.622429e-008
-9.830315e-009
-5.094420e-009
-1.787043e-009
3.367423e-010
1.519162e-009
1.989984e-009
1.964554e-009
1.644660e-009
1.213239e-009
8.178114e-010
5.476504e-010
4.198535e-010
3.881641e-010
3.762279e-010
3.214091e-010
2.069713e-010
6.573670e-011
-4.592276e-011
-8.669337e-011
-5.669409e-011
5.503710e-012
5.135375e-011
5.446553e-011
2.327607e-011
-1.255882e-011
-2.801275e-011
-1.957811e-011
-1.959016e-012
8.348944e-012
6.916684e-012
1.664685e-012
1.393621e-009
7.284591e-010
-1.912737e-010
-7.880006e-010
-6.802748e-010
5.511469e-011
9.249054e-010
1.370661e-009
1.180146e-009
6.313187e-010
2.541374e-010
4.205016e-010
1.102768e-009
1.959633e-009
2.609374e-009
2.825945e-009
2.525111e-009
1.621322e-009
-8.199260e-011
-2.891991e-009
-7.159027e-009
-1.321915e-008
-2.137351e-008
-3.188221e-008
-4.494947e-008
-6.070173e-008
-7.917106e-008
-1.002880e-007
-1.238827e-007
-1.496982e-007
-1.774173e-007
-2.066955e-007
-2.371836e-007
-2.685317e-007
-3.003867e-007
-3.323977e-007
-3.642308e-007
-3.955778e-007
-4.261481e-007
-4.556492e-007
-4.837711e-007
-5.101861e-007
-5.345555e-007
-5.565343e-007
-5.757694e-007
-5.918975e-007
-6.045497e-007
-6.133646e-007
-6.180044e-007
-6.181699e-007
-6.136122e-007
-6.041442e-007
-5.896565e-007
-5.701421e-007
-5.457217e-007
-5.166640e-007
-4.833901e-007
-4.464701e-007
-4.066165e-007
-3.646785e-007
-3.216257e-007
-2.785103e-007
-2.364054e-007
-1.963312e-007
-1.591878e-007
-1.256986e-007
-9.636898e-008
-7.145884e-008
-5.097719e-008
-3.470373e-008
-2.223673e-008
-1.305711e-008
-6.597755e-009
-2.305649e-009
3.143146e-010
1.682694e-009
2.154530e-009
2.039544e-009
1.613494e-009
1.108763e-009
6.898093e-010
4.319708e-010
3.229220e-010
2.931435e-010
2.648310e-010
1.957234e-010
9.534608e-011
6.354828e-012
-3.354370e-011
-2.078335e-011
1.453104e-011
3.523998e-011
2.584988e-011
-6.231833e-013
-1.981111e-011
-1.910840e-011
-5.569839e-012
5.469119e-012
6.626583e-012
3.083483e-012
-3.752040e-009
-2.415339e-009
-5.405407e-010
8.975247e-010
1.423526e-009
1.229884e-009
8.114931e-010
5.178767e-010
4.288497e-010
5.319818e-010
8.815314e-010
1.533257e-009
2.366049e-009
3.028555e-009
3.077801e-009
2.150047e-009
-1.834642e-011
-3.725551e-009
-9.447150e-009
-1.785655e-008
-2.972369e-008
-4.578365e-008
-6.665008e-008
-9.278072e-008
-1.244631e-007
-1.617979e-007
-2.046798e-007
-2.527915e-007
-3.056210e-007
-3.625066e-007
-4.226997e-007
-4.854210e-007
-5.498959e-007
-6.153673e-007
-6.811056e-007
-7.464252e-007
-8.107003e-007
-8.733621e-007
-9.338759e-007
-9.917128e-007
-1.046336e-006
-1.097198e-006
-1.143744e-006
-1.185402e-006
-1.221585e-006
-1.251685e-006
-1.275088e-006
-1.291193e-006
-1.299427e-006
-1.299263e-006
-1.290243e-006
-1.271994e-006
-1.244259e-006
-1.206929e-006
-1.160089e-006
-1.104063e-006
-1.039445e-006
-9.671183e-007
-8.882525e-007
-8.043070e-007
-7.170173e-007
-6.283522e-007
-5.404255e-007
-4.553709e-007
-3.751987e-007
-3.016578e-007
-2.361124e-007
-1.794473e-007
-1.320166e-007
-9.364760e-008
-6.370595e-008
-4.120829e-008
-2.496498e-008
-1.372978e-008
-6.332498e-009
-1.769284e-009
7.641457e-010
1.891679e-009
2.102798e-009
1.793813e-009
1.283818e-009
8.048039e-010
4.830934e-010
3.360598e-010
2.995683e-010
2.830684e-010
2.265132e-010
1.283672e-010
3.027168e-011
-2.517760e-011
-2.838239e-011
-4.152296e-012
1.471432e-011
1.378058e-011
1.455969e-012
-7.070603e-012
-6.064660e-012
-8.776314e-013
2.009617e-012
2.041840e-012
-7.229275e-009
-4.216364e-009
-1.177684e-010
2.679382e-009
3.021793e-009
1.563753e-009
-6.451323e-011
-6.012747e-010
1.219116e-010
1.449462e-009
2.638118e-009
3.312628e-009
3.375465e-009
2.661039e-009
7.296209e-010
-3.100645e-009
-9.657487e-009
-1.991483e-008
-3.506038e-008
-5.649492e-008
-8.569808e-008
-1.240219e-007
-1.725173e-007
-2.318420e-007
-3.022302e-007
-3.834837e-007
-4.749718e-007
-5.756574e-007
-6.841687e-007
-7.989152e-007
-9.182158e-007
-1.040404e-006
-1.163889e-006
-1.287193e-006
-1.408976e-006
-1.528051e-006
-1.643396e-006
-1.754113e-006
-1.859395e-006
-1.958486e-006
-2.050664e-006
-2.135237e-006
-2.211526e-006
-2.278840e-006
-2.336466e-006
-2.383669e-006
-2.419707e-006
-2.443834e-006
-2.455309e-006
-2.453404e-006
-2.437432e-006
-2.406771e-006
-2.360890e-006
-2.299385e-006
-2.222039e-006
-2.128900e-006
-2.020377e-006
-1.897316e-006
-1.761057e-006
-1.613495e-006
-1.457116e-006
-1.294994e-006
-1.130713e-006
-9.681936e-007
-8.114535e-007
-6.643136e-007
-5.300983e-007
-4.113584e-007
-3.096646e-007
-2.255133e-007
-1.583631e-007
-1.067931e-007
-6.874973e-008
-4.183969e-008
-2.362393e-008
-1.186522e-008
-4.690034e-009
-6.465411e-010
1.327957e-009
1.993356e-009
1.901494e-009
1.463267e-009
9.737662e-010
6.068305e-010
4.106966e-010
3.343282e-010
2.884508e-010
2.119486e-010
1.044522e-010
8.273917e-012
-3.759999e-011
-3.029488e-011
4.535548e-013
2.145280e-011
2.026392e-011
6.228940e-012
-5.368926e-012
-7.430392e-012
-2.938740e-012
1.506718e-012
-5.862105e-009
-2.990108e-009
7.868523e-010
3.065946e-009
2.799806e-009
9.106142e-010
-6.574272e-010
-5.302285e-010
1.188726e-009
3.270525e-009
4.420342e-009
4.021703e-009
2.029550e-009
-1.696306e-009
-7.956911e-009
-1.831108e-008
-3.483682e-008
-5.988600e-008
-9.597736e-008
-1.457239e-007
-2.116464e-007
-2.958655e-007
-3.997892e-007
-5.239116e-007
-6.677460e-007
-8.298583e-007
-1.007965e-006
-1.199096e-006
-1.399829e-006
-1.606565e-006
-1.815787e-006
-2.024246e-006
-2.229070e-006
-2.427809e-006
-2.618453e-006
-2.799413e-006
-2.969475e-006
-3.127716e-006
-3.273433e-006
-3.406097e-006
-3.525340e-006
-3.630929e-006
-3.722728e-006
-3.800645e-006
-3.864604e-006
-3.914524e-006
-3.950306e-006
-3.971787e-006
-3.978696e-006
-3.970616e-006
-3.946968e-006
-3.906999e-006
-3.849768e-006
-3.774134e-006
-3.678799e-006
-3.562426e-006
-3.423818e-006
-3.262137e-006
-3.077144e-006
-2.869455e-006
-2.640812e-006
-2.394298e-006
-2.134444e-006
-1.867146e-006
-1.599364e-006
-1.338627e-006
-1.092366e-006
-8.671956e-007
-6.682394e-007
-4.986550e-007
-3.594433e-007
-2.495671e-007
-1.663288e-007
-1.059085e-007
-6.395735e-008
-3.614511e-008
-1.858260e-008
-8.076178e-009
-2.208242e-009
7.257828e-010
1.870845e-009
1.990969e-009
1.613766e-009
1.106182e-009
6.901755e-010
4.425985e-010
3.252430e-010
2.536046e-010
1.695308e-010
7.277466e-011
-8.016375e-013
-2.470023e-011
-7.558681e-012
1.803858e-011
2.550626e-011
1.259800e-011
-4.598157e-012
-1.090089e-011
-4.971363e-012
2.993474e-012
4.406145e-010
8.769845e-010
1.341533e-009
1.356871e-009
8.275576e-010
2.369123e-010
3.396672e-010
1.512973e-009
3.298784e-009
4.567424e-009
4.153106e-009
1.326034e-009
-4.400224e-009
-1.399604e-008
-2.957374e-008
-5.450276e-008
-9.302500e-008
-1.497491e-007
-2.292874e-007
-3.359790e-007
-4.735000e-007
-6.443063e-007
-8.490691e-007
-1.086325e-006
-1.352452e-006
-1.641948e-006
-1.947910e-006
-2.262641e-006
-2.578297e-006
-2.887503e-006
-3.183814e-006
-3.461986e-006
-3.718058e-006
-3.949299e-006
-4.154085e-006
-4.331732e-006
-4.482293e-006
-4.606388e-006
-4.705081e-006
-4.779853e-006
-4.832591e-006
-4.865564e-006
-4.881359e-006
-4.882787e-006
-4.872813e-006
-4.854466e-006
-4.830721e-006
-4.804333e-006
-4.777638e-006
-4.752358e-006
-4.729428e-006
-4.708804e-006
-4.689271e-006
-4.668258e-006
-4.641746e-006
-4.604326e-006
-4.549453e-006
-4.469873e-006
-4.358219e-006
-4.207788e-006
-4.013449e-006
-3.772630e-006
-3.486192e-006
-3.159004e-006
-2.800028e-006
-2.421794e-006
-2.039232e-006
-1.668000e-006
-1.322590e-006
-1.014594e-006
-7.515226e-007
-5.363800e-007
-3.680080e-007
-2.420022e-007
-1.519180e-007
-9.047785e-008
-5.057218e-008
-2.594830e-008
-1.157487e-008
-3.724275e-009
1.588419e-010
1.720407e-009
1.995995e-009
1.655071e-009
1.138854e-009
7.048904e-010
4.415379e-010
3.113450e-010
2.313512e-010
1.483359e-010
6.423470e-011
8.393084e-012
-4.969032e-012
7.705859e-012
1.771726e-011
1.114690e-011
-3.423438e-012
-9.975552e-012
-3.808271e-012
5.144908e-012
8.331808e-009
5.143851e-009
9.815770e-010
-1.539958e-009
-1.326101e-009
7.928206e-010
3.170718e-009
4.621606e-009
4.735500e-009
3.312622e-009
-2.869082e-010
-7.421635e-009
-2.028876e-008
-4.221434e-008
-7.802207e-008
-1.340975e-007
-2.179527e-007
-3.374538e-007
-4.999507e-007
-7.113507e-007
-9.750481e-007
-1.290776e-006
-1.653708e-006
-2.054201e-006
-2.478378e-006
-2.909426e-006
-3.329296e-006
-3.720457e-006
-4.067427e-006
-4.357881e-006
-4.583214e-006
-4.738590e-006
-4.822580e-006
-4.836583e-006
-4.784164e-006
-4.670431e-006
-4.501517e-006
-4.284252e-006
-4.026035e-006
-3.734887e-006
-3.419536e-006
-3.089454e-006
-2.754805e-006
-2.426332e-006
-2.115186e-006
-1.832703e-006
-1.590082e-006
-1.397977e-006
-1.266023e-006
-1.202319e-006
-1.212876e-006
-1.301008e-006
-1.466680e-006
-1.705839e-006
-2.009844e-006
-2.365131e-006
-2.753215e-006
-3.151132e-006
-3.532393e-006
-3.868547e-006
-4.131378e-006
-4.295684e-006
-4.342356e-006
-4.261285e-006
-4.053530e-006
-3.732110e-006
-3.320992e-006
-2.852155e-006
-2.361149e-006
-1.882053e-006
-1.442975e-006
-1.063102e-006
-7.517836e-007
-5.095257e-007
-3.302521e-007
-2.040194e-007
-1.194801e-007
-6.570782e-008
-3.330042e-008
-1.486804e-008
-5.067536e-009
-3.335575e-010
1.555599e-009
1.937314e-009
1.627393e-009
1.127808e-009
7.094474e-010
4.534734e-010
3.168651e-010
2.232938e-010
1.329270e-010
5.408941e-011
9.182120e-012
1.013940e-013
6.041221e-012
6.489693e-012
-9.680608e-013
-5.653850e-012
-1.482760e-012
5.328042e-012
1.303318e-008
7.228286e-009
4.027854e-011
-3.484844e-009
-1.700061e-009
2.911097e-009
6.410270e-009
6.519049e-009
3.365180e-009
-2.272012e-009
-1.121327e-008
-2.688148e-008
-5.501753e-008
-1.031519e-007
-1.804936e-007
-2.979377e-007
-4.674983e-007
-7.008121e-007
-1.006847e-006
-1.389183e-006
-1.843316e-006
-2.354628e-006
-2.897756e-006
-3.437940e-006
-3.934323e-006
-4.344515e-006
-4.629392e-006
-4.757124e-006
-4.705827e-006
-4.464594e-006
-4.033046e-006
-3.419771e-006
-2.640147e-006
-1.714048e-006
-6.638096e-007
4.873460e-007
1.716306e-006
3.000473e-006
4.317681e-006
5.645805e-006
6.962348e-006
8.244139e-006
9.467232e-006
1.060696e-005
1.163816e-005
1.253550e-005
1.327401e-005
1.382962e-005
1.417991e-005
1.430484e-005
1.418779e-005
1.381661e-005
1.318505e-005
1.229424e-005
1.115449e-005
9.786854e-006
8.224632e-006
6.514217e-006
4.715072e-006
2.898341e-006
1.143618e-006
-4.664152e-007
-1.853364e-006
-2.951831e-006
-3.718156e-006
-4.137407e-006
-4.226666e-006
-4.033165e-006
-3.626963e-006
-3.089476e-006
-2.500515e-006
-1.927024e-006
-1.416063e-006
-9.930728e-007
-6.646946e-007
-4.242157e-007
-2.575177e-007
-1.479945e-007
-7.982728e-008
-3.971781e-008
-1.749521e-008
-6.009684e-009
-6.239238e-010
1.466706e-009
1.890607e-009
1.591639e-009
1.110133e-009
7.106786e-010
4.584787e-010
3.082058e-010
1.978288e-010
1.033414e-010
3.505623e-011
3.698361e-012
-1.298624e-014
3.680554e-012
3.010075e-012
1.679809e-014
1.568700e-014
2.165381e-012
1.131896e-008
5.891904e-009
-3.762640e-010
-2.500231e-009
5.801720e-010
5.483374e-009
7.660502e-009
4.862698e-009
-2.523001e-009
-1.425068e-008
-3.338019e-008
-6.745856e-008
-1.277094e-007
-2.278160e-007
-3.833550e-007
-6.113298e-007
-9.283589e-007
-1.346575e-006
-1.867536e-006
-2.475588e-006
-3.132715e-006
-3.776951e-006
-4.325744e-006
-4.684344e-006
-4.757645e-006
-4.462743e-006
-3.739356e-006
-2.556071e-006
-9.117663e-007
1.167234e-006
3.632956e-006
6.423003e-006
9.467761e-006
1.269652e-005
1.604186e-005
1.944228e-005
2.284310e-005
2.619624e-005
2.945912e-005
3.259340e-005
3.556375e-005
3.833703e-005
4.088169e-005
4.316744e-005
4.516510e-005
4.684644e-005
4.818411e-005
4.915133e-005
4.972169e-005
4.986884e-005
4.956656e-005
4.878907e-005
4.751211e-005
4.571491e-005
4.338337e-005
4.051466e-005
3.712312e-005
3.324700e-005
2.895510e-005
2.435195e-005
1.957938e-005
1.481271e-005
1.024985e-005
6.093209e-006
2.525910e-006
-3.139186e-007
-2.355024e-006
-3.605100e-006
-4.148615e-006
-4.129653e-006
-3.723660e-006
-3.105676e-006
-2.423487e-006
-1.781966e-006
-1.240304e-006
-8.194167e-007
-5.142819e-007
-3.062445e-007
-1.723349e-007
-9.088876e-008
-4.415425e-008
-1.896117e-008
-6.335081e-009
-6.267191e-010
1.482977e-009
1.859692e-009
1.535757e-009
1.061191e-009
6.777577e-010
4.304285e-010
2.736605e-010
1.592829e-010
7.313405e-011
2.145241e-011
3.750991e-012
4.938436e-012
7.860997e-012
5.477646e-012
3.097927e-013
-3.264403e-012
3.529023e-009
1.979478e-009
8.163521e-010
1.818679e-009
4.575708e-009
6.535930e-009
4.897857e-009
-1.886879e-009
-1.488912e-008
-3.742808e-008
-7.767814e-008
-1.494779e-007
-2.714500e-007
-4.656001e-007
-7.557531e-007
-1.164439e-006
-1.706049e-006
-2.375342e-006
-3.133154e-006
-3.893970e-006
-4.521238e-006
-4.834895e-006
-4.631940e-006
-3.716247e-006
-1.930410e-006
8.183404e-007
4.544093e-006
9.182136e-006
1.460093e-005
2.062200e-005
2.704278e-005
3.365823e-005
4.027793e-005
4.673733e-005
5.290290e-005
5.867235e-005
6.397183e-005
6.875180e-005
7.298311e-005
7.665388e-005
7.976744e-005
8.234089e-005
8.440378e-005
8.599656e-005
8.716829e-005
8.797380e-005
8.846979e-005
8.871004e-005
8.873964e-005
8.858857e-005
8.826490e-005
8.774825e-005
8.698422e-005
8.588137e-005
8.431219e-005
8.212018e-005
7.913424e-005
7.519104e-005
7.016443e-005
6.399894e-005
5.674191e-005
4.856714e-005
3.978151e-005
3.080762e-005
2.213893e-005
1.427136e-005
7.624331e-006
2.470465e-006
-1.106226e-006
-3.211930e-006
-4.103910e-006
-4.122709e-006
-3.616864e-006
-2.881694e-006
-2.126082e-006
-1.468973e-006
-9.568805e-007
-5.895951e-007
-3.437009e-007
-1.889262e-007
-9.710779e-008
-4.582571e-008
-1.898959e-008
-5.995343e-009
-3.762583e-010
1.555070e-009
1.805760e-009
1.436867e-009
9.728914e-010
6.155509e-010
3.845143e-010
2.331108e-010
1.246856e-010
5.181953e-011
1.649088e-011
9.754053e-012
1.253659e-011
9.959777e-012
3.743341e-013
-8.240498e-012
-6.553962e-009
-2.144286e-009
3.836785e-009
7.868367e-009
8.016909e-009
4.324709e-009
-2.850582e-009
-1.520010e-008
-3.829236e-008
-8.265477e-008
-1.644800e-007
-3.060866e-007
-5.356948e-007
-8.854411e-007
-1.385661e-006
-2.052674e-006
-2.868036e-006
-3.750999e-006
-4.532122e-006
-4.941204e-006
-4.622370e-006
-3.181339e-006
-2.574944e-007
4.397268e-006
1.085476e-005
1.897930e-005
2.843578e-005
3.873324e-005
4.929145e-005
5.951408e-005
6.885336e-005
7.685691e-005
8.319305e-005
8.765560e-005
9.015272e-005
9.068673e-005
8.933228e-005
8.621861e-005
8.151857e-005
7.544402e-005
6.824531e-005
6.021156e-005
5.166934e-005
4.297837e-005
3.452393e-005
2.670609e-005
1.992619e-005
1.457028e-005
1.098979e-005
9.479105e-006
1.025003e-005
1.340368e-005
1.890099e-005
2.653501e-005
3.590961e-005
4.643095e-005
5.731879e-005
6.764464e-005
7.640183e-005
8.260850e-005
8.543787e-005
8.436001e-005
7.926798e-005
7.055127e-005
5.908088e-005
4.608909e-005
3.295904e-005
2.097219e-005
1.108217e-005
3.779866e-006
-9.201292e-007
-3.383890e-006
-4.194066e-006
-3.974912e-006
-3.257908e-006
-2.414724e-006
-1.654414e-006
-1.060589e-006
-6.402052e-007
-3.645139e-007
-1.952151e-007
-9.747060e-008
-4.445538e-008
-1.759738e-008
-5.085411e-009
4.382866e-011
1.636923e-009
1.718715e-009
1.309153e-009
8.699673e-010
5.478279e-010
3.363783e-010
1.923595e-010
9.313475e-011
3.653418e-011
1.721061e-011
1.625529e-011
1.309553e-011
1.257220e-012
-1.022125e-011
-1.371430e-008
-3.965016e-009
7.746470e-009
1.279864e-008
8.477785e-009
-2.096331e-009
-1.632856e-008
-3.868283e-008
-8.268927e-008
-1.692697e-007
-3.252964e-007
-5.841403e-007
-9.854429e-007
-1.568356e-006
-2.352237e-006
-3.300983e-006
-4.273056e-006
-4.970206e-006
-4.910701e-006
-3.457683e-006
7.868930e-008
6.274852e-006
1.540255e-005
2.726950e-005
4.114368e-005
5.578950e-005
6.961627e-005
8.090129e-005
8.802783e-005
8.968384e-005
8.498729e-005
7.352797e-005
5.533627e-005
3.080134e-005
5.656034e-007
-3.457865e-005
-7.377006e-005
-1.161261e-004
-1.607594e-004
-2.067714e-004
-2.532376e-004
-2.991942e-004
-3.436334e-004
-3.855097e-004
-4.237526e-004
-4.572863e-004
-4.850508e-004
-5.060255e-004
-5.192560e-004
-5.238855e-004
-5.191959e-004
-5.046599e-004
-4.800090e-004
-4.453164e-004
-4.010908e-004
-3.483712e-004
-2.888086e-004
-2.247078e-004
-1.590032e-004
-9.513271e-005
-3.678093e-005
1.252068e-005
4.990957e-005
7.373170e-005
8.394596e-005
8.221577e-005
7.159228e-005
5.585727e-005
3.872801e-005
2.315858e-005
1.093807e-005
2.661678e-006
-2.010284e-006
-3.950378e-006
-4.167756e-006
-3.527052e-006
-2.621682e-006
-1.776149e-006
-1.117460e-006
-6.591114e-007
-3.656177e-007
-1.902433e-007
-9.193689e-008
-4.028496e-008
-1.503189e-008
-3.773595e-009
5.472338e-010
1.702312e-009
1.606926e-009
1.172246e-009
7.663439e-010
4.765616e-010
2.804852e-010
1.467988e-010
6.468079e-011
2.803040e-011
1.902044e-011
1.440424e-011
3.140998e-012
-8.029193e-012
-1.391167e-008
-2.126480e-009
1.084527e-008
1.384577e-008
4.262574e-009
-1.345051e-008
-3.803825e-008
-8.048490e-008
-1.651587e-007
-3.257269e-007
-6.024591e-007
-1.042022e-006
-1.691746e-006
-2.575327e-006
-3.639218e-006
-4.669376e-006
-5.198283e-006
-4.449490e-006
-1.385810e-006
5.084816e-006
1.574485e-005
3.061621e-005
4.855771e-005