# vtk DataFile Version 3.0
vtk output
ASCII
DATASET STRUCTURED_POINTS
DIMENSIONS 100 100 1
SPACING 1 1 1
ORIGIN 0 0 0
POINT_DATA 10000
SCALARS SFBox_profile double
LOOKUP_TABLE default 
0.000000e+000
0.000000e+000
0.000000e+000
0.000000e+000
0.000000e+000
0.000000e+000
0.000000e+000
0.000000e+000
0.000000e+000
0.000000e+000
0.000000e+000
0.000000e+000
0.000000e+000
0.000000e+000
0.000000e+000
0.000000e+000
0.000000e+000
0.000000e+000
0.000000e+000
0.000000e+000
0.000000e+000
0.000000e+000
0.000000e+000
0.000000e+000
0.000000e+000
0.000000e+000
0.000000e+000
0.000000e+000
0.000000e+000
0.000000e+000
0.000000e+000
0.000000e+000
0.000000e+000
0.000000e+000
0.000000e+000
0.000000e+000
0.000000e+000
0.000000e+000
0.000000e+000
0.000000e+000
0.000000e+000
0.000000e+000
0.000000e+000
0.000000e+000
0.000000e+000
0.000000e+000
0.000000e+000
0.000000e+000
0.000000e+000
0.000000e+000
0.000000e+000
0.000000e+000
0.000000e+000
0.000000e+000
0.000000e+000
0.000000e+000
0.000000e+000
0.000000e+000
0.000000e+000
0.000000e+000
0.000000e+000
0.000000e+000
0.000000e+000
0.000000e+000
0.000000e+000
0.000000e+000
0.000000e+000
0.000000e+000
0.000000e+000
0.000000e+000
0.000000e+000
0.000000e+000
0.000000e+000
0.000000e+000
0.000000e+000
0.000000e+000
0.000000e+000
0.000000e+000
0.000000e+000
0.000000e+000
0.000000e+000
0.000000e+000
0.000000e+000
0.000000e+000
0.000000e+000
0.000000e+000
0.000000e+000
0.000000e+000
0.000000e+000
0.000000e+000
0.000000e+000
0.000000e+000
0.000000e+000
0.000000e+000
0.000000e+000
0.000000e+000
0.000000e+000
0.000000e+000
0.000000e+000
0.000000e+000
-4.020504e-009
-1.497962e-009
1.729918e-009
3.575032e-009
3.065381e-009
8.386770e-010
-1.506810e-009
-2.615406e-009
-2.200654e-009
-9.553700e-010
2.192461e-010
9.215937e-010
1.319642e-009
1.661405e-009
1.820444e-009
1.373088e-009
1.156852e-010
-1.545437e-009
-2.779239e-009
-2.951302e-009
-2.095395e-009
-8.014744e-010
3.311855e-010
1.123901e-009
1.756925e-009
2.376079e-009
2.838031e-009
2.850050e-009
2.301932e-009
1.401321e-009
4.798304e-010
-2.918515e-010
-9.738237e-010
-1.678672e-009
-2.383068e-009
-2.938823e-009
-3.238043e-009
-3.321648e-009
-3.316263e-009
-3.295117e-009
-3.228893e-009
-3.063995e-009
-2.814840e-009
-2.559589e-009
-2.358885e-009
-2.204875e-009
-2.056699e-009
-1.907536e-009
-1.797042e-009
-1.759971e-009
-1.782661e-009
-1.823829e-009
-1.869903e-009
-1.950153e-009
-2.090137e-009
-2.264740e-009
-2.416183e-009
-2.518082e-009
-2.600783e-009
-2.696750e-009
-2.770850e-009
-2.731691e-009
-2.523501e-009
-2.187104e-009
-1.803152e-009
-1.378525e-009
-8.256982e-010
-8.444614e-011
7.493135e-010
1.457173e-009
1.879479e-009
2.037495e-009
2.041279e-009
1.888130e-009
1.414791e-009
5.049410e-010
-6.631864e-010
-1.636281e-009
-2.006406e-009
-1.722248e-009
-1.070358e-009
-3.617445e-010
3.161042e-010
1.007541e-009
1.593465e-009
1.695295e-009
9.817131e-010
-3.871418e-010
-1.669311e-009
-2.005773e-009
-1.101795e-009
4.688413e-010
1.639029e-009
1.629254e-009
5.174767e-010
-8.417303e-010
-1.467082e-009
-9.626888e-010
2.278173e-010
1.181056e-009
-3.887350e-010
-6.503369e-011
2.993989e-010
3.947518e-010
1.298305e-010
-2.848980e-010
-4.910002e-010
-2.711639e-010
2.509833e-010
6.792718e-010
6.508542e-010
1.366277e-010
-5.234858e-010
-8.898845e-010
-7.647953e-010
-3.076789e-010
1.588661e-010
4.437113e-010
5.940730e-010
7.385828e-010
8.691330e-010
8.141695e-010
4.306453e-010
-2.057817e-010
-8.292003e-010
-1.203251e-009
-1.298337e-009
-1.250559e-009
-1.172349e-009
-1.034944e-009
-7.386093e-010
-2.652596e-010
2.720639e-010
7.313395e-010
1.066704e-009
1.336243e-009
1.600876e-009
1.843861e-009
1.998520e-009
2.035243e-009
1.997244e-009
1.949564e-009
1.912131e-009
1.856740e-009
1.761338e-009
1.647640e-009
1.558105e-009
1.507995e-009
1.475384e-009
1.438183e-009
1.406507e-009
1.408012e-009
1.447612e-009
1.496882e-009
1.528497e-009
1.549738e-009
1.587833e-009
1.643384e-009
1.674339e-009
1.637339e-009
1.536583e-009
1.413494e-009
1.283749e-009
1.102541e-009
8.124188e-010
4.232654e-010
2.262673e-011
-3.066863e-010
-5.648301e-010
-8.060860e-010
-1.030287e-009
-1.132591e-009
-9.928716e-010
-6.161016e-010
-1.583653e-010
2.039325e-010
4.189650e-010
5.538630e-010
6.518608e-010
6.348556e-010
3.864687e-010
-6.746462e-011
-4.979273e-010
-6.327949e-010
-3.962357e-010
1.379648e-011
2.938417e-010
2.877471e-010
8.795351e-011
-8.879506e-011
-1.079026e-010
-8.430216e-012
7.761395e-011
6.711411e-011
-1.317965e-011
-8.002945e-011
-8.120911e-011
-2.858254e-011
3.346648e-011
7.067801e-011
3.549155e-009
1.395751e-009
-1.393684e-009
-3.079766e-009
-2.831144e-009
-1.094125e-009
9.349433e-010
2.200879e-009
2.345060e-009
1.630983e-009
5.066079e-010
-7.130704e-010
-1.819198e-009
-2.528417e-009
-2.477993e-009
-1.480015e-009
2.176550e-010
1.969064e-009
3.088558e-009
3.238372e-009
2.535514e-009
1.346010e-009
6.188645e-012
-1.288330e-009
-2.410165e-009
-3.210658e-009
-3.542396e-009
-3.354106e-009
-2.731570e-009
-1.835016e-009
-8.055738e-010
2.678806e-010
1.316930e-009
2.263836e-009
3.037018e-009
3.604816e-009
3.979317e-009
4.186949e-009
4.244846e-009
4.167590e-009
3.985171e-009
3.741355e-009
3.473034e-009
3.198113e-009
2.926047e-009
2.673551e-009
2.462997e-009
2.307246e-009
2.203673e-009
2.146040e-009
2.137054e-009
2.183897e-009
2.283810e-009
2.421187e-009
2.580927e-009
2.758709e-009
2.952294e-009
3.145068e-009
3.305458e-009
3.404424e-009
3.427118e-009
3.361903e-009
3.182660e-009
2.852842e-009
2.351780e-009
1.692328e-009
9.097201e-010
4.237948e-011
-8.614816e-010
-1.715790e-009
-2.390657e-009
-2.753565e-009
-2.724396e-009
-2.292025e-009
-1.492822e-009
-4.065790e-010
8.016746e-010
1.851924e-009
2.418097e-009
2.291262e-009
1.514225e-009
3.665384e-010
-7.833504e-010
-1.621908e-009
-1.933507e-009
-1.594728e-009
-6.345025e-010
6.471381e-010
1.674249e-009
1.853875e-009
9.982665e-010
-4.295091e-010
-1.532361e-009
-1.582164e-009
-5.695194e-010
7.554712e-010
1.424914e-009
9.780064e-010
-1.939300e-010
-1.156243e-009
4.267266e-009
1.482213e-009
-1.985908e-009
-3.789374e-009
-2.974584e-009
-4.641243e-010
1.851927e-009
2.586756e-009
1.718817e-009
2.819726e-010
-6.750788e-010
-8.831903e-010
-7.815398e-010
-8.239291e-010
-9.450922e-010
-7.057997e-010
1.117090e-010
1.139751e-009
1.693823e-009
1.392328e-009
4.907036e-010
-3.850308e-010
-7.985110e-010
-7.931501e-010
-6.870304e-010
-6.698618e-010
-6.438431e-010
-4.185843e-010
2.026777e-011
4.765551e-010
7.449181e-010
7.943739e-010
7.441872e-010
6.995337e-010
6.500635e-010
5.231702e-010
2.960146e-010
2.810847e-011
-2.047290e-010
-3.808209e-010
-5.300929e-010
-6.797012e-010
-8.203712e-010
-9.245725e-010
-9.824616e-010
-1.010765e-009
-1.031057e-009
-1.048203e-009
-1.051980e-009
-1.034647e-009
-1.002029e-009
-9.667366e-010
-9.328275e-010
-8.898847e-010
-8.241416e-010
-7.347372e-010
-6.348760e-010
-5.333585e-010
-4.180492e-010
-2.664231e-010
-7.666427e-011
1.194606e-010
2.858305e-010
4.221890e-010
5.586343e-010
6.986573e-010
7.800255e-010
7.184416e-010
4.993360e-010
2.063247e-010
-6.389796e-011
-3.045845e-010
-5.790995e-010
-8.791889e-010
-1.036433e-009
-8.367201e-010
-2.539343e-010
4.559988e-010
9.387090e-010
1.030411e-009
8.422847e-010
5.546329e-010
1.809627e-010
-3.877587e-010
-1.086897e-009
-1.507675e-009
-1.156666e-009
2.031354e-011
1.382536e-009
1.966791e-009
1.255335e-009
-3.246009e-010
-1.654892e-009
-1.772285e-009
-6.206214e-010
9.062305e-010
1.660232e-009
1.114379e-009
-2.594085e-010
-1.377028e-009
1.258124e-009
1.761462e-010
-1.008820e-009
-1.263792e-009
-3.501324e-010
9.683150e-010
1.534999e-009
7.623124e-010
-8.371649e-010
-2.019827e-009
-1.807601e-009
-2.821687e-010
1.500220e-009
2.381443e-009
1.976248e-009
8.030705e-010
-3.424876e-010
-1.086438e-009
-1.584384e-009
-2.053462e-009
-2.337216e-009
-2.007258e-009
-8.635637e-010
7.506000e-010
2.176929e-009
2.964581e-009
3.142109e-009
3.008032e-009
2.736117e-009
2.236964e-009
1.369382e-009
1.983301e-010
-1.006614e-009
-2.001403e-009
-2.744743e-009
-3.342760e-009
-3.866203e-009
-4.264265e-009
-4.448036e-009
-4.412972e-009
-4.251695e-009
-4.060884e-009
-3.864640e-009
-3.634407e-009
-3.361651e-009
-3.089234e-009
-2.872890e-009
-2.729493e-009
-2.634586e-009
-2.565405e-009
-2.533078e-009
-2.566360e-009
-2.670046e-009
-2.811279e-009
-2.952167e-009
-3.088598e-009
-3.243581e-009
-3.417997e-009
-3.560004e-009
-3.599586e-009
-3.513379e-009
-3.335835e-009
-3.091082e-009
-2.727426e-009
-2.152576e-009
-1.349117e-009
-4.329851e-010
4.335733e-010
1.182331e-009
1.851944e-009
2.436931e-009
2.759947e-009
2.566455e-009
1.784940e-009
6.657847e-010
-3.865480e-010
-1.124187e-009
-1.563989e-009
-1.781423e-009
-1.670965e-009
-1.020370e-009
1.325757e-010
1.286391e-009
1.747153e-009
1.207784e-009
7.209130e-011
-8.385143e-010
-9.540694e-010
-3.853495e-010
2.597881e-010
4.536230e-010
1.643838e-010
-2.242686e-010
-3.291997e-010
-9.371595e-011
2.332926e-010
3.646613e-010
2.092317e-010
-9.811277e-011
-3.307491e-010
-2.683684e-009
-1.193019e-009
7.964131e-010
2.159126e-009
2.321449e-009
1.419256e-009
-1.709982e-011
-1.426353e-009
-2.338921e-009
-2.367308e-009
-1.328950e-009
4.969346e-010
2.304188e-009
3.143718e-009
2.555704e-009
9.066199e-010
-9.035737e-010
-2.107684e-009
-2.504875e-009
-2.329432e-009
-1.815810e-009
-9.805884e-010
1.901103e-010
1.462751e-009
2.388518e-009
2.643798e-009
2.293047e-009
1.677683e-009
1.069005e-009
4.742396e-010
-2.260900e-010
-1.022476e-009
-1.719435e-009
-2.122616e-009
-2.225341e-009
-2.179480e-009
-2.110194e-009
-2.003352e-009
-1.776881e-009
-1.419961e-009
-1.025764e-009
-6.954358e-010
-4.441640e-010
-2.171604e-010
2.098872e-011
2.392131e-010
3.831605e-010
4.432965e-010
4.617621e-010
4.757042e-010
4.722697e-010
4.104861e-010
2.791526e-010
1.151755e-010
-4.249741e-011
-2.045553e-010
-4.183120e-010
-7.002105e-010
-9.994008e-010
-1.246816e-009
-1.434088e-009
-1.616090e-009
-1.819355e-009
-1.967413e-009
-1.931786e-009
-1.664130e-009
-1.246902e-009
-7.859666e-010
-2.737590e-010
3.869739e-010
1.198499e-009
1.944055e-009
2.306296e-009
2.126114e-009
1.515145e-009
6.992800e-010
-2.001272e-010
-1.161200e-009
-2.039794e-009
-2.451333e-009
-1.999787e-009
-6.861159e-010
9.357628e-010
2.071500e-009
2.212552e-009
1.419078e-009
1.740983e-010
-9.654714e-010
-1.598018e-009
-1.519481e-009
-7.446357e-010
4.085865e-010
1.333300e-009
1.432692e-009
5.847600e-010
-6.446901e-010
-1.346518e-009
-9.782637e-010
1.567308e-010
1.123330e-009
-4.188541e-009
-1.323623e-009
2.097414e-009
3.632194e-009
2.532501e-009
4.265843e-011
-1.870899e-009
-2.114065e-009
-1.052984e-009
1.754004e-010
7.673588e-010
7.298979e-010
4.931334e-010
2.890793e-010
3.541426e-012
-4.607093e-010
-8.647101e-010
-7.926531e-010
-1.076044e-010
8.373147e-010
1.479722e-009
1.508786e-009
1.028824e-009
3.265668e-010
-4.240663e-010
-1.194889e-009
-1.924399e-009
-2.423571e-009
-2.505241e-009
-2.162709e-009
-1.564554e-009
-8.766230e-010
-1.333557e-010
7.021406e-010
1.595697e-009
2.411730e-009
3.027288e-009
3.438156e-009
3.728103e-009
3.952154e-009
4.082621e-009
4.072058e-009
3.938498e-009
3.763127e-009
3.611203e-009
3.480295e-009
3.335110e-009
3.175468e-009
3.048480e-009
2.994030e-009
2.998210e-009
3.015241e-009
3.027560e-009
3.064034e-009
3.151107e-009
3.260941e-009
3.328027e-009
3.317191e-009
3.253778e-009
3.170208e-009
3.034675e-009
2.761449e-009
2.302303e-009
1.706552e-009
1.066941e-009
4.165865e-010
-2.824136e-010
-1.029496e-009
-1.693035e-009
-2.070810e-009
-2.052461e-009
-1.696044e-009
-1.133981e-009
-4.443774e-010
3.319584e-010
1.055116e-009
1.447583e-009
1.275514e-009
5.869146e-010
-2.663527e-010
-8.703211e-010
-1.009933e-009
-7.107188e-010
-1.099399e-010
6.095042e-010
1.154053e-009
1.134865e-009
3.464430e-010
-8.827813e-010
-1.718150e-009
-1.405539e-009
8.929414e-012
1.537966e-009
1.965063e-009
8.751695e-010
-9.137489e-010
-1.967316e-009
-1.421165e-009
2.764477e-010
1.721245e-009
-2.278260e-009
-2.170873e-010
1.939326e-009
2.235408e-009
4.201824e-010
-1.880000e-009
-2.605723e-009
-1.048032e-009
1.566400e-009
3.150936e-009
2.500835e-009
1.769622e-010
-2.137141e-009
-3.074997e-009
-2.485807e-009
-1.144060e-009
1.818875e-010
1.277584e-009
2.238892e-009
2.946476e-009
2.974198e-009
2.024049e-009
3.338470e-010
-1.432609e-009
-2.684771e-009
-3.257892e-009
-3.316341e-009
-3.027054e-009
-2.405679e-009
-1.441111e-009
-2.578482e-010
9.118957e-010
1.892209e-009
2.649528e-009
3.219371e-009
3.599885e-009
3.750212e-009
3.668959e-009
3.427504e-009
3.112385e-009
2.759062e-009
2.361532e-009
1.932533e-009
1.525628e-009
1.191696e-009
9.339821e-010
7.233335e-010
5.501762e-010
4.417422e-010
4.239712e-010
4.836119e-010
5.839019e-010
7.120797e-010
8.924235e-010
1.145498e-009
1.449148e-009
1.756299e-009
2.046578e-009
2.338917e-009
2.642964e-009
2.913474e-009
3.073468e-009
3.079299e-009
2.939018e-009
2.657136e-009
2.186699e-009
1.470046e-009
5.293933e-010
-5.099652e-010
-1.497220e-009
-2.327179e-009
-2.904605e-009
-3.066659e-009
-2.624228e-009
-1.545173e-009
-8.748848e-011
1.301683e-009
2.243521e-009
2.574307e-009
2.265697e-009
1.316287e-009
-1.457269e-010
-1.645983e-009
-2.419788e-009
-1.916635e-009
-3.697993e-010
1.200537e-009
1.720745e-009
9.440019e-010
-3.476015e-010
-1.041636e-009
-6.597061e-010
2.918050e-010
8.627618e-010
5.417925e-010
-3.293910e-010
-9.272598e-010
-7.054610e-010
1.428733e-010
8.829105e-010
1.144588e-009
9.295082e-010
3.583799e-010
-6.175026e-010
-1.679359e-009
-2.135857e-009
-1.361929e-009
5.545187e-010
2.564706e-009
3.246104e-009
1.915238e-009
-6.846748e-010
-2.846870e-009
-3.213883e-009
-1.794794e-009
2.092533e-010
1.525384e-009
1.762806e-009
1.379987e-009
9.237751e-010
4.713814e-010
-1.930780e-010
-1.043596e-009
-1.645548e-009
-1.554281e-009
-7.794450e-010
2.249127e-010
9.971421e-010
1.419971e-009
1.648450e-009
1.795412e-009
1.779263e-009
1.464781e-009
8.629624e-010
1.379259e-010
-5.526424e-010
-1.169233e-009
-1.744606e-009
-2.279558e-009
-2.721037e-009
-3.026071e-009
-3.208056e-009
-3.309961e-009
-3.355459e-009
-3.344629e-009
-3.285637e-009
-3.206927e-009
-3.133902e-009
-3.069282e-009
-3.006155e-009
-2.950219e-009
-2.915176e-009
-2.898992e-009
-2.879516e-009
-2.838152e-009
-2.775460e-009
-2.693131e-009
-2.569537e-009
-2.370159e-009
-2.082512e-009
-1.723086e-009
-1.301649e-009
-7.982234e-010
-2.008373e-010
4.375825e-010
1.009664e-009
1.433894e-009
1.698162e-009
1.794683e-009
1.635036e-009
1.099180e-009
2.123358e-010
-7.582625e-010
-1.447527e-009
-1.652601e-009
-1.418189e-009
-8.642409e-010
-1.924214e-011
1.065181e-009
2.041807e-009
2.276106e-009
1.329616e-009
-4.870896e-010
-2.131724e-009
-2.555501e-009
-1.528636e-009
1.968872e-010
1.517366e-009
1.788245e-009
1.126066e-009
9.912826e-011
-7.453277e-010
-1.102647e-009
-8.905059e-010
-2.268311e-010
5.382523e-010
9.231926e-010
6.368967e-010
-1.258580e-010
-7.681397e-010
3.350723e-009
1.018773e-009
-1.666405e-009
-2.742701e-009
-1.807137e-009
-5.490723e-012
1.236944e-009
1.363473e-009
7.512065e-010
-4.143823e-012
-6.123674e-010
-9.711479e-010
-8.622237e-010
-7.150200e-011
1.158801e-009
2.021375e-009
1.723607e-009
2.418732e-010
-1.572904e-009
-2.696412e-009
-2.723629e-009
-1.979060e-009
-9.660445e-010
1.335868e-010
1.387383e-009
2.698518e-009
3.655057e-009
3.846666e-009
3.248325e-009
2.211994e-009
1.105428e-009
3.410541e-011
-1.078852e-009
-2.231905e-009
-3.250319e-009
-3.941135e-009
-4.270795e-009
-4.353879e-009
-4.301965e-009
-4.131263e-009
-3.813478e-009
-3.368763e-009
-2.877780e-009
-2.417745e-009
-2.015460e-009
-1.664510e-009
-1.365880e-009
-1.138709e-009
-1.001818e-009
-9.592913e-010
-1.003262e-009
-1.121447e-009
-1.301687e-009
-1.537221e-009
-1.828405e-009
-2.170157e-009
-2.534617e-009
-2.877316e-009
-3.169294e-009
-3.411692e-009
-3.599160e-009
-3.671914e-009
-3.532946e-009
-3.131393e-009
-2.510066e-009
-1.741126e-009
-8.269927e-010
2.790400e-010
1.518010e-009
2.625881e-009
3.258644e-009
3.242951e-009
2.670499e-009
1.730765e-009
5.202625e-010
-8.858080e-010
-2.178419e-009
-2.779530e-009
-2.239167e-009
-7.311230e-010
9.168332e-010
1.789153e-009
1.540658e-009
5.465305e-010
-5.059267e-010
-1.100308e-009
-1.045588e-009
-3.917467e-010
5.871500e-010
1.342822e-009
1.251584e-009
1.471183e-010
-1.291770e-009
-1.890671e-009
-9.811090e-010
8.425568e-010
2.072605e-009
1.587515e-009
-2.696724e-010
-1.913737e-009
3.090966e-009
1.300622e-010
-2.801787e-009
-2.929509e-009
-2.306575e-010
2.721981e-009
3.258463e-009
9.835811e-010
-2.098226e-009
-3.550853e-009
-2.536556e-009
-1.328866e-010
1.968078e-009
2.840830e-009
2.574816e-009
1.607704e-009
1.974000e-010
-1.436655e-009
-2.777074e-009
-3.152583e-009
-2.305088e-009
-6.930727e-010
8.714401e-010
1.862042e-009
2.274937e-009
2.317151e-009
2.033648e-009
1.327692e-009
2.569961e-010
-8.501826e-010
-1.631926e-009
-1.982900e-009
-2.051532e-009
-1.986348e-009
-1.764399e-009
-1.283749e-009
-5.556370e-010
2.601039e-010
1.000309e-009
1.627216e-009
2.197642e-009
2.743084e-009
3.218544e-009
3.562068e-009
3.769023e-009
3.891057e-009
3.976985e-009
4.032672e-009
4.035851e-009
3.975134e-009
3.867620e-009
3.742146e-009
3.608711e-009
3.444548e-009
3.213502e-009
2.903611e-009
2.540955e-009
2.154796e-009
1.729439e-009
1.210959e-009
5.790294e-010
-9.994714e-011
-7.195400e-010
-1.234927e-009
-1.681327e-009
-2.061704e-009
-2.242378e-009
-2.022384e-009
-1.333669e-009
-3.387692e-010
7.026887e-010
1.629510e-009
2.374277e-009
2.772182e-009
2.497200e-009
1.328964e-009
-4.843264e-010
-2.210037e-009
-3.068407e-009
-2.728670e-009
-1.424253e-009
2.991278e-010
1.837069e-009
2.605276e-009
2.165376e-009
5.809996e-010
-1.309698e-009
-2.247938e-009
-1.523637e-009
2.757148e-010
1.618892e-009
1.357278e-009
-1.855801e-010
-1.482723e-009
-1.254261e-009
2.882083e-010
1.636721e-009
1.450170e-009
-1.375454e-010
-1.638154e-009
1.089238e-009
-7.051238e-010
-2.163693e-009
-1.419502e-009
1.198555e-009
3.367980e-009
2.926661e-009
-4.529137e-011
-3.194498e-009
-3.965589e-009
-1.834641e-009
1.354464e-009
3.145425e-009
2.545034e-009
5.281753e-010
-1.204566e-009
-1.738486e-009
-1.307689e-009
-5.432748e-010
2.662768e-010
1.132377e-009
1.889122e-009
2.080758e-009
1.391016e-009
3.594316e-011
-1.387733e-009
-2.402826e-009
-2.918328e-009
-3.044137e-009
-2.797395e-009
-2.088430e-009
-9.355068e-010
4.351753e-010
1.749062e-009
2.887697e-009
3.888242e-009
4.776699e-009
5.472405e-009
5.872587e-009
5.981279e-009
5.910763e-009
5.767043e-009
5.570287e-009
5.293793e-009
4.949888e-009
4.610340e-009
4.347368e-009
4.176016e-009
4.062818e-009
3.981209e-009
3.946632e-009
3.995250e-009
4.134102e-009
4.320539e-009
4.497086e-009
4.644658e-009
4.788841e-009
4.942773e-009
5.051940e-009
5.018227e-009
4.786826e-009
4.387422e-009
3.865093e-009
3.184774e-009
2.251122e-009
1.047876e-009
-2.705061e-010
-1.463701e-009
-2.368742e-009
-2.930449e-009
-3.070813e-009
-2.619756e-009
-1.482525e-009
1.093937e-010
1.593765e-009
2.397419e-009
2.275243e-009
1.356849e-009
-2.756012e-011
-1.436865e-009
-2.278074e-009
-1.953537e-009
-3.620413e-010
1.680976e-009
2.769109e-009
1.985017e-009
-1.900532e-010
-2.128722e-009
-2.394646e-009
-9.561167e-010
8.701616e-010
1.652630e-009
1.045095e-009
-1.213286e-010
-7.754724e-010
-5.631418e-010
3.037839e-011
3.303979e-010
1.458438e-010
-1.599097e-010
-1.170553e-009
-6.696525e-010
6.583732e-011
7.466925e-010
1.141631e-009
1.020034e-009
2.526979e-010
-8.610511e-010
-1.502046e-009
-9.123384e-010
7.210855e-010
2.092424e-009
1.800965e-009
-2.641277e-010
-2.617661e-009
-3.402257e-009
-1.995328e-009
5.639403e-010
2.636406e-009
3.338084e-009
2.887910e-009
1.906802e-009
6.953197e-010
-7.454557e-010
-2.239850e-009
-3.283011e-009
-3.426028e-009
-2.685016e-009
-1.473318e-009
-1.878920e-010
1.041061e-009
2.222137e-009
3.270935e-009
4.001905e-009
4.310604e-009
4.270395e-009
4.025258e-009
3.641963e-009
3.107707e-009
2.440301e-009
1.740020e-009
1.117431e-009
6.038981e-010
1.601987e-010
-2.403371e-010
-5.665342e-010
-7.710501e-010
-8.544826e-010
-8.680633e-010
-8.549382e-010
-8.044421e-010
-6.735898e-010
-4.471975e-010
-1.618667e-010
1.372861e-010
4.545047e-010
8.397437e-010
1.320514e-009
1.852799e-009
2.359326e-009
2.810519e-009
3.236022e-009
3.637891e-009
3.916088e-009
3.918074e-009
3.562733e-009
2.878928e-009
1.912999e-009
6.588325e-010
-8.446981e-010
-2.347896e-009
-3.404650e-009
-3.625339e-009
-2.919422e-009
-1.485123e-009
3.579101e-010
2.205410e-009
3.459688e-009
3.429587e-009
1.845788e-009
-6.215332e-010
-2.545162e-009
-2.733467e-009
-1.214624e-009
7.625952e-010
1.768584e-009
1.304600e-009
9.367232e-012
-1.055306e-009
-1.237302e-009
-5.747792e-010
4.370307e-010
1.182437e-009
1.181689e-009
3.464895e-010
-8.350666e-010
-1.493135e-009
-1.027954e-009
2.849966e-010
1.407958e-009
-2.689721e-009
4.536224e-011
2.610029e-009
2.491563e-009
-4.404893e-011
-2.507089e-009
-2.760618e-009
-8.440757e-010
1.515083e-009
2.703456e-009
2.332824e-009
9.347357e-010
-8.241729e-010
-2.369063e-009
-3.027501e-009
-2.217388e-009
-9.919201e-011
2.164517e-009
3.154686e-009
2.353282e-009
5.174630e-010
-1.102528e-009
-1.819208e-009
-1.772727e-009
-1.357379e-009
-6.669659e-010
4.189522e-010
1.795775e-009
3.014053e-009
3.636627e-009
3.599226e-009
3.152967e-009
2.527966e-009
1.753941e-009
7.917748e-010
-2.764974e-010
-1.261983e-009
-2.034289e-009
-2.603102e-009
-3.032995e-009
-3.333985e-009
-3.469520e-009
-3.442522e-009
-3.325253e-009
-3.195696e-009
-3.073144e-009
-2.935376e-009
-2.783504e-009
-2.662400e-009
-2.612251e-009
-2.620164e-009
-2.637852e-009
-2.642030e-009
-2.657088e-009
-2.709067e-009
-2.772064e-009
-2.781321e-009
-2.698747e-009
-2.541081e-009
-2.326743e-009
-2.012819e-009
-1.518697e-009
-8.175407e-010
2.657310e-011
9.299182e-010
1.860223e-009
2.780491e-009
3.524006e-009
3.799298e-009
3.386730e-009
2.324477e-009
8.676768e-010
-6.976703e-010
-2.103515e-009
-2.958275e-009
-2.741351e-009
-1.197638e-009
1.160766e-009
3.091885e-009
3.411196e-009
1.907040e-009
-4.772455e-010
-2.356356e-009
-2.824460e-009
-1.848738e-009
-7.099749e-011
1.570572e-009
2.187851e-009
1.375055e-009
-3.624969e-010
-1.714150e-009
-1.515614e-009
1.102008e-010
1.651649e-009
1.548488e-009
-2.062677e-010
-1.913905e-009
-1.808929e-009
1.094019e-010
1.995714e-009
-3.106280e-009
6.010443e-010
3.815431e-009
3.023902e-009
-1.039442e-009
-4.346181e-009
-3.745891e-009
5.123638e-011
3.495431e-009
3.778609e-009
1.208499e-009
-1.655858e-009
-2.662031e-009
-1.661287e-009
8.938735e-011
1.424606e-009
1.938605e-009
1.614803e-009
4.531173e-010
-1.297527e-009
-2.847590e-009
-3.237066e-009
-2.131188e-009
-1.250648e-010
1.818491e-009
3.149925e-009
3.905061e-009
4.256864e-009
4.138269e-009
3.382400e-009
2.084280e-009
6.475106e-010
-5.416604e-010
-1.388932e-009
-2.012482e-009
-2.481340e-009
-2.722429e-009
-2.663575e-009
-2.373297e-009
-2.012772e-009
-1.689379e-009
-1.406620e-009
-1.144014e-009
-9.311945e-010
-8.198768e-010
-8.131263e-010
-8.589123e-010
-9.111466e-010
-9.688924e-010
-1.045834e-009
-1.124516e-009
-1.166362e-009
-1.163000e-009
-1.152840e-009
-1.176594e-009
-1.234641e-009
-1.308190e-009
-1.411571e-009
-1.590156e-009
-1.853056e-009
-2.132641e-009
-2.337161e-009
-2.426767e-009
-2.393706e-009
-2.162716e-009
-1.571766e-009
-5.159411e-010
8.934291e-010
2.361240e-009
3.600222e-009
4.423904e-009
4.626354e-009
3.895235e-009
2.051989e-009
-5.246863e-010
-2.823637e-009
-3.752890e-009
-2.907358e-009
-8.501008e-010
1.303524e-009
2.541126e-009
2.346514e-009
8.200993e-010
-1.266667e-009
-2.625165e-009
-2.155617e-009
3.976536e-011
2.358014e-009
2.834264e-009
9.598900e-010
-1.640910e-009
-2.621003e-009
-1.177299e-009
1.145371e-009
2.032031e-009
7.571293e-010
-1.149882e-009
-1.613702e-009
-2.352342e-010
1.357223e-009
-2.233874e-009
4.825409e-010
2.748262e-009
1.990220e-009
-1.039848e-009
-3.121450e-009
-2.010022e-009
1.184856e-009
3.158737e-009
1.843838e-009
-1.491079e-009
-3.583134e-009
-2.432377e-009
9.059555e-010
3.596228e-009
3.728198e-009
1.668443e-009
-8.694816e-010
-2.539465e-009
-3.040852e-009
-2.589595e-009
-1.339687e-009
5.062928e-010
2.364087e-009
3.455578e-009
3.415805e-009
2.565313e-009
1.514917e-009
6.095156e-010
-1.607857e-010
-8.224728e-010
-1.199914e-009
-1.094849e-009
-5.669414e-010
7.948959e-011
5.681868e-010
8.268870e-010
8.895929e-010
7.171236e-010
1.868824e-010
-7.648195e-010
-2.057840e-009
-3.539199e-009
-5.094355e-009
-6.659931e-009
-8.157321e-009
-9.464312e-009
-1.046391e-008
-1.109484e-008
-1.133935e-008
-1.118336e-008
-1.061733e-008
-9.672825e-009
-8.430688e-009
-6.982482e-009
-5.403845e-009
-3.782435e-009
-2.251778e-009
-9.587728e-010
1.111958e-011
6.482296e-010
9.446480e-010
8.448634e-010
3.248223e-010
-4.796892e-010
-1.280050e-009
-1.804820e-009
-1.929699e-009
-1.605653e-009
-7.270897e-010
7.787554e-010
2.650670e-009
4.167465e-009
4.495034e-009
3.274357e-009
9.050690e-010
-1.695249e-009
-3.541382e-009
-3.886992e-009
-2.448167e-009
2.756045e-010
2.870019e-009
3.643558e-009
1.948189e-009
-9.752563e-010
-2.779105e-009
-2.033859e-009
4.061352e-010
2.189711e-009
1.733361e-009
-3.144272e-010
-1.871147e-009
-1.560318e-009
5.602181e-011
1.292100e-009
1.137990e-009
1.057308e-010
-5.887256e-010
-4.107453e-010
7.642354e-011
-5.564894e-011
-4.821304e-011
-1.105095e-010
-2.590896e-010
-2.950092e-010
1.061620e-010
9.431474e-010
1.529018e-009
9.122348e-010
-1.012641e-009
-2.895104e-009
-2.870061e-009
-4.386296e-010
2.686431e-009
3.937438e-009
2.262574e-009
-9.012326e-010
-3.029793e-009
-2.762686e-009
-7.550051e-010
1.392488e-009
2.643200e-009
2.941102e-009
2.581463e-009
1.673181e-009
3.004722e-010
-1.121894e-009
-1.978839e-009
-1.956238e-009
-1.265278e-009
-3.453873e-010
5.224399e-010
1.234167e-009
1.612482e-009
1.312458e-009
2.088694e-011
-2.332424e-009
-5.614276e-009
-9.682450e-009
-1.446454e-008
-1.985501e-008
-2.561392e-008
-3.141483e-008
-3.696944e-008
-4.207354e-008
-4.655193e-008
-5.021127e-008
-5.286849e-008
-5.440299e-008
-5.476208e-008
-5.393296e-008
-5.193799e-008
-4.885594e-008
-4.482239e-008
-4.000085e-008
-3.457360e-008
-2.877198e-008
-2.288719e-008
-1.721046e-008
-1.195766e-008
-7.279818e-009
-3.349034e-009
-3.827018e-010
1.467288e-009
2.236348e-009
2.111323e-009
1.281533e-009
-9.269801e-011
-1.710303e-009
-3.000863e-009
-3.316268e-009
-2.349286e-009
-3.740107e-010
1.907486e-009
3.687482e-009
4.252858e-009
3.148273e-009
5.442641e-010
-2.411292e-009
-3.933656e-009
-2.841234e-009
2.447917e-010
3.086906e-009
3.573349e-009
1.510560e-009
-1.272815e-009
-2.611523e-009
-1.815758e-009
3.693976e-011
1.329536e-009
1.274869e-009
2.674025e-010
-7.324012e-010
-9.904008e-010
-4.039470e-010
5.320911e-010
1.073394e-009
7.531113e-010
-2.147593e-010
-1.048718e-009
2.736714e-009
-4.151645e-010
-3.144911e-009
-2.587220e-009
5.445726e-010
3.091495e-009
2.853482e-009
4.495293e-010
-1.858401e-009
-2.469498e-009
-1.410681e-009
3.333989e-010
1.730719e-009
2.009436e-009
8.188192e-010
-1.334195e-009
-2.982211e-009
-2.633677e-009
-1.559841e-010
2.892739e-009
4.531445e-009
3.991015e-009
2.088773e-009
1.798295e-010
-9.951110e-010
-1.452995e-009
-1.370149e-009
-7.366198e-010
3.776106e-010
1.496184e-009
1.885890e-009
9.900929e-010
-1.398886e-009
-5.354222e-009
-1.103443e-008
-1.860798e-008
-2.803610e-008
-3.903135e-008
-5.122457e-008
-6.429805e-008
-7.793821e-008
-9.172850e-008
-1.051586e-007
-1.177385e-007
-1.290718e-007
-1.388256e-007
-1.466775e-007
-1.523252e-007
-1.555367e-007
-1.561777e-007
-1.542047e-007
-1.496620e-007
-1.426896e-007
-1.335173e-007
-1.224463e-007
-1.098533e-007
-9.621225e-008
-8.207245e-008
-6.796877e-008
-5.434277e-008
-4.156085e-008
-2.998559e-008
-1.996674e-008
-1.172819e-008
-5.304943e-009
-6.495191e-010
2.216657e-009
3.244335e-009
2.598336e-009
8.201865e-010
-1.296890e-009
-2.971843e-009
-3.569266e-009
-2.647155e-009
-2.045555e-010
2.922340e-009
5.108548e-009
4.868153e-009
2.117861e-009
-1.459204e-009
-3.547526e-009
-2.959950e-009
-4.705157e-010
1.941460e-009
2.635935e-009
1.351659e-009
-8.347544e-010
-2.325890e-009
-2.035378e-009
-1.541835e-010
1.848112e-009
2.271417e-009
6.983292e-010
-1.433805e-009
-2.070734e-009
-6.051627e-010
1.401291e-009
1.809805e-009
2.170579e-010
-1.582840e-009
4.627433e-009
-4.178495e-010
-4.664668e-009
-3.614428e-009
1.162237e-009
4.273226e-009
2.624365e-009
-1.570942e-009
-3.725199e-009
-1.873888e-009
1.757143e-009
3.610112e-009
2.335635e-009
-5.745739e-010
-2.818733e-009
-3.218483e-009
-1.927125e-009
3.136127e-010
2.576075e-009
3.807442e-009
3.271568e-009
1.266689e-009
-8.421402e-010
-1.636025e-009