# vtk DataFile Version 3.0
vtk output
ASCII
DATASET STRUCTURED_POINTS
DIMENSIONS 100 100 1
SPACING 1 1 1
ORIGIN 0 0 0
POINT_DATA 10000
SCALARS SFBox_profile double
LOOKUP_TABLE default 
9.439923e-003
9.439921e-003
9.439919e-003
9.439918e-003
9.439918e-003
9.439920e-003
9.439921e-003
9.439921e-003
9.439921e-003
9.439920e-003
9.439919e-003
9.439919e-003
9.439919e-003
9.439919e-003
9.439919e-003
9.439920e-003
9.439920e-003
9.439921e-003
9.439921e-003
9.439921e-003
9.439920e-003
9.439920e-003
9.439920e-003
9.439919e-003
9.439919e-003
9.439919e-003
9.439919e-003
9.439919e-003
9.439920e-003
9.439920e-003
9.439921e-003
9.439921e-003
9.439921e-003
9.439922e-003
9.439922e-003
9.439923e-003
9.439923e-003
9.439923e-003
9.439923e-003
9.439924e-003
9.439924e-003
9.439924e-003
9.439924e-003
9.439924e-003
9.439925e-003
9.439925e-003
9.439925e-003
9.439925e-003
9.439925e-003
9.439925e-003
9.439925e-003
9.439925e-003
9.439925e-003
9.439925e-003
9.439925e-003
9.439925e-003
9.439925e-003
9.439924e-003
9.439924e-003
9.439924e-003
9.439924e-003
9.439924e-003
9.439923e-003
9.439923e-003
9.439923e-003
9.439923e-003
9.439922e-003
9.439922e-003
9.439922e-003
9.439921e-003
9.439921e-003
9.439921e-003
9.439920e-003
9.439920e-003
9.439920e-003
9.439919e-003
9.439919e-003
9.439919e-003
9.439919e-003
9.439920e-003
9.439920e-003
9.439921e-003
9.439921e-003
9.439920e-003
9.439920e-003
9.439920e-003
9.439920e-003
9.439920e-003
9.439919e-003
9.439919e-003
9.439920e-003
9.439920e-003
9.439921e-003
9.439921e-003
9.439920e-003
9.439919e-003
9.439919e-003
9.439919e-003
9.439920e-003
9.439921e-003
9.439923e-003
9.439921e-003
9.439919e-003
9.439918e-003
9.439918e-003
9.439920e-003
9.439921e-003
9.439921e-003
9.439921e-003
9.439920e-003
9.439919e-003
9.439919e-003
9.439919e-003
9.439919e-003
9.439919e-003
9.439920e-003
9.439920e-003
9.439921e-003
9.439921e-003
9.439921e-003
9.439920e-003
9.439920e-003
9.439920e-003
9.439919e-003
9.439919e-003
9.439919e-003
9.439919e-003
9.439919e-003
9.439920e-003
9.439920e-003
9.439921e-003
9.439921e-003
9.439921e-003
9.439922e-003
9.439922e-003
9.439923e-003
9.439923e-003
9.439923e-003
9.439923e-003
9.439924e-003
9.439924e-003
9.439924e-003
9.439924e-003
9.439924e-003
9.439925e-003
9.439925e-003
9.439925e-003
9.439925e-003
9.439925e-003
9.439925e-003
9.439925e-003
9.439925e-003
9.439925e-003
9.439925e-003
9.439925e-003
9.439925e-003
9.439925e-003
9.439924e-003
9.439924e-003
9.439924e-003
9.439924e-003
9.439924e-003
9.439923e-003
9.439923e-003
9.439923e-003
9.439923e-003
9.439922e-003
9.439922e-003
9.439922e-003
9.439921e-003
9.439921e-003
9.439921e-003
9.439920e-003
9.439920e-003
9.439920e-003
9.439919e-003
9.439919e-003
9.439919e-003
9.439919e-003
9.439920e-003
9.439920e-003
9.439921e-003
9.439921e-003
9.439920e-003
9.439920e-003
9.439920e-003
9.439920e-003
9.439920e-003
9.439919e-003
9.439919e-003
9.439920e-003
9.439920e-003
9.439921e-003
9.439921e-003
9.439920e-003
9.439919e-003
9.439919e-003
9.439919e-003
9.439920e-003
9.439921e-003
9.439920e-003
9.439920e-003
9.439920e-003
9.439920e-003
9.439920e-003
9.439920e-003
9.439920e-003
9.439920e-003
9.439920e-003
9.439920e-003
9.439920e-003
9.439920e-003
9.439920e-003
9.439920e-003
9.439920e-003
9.439920e-003
9.439920e-003
9.439920e-003
9.439920e-003
9.439920e-003
9.439920e-003
9.439920e-003
9.439920e-003
9.439920e-003
9.439921e-003
9.439921e-003
9.439921e-003
9.439921e-003
9.439921e-003
9.439921e-003
9.439921e-003
9.439921e-003
9.439921e-003
9.439922e-003
9.439922e-003
9.439922e-003
9.439922e-003
9.439922e-003
9.439923e-003
9.439923e-003
9.439923e-003
9.439924e-003
9.439924e-003
9.439924e-003
9.439925e-003
9.439925e-003
9.439925e-003
9.439925e-003
9.439925e-003
9.439925e-003
9.439926e-003
9.439926e-003
9.439926e-003
9.439926e-003
9.439925e-003
9.439925e-003
9.439925e-003
9.439925e-003
9.439925e-003
9.439924e-003
9.439924e-003
9.439924e-003
9.439923e-003
9.439923e-003
9.439922e-003
9.439922e-003
9.439922e-003
9.439921e-003
9.439921e-003
9.439921e-003
9.439921e-003
9.439921e-003
9.439921e-003
9.439921e-003
9.439921e-003
9.439921e-003
9.439921e-003
9.439920e-003
9.439920e-003
9.439920e-003
9.439920e-003
9.439920e-003
9.439920e-003
9.439920e-003
9.439920e-003
9.439920e-003
9.439920e-003
9.439920e-003
9.439920e-003
9.439920e-003
9.439920e-003
9.439920e-003
9.439920e-003
9.439920e-003
9.439920e-003
9.439920e-003
9.439920e-003
9.439920e-003
9.439920e-003
9.439920e-003
9.439918e-003
9.439919e-003
9.439921e-003
9.439922e-003
9.439921e-003
9.439920e-003
9.439919e-003
9.439919e-003
9.439919e-003
9.439920e-003
9.439920e-003
9.439921e-003
9.439921e-003
9.439921e-003
9.439921e-003
9.439920e-003
9.439919e-003
9.439919e-003
9.439919e-003
9.439919e-003
9.439919e-003
9.439920e-003
9.439921e-003
9.439921e-003
9.439922e-003
9.439922e-003
9.439922e-003
9.439922e-003
9.439922e-003
9.439922e-003
9.439922e-003
9.439922e-003
9.439923e-003
9.439923e-003
9.439923e-003
9.439923e-003
9.439924e-003
9.439924e-003
9.439925e-003
9.439925e-003
9.439926e-003
9.439926e-003
9.439927e-003
9.439927e-003
9.439928e-003
9.439928e-003
9.439929e-003
9.439929e-003
9.439929e-003
9.439929e-003
9.439930e-003
9.439930e-003
9.439930e-003
9.439930e-003
9.439929e-003
9.439929e-003
9.439929e-003
9.439928e-003
9.439928e-003
9.439927e-003
9.439927e-003
9.439926e-003
9.439926e-003
9.439925e-003
9.439924e-003
9.439924e-003
9.439923e-003
9.439923e-003
9.439922e-003
9.439922e-003
9.439922e-003
9.439922e-003
9.439922e-003
9.439922e-003
9.439922e-003
9.439922e-003
9.439921e-003
9.439921e-003
9.439921e-003
9.439920e-003
9.439920e-003
9.439919e-003
9.439919e-003
9.439919e-003
9.439920e-003
9.439920e-003
9.439920e-003
9.439921e-003
9.439921e-003
9.439921e-003
9.439920e-003
9.439920e-003
9.439919e-003
9.439919e-003
9.439920e-003
9.439920e-003
9.439921e-003
9.439920e-003
9.439920e-003
9.439919e-003
9.439917e-003
9.439919e-003
9.439921e-003
9.439922e-003
9.439922e-003
9.439920e-003
9.439919e-003
9.439919e-003
9.439919e-003
9.439920e-003
9.439921e-003
9.439921e-003
9.439920e-003
9.439920e-003
9.439920e-003
9.439920e-003
9.439920e-003
9.439919e-003
9.439919e-003
9.439920e-003
9.439920e-003
9.439921e-003
9.439921e-003
9.439921e-003
9.439921e-003
9.439922e-003
9.439922e-003
9.439922e-003
9.439923e-003
9.439923e-003
9.439924e-003
9.439925e-003
9.439926e-003
9.439927e-003
9.439928e-003
9.439929e-003
9.439930e-003
9.439931e-003
9.439932e-003
9.439933e-003
9.439933e-003
9.439934e-003
9.439935e-003
9.439936e-003
9.439936e-003
9.439937e-003
9.439937e-003
9.439938e-003
9.439938e-003
9.439938e-003
9.439938e-003
9.439938e-003
9.439938e-003
9.439938e-003
9.439938e-003
9.439937e-003
9.439937e-003
9.439936e-003
9.439936e-003
9.439935e-003
9.439934e-003
9.439933e-003
9.439932e-003
9.439931e-003
9.439930e-003
9.439929e-003
9.439928e-003
9.439927e-003
9.439926e-003
9.439925e-003
9.439924e-003
9.439923e-003
9.439923e-003
9.439922e-003
9.439922e-003
9.439921e-003
9.439921e-003
9.439921e-003
9.439921e-003
9.439921e-003
9.439920e-003
9.439920e-003
9.439920e-003
9.439920e-003
9.439920e-003
9.439920e-003
9.439920e-003
9.439920e-003
9.439921e-003
9.439921e-003
9.439920e-003
9.439920e-003
9.439919e-003
9.439919e-003
9.439920e-003
9.439921e-003
9.439921e-003
9.439921e-003
9.439920e-003
9.439919e-003
9.439919e-003
9.439920e-003
9.439921e-003
9.439921e-003
9.439920e-003
9.439920e-003
9.439919e-003
9.439920e-003
9.439920e-003
9.439921e-003
9.439921e-003
9.439920e-003
9.439919e-003
9.439919e-003
9.439919e-003
9.439920e-003
9.439921e-003
9.439921e-003
9.439921e-003
9.439921e-003
9.439921e-003
9.439921e-003
9.439921e-003
9.439921e-003
9.439921e-003
9.439922e-003
9.439923e-003
9.439924e-003
9.439925e-003
9.439926e-003
9.439928e-003
9.439930e-003
9.439931e-003
9.439933e-003
9.439935e-003
9.439936e-003
9.439938e-003
9.439939e-003
9.439941e-003
9.439942e-003
9.439943e-003
9.439944e-003
9.439944e-003
9.439945e-003
9.439945e-003
9.439946e-003
9.439946e-003
9.439946e-003
9.439947e-003
9.439947e-003
9.439947e-003
9.439946e-003
9.439946e-003
9.439946e-003
9.439946e-003
9.439945e-003
9.439945e-003
9.439944e-003
9.439944e-003
9.439943e-003
9.439942e-003
9.439941e-003
9.439940e-003
9.439939e-003
9.439938e-003
9.439936e-003
9.439935e-003
9.439933e-003
9.439932e-003
9.439930e-003
9.439928e-003
9.439927e-003
9.439925e-003
9.439924e-003
9.439922e-003
9.439921e-003
9.439921e-003
9.439921e-003
9.439921e-003
9.439921e-003
9.439921e-003
9.439921e-003
9.439921e-003
9.439921e-003
9.439920e-003
9.439920e-003
9.439919e-003
9.439919e-003
9.439920e-003
9.439920e-003
9.439920e-003
9.439920e-003
9.439920e-003
9.439920e-003
9.439920e-003
9.439920e-003
9.439920e-003
9.439920e-003
9.439920e-003
9.439920e-003
9.439922e-003
9.439921e-003
9.439920e-003
9.439919e-003
9.439919e-003
9.439919e-003
9.439920e-003
9.439921e-003
9.439921e-003
9.439921e-003
9.439920e-003
9.439919e-003
9.439919e-003
9.439919e-003
9.439919e-003
9.439920e-003
9.439921e-003
9.439921e-003
9.439921e-003
9.439922e-003
9.439922e-003
9.439922e-003
9.439922e-003
9.439922e-003
9.439923e-003
9.439925e-003
9.439926e-003
9.439928e-003
9.439930e-003
9.439932e-003
9.439934e-003
9.439937e-003
9.439939e-003
9.439940e-003
9.439942e-003
9.439943e-003
9.439945e-003
9.439946e-003
9.439947e-003
9.439947e-003
9.439947e-003
9.439948e-003
9.439948e-003
9.439947e-003
9.439947e-003
9.439947e-003
9.439946e-003
9.439946e-003
9.439946e-003
9.439945e-003
9.439945e-003
9.439944e-003
9.439944e-003
9.439944e-003
9.439944e-003
9.439944e-003
9.439944e-003
9.439944e-003
9.439944e-003
9.439944e-003
9.439944e-003
9.439944e-003
9.439944e-003
9.439943e-003
9.439943e-003
9.439942e-003
9.439941e-003
9.439939e-003
9.439938e-003
9.439936e-003
9.439934e-003
9.439932e-003
9.439930e-003
9.439928e-003
9.439926e-003
9.439924e-003
9.439923e-003
9.439922e-003
9.439922e-003
9.439921e-003
9.439921e-003
9.439921e-003
9.439921e-003
9.439921e-003
9.439921e-003
9.439920e-003
9.439920e-003
9.439919e-003
9.439919e-003
9.439920e-003
9.439920e-003
9.439920e-003
9.439921e-003
9.439920e-003
9.439920e-003
9.439920e-003
9.439919e-003
9.439920e-003
9.439920e-003
9.439921e-003
9.439923e-003
9.439921e-003
9.439919e-003
9.439918e-003
9.439919e-003
9.439920e-003
9.439921e-003
9.439921e-003
9.439920e-003
9.439920e-003
9.439920e-003
9.439920e-003
9.439920e-003
9.439920e-003
9.439920e-003
9.439921e-003
9.439921e-003
9.439921e-003
9.439921e-003
9.439921e-003
9.439922e-003
9.439923e-003
9.439925e-003
9.439926e-003
9.439929e-003
9.439931e-003
9.439933e-003
9.439936e-003
9.439938e-003
9.439940e-003
9.439942e-003
9.439944e-003
9.439945e-003
9.439946e-003
9.439946e-003
9.439945e-003
9.439944e-003
9.439943e-003
9.439940e-003
9.439938e-003
9.439935e-003
9.439932e-003
9.439929e-003
9.439925e-003
9.439922e-003
9.439919e-003
9.439916e-003
9.439913e-003
9.439910e-003
9.439908e-003
9.439907e-003
9.439906e-003
9.439905e-003
9.439905e-003
9.439906e-003
9.439908e-003
9.439910e-003
9.439912e-003
9.439916e-003
9.439919e-003
9.439923e-003
9.439927e-003
9.439931e-003
9.439934e-003
9.439937e-003
9.439939e-003
9.439941e-003
9.439942e-003
9.439941e-003
9.439941e-003
9.439939e-003
9.439938e-003
9.439936e-003
9.439934e-003
9.439931e-003
9.439929e-003
9.439927e-003
9.439925e-003
9.439924e-003
9.439922e-003
9.439921e-003
9.439921e-003
9.439921e-003
9.439921e-003
9.439920e-003
9.439920e-003
9.439920e-003
9.439920e-003
9.439920e-003
9.439920e-003
9.439920e-003
9.439920e-003
9.439921e-003
9.439921e-003
9.439920e-003
9.439919e-003
9.439919e-003
9.439919e-003
9.439920e-003
9.439921e-003
9.439922e-003
9.439920e-003
9.439919e-003
9.439919e-003
9.439920e-003
9.439921e-003
9.439921e-003
9.439920e-003
9.439919e-003
9.439919e-003
9.439919e-003
9.439920e-003
9.439921e-003
9.439921e-003
9.439921e-003
9.439921e-003
9.439921e-003
9.439921e-003
9.439921e-003
9.439922e-003
9.439924e-003
9.439926e-003
9.439929e-003
9.439932e-003
9.439935e-003
9.439938e-003
9.439941e-003
9.439943e-003
9.439945e-003
9.439946e-003
9.439946e-003
9.439945e-003
9.439943e-003
9.439938e-003
9.439932e-003
9.439925e-003
9.439915e-003
9.439905e-003
9.439893e-003
9.439880e-003
9.439867e-003
9.439853e-003
9.439839e-003
9.439825e-003
9.439812e-003
9.439800e-003
9.439789e-003
9.439779e-003
9.439770e-003
9.439764e-003
9.439758e-003
9.439755e-003
9.439755e-003
9.439756e-003
9.439760e-003
9.439767e-003
9.439775e-003
9.439786e-003
9.439799e-003
9.439814e-003
9.439830e-003
9.439847e-003
9.439863e-003
9.439879e-003
9.439894e-003
9.439907e-003
9.439919e-003
9.439928e-003
9.439934e-003
9.439939e-003
9.439941e-003
9.439942e-003
9.439941e-003
9.439940e-003
9.439937e-003
9.439935e-003
9.439932e-003
9.439930e-003
9.439927e-003
9.439925e-003
9.439923e-003
9.439922e-003
9.439921e-003
9.439920e-003
9.439920e-003
9.439920e-003
9.439921e-003
9.439921e-003
9.439921e-003
9.439920e-003
9.439919e-003
9.439920e-003
9.439920e-003
9.439920e-003
9.439920e-003
9.439920e-003
9.439919e-003
9.439920e-003
9.439920e-003
9.439921e-003
9.439919e-003
9.439919e-003
9.439920e-003
9.439920e-003
9.439921e-003
9.439921e-003
9.439921e-003
9.439919e-003
9.439919e-003
9.439919e-003
9.439920e-003
9.439921e-003
9.439922e-003
9.439922e-003
9.439921e-003
9.439921e-003
9.439921e-003
9.439922e-003
9.439924e-003
9.439926e-003
9.439929e-003
9.439932e-003
9.439935e-003
9.439938e-003
9.439942e-003
9.439944e-003
9.439946e-003
9.439947e-003
9.439945e-003
9.439941e-003
9.439933e-003
9.439921e-003
9.439905e-003
9.439885e-003
9.439859e-003
9.439830e-003
9.439796e-003
9.439758e-003
9.439718e-003
9.439676e-003
9.439633e-003
9.439590e-003
9.439547e-003
9.439506e-003
9.439467e-003
9.439431e-003
9.439399e-003
9.439370e-003
9.439346e-003
9.439327e-003
9.439313e-003
9.439305e-003
9.439304e-003
9.439309e-003
9.439322e-003
9.439341e-003
9.439368e-003
9.439401e-003
9.439441e-003
9.439485e-003
9.439534e-003
9.439585e-003
9.439637e-003
9.439689e-003
9.439738e-003
9.439783e-003
9.439823e-003
9.439858e-003
9.439885e-003
9.439907e-003
9.439923e-003
9.439933e-003
9.439939e-003
9.439941e-003
9.439941e-003
9.439940e-003
9.439938e-003
9.439935e-003
9.439932e-003
9.439929e-003
9.439927e-003
9.439924e-003
9.439923e-003
9.439921e-003
9.439921e-003
9.439921e-003
9.439921e-003
9.439921e-003
9.439921e-003
9.439920e-003
9.439920e-003
9.439919e-003
9.439920e-003
9.439920e-003
9.439920e-003
9.439920e-003
9.439920e-003
9.439920e-003
9.439920e-003
9.439920e-003
9.439918e-003
9.439919e-003
9.439921e-003
9.439921e-003
9.439921e-003
9.439920e-003
9.439920e-003
9.439919e-003
9.439920e-003
9.439920e-003
9.439920e-003
9.439921e-003
9.439921e-003
9.439921e-003
9.439921e-003
9.439922e-003
9.439924e-003
9.439926e-003
9.439929e-003
9.439932e-003
9.439935e-003
9.439939e-003
9.439942e-003
9.439945e-003
9.439947e-003
9.439946e-003
9.439942e-003
9.439934e-003
9.439919e-003
9.439895e-003
9.439862e-003
9.439818e-003
9.439762e-003
9.439695e-003
9.439616e-003
9.439526e-003
9.439427e-003
9.439320e-003
9.439207e-003
9.439092e-003
9.438975e-003
9.438859e-003
9.438746e-003
9.438638e-003
9.438536e-003
9.438443e-003
9.438359e-003
9.438286e-003
9.438225e-003
9.438177e-003
9.438143e-003
9.438125e-003
9.438123e-003
9.438138e-003
9.438172e-003
9.438223e-003
9.438293e-003
9.438380e-003
9.438484e-003
9.438601e-003
9.438730e-003
9.438867e-003
9.439007e-003
9.439147e-003
9.439283e-003
9.439411e-003
9.439527e-003
9.439629e-003
9.439715e-003
9.439786e-003
9.439841e-003
9.439881e-003
9.439909e-003
9.439927e-003
9.439936e-003
9.439941e-003
9.439941e-003
9.439940e-003
9.439937e-003
9.439934e-003
9.439931e-003
9.439929e-003
9.439926e-003
9.439924e-003
9.439922e-003
9.439921e-003
9.439921e-003
9.439921e-003
9.439920e-003
9.439920e-003
9.439920e-003
9.439920e-003
9.439920e-003
9.439919e-003
9.439920e-003
9.439920e-003
9.439921e-003
9.439921e-003
9.439920e-003
9.439919e-003
9.439918e-003
9.439920e-003
9.439921e-003
9.439921e-003
9.439920e-003
9.439919e-003
9.439919e-003
9.439920e-003
9.439921e-003
9.439921e-003
9.439921e-003
9.439920e-003
9.439920e-003
9.439921e-003
9.439922e-003
9.439924e-003
9.439927e-003
9.439931e-003
9.439935e-003
9.439939e-003
9.439942e-003
9.439946e-003
9.439948e-003
9.439948e-003
9.439943e-003
9.439930e-003
9.439906e-003
9.439868e-003
9.439812e-003
9.439734e-003
9.439631e-003
9.439501e-003
9.439344e-003
9.439158e-003
9.438946e-003
9.438710e-003
9.438454e-003
9.438182e-003
9.437900e-003
9.437612e-003
9.437324e-003
9.437041e-003
9.436768e-003
9.436508e-003
9.436266e-003
9.436044e-003
9.435846e-003
9.435675e-003
9.435532e-003
9.435421e-003
9.435343e-003
9.435302e-003
9.435300e-003
9.435338e-003
9.435419e-003
9.435543e-003
9.435710e-003
9.435919e-003
9.436167e-003
9.436450e-003
9.436761e-003
9.437093e-003
9.437437e-003
9.437783e-003
9.438123e-003
9.438445e-003
9.438743e-003
9.439009e-003
9.439240e-003
9.439433e-003
9.439589e-003
9.439709e-003
9.439798e-003
9.439860e-003
9.439900e-003
9.439924e-003
9.439937e-003
9.439941e-003
9.439941e-003
9.439939e-003
9.439936e-003
9.439933e-003
9.439930e-003
9.439927e-003
9.439925e-003
9.439923e-003
9.439921e-003
9.439920e-003
9.439920e-003
9.439920e-003
9.439921e-003
9.439921e-003
9.439920e-003
9.439919e-003
9.439919e-003
9.439920e-003
9.439921e-003
9.439921e-003
9.439920e-003
9.439919e-003
9.439919e-003
9.439920e-003
9.439921e-003
9.439921e-003
9.439919e-003
9.439918e-003
9.439919e-003
9.439920e-003
9.439922e-003
9.439922e-003
9.439921e-003
9.439920e-003
9.439921e-003
9.439923e-003
9.439925e-003
9.439928e-003
9.439932e-003
9.439936e-003
9.439941e-003
9.439945e-003
9.439949e-003
9.439949e-003
9.439945e-003
9.439930e-003
9.439901e-003
9.439851e-003
9.439771e-003
9.439654e-003
9.439493e-003
9.439279e-003
9.439007e-003
9.438673e-003
9.438276e-003
9.437817e-003
9.437300e-003
9.436734e-003
9.436126e-003
9.435488e-003
9.434832e-003
9.434170e-003
9.433512e-003
9.432871e-003
9.432255e-003
9.431674e-003
9.431135e-003
9.430644e-003
9.430208e-003
9.429831e-003
9.429519e-003
9.429278e-003
9.429111e-003
9.429024e-003
9.429022e-003
9.429110e-003
9.429290e-003
9.429566e-003
9.429937e-003
9.430402e-003
9.430956e-003
9.431588e-003
9.432288e-003
9.433039e-003
9.433823e-003
9.434618e-003
9.435403e-003
9.436158e-003
9.436862e-003
9.437500e-003
9.438061e-003
9.438538e-003
9.438931e-003
9.439242e-003
9.439480e-003
9.439653e-003
9.439774e-003
9.439853e-003
9.439901e-003
9.439927e-003
9.439939e-003
9.439942e-003
9.439941e-003
9.439938e-003
9.439934e-003
9.439931e-003
9.439928e-003
9.439925e-003
9.439923e-003
9.439921e-003
9.439920e-003
9.439920e-003
9.439921e-003
9.439921e-003
9.439920e-003
9.439920e-003
9.439919e-003
9.439920e-003
9.439920e-003
9.439920e-003
9.439920e-003
9.439920e-003
9.439920e-003
9.439921e-003
9.439920e-003
9.439920e-003
9.439919e-003
9.439919e-003
9.439920e-003
9.439921e-003
9.439921e-003
9.439921e-003
9.439921e-003
9.439921e-003
9.439923e-003
9.439927e-003
9.439930e-003
9.439934e-003
9.439938e-003
9.439943e-003
9.439947e-003
9.439950e-003
9.439948e-003
9.439936e-003
9.439907e-003
9.439851e-003
9.439756e-003
9.439608e-003
9.439390e-003
9.439085e-003
9.438677e-003
9.438151e-003
9.437496e-003
9.436706e-003
9.435781e-003
9.434727e-003
9.433556e-003
9.432286e-003
9.430940e-003
9.429541e-003
9.428116e-003
9.426690e-003
9.425286e-003
9.423927e-003
9.422632e-003
9.421418e-003
9.420298e-003
9.419284e-003
9.418388e-003
9.417618e-003
9.416984e-003
9.416495e-003
9.416160e-003
9.415989e-003
9.415992e-003
9.416177e-003
9.416553e-003
9.417124e-003
9.417892e-003
9.418855e-003
9.420005e-003
9.421325e-003
9.422793e-003
9.424379e-003
9.426046e-003
9.427753e-003
9.429453e-003
9.431103e-003
9.432660e-003
9.434088e-003
9.435358e-003
9.436455e-003
9.437371e-003
9.438110e-003
9.438686e-003
9.439118e-003
9.439428e-003
9.439641e-003
9.439780e-003
9.439864e-003
9.439911e-003
9.439934e-003
9.439942e-003
9.439942e-003
9.439939e-003
9.439935e-003
9.439932e-003
9.439929e-003
9.439926e-003
9.439923e-003
9.439921e-003
9.439921e-003
9.439921e-003
9.439921e-003
9.439921e-003
9.439920e-003
9.439920e-003
9.439920e-003
9.439920e-003
9.439920e-003
9.439920e-003
9.439920e-003
9.439921e-003
9.439920e-003
9.439919e-003
9.439919e-003
9.439920e-003
9.439921e-003
9.439921e-003
9.439921e-003
9.439920e-003
9.439921e-003
9.439922e-003
9.439924e-003
9.439927e-003
9.439931e-003
9.439936e-003
9.439941e-003
9.439946e-003
9.439950e-003
9.439951e-003
9.439945e-003
9.439922e-003
9.439871e-003
9.439775e-003
9.439615e-003
9.439362e-003
9.438987e-003
9.438454e-003
9.437730e-003
9.436780e-003
9.435578e-003
9.434106e-003
9.432356e-003
9.430336e-003
9.428066e-003
9.425579e-003
9.422917e-003
9.420128e-003
9.417267e-003
9.414386e-003
9.411534e-003
9.408758e-003
9.406097e-003
9.403585e-003
9.401250e-003
9.399114e-003
9.397196e-003
9.395513e-003
9.394077e-003
9.392903e-003
9.392006e-003
9.391399e-003
9.391099e-003
9.391122e-003
9.391485e-003
9.392201e-003
9.393284e-003
9.394739e-003
9.396565e-003
9.398753e-003
9.401280e-003
9.404111e-003
9.407197e-003
9.410473e-003
9.413865e-003
9.417288e-003
9.420651e-003
9.423868e-003
9.426859e-003
9.429559e-003
9.431923e-003
9.433927e-003
9.435570e-003
9.436871e-003
9.437865e-003
9.438595e-003
9.439110e-003
9.439457e-003
9.439679e-003
9.439814e-003
9.439888e-003
9.439925e-003
9.439940e-003
9.439942e-003
9.439940e-003
9.439937e-003
9.439933e-003
9.439929e-003
9.439926e-003
9.439923e-003
9.439922e-003
9.439921e-003
9.439920e-003
9.439920e-003
9.439921e-003
9.439921e-003
9.439920e-003
9.439919e-003
9.439919e-003
9.439920e-003
9.439921e-003
9.439921e-003
9.439920e-003
9.439918e-003
9.439919e-003
9.439921e-003
9.439922e-003
9.439922e-003
9.439921e-003
9.439920e-003
9.439921e-003
9.439924e-003
9.439927e-003
9.439931e-003
9.439936e-003
9.439942e-003
9.439948e-003
9.439952e-003
9.439952e-003
9.439939e-003
9.439903e-003
9.439824e-003
9.439677e-003
9.439426e-003
9.439028e-003
9.438425e-003
9.437555e-003
9.436348e-003
9.434738e-003
9.432664e-003
9.430083e-003
9.426972e-003
9.423336e-003
9.419208e-003
9.414648e-003
9.409738e-003
9.404575e-003
9.399266e-003
9.393916e-003
9.388623e-003
9.383477e-003
9.378553e-003
9.373910e-003
9.369597e-003
9.365647e-003
9.362087e-003
9.358934e-003
9.356203e-003
9.353908e-003
9.352059e-003
9.350671e-003
9.349760e-003
9.349345e-003
9.349446e-003
9.350087e-003
9.351291e-003
9.353080e-003
9.355473e-003
9.358480e-003
9.362103e-003
9.366327e-003
9.371119e-003
9.376422e-003
9.382152e-003
9.388199e-003
9.394426e-003
9.400675e-003
9.406779e-003
9.412574e-003
9.417912e-003
9.422675e-003
9.426788e-003
9.430221e-003
9.432987e-003
9.435136e-003
9.436743e-003
9.437899e-003
9.438697e-003
9.439225e-003
9.439557e-003
9.439753e-003
9.439862e-003
9.439915e-003
9.439937e-003
9.439943e-003
9.439941e-003
9.439937e-003
9.439933e-003
9.439929e-003
9.439926e-003
9.439923e-003
9.439921e-003
9.439920e-003
9.439920e-003
9.439921e-003
9.439921e-003
9.439921e-003
9.439920e-003
9.439919e-003
9.439920e-003
9.439921e-003
9.439922e-003
9.439920e-003
9.439918e-003
9.439919e-003
9.439921e-003
9.439922e-003
9.439922e-003
9.439921e-003
9.439921e-003
9.439924e-003
9.439928e-003
9.439932e-003
9.439937e-003
9.439942e-003
9.439948e-003
9.439953e-003
9.439951e-003
9.439933e-003
9.439881e-003
9.439769e-003
9.439560e-003
9.439198e-003
9.438611e-003
9.437705e-003
9.436369e-003
9.434479e-003
9.431908e-003
9.428537e-003
9.424275e-003
9.419072e-003
9.412931e-003
9.405914e-003
9.398143e-003
9.389788e-003
9.381051e-003
9.372148e-003
9.363292e-003
9.354672e-003
9.346449e-003
9.338745e-003
9.331648e-003
9.325208e-003
9.319450e-003
9.314377e-003
9.309978e-003
9.306235e-003
9.303126e-003
9.300628e-003
9.298723e-003
9.297395e-003
9.296635e-003
9.296438e-003
9.296809e-003
9.297758e-003
9.299308e-003
9.301491e-003
9.304348e-003
9.307934e-003
9.312307e-003
9.317526e-003
9.323639e-003
9.330671e-003
9.338604e-003
9.347364e-003
9.356807e-003
9.366721e-003
9.376827e-003
9.386811e-003
9.396347e-003
9.405140e-003
9.412957e-003
9.419651e-003
9.425169e-003
9.429545e-003
9.432882e-003
9.435327e-003
9.437048e-003
9.438210e-003
9.438960e-003
9.439421e-003
9.439689e-003
9.439834e-003
9.439906e-003
9.439935e-003
9.439943e-003
9.439941e-003
9.439937e-003
9.439933e-003
9.439929e-003
9.439926e-003
9.439923e-003
9.439921e-003
9.439920e-003
9.439921e-003
9.439921e-003
9.439921e-003
9.439920e-003
9.439919e-003
9.439920e-003
9.439920e-003
9.439921e-003
9.439920e-003
9.439919e-003
9.439919e-003
9.439921e-003
9.439922e-003
9.439921e-003
9.439921e-003
9.439923e-003
9.439927e-003
9.439932e-003
9.439938e-003
9.439943e-003
9.439949e-003
9.439954e-003
9.439951e-003
9.439926e-003
9.439859e-003
9.439714e-003
9.439436e-003
9.438947e-003
9.438136e-003
9.436856e-003
9.434925e-003
9.432134e-003
9.428261e-003
9.423092e-003
9.416462e-003
9.408282e-003
9.398577e-003
9.387501e-003
9.375341e-003
9.362491e-003
9.349416e-003
9.336602e-003
9.324500e-003
9.313490e-003
9.303848e-003
9.295739e-003
9.289220e-003
9.284252e-003
9.280723e-003
9.278475e-003
9.277324e-003
9.277078e-003
9.277549e-003
9.278563e-003
9.279957e-003
9.281579e-003
9.283288e-003
9.284952e-003
9.286448e-003
9.287671e-003
9.288541e-003
9.289016e-003
9.289104e-003
9.288888e-003
9.288533e-003
9.288293e-003
9.288515e-003
9.289610e-003
9.292018e-003
9.296151e-003
9.302323e-003
9.310679e-003
9.321148e-003
9.333422e-003
9.346976e-003
9.361136e-003
9.375173e-003
9.388403e-003
9.400281e-003
9.410454e-003
9.418778e-003
9.425293e-003
9.430176e-003
9.433682e-003
9.436095e-003
9.437686e-003
9.438687e-003
9.439288e-003
9.439630e-003
9.439811e-003
9.439898e-003
9.439933e-003
9.439942e-003
9.439941e-003
9.439937e-003
9.439933e-003
9.439929e-003
9.439925e-003
9.439923e-003
9.439921e-003
9.439921e-003
9.439921e-003
9.439920e-003
9.439920e-003
9.439920e-003
9.439920e-003
9.439920e-003
9.439920e-003
9.439920e-003
9.439920e-003
9.439920e-003
9.439921e-003
9.439921e-003
9.439922e-003
9.439923e-003
9.439926e-003
9.439931e-003
9.439937e-003
9.439944e-003
9.439951e-003
9.439955e-003
9.439951e-003
9.439922e-003
9.439843e-003
9.439667e-003
9.439323e-003
9.438703e-003
9.437648e-003
9.435943e-003
9.433312e-003
9.429421e-003
9.423908e-003
9.416426e-003
9.406703e-003
9.394629e-003
9.380335e-003
9.364254e-003
9.347131e-003
9.329984e-003
9.313998e-003
9.300388e-003
9.290248e-003
9.284422e-003
9.283425e-003
9.287409e-003
9.296182e-003
9.309269e-003
9.325982e-003
9.345509e-003
9.366987e-003
9.389571e-003
9.412470e-003
9.434965e-003
9.456413e-003
9.476226e-003
9.493856e-003
9.508772e-003
9.520451e-003
9.528375e-003
9.532050e-003
9.531041e-003
9.525016e-003
9.513816e-003
9.497526e-003
9.476549e-003
9.451666e-003
9.424062e-003
9.395303e-003
9.367247e-003
9.341880e-003
9.321092e-003
9.306429e-003
9.298854e-003
9.298594e-003
9.305090e-003
9.317099e-003
9.332906e-003
9.350626e-003
9.368493e-003
9.385098e-003
9.399516e-003
9.411309e-003
9.420450e-003
9.427192e-003
9.431937e-003
9.435128e-003
9.437180e-003
9.438440e-003
9.439177e-003
9.439584e-003
9.439795e-003
9.439893e-003
9.439932e-003
9.439943e-003
9.439942e-003
9.439937e-003
9.439932e-003
9.439928e-003
9.439925e-003
9.439923e-003
9.439921e-003
9.439920e-003
9.439920e-003
9.439920e-003
9.439920e-003
9.439920e-003
9.439920e-003
9.439919e-003
9.439920e-003
9.439922e-003
9.439921e-003
9.439921e-003
9.439921e-003
9.439923e-003
9.439926e-003
9.439931e-003
9.439936e-003
9.439943e-003
9.439951e-003
9.439956e-003
9.439952e-003
9.439922e-003
9.439835e-003
9.439636e-003
9.439237e-003
9.438498e-003
9.437207e-003
9.435066e-003
9.431678e-003
9.426551e-003
9.419135e-003
9.408894e-003
9.395441e-003
9.378711e-003
9.359166e-003
9.337972e-003
9.317079e-003
9.299156e-003
9.287352e-003
9.284915e-003
9.294761e-003
9.319074e-003
9.359027e-003
9.414672e-003
9.484995e-003
9.568088e-003
9.661407e-003
9.762036e-003
9.866949e-003
9.973215e-003
1.007814e-002
1.017935e-002
1.027478e-002
1.036264e-002
1.044131e-002
1.050931e-002
1.056512e-002
1.060723e-002
1.063406e-002
1.064404e-002
1.063568e-002
1.060771e-002
1.055929e-002
1.049025e-002
1.040132e-002
1.029438e-002
1.017261e-002
1.004054e-002
9.903886e-003
9.769171e-003
9.643157e-003
9.532083e-003
9.440894e-003
9.372583e-003
9.327804e-003
9.304885e-003
9.300233e-003
9.309072e-003
9.326306e-003
9.347322e-003
9.368528e-003
9.387580e-003
9.403299e-003
9.415408e-003
9.424207e-003
9.430275e-003
9.434262e-003
9.436760e-003
9.438255e-003
9.439104e-003
9.439561e-003
9.439790e-003
9.439893e-003