# vtk DataFile Version 3.0
vtk output
ASCII
DATASET STRUCTURED_POINTS
DIMENSIONS 100 100 1
SPACING 1 1 1
ORIGIN 0 0 0
POINT_DATA 10000
SCALARS SFBox_profile double
LOOKUP_TABLE default 
0.000000e+000
0.000000e+000
0.000000e+000
0.000000e+000
0.000000e+000
0.000000e+000
0.000000e+000
0.000000e+000
0.000000e+000
0.000000e+000
0.000000e+000
0.000000e+000
0.000000e+000
0.000000e+000
0.000000e+000
0.000000e+000
0.000000e+000
0.000000e+000
0.000000e+000
0.000000e+000
0.000000e+000
0.000000e+000
0.000000e+000
0.000000e+000
0.000000e+000
0.000000e+000
0.000000e+000
0.000000e+000
0.000000e+000
0.000000e+000
0.000000e+000
0.000000e+000
0.000000e+000
0.000000e+000
0.000000e+000
0.000000e+000
0.000000e+000
0.000000e+000
0.000000e+000
0.000000e+000
0.000000e+000
0.000000e+000
0.000000e+000
0.000000e+000
0.000000e+000
0.000000e+000
0.000000e+000
0.000000e+000
0.000000e+000
0.000000e+000
0.000000e+000
0.000000e+000
0.000000e+000
0.000000e+000
0.000000e+000
0.000000e+000
0.000000e+000
0.000000e+000
0.000000e+000
0.000000e+000
0.000000e+000
0.000000e+000
0.000000e+000
0.000000e+000
0.000000e+000
0.000000e+000
0.000000e+000
0.000000e+000
0.000000e+000
0.000000e+000
0.000000e+000
0.000000e+000
0.000000e+000
0.000000e+000
0.000000e+000
0.000000e+000
0.000000e+000
0.000000e+000
0.000000e+000
0.000000e+000
0.000000e+000
0.000000e+000
0.000000e+000
0.000000e+000
0.000000e+000
0.000000e+000
0.000000e+000
0.000000e+000
0.000000e+000
0.000000e+000
0.000000e+000
0.000000e+000
0.000000e+000
0.000000e+000
0.000000e+000
0.000000e+000
0.000000e+000
0.000000e+000
0.000000e+000
0.000000e+000
8.028304e-012
1.485418e-011
2.332231e-011
2.461621e-011
9.780340e-012
-2.335427e-011
-6.358919e-011
-8.700932e-011
-6.895201e-011
-2.659923e-012
8.820491e-011
1.558543e-010
1.548163e-010
7.343000e-011
-5.270555e-011
-1.587918e-010
-1.912175e-010
-1.420422e-010
-5.102070e-011
2.679410e-011
6.173982e-011
6.549242e-011
7.064651e-011
9.451004e-011
1.215356e-010
1.202888e-010
7.723715e-011
1.335308e-011
-3.334695e-011
-4.216634e-011
-2.709807e-011
-2.066321e-011
-4.132186e-011
-7.724791e-011
-1.013952e-010
-1.003198e-010
-8.649672e-011
-8.314000e-011
-9.962090e-011
-1.236606e-010
-1.365052e-010
-1.325732e-010
-1.224830e-010
-1.188151e-010
-1.227586e-010
-1.260306e-010
-1.231657e-010
-1.178649e-010
-1.163366e-010
-1.177970e-010
-1.154602e-010
-1.068607e-010
-9.932731e-011
-1.018581e-010
-1.123823e-010
-1.171587e-010
-1.056257e-010
-8.436579e-011
-7.239950e-011
-8.061620e-011
-9.789501e-011
-1.011686e-010
-8.044191e-011
-5.163087e-011
-4.142795e-011
-5.881144e-011
-8.378232e-011
-8.651954e-011
-5.780472e-011
-1.874709e-011
1.114808e-012
-5.193494e-012
-1.454600e-011
1.977549e-012
4.738443e-011
9.211367e-011
9.983799e-011
6.080314e-011
8.338949e-013
-4.174921e-011
-4.847711e-011
-3.222209e-011
-1.927383e-011
-2.152882e-011
-2.606095e-011
-1.111855e-011
2.801145e-011
6.868825e-011
7.679431e-011
3.574698e-011
-3.607782e-011
-9.474419e-011
-1.004864e-010
-4.586197e-011
3.780247e-011
9.997150e-011
1.028581e-010
4.477683e-011
-3.920785e-011
-9.883112e-011
1.643147e-012
-2.641995e-012
-5.941536e-012
-3.322991e-012
4.785896e-012
1.209408e-011
1.135915e-011
1.017123e-012
-1.223444e-011
-1.791948e-011
-1.054242e-011
4.625525e-012
1.474222e-011
1.020474e-011
-5.771512e-012
-1.806849e-011
-1.212163e-011
1.194188e-011
3.682854e-011
4.129857e-011
1.856238e-011
-1.672151e-011
-4.029577e-011
-3.910746e-011
-2.189891e-011
-9.507887e-012
-1.417986e-011
-2.803961e-011
-3.195630e-011
-1.559525e-011
1.176229e-011
3.042451e-011
2.979622e-011
1.811153e-011
1.287443e-011
2.276878e-011
4.000699e-011
5.001273e-011
4.693989e-011
3.843826e-011
3.593230e-011
4.238274e-011
5.084181e-011
5.373319e-011
5.097434e-011
4.814858e-011
4.854150e-011
4.963599e-011
4.794978e-011
4.490573e-011
4.529098e-011
5.005974e-011
5.334575e-011
4.885718e-011
3.860479e-011
3.251064e-011
3.758289e-011
4.862053e-011
5.230197e-011
4.168739e-011
2.517742e-011
1.877560e-011
2.884785e-011
4.405703e-011
4.631059e-011
2.983216e-011
7.812934e-012
-1.035803e-012
7.747083e-012
1.918712e-011
1.421658e-011
-1.022385e-011
-3.715615e-011
-4.571810e-011
-3.111798e-011
-8.472934e-012
2.673267e-012
-2.936459e-012
-1.268664e-011
-1.020363e-011
7.587605e-012
2.719768e-011
3.156360e-011
1.618738e-011
-6.744153e-012
-1.936833e-011
-1.355027e-011
3.034545e-012
1.450446e-011
1.049625e-011
-5.785582e-012
-2.105272e-011
-2.285750e-011
-8.844295e-012
1.208972e-011
2.653548e-011
2.557070e-011
9.894271e-012
-1.126624e-011
-2.588326e-011
6.666964e-014
-1.600368e-011
-3.362247e-011
-3.446708e-011
-8.345514e-012
3.802400e-011
8.126451e-011
9.261141e-011
5.543616e-011
-2.129369e-011
-1.036243e-010
-1.493270e-010
-1.316465e-010
-5.520703e-011
4.643153e-011
1.299445e-010
1.651850e-010
1.473265e-010
9.276229e-011
2.499702e-011
-3.797490e-011
-8.746031e-011
-1.204622e-010
-1.352697e-010
-1.308025e-010
-1.088871e-010
-7.550244e-011
-3.877794e-011
-5.377377e-012
2.170891e-011
4.271448e-011
5.923572e-011
7.288859e-011
8.499412e-011
9.652904e-011
1.079297e-010
1.190668e-010
1.296193e-010
1.394529e-010
1.484598e-010
1.560974e-010
1.614653e-010
1.641649e-010
1.649209e-010
1.649169e-010
1.644889e-010
1.628229e-010
1.592973e-010
1.549820e-010
1.521497e-010
1.518818e-010
1.524641e-010
1.507787e-010
1.455906e-010
1.391043e-010
1.347055e-010
1.331123e-010
1.312990e-010
1.256593e-010
1.160902e-010
1.063999e-010
1.004606e-010
9.829268e-011
9.629738e-011
9.127250e-011
8.362163e-011
7.614205e-011
6.999365e-011
6.251476e-011
4.928825e-011
2.820022e-011
1.169101e-012
-2.772343e-011
-5.473210e-011
-7.652346e-011
-8.843886e-011
-8.455273e-011
-6.149340e-011
-2.310246e-011
1.913602e-011
5.153878e-011
6.552177e-011
6.076838e-011
4.229022e-011
1.545384e-011
-1.548921e-011
-4.446549e-011
-6.112003e-011
-5.430697e-011
-2.100378e-011
2.667152e-011
6.428470e-011
6.873693e-011
3.431164e-011
-2.094489e-011
-6.453426e-011
-6.952664e-011
-3.225880e-011
2.451934e-011
6.562532e-011
6.978391e-012
-8.038387e-012
-2.812763e-011
-3.792478e-011
-2.353017e-011
1.737873e-011
6.839550e-011
9.830056e-011
7.839826e-011
4.590345e-012
-9.206556e-011
-1.581017e-010
-1.495028e-010
-6.247645e-011
5.989897e-011
1.528208e-010
1.707362e-010
1.149172e-010
2.777057e-011
-4.062180e-011
-6.687700e-011
-6.334836e-011
-5.787391e-011
-6.488554e-011
-7.401912e-011
-6.452948e-011
-2.938668e-011
1.512231e-011
4.323351e-011
4.293746e-011
2.591364e-011
1.512936e-011
2.312358e-011
4.222341e-011
5.497433e-011
5.280467e-011
4.375664e-011
4.260966e-011
5.505502e-011
7.258518e-011
8.231614e-011
8.019592e-011
7.366957e-011
7.226421e-011
7.742882e-011
8.255661e-011
8.179244e-011
7.669380e-011
7.343585e-011
7.483028e-011
7.720077e-011
7.562864e-011
7.056409e-011
6.728622e-011
6.875689e-011
7.093758e-011
6.703151e-011
5.612388e-011
4.554035e-011
4.306598e-011
4.745699e-011
4.880411e-011
3.961982e-011
2.458155e-011
1.714958e-011
2.544185e-011
4.239956e-011
5.184622e-011
4.497182e-011
2.963791e-011
2.177036e-011
2.714320e-011
3.312696e-011
2.059743e-011
-1.502861e-011
-5.520274e-011
-7.222076e-011
-5.350260e-011
-1.305235e-011
2.098674e-011
3.071348e-011
2.171065e-011
1.338034e-011
1.692605e-011
2.327851e-011
1.312881e-011
-2.054871e-011
-5.965884e-011
-7.176660e-011
-3.701375e-011
3.146546e-011
9.193400e-011
1.018611e-010
4.896832e-011
-3.767665e-011
-1.050460e-010
-1.103167e-010
-4.884837e-011
4.239433e-011
1.078521e-010
8.362276e-012
1.232704e-011
1.089756e-011
-2.638406e-012
-2.264306e-011
-3.325261e-011
-2.168208e-011
8.449241e-012
3.658007e-011
4.034648e-011
1.509758e-011
-1.941056e-011
-3.335110e-011
-1.255631e-011
2.609513e-011
4.540710e-011
1.886013e-011
-4.348398e-011
-9.821117e-011
-1.013896e-010
-4.471851e-011
3.654817e-011
9.206927e-011
9.702708e-011
6.903031e-011
4.685659e-011
5.207021e-011
7.020333e-011
6.850535e-011
3.134991e-011
-2.256893e-011
-5.814723e-011
-5.794210e-011
-3.770253e-011
-2.850477e-011
-4.504369e-011
-7.286712e-011
-8.612204e-011
-7.523728e-011
-5.517057e-011
-4.739881e-011
-5.702733e-011
-6.970746e-011
-6.955205e-011
-5.638838e-011
-4.355405e-011
-4.103937e-011
-4.487122e-011
-4.437615e-011
-3.681525e-011
-3.065873e-011
-3.379530e-011
-4.221229e-011
-4.420694e-011
-3.559227e-011
-2.673475e-011
-3.122015e-011
-4.857259e-011
-6.235331e-011
-5.797373e-011
-4.065748e-011
-3.175732e-011
-4.540463e-011
-7.095233e-011
-8.209681e-011
-6.445861e-011
-3.183690e-011
-1.220896e-011
-1.731429e-011
-2.860165e-011
-1.586590e-011
2.977144e-011
8.308790e-011
1.066291e-010
8.579562e-011
4.200523e-011
1.102926e-011
8.604090e-012
1.762367e-011
8.825028e-012
-2.672721e-011
-6.605274e-011
-7.495507e-011
-4.089981e-011
1.337082e-011
4.819911e-011
4.041807e-011
2.105623e-012
-3.085098e-011
-2.929533e-011
5.791019e-012
4.527471e-011
5.580253e-011
2.565368e-011
-2.690710e-011
-6.720203e-011
-6.816508e-011
-2.791246e-011
2.973461e-011
7.052762e-011
-1.079010e-011
1.889553e-011
4.927842e-011
4.826955e-011
5.463247e-012
-5.822354e-011
-1.029189e-010
-9.626856e-011
-3.590365e-011
4.808153e-011
1.125194e-010
1.282488e-010
9.515547e-011
3.540383e-011
-2.673633e-011
-7.956394e-011
-1.211727e-010
-1.457583e-010
-1.373289e-010
-8.169776e-011
1.309732e-011
1.106292e-010
1.663410e-010
1.603174e-010
1.128943e-010
6.642729e-011
4.838457e-011
5.013259e-011
4.144936e-011
5.568325e-012
-4.127454e-011
-6.590420e-011
-5.274538e-011
-2.039838e-011
-2.835711e-012
-1.522459e-011
-4.038488e-011
-4.914152e-011
-3.145735e-011
-4.939241e-012
6.618861e-012
-7.304380e-013
-9.088301e-012
-8.391553e-013
2.178673e-011
4.142307e-011
4.685640e-011
4.468696e-011
4.843869e-011
6.008372e-011
6.752855e-011
6.096722e-011
4.697049e-011
4.161491e-011
5.014038e-011
5.853902e-011
4.917389e-011
2.307845e-011
1.583090e-012
3.036700e-012
2.043794e-011
2.689061e-011
4.881418e-012
-3.281933e-011
-5.517612e-011
-4.607427e-011
-2.234474e-011
-1.580234e-011
-3.776584e-011
-6.440044e-011
-5.947968e-011
-1.147907e-011
5.339209e-011
9.537619e-011
9.717628e-011
7.552440e-011
5.873726e-011
5.555749e-011
4.783185e-011
1.340462e-011
-4.561672e-011
-9.852058e-011
-1.101525e-010
-7.061697e-011
-3.580892e-012
5.254176e-011
7.221398e-011
5.625024e-011
2.384314e-011
-5.329925e-012
-2.242935e-011
-2.811423e-011
-2.516967e-011
-1.475270e-011
1.068959e-012
1.597750e-011
2.138986e-011
1.317728e-011
-3.469146e-012
-1.665771e-011
-4.023258e-011
-8.483447e-013
4.841501e-011
7.047606e-011
4.343702e-011
-2.379969e-011
-9.332213e-011
-1.193459e-010
-7.784980e-011
1.460825e-011
1.078461e-010
1.486820e-010
1.149494e-010
2.850111e-011
-6.188319e-011
-1.135865e-010
-1.135913e-010
-7.693651e-011
-2.723883e-011
2.007214e-011
5.858822e-011
8.182828e-011
8.019008e-011
5.025442e-011
5.136265e-012
-2.980229e-011
-3.605109e-011
-1.763020e-011
4.220692e-012
1.356484e-011
1.622752e-011
3.212301e-011
7.146057e-011
1.210549e-010
1.565621e-010
1.678391e-010
1.694369e-010
1.844341e-010
2.195776e-010
2.591933e-010
2.838758e-010
2.920537e-010
3.000596e-010
3.218202e-010
3.526742e-010
3.758873e-010
3.829007e-010
3.824648e-010
3.881480e-010
4.004090e-010
4.058464e-010
3.946397e-010
3.742047e-010
3.612089e-010
3.608416e-010
3.589804e-010
3.382676e-010
2.999284e-010
2.647609e-010
2.503978e-010
2.504455e-010
2.403504e-010
2.046109e-010
1.548675e-010
1.178281e-010
1.057970e-010
1.025893e-010
8.086071e-011
3.217118e-011
-2.269310e-011
-5.371529e-011
-5.015987e-011
-2.798771e-011
-1.051999e-011
-5.084683e-012
-2.515116e-013
1.598169e-011
3.896426e-011
5.014622e-011
3.601416e-011
2.434719e-012
-2.999778e-011
-4.340399e-011
-3.493452e-011
-1.389503e-011
9.509303e-012
3.014528e-011
4.414356e-011
4.375046e-011
2.094467e-011
-2.127936e-011
-6.254734e-011
-7.440370e-011
-4.145865e-011
2.245009e-011
7.870931e-011
8.890583e-011
4.280872e-011
-3.205808e-011
-8.758604e-011
-4.456339e-011
-2.773487e-011
2.240798e-012
3.490536e-011
5.284273e-011
4.162131e-011
3.606214e-012
-3.821480e-011
-5.425068e-011
-3.192173e-011
1.109590e-011
3.834216e-011
2.438122e-011
-2.146929e-011
-5.952285e-011
-5.111880e-011
8.508326e-012
8.419852e-011
1.272277e-010
1.114549e-010
4.915611e-011
-2.385484e-011
-7.691088e-011
-1.010311e-010
-1.031684e-010
-9.049753e-011
-6.312565e-011
-1.987087e-011
3.408206e-011
8.893210e-011
1.390294e-010
1.869573e-010
2.376336e-010
2.901542e-010
3.382077e-010
3.788159e-010
4.178179e-010
4.640152e-010
5.183597e-010
5.716145e-010
6.141982e-010
6.468300e-010
6.788764e-010
7.160412e-010
7.524429e-010
7.771380e-010
7.873566e-010
7.920441e-010
8.008933e-010
8.121029e-010
8.141784e-010
8.000435e-010
7.762446e-010
7.554673e-010
7.409479e-010
7.219009e-010
6.862425e-010
6.358000e-010
5.855984e-010
5.474524e-010
5.169401e-010
4.791562e-010
4.266067e-010
3.684198e-010
3.202613e-010
2.866921e-010
2.561441e-010
2.136399e-010
1.561849e-010
9.398823e-011
3.824989e-011
-8.762205e-012
-5.018612e-011
-8.388316e-011
-9.970084e-011
-8.930199e-011
-5.695985e-011
-1.789329e-011
1.464999e-011
3.881142e-011
5.914648e-011
7.377648e-011
7.057775e-011
3.961420e-011
-1.042292e-011
-5.141374e-011
-5.606816e-011
-2.243450e-011
2.106888e-011
3.735379e-011
1.179445e-011
-3.427042e-011
-6.005897e-011
-3.861177e-011
2.028542e-011
7.588515e-011
8.641181e-011
4.016280e-011
-3.513615e-011
-9.093341e-011
-2.948370e-014
-2.913499e-011
-5.374498e-011
-4.075197e-011
1.253374e-011
7.412703e-011
1.016939e-010
7.520384e-011
1.121705e-011
-5.207760e-011
-8.493465e-011
-8.478294e-011
-6.869590e-011
-4.965310e-011
-2.195415e-011
2.842512e-011
9.894144e-011
1.584052e-010
1.646899e-010
9.992766e-011
-8.761702e-012
-1.042938e-010
-1.395756e-010
-1.085360e-010
-4.278536e-011
1.989661e-011
6.503915e-011
1.044265e-010
1.555093e-010
2.210864e-010
2.882512e-010
3.436717e-010
3.872366e-010
4.310050e-010
4.870610e-010
5.576040e-010
6.353414e-010
7.110063e-010
7.798844e-010
8.428341e-010
9.031683e-010
9.629101e-010
1.020583e-009
1.071478e-009
1.110688e-009
1.137185e-009
1.155200e-009
1.170585e-009
1.184990e-009
1.193985e-009
1.191690e-009
1.177098e-009
1.154863e-009
1.129539e-009
1.100134e-009
1.061605e-009
1.011430e-009
9.530190e-010
8.917892e-010
8.291045e-010
7.620853e-010
6.895903e-010
6.162462e-010
5.486643e-010
4.883694e-010
4.309066e-010
3.730061e-010
3.184715e-010
2.736409e-010
2.364256e-010
1.932530e-010
1.310603e-010
5.346393e-011
-1.745979e-011
-5.870609e-011
-6.641324e-011
-5.701818e-011
-4.759789e-011
-3.673049e-011
-7.981969e-012
4.590202e-011
1.040087e-010
1.267271e-010
8.866728e-011
4.929300e-012
-7.543824e-011
-1.052512e-010
-7.389609e-011
-1.205203e-011
3.534768e-011
4.325561e-011
2.014018e-011
-5.966813e-012
-1.291802e-011
3.396542e-013
1.789290e-011
2.269686e-011
9.666192e-012
-1.246601e-011
-2.885245e-011
6.784279e-011
3.507858e-012
-7.178009e-011
-9.778469e-011
-5.058905e-011
4.074804e-011
1.150067e-010
1.221125e-010
5.771071e-011
-3.595512e-011
-1.022441e-010
-1.095067e-010
-6.744556e-011
-1.070774e-011
3.202680e-011
5.489921e-011
6.583640e-011
6.663148e-011
4.713114e-011
1.364706e-012
-5.290335e-011
-7.666209e-011
-3.809694e-011
5.787864e-011
1.691244e-010
2.487727e-010
2.823291e-010
2.954605e-010
3.264389e-010
3.908615e-010
4.719856e-010
5.430994e-010
5.969151e-010
6.521467e-010
7.326260e-010
8.421153e-010
9.602793e-010
1.062131e-009
1.140003e-009
1.206545e-009
1.278028e-009
1.356624e-009
1.429186e-009
1.481675e-009
1.513009e-009
1.534459e-009
1.556831e-009
1.579886e-009
1.594671e-009
1.594816e-009
1.583585e-009
1.569074e-009
1.553829e-009
1.531484e-009
1.494590e-009
1.444249e-009
1.389404e-009
1.335679e-009
1.276975e-009
1.201121e-009
1.104655e-009
9.996914e-010
9.031381e-010
8.190250e-010
7.346429e-010
6.370691e-010
5.327332e-010
4.465139e-010
3.979061e-010
3.783729e-010
3.557042e-010
3.034876e-010
2.260230e-010
1.523292e-010
1.051567e-010
7.797477e-011
4.481435e-011
-7.460610e-012
-5.954236e-011
-7.523419e-011
-3.796680e-011
2.837681e-011
7.591291e-011
7.146526e-011
2.186651e-011
-3.532343e-011
-6.396225e-011
-5.422001e-011
-2.166436e-011
1.180868e-011
3.389305e-011
4.247598e-011
3.743921e-011
1.756409e-011
-1.351083e-011
-4.179770e-011
-4.854064e-011
-2.525383e-011
1.569269e-011
4.717747e-011
9.432851e-011
3.991623e-011
-3.393717e-011
-8.276369e-011
-7.825396e-011
-2.595407e-011
3.722050e-011
6.743586e-011
4.566418e-011
-7.166710e-012
-4.570070e-011
-3.638972e-011
1.446935e-011
6.523974e-011
7.308496e-011
2.850368e-011
-3.920793e-011
-8.811228e-011
-9.528457e-011
-6.535725e-011
-1.298566e-011
5.716719e-011
1.497237e-010
2.601825e-010
3.642686e-010
4.330702e-010
4.618217e-010
4.810203e-010
5.338260e-010
6.390405e-010
7.761314e-010
9.076821e-010
1.016331e-009
1.118207e-009
1.239926e-009
1.384849e-009
1.525043e-009
1.627154e-009
1.684133e-009
1.719185e-009
1.758912e-009
1.805558e-009
1.837739e-009
1.836975e-009
1.809631e-009
1.780510e-009
1.766740e-009
1.761979e-009
1.747979e-009
1.718876e-009
1.689575e-009
1.678787e-009
1.687064e-009
1.696006e-009
1.689711e-009
1.672941e-009
1.663727e-009
1.668269e-009
1.667945e-009
1.635442e-009
1.563114e-009
1.470987e-009
1.383665e-009
1.301432e-009
1.199341e-009
1.057522e-009
8.898835e-010
7.380460e-010
6.346033e-010
5.738959e-010
5.212670e-010
4.504010e-010
3.684128e-010
3.026106e-010
2.650632e-010
2.349209e-010
1.783610e-010
8.496224e-011
-1.793336e-011
-8.749356e-011
-1.012090e-010
-7.155890e-011
-2.921287e-011
3.849013e-012
2.430087e-011
3.626306e-011
3.788195e-011
2.334482e-011
-3.654574e-012
-2.458937e-011
-1.985214e-011
1.016513e-011
3.973816e-011
3.778978e-011
-2.870969e-012
-5.458209e-011
-7.472734e-011
-4.136035e-011
2.597362e-011
7.927197e-011
3.663878e-011
3.977576e-011
3.146710e-011
2.352042e-012
-3.711555e-011
-6.299931e-011
-5.934160e-011
-3.276314e-011
-4.719964e-012
1.089071e-011
2.106998e-011
4.256037e-011
7.665606e-011
9.793151e-011
7.340091e-011
-2.727445e-012
-9.292350e-011
-1.385397e-010
-1.034867e-010
-2.719738e-013
1.247456e-010
2.310795e-010
3.107505e-010
3.805867e-010
4.557520e-010
5.367401e-010
6.217892e-010
7.242190e-010
8.679270e-010
1.061706e-009
1.281454e-009
1.484019e-009
1.641441e-009
1.759480e-009
1.859843e-009
1.945796e-009
1.990265e-009
1.960785e-009
1.853977e-009
1.700639e-009
1.535238e-009
1.363843e-009
1.166320e-009
9.295443e-010
6.730497e-010
4.374859e-010
2.492157e-010
1.017296e-010
-2.524902e-011
-1.321066e-010
-1.911349e-010
-1.737726e-010
-8.159081e-011
5.527867e-011
2.103668e-010
3.856391e-010
5.993046e-010
8.508872e-010
1.105447e-009
1.317343e-009
1.467761e-009
1.573430e-009
1.656389e-009
1.709705e-009
1.699355e-009
1.601397e-009
1.433160e-009
1.243454e-009
1.072306e-009
9.235916e-010
7.779156e-010
6.275572e-010
4.923181e-010
3.991547e-010
3.502733e-010
3.164315e-010
2.628387e-010
1.793415e-010
8.439422e-011
3.163522e-012
-5.300414e-011
-8.505082e-011
-9.117957e-011
-6.275278e-011
2.190547e-013
7.279250e-011
1.125159e-010
9.077994e-011
2.014562e-011
-5.093139e-011
-7.500410e-011
-4.288597e-011
1.120683e-011
4.037031e-011
2.403462e-011
-1.772713e-011
-4.449608e-011
-3.105012e-011
1.210385e-011
4.897593e-011
-7.138193e-011
-2.384673e-012
7.407799e-011
9.393710e-011
4.114497e-011
-4.327038e-011
-9.786016e-011
-8.985821e-011
-3.559076e-011
2.130226e-011
4.974141e-011
5.139420e-011
4.591112e-011
4.224340e-011
2.979992e-011
-8.418170e-013
-3.281978e-011
-2.616907e-011
4.791235e-011
1.752463e-010
3.049099e-010
3.919396e-010
4.366995e-010
4.832286e-010
5.799492e-010
7.425326e-010
9.522626e-010
1.182901e-009
1.420705e-009
1.656303e-009
1.864173e-009
2.000596e-009
2.026885e-009
1.931568e-009
1.724475e-009
1.409285e-009
9.683409e-010
3.800684e-010
-3.500796e-010
-1.182358e-009
-2.069783e-009
-2.989205e-009
-3.940043e-009
-4.911971e-009
-5.860397e-009
-6.720684e-009
-7.446713e-009
-8.029929e-009
-8.477151e-009
-8.774069e-009
-8.878888e-009
-8.755308e-009
-8.407444e-009
-7.876402e-009
-7.202989e-009
-6.400607e-009
-5.469810e-009
-4.436226e-009
-3.365218e-009
-2.333575e-009
-1.388641e-009
-5.395538e-010
2.124338e-010
8.426024e-010
1.308294e-009
1.585038e-009
1.691581e-009
1.675987e-009
1.579909e-009
1.420926e-009
1.208551e-009
9.690872e-010
7.460060e-010
5.740048e-010
4.568664e-010
3.739612e-010
3.059230e-010
2.489615e-010
2.041313e-010
1.604687e-010
9.877348e-011
1.594300e-011
-5.942917e-011
-8.457883e-011
-4.189303e-011
3.822505e-011
9.643480e-011
9.068908e-011
2.834147e-011
-4.340712e-011
-7.741687e-011
-6.055133e-011
-1.569297e-011
2.308391e-011
3.649286e-011
2.732703e-011
9.959580e-012
-3.675638e-012
-1.013787e-011
-1.188785e-011
-1.350556e-010
-4.577914e-011
6.366637e-011
1.165092e-010
8.342316e-011
6.219969e-014
-6.496877e-011
-6.569839e-011
-1.307070e-011
3.941080e-011
4.479543e-011
2.507334e-012
-4.572594e-011
-5.650762e-011
-2.073615e-011
3.847812e-011
9.848244e-011
1.619004e-010
2.468469e-010
3.569696e-010
4.699778e-010
5.622683e-010
6.439214e-010
7.623417e-010
9.641167e-010
1.249719e-009
1.564625e-009
1.832721e-009
1.995280e-009
2.018024e-009
1.867979e-009
1.494619e-009
8.399274e-010
-1.354612e-010
-1.441512e-009
-3.073378e-009
-5.028484e-009
-7.301015e-009
-9.859469e-009
-1.263700e-008
-1.555015e-008
-1.852592e-008
-2.150534e-008
-2.442003e-008
-2.717316e-008
-2.965303e-008
-3.176812e-008
-3.346499e-008
-3.470927e-008
-3.545429e-008
-3.563834e-008
-3.521752e-008
-3.419848e-008
-3.263414e-008
-3.058893e-008
-2.811512e-008
-2.526744e-008
-2.213580e-008
-1.885333e-008
-1.556547e-008
-1.239087e-008
-9.412350e-009
-6.698894e-009
-4.323965e-009
-2.353304e-009
-8.154828e-010
3.094540e-010
1.069918e-009
1.514995e-009
1.689024e-009
1.647876e-009
1.468026e-009
1.229177e-009
9.861457e-010
7.612013e-010
5.640761e-010
4.128245e-010
3.273709e-010
3.024093e-010
2.955445e-010
2.535253e-010
1.566351e-010
3.724446e-011
-4.799604e-011
-6.649478e-011
-3.335167e-011
8.190619e-012
2.549574e-011
1.662812e-011
-1.020645e-012
-1.355261e-011
-1.916610e-011
-1.938440e-011
-1.056121e-011
1.075078e-011
3.609154e-011
4.539737e-011
2.432590e-011
-1.812163e-011
-5.240264e-011
-8.362041e-011
-4.288432e-011
1.208850e-011
4.796338e-011
4.605036e-011
1.674373e-011
-7.258694e-012
1.158899e-012
3.617923e-011
5.964261e-011
3.491185e-011
-3.425188e-011
-9.834672e-011
-9.974332e-011
-2.030083e-011
1.058434e-010
2.261249e-010
3.162963e-010
3.954147e-010
4.996676e-010
6.482012e-010
8.373415e-010
1.061893e-009
1.328566e-009
1.636257e-009
1.939332e-009
2.134481e-009
2.089118e-009
1.684854e-009
8.344163e-010
-5.383350e-010
-2.524524e-009
-5.227339e-009
-8.730035e-009
-1.306692e-008
-1.822211e-008
-2.414692e-008
-3.076849e-008
-3.798036e-008
-4.563308e-008
-5.354424e-008
-6.152175e-008
-6.937652e-008
-7.691481e-008
-8.392850e-008
-9.020521e-008
-9.555469e-008
-9.982501e-008
-1.028929e-007
-1.046456e-007
-1.049832e-007
-1.038467e-007
-1.012435e-007
-9.724407e-008
-9.195792e-008
-8.551940e-008
-7.810046e-008
-6.993039e-008
-6.129102e-008
-5.248326e-008
-4.379170e-008
-3.547237e-008
-2.775645e-008
-2.084405e-008
-1.487901e-008
-9.926164e-009
-5.975961e-009
-2.971871e-009
-8.317035e-010
5.540833e-010
1.330467e-009
1.664003e-009
1.705618e-009
1.561781e-009
1.301881e-009
9.902259e-010
7.022502e-010
5.021165e-010
4.048492e-010
3.676099e-010
3.261409e-010
2.449700e-010
1.362395e-010
3.589974e-011
-3.177814e-011
-6.560387e-011
-7.235127e-011
-5.255663e-011
-7.426368e-012
4.493059e-011
7.136377e-011
5.018091e-011
-3.831993e-012
-4.644651e-011
-4.209426e-011
2.366906e-012
4.292749e-011
3.989158e-011
-4.015230e-012
-4.637153e-011
5.358862e-011
8.264723e-012
-4.198645e-011
-5.907558e-011
-3.769626e-011
-8.663160e-013
2.815450e-011
4.442205e-011
5.327284e-011
5.195883e-011
2.905560e-011
-1.425708e-011
-4.808057e-011
-2.894668e-011
6.250884e-011
1.999829e-010
3.333991e-010
4.374983e-010
5.400256e-010
7.006322e-010
9.602084e-010
1.307019e-009
1.683052e-009
2.009295e-009
2.192446e-009
2.103840e-009
1.558913e-009
3.272625e-010
-1.831632e-009
-5.140477e-009
-9.805087e-009
-1.602766e-008
-2.399854e-008
-3.385644e-008
-4.564375e-008
-5.929050e-008
-7.463147e-008
-9.143100e-008
-1.093928e-007
-1.281583e-007
-1.473139e-007
-1.664142e-007
-1.850075e-007
-2.026493e-007
-2.189057e-007
-2.333589e-007
-2.456231e-007
-2.553585e-007
-2.622757e-007
-2.661363e-007
-2.667626e-007
-2.640583e-007
-2.580251e-007
-2.487646e-007
-2.364711e-007
-2.214334e-007
-2.040449e-007
-1.848050e-007
-1.642965e-007
-1.431475e-007
-1.219962e-007
-1.014679e-007
-8.214686e-008
-6.453150e-008
-4.898471e-008
-3.570937e-008
-2.476226e-008
-1.608561e-008
-9.525930e-009
-4.837053e-009
-1.695109e-009
2.533186e-010
1.327544e-009
1.776697e-009
1.792257e-009
1.543290e-009
1.189659e-009
8.584724e-010
6.132387e-010
4.533982e-010
3.476397e-010
2.691789e-010
2.047313e-010
1.431446e-010
7.129827e-011
-1.110658e-011
-7.795922e-011
-9.058277e-011
-3.505798e-011
5.337315e-011
1.097247e-010
9.102261e-011
1.344862e-011
-6.135438e-011
-7.942606e-011
-3.849080e-011
1.621450e-011
3.734170e-011
1.760870e-011
-9.839395e-012
1.608002e-010
5.625792e-011
-6.660491e-011
-1.208103e-010
-8.590619e-011
-1.146812e-011
3.731691e-011
3.621636e-011
1.089816e-011
-2.166458e-013
1.586815e-011
4.559810e-011
7.772740e-011
1.236096e-010
2.051298e-010
3.277244e-010
4.751249e-010
6.365169e-010
8.346952e-010
1.115437e-009
1.496153e-009
1.914667e-009
2.218642e-009
2.193015e-009
1.584916e-009
9.474738e-011
-2.653839e-009
-7.124556e-009
-1.383788e-008
-2.331733e-008
-3.604512e-008
-5.243546e-008
-7.280526e-008
-9.732522e-008
-1.259661e-007
-1.584739e-007
-1.943908e-007
-2.331027e-007
-2.738809e-007
-3.159044e-007
-3.582778e-007
-4.000625e-007
-4.403197e-007
-4.781479e-007
-5.127017e-007
-5.431950e-007
-5.689041e-007
-5.891790e-007
-6.034607e-007
-6.113016e-007
-6.123840e-007
-6.065339e-007
-5.937312e-007
-5.741207e-007
-5.480312e-007
-5.159982e-007
-4.787755e-007
-4.373205e-007
-3.927557e-007
-3.463231e-007
-2.993438e-007
-2.531680e-007
-2.090962e-007
-1.682737e-007
-1.315935e-007
-9.964701e-008
-7.272490e-008
-5.084096e-008
-3.375105e-008
-2.097824e-008
-1.187307e-008
-5.714463e-009
-1.814332e-009
4.219168e-010
1.489405e-009
1.799608e-009
1.682397e-009
1.374209e-009
1.019340e-009
6.972616e-010
4.549083e-010
3.151639e-010
2.635405e-010
2.458796e-010
2.001730e-010
1.039033e-010
-7.190974e-012
-7.101556e-011
-5.529236e-011
1.295296e-011
7.066467e-011
7.163451e-011
2.061982e-011
-3.834392e-011
-6.319901e-011
-4.561402e-011
-9.136129e-012
1.746490e-011
2.403172e-011
2.066473e-011
1.373726e-010
4.692199e-011
-5.551083e-011
-9.166415e-011
-4.789139e-011
2.016848e-011
4.328184e-011
2.649906e-012
-5.543282e-011
-6.501727e-011
-3.586874e-013
1.068433e-010
2.059530e-010
2.803519e-010
3.626704e-010
5.022740e-010
7.241910e-010
1.021154e-009
1.374583e-009
1.760745e-009
2.111950e-009
2.253446e-009
1.864684e-009
4.863728e-010
-2.455600e-009
-7.651586e-009
-1.593698e-008
-2.830314e-008
-4.584558e-008
-6.965221e-008
-1.006771e-007
-1.396411e-007
-1.869621e-007
-2.426956e-007
-3.064851e-007
-3.775465e-007
-4.547135e-007
-5.365329e-007
-6.213680e-007
-7.074763e-007
-7.930636e-007
-8.763359e-007
-9.555631e-007
-1.029139e-006
-1.095611e-006
-1.153678e-006
-1.202175e-006
-1.240067e-006
-1.266471e-006
-1.280683e-006
-1.282202e-006
-1.270735e-006
-1.246198e-006
-1.208751e-006
-1.158843e-006
-1.097275e-006
-1.025225e-006
-9.442437e-007
-8.562221e-007
-7.633530e-007
-6.680878e-007
-5.730487e-007
-4.808738e-007
-3.940142e-007
-3.145410e-007
-2.440114e-007
-1.834001e-007
-1.330724e-007
-9.279244e-008
-6.178724e-008
-3.888741e-008
-2.271882e-008
-1.188303e-008
-5.076537e-009
-1.150549e-009
8.521834e-010
1.665392e-009
1.793016e-009
1.553720e-009
1.158999e-009
7.700452e-010
4.975474e-010
3.700274e-010
3.312059e-010
2.930236e-010
2.062439e-010
8.842395e-011
-8.138790e-012
-4.898027e-011
-4.064210e-011
-1.333950e-011
8.360332e-012
1.702800e-011
1.450590e-011
3.334994e-012
-1.174399e-011
-2.050947e-011
-1.342100e-011
7.048346e-012
2.502915e-011
-6.220009e-012
-1.762778e-011
-2.061405e-011
2.264360e-012
4.414188e-011
7.157409e-011
5.053832e-011
-1.694135e-011
-8.126426e-011
-7.844871e-011
1.597703e-011
1.642513e-010
3.032254e-010
4.104505e-010
5.346637e-010
7.574986e-010
1.121361e-009
1.587703e-009
2.046905e-009
2.335827e-009
2.206412e-009
1.240873e-009
-1.235045e-009
-6.191180e-009
-1.488680e-008
-2.885734e-008
-4.990743e-008
-8.006879e-008
-1.214663e-007
-1.760870e-007
-2.455139e-007
-3.307073e-007
-4.318712e-007
-5.483930e-007