# vtk DataFile Version 3.0
vtk output
ASCII
DATASET STRUCTURED_POINTS
DIMENSIONS 100 100 1
SPACING 1 1 1
ORIGIN 0 0 0
POINT_DATA 10000
SCALARS SFBox_profile double
LOOKUP_TABLE default 
0.000000e+000
0.000000e+000
0.000000e+000
0.000000e+000
0.000000e+000
0.000000e+000
0.000000e+000
0.000000e+000
0.000000e+000
0.000000e+000
0.000000e+000
0.000000e+000
0.000000e+000
0.000000e+000
0.000000e+000
0.000000e+000
0.000000e+000
0.000000e+000
0.000000e+000
0.000000e+000
0.000000e+000
0.000000e+000
0.000000e+000
0.000000e+000
0.000000e+000
0.000000e+000
0.000000e+000
0.000000e+000
0.000000e+000
0.000000e+000
0.000000e+000
0.000000e+000
0.000000e+000
0.000000e+000
0.000000e+000
0.000000e+000
0.000000e+000
0.000000e+000
0.000000e+000
0.000000e+000
0.000000e+000
0.000000e+000
0.000000e+000
0.000000e+000
0.000000e+000
0.000000e+000
0.000000e+000
0.000000e+000
0.000000e+000
0.000000e+000
0.000000e+000
0.000000e+000
0.000000e+000
0.000000e+000
0.000000e+000
0.000000e+000
0.000000e+000
0.000000e+000
0.000000e+000
0.000000e+000
0.000000e+000
0.000000e+000
0.000000e+000
0.000000e+000
0.000000e+000
0.000000e+000
0.000000e+000
0.000000e+000
0.000000e+000
0.000000e+000
0.000000e+000
0.000000e+000
0.000000e+000
0.000000e+000
0.000000e+000
0.000000e+000
0.000000e+000
0.000000e+000
0.000000e+000
0.000000e+000
0.000000e+000
0.000000e+000
0.000000e+000
0.000000e+000
0.000000e+000
0.000000e+000
0.000000e+000
0.000000e+000
0.000000e+000
0.000000e+000
0.000000e+000
0.000000e+000
0.000000e+000
0.000000e+000
0.000000e+000
0.000000e+000
0.000000e+000
0.000000e+000
0.000000e+000
0.000000e+000
1.656561e-008
1.466054e-008
1.120940e-008
6.848385e-009
2.348474e-009
-1.551301e-009
-4.293198e-009
-5.597266e-009
-5.485007e-009
-4.230419e-009
-2.257819e-009
-1.858115e-011
2.118128e-009
3.932586e-009
5.366216e-009
6.481473e-009
7.388330e-009
8.163887e-009
8.791198e-009
9.135260e-009
8.961378e-009
7.987760e-009
5.954362e-009
2.686127e-009
-1.868424e-009
-7.634049e-009
-1.444088e-008
-2.208092e-008
-3.037100e-008
-3.920195e-008
-4.855825e-008
-5.850039e-008
-6.911424e-008
-8.044145e-008
-9.241217e-008
-1.048011e-007
-1.172218e-007
-1.291633e-007
-1.400591e-007
-1.493691e-007
-1.566533e-007
-1.616167e-007
-1.641186e-007
-1.641505e-007
-1.617978e-007
-1.572019e-007
-1.505397e-007
-1.420218e-007
-1.319067e-007
-1.205138e-007
-1.082246e-007
-9.546242e-008
-8.265435e-008
-7.018599e-008
-5.836544e-008
-4.740798e-008
-3.744483e-008
-2.854937e-008
-2.076679e-008
-1.413319e-008
-8.675801e-009
-4.396187e-009
-1.246777e-009
8.850691e-010
2.174285e-009
2.833906e-009
3.076604e-009
3.075984e-009
2.942354e-009
2.721837e-009
2.418004e-009
2.025772e-009
1.562388e-009
1.081935e-009
6.671403e-010
4.022955e-010
3.393401e-010
4.723396e-010
7.322944e-010
1.005972e-009
1.172652e-009
1.145359e-009
9.011934e-010
4.894856e-010
1.492704e-011
-3.978651e-010
-6.452843e-010
-6.766754e-010
-5.068047e-010
-2.060468e-010
1.263785e-010
3.952787e-010
5.366444e-010
5.307931e-010
3.994186e-010
1.906396e-010
-4.016652e-011
-2.459744e-010
-3.956091e-010
-4.731692e-010
1.145863e-008
1.007999e-008
7.596260e-009
4.490470e-009
1.343815e-009
-1.294027e-009
-3.020009e-009
-3.650405e-009
-3.235658e-009
-2.018177e-009
-3.490433e-010
1.410481e-009
2.974678e-009
4.184241e-009
5.011904e-009
5.526163e-009
5.828047e-009
5.982243e-009
5.963598e-009
5.633731e-009
4.752654e-009
3.019955e-009
1.322316e-010
-4.160059e-009
-1.001174e-008
-1.746791e-008
-2.647670e-008
-3.692358e-008
-4.867474e-008
-6.161437e-008
-7.566249e-008
-9.076580e-008
-1.068624e-007
-1.238307e-007
-1.414377e-007
-1.593064e-007
-1.769140e-007
-1.936262e-007
-2.087626e-007
-2.216746e-007
-2.318183e-007
-2.388040e-007
-2.424135e-007
-2.425881e-007
-2.393985e-007
-2.330123e-007
-2.236722e-007
-2.116893e-007
-1.974470e-007
-1.814044e-007
-1.640878e-007
-1.460637e-007
-1.278966e-007
-1.101017e-007
-9.310632e-008
-7.723150e-008
-6.269584e-008
-4.963677e-008
-3.813651e-008
-2.824049e-008
-1.996122e-008
-1.326874e-008
-8.076280e-009
-4.232746e-009
-1.530688e-009
2.687195e-010
1.400436e-009
2.062057e-009
2.394018e-009
2.480055e-009
2.366077e-009
2.088088e-009
1.696274e-009
1.264514e-009
8.812625e-010
6.261406e-010
5.429978e-010
6.219942e-010
7.997096e-010
9.789071e-010
1.061504e-009
9.827897e-010
7.342165e-010
3.663612e-010
-2.884669e-011
-3.498258e-010
-5.192350e-010
-5.079951e-010
-3.415724e-010
-8.756607e-011
1.695007e-010
3.561580e-010
4.306681e-010
3.901322e-010
2.635647e-010
9.583739e-011
-6.982228e-011
-2.038038e-010
-2.931099e-010
-3.365169e-010
2.933615e-009
2.459063e-009
1.633112e-009
6.697992e-010
-1.815450e-010
-6.998963e-010
-7.469700e-010
-2.983289e-010
5.560145e-010
1.639912e-009
2.738765e-009
3.652174e-009
4.236604e-009
4.426797e-009
4.231189e-009
3.703921e-009
2.901969e-009
1.839123e-009
4.484228e-010
-1.438268e-009
-4.089412e-009
-7.852465e-009
-1.311700e-008
-2.026997e-008
-2.965174e-008
-4.152074e-008
-5.603216e-008
-7.323241e-008
-9.306674e-008
-1.153938e-007
-1.399991e-007
-1.665993e-007
-1.948340e-007
-2.242477e-007
-2.542681e-007
-2.841942e-007
-3.132046e-007
-3.403915e-007
-3.648203e-007
-3.856032e-007
-4.019723e-007
-4.133386e-007
-4.193241e-007
-4.197685e-007
-4.147147e-007
-4.043852e-007
-3.891593e-007
-3.695550e-007
-3.462160e-007
-3.198947e-007
-2.914259e-007
-2.616858e-007
-2.315410e-007
-2.017948e-007
-1.731425e-007
-1.461445e-007
-1.212202e-007
-9.865818e-008
-7.863379e-008
-6.122641e-008
-4.642966e-008
-3.415584e-008
-2.423940e-008
-1.644622e-008
-1.049268e-008
-6.073684e-009
-2.893524e-009
-6.912603e-010
7.465045e-010
1.587713e-009
1.968313e-009
2.009266e-009
1.828428e-009
1.541608e-009
1.252485e-009
1.036508e-009
9.269817e-010
9.109901e-010
9.388298e-010
9.450426e-010
8.741697e-010
7.021592e-010
4.457425e-010
1.565396e-010
-9.765469e-011
-2.572343e-010
-2.916799e-010
-2.094222e-010
-5.345859e-011
1.150599e-010
2.386369e-010
2.823085e-010
2.428030e-010
1.453153e-010
3.017037e-011
-6.455213e-011
-1.171771e-010
-1.279534e-010
-1.144753e-010
-9.991204e-011
-6.209011e-009
-5.653893e-009
-4.600023e-009
-3.153142e-009
-1.455337e-009
3.321965e-010
2.048060e-009
3.548297e-009
4.719910e-009
5.488067e-009
5.815961e-009
5.697708e-009
5.145994e-009
4.176874e-009
2.794062e-009
9.741702e-010
-1.346887e-009
-4.286965e-009
-8.030883e-009
-1.284309e-008
-1.907713e-008
-2.717715e-008
-3.766620e-008
-5.111724e-008
-6.810674e-008
-8.915542e-008
-1.146652e-007
-1.448635e-007
-1.797646e-007
-2.191529e-007
-2.625876e-007
-3.094214e-007
-3.588262e-007
-4.098161e-007
-4.612685e-007
-5.119438e-007
-5.605130e-007
-6.055985e-007
-6.458323e-007
-6.799284e-007
-7.067593e-007
-7.254264e-007
-7.353120e-007
-7.361079e-007
-7.278212e-007
-7.107609e-007
-6.855139e-007
-6.529139e-007
-6.140054e-007
-5.700017e-007
-5.222335e-007
-4.720886e-007
-4.209455e-007
-3.701069e-007
-3.207416e-007
-2.738416e-007
-2.301961e-007
-1.903823e-007
-1.547700e-007
-1.235334e-007
-9.667021e-008
-7.402461e-008
-5.531682e-008
-4.017722e-008
-2.818386e-008
-1.889856e-008
-1.189625e-008
-6.783615e-009
-3.205879e-009
-8.449263e-010
5.859644e-010
1.344952e-009
1.658668e-009
1.713934e-009
1.648155e-009
1.544025e-009
1.433075e-009
1.309249e-009
1.149575e-009
9.358698e-010
6.705945e-010
3.819164e-010
1.168171e-010
-7.459696e-011
-1.573312e-010
-1.252398e-010
-4.960768e-012
1.516215e-010
2.838957e-010
3.422970e-010
3.044247e-010
1.818762e-010
1.540362e-011
-1.398898e-010
-2.340949e-010
-2.399006e-010
-1.617423e-010
-3.352654e-011
9.414194e-011
1.725526e-010
-1.300600e-008
-1.157499e-008
-8.935822e-009
-5.488768e-009
-1.731545e-009
1.835898e-009
4.799532e-009
6.892396e-009
8.016288e-009
8.221847e-009
7.655264e-009
6.487560e-009
4.845260e-009
2.758835e-009
1.382406e-010
-3.224357e-009
-7.633180e-009
-1.346236e-008
-2.113784e-008
-3.113574e-008
-4.399655e-008
-6.034548e-008
-8.090338e-008
-1.064726e-007
-1.378877e-007
-1.759322e-007
-2.212320e-007
-2.741470e-007
-3.346814e-007
-4.024307e-007
-4.765741e-007
-5.559068e-007
-6.389017e-007
-7.237839e-007
-8.086063e-007
-8.913177e-007
-9.698250e-007
-1.042055e-006
-1.106021e-006
-1.159897e-006
-1.202095e-006
-1.231342e-006
-1.246746e-006
-1.247839e-006
-1.234597e-006
-1.207440e-006
-1.167205e-006
-1.115108e-006
-1.052691e-006
-9.817603e-007
-9.043124e-007
-8.224542e-007
-7.383179e-007
-6.539730e-007
-5.713433e-007
-4.921320e-007
-4.177608e-007
-3.493277e-007
-2.875842e-007
-2.329367e-007
-1.854704e-007
-1.449938e-007
-1.110998e-007
-8.323290e-008
-6.075465e-008
-4.299665e-008
-2.929711e-008
-1.902010e-008
-1.156297e-008
-6.359711e-009
-2.887561e-009
-6.801671e-010
6.547597e-010
1.419687e-009
1.821129e-009
1.978338e-009
1.946737e-009
1.750194e-009
1.412507e-009
9.784057e-010
5.181115e-010
1.155396e-010
-1.539077e-010
-2.464729e-010
-1.647375e-010
4.201067e-011
2.922275e-010
4.966426e-010
5.848266e-010
5.253844e-010
3.337420e-010
6.564094e-011
-2.011010e-010
-3.906398e-010
-4.516443e-010
-3.718128e-010
-1.804665e-010
6.110319e-011
2.783715e-010
4.057528e-010
-1.531434e-008
-1.338607e-008
-9.867816e-009
-5.361272e-009
-6.008597e-010
3.699354e-009
6.982965e-009
8.939530e-009
9.524367e-009
8.908676e-009
7.376663e-009
5.198857e-009
2.514705e-009
-7.478986e-010
-4.901308e-009
-1.047641e-008
-1.816636e-008
-2.876018e-008
-4.309030e-008
-6.200981e-008
-8.640087e-008
-1.172012e-007
-1.554251e-007
-2.021542e-007
-2.584789e-007
-3.253884e-007
-4.036220e-007
-4.935086e-007
-5.948285e-007
-7.067268e-007
-8.276956e-007
-9.556274e-007
-1.087926e-006
-1.221652e-006
-1.353678e-006
-1.480836e-006
-1.600039e-006
-1.708380e-006
-1.803217e-006
-1.882232e-006
-1.943495e-006
-1.985504e-006
-2.007235e-006
-2.008159e-006
-1.988265e-006
-1.948060e-006
-1.888549e-006
-1.811217e-006
-1.717989e-006
-1.611183e-006
-1.493444e-006
-1.367672e-006
-1.236920e-006
-1.104289e-006
-9.727929e-007
-8.452362e-007
-7.240807e-007
-6.113406e-007
-5.085062e-007
-4.165119e-007
-3.357520e-007
-2.661413e-007
-2.072079e-007
-1.582017e-007
-1.181988e-007
-8.618706e-008
-6.112531e-008
-4.197975e-008
-2.774563e-008
-1.746645e-008
-1.025859e-008
-5.342179e-009
-2.071682e-009
4.461916e-011
1.345882e-009
2.043915e-009
2.266921e-009
2.109047e-009
1.670478e-009
1.076251e-009
4.699788e-010
-1.191073e-011
-2.728311e-010
-2.811301e-010
-7.681627e-011
2.433595e-010
5.575309e-010
7.563108e-010
7.741364e-010
6.050878e-010
2.997148e-010
-5.429998e-011
-3.602299e-010
-5.401001e-010
-5.545131e-010
-4.101674e-010
-1.546895e-010
1.383395e-010
3.894016e-010
5.329679e-010
-1.248508e-008
-1.054717e-008
-7.049220e-009
-2.658216e-009
1.823406e-009
5.635347e-009
8.214093e-009
9.284803e-009
8.868120e-009
7.202593e-009
4.605227e-009
1.307524e-009
-2.691706e-009
-7.722944e-009
-1.447442e-008
-2.395478e-008
-3.740992e-008
-5.622418e-008
-8.183568e-008
-1.156857e-007
-1.592049e-007
-2.138223e-007
-2.809694e-007
-3.620489e-007
-4.583479e-007
-5.708878e-007
-7.002289e-007
-8.462634e-007
-1.008040e-006
-1.183662e-006
-1.370289e-006
-1.564253e-006
-1.761260e-006
-1.956674e-006
-2.145804e-006
-2.324187e-006
-2.487805e-006
-2.633239e-006
-2.757729e-006
-2.859178e-006
-2.936099e-006
-2.987523e-006
-3.012915e-006
-3.012096e-006
-2.985191e-006
-2.932621e-006
-2.855125e-006
-2.753815e-006
-2.630252e-006
-2.486511e-006
-2.325240e-006
-2.149657e-006
-1.963507e-006
-1.770940e-006
-1.576330e-006
-1.384043e-006
-1.198187e-006
-1.022369e-006
-8.594997e-007
-7.116722e-007
-5.801241e-007
-4.652864e-007
-3.668975e-007
-2.841542e-007
-2.158693e-007
-1.606119e-007
-1.168180e-007
-8.287108e-008
-5.716409e-008
-3.815412e-008
-2.441707e-008
-1.470126e-008
-7.970284e-009
-3.422772e-009
-4.804247e-010
1.255031e-009
2.064557e-009
2.175593e-009
1.807945e-009
1.189824e-009
5.436175e-010
5.247441e-011
-1.746054e-010
-1.219989e-010
1.388659e-010
4.805863e-010
7.651226e-010
8.879668e-010
8.070147e-010
5.484671e-010
1.906976e-010
-1.657228e-010
-4.302720e-010
-5.466091e-010
-5.027920e-010
-3.274504e-010
-7.624688e-011
1.851963e-010
3.965821e-010
5.135814e-010
-5.502425e-009
-4.013289e-009
-1.370706e-009
1.837363e-009
4.913759e-009
7.214216e-009
8.282569e-009
7.920899e-009
6.174503e-009
3.234651e-009
-7.165101e-010
-5.680630e-009
-1.199610e-008
-2.043601e-008
-3.223411e-008
-4.904090e-008
-7.282884e-008
-1.057749e-007
-1.501486e-007
-2.082231e-007
-2.822132e-007
-3.742249e-007
-4.861919e-007
-6.197719e-007
-7.761842e-007
-9.559888e-007
-1.158832e-006
-1.383204e-006
-1.626263e-006
-1.883790e-006
-2.150301e-006
-2.419343e-006
-2.683938e-006
-2.937128e-006
-3.172531e-006
-3.384843e-006
-3.570182e-006
-3.726244e-006
-3.852247e-006
-3.948670e-006
-4.016859e-006
-4.058552e-006
-4.075423e-006
-4.068700e-006
-4.038937e-006
-3.985956e-006
-3.908973e-006
-3.806877e-006
-3.678625e-006
-3.523680e-006
-3.342420e-006
-3.136455e-006
-2.908782e-006
-2.663762e-006
-2.406893e-006
-2.144437e-006
-1.882934e-006
-1.628685e-006
-1.387296e-006
-1.163315e-006
-9.600287e-007
-7.794144e-007
-6.222215e-007
-4.881493e-007
-3.760691e-007
-2.842511e-007
-2.105696e-007
-1.526780e-007
-1.081555e-007
-7.463421e-008
-4.990969e-008
-3.203173e-008
-1.936548e-008
-1.061259e-008
-4.788416e-009
-1.162372e-009
8.208155e-010
1.615518e-009
1.624820e-009
1.215226e-009
7.002812e-010
3.087557e-010
1.580411e-010
2.497107e-010
4.937926e-010
7.557186e-010
9.104685e-010
8.858016e-010
6.812554e-010
3.593610e-010
1.591128e-011
-2.570699e-010
-4.011629e-010
-4.045127e-010
-2.961793e-010
-1.276193e-010
4.893244e-011
1.960143e-010
2.956918e-010
3.445684e-010
3.439573e-009
4.166886e-009
5.395778e-009
6.733961e-009
7.722168e-009
7.942345e-009
7.099222e-009
5.047050e-009
1.748257e-009
-2.830919e-009
-8.866489e-009
-1.683324e-008
-2.763914e-008
-4.271154e-008
-6.402149e-008
-9.404571e-008
-1.356773e-007
-1.921022e-007
-2.666569e-007
-3.626781e-007
-4.833408e-007
-6.314761e-007
-8.093513e-007
-1.018400e-006
-1.258901e-006
-1.529636e-006
-1.827560e-006
-2.147575e-006
-2.482472e-006
-2.823119e-006
-3.158945e-006
-3.478705e-006
-3.771467e-006
-4.027703e-006
-4.240319e-006
-4.405464e-006
-4.522960e-006
-4.596271e-006
-4.631978e-006
-4.638838e-006
-4.626542e-006
-4.604363e-006
-4.579883e-006
-4.557974e-006
-4.540178e-006
-4.524558e-006
-4.506033e-006
-4.477152e-006
-4.429183e-006
-4.353389e-006
-4.242295e-006
-4.090784e-006
-3.896867e-006
-3.662031e-006
-3.391116e-006
-3.091783e-006
-2.773656e-006
-2.447300e-006
-2.123191e-006
-1.810821e-006
-1.518043e-006
-1.250700e-006
-1.012526e-006
-8.052629e-007
-6.289375e-007
-4.822054e-007
-3.627196e-007
-2.674801e-007
-1.931474e-007
-1.363126e-007
-9.371803e-008
-6.242261e-008
-3.990424e-008
-2.409595e-008
-1.336056e-008
-6.420881e-009
-2.270321e-009
-9.153207e-011
7.967175e-010
9.572713e-010
8.248826e-010
6.876603e-010
6.804130e-010
8.037771e-010
9.703401e-010
1.066146e-009
1.008412e-009
7.811223e-010
4.386338e-010
7.982607e-011
-1.938108e-010
-3.177208e-010
-2.856548e-010
-1.458013e-010
2.447486e-011
1.529482e-010
2.007936e-010
1.734118e-010
1.106972e-010
6.270412e-011
1.174560e-008
1.160259e-008
1.123829e-008
1.051630e-008
9.272596e-009
7.340685e-009
4.554589e-009
7.181256e-010
-4.462645e-009
-1.147741e-008
-2.112636e-008
-3.463446e-008
-5.374833e-008
-8.080173e-008
-1.187398e-007
-1.710948e-007
-2.419091e-007
-3.355980e-007
-4.567471e-007
-6.098350e-007
-7.988725e-007
-1.026955e-006
-1.295733e-006
-1.604823e-006
-1.951213e-006
-2.328731e-006
-2.727700e-006
-3.134895e-006
-3.533918e-006
-3.906084e-006
-4.231822e-006
-4.492508e-006
-4.672550e-006
-4.761443e-006
-4.755492e-006
-4.658874e-006
-4.483838e-006
-4.249909e-006
-3.982157e-006
-3.708717e-006
-3.457877e-006
-3.255082e-006
-3.120236e-006
-3.065613e-006
-3.094605e-006
-3.201433e-006
-3.371841e-006
-3.584687e-006
-3.814255e-006
-4.033023e-006
-4.214575e-006
-4.336313e-006
-4.381631e-006
-4.341309e-006
-4.213960e-006
-4.005553e-006
-3.728130e-006
-3.397975e-006
-3.033540e-006
-2.653450e-006
-2.274813e-006
-1.912019e-006
-1.576056e-006
-1.274321e-006
-1.010819e-006
-7.866310e-007
-6.005185e-007
-4.495761e-007
-3.298531e-007
-2.368996e-007
-1.662099e-007
-1.135481e-007
-7.515308e-008
-4.783038e-008
-2.895245e-008
-1.639632e-008
-8.454876e-009
-3.753187e-009
-1.190364e-009
8.858433e-011
7.014022e-010
1.036521e-009
1.278052e-009
1.456111e-009
1.517294e-009
1.398774e-009
1.085256e-009
6.327764e-010
1.550780e-010
-2.179863e-010
-3.905684e-010
-3.378225e-010
-1.144954e-010
1.680066e-010
3.862702e-010
4.529247e-010
3.488610e-010
1.272273e-010
-1.116072e-010
-2.633263e-010
1.730057e-008
1.637058e-008
1.457753e-008
1.202866e-008
8.819953e-009
4.963757e-009
3.018852e-010
-5.587574e-009
-1.348123e-008
-2.459260e-008
-4.064237e-008
-6.391740e-008
-9.731992e-008
-1.444057e-007
-2.094023e-007
-2.971860e-007
-4.131871e-007
-5.631810e-007
-7.529247e-007
-9.876033e-007
-1.271072e-006
-1.604907e-006
-1.987320e-006
-2.412044e-006
-2.867340e-006
-3.335333e-006
-3.791906e-006
-4.207363e-006
-4.548016e-006
-4.778739e-006
-4.866344e-006
-4.783471e-006
-4.512523e-006
-4.049046e-006
-3.404002e-006
-2.604474e-006
-1.692558e-006
-7.224930e-007
2.436820e-007
1.141403e-006
1.909185e-006
2.493920e-006
2.855360e-006
2.969405e-006
2.829993e-006
2.449485e-006
1.857561e-006
1.098710e-006
2.284629e-007
-6.913463e-007
-1.597906e-006
-2.432812e-006
-3.146931e-006
-3.704158e-006
-4.083639e-006
-4.280215e-006
-4.303154e-006
-4.173449e-006
-3.920212e-006
-3.576728e-006
-3.176731e-006
-2.751345e-006
-2.326931e-006
-1.923908e-006
-1.556464e-006
-1.232962e-006
-9.568038e-007
-7.275375e-007
-5.420030e-007
-3.953927e-007
-2.821338e-007
-1.965551e-007
-1.333324e-007
-8.773696e-008
-5.572893e-008
-3.394716e-008
-1.964628e-008
-1.062144e-008
-5.144302e-009
-1.915357e-009
-2.342573e-011
1.102748e-009
1.762143e-009
2.069081e-009
2.049268e-009
1.724600e-009
1.167029e-009
5.103069e-010
-7.791931e-011
-4.476906e-010
-5.183909e-010
-3.079823e-010
7.306159e-011
4.617766e-010
7.019308e-010
7.002848e-010
4.589012e-010
7.171580e-011
-3.129073e-010
-5.492241e-010
1.909286e-008
1.757467e-008
1.470686e-008
1.075399e-008
5.944858e-009
3.052117e-010
-6.515945e-009
-1.539899e-008
-2.786600e-008
-4.614650e-008
-7.320406e-008
-1.127403e-007
-1.691930e-007
-2.477335e-007
-3.542458e-007
-4.952416e-007
-6.776385e-007
-9.083124e-007
-1.193337e-006
-1.536845e-006
-1.939517e-006
-2.396742e-006
-2.896657e-006
-3.418310e-006
-3.930344e-006
-4.390629e-006
-4.747257e-006
-4.941222e-006
-4.910860e-006
-4.597870e-006
-3.954330e-006
-2.949846e-006
-1.577777e-006
1.405541e-007
2.154484e-006
4.385918e-006
6.734385e-006
9.084601e-006
1.131548e-005
1.330943e-005
1.496076e-005
1.618260e-005
1.691177e-005
1.711190e-005
1.677487e-005
1.592092e-005
1.459763e-005
1.287752e-005
1.085424e-005
8.636943e-006
6.343091e-006
4.089913e-006
1.985471e-006
1.203486e-007
-1.438881e-006
-2.653490e-006
-3.513264e-006
-4.034042e-006
-4.252727e-006
-4.220684e-006
-3.996620e-006
-3.639960e-006
-3.205482e-006
-2.739631e-006
-2.278609e-006
-1.848020e-006
-1.463717e-006
-1.133400e-006
-8.585430e-007
-6.363244e-007
-4.613303e-007
-3.269041e-007
-2.261166e-007
-1.523854e-007
-9.981496e-008
-6.333836e-008
-3.874015e-008
-2.261832e-008
-1.232150e-008
-5.875295e-009
-1.896854e-009
5.074548e-010
1.862282e-009
2.453071e-009
2.448358e-009
1.994435e-009
1.266802e-009
4.740870e-010
-1.760756e-010
-5.285514e-010
-5.248007e-010
-2.192571e-010
2.408048e-010
6.664136e-010
8.917166e-010
8.299318e-010
5.010109e-010
2.171563e-011
-4.379012e-010
-7.158846e-010
1.735074e-008
1.544435e-008
1.182208e-008
6.755749e-009
4.021520e-010
-7.440933e-009
-1.758007e-008
-3.163033e-008
-5.215056e-008
-8.270295e-008
-1.278497e-007
-1.931105e-007
-2.849001e-007
-4.104404e-007
-5.776043e-007
-7.945988e-007
-1.069357e-006
-1.408485e-006
-1.815637e-006
-2.289241e-006
-2.819651e-006
-3.385944e-006
-3.952800e-006
-4.468115e-006
-4.862105e-006
-5.048699e-006
-4.929852e-006
-4.403016e-006
-3.371475e-006
-1.756582e-006
4.897166e-007
3.374042e-006
6.854510e-006
1.083906e-005
1.518995e-005
1.973416e-005
2.427808e-005
2.862407e-005
3.258629e-005
3.600311e-005
3.874478e-005
4.071614e-005
4.185542e-005
4.213105e-005
4.153864e-005
4.009967e-005
3.786235e-005
3.490408e-005
3.133362e-005
2.729111e-005
2.294403e-005
1.847841e-005
1.408582e-005
9.947794e-006
6.220282e-006
3.020764e-006
4.201193e-007
-1.559568e-006
-2.941335e-006
-3.784866e-006
-4.175049e-006
-4.209589e-006
-3.987567e-006
-3.600302e-006
-3.125229e-006
-2.622876e-006
-2.136509e-006
-1.693734e-006
-1.309254e-006
-9.880519e-007
-7.284630e-007
-5.247880e-007
-3.693080e-007
-2.536974e-007
-1.699238e-007
-1.107579e-007
-7.001624e-008
-4.263472e-008
-2.463866e-008
-1.304918e-008
-5.745748e-009
-1.299383e-009
1.208629e-009
2.362977e-009
2.564322e-009
2.135225e-009
1.373499e-009
5.570724e-010
-8.386586e-011
-4.047742e-010
-3.724929e-010
-6.387984e-011
3.659393e-010
7.371579e-010
9.040525e-010
8.003521e-010
4.571957e-010
-1.118403e-011
-4.484137e-010
-7.095484e-010
1.314575e-008
1.093230e-008
6.611777e-009
2.661593e-010
-8.281906e-009
-1.976144e-008
-3.574761e-008
-5.890802e-008
-9.316697e-008
-1.437759e-007
-2.172969e-007
-3.215116e-007
-4.652503e-007
-6.580985e-007
-9.098765e-007
-1.229726e-006
-1.624594e-006
-2.096888e-006
-2.641183e-006
-3.239976e-006
-3.858799e-006
-4.441320e-006
-4.905421e-006
-5.141570e-006
-5.014863e-006
-4.371922e-006
-3.053254e-006
-9.106777e-007
2.171768e-006
6.256256e-006
1.133269e-005
1.730731e-005
2.400186e-005
3.116508e-005
3.849597e-005
4.567576e-005
5.240295e-005
5.842476e-005
6.355882e-005
6.770062e-005
7.081605e-005
7.292148e-005
7.405728e-005
7.426202e-005
7.355421e-005
7.192661e-005
6.935429e-005
6.581430e-005
6.131132e-005
5.590240e-005
4.971345e-005
4.294290e-005
3.585054e-005
2.873355e-005
2.189456e-005
1.560824e-005
1.009262e-005
5.490107e-006
1.860369e-006
-8.150544e-007
-2.618849e-006
-3.678368e-006
-4.144381e-006
-4.171571e-006
-3.903171e-006
-3.460884e-006
-2.940070e-006
-2.409345e-006
-1.913289e-006
-1.476875e-006
-1.110442e-006
-8.143694e-007
-5.829726e-007
-4.074535e-007
-2.779566e-007
-1.848764e-007
-1.196062e-007
-7.489492e-008
-4.494123e-008
-2.531881e-008
-1.279762e-008
-5.110361e-009
-7.050331e-010
1.482178e-009
2.208145e-009
2.044906e-009
1.443365e-009
7.518075e-010
2.099635e-010
-5.986420e-011
-4.866436e-011
1.630232e-010
4.453250e-010
6.656895e-010
7.295922e-010
6.051263e-010
3.266137e-010
-2.142087e-011
-3.334575e-010
-5.161554e-010
7.608026e-009
4.949611e-009
-4.670509e-010
-8.976369e-009
-2.139152e-008
-3.931330e-008
-6.544988e-008
-1.038960e-007
-1.603317e-007
-2.421142e-007
-3.582432e-007
-5.191667e-007
-7.363589e-007
-1.021537e-006
-1.385305e-006
-1.834951e-006
-2.371086e-006
-2.982910e-006
-3.642079e-006
-4.295550e-006
-4.858304e-006
-5.207449e-006
-5.179779e-006
-4.575120e-006
-3.167571e-006
-7.259150e-007
2.957154e-006
8.029401e-006
1.454184e-005
2.241670e-005
3.142848e-005
4.120524e-005
5.125489e-005
6.101659e-005
6.993153e-005
7.752186e-005
8.346260e-005
8.763097e-005
9.012089e-005
9.121763e-005
9.133602e-005
9.093407e-005
9.041922e-005
9.006603e-005
8.996186e-005
8.999110e-005
8.986089e-005
8.916317e-005
8.746045e-005
8.437810e-005
7.968444e-005
7.334276e-005
6.552574e-005
5.659122e-005
4.702659e-005
3.737517e-005
2.816020e-005
1.982060e-005
1.266809e-005
6.869468e-006
2.452409e-006
-6.708731e-007
-2.669650e-006
-3.757997e-006
-4.161578e-006
-4.091877e-006
-3.729544e-006
-3.216537e-006
-2.655406e-006
-2.113416e-006
-1.629259e-006
-1.220463e-006
-8.902490e-007
-6.331740e-007
-4.393485e-007
-2.973365e-007
-1.959717e-007
-1.253612e-007
-7.731832e-008
-4.542027e-008
-2.483997e-008
-1.206445e-008
-4.584403e-009
-6.129271e-010
1.133479e-009
1.582613e-009
1.393461e-009
1.004280e-009
6.657753e-010
4.768926e-010
4.298762e-010
4.607969e-010
4.957369e-010
4.828025e-010
4.050682e-010
2.763694e-010
1.272086e-010
-1.038474e-011
-1.125686e-010
-1.661302e-010
1.027259e-009
-2.503866e-009
-1.000161e-008
-2.246013e-008
-4.165974e-008
-7.046465e-008
-1.131464e-007
-1.756839e-007
-2.659883e-007
-3.939915e-007
-5.715177e-007
-8.118089e-007
-1.128507e-006
-1.533800e-006
-2.035356e-006
-2.631630e-006
-3.305220e-006
-4.014231e-006
-4.682116e-006
-5.187305e-006
-5.354854e-006
-4.953321e-006
-3.700633e-006
-1.282622e-006
2.613298e-006
8.249212e-006
1.577596e-005
2.516827e-005
3.616759e-005
4.824756e-005
6.061713e-005
7.227316e-005
8.210600e-005
8.904974e-005
9.225589e-005
9.125820e-005
8.609273e-005
7.734264e-005
6.609168e-005
5.378994e-005
4.205437e-005
3.243903e-005
2.621370e-005
2.418527e-005
2.658655e-005
3.304639e-005
4.264408e-005
5.404096e-005
6.567200e-005
7.597003e-005
8.358742e-005
8.757801e-005
8.750732e-005
8.347358e-005
7.604121e-005
6.610692e-005
5.473134e-005
4.297155e-005
3.174433e-005
2.173770e-005
1.337511e-005
6.825793e-006
2.048005e-006
-1.150316e-006
-3.047654e-006
-3.952301e-006
-4.159280e-006
-3.922855e-006
-3.443521e-006
-2.866345e-006
-2.286799e-006
-1.760431e-006
-1.313478e-006
-9.525960e-007
-6.727362e-007
-4.629502e-007
-3.102823e-007
-2.021251e-007
-1.274396e-007
-7.720820e-008
-4.441561e-008
-2.378480e-008
-1.142766e-008
-4.512377e-009
-9.984536e-010
5.506514e-010
1.094900e-009
1.213689e-009
1.195499e-009
1.132622e-009
1.016684e-009
8.201776e-010
5.479907e-010
2.509193e-010
5.905371e-012
-1.208078e-010
-1.066860e-010
1.479931e-011
1.685218e-010
2.717406e-010
-7.869442e-009
-1.304031e-008
-2.428554e-008
-4.351394e-008
-7.383401e-008
-1.198213e-007
-1.878259e-007
-2.862664e-007
-4.258302e-007
-6.194476e-007
-8.818420e-007
-1.228355e-006
-1.672627e-006
-2.222604e-006
-2.874288e-006
-3.602762e-006
-4.350391e-006
-5.012869e-006
-5.424920e-006
-5.348966e-006
-4.471610e-006
-2.413919e-006
1.238364e-006
6.879906e-006
1.480484e-005
2.510396e-005
3.755163e-005
5.150229e-005
6.582375e-005
7.889819e-005
8.871817e-005
9.309118e-005
8.994212e-005
7.767301e-005
5.551276e-005
2.377817e-005
-1.602178e-005
-6.127383e-005
-1.085309e-004
-1.539130e-004
-1.935621e-004
-2.240712e-004
-2.428311e-004
-2.482656e-004
-2.399573e-004
-2.186724e-004
-1.862931e-004
-1.456540e-004
-1.002768e-004
-5.400778e-005
-1.058952e-005
2.677428e-005
5.578315e-005
7.526229e-005
8.519959e-005
8.659768e-005
8.118508e-005
7.105892e-005
5.833763e-005
4.488546e-005
3.214150e-005
2.105602e-005
1.211489e-005
5.421934e-006
8.084137e-007
-2.055820e-006
-3.566799e-006
-4.115373e-006
-4.042527e-006
-3.618094e-006
-3.037214e-006
-2.428128e-006
-1.865576e-006
-1.385482e-006
-9.982239e-007
-6.992119e-007
-4.764899e-007
-3.156847e-007
-2.028664e-007
-1.259318e-007
-7.504399e-008
-4.254650e-008
-2.264735e-008
-1.105694e-008
-4.672624e-009
-1.334713e-009
3.624884e-010
1.234929e-009
1.671617e-009
1.800206e-009
1.640411e-009
1.220552e-009
6.365481e-010
4.842846e-011
-3.705282e-010
-5.014701e-010
-3.302353e-010
4.428269e-011
4.488242e-010
7.058689e-010
-2.226667e-008
-3.023242e-008
-4.767071e-008
-7.767371e-008
-1.250753e-007
-1.966762e-007
-3.015064e-007
-4.510465e-007
-6.592575e-007
-9.421589e-007
-1.316547e-006
-1.797277e-006
-2.392364e-006
-3.095079e-006
-3.872354e-006
-4.649287e-006
-5.290604e-006
-5.581582e-006
-5.213178e-006
-3.778530e-006
-7.900953e-007
4.272556e-006
1.187558e-005
2.230013e-005
3.547210e-005
5.076874e-005
6.683447e-005
8.145496e-005
9.155030e-005
9.334681e-005
8.276189e-005
5.598767e-005
1.019444e-005
-5.578345e-005
-1.409452e-004
-2.419526e-004
-3.533692e-004
-4.682874e-004
-5.792067e-004
-6.789544e-004
-7.614329e-004
-8.220489e-004
-8.578073e-004
-8.671754e-004
-8.498880e-004
-8.068448e-004
-7.401619e-004
-6.533160e-004
-5.512319e-004
-4.401479e-004
-3.271625e-004
-2.194870e-004
-1.235546e-004
-4.420028e-005
1.588370e-005
5.629685e-005
7.867700e-005
8.614162e-005
8.258292e-005
7.198402e-005
5.788451e-005
4.305856e-005
2.940400e-005
1.799600e-005
9.241036e-006
3.071084e-006
-8.671290e-007
-3.054639e-006
-3.986162e-006
-4.099648e-006
-3.742736e-006
-3.166170e-006
-2.533868e-006
-1.940910e-006
-1.433118e-006
-1.024484e-006
-7.107550e-007
-4.789328e-007
-3.132504e-007
-1.984807e-007
-1.214476e-007
-7.146283e-008
-4.021444e-008
-2.144360e-008
-1.059161e-008
-4.485086e-009
-1.062629e-009
8.792806e-010
1.938131e-009
2.351354e-009
2.212844e-009
1.628429e-009
7.875145e-010
-4.999431e-011
-6.267752e-010
-7.784672e-010
-4.961801e-010
6.939834e-011
6.667979e-010
1.042928e-009
-4.720996e-008
-5.958444e-008
-8.658563e-008
-1.327780e-007
-2.051590e-007
-3.133252e-007
-4.696253e-007
-6.891506e-007
-9.892709e-007