# vtk DataFile Version 3.0
vtk output
ASCII
DATASET STRUCTURED_POINTS
DIMENSIONS 100 100 1
SPACING 1 1 1
ORIGIN 0 0 0
POINT_DATA 10000
SCALARS SFBox_profile double
LOOKUP_TABLE default 
0.000000e+000
0.000000e+000
0.000000e+000
0.000000e+000
0.000000e+000
0.000000e+000
0.000000e+000
0.000000e+000
0.000000e+000
0.000000e+000
0.000000e+000
0.000000e+000
0.000000e+000
0.000000e+000
0.000000e+000
0.000000e+000
0.000000e+000
0.000000e+000
0.000000e+000
0.000000e+000
0.000000e+000
0.000000e+000
0.000000e+000
0.000000e+000
0.000000e+000
0.000000e+000
0.000000e+000
0.000000e+000
0.000000e+000
0.000000e+000
0.000000e+000
0.000000e+000
0.000000e+000
0.000000e+000
0.000000e+000
0.000000e+000
0.000000e+000
0.000000e+000
0.000000e+000
0.000000e+000
0.000000e+000
0.000000e+000
0.000000e+000
0.000000e+000
0.000000e+000
0.000000e+000
0.000000e+000
0.000000e+000
0.000000e+000
0.000000e+000
0.000000e+000
0.000000e+000
0.000000e+000
0.000000e+000
0.000000e+000
0.000000e+000
0.000000e+000
0.000000e+000
0.000000e+000
0.000000e+000
0.000000e+000
0.000000e+000
0.000000e+000
0.000000e+000
0.000000e+000
0.000000e+000
0.000000e+000
0.000000e+000
0.000000e+000
0.000000e+000
0.000000e+000
0.000000e+000
0.000000e+000
0.000000e+000
0.000000e+000
0.000000e+000
0.000000e+000
0.000000e+000
0.000000e+000
0.000000e+000
0.000000e+000
0.000000e+000
0.000000e+000
0.000000e+000
0.000000e+000
0.000000e+000
0.000000e+000
0.000000e+000
0.000000e+000
0.000000e+000
0.000000e+000
0.000000e+000
0.000000e+000
0.000000e+000
0.000000e+000
0.000000e+000
0.000000e+000
0.000000e+000
0.000000e+000
0.000000e+000
2.012623e-009
8.623807e-010
-6.587074e-010
-1.657518e-009
-1.634798e-009
-7.181661e-010
4.884471e-010
1.310604e-009
1.392394e-009
8.350593e-010
3.864770e-011
-5.994257e-010
-9.028202e-010
-9.236738e-010
-7.902524e-010
-5.592743e-010
-2.001826e-010
3.016421e-010
8.469567e-010
1.239520e-009
1.309920e-009
1.034825e-009
5.460928e-010
2.762625e-011
-4.042561e-010
-7.387033e-010
-1.014004e-009
-1.239401e-009
-1.372797e-009
-1.364472e-009
-1.211246e-009
-9.643690e-010
-6.886534e-010
-4.181473e-010
-1.493250e-010
1.306924e-010
4.162397e-010
6.827663e-010
9.080955e-010
1.089129e-009
1.238156e-009
1.366823e-009
1.476166e-009
1.560486e-009
1.617089e-009
1.650504e-009
1.668796e-009
1.678194e-009
1.681387e-009
1.678837e-009
1.669981e-009
1.653903e-009
1.630934e-009
1.604200e-009
1.577750e-009
1.551115e-009
1.516246e-009
1.462585e-009
1.386919e-009
1.296562e-009
1.199402e-009
1.089957e-009
9.487408e-010
7.600282e-010
5.308821e-010
2.884358e-010
5.428603e-011
-1.767657e-010
-4.256524e-010
-6.914731e-010
-9.272233e-010
-1.061692e-009
-1.053153e-009
-9.217143e-010
-7.235802e-010
-4.913626e-010
-2.064088e-010
1.587173e-010
5.651292e-010
8.827201e-010
9.592807e-010
7.356346e-010
3.051427e-010
-1.412858e-010
-4.409528e-010
-5.483849e-010
-5.177595e-010
-4.114837e-010
-2.350515e-010
3.491057e-011
3.629625e-010
6.098139e-010
5.999138e-010
2.648120e-010
-2.582837e-010
-6.742009e-010
-7.129559e-010
-3.231045e-010
2.713203e-010
7.038742e-010
3.542143e-010
1.380540e-010
-1.389658e-010
-2.992167e-010
-2.505358e-010
-3.990720e-011
1.805508e-010
2.567674e-010
1.388382e-010
-8.399415e-011
-2.475764e-010
-2.319422e-010
-4.694733e-011
1.801510e-010
3.029688e-010
2.600481e-010
1.036396e-010
-6.091395e-011
-1.640027e-010
-2.106462e-010
-2.447698e-010
-2.847579e-010
-2.972230e-010
-2.315224e-010
-7.556342e-011
1.246468e-010
2.993868e-010
4.074958e-010
4.569272e-010
4.798942e-010
4.936399e-010
4.864686e-010
4.374542e-010
3.437356e-010
2.262701e-010
1.114377e-010
1.052179e-011
-8.269307e-011
-1.777299e-010
-2.742109e-010
-3.623885e-010
-4.335649e-010
-4.875741e-010
-5.306026e-010
-5.679865e-010
-6.002544e-010
-6.249627e-010
-6.404389e-010
-6.473592e-010
-6.480237e-010
-6.452076e-010
-6.410934e-010
-6.357704e-010
-6.263543e-010
-6.089119e-010
-5.826497e-010
-5.517322e-010
-5.210329e-010
-4.891060e-010
-4.468945e-010
-3.859293e-010
-3.083531e-010
-2.265029e-010
-1.500172e-010
-7.396827e-011
1.650558e-011
1.267808e-010
2.391029e-010
3.226134e-010
3.599065e-010
3.620706e-010
3.533404e-010
3.395516e-010
2.959723e-010
1.928534e-010
3.592645e-011
-1.218137e-010
-2.152307e-010
-2.188627e-010
-1.648378e-010
-1.082101e-010
-7.425886e-011
-4.148991e-011
2.239795e-011
1.100446e-010
1.652745e-010
1.307594e-010
9.387754e-012
-1.220446e-010
-1.667791e-010
-8.697437e-011
6.051782e-011
1.643952e-010
1.442166e-010
1.276371e-011
-1.332326e-010
-1.856655e-010
-1.049403e-010
5.180939e-011
1.729804e-010
-1.600011e-009
-6.961118e-010
5.018434e-010
1.301944e-009
1.322161e-009
6.525676e-010
-2.743465e-010
-9.787512e-010
-1.187486e-009
-9.090561e-010
-3.381950e-010
2.946653e-010
8.162690e-010
1.118297e-009
1.132323e-009
8.317679e-010
2.654952e-010
-4.237908e-010
-1.037509e-009
-1.403384e-009
-1.445713e-009
-1.196524e-009
-7.506324e-010
-2.088161e-010
3.503353e-010
8.661997e-010
1.284943e-009
1.562703e-009
1.679601e-009
1.646150e-009
1.492774e-009
1.251922e-009
9.484549e-010
6.027442e-010
2.372557e-010
-1.236310e-010
-4.604864e-010
-7.640842e-010
-1.033325e-009
-1.268742e-009
-1.468594e-009
-1.630465e-009
-1.755003e-009
-1.847042e-009
-1.913179e-009
-1.958694e-009
-1.986610e-009
-1.998941e-009
-1.998321e-009
-1.988503e-009
-1.973473e-009
-1.955835e-009
-1.935590e-009
-1.910452e-009
-1.877825e-009
-1.836739e-009
-1.787433e-009
-1.728412e-009
-1.654099e-009
-1.556432e-009
-1.429579e-009
-1.272729e-009
-1.087370e-009
-8.720148e-010
-6.214648e-010
-3.333928e-010
-1.621434e-011
3.104133e-010
6.232022e-010
9.018560e-010
1.126471e-009
1.269636e-009
1.296403e-009
1.178917e-009
9.157361e-010
5.383825e-010
9.990523e-011
-3.406050e-010
-7.210718e-010
-9.700920e-010
-1.013527e-009
-8.089016e-010
-3.902264e-010
1.179576e-010
5.435736e-010
7.474239e-010
6.871456e-010
4.226876e-010
6.920115e-011
-2.587775e-010
-4.746474e-010
-5.210250e-010
-3.749512e-010
-7.224526e-011
2.733696e-010
4.979238e-010
4.709722e-010
1.877316e-010
-2.044893e-010
-4.820362e-010
-2.259101e-009
-9.399274e-010
7.758428e-010
1.852078e-009
1.752187e-009
6.871096e-010
-6.133882e-010
-1.408110e-009
-1.376904e-009
-7.175567e-010
9.473024e-011
6.594852e-010
8.536396e-010
7.844837e-010
6.009874e-010
3.562632e-010
2.435635e-011
-3.869241e-010
-7.664534e-010
-9.513846e-010
-8.489458e-010
-5.104986e-010
-9.154464e-011
2.597447e-010
4.852814e-010
6.115167e-010
6.832412e-010
7.103886e-010
6.713251e-010
5.527698e-010
3.763526e-010
1.865319e-010
1.834502e-011
-1.205202e-010
-2.402175e-010
-3.479828e-010
-4.388549e-010
-5.032859e-010
-5.388644e-010
-5.527193e-010
-5.542316e-010
-5.477595e-010
-5.326056e-010
-5.081633e-010
-4.773958e-010
-4.453448e-010
-4.155434e-010
-3.887808e-010
-3.650257e-010
-3.455131e-010
-3.323396e-010
-3.264058e-010
-3.266628e-010
-3.318387e-010
-3.423789e-010
-3.596742e-010
-3.830032e-010
-4.080864e-010
-4.299423e-010
-4.473085e-010
-4.627432e-010
-4.767069e-010
-4.819113e-010
-4.659932e-010
-4.217943e-010
-3.539670e-010
-2.722028e-010
-1.766858e-010
-5.384815e-011
1.073771e-010
2.924495e-010
4.581833e-010
5.594903e-010
5.819391e-010
5.442050e-010
4.641065e-010
3.258826e-010
9.382348e-011
-2.289939e-010
-5.547398e-010
-7.381498e-010
-6.723656e-010
-3.756119e-010
1.217865e-011
3.254688e-010
4.782728e-010
4.875843e-010
4.066582e-010
2.499065e-010
-3.826316e-012
-3.310950e-010
-6.012669e-010
-6.249666e-010
-3.031805e-010
2.452040e-010
7.084329e-010
7.750558e-010
3.641244e-010
-2.884449e-010
-7.703392e-010
-1.106977e-009
-4.037373e-010
4.724600e-010
9.371427e-010
7.273197e-010
4.892166e-011
-5.907087e-010
-7.457342e-010
-3.377916e-010
3.080912e-010
7.158448e-010
6.050861e-010
7.302350e-011
-5.111979e-010
-7.941635e-010
-6.707532e-010
-2.945847e-010
1.006716e-010
3.875550e-010
5.837144e-010
7.468045e-010
8.594924e-010
8.247750e-010
5.649784e-010
1.138858e-010
-3.916121e-010
-8.072478e-010
-1.069919e-009
-1.204092e-009
-1.258698e-009
-1.247903e-009
-1.149176e-009
-9.451900e-010
-6.562943e-010
-3.311431e-010
-1.169521e-011
2.888930e-010
5.777293e-010
8.591530e-010
1.123482e-009
1.355360e-009
1.547752e-009
1.705493e-009
1.837196e-009
1.946718e-009
2.032823e-009
2.094643e-009
2.134976e-009
2.158240e-009
2.167138e-009
2.162612e-009
2.146134e-009
2.119915e-009
2.083986e-009
2.034491e-009
1.966957e-009
1.881492e-009
1.782591e-009
1.671728e-009
1.540929e-009
1.377127e-009
1.175383e-009
9.462679e-010
7.061374e-010
4.587492e-010
1.908536e-010
-1.073947e-010
-4.157855e-010
-6.832748e-010
-8.614320e-010
-9.405010e-010
-9.467717e-010
-8.992426e-010
-7.736444e-010
-5.233535e-010
-1.477925e-010
2.616543e-010
5.589861e-010
6.444276e-010
5.374407e-010
3.489322e-010
1.779341e-010
3.661242e-011
-1.202280e-010
-2.963648e-010
-4.011685e-010
-3.166157e-010
-3.135780e-011
2.957850e-010
4.293867e-010
2.476370e-010
-1.349385e-010
-4.331265e-010
-4.074370e-010
-5.933473e-011
3.575036e-010
5.260573e-010
3.095470e-010
-1.403230e-010
-4.949463e-010
9.138277e-010
4.440277e-010
-2.003580e-010
-6.889092e-010
-8.268787e-010
-6.035401e-010
-1.325234e-010
4.234390e-010
8.820034e-010
1.052669e-009
7.948226e-010
1.242029e-010
-7.228150e-010
-1.365232e-009
-1.483212e-009
-1.014738e-009
-1.885058e-010
6.347794e-010
1.183385e-009
1.387448e-009
1.323633e-009
1.081931e-009
6.927016e-010
1.642206e-010
-4.402752e-010
-9.877830e-010
-1.345669e-009
-1.464998e-009
-1.394781e-009
-1.219976e-009
-9.902459e-010
-7.046002e-010
-3.515535e-010
4.932134e-011
4.485352e-010
8.022199e-010
1.099875e-009
1.357863e-009
1.591863e-009
1.799732e-009
1.968632e-009
2.092531e-009
2.179170e-009
2.241823e-009
2.288253e-009
2.318842e-009
2.332768e-009
2.332770e-009
2.323695e-009
2.308926e-009
2.290133e-009
2.269446e-009
2.249135e-009
2.228143e-009
2.200957e-009
2.162587e-009
2.114577e-009
2.063059e-009
2.008381e-009
1.938124e-009
1.834669e-009
1.691845e-009
1.521130e-009
1.336309e-009
1.131248e-009
8.787962e-010
5.590334e-010
1.897546e-010
-1.769799e-010
-4.941121e-010
-7.530890e-010
-9.699835e-010
-1.134323e-009
-1.179976e-009
-1.023632e-009
-6.452681e-010
-1.317083e-010
3.668805e-010
7.302873e-010
9.214765e-010
9.537361e-010
8.224361e-010
4.942830e-010
-1.822868e-011
-5.763752e-010
-9.379367e-010
-9.018627e-010
-4.671094e-010
1.360739e-010
5.845678e-010
6.693632e-010
4.142065e-010
2.693068e-011
-2.606563e-010
-3.348653e-010
-2.325297e-010
-7.032702e-011
5.268657e-011
1.067347e-010
1.175897e-010
2.216911e-009
8.954206e-010
-7.816043e-010
-1.772417e-009
-1.611219e-009
-5.942420e-010
5.509565e-010
1.198190e-009
1.159437e-009
6.511955e-010
2.404091e-011
-4.760808e-010
-7.586532e-010
-8.054971e-010
-6.074135e-010
-1.951409e-010
3.018158e-010
6.768542e-010
7.634014e-010
5.474867e-010
1.689122e-010
-1.889625e-010
-4.171109e-010
-5.085933e-010
-4.980191e-010
-3.966211e-010
-1.907225e-010
1.114154e-010
4.516047e-010
7.500831e-010
9.596668e-010
1.088223e-009
1.170651e-009
1.225854e-009
1.243805e-009
1.208852e-009
1.126626e-009
1.024315e-009
9.279993e-010
8.444280e-010
7.648291e-010
6.819247e-010
5.997225e-010
5.281616e-010
4.725160e-010
4.302111e-010
3.960855e-010
3.677407e-010
3.454470e-010
3.294898e-010
3.198156e-010
3.174237e-010
3.234724e-010
3.361610e-010
3.506866e-010
3.648519e-010
3.842318e-010
4.185087e-010
4.705271e-010
5.309023e-010
5.873981e-010
6.405232e-010
7.056626e-010
7.946850e-010
8.953099e-010
9.738994e-010
1.003044e-009
9.843647e-010
9.379520e-010
8.675311e-010
7.433027e-010
5.299497e-010
2.358057e-010
-7.118074e-011
-3.041477e-010
-4.160025e-010
-4.155915e-010
-3.291624e-010
-1.604192e-010
9.392185e-011
3.853323e-010
5.881950e-010
5.636328e-010
2.737136e-010
-1.599433e-010
-5.199179e-010
-6.336197e-010
-4.743025e-010
-1.485292e-010
1.955878e-010
4.451652e-010
5.338963e-010
4.241263e-010
1.216804e-010
-2.773201e-010
-5.803270e-010
-5.910218e-010
-2.578259e-010
2.483119e-010
6.199272e-010
1.851583e-009
6.088323e-010
-8.756744e-010
-1.557643e-009
-1.072795e-009
8.614618e-011
1.013780e-009
1.081093e-009
3.477755e-010
-5.703673e-010
-1.014002e-009
-7.439199e-010
-2.432481e-011
6.626652e-010
9.796183e-010
8.862038e-010
5.327280e-010
7.115659e-011
-4.243215e-010
-8.991089e-010
-1.244005e-009
-1.316955e-009
-1.043415e-009
-4.849363e-010
1.970021e-010
8.437261e-010
1.371844e-009
1.765350e-009
2.023965e-009
2.134957e-009
2.090390e-009
1.914472e-009
1.660706e-009
1.380697e-009
1.099502e-009
8.207348e-010
5.488532e-010
3.003912e-010
9.413688e-011
-6.415425e-011
-1.837248e-010
-2.770460e-010
-3.490115e-010
-3.975885e-010
-4.217945e-010
-4.264066e-010
-4.195290e-010
-4.079122e-010
-3.952746e-010
-3.832825e-010
-3.722964e-010
-3.616973e-010
-3.515018e-010
-3.442089e-010
-3.432070e-010
-3.475617e-010
-3.492461e-010
-3.382359e-010
-3.113374e-010
-2.736021e-010
-2.280620e-010
-1.646584e-010
-6.347510e-011
8.799428e-011
2.823445e-010
5.004657e-010
7.316588e-010
9.792705e-010
1.240208e-009
1.480156e-009
1.637399e-009
1.658137e-009
1.527768e-009
1.264626e-009
8.884409e-010
4.109014e-010
-1.291782e-010
-6.263990e-010
-9.295405e-010
-9.313059e-010
-6.535557e-010
-2.419935e-010
1.324314e-010
3.738579e-010
4.735450e-010
4.443785e-010
2.761085e-010
-2.119729e-011
-3.385437e-010
-4.774178e-010
-2.932685e-010
1.392709e-010
5.189829e-010
5.279239e-010
1.065040e-010
-4.538067e-010
-7.139158e-010
-4.409905e-010
1.832244e-010
6.890901e-010
1.791441e-010
-1.283638e-010
-3.947924e-010
-2.864157e-010
2.135288e-010
7.477145e-010
8.361814e-010
2.660752e-010
-6.836576e-010
-1.388501e-009
-1.316785e-009
-4.311317e-010
7.672687e-010
1.589887e-009
1.626334e-009
9.655227e-010
4.064833e-011
-7.188673e-010
-1.125611e-009
-1.216270e-009
-1.082316e-009
-7.551068e-010
-2.373520e-010
4.029449e-010
1.011030e-009
1.429284e-009
1.597501e-009
1.570410e-009
1.447684e-009
1.295788e-009
1.130606e-009
9.540335e-010
7.875525e-010
6.664149e-010
6.109124e-010
6.127125e-010
6.491316e-010
7.049438e-010
7.781123e-010
8.689464e-010
9.699972e-010
1.068327e-009
1.154859e-009
1.228883e-009
1.293991e-009
1.351712e-009
1.399625e-009
1.434233e-009
1.454410e-009
1.462412e-009
1.462324e-009
1.457219e-009
1.446707e-009
1.427108e-009
1.395052e-009
1.351445e-009
1.300700e-009
1.244630e-009
1.177855e-009
1.092013e-009
9.860340e-010
8.704992e-010
7.592244e-010
6.574939e-010
5.633472e-010
4.833402e-010
4.428559e-010
4.723084e-010
5.787734e-010
7.350838e-010
9.023448e-010
1.060057e-009
1.202487e-009
1.298887e-009
1.268982e-009
1.023759e-009
5.517566e-010
-3.374997e-011
-5.479005e-010
-8.488163e-010
-9.059042e-010
-7.624783e-010
-4.533020e-010
8.770986e-012
5.493893e-010
9.624710e-010
9.861816e-010
5.139445e-010
-2.438407e-010
-8.377771e-010
-8.873665e-010
-3.811412e-010
2.961548e-010
6.547027e-010
4.780373e-010
-2.386762e-011
-4.098676e-010
-3.802287e-010
-1.207981e-011
3.318970e-010
-1.533782e-009
-6.884073e-010
4.031177e-010
1.111042e-009
1.155553e-009
6.669116e-010
-2.583680e-011
-6.275573e-010
-9.553683e-010
-9.059952e-010
-4.593235e-010
2.438934e-010
8.753481e-010
1.066962e-009
6.708474e-010
-9.272774e-011
-7.622032e-010
-9.544554e-010
-6.130513e-010
1.115539e-011
5.951719e-010
9.650414e-010
1.129250e-009
1.156512e-009
1.064291e-009
8.283596e-010
4.690266e-010
9.319842e-011
-1.612597e-010
-2.175720e-010
-9.481217e-011
1.376055e-010
4.265461e-010
7.572435e-010
1.125709e-009
1.507165e-009
1.857461e-009
2.139595e-009
2.342321e-009
2.473815e-009
2.543331e-009
2.552429e-009
2.501242e-009
2.397927e-009
2.259395e-009
2.103866e-009
1.944371e-009
1.789206e-009
1.646937e-009
1.529436e-009
1.449419e-009
1.414855e-009
1.425787e-009
1.476817e-009
1.562618e-009
1.679962e-009
1.822895e-009
1.976097e-009
2.115594e-009
2.218756e-009
2.273392e-009
2.274255e-009
2.210215e-009
2.060307e-009
1.810315e-009
1.475806e-009
1.103240e-009
7.416183e-010
4.142760e-010
1.268542e-010
-9.413214e-011
-1.833277e-010
-7.872189e-011
2.052232e-010
5.526959e-010
8.116081e-010
8.945231e-010
8.153341e-010
6.290917e-010
3.550779e-010
-1.312448e-011
-4.140323e-010
-6.664049e-010
-5.678619e-010
-9.099104e-011
5.147087e-010
8.548842e-010
6.809335e-010
9.547265e-011
-5.143214e-010
-7.657152e-010
-5.504127e-010
-7.440063e-011
3.341774e-010
4.663160e-010
3.351820e-010
1.001412e-010
-8.452462e-011
-1.657343e-010
-1.808166e-010
-2.151152e-009
-6.562015e-010
1.063705e-009
1.755694e-009
1.102609e-009
-1.896423e-010
-1.086246e-009
-1.039333e-009
-2.770630e-010
5.437551e-010
9.021112e-010
7.050397e-010
1.768382e-010
-4.103412e-010
-8.745358e-010
-1.084823e-009
-9.136097e-010
-3.089847e-010
5.859787e-010
1.439528e-009
1.913389e-009
1.875058e-009
1.452054e-009
8.954722e-010
3.982193e-010
2.793489e-011
-2.083490e-010
-2.816817e-010
-1.414383e-010
2.176016e-010
7.137252e-010
1.215293e-009
1.616589e-009
1.876500e-009
1.993972e-009
1.962127e-009
1.753822e-009
1.345555e-009
7.442839e-010
-1.340657e-011
-8.842637e-010
-1.836096e-009
-2.844985e-009
-3.881825e-009
-4.906616e-009
-5.875889e-009
-6.753089e-009
-7.510698e-009
-8.124255e-009
-8.567610e-009
-8.816112e-009
-8.854548e-009
-8.680930e-009
-8.302158e-009
-7.727447e-009
-6.968830e-009
-6.049759e-009
-5.011482e-009
-3.906812e-009
-2.785182e-009
-1.685547e-009
-6.469026e-010
2.764452e-010
1.018957e-009
1.532174e-009
1.810293e-009
1.881953e-009
1.774146e-009
1.492488e-009
1.050145e-009
5.187452e-010
3.596294e-011
-2.584659e-010
-3.054652e-010
-1.451697e-010
1.446578e-010
5.130180e-010
9.209999e-010
1.268628e-009
1.376281e-009
1.092878e-009
4.548380e-010
-2.706902e-010
-7.376646e-010
-7.572184e-010
-4.148056e-010
2.499343e-011
3.214661e-010
3.853213e-010
2.573116e-010
2.287154e-011
-2.240811e-010
-3.668047e-010
-2.911910e-010
1.360358e-011
3.782360e-010
5.297787e-010
3.082024e-010
-1.644641e-010
-5.464407e-010
-1.434327e-009
-1.466444e-010
1.176534e-009
1.362480e-009
2.885095e-010
-1.086864e-009
-1.584835e-009
-7.864238e-010
6.775543e-010
1.699765e-009
1.582929e-009
4.985863e-010
-7.746373e-010
-1.498442e-009
-1.430832e-009
-8.022245e-010
1.103974e-011
7.483377e-010
1.286711e-009
1.542661e-009
1.450368e-009
1.047388e-009
5.304230e-010
1.711591e-010
1.496034e-010
4.595219e-010
9.609861e-010
1.503570e-009
1.992688e-009
2.360099e-009
2.509481e-009
2.317487e-009
1.688962e-009
5.997316e-010
-9.182492e-010
-2.825516e-009
-5.101802e-009
-7.729406e-009
-1.066259e-008
-1.382135e-008
-1.711351e-008
-2.045792e-008
-2.378594e-008
-2.702684e-008
-3.009868e-008
-3.291507e-008
-3.539845e-008
-3.748496e-008
-3.911885e-008
-4.024699e-008
-4.082280e-008
-4.081602e-008
-4.021740e-008
-3.903397e-008
-3.728324e-008
-3.499683e-008
-3.223185e-008
-2.907587e-008
-2.563528e-008
-2.201634e-008
-1.831914e-008
-1.465065e-008
-1.113693e-008
-7.909625e-009
-5.070539e-009
-2.669646e-009
-7.231786e-010
7.476981e-010
1.707950e-009
2.150198e-009
2.144504e-009
1.834402e-009
1.374020e-009
8.726159e-010
4.071666e-010
7.642272e-011
4.718202e-012
2.532147e-010
7.174787e-010
1.138858e-009
1.257140e-009
9.821619e-010
4.334627e-010
-1.698173e-010
-6.414553e-010
-8.655835e-010
-7.664066e-010
-3.274979e-010
3.127378e-010
8.251946e-010
8.559101e-010
3.249600e-010
-4.209260e-010
-8.196627e-010
-5.523655e-010
1.529588e-010
6.875720e-010
5.893783e-010
-3.874952e-011
-6.171356e-010
-8.086418e-012
3.646139e-010
5.995500e-010
2.669345e-010
-5.284540e-010
-1.172083e-009
-1.044583e-009
-8.987089e-011
1.058207e-009
1.541953e-009
9.716384e-010
-2.450720e-010
-1.223718e-009
-1.295931e-009
-4.852263e-010
5.997251e-010
1.292023e-009
1.325728e-009
8.880778e-010
3.416986e-010
-5.297366e-011
-1.954449e-010
-4.624940e-011
4.328886e-010
1.219588e-009
2.150058e-009
2.941167e-009
3.310037e-009
3.074545e-009
2.150398e-009
4.794102e-010
-2.015595e-009
-5.407024e-009
-9.714274e-009
-1.489322e-008
-2.086933e-008
-2.756865e-008
-3.491221e-008
-4.278834e-008
-5.104115e-008
-5.948929e-008
-6.795308e-008
-7.626348e-008
-8.425179e-008
-9.174072e-008
-9.855074e-008
-1.045152e-007
-1.094885e-007
-1.133422e-007
-1.159616e-007
-1.172500e-007
-1.171411e-007
-1.156049e-007
-1.126460e-007
-1.083006e-007
-1.026448e-007
-9.580765e-008
-8.797356e-008
-7.936633e-008
-7.022694e-008
-6.080559e-008
-5.136883e-008
-4.219827e-008
-3.356126e-008
-2.566789e-008
-1.865254e-008
-1.259688e-008
-7.563883e-009
-3.597393e-009
-6.855787e-010
1.261719e-009
2.381074e-009
2.797984e-009
2.616616e-009
1.980246e-009
1.130122e-009
3.685166e-010
-7.162308e-011
-1.356544e-010
6.899437e-011
3.847706e-010
6.835192e-010
8.482276e-010
7.420835e-010
2.865461e-010
-3.830229e-010
-8.839564e-010
-8.190520e-010
-1.394582e-010
7.111753e-010
1.086871e-009
6.724130e-010
-2.149075e-010
-8.664702e-010
-7.846076e-010
-1.087699e-010
5.281657e-010
5.832394e-010
8.632884e-011
-4.209016e-010
1.260044e-009
4.915164e-010
-4.325507e-010
-9.137014e-010
-7.723631e-010
-2.459956e-010
2.971774e-010
6.000716e-010
5.581342e-010
1.783435e-010
-3.946113e-010
-8.389109e-010
-7.773181e-010
-7.019126e-011
9.737846e-010
1.735804e-009
1.728166e-009
9.729980e-010
-1.690831e-011
-6.263252e-010
-5.426799e-010
1.388458e-010
1.106594e-009
2.063696e-009
2.789748e-009
3.057988e-009
2.574224e-009
1.027535e-009
-1.815640e-009
-6.087609e-009
-1.188209e-008
-1.931806e-008
-2.853009e-008
-3.960235e-008
-5.251890e-008
-6.716929e-008
-8.338159e-008
-1.009368e-007
-1.195575e-007
-1.388999e-007
-1.585733e-007
-1.781729e-007
-1.973023e-007
-2.155732e-007
-2.326012e-007
-2.480122e-007
-2.614568e-007
-2.726219e-007
-2.812303e-007
-2.870403e-007
-2.898528e-007
-2.895256e-007
-2.859831e-007
-2.792204e-007
-2.693086e-007
-2.564084e-007
-2.407861e-007
-2.228144e-007
-2.029548e-007
-1.817342e-007
-1.597315e-007
-1.375689e-007
-1.158834e-007
-9.526930e-008
-7.621870e-008
-5.909415e-008
-4.413939e-008
-3.149167e-008
-2.116706e-008
-1.304198e-008
-6.882562e-009
-2.429771e-009
5.264917e-010
2.158061e-009
2.680628e-009
2.407256e-009
1.699945e-009
8.666558e-010
1.189631e-010
-3.767902e-010
-4.607644e-010
-6.527819e-011
6.325154e-010
1.199823e-009
1.202688e-009
5.656633e-010
-3.032668e-010
-7.991196e-010
-6.075835e-010
3.783119e-011
5.691415e-010
5.742792e-010
1.206599e-010
-3.593872e-010
-4.799850e-010
-2.183559e-010
1.268672e-010
2.504311e-010
1.127326e-010
-6.878969e-011
1.838815e-009
2.368971e-010
-1.392487e-009
-1.639769e-009
-4.391991e-010
1.050967e-009
1.585560e-009
8.570827e-010
-4.346767e-010
-1.324345e-009
-1.331208e-009
-6.209732e-010
3.370795e-010
1.139154e-009
1.552661e-009
1.469461e-009
9.293451e-010
2.093191e-010
-2.220191e-010
2.797713e-011
9.770958e-010
2.213125e-009
3.132309e-009
3.239734e-009
2.250205e-009
-4.143836e-011
-3.932252e-009
-9.848965e-009
-1.825756e-008
-2.957521e-008
-4.416466e-008
-6.236421e-008
-8.446584e-008
-1.106282e-007
-1.407946e-007
-1.746795e-007
-2.118157e-007
-2.516069e-007
-2.933540e-007
-3.362682e-007
-3.795001e-007
-4.221853e-007
-4.634831e-007
-5.025923e-007
-5.387532e-007
-5.712511e-007
-5.994272e-007
-6.226884e-007
-6.405112e-007
-6.524436e-007
-6.581150e-007
-6.572519e-007
-6.496942e-007
-6.354089e-007
-6.145083e-007
-5.872751e-007
-5.541843e-007
-5.159095e-007
-4.733114e-007
-4.274195e-007
-3.794151e-007
-3.305988e-007
-2.823218e-007
-2.358869e-007
-1.924507e-007
-1.529625e-007
-1.181285e-007
-8.837070e-008
-6.377770e-008
-4.409859e-008
-2.882861e-008
-1.735986e-008
-9.101153e-009
-3.501417e-009
-1.841146e-011
1.870324e-009
2.593359e-009
2.445853e-009
1.677069e-009
6.410369e-010
-1.804081e-010
-3.831269e-010
7.610830e-011
8.077727e-010
1.255205e-009
1.100381e-009
4.669016e-010
-2.315295e-010
-6.239904e-010
-6.001503e-010
-2.877909e-010
9.693424e-011
3.634800e-010
3.921995e-010
1.733955e-010
-1.554191e-010
-3.587226e-010
-2.707885e-010
4.500083e-011
3.234276e-010
1.660256e-009
-9.726099e-011
-1.730527e-009
-1.632288e-009
7.208325e-011
1.774319e-009
1.953591e-009
5.223376e-010
-1.231615e-009
-1.887990e-009
-1.077091e-009
4.023190e-010
1.433221e-009
1.486871e-009
8.377341e-010
1.246447e-010
-1.679025e-010
1.181522e-010
9.253457e-010
2.072603e-009
3.208814e-009
3.774952e-009
3.119103e-009
6.830031e-010
-3.949625e-009
-1.121594e-008
-2.179070e-008
-3.664601e-008
-5.690919e-008
-8.365391e-008
-1.177664e-007
-1.598974e-007
-2.104171e-007
-2.693285e-007
-3.361887e-007
-4.101111e-007
-4.898570e-007
-5.739582e-007
-6.608112e-007
-7.487382e-007
-8.360425e-007
-9.210721e-007
-1.002277e-006
-1.078239e-006
-1.147672e-006
-1.209416e-006
-1.262429e-006
-1.305790e-006
-1.338691e-006
-1.360438e-006
-1.370458e-006
-1.368310e-006
-1.353706e-006
-1.326536e-006
-1.286904e-006
-1.235174e-006
-1.172011e-006
-1.098406e-006
-1.015700e-006
-9.255891e-007
-8.301238e-007
-7.316635e-007
-6.327682e-007
-5.360443e-007
-4.439822e-007
-3.588119e-007
-2.823626e-007
-2.159093e-007
-1.600417e-007
-1.146364e-007
-7.897343e-008
-5.194093e-008
-3.221800e-008
-1.838875e-008
-9.047791e-009
-2.963452e-009
7.543411e-010
2.631112e-009
3.017219e-009
2.348722e-009
1.238318e-009
3.046508e-010
-9.356224e-011
3.284033e-011
4.247577e-010
7.781917e-010
8.645363e-010
5.711400e-010
-3.976001e-011
-6.725581e-010
-9.003620e-010
-4.841862e-010
3.334826e-010
9.190616e-010
7.636726e-010
-1.651102e-011
-7.273473e-010
-7.245910e-010
-3.900194e-011
6.406731e-010
9.008821e-010
-2.369643e-010
-1.194887e-009
-9.082419e-010
3.853143e-010
1.418411e-009
1.161094e-009
-1.727034e-010
-1.334686e-009
-1.228356e-009
8.305754e-011
1.476818e-009
1.819451e-009
9.443699e-010
-2.955137e-010
-8.230705e-010
-1.752595e-010
1.296113e-009
2.832857e-009
3.747970e-009
3.549798e-009
1.756417e-009
-2.298119e-009
-9.507639e-009
-2.098717e-008
-3.814833e-008
-6.280616e-008
-9.714070e-008
-1.434336e-007
-2.036947e-007
-2.793626e-007
-3.711528e-007
-4.789980e-007
-6.020095e-007
-7.384746e-007
-8.859528e-007
-1.041484e-006
-1.201846e-006
-1.363769e-006
-1.524089e-006
-1.679848e-006
-1.828372e-006
-1.967335e-006
-2.094776e-006
-2.209071e-006
-2.308883e-006
-2.393108e-006
-2.460823e-006
-2.511258e-006
-2.543754e-006
-2.557745e-006
-2.552742e-006
-2.528347e-006
-2.484267e-006
-2.420376e-006
-2.336776e-006
-2.233885e-006
-2.112530e-006
-1.974051e-006
-1.820418e-006
-1.654321e-006
-1.479191e-006
-1.299107e-006
-1.118622e-006
-9.425078e-007
-7.754581e-007
-6.217249e-007
-4.847179e-007
-3.666637e-007
-2.684470e-007
-1.896798e-007
-1.289247e-007
-8.395572e-008
-5.202719e-008
-3.020100e-008
-1.574704e-008
-6.489162e-009
-9.176663e-010
1.970675e-009
2.936704e-009
2.656094e-009
1.725444e-009
6.377236e-010
-1.936623e-010
-4.474158e-010
-4.283434e-011
6.937674e-010
1.131172e-009
7.965889e-010
-1.482613e-010
-9.409857e-010
-8.677493e-010
2.998945e-011
9.238510e-010
9.608730e-010
1.060498e-010
-8.007110e-010
-8.738100e-010
-7.420865e-011
7.545439e-010
-2.137742e-010
-1.571465e-010
3.748504e-012
2.451187e-010
3.933263e-010
2.303784e-010
-2.557771e-010
-7.224933e-010
-6.678349e-010
1.022159e-010
1.163857e-009
1.718242e-009
1.277593e-009
1.836298e-010
-5.817658e-010
-1.878787e-010
1.340238e-009
3.103451e-009
3.926789e-009
2.947566e-009
-3.427232e-010
-6.570405e-009
-1.700760e-008
-3.378441e-008
-5.979292e-008
-9.850288e-008
-1.537903e-007
-2.296749e-007
-3.298529e-007
-4.570984e-007
-6.127441e-007
-7.964026e-007
-1.005936e-006
-1.237593e-006
-1.486278e-006
-1.745955e-006
-2.010165e-006
-2.272566e-006
-2.527365e-006
-2.769597e-006
-2.995251e-006
-3.201310e-006
-3.385728e-006
-3.547346e-006
-3.685741e-006
-3.801042e-006
-3.893742e-006
-3.964526e-006
-4.014127e-006
-4.043195e-006
-4.052181e-006
-4.041237e-006
-4.010146e-006
-3.958288e-006
-3.884657e-006
-3.787938e-006
-3.666649e-006
-3.519361e-006
-3.345032e-006
-3.143410e-006
-2.915470e-006
-2.663770e-006
-2.392656e-006
-2.108268e-006
-1.818311e-006
-1.531554e-006
-1.257049e-006
-1.003167e-006
-7.766621e-007
-5.820152e-007
-4.211625e-007
-2.935884e-007
-1.966718e-007
-1.262285e-007
-7.722219e-008
-4.453984e-008
-2.362604e-008
-1.080705e-008
-3.325586e-009
7.439417e-010
2.594504e-009
2.869709e-009
2.012756e-009
6.324389e-010
-4.451732e-010
-5.747338e-010
2.020433e-010
1.116199e-009
1.292704e-009
5.362800e-010
-4.803097e-010
-8.583133e-010
-3.409717e-010
4.587533e-010
7.023204e-010
1.780346e-010
-5.156167e-010
-6.295648e-010
-5.877634e-011
5.650088e-010
-1.398597e-009
-1.792113e-011
1.305831e-009
1.354322e-009
1.905932e-010
-1.080755e-009
-1.421315e-009
-6.857629e-010
4.725576e-010
1.279099e-009
1.375092e-009
8.924194e-010
2.612571e-010
4.151004e-012
5.231191e-010
1.820191e-009
3.296715e-009
3.869847e-009
2.369094e-009
-2.191436e-009
-1.085396e-008
-2.540966e-008
-4.905875e-008