# vtk DataFile Version 3.0
vtk output
ASCII
DATASET STRUCTURED_POINTS
DIMENSIONS 100 100 1
SPACING 1 1 1
ORIGIN 0 0 0
POINT_DATA 10000
SCALARS SFBox_profile double
LOOKUP_TABLE default 
9.439927e-003
9.439928e-003
9.439931e-003
9.439935e-003
9.439942e-003
9.439950e-003
9.439961e-003
9.439973e-003
9.439985e-003
9.439994e-003
9.439993e-003
9.439973e-003
9.439917e-003
9.439804e-003
9.439604e-003
9.439278e-003
9.438779e-003
9.438055e-003
9.437047e-003
9.435697e-003
9.433953e-003
9.431770e-003
9.429118e-003
9.425983e-003
9.422373e-003
9.418313e-003
9.413845e-003
9.409025e-003
9.403920e-003
9.398597e-003
9.393129e-003
9.387580e-003
9.382013e-003
9.376479e-003
9.371024e-003
9.365683e-003
9.360488e-003
9.355458e-003
9.350612e-003
9.345960e-003
9.341509e-003
9.337263e-003
9.333223e-003
9.329389e-003
9.325758e-003
9.322325e-003
9.319089e-003
9.316045e-003
9.313192e-003
9.310533e-003
9.308073e-003
9.305819e-003
9.303789e-003
9.302002e-003
9.300486e-003
9.299276e-003
9.298413e-003
9.297943e-003
9.297922e-003
9.298407e-003
9.299459e-003
9.301140e-003
9.303510e-003
9.306624e-003
9.310529e-003
9.315254e-003
9.320815e-003
9.327200e-003
9.334370e-003
9.342250e-003
9.350731e-003
9.359663e-003
9.368866e-003
9.378128e-003
9.387224e-003
9.395928e-003
9.404031e-003
9.411359e-003
9.417791e-003
9.423258e-003
9.427756e-003
9.431332e-003
9.434074e-003
9.436100e-003
9.437540e-003
9.438519e-003
9.439155e-003
9.439547e-003
9.439772e-003
9.439891e-003
9.439945e-003
9.439964e-003
9.439964e-003
9.439957e-003
9.439948e-003
9.439940e-003
9.439933e-003
9.439929e-003
9.439926e-003
9.439924e-003
9.439927e-003
9.439928e-003
9.439931e-003
9.439935e-003
9.439942e-003
9.439950e-003
9.439961e-003
9.439973e-003
9.439985e-003
9.439994e-003
9.439993e-003
9.439973e-003
9.439917e-003
9.439804e-003
9.439604e-003
9.439278e-003
9.438779e-003
9.438055e-003
9.437047e-003
9.435697e-003
9.433953e-003
9.431770e-003
9.429118e-003
9.425983e-003
9.422373e-003
9.418313e-003
9.413845e-003
9.409025e-003
9.403920e-003
9.398597e-003
9.393129e-003
9.387580e-003
9.382013e-003
9.376479e-003
9.371024e-003
9.365683e-003
9.360488e-003
9.355458e-003
9.350612e-003
9.345960e-003
9.341509e-003
9.337263e-003
9.333223e-003
9.329389e-003
9.325758e-003
9.322325e-003
9.319089e-003
9.316045e-003
9.313192e-003
9.310533e-003
9.308073e-003
9.305819e-003
9.303789e-003
9.302002e-003
9.300486e-003
9.299276e-003
9.298413e-003
9.297943e-003
9.297922e-003
9.298407e-003
9.299459e-003
9.301140e-003
9.303510e-003
9.306624e-003
9.310529e-003
9.315254e-003
9.320815e-003
9.327200e-003
9.334370e-003
9.342250e-003
9.350731e-003
9.359663e-003
9.368866e-003
9.378128e-003
9.387224e-003
9.395928e-003
9.404031e-003
9.411359e-003
9.417791e-003
9.423258e-003
9.427756e-003
9.431332e-003
9.434074e-003
9.436100e-003
9.437540e-003
9.438519e-003
9.439155e-003
9.439547e-003
9.439772e-003
9.439891e-003
9.439945e-003
9.439964e-003
9.439964e-003
9.439957e-003
9.439948e-003
9.439940e-003
9.439933e-003
9.439929e-003
9.439926e-003
9.439924e-003
9.439929e-003
9.439931e-003
9.439934e-003
9.439939e-003
9.439946e-003
9.439955e-003
9.439966e-003
9.439975e-003
9.439981e-003
9.439977e-003
9.439950e-003
9.439884e-003
9.439752e-003
9.439517e-003
9.439131e-003
9.438534e-003
9.437653e-003
9.436408e-003
9.434715e-003
9.432494e-003
9.429675e-003
9.426209e-003
9.422072e-003
9.417271e-003
9.411843e-003
9.405853e-003
9.399390e-003
9.392557e-003
9.385465e-003
9.378225e-003
9.370941e-003
9.363706e-003
9.356599e-003
9.349683e-003
9.343009e-003
9.336614e-003
9.330522e-003
9.324750e-003
9.319303e-003
9.314181e-003
9.309380e-003
9.304890e-003
9.300700e-003
9.296796e-003
9.293165e-003
9.289795e-003
9.286674e-003
9.283794e-003
9.281147e-003
9.278732e-003
9.276550e-003
9.274605e-003
9.272907e-003
9.271472e-003
9.270318e-003
9.269469e-003
9.268956e-003
9.268810e-003
9.269070e-003
9.269778e-003
9.270980e-003
9.272726e-003
9.275072e-003
9.278075e-003
9.281797e-003
9.286301e-003
9.291647e-003
9.297888e-003
9.305063e-003
9.313180e-003
9.322212e-003
9.332076e-003
9.342631e-003
9.353669e-003
9.364927e-003
9.376097e-003
9.386857e-003
9.396903e-003
9.405977e-003
9.413898e-003
9.420570e-003
9.425991e-003
9.430234e-003
9.433430e-003
9.435747e-003
9.437358e-003
9.438432e-003
9.439114e-003
9.439526e-003
9.439758e-003
9.439879e-003
9.439934e-003
9.439953e-003
9.439955e-003
9.439949e-003
9.439942e-003
9.439935e-003
9.439930e-003
9.439927e-003
9.439925e-003
9.439935e-003
9.439937e-003
9.439941e-003
9.439947e-003
9.439955e-003
9.439964e-003
9.439972e-003
9.439974e-003
9.439961e-003
9.439918e-003
9.439822e-003
9.439635e-003
9.439306e-003
9.438761e-003
9.437909e-003
9.436637e-003
9.434812e-003
9.432296e-003
9.428950e-003
9.424656e-003
9.419329e-003
9.412932e-003
9.405490e-003
9.397092e-003
9.387883e-003
9.378056e-003
9.367834e-003
9.357448e-003
9.347123e-003
9.337058e-003
9.327422e-003
9.318346e-003
9.309926e-003
9.302222e-003
9.295268e-003
9.289071e-003
9.283622e-003
9.278895e-003
9.274850e-003
9.271439e-003
9.268608e-003
9.266300e-003
9.264458e-003
9.263029e-003
9.261965e-003
9.261225e-003
9.260776e-003
9.260591e-003
9.260650e-003
9.260936e-003
9.261435e-003
9.262135e-003
9.263019e-003
9.264067e-003
9.265254e-003
9.266546e-003
9.267902e-003
9.269273e-003
9.270602e-003
9.271833e-003
9.272913e-003
9.273803e-003
9.274485e-003
9.274982e-003
9.275362e-003
9.275761e-003
9.276380e-003
9.277491e-003
9.279423e-003
9.282535e-003
9.287172e-003
9.293612e-003
9.302014e-003
9.312363e-003
9.324448e-003
9.337867e-003
9.352059e-003
9.366377e-003
9.380171e-003
9.392872e-003
9.404057e-003
9.413487e-003
9.421102e-003
9.426999e-003
9.431379e-003
9.434499e-003
9.436630e-003
9.438024e-003
9.438895e-003
9.439411e-003
9.439699e-003
9.439848e-003
9.439917e-003
9.439943e-003
9.439948e-003
9.439945e-003
9.439939e-003
9.439934e-003
9.439930e-003
9.439928e-003
9.439943e-003
9.439946e-003
9.439951e-003
9.439958e-003
9.439966e-003
9.439973e-003
9.439972e-003
9.439952e-003
9.439893e-003
9.439763e-003
9.439511e-003
9.439062e-003
9.438310e-003
9.437113e-003
9.435294e-003
9.432640e-003
9.428918e-003
9.423893e-003
9.417363e-003
9.409190e-003
9.399341e-003
9.387913e-003
9.375149e-003
9.361427e-003
9.347231e-003
9.333106e-003
9.319607e-003
9.307246e-003
9.296454e-003
9.287559e-003
9.280772e-003
9.276197e-003
9.273849e-003
9.273668e-003
9.275545e-003
9.279333e-003
9.284864e-003
9.291949e-003
9.300386e-003
9.309967e-003
9.320484e-003
9.331735e-003
9.343532e-003
9.355711e-003
9.368134e-003
9.380689e-003
9.393293e-003
9.405880e-003
9.418399e-003
9.430803e-003
9.443037e-003
9.455025e-003
9.466665e-003
9.477812e-003
9.488274e-003
9.497800e-003
9.506086e-003
9.512768e-003
9.517436e-003
9.519646e-003
9.518950e-003
9.514924e-003
9.507221e-003
9.495621e-003
9.480096e-003
9.460873e-003
9.438483e-003
9.413797e-003
9.388018e-003
9.362623e-003
9.339253e-003
9.319544e-003
9.304926e-003
9.296425e-003
9.294499e-003
9.298953e-003
9.308960e-003
9.323189e-003
9.340016e-003
9.357776e-003
9.375000e-003
9.390583e-003
9.403850e-003
9.414549e-003
9.422753e-003
9.428756e-003
9.432955e-003
9.435764e-003
9.437562e-003
9.438661e-003
9.439299e-003
9.439648e-003
9.439826e-003
9.439907e-003
9.439938e-003
9.439946e-003
9.439943e-003
9.439939e-003
9.439934e-003
9.439932e-003
9.439955e-003
9.439958e-003
9.439964e-003
9.439972e-003
9.439978e-003
9.439974e-003
9.439948e-003
9.439876e-003
9.439714e-003
9.439397e-003
9.438823e-003
9.437842e-003
9.436250e-003
9.433778e-003
9.430099e-003
9.424842e-003
9.417630e-003
9.408141e-003
9.396186e-003
9.381799e-003
9.365315e-003
9.347419e-003
9.329131e-003
9.311742e-003
9.296692e-003
9.285417e-003
9.279206e-003
9.279079e-003
9.285714e-003
9.299428e-003
9.320200e-003
9.347730e-003
9.381520e-003
9.420945e-003
9.465322e-003
9.513949e-003
9.566129e-003
9.621177e-003
9.678422e-003
9.737214e-003
9.796933e-003
9.857007e-003
9.916929e-003
9.976273e-003
1.003470e-002
1.009196e-002
1.014787e-002
1.020232e-002
1.025520e-002
1.030642e-002
1.035584e-002
1.040322e-002
1.044823e-002
1.049036e-002
1.052896e-002
1.056314e-002
1.059183e-002
1.061374e-002
1.062742e-002
1.063126e-002
1.062360e-002
1.060280e-002
1.056741e-002
1.051631e-002
1.044891e-002
1.036538e-002
1.026681e-002
1.015543e-002
1.003457e-002
9.908703e-003
9.783101e-003
9.663471e-003
9.555364e-003
9.463543e-003
9.391380e-003
9.340420e-003
9.310204e-003
9.298420e-003
9.301366e-003
9.314608e-003
9.333708e-003
9.354836e-003
9.375140e-003
9.392863e-003
9.407219e-003
9.418144e-003
9.426018e-003
9.431418e-003
9.434952e-003
9.437160e-003
9.438476e-003
9.439221e-003
9.439619e-003
9.439816e-003
9.439904e-003
9.439937e-003
9.439945e-003
9.439944e-003
9.439940e-003
9.439938e-003
9.439972e-003
9.439975e-003
9.439981e-003
9.439985e-003
9.439980e-003
9.439951e-003
9.439868e-003
9.439682e-003
9.439309e-003
9.438618e-003
9.437412e-003
9.435411e-003
9.432234e-003
9.427403e-003
9.420362e-003
9.410542e-003
9.397470e-003
9.380946e-003
9.361246e-003
9.339343e-003
9.317050e-003
9.297055e-003
9.282771e-003
9.278033e-003
9.286680e-003
9.312117e-003
9.356943e-003
9.422715e-003
9.509877e-003
9.617830e-003
9.745121e-003
9.889692e-003
1.004915e-002
1.022100e-002
1.040279e-002
1.059225e-002
1.078727e-002
1.098592e-002
1.118640e-002
1.138706e-002
1.158637e-002
1.178298e-002
1.197575e-002
1.216375e-002
1.234632e-002
1.252300e-002
1.269354e-002
1.285781e-002
1.301572e-002
1.316714e-002
1.331180e-002
1.344918e-002
1.357841e-002
1.369821e-002
1.380678e-002
1.390180e-002
1.398034e-002
1.403891e-002
1.407350e-002
1.407965e-002
1.405265e-002
1.398775e-002
1.388048e-002
1.372707e-002
1.352498e-002
1.327339e-002
1.297383e-002
1.263071e-002
1.225163e-002
1.184743e-002
1.143187e-002
1.102072e-002
1.063049e-002
1.027673e-002
9.972260e-003
9.725599e-003
9.539969e-003
9.413071e-003
9.337806e-003
9.303768e-003
9.299168e-003
9.312718e-003
9.335043e-003
9.359391e-003
9.381656e-003
9.399908e-003
9.413720e-003
9.423524e-003
9.430110e-003
9.434319e-003
9.436882e-003
9.438370e-003
9.439189e-003
9.439614e-003
9.439819e-003
9.439907e-003
9.439940e-003
9.439947e-003
9.439947e-003
9.439945e-003
9.439992e-003
9.439995e-003
9.439997e-003
9.439991e-003
9.439959e-003
9.439871e-003
9.439669e-003
9.439256e-003
9.438473e-003
9.437074e-003
9.434695e-003
9.430830e-003
9.424819e-003
9.415876e-003
9.403188e-003
9.386115e-003
9.364534e-003
9.339308e-003
9.312827e-003
9.289466e-003
9.275790e-003
9.280329e-003
9.312884e-003
9.383439e-003
9.500931e-003
9.672125e-003
9.900856e-003
1.018774e-002
1.053034e-002
1.092373e-002
1.136122e-002
1.183514e-002
1.233766e-002
1.286127e-002
1.339920e-002
1.394550e-002
1.449507e-002
1.504345e-002
1.558676e-002
1.612156e-002
1.664484e-002
1.715405e-002
1.764714e-002
1.812263e-002
1.857957e-002
1.901753e-002
1.943646e-002
1.983656e-002
2.021808e-002
2.058111e-002
2.092536e-002
2.124992e-002
2.155309e-002
2.183216e-002
2.208328e-002
2.230134e-002
2.247989e-002
2.261114e-002
2.268605e-002
2.269444e-002
2.262535e-002
2.246740e-002
2.220944e-002
2.184133e-002
2.135496e-002
2.074553e-002
2.001285e-002
1.916280e-002
1.820853e-002
1.717117e-002
1.607981e-002
1.497036e-002
1.388322e-002
1.285970e-002
1.193776e-002
1.114746e-002
1.050718e-002
1.002153e-002
9.681424e-003
9.466656e-003
9.350207e-003
9.303247e-003
9.299525e-003
9.318233e-003
9.345007e-003
9.371392e-003
9.393422e-003
9.410013e-003
9.421599e-003
9.429213e-003
9.433958e-003
9.436771e-003
9.438358e-003
9.439207e-003
9.439634e-003
9.439833e-003
9.439916e-003
9.439945e-003
9.439952e-003
9.439953e-003
9.440015e-003
9.440014e-003
9.440006e-003
9.439974e-003
9.439885e-003
9.439679e-003
9.439247e-003
9.438408e-003
9.436871e-003
9.434195e-003
9.429740e-003
9.422647e-003
9.411865e-003
9.396287e-003
9.375091e-003
9.348364e-003
9.318067e-003
9.289271e-003
9.271401e-003
9.279032e-003
9.331760e-003
9.452828e-003
9.666577e-003
9.995223e-003
1.045571e-002
1.105737e-002
1.180091e-002
1.267877e-002
1.367651e-002
1.477502e-002
1.595272e-002
1.718774e-002
1.845953e-002
1.975000e-002
2.104398e-002
2.232918e-002
2.359582e-002
2.483608e-002
2.604365e-002
2.721334e-002
2.834099e-002
2.942337e-002
3.045827e-002
3.144454e-002
3.238201e-002
3.327135e-002
3.411391e-002
3.491132e-002
3.566519e-002
3.637667e-002
3.704607e-002
3.767248e-002
3.825338e-002
3.878435e-002
3.925882e-002
3.966783e-002
3.999993e-002
4.024111e-002
4.037487e-002
4.038238e-002
4.024280e-002
3.993385e-002
3.943257e-002
3.871654e-002
3.776540e-002
3.656295e-002
3.509972e-002
3.337590e-002
3.140456e-002
2.921444e-002
2.685191e-002
2.438122e-002
2.188223e-002
1.944526e-002
1.716276e-002
1.511897e-002
1.337891e-002
1.197943e-002
1.092478e-002
1.018818e-002
9.719265e-003
9.455290e-003
9.332812e-003
9.296919e-003
9.306185e-003
9.333370e-003
9.363138e-003
9.388515e-003
9.407495e-003
9.420507e-003
9.428857e-003
9.433923e-003
9.436843e-003
9.438442e-003
9.439271e-003
9.439674e-003
9.439855e-003
9.439929e-003
9.439954e-003
9.439960e-003
9.440037e-003
9.440027e-003
9.439996e-003
9.439911e-003
9.439710e-003
9.439282e-003
9.438430e-003
9.436833e-003
9.433979e-003
9.429110e-003
9.421169e-003
9.408815e-003
9.390611e-003
9.365518e-003
9.333939e-003
9.299499e-003
9.271579e-003
9.268230e-003
9.318573e-003
9.463437e-003
9.753141e-003
1.024212e-002
1.098125e-002
1.200964e-002
1.334813e-002
1.499601e-002
1.693159e-002
1.911605e-002
2.149920e-002
2.402583e-002
2.664125e-002
2.929557e-002
3.194640e-002
3.455991e-002
3.711075e-002
3.958090e-002
4.195819e-002
4.423469e-002
4.640539e-002
4.846736e-002
5.041924e-002
5.226105e-002
5.399421e-002
5.562142e-002
5.714659e-002
5.857453e-002
5.991062e-002
6.116029e-002
6.232852e-002
6.341928e-002
6.443499e-002
6.537602e-002
6.624026e-002
6.702276e-002
6.771537e-002
6.830649e-002
6.878092e-002
6.911968e-002
6.929995e-002
6.929506e-002
6.907454e-002
6.860441e-002
6.784759e-002
6.676475e-002
6.531572e-002
6.346161e-002
6.116808e-002
5.840977e-002
5.517614e-002
5.147825e-002
4.735610e-002
4.288493e-002
3.817883e-002
3.338909e-002
2.869520e-002
2.428751e-002
2.034295e-002
1.699854e-002
1.432965e-002
1.234011e-002
1.096772e-002
1.010343e-002
9.617667e-003
9.385484e-003
9.303915e-003
9.299190e-003
9.325313e-003
9.357717e-003
9.385769e-003
9.406500e-003
9.420403e-003
9.429093e-003
9.434217e-003
9.437084e-003
9.438606e-003
9.439370e-003
9.439729e-003
9.439885e-003
9.439945e-003
9.439964e-003
9.440049e-003
9.440022e-003
9.439944e-003
9.439759e-003
9.439356e-003
9.438536e-003
9.436960e-003
9.434074e-003
9.429026e-003
9.420581e-003
9.407122e-003
9.386844e-003
9.358425e-003
9.322566e-003
9.284911e-003
9.260658e-003
9.280536e-003
9.396686e-003
9.685811e-003
1.024662e-002
1.118975e-002
1.262107e-002
1.462201e-002
1.723276e-002
2.044306e-002
2.419325e-002
2.838435e-002
3.289376e-002
3.759189e-002
4.235635e-002
4.708161e-002
5.168400e-002
5.610278e-002
6.029825e-002
6.424831e-002
6.794419e-002
7.138645e-002
7.458145e-002
7.753892e-002
8.027030e-002
8.278790e-002
8.510452e-002
8.723329e-002
8.918760e-002
9.098086e-002
9.262629e-002
9.413652e-002
9.552318e-002
9.679645e-002
9.796470e-002
9.903401e-002
1.000080e-001
1.008873e-001
1.016697e-001
1.023495e-001
1.029180e-001
1.033626e-001
1.036670e-001
1.038107e-001
1.037690e-001
1.035117e-001
1.030033e-001
1.022014e-001
1.010563e-001
9.951081e-002
9.749940e-002
9.495007e-002
9.178692e-002
8.793601e-002
8.333469e-002
7.794543e-002
7.177381e-002
6.488863e-002
5.743972e-002
4.966616e-002
4.188686e-002
3.446798e-002
2.776888e-002
2.207825e-002
1.756057e-002
1.423197e-002
1.197443e-002
1.058085e-002
9.812430e-003
9.448375e-003
9.315466e-003
9.296124e-003
9.321116e-003
9.355623e-003
9.385512e-003
9.407161e-003
9.421300e-003
9.429883e-003
9.434794e-003
9.437458e-003
9.438827e-003
9.439491e-003
9.439792e-003
9.439917e-003
9.439960e-003
9.440038e-003
9.439978e-003
9.439818e-003
9.439457e-003
9.438706e-003
9.437230e-003
9.434459e-003
9.429487e-003
9.420957e-003
9.407007e-003
9.385459e-003
9.354599e-003
9.315199e-003
9.274757e-003
9.254896e-003
9.302081e-003
9.499835e-003
9.977804e-003
1.091098e-002
1.250323e-002
1.495408e-002
1.841536e-002
2.295087e-002
2.851325e-002
3.494667e-002
4.201387e-002
4.943747e-002
5.694234e-002
6.428855e-002
7.129014e-002
7.782052e-002
8.380791e-002
8.922531e-002
9.407849e-002
9.839490e-002
1.022144e-001
1.055827e-001
1.085465e-001
1.111509e-001
1.134379e-001
1.154457e-001
1.172088e-001
1.187578e-001
1.201199e-001
1.213190e-001
1.223760e-001
1.233088e-001
1.241327e-001
1.248605e-001
1.255024e-001
1.260666e-001
1.265591e-001
1.269841e-001
1.273438e-001
1.276388e-001
1.278679e-001
1.280283e-001
1.281148e-001
1.281203e-001
1.280343e-001
1.278425e-001
1.275255e-001
1.270568e-001
1.264004e-001
1.255082e-001
1.243157e-001
1.227385e-001
1.206674e-001
1.179664e-001
1.144722e-001
1.100025e-001
1.043754e-001
9.744459e-002
8.915067e-002
7.958052e-002
6.901555e-002
5.794400e-002
4.701366e-002
3.692013e-002
2.825810e-002
2.139045e-002
1.638843e-002
1.306308e-002
1.106362e-002
9.993623e-003
9.501314e-003
9.324561e-003
9.295372e-003
9.320770e-003
9.357031e-003
9.387769e-003
9.409384e-003
9.423065e-003
9.431111e-003
9.435570e-003
9.437911e-003
9.439074e-003
9.439618e-003
9.439853e-003
9.439937e-003
9.439982e-003
9.439866e-003
9.439565e-003
9.438913e-003
9.437597e-003
9.435068e-003
9.430416e-003
9.422225e-003
9.408467e-003
9.386623e-003
9.354472e-003
9.312437e-003
9.269003e-003
9.251182e-003
9.321351e-003
9.599094e-003
1.028139e-002
1.164860e-002
1.404174e-002
1.780295e-002
2.318727e-002
3.027328e-002
3.890943e-002
4.872287e-002
5.919039e-002
6.974379e-002
7.987102e-002
8.918414e-002
9.744476e-002
1.045544e-001
1.105246e-001
1.154402e-001
1.194248e-001
1.226150e-001
1.251438e-001
1.271319e-001
1.286844e-001
1.298906e-001
1.308245e-001
1.315463e-001
1.321042e-001
1.325360e-001
1.328709e-001
1.331311e-001
1.333334e-001
1.334905e-001
1.336119e-001
1.337047e-001
1.337745e-001
1.338255e-001
1.338612e-001
1.338844e-001
1.338972e-001
1.339016e-001
1.338991e-001
1.338906e-001
1.338768e-001
1.338577e-001
1.338325e-001
1.337994e-001
1.337552e-001
1.336948e-001
1.336108e-001
1.334919e-001
1.333219e-001
1.330768e-001
1.327215e-001
1.322030e-001
1.314407e-001
1.303101e-001
1.286229e-001
1.261048e-001
1.223883e-001
1.170402e-001
1.096469e-001
9.995962e-002
8.806754e-002
7.452069e-002
6.031122e-002
4.666989e-002
3.473774e-002
2.525934e-002
1.844052e-002
1.401337e-002
1.143602e-002
1.010925e-002
9.525122e-003
9.325868e-003
9.296062e-003
9.324244e-003
9.361806e-003
9.392261e-003
9.412867e-003
9.425452e-003
9.432606e-003
9.436440e-003
9.438385e-003
9.439317e-003
9.439731e-003
9.439884e-003
9.439850e-003
9.439643e-003
9.439115e-003
9.438003e-003
9.435808e-003
9.431668e-003
9.424189e-003
9.411277e-003
9.390162e-003
9.358066e-003
9.314570e-003
9.267732e-003
9.247086e-003
9.326868e-003
9.659959e-003
1.051522e-002
1.229887e-002
1.553056e-002
2.074881e-002
2.834793e-002
3.839523e-002
5.051438e-002
6.391080e-002
7.754826e-002
9.040362e-002
1.016912e-001
1.109795e-001
1.181861e-001
1.234898e-001
1.272146e-001
1.297266e-001
1.313644e-001
1.324029e-001
1.330463e-001
1.334381e-001
1.336751e-001
1.338209e-001
1.339157e-001
1.339830e-001
1.340349e-001
1.340761e-001
1.341071e-001
1.341266e-001
1.341332e-001
1.341263e-001
1.341060e-001
1.340735e-001
1.340308e-001
1.339802e-001
1.339242e-001
1.338658e-001
1.338077e-001
1.337532e-001
1.337055e-001
1.336682e-001
1.336453e-001
1.336412e-001
1.336606e-001
1.337085e-001
1.337895e-001
1.339073e-001
1.340635e-001
1.342561e-001
1.344773e-001
1.347110e-001
1.349302e-001
1.350955e-001
1.351560e-001
1.350545e-001
1.347372e-001
1.341611e-001
1.332845e-001
1.320190e-001
1.301338e-001
1.271425e-001
1.222614e-001
1.145691e-001
1.034258e-001
8.897818e-002
7.239169e-002
5.556970e-002
4.047731e-002
2.846526e-002
1.996044e-002
1.459788e-002
1.159619e-002
1.012292e-002
9.510788e-003
9.318727e-003
9.298707e-003
9.331531e-003
9.369505e-003
9.398447e-003
9.417160e-003
9.428155e-003
9.434184e-003
9.437305e-003
9.438829e-003
9.439522e-003
9.439783e-003
9.439600e-003
9.439252e-003
9.438379e-003
9.436572e-003
9.433067e-003
9.426568e-003
9.415037e-003
9.395593e-003
9.364964e-003
9.321546e-003
9.271454e-003
9.242744e-003
9.313522e-003
9.658020e-003
1.060561e-002
1.268853e-002
1.663024e-002
2.321679e-002
3.302788e-002
4.609532e-002
6.166304e-002
7.824283e-002
9.401947e-002
1.074303e-001
1.176206e-001
1.245627e-001
1.288409e-001
1.312795e-001
1.326286e-001
1.334125e-001
1.339185e-001
1.342596e-001
1.344537e-001
1.344882e-001
1.343559e-001
1.340648e-001
1.336348e-001
1.330905e-001
1.324562e-001
1.317538e-001
1.310020e-001
1.302171e-001
1.294132e-001
1.286023e-001
1.277946e-001
1.269985e-001
1.262207e-001
1.254665e-001
1.247401e-001
1.240451e-001
1.233853e-001
1.227648e-001
1.221890e-001
1.216648e-001
1.212012e-001
1.208097e-001
1.205048e-001
1.203037e-001
1.202271e-001
1.202986e-001
1.205444e-001
1.209930e-001
1.216728e-001
1.226104e-001
1.238257e-001
1.253262e-001
1.270971e-001
1.290891e-001
1.312030e-001
1.332746e-001
1.350668e-001
1.362846e-001
1.366357e-001
1.359506e-001
1.342892e-001
1.318263e-001
1.283660e-001
1.228481e-001
1.136170e-001
9.964522e-002
8.170862e-002
6.232481e-002
4.450196e-002
3.037109e-002
2.059997e-002
1.466528e-002
1.149806e-002
1.003049e-002
9.464006e-003
9.307503e-003
9.304791e-003
9.342414e-003
9.379371e-003
9.405608e-003
9.421759e-003
9.430869e-003
9.435682e-003
9.438077e-003
9.439184e-003
9.439608e-003
9.439180e-003
9.438624e-003
9.437246e-003
9.434433e-003
9.429060e-003
9.419257e-003
9.402214e-003
9.374349e-003
9.332836e-003
9.280809e-003
9.241029e-003
9.285779e-003
9.591604e-003
1.051989e-002
1.270039e-002
1.705344e-002
2.464913e-002
3.632166e-002
5.209608e-002
7.072187e-002
8.975046e-002
1.063693e-001
1.186252e-001
1.262257e-001
1.303191e-001
1.324927e-001
1.338474e-001
1.347395e-001
1.350780e-001
1.347166e-001
1.336377e-001
1.319440e-001
1.297924e-001
1.273414e-001
1.247265e-001
1.220519e-001
1.193925e-001
1.167985e-001
1.143015e-001
1.119206e-001
1.096662e-001
1.075432e-001
1.055525e-001
1.036920e-001
1.019575e-001
1.003431e-001
9.884214e-002
9.744742e-002
9.615217e-002
9.495068e-002
9.383884e-002
9.281479e-002
9.187938e-002
9.103663e-002
9.029414e-002
8.966344e-002
8.916038e-002
8.880551e-002
8.862457e-002
8.864894e-002
8.891629e-002
8.947115e-002
9.036559e-002
9.165947e-002
9.342020e-002
9.572100e-002
9.863659e-002
1.022343e-001
1.065578e-001
1.115988e-001
1.172525e-001
1.232545e-001
1.291094e-001
1.340562e-001
1.371684e-001
1.377180e-001
1.357378e-001
1.320946e-001
1.271849e-001
1.194087e-001
1.062842e-001
8.753128e-002
6.609723e-002
4.614311e-002
3.058807e-002
2.020849e-002
1.419900e-002
1.117110e-002
9.861850e-003
9.402188e-003
9.299065e-003
9.315623e-003
9.356200e-003
9.390398e-003
9.412978e-003
9.426195e-003
9.433345e-003
9.436969e-003
9.438670e-003
9.439329e-003
9.438527e-003
9.437677e-003
9.435590e-003
9.431382e-003
9.423455e-003
9.409240e-003
9.385128e-003
9.347353e-003
9.295861e-003
9.245801e-003
9.255442e-003
9.483160e-003
1.028299e-002
1.232553e-002
1.667677e-002
2.469133e-002
3.754808e-002
5.540546e-002
7.656365e-002
9.746004e-002
1.141458e-001
1.246267e-001
1.299884e-001
1.328414e-001
1.347619e-001
1.356130e-001
1.347352e-001
1.319560e-001
1.276471e-001
1.223897e-001
1.167191e-001
1.110257e-001
1.055535e-001
1.004335e-001
9.572086e-002
9.142457e-002
8.752822e-002
8.400325e-002
8.081708e-002
7.793740e-002
7.533409e-002
7.297976e-002
7.084954e-002
6.892070e-002
6.717236e-002
6.558534e-002
6.414219e-002
6.282735e-002
6.162735e-002
6.053107e-002
5.952998e-002
5.861837e-002
5.779351e-002
5.705586e-002
5.640920e-002
5.586089e-002
5.542204e-002
5.510793e-002
5.493847e-002
5.493894e-002
5.514091e-002
5.558366e-002
5.631596e-002
5.739838e-002
5.890616e-002
6.093250e-002
6.359192e-002
6.702266e-002
7.138628e-002
7.686032e-002
8.361616e-002
9.176908e-002
1.012816e-001
1.118031e-001
1.224593e-001
1.317005e-001
1.375181e-001
1.384623e-001
1.351392e-001
1.297579e-001
1.223222e-001
1.094879e-001
8.974371e-002
6.651535e-002
4.514329e-002
2.907673e-002
1.888321e-002
1.332316e-002
1.070715e-002
9.666950e-003
9.345925e-003
9.299116e-003
9.331283e-003
9.371650e-003
9.401491e-003
9.419875e-003
9.430110e-003
9.435401e-003
9.437922e-003
9.438910e-003
9.437577e-003
9.436327e-003
9.433284e-003
9.427216e-003
9.415945e-003
9.396125e-003
9.363552e-003
9.315574e-003
9.259492e-003
9.235414e-003
9.368244e-003
9.966269e-003
1.166917e-002
1.559342e-002
2.331578e-002
3.642864e-002
5.547994e-002
7.863414e-002
1.012952e-001
1.182107e-001
1.274649e-001
1.318673e-001
1.347181e-001
1.359386e-001
1.338698e-001
1.281422e-001
1.198209e-001
1.103390e-001
1.008179e-001
9.192094e-002
8.394749e-002
7.696973e-002
7.093943e-002
6.575572e-002
6.130288e-002
5.746931e-002
5.415584e-002
5.127835e-002
4.876737e-002
4.656639e-002
4.462949e-002
4.291913e-002
4.140416e-002
4.005832e-002
3.885915e-002
3.778730e-002
3.682606e-002
3.596113e-002
3.518050e-002
3.447441e-002
3.383525e-002
3.325766e-002
3.273841e-002
3.227649e-002
3.187309e-002
3.153170e-002
3.125819e-002
3.106111e-002
3.095195e-002
3.094577e-002
3.106197e-002
3.132551e-002
3.176860e-002
3.243315e-002
3.337408e-002
3.466401e-002
3.639944e-002
3.870902e-002
4.176384e-002
4.578896e-002
5.107282e-002
5.796574e-002
6.684779e-002
7.803051e-002
9.154011e-002
1.067393e-001
1.218505e-001
1.337715e-001
1.391188e-001
1.371229e-001
1.311699e-001
1.233246e-001
1.098142e-001
8.840117e-002
6.355556e-002
4.167307e-002
2.615418e-002
1.693467e-002
1.225323e-002
1.022174e-002
9.494380e-003
9.310164e-003
9.309658e-003
9.350366e-003
9.387231e-003
9.411680e-003
9.425803e-003
9.433268e-003
9.436880e-003
9.438311e-003
9.436263e-003
9.434492e-003
9.430209e-003
9.421760e-003
9.406302e-003
9.379737e-003
9.337870e-003
9.281660e-003
9.233568e-003
9.279079e-003
9.655353e-003
1.090590e-002
1.407960e-002
2.083888e-002
3.316263e-002
5.225646e-002
7.673307e-002
1.014337e-001
1.195614e-001
1.286400e-001
1.329087e-001
1.357164e-001
1.348189e-001
1.279605e-001
1.163069e-001
1.025935e-001
8.908391e-002
7.701040e-002
6.679351e-002
5.839775e-002
5.159266e-002
4.609867e-002
4.165369e-002
3.803632e-002
3.506867e-002
3.261158e-002
3.055771e-002
2.882486e-002
2.735029e-002
2.608601e-002
2.499496e-002
2.404818e-002
2.322260e-002
2.249947e-002
2.186335e-002
2.130132e-002
2.080256e-002
2.035801e-002
1.996019e-002
1.960307e-002
1.928196e-002
1.899344e-002
1.873530e-002
1.850651e-002
1.830718e-002
1.813860e-002
1.800326e-002
1.790497e-002
1.784904e-002
1.784263e-002
1.789520e-002
1.801922e-002
1.823135e-002
1.855396e-002
1.901760e-002
1.966448e-002
2.055378e-002
2.176954e-002
2.343230e-002
2.571618e-002
2.887242e-002
3.325850e-002
3.936520e-002
4.781813e-002
5.930085e-002
7.430453e-002
9.258794e-002
1.123394e-001
1.295043e-001
1.387589e-001
1.378677e-001
1.313385e-001
1.227091e-001
1.073455e-001
8.349208e-002
5.751760e-002
3.631365e-002
2.240999e-002
1.478043e-002
1.121572e-002
9.811032e-003
9.374393e-003
9.299763e-003
9.328780e-003
9.370536e-003
9.401507e-003
9.420282e-003
9.430470e-003
9.435483e-003
9.437490e-003
9.434531e-003
9.432104e-003
9.426274e-003
9.414898e-003
9.394429e-003
9.360224e-003
9.309259e-003
9.250216e-003
9.232480e-003
9.415653e-003
1.020850e-002
1.248807e-002
1.782026e-002
2.839895e-002
4.618536e-002
7.089285e-002
9.777094e-002
1.185648e-001
1.287578e-001
1.331467e-001
1.357761e-001
1.325914e-001
1.210296e-001
1.041061e-001
8.621343e-002
7.020056e-002
5.713659e-002
4.700550e-002
3.934134e-002
3.359071e-002
2.926572e-002
2.598442e-002
2.346418e-002
2.150114e-002
1.994959e-002
1.870535e-002
1.769358e-002
1.686019e-002
1.616580e-002
1.558142e-002
1.508543e-002
1.466140e-002
1.429664e-002
1.398107e-002
1.370659e-002
1.346658e-002
1.325559e-002
1.306912e-002
1.290353e-002
1.275587e-002
1.262387e-002
1.250583e-002
1.240061e-002
1.230757e-002
1.222657e-002
1.215796e-002
1.210255e-002
1.206173e-002
1.203749e-002
1.203257e-002
1.205071e-002
1.209696e-002
1.217827e-002
1.230425e-002
1.248852e-002
1.275064e-002
1.311929e-002
1.363741e-002
1.437049e-002
1.542026e-002
1.694676e-002
1.920276e-002
2.258328e-002
2.768593e-002
3.535620e-002
4.664367e-002
6.251693e-002
8.312341e-002
1.065122e-001
1.274611e-001
1.387155e-001
1.374763e-001
1.302323e-001
1.203137e-001
1.016571e-001
7.508114e-002