# vtk DataFile Version 3.0
vtk output
ASCII
DATASET STRUCTURED_POINTS
DIMENSIONS 100 100 1
SPACING 1 1 1
ORIGIN 0 0 0
POINT_DATA 10000
SCALARS SFBox_profile double
LOOKUP_TABLE default 
0.000000e+000
0.000000e+000
0.000000e+000
0.000000e+000
0.000000e+000
0.000000e+000
0.000000e+000
0.000000e+000
0.000000e+000
0.000000e+000
0.000000e+000
0.000000e+000
0.000000e+000
0.000000e+000
0.000000e+000
0.000000e+000
0.000000e+000
0.000000e+000
0.000000e+000
0.000000e+000
0.000000e+000
0.000000e+000
0.000000e+000
0.000000e+000
0.000000e+000
0.000000e+000
0.000000e+000
0.000000e+000
0.000000e+000
0.000000e+000
0.000000e+000
0.000000e+000
0.000000e+000
0.000000e+000
0.000000e+000
0.000000e+000
0.000000e+000
0.000000e+000
0.000000e+000
0.000000e+000
0.000000e+000
0.000000e+000
0.000000e+000
0.000000e+000
0.000000e+000
0.000000e+000
0.000000e+000
0.000000e+000
0.000000e+000
0.000000e+000
0.000000e+000
0.000000e+000
0.000000e+000
0.000000e+000
0.000000e+000
0.000000e+000
0.000000e+000
0.000000e+000
0.000000e+000
0.000000e+000
0.000000e+000
0.000000e+000
0.000000e+000
0.000000e+000
0.000000e+000
0.000000e+000
0.000000e+000
0.000000e+000
0.000000e+000
0.000000e+000
0.000000e+000
0.000000e+000
0.000000e+000
0.000000e+000
0.000000e+000
0.000000e+000
0.000000e+000
0.000000e+000
0.000000e+000
0.000000e+000
0.000000e+000
0.000000e+000
0.000000e+000
0.000000e+000
0.000000e+000
0.000000e+000
0.000000e+000
0.000000e+000
0.000000e+000
0.000000e+000
0.000000e+000
0.000000e+000
0.000000e+000
0.000000e+000
0.000000e+000
0.000000e+000
0.000000e+000
0.000000e+000
0.000000e+000
0.000000e+000
2.790606e-009
1.577413e-009
-1.113156e-010
-1.561309e-009
-2.195200e-009
-1.765147e-009
-4.626440e-010
1.138595e-009
2.316106e-009
2.522623e-009
1.647392e-009
7.327987e-011
-1.512662e-009
-2.460728e-009
-2.466669e-009
-1.678283e-009
-5.533982e-010
4.280060e-010
1.013501e-009
1.245628e-009
1.333807e-009
1.446782e-009
1.580637e-009
1.585233e-009
1.308148e-009
7.334580e-010
9.159118e-012
-6.490562e-010
-1.095762e-009
-1.330259e-009
-1.460795e-009
-1.599480e-009
-1.775532e-009
-1.928774e-009
-1.975359e-009
-1.883118e-009
-1.695511e-009
-1.492561e-009
-1.328956e-009
-1.202073e-009
-1.070893e-009
-9.022175e-010
-7.015159e-010
-5.046987e-010
-3.437469e-010
-2.203004e-010
-1.103829e-010
7.090103e-012
1.268931e-010
2.217123e-010
2.693260e-010
2.756936e-010
2.703218e-010
2.767646e-010
2.861884e-010
2.613947e-010
1.711323e-010
2.425394e-011
-1.306252e-010
-2.450749e-010
-3.173731e-010
-4.011488e-010
-5.614129e-010
-8.113090e-010
-1.086177e-009
-1.284884e-009
-1.350140e-009
-1.319731e-009
-1.298048e-009
-1.363026e-009
-1.483610e-009
-1.522841e-009
-1.335358e-009
-8.873588e-010
-3.007093e-010
2.219456e-010
5.384270e-010
6.636629e-010
7.408393e-010
9.046590e-010
1.143834e-009
1.277570e-009
1.077081e-009
4.508372e-010
-4.426209e-010
-1.245023e-009
-1.589711e-009
-1.313479e-009
-5.538876e-010
3.266339e-010
9.378647e-010
1.058316e-009
7.219052e-010
1.625060e-010
-3.311996e-010
-5.588358e-010
-4.787673e-010
-1.906833e-010
1.367292e-010
3.457004e-010
8.996122e-010
5.979685e-010
1.316340e-010
-3.498941e-010
-6.728531e-010
-6.939213e-010
-3.795851e-010
1.467694e-010
6.388434e-010
8.438829e-010
6.434077e-010
1.313607e-010
-4.283148e-010
-7.488342e-010
-6.856406e-010
-3.152734e-010
1.229451e-010
3.831272e-010
3.624912e-010
1.467763e-010
-7.169656e-011
-1.376425e-010
-3.366765e-011
1.281710e-010
2.068967e-010
1.425647e-010
-6.508298e-012
-1.195411e-010
-1.104793e-010
1.137675e-011
1.594724e-010
2.441633e-010
2.395540e-010
1.925487e-010
1.746890e-010
2.221013e-010
3.124369e-010
3.918079e-010
4.228617e-010
4.119529e-010
3.962507e-010
4.074238e-010
4.459228e-010
4.863324e-010
5.047532e-010
5.008316e-010
4.948673e-010
5.051915e-010
5.291654e-010
5.464113e-010
5.406289e-010
5.178936e-010
5.023340e-010
5.120365e-010
5.383291e-010
5.503067e-010
5.232692e-010
4.654784e-010
4.159624e-010
4.110967e-010
4.481078e-010
4.806800e-010
4.558696e-010
3.633049e-010
2.519569e-010
1.941310e-010
2.227278e-010
2.957501e-010
3.237661e-010
2.433696e-010
7.670326e-011
-7.670600e-011
-1.154892e-010
-2.064202e-011
1.224911e-010
1.877409e-010
1.100455e-010
-5.623846e-011
-1.733576e-010
-1.269231e-010
7.819505e-011
3.091022e-010
3.940733e-010
2.458782e-010
-7.093154e-011
-3.777542e-010
-4.974467e-010
-3.665191e-010
-6.911372e-011
2.242195e-010
3.651271e-010
3.094726e-010
1.251189e-010
-6.767035e-011
-1.743598e-010
-1.709591e-010
-9.562440e-011
-6.324497e-012
5.807859e-011
8.808608e-011
-1.747595e-009
-8.282379e-010
3.599695e-010
1.222198e-009
1.385034e-009
8.275413e-010
-1.424881e-010
-1.057816e-009
-1.518304e-009
-1.361412e-009
-7.002770e-010
1.711691e-010
9.369845e-010
1.389676e-009
1.473218e-009
1.242409e-009
7.910016e-010
2.052067e-010
-4.371726e-010
-1.045223e-009
-1.510120e-009
-1.734699e-009
-1.678385e-009
-1.379735e-009
-9.343849e-010
-4.419291e-010
3.991916e-011
5.026728e-010
9.569416e-010
1.395264e-009
1.780551e-009
2.067730e-009
2.236863e-009
2.307622e-009
2.323122e-009
2.318195e-009
2.299201e-009
2.250338e-009
2.157518e-009
2.026984e-009
1.883096e-009
1.749764e-009
1.633994e-009
1.526044e-009
1.414051e-009
1.297893e-009
1.189390e-009
1.100232e-009
1.030965e-009
9.724563e-010
9.180211e-010
8.730939e-010
8.515587e-010
8.615209e-010
8.949165e-010
9.328119e-010
9.630820e-010
9.937746e-010
1.047711e-009
1.141033e-009
1.264852e-009
1.388477e-009
1.483694e-009
1.549057e-009
1.610745e-009
1.696460e-009
1.803958e-009
1.892886e-009
1.909547e-009
1.824855e-009
1.652738e-009
1.432351e-009
1.189634e-009
9.132333e-010
5.684045e-010
1.393663e-010
-3.355876e-010
-7.675877e-010
-1.059222e-009
-1.153600e-009
-1.054526e-009
-8.076819e-010
-4.655240e-010
-6.945370e-011
3.372621e-010
6.849767e-010
8.760700e-010
8.238691e-010
5.132562e-010
3.840301e-011
-4.192474e-010
-6.716184e-010
-6.205800e-010
-3.126259e-010
8.362676e-011
3.667380e-010
4.086890e-010
2.188947e-010
-6.822711e-011
-2.731502e-010
-3.500574e-009
-1.882134e-009
2.932159e-010
2.030928e-009
2.624915e-009
1.899488e-009
2.561366e-010
-1.521915e-009
-2.630467e-009
-2.605625e-009
-1.512739e-009
1.251647e-010
1.611126e-009
2.410614e-009
2.362389e-009
1.670688e-009
7.189732e-010
-1.583928e-010
-8.090045e-010
-1.247203e-009
-1.542854e-009
-1.717628e-009
-1.722898e-009
-1.496808e-009
-1.037538e-009
-4.277570e-010
2.060130e-010
7.616529e-010
1.203646e-009
1.553819e-009
1.848476e-009
2.101366e-009
2.298576e-009
2.420341e-009
2.464425e-009
2.450537e-009
2.405942e-009
2.348339e-009
2.280695e-009
2.199114e-009
2.103407e-009
2.000453e-009
1.899462e-009
1.805756e-009
1.719152e-009
1.637083e-009
1.558234e-009
1.483567e-009
1.415416e-009
1.356846e-009
1.311622e-009
1.283113e-009
1.271619e-009
1.272715e-009
1.279764e-009
1.289859e-009
1.307645e-009
1.341885e-009
1.396432e-009
1.464179e-009
1.531447e-009
1.590422e-009
1.647626e-009
1.717873e-009
1.806644e-009
1.897146e-009
1.957038e-009
1.962212e-009
1.916391e-009
1.845046e-009
1.764254e-009
1.651343e-009
1.448624e-009
1.105705e-009
6.296266e-010
9.869409e-011
-3.782013e-010
-7.283213e-010
-9.524524e-010
-1.097696e-009
-1.185457e-009
-1.158809e-009
-9.061337e-010
-3.587447e-010
4.062134e-010
1.144870e-009
1.545263e-009
1.397823e-009
7.318592e-010
-1.745315e-010
-9.261225e-010
-1.210045e-009
-9.488409e-010
-3.243536e-010
3.317509e-010
7.119543e-010
6.766798e-010
3.015987e-010
-1.810918e-010
-5.069337e-010
-3.131963e-009
-1.873934e-009
-1.070039e-010
1.443239e-009
2.184228e-009
1.856999e-009
6.532649e-010
-8.481889e-010
-1.935693e-009
-2.105928e-009
-1.315698e-009
3.730972e-012
1.188724e-009
1.706167e-009
1.424130e-009
6.348034e-010
-1.672191e-010
-5.948978e-010
-5.665287e-010
-2.825932e-010
-2.997551e-011
2.933009e-011
-6.043383e-011
-1.307447e-010
-4.634946e-011
1.902334e-010
4.566032e-010
6.178898e-010
6.284467e-010
5.517432e-010
4.965423e-010
5.313398e-010
6.449654e-010
7.740037e-010
8.629282e-010
9.045194e-010
9.339078e-010
9.909512e-010
1.087138e-009
1.201904e-009
1.304853e-009
1.380792e-009
1.437275e-009
1.492389e-009
1.556501e-009
1.623713e-009
1.678320e-009
1.709008e-009
1.718481e-009
1.720916e-009
1.729635e-009
1.745134e-009
1.753660e-009
1.738540e-009
1.695630e-009
1.639253e-009
1.591385e-009
1.561298e-009
1.533676e-009
1.478875e-009
1.380105e-009
1.254202e-009
1.143621e-009
1.080969e-009
1.055156e-009
1.013231e-009
9.042631e-010
7.316359e-010
5.647700e-010
4.902070e-010
5.357452e-010
6.329749e-010
6.594999e-010
5.359192e-010
2.991067e-010
8.329472e-011
1.338097e-011
9.322583e-011
1.867045e-010
1.206685e-010
-1.624471e-010
-5.254874e-010
-7.071477e-010
-5.049895e-010
5.895785e-011
7.168988e-010
1.105226e-009
9.895185e-010
4.136554e-010
-3.251121e-010
-8.541880e-010
-9.373257e-010
-5.890074e-010
-3.536116e-011
4.335464e-010
6.183255e-010
4.868350e-010
1.524602e-010
-2.065877e-010
-4.305395e-010
-6.080946e-010
-6.566858e-010
-5.749616e-010
-2.467008e-010
2.522702e-010
6.781114e-010
7.863713e-010
5.176162e-010
5.509984e-011
-2.991402e-010
-3.443111e-010
-1.319719e-010
7.212822e-011
-4.471108e-012
-4.155823e-010
-9.251769e-010
-1.152072e-009
-8.317050e-010
-7.092028e-012
9.881419e-010
1.739541e-009
2.001673e-009
1.815008e-009
1.423951e-009
1.077415e-009
8.677694e-010
7.158713e-010
4.875924e-010
1.313156e-010
-2.734079e-010
-5.811150e-010
-6.924609e-010
-6.190636e-010
-4.576767e-010
-3.071881e-010
-2.009168e-010
-1.027406e-010
4.237461e-011
2.535333e-010
4.989916e-010
7.256767e-010
9.014370e-010
1.033708e-009
1.153428e-009
1.282929e-009
1.416688e-009
1.529229e-009
1.600231e-009
1.633448e-009
1.653014e-009
1.680918e-009
1.715971e-009
1.733695e-009
1.708691e-009
1.640444e-009
1.558183e-009
1.497029e-009
1.463946e-009
1.424975e-009
1.330177e-009
1.159063e-009
9.461380e-010
7.579697e-010
6.350113e-010
5.482587e-010
4.159387e-010
1.760699e-010
-1.434469e-010
-4.236459e-010
-5.355377e-010
-4.428986e-010
-2.376929e-010
-6.816638e-011
-1.151970e-011
7.713453e-013
1.312179e-010
4.881285e-010
9.993822e-010
1.421028e-009
1.491150e-009
1.120102e-009
4.707129e-010
-1.389892e-010
-4.429572e-010
-3.925580e-010
-1.618922e-010
2.245562e-012
-3.411321e-011
-2.098349e-010
-3.413426e-010
-2.816815e-010
-3.792363e-011
2.391026e-010
3.747819e-010
3.004761e-010
9.385091e-011
-9.320672e-011
-1.542736e-010
-9.952755e-011
-2.734904e-011
2.766341e-009
1.196679e-009
-7.429458e-010
-1.998740e-009
-2.023943e-009
-9.655050e-010
5.112531e-010
1.643415e-009
1.975559e-009
1.523291e-009
6.433563e-010
-2.527077e-010
-9.276904e-010
-1.354651e-009
-1.586811e-009
-1.609696e-009
-1.315276e-009
-6.165136e-010
4.083677e-010
1.482514e-009
2.257095e-009
2.512466e-009
2.283119e-009
1.813105e-009
1.379771e-009
1.121064e-009
9.888945e-010
8.446850e-010
6.037764e-010
3.096445e-010
8.923964e-011
4.126500e-011
1.562917e-010
3.296634e-010
4.460355e-010
4.598444e-010
4.095216e-010
3.648765e-010
3.603784e-010
3.701603e-010
3.381599e-010
2.299138e-010
5.983300e-011
-1.253063e-010
-2.869169e-010
-4.219358e-010
-5.552919e-010
-7.079698e-010
-8.714045e-010
-1.011297e-009
-1.096560e-009
-1.126158e-009
-1.128094e-009
-1.129890e-009
-1.127081e-009
-1.080799e-009
-9.510982e-010
-7.388122e-010
-4.963483e-010
-2.917983e-010
-1.534508e-010
-4.504972e-011
9.960719e-011
3.069644e-010
5.210061e-010
6.338212e-010
5.732471e-010
3.750017e-010
1.706230e-010
9.102654e-011
1.626314e-010
2.882557e-010
3.375369e-010
2.748472e-010
2.117317e-010
3.275640e-010
7.135949e-010
1.267280e-009
1.730781e-009
1.853148e-009
1.554489e-009
9.677368e-010
3.323445e-010
-1.685185e-010
-4.972692e-010
-7.176698e-010
-8.732713e-010
-9.081668e-010
-7.080097e-010
-2.297232e-010
3.956304e-010
8.897244e-010
9.858712e-010
6.134528e-010
-2.948376e-011
-5.799870e-010
-7.310161e-010
-4.248553e-010
1.109904e-010
5.117798e-010
4.994792e-009
2.624431e-009
-4.412993e-010
-2.696624e-009
-3.240591e-009
-2.085516e-009
-3.565483e-011
1.801636e-009
2.597865e-009
2.166217e-009
9.375998e-010
-3.830276e-010
-1.236261e-009
-1.449410e-009
-1.195467e-009
-7.636609e-010
-3.401943e-010
5.292146e-011
4.624225e-010
8.757839e-010
1.188192e-009
1.288292e-009
1.173694e-009
9.825801e-010
9.059977e-010
1.052170e-009
1.374850e-009
1.720618e-009
1.949264e-009
2.025245e-009
2.011120e-009
1.981217e-009
1.937577e-009
1.799230e-009
1.466548e-009
8.991391e-010
1.409832e-010
-7.220657e-010
-1.629293e-009
-2.578459e-009
-3.602754e-009
-4.718928e-009
-5.894974e-009
-7.063155e-009
-8.162179e-009
-9.168846e-009
-1.009272e-008
-1.094246e-008
-1.169712e-008
-1.230911e-008
-1.273507e-008
-1.296452e-008
-1.301806e-008
-1.291577e-008
-1.264577e-008
-1.216578e-008
-1.144133e-008
-1.048828e-008
-9.378718e-009
-8.199268e-009
-6.995647e-009
-5.754973e-009
-4.447336e-009
-3.093214e-009
-1.793448e-009
-6.857820e-010
1.427929e-010
7.132882e-010
1.126986e-009
1.471376e-009
1.741138e-009
1.847959e-009
1.716325e-009
1.382569e-009
1.005004e-009
7.669895e-010
7.493107e-010
8.785745e-010
9.948974e-010
9.794816e-010
8.321684e-010
6.365526e-010
4.536794e-010
2.513627e-010
-5.628539e-011
-4.885539e-010
-9.099156e-010
-1.072644e-009
-7.836920e-010
-7.824587e-011
7.409282e-010
1.250866e-009
1.159704e-009
4.980578e-010
-3.803281e-010
-9.965008e-010
-1.023246e-009
-4.731817e-010
3.129400e-010
8.675938e-010
4.537332e-009
2.666256e-009
1.570515e-010
-1.855177e-009
-2.608815e-009
-1.985361e-009
-5.106065e-010
9.486910e-010
1.650448e-009
1.356302e-009
4.110945e-010
-5.161295e-010
-8.599244e-010
-4.827226e-010
2.983434e-010
9.696558e-010
1.165084e-009
8.608776e-010
3.181158e-010
-1.415830e-010
-3.396939e-010
-2.874803e-010
-8.434319e-011
2.109297e-010
6.190813e-010
1.172788e-009
1.824241e-009
2.422295e-009
2.780540e-009
2.773254e-009
2.376389e-009
1.626523e-009
5.448428e-010
-9.017992e-010
-2.772041e-009
-5.086791e-009
-7.792747e-009
-1.078414e-008
-1.395947e-008
-1.726146e-008
-2.066862e-008
-2.415313e-008
-2.764784e-008
-3.105263e-008
-3.427129e-008
-3.724312e-008
-3.994124e-008
-4.234220e-008
-4.439822e-008
-4.603880e-008
-4.719912e-008
-4.784646e-008
-4.797822e-008
-4.759327e-008
-4.666670e-008
-4.515697e-008
-4.304469e-008
-4.036947e-008
-3.722904e-008
-3.373767e-008
-2.998087e-008
-2.600996e-008
-2.188477e-008
-1.772429e-008
-1.371142e-008
-1.003635e-008
-6.820891e-009
-4.088918e-009
-1.809929e-009
2.465992e-011
1.366401e-009
2.153803e-009
2.397714e-009
2.225889e-009
1.836836e-009
1.396483e-009
9.680536e-010
5.386529e-010
1.153847e-010
-2.072406e-010
-2.873631e-010
-6.266928e-011
3.481009e-010
6.773437e-010
6.771685e-010
3.057783e-010
-2.180295e-010
-5.496413e-010
-4.549708e-010
2.114553e-011
5.770125e-010
8.509192e-010
6.546586e-010
8.779231e-011
-5.324871e-010
-8.665835e-010
-7.439739e-010
-2.433994e-010
3.656375e-010
7.705391e-010
1.309315e-009
1.095385e-009
6.709336e-010
9.484644e-011
-4.446571e-010
-7.199530e-010
-6.380501e-010
-3.390122e-010
-1.080926e-010
-1.479835e-010
-3.913367e-010
-5.220366e-010
-2.136881e-010
5.884534e-010
1.567143e-009
2.209339e-009
2.141489e-009
1.381322e-009
3.260334e-010
-5.047107e-010
-7.769434e-010
-4.896321e-010
1.097439e-010
7.351807e-010
1.220003e-009
1.520432e-009
1.604563e-009
1.350832e-009
5.474804e-010
-1.018713e-009
-3.471654e-009
-6.827892e-009
-1.105070e-008
-1.611316e-008
-2.201101e-008
-2.872240e-008
-3.616243e-008
-4.417915e-008
-5.259379e-008
-6.124653e-008
-7.000907e-008
-7.876116e-008
-8.736199e-008
-9.564798e-008
-1.034587e-007
-1.106638e-007
-1.171654e-007
-1.228748e-007
-1.276894e-007
-1.314930e-007
-1.341776e-007
-1.356648e-007
-1.359038e-007
-1.348506e-007
-1.324541e-007
-1.286713e-007
-1.235042e-007
-1.170274e-007
-1.093809e-007
-1.007354e-007
-9.126557e-008
-8.115985e-008
-7.065787e-008
-6.007094e-008
-4.975040e-008
-4.001514e-008
-3.109209e-008
-2.311708e-008
-1.618803e-008
-1.041014e-008
-5.877374e-009
-2.598379e-009
-4.390170e-010
8.484194e-010
1.515055e-009
1.712304e-009
1.490408e-009
9.068081e-010
1.453675e-010
-4.789917e-010
-6.658307e-010
-3.247621e-010
3.407119e-010
9.478233e-010
1.178131e-009
9.732535e-010
5.399919e-010
1.713905e-010
3.108277e-011
6.595224e-011
9.757417e-011
-2.948293e-012
-2.081304e-010
-3.739897e-010
-3.753097e-010
-2.110050e-010
6.346096e-012
1.540650e-010
1.951000e-010
1.828945e-010
-3.121074e-009
-1.332962e-009
8.097422e-010
2.102490e-009
2.033296e-009
9.181183e-010
-4.473092e-010
-1.347981e-009
-1.531108e-009
-1.195821e-009
-6.884962e-010
-1.974900e-010
3.137744e-010
9.323567e-010
1.585957e-009
2.015482e-009
1.967321e-009
1.435977e-009
7.348081e-010
3.146336e-010
4.601563e-010
1.092811e-009
1.817857e-009
2.157645e-009
1.778557e-009
5.494173e-010
-1.576577e-009
-4.724929e-009
-9.162442e-009
-1.521916e-008
-2.315000e-008
-3.305064e-008
-4.487619e-008
-5.851814e-008
-7.385840e-008
-9.076016e-008
-1.090227e-007
-1.283567e-007
-1.484093e-007
-1.688168e-007
-1.892428e-007
-2.093809e-007
-2.289349e-007
-2.476084e-007
-2.651152e-007
-2.811969e-007
-2.956275e-007
-3.081993e-007
-3.187068e-007
-3.269446e-007
-3.327210e-007
-3.358709e-007
-3.362543e-007
-3.337472e-007
-3.282448e-007
-3.196874e-007
-3.080959e-007
-2.935919e-007
-2.763884e-007
-2.567700e-007
-2.350911e-007
-2.118029e-007
-1.874790e-007
-1.627962e-007
-1.384581e-007
-1.151003e-007
-9.324008e-008
-7.329418e-008
-5.562323e-008
-4.052987e-008
-2.818262e-008
-1.852151e-008
-1.124432e-008
-5.919908e-009
-2.164662e-009
2.516018e-010
1.457071e-009
1.640159e-009
1.170400e-009
5.495644e-010
2.072685e-010
2.966597e-010
6.586807e-010
9.901043e-010
1.083285e-009
9.498278e-010
7.452670e-010
5.850146e-010
4.306905e-010
1.528675e-010
-2.922639e-010
-7.472680e-010
-9.275584e-010
-6.458427e-010
-3.250273e-012
6.283697e-010
8.469920e-010
5.126516e-010
-1.351263e-010
-6.362264e-010
-6.346734e-009
-3.252721e-009
5.818964e-010
3.141276e-009
3.458605e-009
1.909699e-009
-2.377075e-010
-1.698418e-009
-1.893605e-009
-1.109745e-009
-9.641774e-011
5.283615e-010
6.322194e-010
4.958241e-010
4.685256e-010
6.770817e-010
1.004690e-009
1.294137e-009
1.542627e-009
1.892071e-009
2.422851e-009
2.939445e-009
2.938110e-009
1.781693e-009
-1.069887e-009
-5.959490e-009
-1.312261e-008
-2.286092e-008
-3.563212e-008
-5.197360e-008
-7.232120e-008
-9.686023e-008
-1.255006e-007
-1.579580e-007
-1.938492e-007
-2.327281e-007
-2.740623e-007
-3.172067e-007
-3.614241e-007
-4.059496e-007
-4.500575e-007
-4.930935e-007
-5.344681e-007
-5.736374e-007
-6.100943e-007
-6.433708e-007
-6.730397e-007
-6.987081e-007
-7.200063e-007
-7.365831e-007
-7.481070e-007
-7.542686e-007
-7.547798e-007
-7.493798e-007
-7.378590e-007
-7.200996e-007
-6.961148e-007
-6.660678e-007
-6.302704e-007
-5.891887e-007
-5.434755e-007
-4.940165e-007
-4.419443e-007
-3.885789e-007
-3.353029e-007
-2.834371e-007
-2.341772e-007
-1.885948e-007
-1.476334e-007
-1.120316e-007
-8.217915e-008
-5.800816e-008
-3.903008e-008
-2.453265e-008
-1.382102e-008
-6.342605e-009
-1.628623e-009
8.576494e-010
1.795061e-009
1.903039e-009
1.732370e-009
1.525519e-009
1.272073e-009
9.143161e-010
5.222780e-010
2.841256e-010
3.280716e-010
5.544399e-010
6.604869e-010
3.736163e-010
-2.877483e-010
-9.577134e-010
-1.153787e-009
-6.432994e-010
3.345776e-010
1.181566e-009
1.332152e-009
6.530582e-010
-4.406406e-010
-1.247869e-009
-6.511025e-009
-3.505102e-009
2.388943e-010
2.767047e-009
3.127283e-009
1.686517e-009
-2.782624e-010
-1.453078e-009
-1.268221e-009
-1.208166e-010
1.038555e-009
1.414803e-009
8.723432e-010
-7.240120e-011
-6.896876e-010
-5.393418e-010
3.157289e-010
1.467790e-009
2.483982e-009
3.092549e-009
3.103634e-009
2.177775e-009
-3.311718e-010
-5.327807e-009
-1.378616e-008
-2.659599e-008
-4.455933e-008
-6.849179e-008
-9.927885e-008
-1.377790e-007
-1.846052e-007
-2.399225e-007
-3.033852e-007
-3.742257e-007
-4.514057e-007
-5.337288e-007
-6.198797e-007
-7.084338e-007
-7.978961e-007
-8.867848e-007
-9.737270e-007
-1.057518e-006
-1.137123e-006
-1.211651e-006
-1.280309e-006
-1.342384e-006
-1.397231e-006
-1.444259e-006
-1.482929e-006
-1.512730e-006
-1.533174e-006
-1.543773e-006
-1.544048e-006
-1.533540e-006
-1.511863e-006
-1.478755e-006
-1.434130e-006
-1.378102e-006
-1.311006e-006
-1.233454e-006
-1.146408e-006
-1.051277e-006
-9.499284e-007
-8.446197e-007
-7.378415e-007
-6.321636e-007
-5.301303e-007
-4.341847e-007
-3.465457e-007
-2.689908e-007
-2.026033e-007
-1.476236e-007
-1.035185e-007
-6.924482e-008
-4.355390e-008
-2.516937e-008
-1.279969e-008
-5.096709e-009
-7.079680e-010
1.543803e-009
2.476760e-009
2.527176e-009
1.930514e-009
9.659653e-010
5.313319e-011
-3.912643e-010
-2.142086e-010
3.387608e-010
7.704320e-010
6.847761e-010
8.705713e-011
-6.055120e-010
-8.644705e-010
-4.457233e-010
4.119081e-010
1.134062e-009
1.202484e-009
5.165543e-010
-5.256184e-010
-1.281398e-009
-3.417795e-009
-1.885178e-009
1.517996e-011
1.261815e-009
1.349498e-009
5.030722e-010
-5.071565e-010
-8.728576e-010
-2.753051e-010
9.107541e-010
1.883980e-009
1.979871e-009
1.139548e-009
-4.677199e-011
-7.462905e-010
-4.422866e-010
7.435104e-010
2.147469e-009
2.933591e-009
2.403771e-009
7.538661e-012
-4.920816e-009
-1.345728e-008
-2.718209e-008
-4.802813e-008
-7.802544e-008
-1.191108e-007
-1.730470e-007
-2.413588e-007
-3.251762e-007
-4.249839e-007
-5.403979e-007
-6.701066e-007
-8.120178e-007
-9.635289e-007
-1.121790e-006
-1.283884e-006
-1.446931e-006
-1.608176e-006
-1.765097e-006
-1.915511e-006
-2.057636e-006
-2.190084e-006
-2.311790e-006
-2.421924e-006
-2.519805e-006
-2.604863e-006
-2.676603e-006
-2.734584e-006
-2.778386e-006
-2.807569e-006
-2.821634e-006
-2.820015e-006
-2.802104e-006
-2.767299e-006
-2.715063e-006
-2.644967e-006
-2.556719e-006
-2.450226e-006
-2.325709e-006
-2.183880e-006
-2.026129e-006
-1.854636e-006
-1.672384e-006
-1.483071e-006
-1.290987e-006
-1.100874e-006
-9.177029e-007
-7.463168e-007
-5.909288e-007
-4.546133e-007
-3.389875e-007
-2.442054e-007
-1.692214e-007
-1.121473e-007
-7.054725e-008
-4.164452e-008
-2.253693e-008
-1.049672e-008
-3.294769e-009
6.219923e-010
2.225336e-009
2.211063e-009
1.285837e-009
2.179914e-010
-3.680486e-010
-2.538632e-010
3.076275e-010
8.157469e-010
8.882659e-010
5.084732e-010
-1.126826e-011
-2.940629e-010
-1.761354e-010
2.002345e-010
5.181078e-010
5.200816e-010
1.753124e-010
-3.167937e-010
-6.645230e-010
1.356365e-009
7.031453e-010
-9.325027e-011
-6.483545e-010
-8.416701e-010
-7.650943e-010
-5.268905e-010
-1.245223e-010
4.851984e-010
1.210734e-009
1.765696e-009
1.843460e-009
1.404302e-009
8.041928e-010
5.947544e-010
1.096695e-009
2.050456e-009
2.590225e-009
1.515139e-009
-2.417928e-009
-1.046542e-008
-2.418395e-008
-4.581300e-008
-7.844913e-008
-1.258596e-007
-1.920233e-007
-2.806129e-007
-3.945730e-007
-5.358023e-007
-7.048754e-007
-9.007907e-007
-1.120838e-006
-1.360714e-006
-1.614923e-006
-1.877363e-006
-2.141910e-006
-2.402872e-006
-2.655249e-006
-2.894871e-006
-3.118481e-006
-3.323761e-006
-3.509315e-006
-3.674554e-006
-3.819518e-006
-3.944656e-006
-4.050647e-006
-4.138271e-006
-4.208334e-006
-4.261619e-006
-4.298819e-006
-4.320466e-006
-4.326857e-006
-4.318008e-006
-4.293639e-006
-4.253172e-006
-4.195710e-006
-4.119998e-006
-4.024394e-006
-3.906929e-006
-3.765492e-006
-3.598172e-006
-3.403686e-006
-3.181816e-006
-2.933802e-006
-2.662657e-006
-2.373374e-006
-2.072943e-006
-1.770043e-006
-1.474324e-006
-1.195338e-006
-9.413884e-007
-7.185969e-007
-5.304181e-007
-3.776180e-007
-2.585778e-007
-1.697799e-007
-1.064172e-007
-6.311768e-008
-3.471264e-008
-1.686074e-008
-6.320411e-009
-8.134371e-010
1.346731e-009
1.567192e-009
1.033729e-009
5.620323e-010
4.662496e-010
6.335764e-010
7.911720e-010
7.748180e-010
6.156757e-010
4.323281e-010
2.801515e-010
1.167740e-010
-1.009522e-010
-3.150845e-010
-3.866519e-010
-2.298088e-010
7.560924e-011
3.178811e-010
5.424169e-009
2.817038e-009
-3.019197e-010
-2.238071e-009
-2.372618e-009
-1.249892e-009
5.736095e-011
7.731087e-010
8.280203e-010
6.603743e-010
7.115656e-010
1.089455e-009
1.623206e-009
2.137576e-009
2.596081e-009
2.928631e-009
2.674653e-009
7.276117e-010
-4.669260e-009
-1.579895e-008
-3.547532e-008
-6.729624e-008
-1.159825e-007
-1.874663e-007
-2.884780e-007
-4.256472e-007
-6.043699e-007
-8.277486e-007
-1.095813e-006
-1.405097e-006
-1.748615e-006
-2.116263e-006
-2.495694e-006
-2.873559e-006
-3.236890e-006
-3.574327e-006
-3.876935e-006
-4.138558e-006
-4.355797e-006
-4.527767e-006
-4.655756e-006
-4.742840e-006
-4.793437e-006
-4.812845e-006
-4.806777e-006
-4.781001e-006
-4.741093e-006
-4.692321e-006
-4.639589e-006
-4.587372e-006
-4.539634e-006
-4.499717e-006
-4.470213e-006
-4.452822e-006
-4.448129e-006
-4.455306e-006
-4.471742e-006
-4.492708e-006
-4.511194e-006
-4.518030e-006
-4.502383e-006
-4.452613e-006
-4.357455e-006
-4.207454e-006
-3.996534e-006
-3.723486e-006
-3.393024e-006
-3.016021e-006
-2.608665e-006
-2.190555e-006
-1.782122e-006
-1.401944e-006
-1.064529e-006
-7.789481e-007
-5.484448e-007
-3.709861e-007
-2.405513e-007
-1.488595e-007
-8.711344e-008
-4.733693e-008
-2.304183e-008
-9.262987e-009
-2.261208e-009
7.582312e-010
1.754820e-009
1.885904e-009
1.652291e-009
1.210144e-009
6.931922e-010
3.292978e-010
3.010869e-010
5.388274e-010
7.067433e-010
4.620094e-010
-2.137213e-010
-9.211726e-010
-1.118459e-009
-5.675707e-010
4.222500e-010
1.183513e-009
6.985409e-009
3.389994e-009
-7.788310e-010
-3.082369e-009
-2.721031e-009
-6.857535e-010
1.226958e-009
1.762137e-009
9.473369e-010
-1.869781e-010
-5.312591e-010
3.106888e-010
1.889831e-009
3.358281e-009
3.966701e-009
3.131474e-009
6.920114e-012
-7.119608e-009
-2.125197e-008
-4.683418e-008
-8.978983e-008
-1.576108e-007
-2.593924e-007
-4.054527e-007
-6.061792e-007
-8.700485e-007
-1.201189e-006
-1.597140e-006
-2.047467e-006
-2.533666e-006
-3.030480e-006
-3.508394e-006
-3.936913e-006
-4.287998e-006
-4.539043e-006
-4.674884e-006
-4.688566e-006
-4.580981e-006
-4.359708e-006
-4.037492e-006
-3.630709e-006
-3.157998e-006
-2.639077e-006
-2.093769e-006
-1.541223e-006
-9.994058e-007
-4.848695e-007
-1.275482e-008
4.030784e-007
7.499182e-007
1.016147e-006
1.191298e-006
1.266260e-006
1.233677e-006
1.088620e-006
8.295686e-007
4.596065e-007
-1.231869e-008
-5.703426e-007
-1.191098e-006
-1.843846e-006
-2.491537e-006
-3.092966e-006
-3.606090e-006
-3.992374e-006
-4.221704e-006
-4.277021e-006
-4.157615e-006
-3.880090e-006
-3.476458e-006
-2.989504e-006
-2.466294e-006
-1.951192e-006
-1.479928e-006
-1.075943e-006
-7.496186e-007
-5.001093e-007
-3.188481e-007
-1.934283e-007
-1.107784e-007
-5.909569e-008
-2.863627e-008
-1.182919e-008
-3.167022e-009
9.602283e-010
2.575252e-009
2.657419e-009
1.792338e-009
6.150099e-010
-1.837952e-010
-1.950632e-010
4.091779e-010
9.734595e-010
8.630610e-010
-1.199915e-012
-1.030671e-009
-1.409721e-009
-7.578781e-010
5.252773e-010
1.531425e-009
5.746914e-009
2.359836e-009
-1.390272e-009
-3.084961e-009
-2.059894e-009
4.547465e-010
2.435984e-009
2.574046e-009
1.098673e-009
-5.790187e-010
-1.016699e-009
2.249044e-010
2.352460e-009
3.889978e-009
3.371899e-009
-5.105127e-010
-9.527283e-009
-2.695018e-008
-5.846310e-008
-1.126065e-007
-2.007603e-007
-3.367655e-007
-5.360367e-007
-8.136937e-007
-1.181244e-006
-1.641887e-006
-2.185387e-006
-2.784175e-006
-3.392408e-006
-3.948927e-006
-4.383881e-006
-4.627608e-006
-4.619788e-006
-4.316944e-006
-3.696981e-006
-2.760258e-006
-1.527549e-006
-3.584924e-008
1.666780e-006
3.526259e-006
5.486730e-006
7.493732e-006
9.496328e-006
1.144836e-005
1.330900e-005
1.504271e-005
1.661874e-005
1.801023e-005
1.919324e-005
2.014584e-005
2.084743e-005
2.127829e-005
2.141960e-005
2.125394e-005
2.076632e-005
1.994614e-005
1.878963e-005
1.730300e-005
1.550566e-005
1.343344e-005
1.114105e-005
8.703249e-006
6.213681e-006
3.780710e-006
1.519570e-006
-4.588763e-007
-2.061474e-006
-3.225887e-006
-3.930554e-006
-4.198717e-006
-4.094743e-006
-3.712833e-006
-3.160385e-006
-2.540070e-006
-1.935137e-006
-1.401326e-006
-9.662826e-007
-6.348467e-007
-3.970406e-007
-2.357333e-007
-1.322110e-007
-6.939006e-008
-3.329999e-008
-1.357496e-008
-3.342578e-009
1.395435e-009
2.777093e-009
2.147135e-009
7.251607e-010
-3.579134e-010
-4.523483e-010
2.949794e-010
1.108789e-009
1.205400e-009
4.155073e-010
-6.810845e-010
-1.223075e-009
-7.663657e-010
3.485840e-010
1.258410e-009
2.819592e-009
5.886393e-010
-1.703485e-009
-2.337281e-009
-9.531354e-010
1.355101e-009
2.937015e-009
2.814446e-009
1.349694e-009
-1.020783e-010
-2.574033e-010
1.103001e-009
2.863205e-009
3.033362e-009
-6.675990e-010
-1.084214e-008
-3.134921e-008
-6.880170e-008
-1.339296e-007
-2.422049e-007
-4.134105e-007