# vtk DataFile Version 3.0
vtk output
ASCII
DATASET STRUCTURED_POINTS
DIMENSIONS 100 100 1
SPACING 1 1 1
ORIGIN 0 0 0
POINT_DATA 10000
SCALARS SFBox_profile double
LOOKUP_TABLE default 
9.439941e-003
9.439933e-003
9.439923e-003
9.439916e-003
9.439915e-003
9.439917e-003
9.439920e-003
9.439920e-003
9.439918e-003
9.439918e-003
9.439921e-003
9.439925e-003
9.439926e-003
9.439923e-003
9.439918e-003
9.439915e-003
9.439915e-003
9.439918e-003
9.439921e-003
9.439921e-003
9.439920e-003
9.439919e-003
9.439920e-003
9.439922e-003
9.439923e-003
9.439923e-003
9.439922e-003
9.439921e-003
9.439922e-003
9.439922e-003
9.439923e-003
9.439922e-003
9.439922e-003
9.439923e-003
9.439925e-003
9.439926e-003
9.439928e-003
9.439929e-003
9.439930e-003
9.439932e-003
9.439933e-003
9.439934e-003
9.439935e-003
9.439936e-003
9.439937e-003
9.439938e-003
9.439938e-003
9.439938e-003
9.439939e-003
9.439939e-003
9.439939e-003
9.439939e-003
9.439938e-003
9.439938e-003
9.439937e-003
9.439937e-003
9.439936e-003
9.439935e-003
9.439934e-003
9.439933e-003
9.439932e-003
9.439930e-003
9.439929e-003
9.439928e-003
9.439927e-003
9.439926e-003
9.439925e-003
9.439924e-003
9.439923e-003
9.439923e-003
9.439922e-003
9.439922e-003
9.439922e-003
9.439921e-003
9.439921e-003
9.439922e-003
9.439922e-003
9.439921e-003
9.439920e-003
9.439920e-003
9.439920e-003
9.439921e-003
9.439920e-003
9.439919e-003
9.439918e-003
9.439918e-003
9.439919e-003
9.439921e-003
9.439922e-003
9.439922e-003
9.439921e-003
9.439920e-003
9.439919e-003
9.439919e-003
9.439920e-003
9.439920e-003
9.439920e-003
9.439920e-003
9.439920e-003
9.439921e-003
9.439941e-003
9.439933e-003
9.439923e-003
9.439916e-003
9.439915e-003
9.439917e-003
9.439920e-003
9.439920e-003
9.439918e-003
9.439918e-003
9.439921e-003
9.439925e-003
9.439926e-003
9.439923e-003
9.439918e-003
9.439915e-003
9.439915e-003
9.439918e-003
9.439921e-003
9.439921e-003
9.439920e-003
9.439919e-003
9.439920e-003
9.439922e-003
9.439923e-003
9.439923e-003
9.439922e-003
9.439921e-003
9.439922e-003
9.439922e-003
9.439923e-003
9.439922e-003
9.439922e-003
9.439923e-003
9.439925e-003
9.439926e-003
9.439928e-003
9.439929e-003
9.439930e-003
9.439932e-003
9.439933e-003
9.439934e-003
9.439935e-003
9.439936e-003
9.439937e-003
9.439938e-003
9.439938e-003
9.439938e-003
9.439939e-003
9.439939e-003
9.439939e-003
9.439939e-003
9.439938e-003
9.439938e-003
9.439937e-003
9.439937e-003
9.439936e-003
9.439935e-003
9.439934e-003
9.439933e-003
9.439932e-003
9.439930e-003
9.439929e-003
9.439928e-003
9.439927e-003
9.439926e-003
9.439925e-003
9.439924e-003
9.439923e-003
9.439923e-003
9.439922e-003
9.439922e-003
9.439922e-003
9.439921e-003
9.439921e-003
9.439922e-003
9.439922e-003
9.439921e-003
9.439920e-003
9.439920e-003
9.439920e-003
9.439921e-003
9.439920e-003
9.439919e-003
9.439918e-003
9.439918e-003
9.439919e-003
9.439921e-003
9.439922e-003
9.439922e-003
9.439921e-003
9.439920e-003
9.439919e-003
9.439919e-003
9.439920e-003
9.439920e-003
9.439920e-003
9.439920e-003
9.439920e-003
9.439921e-003
9.439928e-003
9.439924e-003
9.439919e-003
9.439916e-003
9.439917e-003
9.439920e-003
9.439923e-003
9.439923e-003
9.439921e-003
9.439918e-003
9.439918e-003
9.439919e-003
9.439921e-003
9.439921e-003
9.439920e-003
9.439919e-003
9.439920e-003
9.439921e-003
9.439922e-003
9.439922e-003
9.439920e-003
9.439919e-003
9.439920e-003
9.439921e-003
9.439921e-003
9.439921e-003
9.439921e-003
9.439921e-003
9.439923e-003
9.439924e-003
9.439925e-003
9.439926e-003
9.439926e-003
9.439927e-003
9.439928e-003
9.439929e-003
9.439930e-003
9.439931e-003
9.439931e-003
9.439932e-003
9.439933e-003
9.439934e-003
9.439934e-003
9.439935e-003
9.439935e-003
9.439936e-003
9.439936e-003
9.439936e-003
9.439937e-003
9.439937e-003
9.439937e-003
9.439937e-003
9.439937e-003
9.439937e-003
9.439936e-003
9.439936e-003
9.439936e-003
9.439935e-003
9.439934e-003
9.439934e-003
9.439933e-003
9.439932e-003
9.439931e-003
9.439931e-003
9.439930e-003
9.439929e-003
9.439928e-003
9.439927e-003
9.439926e-003
9.439925e-003
9.439924e-003
9.439923e-003
9.439922e-003
9.439921e-003
9.439921e-003
9.439921e-003
9.439921e-003
9.439920e-003
9.439920e-003
9.439920e-003
9.439920e-003
9.439921e-003
9.439921e-003
9.439920e-003
9.439920e-003
9.439920e-003
9.439920e-003
9.439920e-003
9.439920e-003
9.439920e-003
9.439920e-003
9.439920e-003
9.439920e-003
9.439921e-003
9.439920e-003
9.439920e-003
9.439920e-003
9.439920e-003
9.439920e-003
9.439920e-003
9.439912e-003
9.439914e-003
9.439916e-003
9.439919e-003
9.439921e-003
9.439922e-003
9.439924e-003
9.439924e-003
9.439923e-003
9.439920e-003
9.439916e-003
9.439914e-003
9.439915e-003
9.439918e-003
9.439922e-003
9.439923e-003
9.439924e-003
9.439923e-003
9.439922e-003
9.439921e-003
9.439921e-003
9.439921e-003
9.439920e-003
9.439920e-003
9.439920e-003
9.439921e-003
9.439922e-003
9.439923e-003
9.439925e-003
9.439927e-003
9.439929e-003
9.439930e-003
9.439932e-003
9.439933e-003
9.439934e-003
9.439935e-003
9.439936e-003
9.439936e-003
9.439937e-003
9.439937e-003
9.439937e-003
9.439938e-003
9.439938e-003
9.439938e-003
9.439939e-003
9.439939e-003
9.439940e-003
9.439940e-003
9.439940e-003
9.439940e-003
9.439940e-003
9.439940e-003
9.439940e-003
9.439940e-003
9.439940e-003
9.439940e-003
9.439940e-003
9.439939e-003
9.439939e-003
9.439939e-003
9.439938e-003
9.439938e-003
9.439937e-003
9.439936e-003
9.439935e-003
9.439934e-003
9.439933e-003
9.439931e-003
9.439930e-003
9.439928e-003
9.439927e-003
9.439926e-003
9.439924e-003
9.439923e-003
9.439922e-003
9.439921e-003
9.439921e-003
9.439920e-003
9.439920e-003
9.439920e-003
9.439920e-003
9.439920e-003
9.439921e-003
9.439921e-003
9.439922e-003
9.439922e-003
9.439921e-003
9.439919e-003
9.439918e-003
9.439918e-003
9.439919e-003
9.439920e-003
9.439921e-003
9.439921e-003
9.439921e-003
9.439920e-003
9.439920e-003
9.439920e-003
9.439920e-003
9.439920e-003
9.439901e-003
9.439908e-003
9.439918e-003
9.439924e-003
9.439925e-003
9.439922e-003
9.439920e-003
9.439920e-003
9.439922e-003
9.439922e-003
9.439919e-003
9.439916e-003
9.439915e-003
9.439918e-003
9.439922e-003
9.439925e-003
9.439924e-003
9.439921e-003
9.439919e-003
9.439919e-003
9.439921e-003
9.439922e-003
9.439923e-003
9.439922e-003
9.439923e-003
9.439924e-003
9.439926e-003
9.439928e-003
9.439930e-003
9.439932e-003
9.439933e-003
9.439936e-003
9.439938e-003
9.439939e-003
9.439941e-003
9.439942e-003
9.439943e-003
9.439944e-003
9.439945e-003
9.439946e-003
9.439946e-003
9.439946e-003
9.439946e-003
9.439946e-003
9.439946e-003
9.439946e-003
9.439946e-003
9.439946e-003
9.439945e-003
9.439945e-003
9.439945e-003
9.439945e-003
9.439945e-003
9.439945e-003
9.439945e-003
9.439945e-003
9.439945e-003
9.439945e-003
9.439945e-003
9.439945e-003
9.439945e-003
9.439944e-003
9.439943e-003
9.439943e-003
9.439941e-003
9.439940e-003
9.439939e-003
9.439937e-003
9.439935e-003
9.439933e-003
9.439931e-003
9.439930e-003
9.439928e-003
9.439927e-003
9.439925e-003
9.439924e-003
9.439923e-003
9.439922e-003
9.439922e-003
9.439921e-003
9.439920e-003
9.439920e-003
9.439920e-003
9.439921e-003
9.439922e-003
9.439922e-003
9.439921e-003
9.439919e-003
9.439918e-003
9.439918e-003
9.439919e-003
9.439920e-003
9.439921e-003
9.439921e-003
9.439920e-003
9.439920e-003
9.439920e-003
9.439920e-003
9.439920e-003
9.439919e-003
9.439900e-003
9.439910e-003
9.439922e-003
9.439929e-003
9.439927e-003
9.439919e-003
9.439914e-003
9.439914e-003
9.439919e-003
9.439923e-003
9.439924e-003
9.439922e-003
9.439919e-003
9.439919e-003
9.439921e-003
9.439922e-003
9.439921e-003
9.439918e-003
9.439917e-003
9.439919e-003
9.439922e-003
9.439925e-003
9.439926e-003
9.439927e-003
9.439928e-003
9.439930e-003
9.439933e-003
9.439935e-003
9.439937e-003
9.439938e-003
9.439940e-003
9.439942e-003
9.439944e-003
9.439945e-003
9.439946e-003
9.439946e-003
9.439947e-003
9.439947e-003
9.439946e-003
9.439944e-003
9.439942e-003
9.439940e-003
9.439937e-003
9.439935e-003
9.439932e-003
9.439929e-003
9.439926e-003
9.439924e-003
9.439922e-003
9.439920e-003
9.439920e-003
9.439919e-003
9.439920e-003
9.439920e-003
9.439922e-003
9.439924e-003
9.439926e-003
9.439929e-003
9.439931e-003
9.439934e-003
9.439937e-003
9.439939e-003
9.439941e-003
9.439942e-003
9.439943e-003
9.439943e-003
9.439943e-003
9.439942e-003
9.439941e-003
9.439939e-003
9.439937e-003
9.439936e-003
9.439934e-003
9.439932e-003
9.439930e-003
9.439928e-003
9.439926e-003
9.439925e-003
9.439924e-003
9.439923e-003
9.439922e-003
9.439920e-003
9.439919e-003
9.439919e-003
9.439920e-003
9.439921e-003
9.439920e-003
9.439920e-003
9.439920e-003
9.439920e-003
9.439921e-003
9.439921e-003
9.439920e-003
9.439919e-003
9.439919e-003
9.439920e-003
9.439921e-003
9.439921e-003
9.439920e-003
9.439919e-003
9.439909e-003
9.439916e-003
9.439925e-003
9.439929e-003
9.439926e-003
9.439918e-003
9.439911e-003
9.439911e-003
9.439917e-003
9.439924e-003
9.439927e-003
9.439926e-003
9.439922e-003
9.439919e-003
9.439919e-003
9.439919e-003
9.439919e-003
9.439919e-003
9.439919e-003
9.439922e-003
9.439925e-003
9.439928e-003
9.439930e-003
9.439931e-003
9.439933e-003
9.439937e-003
9.439940e-003
9.439943e-003
9.439944e-003
9.439945e-003
9.439946e-003
9.439946e-003
9.439946e-003
9.439943e-003
9.439939e-003
9.439933e-003
9.439926e-003
9.439918e-003
9.439907e-003
9.439896e-003
9.439883e-003
9.439870e-003
9.439857e-003
9.439844e-003
9.439832e-003
9.439820e-003
9.439810e-003
9.439801e-003
9.439795e-003
9.439790e-003
9.439788e-003
9.439788e-003
9.439790e-003
9.439795e-003
9.439802e-003
9.439810e-003
9.439821e-003
9.439833e-003
9.439846e-003
9.439859e-003
9.439873e-003
9.439886e-003
9.439898e-003
9.439910e-003
9.439919e-003
9.439927e-003
9.439934e-003
9.439938e-003
9.439941e-003
9.439942e-003
9.439942e-003
9.439941e-003
9.439940e-003
9.439938e-003
9.439936e-003
9.439933e-003
9.439930e-003
9.439928e-003
9.439927e-003
9.439926e-003
9.439924e-003
9.439922e-003
9.439920e-003
9.439919e-003
9.439919e-003
9.439919e-003
9.439919e-003
9.439920e-003
9.439921e-003
9.439922e-003
9.439922e-003
9.439921e-003
9.439919e-003
9.439918e-003
9.439918e-003
9.439920e-003
9.439921e-003
9.439921e-003
9.439920e-003
9.439919e-003
9.439922e-003
9.439922e-003
9.439923e-003
9.439922e-003
9.439921e-003
9.439919e-003
9.439916e-003
9.439916e-003
9.439918e-003
9.439922e-003
9.439924e-003
9.439924e-003
9.439921e-003
9.439919e-003
9.439918e-003
9.439919e-003
9.439922e-003
9.439924e-003
9.439925e-003
9.439927e-003
9.439929e-003
9.439932e-003
9.439934e-003
9.439937e-003
9.439940e-003
9.439943e-003
9.439947e-003
9.439948e-003
9.439948e-003
9.439945e-003
9.439940e-003
9.439933e-003
9.439921e-003
9.439904e-003
9.439882e-003
9.439856e-003
9.439826e-003
9.439792e-003
9.439755e-003
9.439715e-003
9.439673e-003
9.439631e-003
9.439589e-003
9.439549e-003
9.439511e-003
9.439477e-003
9.439447e-003
9.439423e-003
9.439404e-003
9.439391e-003
9.439385e-003
9.439386e-003
9.439393e-003
9.439408e-003
9.439429e-003
9.439456e-003
9.439489e-003
9.439526e-003
9.439566e-003
9.439609e-003
9.439653e-003
9.439697e-003
9.439739e-003
9.439779e-003
9.439816e-003
9.439848e-003
9.439875e-003
9.439898e-003
9.439915e-003
9.439928e-003
9.439936e-003
9.439940e-003
9.439943e-003
9.439943e-003
9.439941e-003
9.439938e-003
9.439935e-003
9.439932e-003
9.439930e-003
9.439928e-003
9.439926e-003
9.439925e-003
9.439923e-003
9.439922e-003
9.439921e-003
9.439919e-003
9.439919e-003
9.439920e-003
9.439921e-003
9.439922e-003
9.439922e-003
9.439920e-003
9.439919e-003
9.439918e-003
9.439919e-003
9.439920e-003
9.439921e-003
9.439921e-003
9.439920e-003
9.439919e-003
9.439936e-003
9.439928e-003
9.439917e-003
9.439912e-003
9.439915e-003
9.439921e-003
9.439925e-003
9.439925e-003
9.439921e-003
9.439918e-003
9.439918e-003
9.439919e-003
9.439919e-003
9.439919e-003
9.439920e-003
9.439922e-003
9.439926e-003
9.439930e-003
9.439932e-003
9.439933e-003
9.439934e-003
9.439937e-003
9.439940e-003
9.439944e-003
9.439947e-003
9.439948e-003
9.439947e-003
9.439941e-003
9.439931e-003
9.439913e-003
9.439888e-003
9.439853e-003
9.439807e-003
9.439750e-003
9.439681e-003
9.439602e-003
9.439513e-003
9.439414e-003
9.439309e-003
9.439198e-003
9.439085e-003
9.438972e-003
9.438862e-003
9.438757e-003
9.438658e-003
9.438570e-003
9.438493e-003
9.438430e-003
9.438382e-003
9.438350e-003
9.438335e-003
9.438338e-003
9.438358e-003
9.438396e-003
9.438451e-003
9.438521e-003
9.438606e-003
9.438703e-003
9.438810e-003
9.438924e-003
9.439042e-003
9.439162e-003
9.439279e-003
9.439392e-003
9.439497e-003
9.439591e-003
9.439675e-003
9.439747e-003
9.439805e-003
9.439852e-003
9.439886e-003
9.439911e-003
9.439928e-003
9.439937e-003
9.439942e-003
9.439942e-003
9.439941e-003
9.439938e-003
9.439935e-003
9.439932e-003
9.439929e-003
9.439928e-003
9.439927e-003
9.439925e-003
9.439923e-003
9.439921e-003
9.439920e-003
9.439920e-003
9.439920e-003
9.439920e-003
9.439920e-003
9.439920e-003
9.439920e-003
9.439921e-003
9.439921e-003
9.439920e-003
9.439920e-003
9.439919e-003
9.439920e-003
9.439920e-003
9.439946e-003
9.439932e-003
9.439914e-003
9.439905e-003
9.439910e-003
9.439923e-003
9.439932e-003
9.439931e-003
9.439923e-003
9.439915e-003
9.439913e-003
9.439916e-003
9.439920e-003
9.439923e-003
9.439924e-003
9.439926e-003
9.439929e-003
9.439933e-003
9.439936e-003
9.439938e-003
9.439940e-003
9.439944e-003
9.439948e-003
9.439950e-003
9.439948e-003
9.439938e-003
9.439920e-003
9.439891e-003
9.439847e-003
9.439785e-003
9.439702e-003
9.439594e-003
9.439461e-003
9.439302e-003
9.439117e-003
9.438907e-003
9.438675e-003
9.438425e-003
9.438160e-003
9.437886e-003
9.437608e-003
9.437332e-003
9.437065e-003
9.436810e-003
9.436575e-003
9.436365e-003
9.436183e-003
9.436034e-003
9.435920e-003
9.435845e-003
9.435810e-003
9.435817e-003
9.435866e-003
9.435957e-003
9.436087e-003
9.436255e-003
9.436458e-003
9.436691e-003
9.436950e-003
9.437226e-003
9.437516e-003
9.437810e-003
9.438102e-003
9.438385e-003
9.438653e-003
9.438899e-003
9.439121e-003
9.439314e-003
9.439477e-003
9.439611e-003
9.439717e-003
9.439798e-003
9.439856e-003
9.439896e-003
9.439921e-003
9.439936e-003
9.439942e-003
9.439943e-003
9.439941e-003
9.439937e-003
9.439934e-003
9.439931e-003
9.439929e-003
9.439927e-003
9.439925e-003
9.439924e-003
9.439922e-003
9.439921e-003
9.439920e-003
9.439918e-003
9.439918e-003
9.439919e-003
9.439921e-003
9.439923e-003
9.439922e-003
9.439920e-003
9.439918e-003
9.439918e-003
9.439920e-003
9.439921e-003
9.439944e-003
9.439931e-003
9.439916e-003
9.439907e-003
9.439911e-003
9.439922e-003
9.439930e-003
9.439929e-003
9.439921e-003
9.439914e-003
9.439914e-003
9.439919e-003
9.439925e-003
9.439929e-003
9.439929e-003
9.439928e-003
9.439930e-003
9.439935e-003
9.439940e-003
9.439944e-003
9.439948e-003
9.439951e-003
9.439950e-003
9.439940e-003
9.439918e-003
9.439876e-003
9.439811e-003
9.439717e-003
9.439585e-003
9.439409e-003
9.439183e-003
9.438900e-003
9.438560e-003
9.438162e-003
9.437707e-003
9.437199e-003
9.436645e-003
9.436053e-003
9.435434e-003
9.434799e-003
9.434161e-003
9.433533e-003
9.432926e-003
9.432354e-003
9.431829e-003
9.431359e-003
9.430955e-003
9.430625e-003
9.430375e-003
9.430211e-003
9.430136e-003
9.430153e-003
9.430263e-003
9.430464e-003
9.430755e-003
9.431130e-003
9.431583e-003
9.432106e-003
9.432688e-003
9.433315e-003
9.433975e-003
9.434651e-003
9.435328e-003
9.435989e-003
9.436621e-003
9.437211e-003
9.437746e-003
9.438221e-003
9.438630e-003
9.438972e-003
9.439251e-003
9.439469e-003
9.439633e-003
9.439752e-003
9.439835e-003
9.439889e-003
9.439921e-003
9.439937e-003
9.439943e-003
9.439943e-003
9.439940e-003
9.439936e-003
9.439932e-003
9.439929e-003
9.439927e-003
9.439925e-003
9.439924e-003
9.439923e-003
9.439921e-003
9.439919e-003
9.439918e-003
9.439919e-003
9.439921e-003
9.439923e-003
9.439922e-003
9.439920e-003
9.439918e-003
9.439918e-003
9.439920e-003
9.439922e-003
9.439928e-003
9.439925e-003
9.439920e-003
9.439918e-003
9.439918e-003
9.439920e-003
9.439922e-003
9.439921e-003
9.439918e-003
9.439917e-003
9.439920e-003
9.439925e-003
9.439930e-003
9.439932e-003
9.439931e-003
9.439931e-003
9.439935e-003
9.439941e-003
9.439948e-003
9.439952e-003
9.439952e-003
9.439943e-003
9.439920e-003
9.439874e-003
9.439795e-003
9.439672e-003
9.439490e-003
9.439238e-003
9.438898e-003
9.438457e-003
9.437902e-003
9.437226e-003
9.436426e-003
9.435501e-003
9.434459e-003
9.433310e-003
9.432071e-003
9.430761e-003
9.429405e-003
9.428027e-003
9.426655e-003
9.425314e-003
9.424030e-003
9.422828e-003
9.421729e-003
9.420753e-003
9.419918e-003
9.419238e-003
9.418725e-003
9.418390e-003
9.418239e-003
9.418277e-003
9.418506e-003
9.418924e-003
9.419527e-003
9.420307e-003
9.421252e-003
9.422347e-003
9.423570e-003
9.424899e-003
9.426305e-003
9.427758e-003
9.429224e-003
9.430672e-003
9.432068e-003
9.433384e-003
9.434595e-003
9.435681e-003
9.436630e-003
9.437438e-003
9.438105e-003
9.438638e-003
9.439051e-003
9.439359e-003
9.439581e-003
9.439733e-003
9.439832e-003
9.439892e-003
9.439925e-003
9.439940e-003
9.439944e-003
9.439942e-003
9.439938e-003
9.439933e-003
9.439929e-003
9.439927e-003
9.439926e-003
9.439925e-003
9.439924e-003
9.439922e-003
9.439920e-003
9.439919e-003
9.439920e-003
9.439921e-003
9.439921e-003
9.439920e-003
9.439919e-003
9.439919e-003
9.439920e-003
9.439921e-003
9.439902e-003
9.439912e-003
9.439924e-003
9.439930e-003
9.439927e-003
9.439919e-003
9.439913e-003
9.439913e-003
9.439918e-003
9.439923e-003
9.439927e-003
9.439930e-003
9.439931e-003
9.439932e-003
9.439934e-003
9.439938e-003
9.439944e-003
9.439952e-003
9.439956e-003
9.439951e-003
9.439930e-003
9.439885e-003
9.439803e-003
9.439665e-003
9.439450e-003
9.439131e-003
9.438681e-003
9.438070e-003
9.437267e-003
9.436245e-003
9.434984e-003
9.433471e-003
9.431706e-003
9.429695e-003
9.427457e-003
9.425023e-003
9.422430e-003
9.419724e-003
9.416956e-003
9.414177e-003
9.411439e-003
9.408792e-003
9.406282e-003
9.403953e-003
9.401842e-003
9.399982e-003
9.398401e-003
9.397122e-003
9.396164e-003
9.395542e-003
9.395267e-003
9.395346e-003
9.395783e-003
9.396576e-003
9.397721e-003
9.399206e-003
9.401012e-003
9.403117e-003
9.405486e-003
9.408080e-003
9.410851e-003
9.413743e-003
9.416694e-003
9.419642e-003
9.422521e-003
9.425269e-003
9.427831e-003
9.430161e-003
9.432225e-003
9.434006e-003
9.435500e-003
9.436716e-003
9.437674e-003
9.438404e-003
9.438942e-003
9.439322e-003
9.439581e-003
9.439747e-003
9.439848e-003
9.439905e-003
9.439933e-003
9.439944e-003
9.439944e-003
9.439940e-003
9.439935e-003
9.439930e-003
9.439928e-003
9.439927e-003
9.439925e-003
9.439924e-003
9.439922e-003
9.439920e-003
9.439919e-003
9.439919e-003
9.439919e-003
9.439920e-003
9.439921e-003
9.439921e-003
9.439920e-003
9.439920e-003
9.439882e-003
9.439901e-003
9.439925e-003
9.439937e-003
9.439932e-003
9.439918e-003
9.439909e-003
9.439912e-003
9.439922e-003
9.439930e-003
9.439932e-003
9.439930e-003
9.439929e-003
9.439933e-003
9.439940e-003
9.439949e-003
9.439956e-003
9.439958e-003
9.439946e-003
9.439912e-003
9.439838e-003
9.439704e-003
9.439481e-003
9.439132e-003
9.438610e-003
9.437860e-003
9.436825e-003
9.435447e-003
9.433670e-003
9.431449e-003
9.428754e-003
9.425574e-003
9.421921e-003
9.417830e-003
9.413354e-003
9.408569e-003
9.403562e-003
9.398430e-003
9.393274e-003
9.388189e-003
9.383267e-003
9.378591e-003
9.374231e-003
9.370249e-003
9.366693e-003
9.363604e-003
9.361010e-003
9.358938e-003
9.357404e-003
9.356423e-003
9.356006e-003
9.356161e-003
9.356892e-003
9.358203e-003
9.360091e-003
9.362549e-003
9.365563e-003
9.369108e-003
9.373149e-003
9.377638e-003
9.382508e-003
9.387678e-003
9.393051e-003
9.398518e-003
9.403957e-003
9.409248e-003
9.414273e-003
9.418927e-003
9.423125e-003
9.426810e-003
9.429953e-003
9.432555e-003
9.434641e-003
9.436261e-003
9.437476e-003
9.438355e-003
9.438967e-003
9.439375e-003
9.439635e-003
9.439791e-003
9.439880e-003
9.439924e-003
9.439942e-003
9.439946e-003
9.439942e-003
9.439937e-003
9.439931e-003
9.439928e-003
9.439926e-003
9.439925e-003
9.439924e-003
9.439922e-003
9.439920e-003
9.439918e-003
9.439918e-003
9.439921e-003
9.439922e-003
9.439922e-003
9.439920e-003
9.439918e-003
9.439882e-003
9.439901e-003
9.439924e-003
9.439935e-003
9.439929e-003
9.439917e-003
9.439912e-003
9.439917e-003
9.439928e-003
9.439935e-003
9.439933e-003
9.439930e-003
9.439930e-003
9.439939e-003
9.439952e-003
9.439961e-003
9.439959e-003
9.439938e-003
9.439884e-003
9.439776e-003
9.439579e-003
9.439246e-003
9.438715e-003
9.437908e-003
9.436732e-003
9.435080e-003
9.432845e-003
9.429921e-003
9.426221e-003
9.421685e-003
9.416288e-003
9.410055e-003
9.403057e-003
9.395408e-003
9.387265e-003
9.378807e-003
9.370228e-003
9.361724e-003
9.353472e-003
9.345631e-003
9.338328e-003
9.331659e-003
9.325688e-003
9.320449e-003
9.315956e-003
9.312201e-003
9.309168e-003
9.306836e-003
9.305180e-003
9.304182e-003
9.303827e-003
9.304110e-003
9.305035e-003
9.306616e-003
9.308877e-003
9.311846e-003
9.315556e-003
9.320038e-003
9.325312e-003
9.331383e-003
9.338226e-003
9.345784e-003
9.353956e-003
9.362598e-003
9.371528e-003
9.380528e-003
9.389365e-003
9.397808e-003
9.405646e-003
9.412707e-003
9.418875e-003
9.424094e-003
9.428366e-003
9.431747e-003
9.434332e-003
9.436238e-003
9.437592e-003
9.438516e-003
9.439122e-003
9.439500e-003
9.439725e-003
9.439849e-003
9.439912e-003
9.439939e-003
9.439946e-003
9.439944e-003
9.439937e-003
9.439931e-003
9.439927e-003
9.439926e-003
9.439925e-003
9.439924e-003
9.439921e-003
9.439919e-003
9.439919e-003
9.439920e-003
9.439923e-003
9.439922e-003
9.439920e-003
9.439917e-003
9.439904e-003
9.439913e-003
9.439922e-003
9.439925e-003
9.439922e-003
9.439917e-003
9.439918e-003
9.439925e-003
9.439933e-003
9.439936e-003
9.439934e-003
9.439933e-003
9.439940e-003
9.439952e-003
9.439963e-003
9.439959e-003
9.439929e-003
9.439854e-003
9.439705e-003
9.439434e-003
9.438968e-003
9.438210e-003
9.437035e-003
9.435288e-003
9.432794e-003
9.429363e-003
9.424810e-003
9.418979e-003
9.411768e-003
9.403153e-003
9.393207e-003
9.382110e-003
9.370143e-003
9.357668e-003
9.345100e-003
9.332867e-003
9.321376e-003
9.310976e-003
9.301934e-003
9.294420e-003
9.288500e-003
9.284139e-003
9.281221e-003
9.279560e-003
9.278928e-003
9.279073e-003
9.279745e-003
9.280708e-003
9.281755e-003
9.282717e-003
9.283472e-003
9.283949e-003
9.284135e-003
9.284079e-003
9.283890e-003
9.283740e-003
9.283856e-003
9.284510e-003
9.286001e-003
9.288628e-003
9.292660e-003
9.298299e-003
9.305649e-003
9.314687e-003
9.325249e-003
9.337039e-003
9.349642e-003
9.362571e-003
9.375314e-003
9.387388e-003
9.398391e-003
9.408041e-003
9.416184e-003
9.422801e-003
9.427977e-003
9.431876e-003
9.434701e-003
9.436671e-003
9.437989e-003
9.438835e-003
9.439353e-003
9.439653e-003
9.439817e-003
9.439900e-003
9.439936e-003
9.439946e-003
9.439944e-003
9.439937e-003
9.439931e-003
9.439928e-003
9.439926e-003
9.439926e-003
9.439923e-003
9.439921e-003
9.439919e-003
9.439920e-003
9.439921e-003
9.439921e-003
9.439920e-003
9.439919e-003
9.439936e-003
9.439930e-003
9.439921e-003
9.439915e-003
9.439914e-003
9.439919e-003
9.439926e-003
9.439931e-003
9.439933e-003
9.439934e-003
9.439936e-003
9.439943e-003
9.439955e-003
9.439964e-003
9.439959e-003
9.439922e-003
9.439827e-003
9.439636e-003
9.439283e-003
9.438668e-003
9.437646e-003
9.436028e-003
9.433574e-003
9.430003e-003
9.425009e-003
9.418290e-003
9.409594e-003
9.398783e-003
9.385889e-003
9.371164e-003
9.355110e-003
9.338467e-003
9.322171e-003
9.307270e-003
9.294822e-003
9.285786e-003
9.280925e-003
9.280732e-003
9.285390e-003
9.294758e-003
9.308390e-003
9.325575e-003
9.345403e-003
9.366829e-003
9.388753e-003
9.410083e-003
9.429790e-003
9.446952e-003
9.460780e-003
9.470637e-003
9.476059e-003
9.476761e-003
9.472659e-003
9.463877e-003
9.450766e-003
9.433912e-003
9.414132e-003
9.392463e-003
9.370120e-003
9.348435e-003
9.328761e-003
9.312368e-003
9.300316e-003
9.293349e-003
9.291806e-003
9.295579e-003
9.304120e-003
9.316508e-003
9.331564e-003
9.348004e-003
9.364593e-003
9.380286e-003
9.394319e-003
9.406244e-003
9.415911e-003
9.423405e-003
9.428971e-003
9.432937e-003
9.435649e-003
9.437427e-003
9.438542e-003
9.439209e-003
9.439587e-003
9.439790e-003
9.439890e-003
9.439933e-003
9.439946e-003
9.439944e-003
9.439938e-003
9.439932e-003
9.439928e-003
9.439926e-003
9.439925e-003
9.439923e-003
9.439921e-003
9.439919e-003
9.439919e-003
9.439920e-003
9.439920e-003
9.439921e-003
9.439958e-003
9.439940e-003
9.439919e-003
9.439908e-003
9.439912e-003
9.439924e-003
9.439933e-003
9.439934e-003
9.439932e-003
9.439934e-003
9.439943e-003
9.439957e-003
9.439967e-003
9.439960e-003
9.439916e-003
9.439806e-003
9.439579e-003
9.439148e-003
9.438380e-003
9.437076e-003
9.434965e-003
9.431697e-003
9.426847e-003
9.419948e-003
9.410538e-003
9.398260e-003
9.382987e-003
9.364970e-003
9.344975e-003
9.324368e-003
9.305119e-003
9.289697e-003
9.280863e-003
9.281386e-003
9.293735e-003
9.319797e-003
9.360658e-003
9.416485e-003
9.486495e-003
9.569016e-003
9.661607e-003
9.761236e-003
9.864480e-003
9.967737e-003
1.006743e-002
1.016015e-002
1.024281e-002
1.031272e-002
1.036758e-002
1.040560e-002
1.042542e-002
1.042620e-002
1.040762e-002
1.036994e-002
1.031403e-002
1.024147e-002
1.015450e-002
1.005613e-002
9.949996e-003
9.840282e-003
9.731490e-003
9.628150e-003
9.534484e-003
9.454044e-003
9.389390e-003
9.341849e-003
9.311401e-003
9.296728e-003
9.295422e-003
9.304351e-003
9.320092e-003
9.339380e-003
9.359460e-003
9.378305e-003
9.394667e-003
9.407994e-003
9.418267e-003
9.425802e-003
9.431080e-003
9.434617e-003
9.436885e-003
9.438275e-003
9.439087e-003
9.439537e-003
9.439772e-003
9.439885e-003
9.439932e-003
9.439946e-003
9.439944e-003
9.439938e-003
9.439931e-003
9.439928e-003
9.439926e-003
9.439924e-003
9.439922e-003
9.439920e-003
9.439918e-003
9.439919e-003
9.439921e-003
9.439922e-003
9.439958e-003
9.439938e-003
9.439915e-003
9.439907e-003
9.439916e-003
9.439932e-003
9.439939e-003
9.439936e-003
9.439933e-003
9.439939e-003
9.439955e-003
9.439968e-003
9.439962e-003
9.439915e-003
9.439795e-003
9.439540e-003
9.439046e-003
9.438140e-003
9.436565e-003
9.433954e-003
9.429824e-003
9.423570e-003
9.414514e-003
9.401997e-003
9.385564e-003
9.365229e-003
9.341823e-003
9.317343e-003
9.295227e-003
9.280430e-003
9.279226e-003
9.298716e-003
9.346099e-003
9.427828e-003
9.548812e-003
9.711792e-003
9.916984e-003
1.016201e-002
1.044208e-002
1.075036e-002
1.107845e-002
1.141693e-002
1.175590e-002
1.208552e-002
1.239641e-002
1.268004e-002
1.292883e-002
1.313637e-002
1.329731e-002
1.340746e-002
1.346365e-002
1.346384e-002
1.340710e-002
1.329376e-002
1.312555e-002
1.290579e-002
1.263956e-002
1.233384e-002
1.199751e-002
1.164118e-002
1.127683e-002
1.091718e-002
1.057488e-002
1.026161e-002
9.987076e-003
9.758168e-003
9.578321e-003
9.447261e-003
9.361212e-003
9.313574e-003
9.295972e-003
9.299487e-003
9.315800e-003
9.338040e-003
9.361220e-003
9.382244e-003
9.399611e-003
9.412967e-003
9.422651e-003
9.429316e-003
9.433691e-003
9.436432e-003
9.438072e-003
9.439006e-003
9.439510e-003
9.439765e-003
9.439885e-003
9.439933e-003
9.439946e-003
9.439943e-003
9.439936e-003
9.439930e-003
9.439927e-003
9.439926e-003
9.439924e-003
9.439922e-003
9.439919e-003
9.439918e-003
9.439920e-003
9.439922e-003
9.439942e-003
9.439928e-003
9.439913e-003
9.439912e-003
9.439924e-003
9.439938e-003
9.439942e-003
9.439938e-003
9.439939e-003
9.439951e-003
9.439966e-003
9.439965e-003
9.439921e-003
9.439796e-003
9.439526e-003
9.438990e-003
9.437981e-003
9.436179e-003
9.433118e-003
9.428161e-003
9.420496e-003
9.409189e-003
9.393350e-003
9.372456e-003
9.346892e-003
9.318695e-003
9.292412e-003
9.275856e-003
9.280485e-003
9.321124e-003
9.414915e-003
9.579563e-003
9.831175e-003
1.018212e-002
1.063932e-002
1.120326e-002
1.186777e-002
1.262067e-002
1.344475e-002
1.431923e-002
1.522111e-002
1.612657e-002
1.701217e-002
1.785584e-002
1.863759e-002
1.933998e-002
1.994820e-002
2.045003e-002
2.083564e-002
2.109726e-002
2.122903e-002
2.122690e-002
2.108864e-002
2.081409e-002
2.040550e-002
1.986810e-002
1.921060e-002
1.844582e-002
1.759102e-002
1.666803e-002
1.570287e-002
1.472485e-002
1.376511e-002
1.285463e-002
1.202189e-002
1.129041e-002
1.067649e-002
1.018762e-002
9.821902e-003
9.568782e-003
9.411032e-003
9.327624e-003
9.296871e-003
9.299170e-003
9.318814e-003
9.344704e-003
9.370057e-003
9.391513e-003
9.408024e-003
9.419855e-003
9.427853e-003
9.432988e-003
9.436130e-003
9.437962e-003
9.438977e-003
9.439509e-003