# vtk DataFile Version 3.0
vtk output
ASCII
DATASET STRUCTURED_POINTS
DIMENSIONS 100 100 1
SPACING 1 1 1
ORIGIN 0 0 0
POINT_DATA 10000
SCALARS SFBox_profile double
LOOKUP_TABLE default 
9.439918e-003
9.439918e-003
9.439918e-003
9.439919e-003
9.439921e-003
9.439923e-003
9.439925e-003
9.439928e-003
9.439933e-003
9.439938e-003
9.439945e-003
9.439953e-003
9.439961e-003
9.439970e-003
9.439977e-003
9.439982e-003
9.439981e-003
9.439972e-003
9.439951e-003
9.439913e-003
9.439854e-003
9.439770e-003
9.439656e-003
9.439510e-003
9.439327e-003
9.439108e-003
9.438851e-003
9.438558e-003
9.438231e-003
9.437871e-003
9.437483e-003
9.437071e-003
9.436637e-003
9.436187e-003
9.435722e-003
9.435246e-003
9.434761e-003
9.434271e-003
9.433776e-003
9.433279e-003
9.432782e-003
9.432286e-003
9.431794e-003
9.431309e-003
9.430834e-003
9.430373e-003
9.429930e-003
9.429509e-003
9.429117e-003
9.428759e-003
9.428441e-003
9.428169e-003
9.427952e-003
9.427795e-003
9.427706e-003
9.427692e-003
9.427759e-003
9.427913e-003
9.428158e-003
9.428497e-003
9.428930e-003
9.429454e-003
9.430065e-003
9.430753e-003
9.431507e-003
9.432311e-003
9.433148e-003
9.433997e-003
9.434838e-003
9.435651e-003
9.436415e-003
9.437116e-003
9.437740e-003
9.438279e-003
9.438731e-003
9.439096e-003
9.439380e-003
9.439593e-003
9.439744e-003
9.439845e-003
9.439908e-003
9.439943e-003
9.439959e-003
9.439963e-003
9.439960e-003
9.439954e-003
9.439946e-003
9.439940e-003
9.439934e-003
9.439929e-003
9.439926e-003
9.439924e-003
9.439922e-003
9.439921e-003
9.439921e-003
9.439920e-003
9.439920e-003
9.439920e-003
9.439920e-003
9.439920e-003
9.439918e-003
9.439918e-003
9.439918e-003
9.439919e-003
9.439921e-003
9.439923e-003
9.439925e-003
9.439928e-003
9.439933e-003
9.439938e-003
9.439945e-003
9.439953e-003
9.439961e-003
9.439970e-003
9.439977e-003
9.439982e-003
9.439981e-003
9.439972e-003
9.439951e-003
9.439913e-003
9.439854e-003
9.439770e-003
9.439656e-003
9.439510e-003
9.439327e-003
9.439108e-003
9.438851e-003
9.438558e-003
9.438231e-003
9.437871e-003
9.437483e-003
9.437071e-003
9.436637e-003
9.436187e-003
9.435722e-003
9.435246e-003
9.434761e-003
9.434271e-003
9.433776e-003
9.433279e-003
9.432782e-003
9.432286e-003
9.431794e-003
9.431309e-003
9.430834e-003
9.430373e-003
9.429930e-003
9.429509e-003
9.429117e-003
9.428759e-003
9.428441e-003
9.428169e-003
9.427952e-003
9.427795e-003
9.427706e-003
9.427692e-003
9.427759e-003
9.427913e-003
9.428158e-003
9.428497e-003
9.428930e-003
9.429454e-003
9.430065e-003
9.430753e-003
9.431507e-003
9.432311e-003
9.433148e-003
9.433997e-003
9.434838e-003
9.435651e-003
9.436415e-003
9.437116e-003
9.437740e-003
9.438279e-003
9.438731e-003
9.439096e-003
9.439380e-003
9.439593e-003
9.439744e-003
9.439845e-003
9.439908e-003
9.439943e-003
9.439959e-003
9.439963e-003
9.439960e-003
9.439954e-003
9.439946e-003
9.439940e-003
9.439934e-003
9.439929e-003
9.439926e-003
9.439924e-003
9.439922e-003
9.439921e-003
9.439921e-003
9.439920e-003
9.439920e-003
9.439920e-003
9.439920e-003
9.439920e-003
9.439918e-003
9.439919e-003
9.439919e-003
9.439920e-003
9.439922e-003
9.439924e-003
9.439927e-003
9.439931e-003
9.439936e-003
9.439943e-003
9.439950e-003
9.439957e-003
9.439964e-003
9.439969e-003
9.439968e-003
9.439960e-003
9.439938e-003
9.439898e-003
9.439833e-003
9.439735e-003
9.439597e-003
9.439412e-003
9.439173e-003
9.438876e-003
9.438518e-003
9.438096e-003
9.437613e-003
9.437070e-003
9.436473e-003
9.435827e-003
9.435139e-003
9.434415e-003
9.433662e-003
9.432887e-003
9.432095e-003
9.431291e-003
9.430480e-003
9.429664e-003
9.428847e-003
9.428032e-003
9.427222e-003
9.426419e-003
9.425627e-003
9.424850e-003
9.424093e-003
9.423361e-003
9.422661e-003
9.422000e-003
9.421385e-003
9.420826e-003
9.420332e-003
9.419912e-003
9.419577e-003
9.419338e-003
9.419205e-003
9.419189e-003
9.419300e-003
9.419547e-003
9.419937e-003
9.420475e-003
9.421163e-003
9.421998e-003
9.422973e-003
9.424077e-003
9.425292e-003
9.426597e-003
9.427965e-003
9.429365e-003
9.430765e-003
9.432131e-003
9.433431e-003
9.434636e-003
9.435725e-003
9.436680e-003
9.437494e-003
9.438165e-003
9.438700e-003
9.439111e-003
9.439415e-003
9.439629e-003
9.439773e-003
9.439863e-003
9.439915e-003
9.439941e-003
9.439951e-003
9.439952e-003
9.439948e-003
9.439942e-003
9.439937e-003
9.439932e-003
9.439928e-003
9.439925e-003
9.439923e-003
9.439922e-003
9.439921e-003
9.439921e-003
9.439920e-003
9.439920e-003
9.439920e-003
9.439920e-003
9.439919e-003
9.439920e-003
9.439921e-003
9.439922e-003
9.439925e-003
9.439928e-003
9.439932e-003
9.439937e-003
9.439944e-003
9.439951e-003
9.439957e-003
9.439962e-003
9.439962e-003
9.439953e-003
9.439929e-003
9.439881e-003
9.439800e-003
9.439673e-003
9.439486e-003
9.439224e-003
9.438873e-003
9.438419e-003
9.437851e-003
9.437161e-003
9.436345e-003
9.435404e-003
9.434343e-003
9.433170e-003
9.431897e-003
9.430539e-003
9.429109e-003
9.427623e-003
9.426095e-003
9.424538e-003
9.422963e-003
9.421380e-003
9.419797e-003
9.418219e-003
9.416653e-003
9.415103e-003
9.413574e-003
9.412070e-003
9.410598e-003
9.409163e-003
9.407775e-003
9.406442e-003
9.405175e-003
9.403985e-003
9.402885e-003
9.401891e-003
9.401016e-003
9.400278e-003
9.399695e-003
9.399283e-003
9.399061e-003
9.399048e-003
9.399262e-003
9.399718e-003
9.400430e-003
9.401409e-003
9.402660e-003
9.404182e-003
9.405969e-003
9.408003e-003
9.410259e-003
9.412702e-003
9.415288e-003
9.417964e-003
9.420671e-003
9.423346e-003
9.425927e-003
9.428355e-003
9.430580e-003
9.432564e-003
9.434282e-003
9.435726e-003
9.436900e-003
9.437823e-003
9.438524e-003
9.439035e-003
9.439393e-003
9.439631e-003
9.439782e-003
9.439871e-003
9.439918e-003
9.439940e-003
9.439946e-003
9.439945e-003
9.439941e-003
9.439936e-003
9.439931e-003
9.439928e-003
9.439925e-003
9.439923e-003
9.439922e-003
9.439921e-003
9.439921e-003
9.439920e-003
9.439920e-003
9.439920e-003
9.439922e-003
9.439922e-003
9.439924e-003
9.439926e-003
9.439929e-003
9.439934e-003
9.439940e-003
9.439946e-003
9.439954e-003
9.439960e-003
9.439962e-003
9.439956e-003
9.439935e-003
9.439888e-003
9.439802e-003
9.439657e-003
9.439432e-003
9.439099e-003
9.438630e-003
9.437994e-003
9.437163e-003
9.436111e-003
9.434819e-003
9.433277e-003
9.431483e-003
9.429445e-003
9.427180e-003
9.424712e-003
9.422071e-003
9.419288e-003
9.416397e-003
9.413431e-003
9.410419e-003
9.407386e-003
9.404354e-003
9.401342e-003
9.398362e-003
9.395426e-003
9.392543e-003
9.389720e-003
9.386964e-003
9.384284e-003
9.381686e-003
9.379182e-003
9.376783e-003
9.374502e-003
9.372355e-003
9.370358e-003
9.368531e-003
9.366895e-003
9.365471e-003
9.364285e-003
9.363360e-003
9.362724e-003
9.362405e-003
9.362430e-003
9.362828e-003
9.363625e-003
9.364846e-003
9.366512e-003
9.368639e-003
9.371235e-003
9.374298e-003
9.377816e-003
9.381760e-003
9.386086e-003
9.390730e-003
9.395612e-003
9.400633e-003
9.405683e-003
9.410643e-003
9.415394e-003
9.419828e-003
9.423851e-003
9.427397e-003
9.430429e-003
9.432939e-003
9.434950e-003
9.436505e-003
9.437664e-003
9.438496e-003
9.439069e-003
9.439446e-003
9.439681e-003
9.439819e-003
9.439894e-003
9.439929e-003
9.439943e-003
9.439944e-003
9.439941e-003
9.439936e-003
9.439932e-003
9.439928e-003
9.439925e-003
9.439923e-003
9.439922e-003
9.439921e-003
9.439920e-003
9.439920e-003
9.439920e-003
9.439925e-003
9.439926e-003
9.439928e-003
9.439932e-003
9.439937e-003
9.439943e-003
9.439950e-003
9.439958e-003
9.439963e-003
9.439963e-003
9.439950e-003
9.439913e-003
9.439837e-003
9.439697e-003
9.439464e-003
9.439097e-003
9.438548e-003
9.437763e-003
9.436683e-003
9.435250e-003
9.433412e-003
9.431126e-003
9.428366e-003
9.425126e-003
9.421418e-003
9.417277e-003
9.412752e-003
9.407907e-003
9.402813e-003
9.397543e-003
9.392167e-003
9.386750e-003
9.381350e-003
9.376014e-003
9.370777e-003
9.365670e-003
9.360713e-003
9.355921e-003
9.351307e-003
9.346879e-003
9.342645e-003
9.338614e-003
9.334794e-003
9.331193e-003
9.327822e-003
9.324692e-003
9.321816e-003
9.319209e-003
9.316884e-003
9.314859e-003
9.313152e-003
9.311782e-003
9.310771e-003
9.310141e-003
9.309917e-003
9.310125e-003
9.310796e-003
9.311961e-003
9.313655e-003
9.315915e-003
9.318780e-003
9.322290e-003
9.326481e-003
9.331380e-003
9.337001e-003
9.343336e-003
9.350344e-003
9.357950e-003
9.366034e-003
9.374436e-003
9.382958e-003
9.391378e-003
9.399470e-003
9.407019e-003
9.413844e-003
9.419817e-003
9.424870e-003
9.429000e-003
9.432255e-003
9.434729e-003
9.436540e-003
9.437813e-003
9.438673e-003
9.439227e-003
9.439568e-003
9.439764e-003
9.439869e-003
9.439920e-003
9.439940e-003
9.439944e-003
9.439941e-003
9.439937e-003
9.439932e-003
9.439928e-003
9.439925e-003
9.439923e-003
9.439922e-003
9.439921e-003
9.439921e-003
9.439920e-003
9.439930e-003
9.439932e-003
9.439935e-003
9.439940e-003
9.439946e-003
9.439954e-003
9.439962e-003
9.439967e-003
9.439964e-003
9.439943e-003
9.439888e-003
9.439775e-003
9.439569e-003
9.439220e-003
9.438662e-003
9.437815e-003
9.436582e-003
9.434857e-003
9.432530e-003
9.429498e-003
9.425678e-003
9.421017e-003
9.415500e-003
9.409157e-003
9.402064e-003
9.394334e-003
9.386111e-003
9.377553e-003
9.368824e-003
9.360080e-003
9.351463e-003
9.343089e-003
9.335053e-003
9.327426e-003
9.320255e-003
9.313572e-003
9.307396e-003
9.301736e-003
9.296597e-003
9.291980e-003
9.287883e-003
9.284301e-003
9.281227e-003
9.278647e-003
9.276545e-003
9.274897e-003
9.273677e-003
9.272852e-003
9.272388e-003
9.272245e-003
9.272381e-003
9.272753e-003
9.273317e-003
9.274028e-003
9.274845e-003
9.275733e-003
9.276666e-003
9.277636e-003
9.278660e-003
9.279784e-003
9.281095e-003
9.282718e-003
9.284822e-003
9.287611e-003
9.291305e-003
9.296121e-003
9.302244e-003
9.309790e-003
9.318779e-003
9.329110e-003
9.340556e-003
9.352767e-003
9.365304e-003
9.377682e-003
9.389432e-003
9.400148e-003
9.409539e-003
9.417444e-003
9.423838e-003
9.428807e-003
9.432519e-003
9.435182e-003
9.437017e-003
9.438228e-003
9.438992e-003
9.439451e-003
9.439711e-003
9.439847e-003
9.439912e-003
9.439938e-003
9.439944e-003
9.439942e-003
9.439937e-003
9.439932e-003
9.439928e-003
9.439925e-003
9.439923e-003
9.439922e-003
9.439921e-003
9.439921e-003
9.439938e-003
9.439940e-003
9.439945e-003
9.439951e-003
9.439959e-003
9.439967e-003
9.439972e-003
9.439965e-003
9.439936e-003
9.439861e-003
9.439708e-003
9.439424e-003
9.438936e-003
9.438142e-003
9.436912e-003
9.435087e-003
9.432485e-003
9.428913e-003
9.424187e-003
9.418157e-003
9.410731e-003
9.401902e-003
9.391762e-003
9.380504e-003
9.368414e-003
9.355842e-003
9.343176e-003
9.330801e-003
9.319075e-003
9.308303e-003
9.298726e-003
9.290514e-003
9.283773e-003
9.278551e-003
9.274855e-003
9.272661e-003
9.271933e-003
9.272625e-003
9.274696e-003
9.278099e-003
9.282784e-003
9.288688e-003
9.295729e-003
9.303802e-003
9.312771e-003
9.322473e-003
9.332715e-003
9.343281e-003
9.353928e-003
9.364393e-003
9.374395e-003
9.383636e-003
9.391802e-003
9.398573e-003
9.403628e-003
9.406658e-003
9.407385e-003
9.405589e-003
9.401135e-003
9.394013e-003
9.384370e-003
9.372539e-003
9.359062e-003
9.344683e-003
9.330320e-003
9.317013e-003
9.305830e-003
9.297764e-003
9.293613e-003
9.293871e-003
9.298645e-003
9.307620e-003
9.320084e-003
9.335016e-003
9.351233e-003
9.367552e-003
9.382946e-003
9.396657e-003
9.408242e-003
9.417562e-003
9.424719e-003
9.429977e-003
9.433674e-003
9.436166e-003
9.437774e-003
9.438764e-003
9.439344e-003
9.439665e-003
9.439830e-003
9.439907e-003
9.439937e-003
9.439944e-003
9.439942e-003
9.439936e-003
9.439931e-003
9.439927e-003
9.439924e-003
9.439923e-003
9.439922e-003
9.439921e-003
9.439949e-003
9.439952e-003
9.439958e-003
9.439965e-003
9.439973e-003
9.439977e-003
9.439968e-003
9.439931e-003
9.439838e-003
9.439644e-003
9.439278e-003
9.438636e-003
9.437571e-003
9.435887e-003
9.433335e-003
9.429623e-003
9.424435e-003
9.417464e-003
9.408467e-003
9.397322e-003
9.384092e-003
9.369070e-003
9.352795e-003
9.336029e-003
9.319700e-003
9.304811e-003
9.292344e-003
9.283171e-003
9.277989e-003
9.277288e-003
9.281340e-003
9.290224e-003
9.303856e-003
9.322035e-003
9.344492e-003
9.370931e-003
9.401069e-003
9.434651e-003
9.471456e-003
9.511277e-003
9.553905e-003
9.599090e-003
9.646520e-003
9.695796e-003
9.746423e-003
9.797805e-003
9.849250e-003
9.899979e-003
9.949133e-003
9.995781e-003
1.003893e-002
1.007752e-002
1.011043e-002
1.013653e-002
1.015463e-002
1.016357e-002
1.016226e-002
1.014975e-002
1.012535e-002
1.008868e-002
1.003988e-002
9.979655e-003
9.909391e-003
9.831199e-003
9.747879e-003
9.662808e-003
9.579734e-003
9.502479e-003
9.434593e-003
9.378974e-003
9.337530e-003
9.310932e-003
9.298538e-003
9.298500e-003
9.308083e-003
9.324103e-003
9.343413e-003
9.363314e-003
9.381816e-003
9.397715e-003
9.410517e-003
9.420257e-003
9.427298e-003
9.432152e-003
9.435350e-003
9.437363e-003
9.438572e-003
9.439263e-003
9.439635e-003
9.439821e-003
9.439905e-003
9.439937e-003
9.439944e-003
9.439941e-003
9.439936e-003
9.439931e-003
9.439927e-003
9.439924e-003
9.439923e-003
9.439922e-003
9.439964e-003
9.439967e-003
9.439974e-003
9.439981e-003
9.439984e-003
9.439973e-003
9.439930e-003
9.439822e-003
9.439591e-003
9.439148e-003
9.438353e-003
9.437005e-003
9.434825e-003
9.431448e-003
9.426434e-003
9.419295e-003
9.409556e-003
9.396864e-003
9.381120e-003
9.362635e-003
9.342260e-003
9.321462e-003
9.302284e-003
9.287211e-003
9.278928e-003
9.280038e-003
9.292796e-003
9.318903e-003
9.359396e-003
9.414636e-003
9.484383e-003
9.567913e-003
9.664165e-003
9.771894e-003
9.889811e-003
1.001670e-002
1.015149e-002
1.029330e-002
1.044140e-002
1.059516e-002
1.075394e-002
1.091704e-002
1.108355e-002
1.125234e-002
1.142201e-002
1.159088e-002
1.175703e-002
1.191829e-002
1.207232e-002
1.221655e-002
1.234828e-002
1.246461e-002
1.256249e-002
1.263875e-002
1.269009e-002
1.271321e-002
1.270490e-002
1.266223e-002
1.258282e-002
1.246506e-002
1.230853e-002
1.211428e-002
1.188514e-002
1.162596e-002
1.134366e-002
1.104707e-002
1.074657e-002
1.045342e-002
1.017895e-002
9.933459e-003
9.725165e-003
9.559266e-003
9.437318e-003
9.357149e-003
9.313349e-003
9.298296e-003
9.303460e-003
9.320697e-003
9.343239e-003
9.366212e-003
9.386671e-003
9.403277e-003
9.415826e-003
9.424757e-003
9.430790e-003
9.434670e-003
9.437052e-003
9.438446e-003
9.439220e-003
9.439625e-003
9.439822e-003
9.439907e-003
9.439938e-003
9.439944e-003
9.439941e-003
9.439935e-003
9.439930e-003
9.439926e-003
9.439924e-003
9.439923e-003
9.439983e-003
9.439987e-003
9.439992e-003
9.439994e-003
9.439982e-003
9.439936e-003
9.439817e-003
9.439560e-003
9.439054e-003
9.438125e-003
9.436512e-003
9.433841e-003
9.429610e-003
9.423190e-003
9.413872e-003
9.400969e-003
9.384019e-003
9.363075e-003
9.339072e-003
9.314195e-003
9.292124e-003
9.278051e-003
9.278383e-003
9.300146e-003
9.350207e-003
9.434476e-003
9.557261e-003
9.720898e-003
9.925688e-003
1.017011e-002
1.045122e-002
1.076509e-002
1.110732e-002
1.147341e-002
1.185916e-002
1.226085e-002
1.267543e-002
1.310050e-002
1.353421e-002
1.397504e-002
1.442153e-002
1.487201e-002
1.532442e-002
1.577614e-002
1.622394e-002
1.666397e-002
1.709183e-002
1.750265e-002
1.789109e-002
1.825148e-002
1.857774e-002
1.886345e-002
1.910179e-002
1.928556e-002
1.940724e-002
1.945911e-002
1.943345e-002
1.932290e-002
1.912095e-002
1.882253e-002
1.842480e-002
1.792793e-002
1.733595e-002
1.665742e-002
1.590600e-002
1.510045e-002
1.426431e-002
1.342487e-002
1.261148e-002
1.185322e-002
1.117613e-002
1.060027e-002
1.013737e-002
9.789423e-003
9.548891e-003
9.400462e-003
9.324069e-003
9.298379e-003
9.303923e-003
9.325181e-003
9.351377e-003
9.376155e-003
9.396572e-003
9.411915e-003
9.422662e-003
9.429765e-003
9.434224e-003
9.436888e-003
9.438404e-003
9.439222e-003
9.439637e-003
9.439831e-003
9.439912e-003
9.439939e-003
9.439943e-003
9.439939e-003
9.439934e-003
9.439929e-003
9.439926e-003
9.439925e-003
9.440006e-003
9.440008e-003
9.440008e-003
9.439995e-003
9.439948e-003
9.439826e-003
9.439555e-003
9.439009e-003
9.437983e-003
9.436157e-003
9.433059e-003
9.428034e-003
9.420236e-003
9.408688e-003
9.392449e-003
9.370964e-003
9.344653e-003
9.315715e-003
9.289044e-003
9.273000e-003
9.279689e-003
9.324481e-003
9.424674e-003
9.597502e-003
9.857929e-003
1.021672e-002
1.067922e-002
1.124507e-002
1.190869e-002
1.266050e-002
1.348825e-002
1.437849e-002
1.531775e-002
1.629350e-002
1.729477e-002
1.831255e-002
1.933989e-002
2.037173e-002
2.140446e-002
2.243536e-002
2.346193e-002
2.448131e-002
2.548985e-002
2.648278e-002
2.745419e-002
2.839702e-002
2.930326e-002
3.016407e-002
3.096991e-002
3.171063e-002
3.237547e-002
3.295298e-002
3.343096e-002
3.379633e-002
3.403518e-002
3.413282e-002
3.407404e-002
3.384358e-002
3.342685e-002
3.281092e-002
3.198586e-002
3.094627e-002
2.969307e-002
2.823533e-002
2.659196e-002
2.479303e-002
2.288034e-002
2.090693e-002
1.893507e-002
1.703238e-002
1.526607e-002
1.369587e-002
1.236660e-002
1.130228e-002
1.050328e-002
9.947689e-003
9.596644e-003
9.402316e-003
9.316355e-003
9.296670e-003
9.311233e-003
9.338782e-003
9.367251e-003
9.391159e-003
9.409009e-003
9.421294e-003
9.429227e-003
9.434077e-003
9.436896e-003
9.438454e-003
9.439269e-003
9.439668e-003
9.439848e-003
9.439920e-003
9.439941e-003
9.439943e-003
9.439938e-003
9.439933e-003
9.439929e-003
9.439927e-003
9.440031e-003
9.440028e-003
9.440014e-003
9.439968e-003
9.439849e-003
9.439579e-003
9.439022e-003
9.437949e-003
9.435990e-003
9.432585e-003
9.426925e-003
9.417934e-003
9.404330e-003
9.384873e-003
9.358932e-003
9.327534e-003
9.294985e-003
9.270922e-003
9.272339e-003
9.324802e-003
9.461997e-003
9.723104e-003
1.014819e-002
1.077255e-002
1.162140e-002
1.270626e-002
1.402367e-002
1.555649e-002
1.727702e-002
1.915097e-002
2.114159e-002
2.321300e-002
2.533263e-002
2.747269e-002
2.961089e-002
3.173051e-002
3.381999e-002
3.587207e-002
3.788261e-002
3.984924e-002
4.177005e-002
4.364249e-002
4.546262e-002
4.722473e-002
4.892130e-002
5.054318e-002
5.207993e-002
5.352007e-002
5.485130e-002
5.606061e-002
5.713417e-002
5.805718e-002
5.881353e-002
5.938558e-002
5.975387e-002
5.989695e-002
5.979144e-002
5.941224e-002
5.873317e-002
5.772791e-002
5.637155e-002
5.464267e-002
5.252605e-002
5.001611e-002
4.712086e-002
4.386624e-002
4.030030e-002
3.649651e-002
3.255486e-002
2.859931e-002
2.477017e-002
2.121094e-002
1.805094e-002
1.538689e-002
1.326839e-002
1.169184e-002
1.060501e-002
9.921185e-003
9.538497e-003
9.358517e-003
9.299514e-003
9.302290e-003
9.329474e-003
9.360872e-003
9.387681e-003
9.407493e-003
9.420848e-003
9.429255e-003
9.434254e-003
9.437076e-003
9.438587e-003
9.439352e-003
9.439714e-003
9.439870e-003
9.439928e-003
9.439943e-003
9.439942e-003
9.439937e-003
9.439932e-003
9.439930e-003
9.440052e-003
9.440039e-003
9.439996e-003
9.439884e-003
9.439629e-003
9.439090e-003
9.438026e-003
9.436035e-003
9.432485e-003
9.426435e-003
9.416586e-003
9.401338e-003
9.379103e-003
9.349134e-003
9.313220e-003
9.278568e-003
9.261889e-003
9.294025e-003
9.423570e-003
9.717396e-003
1.025628e-002
1.112526e-002
1.240042e-002
1.413532e-002
1.635104e-002
1.903233e-002
2.213056e-002
2.557204e-002
2.926905e-002
3.313077e-002
3.707213e-002
4.101962e-002
4.491406e-002
4.871118e-002
5.238057e-002
5.590390e-002
5.927253e-002
6.248501e-002
6.554442e-002
6.845599e-002
7.122506e-002
7.385564e-002
7.634954e-002
7.870620e-002
8.092278e-002
8.299467e-002
8.491593e-002
8.667972e-002
8.827853e-002
8.970415e-002
9.094755e-002
9.199845e-002
9.284485e-002
9.347245e-002
9.386404e-002
9.399882e-002
9.385188e-002
9.339357e-002
9.258922e-002
9.139892e-002
8.977791e-002
8.767757e-002
8.504750e-002
8.183903e-002
7.801088e-002
7.353705e-002
6.841750e-002
6.269069e-002
5.644635e-002
4.983498e-002
4.306939e-002
3.641324e-002
3.015398e-002
2.456224e-002
1.984669e-002
1.611777e-002
1.337291e-002
1.150868e-002
1.035482e-002
9.717313e-003
9.416205e-003
9.309016e-003
9.297774e-003
9.323941e-003
9.357633e-003
9.386561e-003
9.407574e-003
9.421389e-003
9.429845e-003
9.434726e-003
9.437398e-003
9.438783e-003
9.439460e-003
9.439767e-003
9.439892e-003
9.439935e-003
9.439944e-003
9.439941e-003
9.439936e-003
9.439934e-003
9.440061e-003
9.440026e-003
9.439928e-003
9.439698e-003
9.439202e-003
9.438200e-003
9.436279e-003
9.432767e-003
9.426627e-003
9.416374e-003
9.400100e-003
9.375828e-003
9.342575e-003
9.302784e-003
9.266887e-003
9.260464e-003
9.333417e-003
9.568662e-003
1.008602e-002
1.103643e-002
1.258388e-002
1.487690e-002
1.801675e-002
2.203224e-002
2.686945e-002
3.239944e-002
3.844057e-002
4.478772e-002
5.124023e-002
5.762266e-002
6.379636e-002
6.966253e-002
7.515949e-002
8.025655e-002
8.494689e-002
8.924054e-002
9.315830e-002
9.672672e-002
9.997429e-002
1.029287e-001
1.056153e-001
1.080561e-001
1.102695e-001
1.122710e-001
1.140735e-001
1.156879e-001
1.171237e-001
1.183891e-001
1.194912e-001
1.204363e-001
1.212289e-001
1.218724e-001
1.223678e-001
1.227136e-001
1.229053e-001
1.229341e-001
1.227861e-001
1.224413e-001
1.218714e-001
1.210384e-001
1.198921e-001
1.183677e-001
1.163835e-001
1.138398e-001
1.106197e-001
1.065941e-001
1.016333e-001
9.562659e-002
8.851258e-002
8.031544e-002
7.118226e-002
6.140774e-002
5.143000e-002
4.178401e-002
3.301329e-002
2.556186e-002
1.968374e-002
1.540535e-002
1.255307e-002
1.082913e-002
9.900929e-003
9.471991e-003
9.318876e-003
9.296239e-003
9.322275e-003
9.357824e-003
9.387933e-003
9.409239e-003
9.422837e-003
9.430907e-003
9.435422e-003
9.437813e-003
9.439011e-003
9.439575e-003
9.439819e-003
9.439912e-003
9.439941e-003
9.439944e-003
9.439941e-003
9.439938e-003
9.440043e-003
9.439970e-003
9.439775e-003
9.439342e-003
9.438444e-003
9.436683e-003
9.433382e-003
9.427462e-003
9.417314e-003
9.400774e-003
9.375449e-003
9.339931e-003
9.296870e-003
9.259351e-003
9.261957e-003
9.376625e-003
9.730212e-003
1.051626e-002
1.199028e-002
1.443963e-002
1.812748e-002
2.322360e-002
2.974566e-002
3.753486e-002
4.627728e-002
5.556300e-002
6.496101e-002
7.408560e-002
8.263892e-002
9.042604e-002
9.734849e-002
1.033856e-001
1.085724e-001
1.129780e-001
1.166888e-001
1.197951e-001
1.223832e-001
1.245308e-001
1.263058e-001
1.277665e-001
1.289625e-001
1.299363e-001
1.307241e-001
1.313573e-001
1.318623e-001
1.322620e-001
1.325753e-001
1.328180e-001
1.330029e-001
1.331404e-001
1.332384e-001
1.333032e-001
1.333390e-001
1.333486e-001
1.333327e-001
1.332903e-001
1.332181e-001
1.331097e-001
1.329551e-001
1.327388e-001
1.324376e-001
1.320176e-001
1.314284e-001
1.305958e-001
1.294115e-001
1.277209e-001
1.253128e-001
1.219164e-001
1.172164e-001
1.108951e-001
1.027110e-001
9.260658e-002
8.081771e-002
6.792992e-002
5.482756e-002
4.252062e-002
3.189838e-002
2.351168e-002
1.747929e-002
1.354567e-002
1.123829e-002
1.003923e-002
9.506126e-003
9.323059e-003
9.296512e-003
9.324445e-003
9.361419e-003
9.391626e-003
9.412259e-003
9.424985e-003
9.432290e-003
9.436243e-003
9.438266e-003
9.439243e-003
9.439684e-003
9.439864e-003
9.439928e-003
9.439945e-003
9.439946e-003
9.439944e-003
9.439974e-003
9.439837e-003
9.439483e-003
9.438720e-003
9.437184e-003
9.434233e-003
9.428806e-003
9.419254e-003
9.403246e-003
9.378004e-003
9.341496e-003
9.295865e-003
9.255279e-003
9.260976e-003
9.405271e-003
9.862035e-003
1.091301e-002
1.295047e-002
1.643391e-002
2.179047e-002
2.927668e-002
3.885151e-002
5.012301e-002
6.240524e-002
7.486862e-002
8.672187e-002
9.735681e-002
1.064174e-001
1.137929e-001
1.195623e-001
1.239202e-001
1.271127e-001
1.293898e-001
1.309771e-001
1.320615e-001
1.327879e-001
1.332638e-001
1.335668e-001
1.337530e-001
1.338629e-001
1.339260e-001
1.339634e-001
1.339895e-001
1.340130e-001
1.340382e-001
1.340662e-001
1.340962e-001
1.341265e-001
1.341556e-001
1.341829e-001
1.342089e-001
1.342351e-001
1.342637e-001
1.342977e-001
1.343393e-001
1.343905e-001
1.344512e-001
1.345190e-001
1.345879e-001
1.346476e-001
1.346825e-001
1.346726e-001
1.345934e-001
1.344188e-001
1.341205e-001
1.336651e-001
1.329990e-001
1.320182e-001
1.305186e-001
1.281364e-001
1.243122e-001
1.183406e-001
1.095725e-001
9.774629e-002
8.329299e-002
6.740103e-002
5.173200e-002
3.789391e-002
2.694614e-002
1.918491e-002
1.425924e-002
1.147396e-002
1.008945e-002
9.505657e-003
9.319148e-003
9.298596e-003
9.330432e-003
9.368084e-003
9.397188e-003
9.416233e-003
9.427546e-003
9.433814e-003
9.437088e-003
9.438705e-003
9.439454e-003
9.439776e-003
9.439901e-003
9.439940e-003
9.439949e-003
9.439949e-003
9.439823e-003
9.439585e-003
9.438981e-003
9.437709e-003
9.435199e-003
9.430466e-003
9.421912e-003
9.407162e-003
9.383155e-003
9.347138e-003
9.300007e-003
9.254821e-003
9.254799e-003
9.405219e-003
9.919330e-003
1.116662e-002
1.369384e-002
1.817495e-002
2.525445e-002
3.529691e-002
4.813298e-002
6.294692e-002
7.841301e-002
9.305382e-002
1.056558e-001
1.155510e-001
1.226681e-001
1.273844e-001
1.302913e-001
1.319844e-001
1.329429e-001
1.334958e-001
1.338386e-001
1.340683e-001
1.342188e-001
1.342924e-001
1.342818e-001
1.341815e-001
1.339921e-001
1.337191e-001
1.333707e-001
1.329559e-001
1.324836e-001
1.319625e-001
1.314020e-001
1.308122e-001
1.302050e-001
1.295938e-001
1.289938e-001
1.284214e-001
1.278943e-001
1.274311e-001
1.270509e-001
1.267734e-001
1.266186e-001
1.266062e-001
1.267555e-001
1.270834e-001
1.276035e-001
1.283228e-001
1.292381e-001
1.303309e-001
1.315609e-001
1.328592e-001
1.341208e-001
1.352014e-001
1.359246e-001
1.361112e-001
1.356369e-001
1.344886e-001
1.327243e-001
1.302387e-001
1.264216e-001
1.200653e-001
1.098702e-001
9.540100e-002
7.774979e-002
5.926755e-002
4.253402e-002
2.931685e-002
2.013917e-002
1.451162e-002
1.146846e-002
1.003539e-002
9.470934e-003
9.309732e-003
9.303644e-003
9.340096e-003
9.377166e-003
9.403959e-003
9.420676e-003
9.430214e-003
9.435307e-003
9.437871e-003
9.439088e-003
9.439629e-003
9.439849e-003
9.439927e-003
9.439950e-003
9.439955e-003
9.439548e-003
9.439158e-003
9.438180e-003
9.436155e-003
9.432225e-003
9.424933e-003
9.411996e-003
9.390241e-003
9.356266e-003
9.309262e-003
9.259111e-003
9.245328e-003
9.374289e-003
9.879597e-003
1.119716e-002
1.401878e-002
1.925390e-002
2.781868e-002
4.023219e-002
5.615050e-002
7.413162e-002
9.191533e-002
1.072086e-001
1.185699e-001
1.258518e-001
1.299531e-001
1.321306e-001
1.333823e-001
1.342071e-001
1.347052e-001
1.348084e-001
1.344558e-001
1.336528e-001
1.324574e-001
1.309497e-001
1.292102e-001
1.273099e-001
1.253073e-001
1.232482e-001
1.211670e-001
1.190891e-001
1.170339e-001
1.150168e-001
1.130514e-001
1.111511e-001
1.093295e-001
1.076008e-001
1.059797e-001
1.044814e-001
1.031217e-001
1.019168e-001
1.008841e-001
1.000422e-001
9.941208e-002
9.901728e-002
9.888488e-002
9.904589e-002
9.953559e-002
1.003935e-001
1.016627e-001
1.033881e-001
1.056129e-001
1.083732e-001
1.116874e-001
1.155399e-001
1.198556e-001
1.244636e-001
1.290547e-001
1.331508e-001
1.361313e-001
1.373867e-001
1.366350e-001
1.341960e-001
1.306352e-001
1.255879e-001
1.171721e-001
1.034798e-001
8.482720e-002
6.410851e-002
4.502772e-002
3.013698e-002
2.011538e-002
1.423586e-002
1.122386e-002
9.894970e-003
9.415384e-003
9.300871e-003
9.313037e-003
9.352898e-003
9.387736e-003
9.411185e-003
9.425104e-003
9.432723e-003
9.436637e-003
9.438533e-003
9.439397e-003
9.439761e-003
9.439901e-003
9.439947e-003
9.439959e-003
9.439099e-003
9.438489e-003
9.436975e-003
9.433881e-003
9.427964e-003
9.417163e-003
9.398399e-003
9.367869e-003
9.323060e-003
9.269476e-003
9.238149e-003
9.323819e-003
9.754361e-003
1.099120e-002
1.382697e-002
1.938916e-002
2.890907e-002
4.315707e-002
6.167247e-002
8.228076e-002
1.015504e-001
1.163366e-001
1.254922e-001
1.302447e-001
1.327721e-001
1.344386e-001
1.353449e-001
1.350725e-001
1.334120e-001
1.305134e-001
1.267215e-001
1.224043e-001
1.178651e-001
1.133191e-001
1.089023e-001
1.046911e-001
1.007213e-001
9.700261e-002
9.352975e-002
9.028965e-002
8.726663e-002
8.444566e-002
8.181425e-002
7.936322e-002
7.708670e-002
7.498171e-002
7.304749e-002
7.128504e-002
6.969668e-002
6.828600e-002
6.705802e-002
6.601956e-002
6.517984e-002
6.455123e-002
6.415013e-002
6.399792e-002
6.412215e-002
6.455778e-002
6.534865e-002
6.654911e-002
6.822575e-002
7.045904e-002
7.334441e-002
7.699184e-002
8.152154e-002
8.705194e-002
9.367252e-002
1.013911e-001
1.100434e-001
1.191618e-001
1.278332e-001
1.346707e-001
1.381562e-001
1.375723e-001
1.338921e-001
1.286708e-001
1.210344e-001
1.078720e-001
8.831088e-002
6.571562e-002
4.496441e-002
2.923741e-002
1.912090e-002
1.350666e-002
1.081092e-002
9.711692e-003