# vtk DataFile Version 3.0
vtk output
ASCII
DATASET STRUCTURED_POINTS
DIMENSIONS 100 100 1
SPACING 1 1 1
ORIGIN 0 0 0
POINT_DATA 10000
SCALARS SFBox_profile double
LOOKUP_TABLE default 
0.000000e+000
0.000000e+000
0.000000e+000
0.000000e+000
0.000000e+000
0.000000e+000
0.000000e+000
0.000000e+000
0.000000e+000
0.000000e+000
0.000000e+000
0.000000e+000
0.000000e+000
0.000000e+000
0.000000e+000
0.000000e+000
0.000000e+000
0.000000e+000
0.000000e+000
0.000000e+000
0.000000e+000
0.000000e+000
0.000000e+000
0.000000e+000
0.000000e+000
0.000000e+000
0.000000e+000
0.000000e+000
0.000000e+000
0.000000e+000
0.000000e+000
0.000000e+000
0.000000e+000
0.000000e+000
0.000000e+000
0.000000e+000
0.000000e+000
0.000000e+000
0.000000e+000
0.000000e+000
0.000000e+000
0.000000e+000
0.000000e+000
0.000000e+000
0.000000e+000
0.000000e+000
0.000000e+000
0.000000e+000
0.000000e+000
0.000000e+000
0.000000e+000
0.000000e+000
0.000000e+000
0.000000e+000
0.000000e+000
0.000000e+000
0.000000e+000
0.000000e+000
0.000000e+000
0.000000e+000
0.000000e+000
0.000000e+000
0.000000e+000
0.000000e+000
0.000000e+000
0.000000e+000
0.000000e+000
0.000000e+000
0.000000e+000
0.000000e+000
0.000000e+000
0.000000e+000
0.000000e+000
0.000000e+000
0.000000e+000
0.000000e+000
0.000000e+000
0.000000e+000
0.000000e+000
0.000000e+000
0.000000e+000
0.000000e+000
0.000000e+000
0.000000e+000
0.000000e+000
0.000000e+000
0.000000e+000
0.000000e+000
0.000000e+000
0.000000e+000
0.000000e+000
0.000000e+000
0.000000e+000
0.000000e+000
0.000000e+000
0.000000e+000
0.000000e+000
0.000000e+000
0.000000e+000
0.000000e+000
3.114498e-009
1.151556e-009
-1.315686e-009
-2.594821e-009
-1.975156e-009
-2.146444e-010
1.115768e-009
9.857686e-010
-1.573378e-010
-7.858571e-010
1.828529e-010
2.102128e-009
2.930416e-009
1.135915e-009
-2.535126e-009
-5.298716e-009
-4.668777e-009
-8.150411e-010
3.411935e-009
4.993543e-009
3.428267e-009
9.336044e-010
-1.407503e-011
7.769965e-010
1.247424e-009
-4.148259e-010
-3.588863e-009
-5.755406e-009
-5.137892e-009
-2.521548e-009
-2.910538e-010
1.477507e-010
-3.312647e-010
1.259550e-010
2.101908e-009
4.296143e-009
5.101371e-009
4.395239e-009
3.502038e-009
3.554268e-009
4.290014e-009
4.599992e-009
3.963648e-009
2.985097e-009
2.529374e-009
2.690263e-009
2.854913e-009
2.613434e-009
2.243705e-009
2.211985e-009
2.487124e-009
2.637847e-009
2.522486e-009
2.536391e-009
3.020512e-009
3.662011e-009
3.804412e-009
3.340696e-009
2.962328e-009
3.293017e-009
3.955078e-009
3.864638e-009
2.545880e-009
8.481837e-010
4.197593e-011
2.783876e-010
3.287542e-010
-9.307211e-010
-2.997306e-009
-4.089065e-009
-3.103341e-009
-9.386871e-010
4.335393e-010
1.536224e-010
-6.029391e-010
-7.252972e-011
1.911691e-009
3.524891e-009
2.868691e-009
1.076874e-010
-2.538816e-009
-2.965379e-009
-1.204889e-009
7.726302e-010
1.158368e-009
4.469321e-011
-9.160629e-010
-4.068619e-010
1.154227e-009
2.087185e-009
1.199073e-009
-9.865598e-010
-2.669957e-009
-2.381989e-009
-2.512639e-010
2.123822e-009
2.971582e-009
1.687715e-009
-7.800589e-010
-2.673263e-009
-8.436420e-010
-3.069749e-010
3.624750e-010
7.415126e-010
6.843389e-010
3.232490e-010
-1.424382e-010
-5.852026e-010
-8.830788e-010
-8.260362e-010
-2.441066e-010
6.944290e-010
1.396537e-009
1.245946e-009
2.261828e-010
-8.986122e-010
-1.195662e-009
-4.803308e-010
4.203935e-010
4.615463e-010
-4.971525e-010
-1.447448e-009
-1.235164e-009
1.897386e-010
1.645056e-009
1.920027e-009
1.035884e-009
1.692178e-010
3.097970e-010
1.155891e-009
1.490715e-009
5.940988e-010
-9.352113e-010
-1.867677e-009
-1.707301e-009
-1.153122e-009
-1.189273e-009
-1.938824e-009
-2.612340e-009
-2.512249e-009
-1.828499e-009
-1.321750e-009
-1.388743e-009
-1.681736e-009
-1.657614e-009
-1.267601e-009
-9.294759e-010
-9.259498e-010
-1.078007e-009
-1.078986e-009
-9.535208e-010
-9.850556e-010
-1.248341e-009
-1.454054e-009
-1.361680e-009
-1.177464e-009
-1.321122e-009
-1.815031e-009
-2.141652e-009
-1.856113e-009
-1.206346e-009
-9.001071e-010
-1.218393e-009
-1.582457e-009
-1.202542e-009
-8.184062e-011
8.789798e-010
8.885956e-010
2.107868e-010
-1.195259e-010
4.752186e-010
1.390604e-009
1.508317e-009
5.037908e-010
-7.297835e-010
-1.045499e-009
-2.964768e-010
5.367053e-010
4.603437e-010
-4.471841e-010
-1.162102e-009
-8.535355e-010
2.417761e-010
1.108363e-009
1.009335e-009
1.649355e-010
-5.784783e-010
-6.275628e-010
-1.348361e-010
2.989120e-010
2.794122e-010
-6.173155e-011
-3.119371e-010
-2.287193e-010
7.348512e-011
3.075560e-010
3.015649e-010
1.028124e-010
-1.301720e-010
-2.714440e-010
-4.111786e-009
-1.495274e-009
1.753529e-009
3.417682e-009
2.665563e-009
5.039215e-010
-1.228105e-009
-1.441270e-009
-5.969954e-010
-5.298716e-011
-5.979227e-010
-1.593691e-009
-1.591455e-009
1.437234e-010
2.704514e-009
4.182452e-009
3.317535e-009
5.881125e-010
-2.268632e-009
-3.762142e-009
-3.694297e-009
-2.863843e-009
-1.974630e-009
-9.953319e-010
4.649428e-010
2.383345e-009
4.112773e-009
4.928356e-009
4.647783e-009
3.653730e-009
2.407485e-009
1.075085e-009
-3.793039e-010
-1.893161e-009
-3.235335e-009
-4.213280e-009
-4.836545e-009
-5.227297e-009
-5.435269e-009
-5.414839e-009
-5.162175e-009
-4.790134e-009
-4.432964e-009
-4.124385e-009
-3.816812e-009
-3.496571e-009
-3.223420e-009
-3.052685e-009
-2.972480e-009
-2.948902e-009
-2.995169e-009
-3.145520e-009
-3.373677e-009
-3.596632e-009
-3.778444e-009
-3.979258e-009
-4.252637e-009
-4.519239e-009
-4.607228e-009
-4.430193e-009
-4.067367e-009
-3.626256e-009
-3.068687e-009
-2.248536e-009
-1.127907e-009
1.143839e-010
1.232313e-009
2.118795e-009
2.789162e-009
3.182144e-009
3.095630e-009
2.401857e-009
1.277305e-009
1.114042e-010
-8.320123e-010
-1.569604e-009
-2.152406e-009
-2.354944e-009
-1.791982e-009
-4.346806e-010
1.087217e-009
1.879011e-009
1.567288e-009
6.471018e-010
-3.189174e-011
-1.212038e-010
-4.735827e-011
-4.041177e-010
-1.143041e-009
-1.488908e-009
-7.354900e-010
8.852366e-010
2.197321e-009
2.037946e-009
3.254221e-010
-1.749618e-009
-2.618562e-009
-1.578564e-009
6.325710e-010
2.384040e-009
-2.605508e-009
-9.125004e-010
1.142648e-009
2.053735e-009
1.301712e-009
-2.213936e-010
-9.665768e-010
-1.647525e-010
1.305070e-009
1.593558e-009
-2.824615e-010
-3.135270e-009
-4.325276e-009
-2.151608e-009
2.267094e-009
5.625502e-009
5.256863e-009
1.551531e-009
-2.423216e-009
-3.791168e-009
-2.402041e-009
-5.581650e-010
-3.723033e-010
-1.611310e-009
-2.226551e-009
-8.085317e-010
1.806510e-009
3.465125e-009
2.995384e-009
1.307502e-009
2.217209e-010
4.953842e-010
1.238007e-009
1.162091e-009
7.431167e-011
-1.046749e-009
-1.273065e-009
-7.219163e-010
-2.615788e-010
-4.472509e-010
-9.823745e-010
-1.214780e-009
-9.390021e-010
-5.502990e-010
-4.872884e-010
-7.241477e-010
-8.931564e-010
-7.892570e-010
-5.919536e-010
-5.748007e-010
-7.335184e-010
-8.205628e-010
-7.094980e-010
-5.803320e-010
-6.670676e-010
-9.056346e-010
-9.780300e-010
-7.353586e-010
-4.460306e-010
-4.852261e-010
-8.072847e-010
-9.034452e-010
-3.974973e-010
4.171192e-010
8.379106e-010
6.023489e-010
2.928505e-010
6.839868e-010
1.713415e-009
2.358308e-009
1.724826e-009
1.550544e-010
-1.022502e-009
-9.462255e-010
-2.255391e-010
-2.355997e-010
-1.414036e-009
-2.544281e-009
-1.992851e-009
3.759316e-010
2.775338e-009
3.164368e-009
1.296055e-009
-1.034664e-009
-1.808806e-009
-7.454068e-010
6.058747e-010
6.293010e-010
-6.565073e-010
-1.697040e-009
-1.092977e-009
9.077391e-010
2.587394e-009
2.356141e-009
2.084858e-010
-2.253836e-009
-3.146178e-009
-1.779755e-009
8.616837e-010
2.894511e-009
2.451265e-009
9.300277e-010
-9.834089e-010
-2.113790e-009
-2.044699e-009
-1.086615e-009
2.806469e-010
1.693498e-009
2.673546e-009
2.486038e-009
6.863749e-010
-2.035593e-009
-3.863046e-009
-3.220232e-009
-4.076294e-010
2.314774e-009
2.687796e-009
7.022848e-010
-1.269261e-009
-8.557875e-010
1.762589e-009
3.896729e-009
3.091673e-009
-2.851708e-010
-3.409286e-009
-3.941725e-009
-2.348340e-009
-1.109901e-009
-1.814966e-009
-3.434285e-009
-3.626203e-009
-1.452027e-009
1.611130e-009
3.379657e-009
3.298085e-009
2.764390e-009
3.289083e-009
4.775453e-009
5.833372e-009
5.526985e-009
4.393679e-009
3.661761e-009
3.796744e-009
4.139613e-009
3.899454e-009
3.136863e-009
2.568142e-009
2.596361e-009
2.871399e-009
2.866711e-009
2.613583e-009
2.604017e-009
3.045381e-009
3.525529e-009
3.571338e-009
3.339782e-009
3.449441e-009
4.100220e-009
4.655219e-009
4.349334e-009
3.302109e-009
2.480883e-009
2.511264e-009
2.778415e-009
2.067057e-009
1.110953e-010
-1.850880e-009
-2.360975e-009
-1.452671e-009
-6.864724e-010
-1.315555e-009
-2.697419e-009
-2.928962e-009
-1.098664e-009
1.457019e-009
2.465698e-009
1.203091e-009
-6.764037e-010
-9.560167e-010
6.918248e-010
2.352098e-009
1.982932e-009
-3.541505e-010
-2.551874e-009
-2.645098e-009
-7.338854e-010
1.294770e-009
1.748871e-009
6.573063e-010
-5.804923e-010
-7.755785e-010
-1.734438e-011
6.957924e-010
6.089508e-010
-1.247485e-010
-7.797360e-010
-8.264915e-010
-3.134038e-010
3.454297e-010
7.647503e-010
5.546400e-009
1.930184e-009
-2.406664e-009
-4.434716e-009
-3.327873e-009
-6.999446e-010
1.202564e-009
1.490039e-009
9.865931e-010
8.950072e-010
1.371322e-009
1.509117e-009
5.688869e-010
-1.071759e-009
-2.328828e-009
-2.592896e-009
-2.195936e-009
-1.645848e-009
-7.384521e-010
1.135639e-009
3.751578e-009
5.555304e-009
4.906326e-009
1.891229e-009
-1.451224e-009
-3.024681e-009
-2.717024e-009
-2.273346e-009
-3.107025e-009
-4.575599e-009
-4.740000e-009
-2.706891e-009
2.207552e-010
1.937495e-009
1.813047e-009
1.199829e-009
1.681511e-009
3.226475e-009
4.383240e-009
4.114909e-009
2.980447e-009
2.337485e-009
2.703516e-009
3.302411e-009
3.198065e-009
2.460923e-009
1.942910e-009
2.108752e-009
2.506570e-009
2.489753e-009
2.123257e-009
2.039411e-009
2.491439e-009
2.951103e-009
2.836678e-009
2.375824e-009
2.362436e-009
3.046332e-009
3.645422e-009
3.249600e-009
2.033721e-009
1.151699e-009
1.298425e-009
1.717657e-009
1.026790e-009
-1.024185e-009
-3.038950e-009
-3.472169e-009
-2.412190e-009
-1.460824e-009
-1.776753e-009
-2.619085e-009
-2.196711e-009
1.251206e-010
2.869858e-009
3.907441e-009
2.667562e-009
6.132055e-010
-4.552191e-010
-2.433529e-010
6.640947e-011
-5.403271e-010
-1.680925e-009
-2.099759e-009
-1.161627e-009
4.619688e-010
1.569718e-009
1.623597e-009
1.022124e-009
3.687608e-010
-2.055943e-010
-8.732639e-010
-1.479671e-009
-1.419975e-009
-3.118588e-010
1.307502e-009
2.188605e-009
1.454261e-009
-4.747948e-010
-2.099354e-009
2.801095e-009
7.236031e-010
-1.516793e-009
-2.010583e-009
-5.743216e-010
1.093528e-009
1.041971e-009
-9.373952e-010
-2.886195e-009
-2.440564e-009
7.540783e-010
4.369980e-009
5.330398e-009
2.616727e-009
-1.778917e-009
-4.691862e-009
-4.550099e-009
-2.362675e-009
-2.240433e-010
7.905261e-010
1.130327e-009
1.556214e-009
2.006800e-009
1.894711e-009
1.172040e-009
5.687491e-010
6.524418e-010
1.024809e-009
8.132024e-010
-1.444497e-010
-1.013992e-009
-1.025896e-009
-5.277170e-010
-6.138378e-010
-1.740620e-009
-3.085118e-009
-3.497936e-009
-2.874898e-009
-2.234697e-009
-2.432179e-009
-3.144126e-009
-3.365180e-009
-2.710175e-009
-1.850823e-009
-1.605597e-009
-1.932275e-009
-2.104696e-009
-1.742040e-009
-1.279517e-009
-1.303070e-009
-1.722383e-009
-1.927973e-009
-1.684992e-009
-1.489617e-009
-1.861575e-009
-2.544634e-009
-2.766353e-009
-2.274502e-009
-1.746880e-009
-1.937647e-009
-2.627204e-009
-2.801116e-009
-1.925575e-009
-7.038760e-010
-2.805218e-010
-8.364764e-010
-1.349902e-009
-8.587579e-010
3.421542e-010
1.069247e-009
7.164271e-010
-1.329323e-011
5.619052e-012
9.545079e-010
1.895640e-009
1.909205e-009
1.068113e-009
1.250230e-010
-5.025204e-010
-1.054964e-009
-1.731150e-009
-2.067237e-009
-1.379954e-009
2.237870e-010
1.638209e-009
1.793192e-009
7.966515e-010
-1.841406e-010
-2.246251e-010
3.478706e-010
3.979579e-010
-6.172444e-010
-1.873222e-009
-1.927829e-009
-2.463049e-010
2.071155e-009
3.129601e-009
1.891793e-009
-8.545676e-010
-3.066562e-009
-3.527347e-009
-1.583643e-009
1.031060e-009
2.932327e-009
3.408760e-009
2.389810e-009
1.278763e-010
-2.687506e-009
-4.652151e-009
-4.168942e-009
-8.943812e-010
3.299681e-009
5.376724e-009
3.747272e-009
-5.671977e-011
-2.643981e-009
-1.997625e-009
5.735587e-010
1.871841e-009
1.669236e-010
-3.075931e-009
-4.841803e-009
-3.654638e-009
-7.697476e-010
1.535802e-009
2.356548e-009
2.589351e-009
3.321152e-009
4.385323e-009
4.716546e-009
3.754428e-009
2.038318e-009
4.341946e-010
-8.087830e-010
-1.997761e-009
-3.252457e-009
-4.226682e-009
-4.618255e-009
-4.634834e-009
-4.715706e-009
-4.928856e-009
-4.921866e-009
-4.487159e-009
-3.919355e-009
-3.651962e-009
-3.693966e-009
-3.664136e-009
-3.362839e-009
-3.061384e-009
-3.103634e-009
-3.402281e-009
-3.561404e-009
-3.453881e-009
-3.416134e-009
-3.756214e-009
-4.262300e-009
-4.431711e-009
-4.134494e-009
-3.784925e-009
-3.749490e-009
-3.790671e-009
-3.331582e-009
-2.209764e-009
-9.021212e-010
8.298443e-011
8.056387e-010
1.662159e-009
2.667447e-009
3.291589e-009
3.113842e-009
2.380838e-009
1.656390e-009
1.041359e-009
1.145987e-010
-1.233394e-009
-2.252870e-009
-2.033259e-009
-7.322374e-010
3.110870e-010
-4.086360e-012
-1.165269e-009
-1.477540e-009
1.585703e-012
2.209326e-009
3.044502e-009
1.574649e-009
-9.418979e-010
-2.330000e-009
-1.650085e-009
5.145522e-011
1.023078e-009
5.866747e-010
-4.254864e-010
-7.792903e-010
-1.202432e-010
8.435990e-010
1.185552e-009
6.097672e-010
-4.282391e-010
-1.193988e-009
-7.041102e-009
-2.384090e-009
3.006342e-009
5.300597e-009
3.862185e-009
9.936921e-010
-8.562913e-010
-1.248697e-009
-1.293492e-009
-1.705887e-009
-1.935724e-009
-1.230170e-009
5.346315e-011
7.892169e-010
6.725065e-010
8.240780e-010
2.306130e-009
4.260738e-009
4.250257e-009
8.952816e-010
-4.092721e-009
-7.093887e-009
-6.018510e-009
-2.315734e-009
6.694889e-010
1.140919e-009
3.071974e-010
4.746559e-010
2.233281e-009
3.960481e-009
3.914531e-009
2.234707e-009
6.046778e-010
2.764632e-010
8.942089e-010
1.263814e-009
8.368180e-010
1.279884e-010
-1.371594e-010
1.196529e-010
4.205663e-010
4.037293e-010
1.574834e-010
-4.088024e-011
-8.248836e-011
-5.360261e-011
-5.051904e-011
-8.981082e-011
-1.520967e-010
-2.100307e-010
-2.176788e-010
-1.510814e-010
-6.712965e-011
-5.096302e-011
-8.830071e-011
-6.957887e-011
3.678276e-011
1.035070e-010
3.284259e-011
-3.786897e-011
1.224852e-010
4.786125e-010
7.004707e-010
6.324408e-010
6.426133e-010
1.226008e-009
2.233435e-009
2.800877e-009
2.299116e-009
1.195479e-009
5.838849e-010
7.692834e-010
7.039592e-010
-7.637271e-010
-3.178077e-009
-4.519079e-009
-3.273369e-009
-2.519947e-010
2.069265e-009
2.092987e-009
6.733905e-010
-5.557204e-011
8.092804e-010
1.998129e-009
1.683160e-009
-3.349029e-010
-2.379469e-009
-2.726418e-009
-1.318724e-009
4.508860e-010
1.347851e-009
1.324773e-009
1.012914e-009
6.619433e-010
-2.193564e-011
-1.072998e-009
-1.758594e-009
-1.225431e-009
3.960656e-010
1.835971e-009
-3.858812e-009
-4.637487e-010
2.726846e-009
2.588425e-009
-3.677510e-010
-2.650109e-009
-1.500979e-009
2.175819e-009
4.679559e-009
3.252859e-009
-1.173078e-009
-4.981773e-009
-5.397959e-009
-2.789285e-009
3.841202e-010
2.321279e-009
3.111140e-009
3.484645e-009
3.246678e-009
1.642534e-009
-9.600414e-010
-2.674644e-009
-1.984416e-009
2.575876e-010
1.415783e-009
-9.863546e-011
-2.993610e-009
-4.495852e-009
-3.408524e-009
-1.275098e-009
-3.882053e-010
-1.116153e-009
-1.675710e-009
-4.190722e-010
2.221254e-009
4.334812e-009
4.735313e-009
4.091446e-009
3.866600e-009
4.577413e-009
5.417162e-009
5.424482e-009
4.615362e-009
3.820458e-009
3.647622e-009
3.886538e-009
3.932451e-009
3.565824e-009
3.150091e-009
3.120006e-009
3.450096e-009
3.726384e-009
3.687314e-009
3.553244e-009
3.728527e-009
4.228641e-009
4.566165e-009
4.313658e-009
3.684224e-009
3.328612e-009
3.475467e-009
3.485343e-009
2.541754e-009
7.703310e-010
-6.698759e-010
-8.602915e-010
-3.003048e-010
-3.990202e-010
-1.697010e-009
-2.992111e-009
-2.653713e-009
-7.035191e-010
9.295066e-010
5.134691e-010
-1.417224e-009
-2.551055e-009
-1.374704e-009
1.153827e-009
2.751455e-009
2.336089e-009
9.565351e-010
2.262812e-010
3.732814e-010
2.728898e-010
-7.972489e-010
-2.046115e-009
-2.100966e-009
-7.348366e-010
8.089010e-010
1.268833e-009
7.604420e-010
4.191444e-010
8.097819e-010
1.131644e-009
2.490203e-010
-1.672382e-009
-2.946975e-009
-2.011101e-009
7.830255e-010
3.221102e-009
3.146410e-009
2.333020e-009
3.924779e-010
-2.487561e-009
-4.926601e-009
-4.886509e-009
-1.439962e-009
3.734224e-009
7.000602e-009
5.646699e-009
5.341976e-010
-4.327739e-009
-5.310268e-009
-2.455516e-009
8.456212e-010
1.444626e-009
-5.371886e-010
-2.339326e-009
-1.798327e-009
5.917952e-010
2.809648e-009
3.752831e-009
3.909800e-009
3.850066e-009
3.001605e-009
5.370922e-010
-2.919117e-009
-5.337627e-009
-5.355195e-009
-3.827781e-009
-2.803460e-009
-3.093139e-009
-3.427554e-009
-2.211615e-009
3.531792e-010
2.408410e-009
2.605812e-009
1.605316e-009
1.153510e-009
1.995451e-009
3.160132e-009
3.316334e-009
2.393519e-009
1.539471e-009
1.650938e-009
2.368410e-009
2.670971e-009
2.188618e-009
1.584241e-009
1.630634e-009
2.222512e-009
2.559161e-009
2.216419e-009
1.713914e-009
1.835933e-009
2.561952e-009
3.006676e-009
2.523808e-009
1.596063e-009
1.290828e-009
1.851596e-009
2.217824e-009
1.238104e-009
-8.212100e-010
-2.421699e-009
-2.536773e-009
-1.912499e-009
-2.130960e-009
-3.518729e-009
-4.518868e-009
-3.446798e-009
-5.718323e-010
2.032459e-009
2.723570e-009
1.920367e-009
1.251994e-009
1.455671e-009
1.691543e-009
9.655948e-010
-3.781799e-010
-1.088186e-009
-7.086034e-010
-2.116237e-010
-6.670850e-010
-1.693725e-009
-1.783695e-009
-2.005559e-010
1.899423e-009
2.580648e-009
1.232871e-009
-7.605985e-010
-1.523460e-009
-6.272848e-010
6.303627e-010
7.607164e-010
-3.386890e-010
-1.387260e-009
-1.142588e-009
3.119768e-010
1.664075e-009
7.241280e-009
2.827625e-009
-2.398557e-009
-5.011858e-009
-4.409090e-009
-2.265817e-009
-2.120260e-010
1.321499e-009
2.321957e-009
2.364117e-009
1.232666e-009
-8.370702e-011
-3.175268e-011
1.486119e-009
2.358109e-009
3.565553e-010
-3.960654e-009
-7.120455e-009
-6.022901e-009
-1.179142e-009
3.752002e-009
5.600186e-009
4.413527e-009
2.521822e-009
1.568613e-009
1.174301e-009
3.521548e-010
-7.198504e-010
-9.940816e-010
-2.394300e-010
4.256806e-010
-4.711537e-011
-1.238016e-009
-1.833593e-009
-1.415775e-009
-1.046578e-009
-1.846746e-009
-3.449635e-009
-4.379179e-009
-3.873162e-009
-2.805899e-009
-2.558638e-009
-3.317085e-009
-3.940663e-009
-3.485253e-009
-2.391086e-009
-1.869397e-009
-2.353647e-009
-3.012978e-009
-2.893081e-009
-2.162437e-009
-1.857270e-009
-2.486129e-009
-3.327724e-009
-3.352327e-009
-2.579472e-009
-2.081703e-009
-2.573441e-009
-3.397365e-009
-3.285654e-009
-1.997206e-009
-7.212247e-010
-6.441212e-010
-1.456513e-009
-1.738988e-009
-7.909188e-010
4.305556e-010
5.043231e-010
-6.252374e-010
-1.521262e-009
-9.832785e-010
5.853956e-010
1.847167e-009
2.212885e-009
2.268359e-009
2.510054e-009
2.326591e-009
8.066805e-010
-1.662106e-009
-3.315738e-009
-2.858196e-009
-1.004779e-009
2.975517e-010
1.103489e-010
-5.257802e-010
-5.122142e-011
1.568105e-009
2.714175e-009
1.992546e-009
-1.839968e-010
-2.076301e-009
-2.405763e-009
-1.359272e-009
2.580202e-011
9.959121e-010
1.405803e-009
1.279620e-009
5.721804e-010
-5.240186e-010
-1.381822e-009
4.845437e-009
6.604821e-011
-4.002541e-009
-3.057279e-009
1.406546e-009
4.100913e-009
1.917158e-009
-2.902426e-009
-5.540362e-009
-3.725018e-009
5.102658e-010
3.697698e-009
4.453925e-009
3.726791e-009
2.463267e-009
3.905616e-010
-2.583302e-009
-4.858966e-009
-4.303935e-009
-1.017177e-009
2.031106e-009
1.876462e-009
-1.170399e-009
-3.785043e-009
-3.207984e-009
7.545132e-012
3.070660e-009
4.189796e-009
4.026626e-009
4.071591e-009
4.493472e-009
4.203110e-009
2.633071e-009
6.029220e-010
-7.895958e-010
-1.532387e-009
-2.429186e-009
-3.723449e-009
-4.647053e-009
-4.517863e-009
-3.791875e-009
-3.548714e-009
-4.086473e-009
-4.549738e-009
-4.113046e-009
-3.128671e-009
-2.692276e-009
-3.205761e-009
-3.858163e-009
-3.716678e-009
-2.973151e-009
-2.685264e-009
-3.354309e-009
-4.232653e-009
-4.292305e-009
-3.576890e-009
-3.132354e-009
-3.586894e-009
-4.257792e-009
-3.988535e-009
-2.628476e-009
-1.201587e-009
-5.489596e-010
-2.669961e-010
6.405838e-010
2.296479e-009
3.667433e-009
3.840567e-009
3.103926e-009
2.379405e-009
1.882443e-009
9.761854e-010
-5.437988e-010
-1.662556e-009
-1.243014e-009
2.841086e-010
1.044749e-009
-1.511708e-010
-2.245317e-009
-3.020132e-009
-1.635437e-009
4.772118e-010
1.413338e-009
9.734417e-010
5.440362e-010
1.038520e-009
1.682711e-009
1.164084e-009
-4.944014e-010
-1.847548e-009
-1.793972e-009
-8.296008e-010
-1.915815e-010
-1.445677e-010
2.300860e-010
1.457809e-009
2.502751e-009
1.774839e-009
-7.695339e-010
-3.109857e-009
-9.748067e-010
-3.247056e-009
-3.558732e-009
7.222850e-010
6.694767e-009
8.418058e-009
3.268392e-009
-4.834528e-009
-9.031454e-009
-6.229581e-009
1.791074e-010
4.242565e-009
3.462833e-009
4.649628e-010
-8.060197e-010
5.724890e-010
2.400480e-009
2.690626e-009
1.783431e-009
9.342419e-010
-1.356929e-012
-2.241657e-009
-5.596881e-009
-7.581862e-009
-5.860017e-009
-1.165400e-009
3.099357e-009
4.324545e-009
3.137486e-009
2.090141e-009
2.492997e-009
3.283948e-009
2.906253e-009
1.426768e-009
2.701334e-010
3.040372e-010
9.441800e-010
1.213240e-009
1.034975e-009
1.042291e-009
1.448931e-009
1.730314e-009
1.485687e-009
1.098052e-009
1.183840e-009
1.655457e-009
1.801680e-009
1.309381e-009
7.648159e-010
8.802153e-010
1.498251e-009
1.775444e-009
1.321256e-009
7.291315e-010
7.591146e-010
1.293104e-009
1.501555e-009
9.844375e-010
3.045225e-010
1.921916e-010
5.636614e-010
7.375106e-010
5.068444e-010
4.828762e-010
1.176600e-009
2.156496e-009
2.577881e-009
2.376051e-009
2.322121e-009
2.699860e-009
2.499533e-009
5.721597e-010
-2.535834e-009
-4.628679e-009
-4.125005e-009
-1.872731e-009
-1.645717e-010
-8.642409e-011
-4.932336e-010
1.769234e-010
1.707080e-009
2.408044e-009
1.441126e-009
-8.136320e-012
-2.986081e-010
4.661341e-010
5.964033e-010
-8.091155e-010
-2.417407e-009
-2.168462e-009
7.026560e-011
2.095095e-009
1.855846e-009
-1.343963e-010
-1.415843e-009
-5.098816e-010
1.348880e-009
1.733073e-009
-4.227508e-011
-2.067858e-009
-4.303328e-009
-3.410408e-009
-1.067471e-009
2.540850e-009
5.578326e-009
5.587628e-009
1.953169e-009
-2.750435e-009
-4.611196e-009
-2.213103e-009
1.567158e-009
2.299951e-009
-1.191419e-009
-5.256580e-009
-5.160981e-009
-1.913549e-010
5.562622e-009
7.528542e-009
5.061393e-009
1.196679e-009
-1.234871e-009
-2.129542e-009
-2.745405e-009
-3.146345e-009
-2.218243e-009
4.415350e-011
1.612790e-009
5.620151e-010
-2.417985e-009
-4.549916e-009
-4.040869e-009
-1.906298e-009
-4.177427e-010
-3.282497e-010
-3.217534e-010
9.649752e-010
3.179250e-009
4.855035e-009
5.260188e-009
5.028503e-009
5.061773e-009
5.425443e-009
5.594462e-009
5.377459e-009
5.117288e-009
5.067189e-009
5.031891e-009
4.786167e-009
4.522837e-009
4.586875e-009
4.916210e-009
5.087084e-009
4.927014e-009
4.763907e-009
4.912946e-009
5.169143e-009
5.087255e-009
4.631565e-009
4.181319e-009
3.852050e-009
3.207450e-009
1.923169e-009
4.623657e-010
-3.796647e-010
-5.809819e-010
-1.008862e-009
-2.132457e-009
-3.043046e-009
-2.397035e-009
-3.296409e-010
1.241684e-009
6.678202e-010
-1.433350e-009
-2.827132e-009
-2.253105e-009
-7.080725e-010
1.387897e-010
1.848997e-010
7.610436e-010
2.379829e-009
3.572019e-009
2.595295e-009
-1.413755e-010
-2.233150e-009
-2.019713e-009
-4.965680e-010
4.229153e-011
-1.068927e-009
-2.046716e-009
-9.511800e-010
1.763382e-009
3.555046e-009
2.575596e-009
-3.252453e-010
-2.559390e-009
-2.470111e-009
-7.413212e-010
7.306055e-010
9.439729e-010
5.225083e-010
-3.003617e-009
1.506668e-010
2.623162e-009
1.663272e-009
-1.389595e-009
-3.049244e-009
-1.664752e-009
1.339088e-009
3.627845e-009
4.127761e-009
2.874782e-009
1.913241e-011
-3.795558e-009
-6.490294e-009
-5.581880e-009
-1.017831e-009
3.753915e-009
4.736536e-009
1.564507e-009
-2.014538e-009
-2.171694e-009
1.069213e-009
4.405855e-009
5.184346e-009
3.749544e-009
1.887612e-009
1.606994e-010
-2.189729e-009
-5.135523e-009
-6.995694e-009
-6.275209e-009
-3.692923e-009
-1.520861e-009
-9.968288e-010
-1.128937e-009
-2.960419e-010
1.583971e-009
3.059583e-009
3.065586e-009
2.156592e-009
1.649282e-009
2.031177e-009
2.644475e-009
2.737947e-009
2.338735e-009
1.991319e-009
2.002373e-009
2.211815e-009
2.347960e-009
2.327922e-009
2.220644e-009
2.132968e-009
2.180035e-009
2.394564e-009
2.596563e-009
2.528239e-009
2.239058e-009
2.150154e-009
2.490869e-009
2.781757e-009
2.253428e-009
8.764673e-010
-4.085850e-010
-8.302142e-010
-9.127779e-010
-1.904582e-009
-3.978779e-009
-5.563164e-009
-4.959460e-009
-2.395941e-009
1.382145e-010
1.165810e-009
1.209908e-009
1.625935e-009
2.480666e-009
2.462874e-009
9.637146e-010
-6.480585e-010
-5.477504e-010
1.096340e-009
2.080220e-009
7.999901e-010
-1.724603e-009
-3.019153e-009
-2.032303e-009
-1.572759e-010
6.692857e-010
2.124549e-010
-1.739524e-010
4.810616e-010
1.593059e-009
1.898965e-009
9.622705e-010
-5.377009e-010
-1.694489e-009
-2.078431e-009
-1.641945e-009
-4.755133e-010
1.044871e-009
2.152049e-009
-5.297428e-010
3.952364e-009
5.778935e-009
5.205306e-010
-7.558812e-009
-1.016675e-008
-4.384402e-009
4.316061e-009
8.364977e-009
5.787314e-009
8.215827e-010
-1.833679e-009
-1.551236e-009
-5.914831e-010
-3.828248e-010
-5.268543e-010
-7.656881e-010
-1.920127e-009
-4.082763e-009
-5.137157e-009
-2.638609e-009
2.834449e-009
7.425656e-009
7.740217e-009
4.261534e-009
4.247060e-010
-1.249863e-009
-1.189362e-009
-1.041073e-009
-1.131655e-009
-5.142988e-010
1.002446e-009
2.090596e-009
1.536532e-009
-1.073928e-010
-1.200707e-009
-1.086076e-009
-7.745471e-010
-1.448423e-009
-2.874211e-009
-3.751127e-009
-3.373214e-009
-2.416478e-009
-2.008610e-009
-2.418443e-009
-2.931268e-009
-2.832958e-009
-2.204766e-009
-1.719190e-009
-1.854783e-009
-2.425765e-009
-2.824197e-009
-2.663679e-009
-2.194189e-009
-2.051035e-009
-2.512613e-009
-3.051376e-009
-2.825855e-009
-1.706168e-009
-5.785570e-010
-3.500796e-010
-7.618447e-010
-6.245921e-010
6.051069e-010
1.891593e-009
1.725188e-009
2.711013e-011
-1.613280e-009
-1.777496e-009
-7.766329e-010
9.199250e-011
4.753840e-010
1.312800e-009
3.070490e-009
4.440933e-009
3.624430e-009
7.202885e-010
-2.017102e-009
-2.624345e-009
-1.536186e-009
-7.136962e-010
-1.066868e-009
-1.566507e-009
-9.776730e-010
3.816163e-010
1.218617e-009
1.110136e-009
8.733714e-010
1.065140e-009
1.013807e-009
-5.833037e-011
-1.490402e-009
-1.701472e-009
-3.224747e-010
1.039022e-009
7.255933e-010
-7.706362e-010
-1.356006e-009
-6.122263e-011
1.622531e-009
-9.852824e-010
4.059797e-009
6.357337e-009
1.077179e-009
-7.134073e-009
-9.404297e-009
-3.137292e-009
4.889839e-009
6.367922e-009
7.741524e-010
-4.621939e-009
-3.480564e-009
2.725661e-009
7.191396e-009
5.692872e-009
3.929801e-010
-3.847496e-009
-4.919499e-009
-4.181663e-009
-3.114002e-009
-1.428644e-009
1.136517e-009
2.913220e-009
1.814947e-009
-1.574568e-009
-3.881596e-009
-2.474045e-009
1.663051e-009
5.240135e-009
6.320777e-009
5.781207e-009
5.291497e-009
4.993412e-009
3.850356e-009
1.657288e-009
-3.629405e-010
-1.115351e-009
-1.015463e-009
-1.291084e-009
-2.270363e-009
-3.008734e-009
-2.651925e-009
-1.625485e-009
-1.117806e-009
-1.618841e-009
-2.388228e-009
-2.424029e-009
-1.663109e-009
-1.002546e-009
-1.214508e-009
-2.059076e-009
-2.581374e-009
-2.223837e-009
-1.489145e-009
-1.374930e-009
-2.176114e-009
-3.047546e-009
-2.935597e-009
-1.845404e-009
-8.583018e-010
-7.560952e-010
-9.390258e-010
-1.179533e-010
1.981611e-009
4.104402e-009
4.892036e-009
4.415195e-009
3.778435e-009
3.402256e-009
2.478249e-009
4.620626e-010
-1.549680e-009
-1.785124e-009
-8.967990e-011
1.571022e-009
1.315700e-009
-4.952444e-010
-1.936328e-009
-2.016875e-009
-1.590167e-009
-1.618825e-009
-1.528034e-009
-1.709349e-010
2.008789e-009
2.997625e-009
1.765480e-009
-1.399115e-010
-4.591075e-010
7.298746e-010
1.006439e-009
-1.042385e-009
-3.503244e-009
-3.200433e-009
2.293127e-010
3.508418e-009
3.421647e-009
5.219360e-010
-1.763375e-009
-1.394025e-009
9.497134e-011
-3.570328e-009
3.760083e-010
3.407273e-009
2.204452e-009
-1.059025e-009
-1.691715e-009
1.307300e-009
3.588235e-009
7.707369e-010
-5.512071e-009
-8.545769e-009
-4.019039e-009
4.571191e-009
9.265438e-009
6.162910e-009
-6.627014e-010
-4.134036e-009
-1.856487e-009
2.280306e-009
3.468532e-009
1.112388e-009
-1.952174e-009
-3.739309e-009
-4.773094e-009
-5.713542e-009