# vtk DataFile Version 3.0
vtk output
ASCII
DATASET STRUCTURED_POINTS
DIMENSIONS 100 100 1
SPACING 1 1 1
ORIGIN 0 0 0
POINT_DATA 10000
SCALARS SFBox_profile double
LOOKUP_TABLE default 
0.000000e+000
0.000000e+000
0.000000e+000
0.000000e+000
0.000000e+000
0.000000e+000
0.000000e+000
0.000000e+000
0.000000e+000
0.000000e+000
0.000000e+000
0.000000e+000
0.000000e+000
0.000000e+000
0.000000e+000
0.000000e+000
0.000000e+000
0.000000e+000
0.000000e+000
0.000000e+000
0.000000e+000
0.000000e+000
0.000000e+000
0.000000e+000
0.000000e+000
0.000000e+000
0.000000e+000
0.000000e+000
0.000000e+000
0.000000e+000
0.000000e+000
0.000000e+000
0.000000e+000
0.000000e+000
0.000000e+000
0.000000e+000
0.000000e+000
0.000000e+000
0.000000e+000
0.000000e+000
0.000000e+000
0.000000e+000
0.000000e+000
0.000000e+000
0.000000e+000
0.000000e+000
0.000000e+000
0.000000e+000
0.000000e+000
0.000000e+000
0.000000e+000
0.000000e+000
0.000000e+000
0.000000e+000
0.000000e+000
0.000000e+000
0.000000e+000
0.000000e+000
0.000000e+000
0.000000e+000
0.000000e+000
0.000000e+000
0.000000e+000
0.000000e+000
0.000000e+000
0.000000e+000
0.000000e+000
0.000000e+000
0.000000e+000
0.000000e+000
0.000000e+000
0.000000e+000
0.000000e+000
0.000000e+000
0.000000e+000
0.000000e+000
0.000000e+000
0.000000e+000
0.000000e+000
0.000000e+000
0.000000e+000
0.000000e+000
0.000000e+000
0.000000e+000
0.000000e+000
0.000000e+000
0.000000e+000
0.000000e+000
0.000000e+000
0.000000e+000
0.000000e+000
0.000000e+000
0.000000e+000
0.000000e+000
0.000000e+000
0.000000e+000
0.000000e+000
0.000000e+000
0.000000e+000
0.000000e+000
1.725983e-008
1.473053e-008
1.023191e-008
4.736759e-009
-6.181263e-010
-4.807861e-009
-7.145034e-009
-7.399722e-009
-5.796221e-009
-2.906192e-009
5.175089e-010
3.716169e-009
6.069892e-009
7.189833e-009
6.953294e-009
5.487847e-009
3.115784e-009
2.728161e-010
-2.582143e-009
-5.046980e-009
-6.828752e-009
-7.759716e-009
-7.782293e-009
-6.921093e-009
-5.263831e-009
-2.963548e-009
-2.561443e-010
2.529696e-009
4.997012e-009
6.752566e-009
7.513347e-009
7.209846e-009
6.039167e-009
4.434230e-009
2.946387e-009
2.074009e-009
2.093089e-009
2.947477e-009
4.235898e-009
5.299784e-009
5.383769e-009
3.820990e-009
1.932386e-010
-5.570815e-009
-1.317489e-008
-2.200651e-008
-3.124048e-008
-3.996841e-008
-4.732915e-008
-5.262071e-008
-5.538073e-008
-5.542915e-008
-5.287177e-008
-4.806790e-008
-4.156923e-008
-3.404042e-008
-2.617360e-008
-1.860898e-008
-1.187159e-008
-6.329605e-009
-2.175769e-009
5.705160e-010
2.043978e-009
2.500346e-009
2.271458e-009
1.710947e-009
1.135289e-009
7.692076e-010
7.078620e-010
9.078917e-010
1.213293e-009
1.411344e-009
1.302485e-009
7.619369e-010
-2.262637e-010
-1.570646e-009
-3.102096e-009
-4.614526e-009
-5.898304e-009
-6.757780e-009
-7.018017e-009
-6.535217e-009
-5.224056e-009
-3.103012e-009
-3.420839e-010
2.714273e-009
5.575076e-009
7.692096e-009
8.596282e-009
8.043121e-009
6.116263e-009
3.244498e-009
1.117667e-010
-2.523912e-009
-4.051283e-009
-4.194544e-009
-3.102221e-009
-1.298883e-009
4.904041e-010
1.586133e-009
1.290620e-008
1.084855e-008
7.252009e-009
2.998055e-009
-9.272743e-010
-3.706777e-009
-4.894196e-009
-4.489650e-009
-2.880720e-009
-6.859149e-010
1.437772e-009
2.961958e-009
3.588253e-009
3.272491e-009
2.184918e-009
6.322208e-010
-1.031643e-009
-2.484738e-009
-3.492933e-009
-3.935079e-009
-3.796856e-009
-3.140061e-009
-2.061760e-009
-6.618477e-010
9.662683e-010
2.719361e-009
4.455923e-009
5.979674e-009
7.057104e-009
7.475060e-009
7.121522e-009
6.054994e-009
4.525852e-009
2.929248e-009
1.697022e-009
1.162619e-009
1.446049e-009
2.399709e-009
3.633770e-009
4.611899e-009
4.785728e-009
3.727548e-009
1.226326e-009
-2.672136e-009
-7.681830e-009
-1.333662e-008
-1.907364e-008
-2.432034e-008
-2.857073e-008
-3.144240e-008
-3.271165e-008
-3.232656e-008
-3.040001e-008
-2.718499e-008
-2.303614e-008
-1.836252e-008
-1.357826e-008
-9.057876e-009
-5.101962e-009
-1.916271e-009
3.960596e-010
1.831821e-009
2.477877e-009
2.496017e-009
2.102105e-009
1.537850e-009
1.034878e-009
7.749325e-010
8.549239e-010
1.268112e-009
1.910185e-009
2.611224e-009
3.184580e-009
3.476411e-009
3.399495e-009
2.942459e-009
2.157165e-009
1.136344e-009
-4.723118e-012
-1.135347e-009
-2.109187e-009
-2.768523e-009
-2.964718e-009
-2.597323e-009
-1.660907e-009
-2.787232e-010
1.298058e-009
2.736077e-009
3.703282e-009
3.965775e-009
3.464606e-009
2.342794e-009
9.086281e-010
-4.563291e-010
-1.415424e-009
-1.781248e-009
-1.569544e-009
-9.832593e-010
-3.321052e-010
8.369172e-011
5.279343e-009
4.130838e-009
2.235875e-009
2.451093e-010
-1.187310e-009
-1.643494e-009
-1.084840e-009
1.508144e-010
1.487930e-009
2.327600e-009
2.254997e-009
1.168958e-009
-7.011750e-010
-2.883230e-009
-4.813235e-009
-5.995595e-009
-6.125099e-009
-5.143059e-009
-3.223058e-009
-7.011513e-010
2.022638e-009
4.580896e-009
6.706979e-009
8.259389e-009
9.202701e-009
9.561250e-009
9.371515e-009
8.657854e-009
7.443187e-009
5.786819e-009
3.825223e-009
1.787085e-009
-3.541348e-011
-1.356037e-009
-1.980332e-009
-1.872915e-009
-1.176653e-009
-1.731607e-010
8.023846e-010
1.461545e-009
1.643148e-009
1.348721e-009
7.256703e-010
9.544948e-012
-5.514489e-010
-7.646548e-010
-5.356444e-010
1.215992e-010
1.103046e-009
2.250531e-009
3.392225e-009
4.376972e-009
5.096504e-009
5.494348e-009
5.563823e-009
5.338950e-009
4.881779e-009
4.268390e-009
3.574819e-009
2.864149e-009
2.176919e-009
1.527889e-009
9.117903e-010
3.180969e-010
-2.492057e-010
-7.546277e-010
-1.125624e-009
-1.263800e-009
-1.071403e-009
-4.843828e-010
5.005086e-010
1.815187e-009
3.329840e-009
4.877673e-009
6.284343e-009
7.391953e-009
8.073008e-009
8.236582e-009
7.832869e-009
6.860901e-009
5.378953e-009
3.511629e-009
1.445908e-009
-5.883879e-010
-2.351787e-009
-3.634302e-009
-4.290701e-009
-4.264429e-009
-3.597308e-009
-2.425930e-009
-9.663491e-010
5.129513e-010
1.731158e-009
2.447348e-009
2.517416e-009
1.940385e-009
8.749228e-010
-3.882932e-010
-1.498618e-009
-2.143936e-009
-3.763806e-009
-3.654951e-009
-3.272066e-009
-2.393822e-009
-9.061633e-010
1.062832e-009
3.108507e-009
4.642717e-009
5.084610e-009
4.076222e-009
1.638888e-009
-1.789952e-009
-5.454207e-009
-8.477380e-009
-1.009608e-008
-9.856405e-009
-7.718136e-009
-4.044131e-009
5.121361e-010
5.179887e-009
9.250817e-009
1.221487e-008
1.382065e-008
1.405714e-008
1.308036e-008
1.112474e-008
8.437933e-009
5.259276e-009
1.836339e-009
-1.548332e-009
-4.573816e-009
-6.921021e-009
-8.350527e-009
-8.786578e-009
-8.364739e-009
-7.410855e-009
-6.346376e-009
-5.547210e-009
-5.205291e-009
-5.243978e-009
-5.319797e-009
-4.912175e-009
-3.472727e-009
-5.875081e-010
3.895204e-009
9.804716e-009
1.666610e-008
2.378572e-008
3.037813e-008
3.570270e-008
3.918160e-008
4.047906e-008
3.953305e-008
3.654067e-008
3.190705e-008
2.617154e-008
1.992607e-008
1.373792e-008
8.085438e-009
3.311387e-009
-4.030205e-010
-3.041269e-009
-4.730142e-009
-5.694713e-009
-6.195743e-009
-6.461893e-009
-6.633550e-009
-6.734304e-009
-6.678966e-009
-6.315324e-009
-5.485517e-009
-4.086616e-009
-2.111842e-009
3.374875e-010
3.067851e-009
5.826983e-009
8.341689e-009
1.035004e-008
1.162444e-008
1.198832e-008
1.133191e-008
9.631465e-009
6.971807e-009
3.566674e-009
-2.332584e-010
-3.956777e-009
-7.063067e-009
-9.030204e-009
-9.471799e-009
-8.256929e-009
-5.595342e-009
-2.046806e-009
1.572851e-009
4.385118e-009
5.697023e-009
5.226159e-009
3.216553e-009
3.872384e-010
-2.286556e-009
-3.893181e-009
-1.209231e-008
-1.054800e-008
-7.670086e-009
-3.879264e-009
2.147750e-010
3.880058e-009
6.386115e-009
7.168519e-009
5.990427e-009
3.045294e-009
-1.043989e-009
-5.343564e-009
-8.820257e-009
-1.059076e-008
-1.013953e-008
-7.445163e-009
-2.981056e-009
2.407842e-009
7.715672e-009
1.201262e-008
1.464084e-008
1.531686e-008
1.412101e-008
1.139396e-008
7.592142e-009
3.163196e-009
-1.515237e-009
-6.126489e-009
-1.036705e-008
-1.391127e-008
-1.643068e-008
-1.767627e-008
-1.759071e-008
-1.639072e-008
-1.456355e-008
-1.275390e-008
-1.156631e-008
-1.134822e-008
-1.203345e-008
-1.310762e-008
-1.371423e-008
-1.287179e-008
-9.736251e-009
-3.832904e-009
4.803147e-009
1.560709e-008
2.757920e-008
3.946184e-008
4.995318e-008
5.791298e-008
6.252487e-008
6.339355e-008
6.056944e-008
5.450565e-008
4.596288e-008
3.588374e-008
2.525981e-008
1.501137e-008
5.892413e-009
-1.573369e-009
-7.125355e-009
-1.076822e-008
-1.274332e-008
-1.346875e-008
-1.345134e-008
-1.318170e-008
-1.303262e-008
-1.318564e-008
-1.360701e-008
-1.408090e-008
-1.429007e-008
-1.391810e-008
-1.274110e-008
-1.068296e-008
-7.823698e-009
-4.368849e-009
-6.007521e-010
3.165497e-009
6.607633e-009
9.404456e-009
1.124113e-008
1.183077e-008
1.096505e-008
8.590881e-009
4.891434e-009
3.357018e-010
-4.340853e-009
-8.247931e-009
-1.053827e-008
-1.064868e-008
-8.509842e-009
-4.640144e-009
-6.210896e-011
3.964498e-009
6.326140e-009
6.429192e-009
4.420980e-009
1.158083e-009
-2.086416e-009
-4.079602e-009
-1.783630e-008
-1.493622e-008
-9.824290e-009
-3.700386e-009
2.029383e-009
6.105030e-009
7.719243e-009
6.700377e-009
3.530052e-009
-8.009980e-010
-5.053605e-009
-8.046291e-009
-8.931033e-009
-7.377569e-009
-3.631862e-009
1.555829e-009
7.111234e-009
1.188212e-008
1.489406e-008
1.555546e-008
1.376045e-008
9.863179e-009
4.535414e-009
-1.441019e-009
-7.372011e-009
-1.277015e-008
-1.736308e-008
-2.101196e-008
-2.360358e-008
-2.498971e-008
-2.501807e-008
-2.364453e-008
-2.106445e-008
-1.777984e-008
-1.454075e-008
-1.215544e-008
-1.122637e-008
-1.190954e-008
-1.379328e-008
-1.595060e-008
-1.715573e-008
-1.619792e-008
-1.219625e-008
-4.826328e-009
5.594125e-009
1.816661e-008
3.158662e-008
4.437787e-008
5.513153e-008
6.270869e-008
6.638091e-008
6.589833e-008
6.148523e-008
5.377160e-008
4.367680e-008
3.226796e-008
2.061834e-008
9.687243e-009
2.340499e-010
-7.232407e-009
-1.247559e-008
-1.553147e-008
-1.668910e-008
-1.644675e-008
-1.543668e-008
-1.431912e-008
-1.365913e-008
-1.381443e-008
-1.486679e-008
-1.662118e-008
-1.867520e-008
-2.053648e-008
-2.174850e-008
-2.198429e-008
-2.108401e-008
-1.903872e-008
-1.594604e-008
-1.197206e-008
-7.344067e-009
-2.374714e-009
2.506658e-009
6.753156e-009
9.760929e-009
1.099720e-008
1.016794e-008
7.368850e-009
3.153338e-009
-1.533083e-009
-5.561886e-009
-7.929861e-009
-8.073522e-009
-6.074953e-009
-2.666222e-009
9.951459e-010
3.718411e-009
4.702157e-009
3.822935e-009
1.667727e-009
-7.128858e-010
-2.237502e-009
-1.979513e-008
-1.593468e-008
-9.378974e-009
-2.069583e-009
3.913574e-009
7.014792e-009
6.665428e-009
3.404767e-009
-1.356337e-009
-5.823133e-009
-8.378763e-009
-8.041148e-009
-4.694094e-009
9.409157e-010
7.545580e-009
1.356388e-008
1.757618e-008
1.860457e-008
1.629592e-008
1.095865e-008
3.454819e-009
-5.024962e-009
-1.324845e-008
-2.021340e-008
-2.532485e-008
-2.842662e-008
-2.969005e-008
-2.942104e-008
-2.788187e-008
-2.521328e-008
-2.148911e-008
-1.686367e-008
-1.171852e-008
-6.709098e-009
-2.657179e-009
-3.112496e-010
-6.579595e-011
-1.758587e-009
-4.638945e-009
-7.532322e-009
-9.148875e-009
-8.430546e-009
-4.823268e-009
1.602702e-009
1.020091e-008
1.992554e-008
2.956634e-008
3.797234e-008
4.421959e-008
4.770852e-008
4.819858e-008
4.579534e-008
4.090216e-008
3.414406e-008
2.627129e-008
1.805571e-008
1.019830e-008
3.265143e-009
-2.340506e-009
-6.376989e-009
-8.751803e-009
-9.516321e-009
-8.874321e-009
-7.193384e-009
-4.995572e-009
-2.905113e-009
-1.548041e-009
-1.424000e-009
-2.790604e-009
-5.603348e-009
-9.535619e-009
-1.407125e-008
-1.863195e-008
-2.268951e-008
-2.582496e-008
-2.772778e-008
-2.816190e-008
-2.694242e-008
-2.395913e-008
-1.925169e-008
-1.310504e-008
-6.109371e-009
8.677402e-010
6.819539e-009
1.082599e-008
1.230307e-008
1.119058e-008
8.004022e-009
3.716125e-009
-5.081614e-010
-3.643494e-009
-5.091604e-009
-4.822303e-009
-3.316817e-009
-1.337829e-009
3.799447e-010
1.392833e-009
1.660993e-009
1.474672e-009
1.241228e-009
-1.762486e-008
-1.350548e-008
-6.760890e-009
2.006891e-010
4.982200e-009
6.098853e-009
3.506890e-009
-1.426739e-009
-6.473558e-009
-9.376569e-009
-8.645613e-009
-4.038957e-009
3.401624e-009
1.172307e-008
1.867125e-008
2.232263e-008
2.155598e-008
1.626633e-008
7.312744e-009
-3.744486e-009
-1.503034e-008
-2.477101e-008
-3.164923e-008
-3.502207e-008
-3.495257e-008
-3.205419e-008
-2.720670e-008
-2.124978e-008
-1.477084e-008
-8.062791e-009
-1.248827e-009
5.508683e-009
1.184014e-008
1.714572e-008
2.074756e-008
2.215492e-008
2.131700e-008
1.873489e-008
1.536430e-008
1.233412e-008
1.058838e-008
1.059184e-008
1.220964e-008
1.479552e-008
1.743854e-008
1.926308e-008
1.967216e-008
1.846442e-008
1.581584e-008
1.216798e-008
8.084733e-009
4.128367e-009
7.768367e-010
-1.621974e-009
-2.873865e-009
-2.948296e-009
-1.970365e-009
-1.841727e-010
2.115504e-009
4.668176e-009
7.317484e-009
1.003165e-008
1.285771e-008
1.582365e-008
1.883155e-008
2.159559e-008
2.366222e-008
2.451344e-008
2.371401e-008
2.104187e-008
1.654895e-008
1.053430e-008
3.454434e-009
-4.176509e-009
-1.184627e-008
-1.904471e-008
-2.522776e-008
-2.979655e-008
-3.214042e-008
-3.175913e-008
-2.843317e-008
-2.237570e-008
-1.429454e-008
-5.320398e-009
3.195013e-009
9.960216e-009
1.402578e-008
1.498769e-008
1.305819e-008
8.990071e-009
3.881254e-009
-1.083844e-009
-4.889366e-009
-6.881764e-009
-6.867395e-009
-5.105845e-009
-2.213247e-009
9.962035e-010
3.696049e-009
5.225253e-009
-1.180070e-008
-8.331944e-009
-2.919712e-009
2.065417e-009
4.463155e-009
3.286178e-009
-8.299548e-010
-5.876018e-009
-9.297696e-009
-9.044301e-009
-4.406032e-009
3.678910e-009
1.293308e-008
2.050729e-008
2.389803e-008
2.169275e-008
1.392767e-008
2.004279e-009
-1.174534e-008
-2.467426e-008
-3.443780e-008
-3.946953e-008
-3.922933e-008
-3.419254e-008
-2.560342e-008
-1.506892e-008
-4.113053e-009
6.171782e-009
1.526910e-008
2.314660e-008
2.999244e-008
3.591690e-008
4.076936e-008
4.416082e-008
4.567613e-008
4.515957e-008
4.291299e-008
3.968242e-008
3.641114e-008
3.385446e-008
3.222699e-008
3.104827e-008
2.926947e-008
2.564196e-008
1.918544e-008
9.575718e-009
-2.687120e-009
-1.637427e-008
-2.982938e-008
-4.135275e-008
-4.954056e-008
-5.349694e-008
-5.290185e-008
-4.797012e-008
-3.935468e-008
-2.803285e-008
-1.518542e-008
-2.057990e-009
1.020332e-008
2.072638e-008
2.905474e-008
3.520234e-008
3.958500e-008
4.283571e-008
4.556048e-008
4.812071e-008
5.052102e-008
5.243744e-008
5.336100e-008
5.278498e-008
5.035460e-008
4.592826e-008
3.955346e-008
3.140578e-008
2.175243e-008
1.097454e-008
-3.655449e-010
-1.146774e-008
-2.131187e-008
-2.878377e-008
-3.289241e-008
-3.301559e-008
-2.909503e-008
-2.171819e-008
-1.206205e-008
-1.711492e-009
7.609841e-009
1.434998e-008
1.743127e-008
1.649268e-008
1.201370e-008
5.264731e-009
-1.946001e-009
-7.705152e-009
-1.051329e-008
-9.738361e-009
-5.839592e-009
-2.526272e-010
5.060402e-009
8.261275e-009
-3.421980e-009
-1.544081e-009
1.054469e-009
2.684518e-009
2.059140e-009
-9.382220e-010
-5.048345e-009
-8.117409e-009
-8.057421e-009
-3.850600e-009
3.857275e-009
1.284075e-008
2.002287e-008
2.254766e-008
1.877655e-008
8.851118e-009
-5.339705e-009
-2.072089e-008
-3.388855e-008
-4.197709e-008
-4.330030e-008
-3.763576e-008
-2.613376e-008
-1.091810e-008
5.497510e-009
2.082298e-008
3.347746e-008
4.282042e-008
4.907509e-008
5.299267e-008
5.540190e-008
5.683362e-008
5.737495e-008
5.680017e-008
5.489003e-008
5.175384e-008
4.796075e-008
4.437732e-008
4.175865e-008
4.027649e-008
3.922078e-008
3.705030e-008
3.181967e-008
2.184168e-008
6.337246e-009
-1.417356e-008
-3.787948e-008
-6.206772e-008
-8.374111e-008
-1.002489e-007
-1.097481e-007
-1.114071e-007
-1.053696e-007
-9.256818e-008
-7.449104e-008
-5.297035e-008
-3.000384e-008
-7.582245e-009
1.250971e-008
2.891960e-008
4.093571e-008
4.860230e-008
5.267478e-008
5.439726e-008
5.515459e-008
5.610659e-008
5.792352e-008
6.070080e-008
6.405530e-008
6.733269e-008
6.982199e-008
7.089299e-008
7.003299e-008
6.682303e-008
6.092610e-008
5.214311e-008
4.053922e-008
2.658745e-008
1.125005e-008
-4.064223e-009
-1.768086e-008
-2.794129e-008
-3.352012e-008
-3.371171e-008
-2.863448e-008
-1.931281e-008
-7.598204e-009
4.102896e-009
1.329692e-008
1.800237e-008
1.733153e-008
1.184758e-008
3.509328e-009
-4.866459e-009
-1.050638e-008
-1.164720e-008
-8.191740e-009
-1.760478e-009
4.925731e-009
9.113971e-009
6.047532e-009
5.582150e-009
4.272669e-009
1.742963e-009
-1.865520e-009
-5.598114e-009
-7.863344e-009
-7.078664e-009
-2.509513e-009
5.116047e-009
1.356457e-008
1.972239e-008
2.067705e-008
1.482977e-008
2.594961e-009
-1.358362e-008
-2.989304e-008
-4.223158e-008
-4.733108e-008
-4.357599e-008
-3.131917e-008
-1.267243e-008
9.107703e-009
3.044154e-008
4.824121e-008
6.053036e-008
6.673284e-008
6.757402e-008
6.464076e-008
5.975046e-008
5.434968e-008
4.915824e-008
4.418049e-008
3.904979e-008
3.351903e-008
2.783461e-008
2.277883e-008
1.932429e-008
1.804338e-008
1.855912e-008
1.933334e-008
1.795317e-008
1.185464e-008
-7.793775e-010
-2.029560e-008
-4.530063e-008
-7.293755e-008
-9.958757e-008
-1.217305e-007
-1.366760e-007
-1.429700e-007
-1.404308e-007
-1.299069e-007
-1.129162e-007
-9.131836e-008
-6.709891e-008
-4.225915e-008
-1.874334e-008
1.675991e-009
1.759195e-008
2.820482e-008
3.352016e-008
3.439778e-008
3.238830e-008
2.937825e-008
2.714864e-008
2.699348e-008
2.951923e-008
3.466536e-008
4.189024e-008
5.040550e-008
5.934503e-008
6.781659e-008
7.486717e-008
7.944947e-008
8.047699e-008
7.700179e-008
6.847637e-008
5.500945e-008
3.751989e-008
1.772672e-008
-2.037841e-009
-1.916912e-008
-3.124208e-008
-3.651693e-008
-3.441060e-008
-2.580454e-008
-1.303723e-008
5.284337e-010
1.134413e-008
1.671971e-008
1.571544e-008
9.501429e-009
9.598810e-010
-6.394304e-009
-9.781991e-009
-8.252740e-009
-3.016144e-009
3.157122e-009
7.214951e-009
1.503301e-008
1.186225e-008
6.235456e-009
-4.624714e-010
-6.353837e-009
-9.471425e-009
-8.375486e-009
-2.809128e-009
5.900356e-009
1.496476e-008
2.087091e-008
2.054603e-008
1.254261e-008
-2.228034e-009
-2.053463e-008
-3.766221e-008
-4.876221e-008
-5.024986e-008
-4.079371e-008
-2.162182e-008
3.879176e-009
3.108094e-008
5.524482e-008
7.256600e-008
8.090125e-008
8.005164e-008
7.157219e-008
5.817890e-008
4.291611e-008
2.832026e-008
1.583449e-008
5.663876e-009
-2.889257e-009
-1.076038e-008
-1.842781e-008
-2.551754e-008
-3.091492e-008
-3.335581e-008
-3.222829e-008
-2.818886e-008
-2.325806e-008
-2.029122e-008
-2.201147e-008
-3.000166e-008
-4.407428e-008
-6.226883e-008
-8.145275e-008
-9.826075e-008
-1.100044e-007
-1.152466e-007
-1.139097e-007
-1.069816e-007
-9.601163e-008
-8.261881e-008
-6.817778e-008
-5.373860e-008
-4.013219e-008
-2.814098e-008
-1.860102e-008
-1.234768e-008
-1.000400e-008
-1.170127e-008
-1.687299e-008
-2.424510e-008
-3.206273e-008
-3.848303e-008
-4.198428e-008
-4.163524e-008
-3.714128e-008
-2.869629e-008
-1.676074e-008
-1.907918e-009
1.517777e-008
3.356870e-008
5.193499e-008
6.849308e-008
8.115108e-008
8.785146e-008
8.702698e-008
7.804336e-008
6.150888e-008
3.936629e-008
1.472004e-008
-8.617123e-009
-2.683185e-008
-3.697206e-008
-3.776296e-008
-3.009895e-008
-1.694988e-008
-2.578612e-009
8.762382e-009
1.421857e-008
1.325249e-008
7.677721e-009
7.530018e-010
-4.288474e-009
-5.619052e-009
-3.476686e-009
1.854929e-010
2.860052e-009
2.206872e-008
1.634988e-008
6.846042e-009
-3.173521e-009
-1.014943e-008
-1.144014e-008
-6.325470e-009
3.551644e-009
1.452993e-008
2.204028e-008
2.217309e-008
1.317660e-008
-3.674881e-009
-2.421360e-008
-4.252307e-008
-5.272294e-008
-5.077999e-008
-3.573433e-008
-9.968240e-009
2.149802e-008
5.237892e-008
7.669740e-008
9.011443e-008
9.072242e-008
7.920274e-008
5.840433e-008
3.249809e-008
5.914812e-009
-1.769420e-008
-3.622516e-008
-4.940734e-008
-5.850757e-008
-6.553672e-008
-7.223680e-008
-7.924673e-008
-8.580598e-008
-9.014515e-008
-9.040367e-008
-8.565279e-008
-7.652726e-008
-6.513881e-008
-5.428774e-008
-4.633385e-008
-4.225442e-008
-4.131794e-008
-4.149639e-008
-4.039147e-008
-3.624058e-008
-2.858287e-008
-1.836669e-008
-7.540289e-009
1.642869e-009
7.318301e-009
8.481927e-009
5.135232e-009
-1.884361e-009
-1.129305e-008
-2.182625e-008
-3.262157e-008
-4.338844e-008
-5.430970e-008
-6.572869e-008
-7.777140e-008
-9.008499e-008
-1.018162e-007
-1.118289e-007
-1.190355e-007
-1.226632e-007
-1.223224e-007
-1.178664e-007
-1.091612e-007
-9.593969e-008
-7.787350e-008
-5.487422e-008
-2.750475e-008
2.693928e-009
3.313560e-008
6.046066e-008
8.110453e-008
9.202754e-008
9.143451e-008
7.932036e-008
5.770610e-008
3.046160e-008
2.664510e-009
-2.045428e-008
-3.477485e-008
-3.840481e-008
-3.223381e-008
-1.963504e-008
-5.324942e-009
6.240813e-009
1.231393e-008
1.255343e-008
8.713985e-009
3.526718e-009
-6.505647e-010
-2.758881e-009
-3.143316e-009
-2.895941e-009
2.599190e-008
1.841726e-008
6.303773e-009
-5.465289e-009
-1.209372e-008
-1.082516e-008
-2.160770e-009
1.015916e-008
2.046134e-008
2.329401e-008
1.564076e-008
-1.658698e-009
-2.386655e-008
-4.375838e-008
-5.400502e-008
-4.966477e-008
-2.989152e-008
1.718703e-009
3.819389e-008
7.121208e-008
9.335516e-008
9.988634e-008
8.961878e-008
6.480163e-008
3.023740e-008
-8.021375e-009
-4.405520e-008
-7.327394e-008
-9.323360e-008
-1.039328e-007
-1.075085e-007
-1.073648e-007
-1.069376e-007
-1.084721e-007
-1.122555e-007
-1.166325e-007
-1.188302e-007
-1.162519e-007
-1.076512e-007
-9.362870e-008
-7.621261e-008
-5.775439e-008
-3.972823e-008
-2.207160e-008
-3.405900e-009
1.799739e-008
4.302187e-008
7.088331e-008
9.904585e-008
1.238557e-007
1.415557e-007
1.492523e-007
1.455342e-007
1.306552e-007
1.063595e-007
7.547158e-008
4.135031e-008
7.277893e-009
-2.412041e-008
-5.128762e-008
-7.384346e-008
-9.234549e-008
-1.078041e-007
-1.211680e-007
-1.330018e-007
-1.434595e-007
-1.524838e-007
-1.600323e-007
-1.661347e-007
-1.707061e-007
-1.732196e-007
-1.724567e-007
-1.665556e-007
-1.534431e-007
-1.315558e-007
-1.006035e-007
-6.209152e-008
-1.939354e-008
2.268098e-008
5.873136e-008
8.383084e-008
9.458752e-008
8.998204e-008
7.178131e-008
4.436522e-008
1.389412e-008
-1.308305e-008
-3.125751e-008
-3.793097e-008
-3.363167e-008
-2.171020e-008
-7.042561e-009
5.658669e-009
1.326628e-008
1.488578e-008
1.160207e-008
5.606404e-009
-7.955839e-010
-5.857174e-009
-8.582936e-009
2.611823e-008
1.780714e-008
4.964363e-009
-6.553350e-009
-1.147745e-008
-7.592574e-009
3.094735e-009
1.504146e-008
2.148018e-008
1.742397e-008
2.102158e-009
-2.023762e-008
-4.157398e-008
-5.297495e-008
-4.797760e-008
-2.516373e-008
1.105805e-008
5.172532e-008
8.610923e-008
1.049456e-007
1.029789e-007
8.007495e-008
4.076476e-008
-7.372702e-009
-5.580754e-008
-9.699466e-008
-1.257478e-007
-1.399221e-007
-1.404465e-007
-1.307974e-007
-1.160033e-007
-1.013128e-007
-9.078069e-008
-8.616032e-008
-8.651952e-008
-8.880641e-008
-8.921549e-008
-8.480015e-008
-7.459080e-008
-5.966754e-008
-4.215786e-008
-2.371887e-008
-4.374678e-009
1.759694e-008
4.462114e-008
7.818038e-008
1.174636e-007
1.590320e-007
1.976517e-007
2.278342e-007
2.453334e-007
2.480034e-007
2.358664e-007
2.106553e-007
1.752391e-007
1.331895e-007
8.847002e-008
4.507267e-008
6.487169e-009
-2.490614e-008
-4.826008e-008
-6.426097e-008
-7.466992e-008
-8.162044e-008
-8.701247e-008
-9.225733e-008
-9.839064e-008
-1.063355e-007
-1.170133e-007
-1.311108e-007
-1.485504e-007
-1.679307e-007
-1.862855e-007
-1.994014e-007
-2.027055e-007
-1.924821e-007
-1.670375e-007
-1.274426e-007
-7.763019e-008
-2.382170e-008
2.657640e-008
6.637631e-008
9.005418e-008
9.496755e-008
8.206672e-008
5.584827e-008
2.342189e-008
-7.193213e-009
-2.912589e-008
-3.843588e-008
-3.501197e-008
-2.226498e-008
-5.744340e-009
8.790323e-009
1.714357e-008
1.773484e-008
1.169018e-008
2.103280e-009
-7.168863e-009
-1.275839e-008
2.238027e-008
1.467083e-008
3.232396e-009
-6.004284e-009
-8.230894e-009
-2.366901e-009
8.119247e-009
1.666514e-008
1.675831e-008
5.347326e-009
-1.509704e-008
-3.693773e-008
-5.015041e-008
-4.643417e-008
-2.293065e-008
1.604489e-008
6.002514e-008
9.577367e-008
1.116816e-007
1.014899e-007
6.603273e-008
1.258052e-008
-4.769670e-008
-1.030307e-007
-1.439566e-007
-1.650601e-007
-1.654019e-007
-1.479124e-007
-1.182186e-007
-8.326827e-008
-4.993038e-008
-2.366107e-008
-7.394646e-009
-9.656478e-010
-1.394525e-009
-4.139023e-009
-4.965308e-009
-1.668869e-009
5.213227e-009
1.314710e-008
1.948861e-008
2.349934e-008
2.730398e-008
3.512722e-008
5.112063e-008
7.693734e-008
1.104032e-007
1.460297e-007
1.770769e-007
1.980421e-007
2.063101e-007
2.023037e-007
1.883836e-007
1.673901e-007
1.417248e-007
1.133240e-007
8.419973e-008
5.687420e-008
3.420774e-008
1.862679e-008
1.122689e-008
1.132942e-008
1.677514e-008
2.476774e-008
3.275955e-008
3.889373e-008
4.184236e-008
4.028321e-008
3.248814e-008
1.642854e-008
-9.505725e-009
-4.544544e-008
-8.913865e-008
-1.356858e-007
-1.781498e-007
-2.089316e-007
-2.215175e-007
-2.120876e-007
-1.805571e-007
-1.308207e-007
-7.018700e-008
-8.132184e-009
4.542625e-008
8.208231e-008
9.678347e-008
8.912132e-008
6.361058e-008
2.866912e-008
-5.601159e-009
-3.025572e-008
-4.005761e-008
-3.483083e-008
-1.911037e-008
-2.212422e-010
1.448284e-008
2.019077e-008
1.609880e-008
5.308967e-009
-6.701624e-009
-1.439716e-008
1.538045e-008
9.570680e-009
1.504120e-009
-3.802783e-009
-2.910072e-009
3.743850e-009
1.163329e-008
1.432006e-008
7.035534e-009
-1.013257e-008
-3.119503e-008
-4.615242e-008
-4.520610e-008
-2.348236e-008
1.591052e-008
6.201770e-008
9.949910e-008
1.140727e-007
9.772982e-008
5.164644e-008
-1.424521e-008
-8.464702e-008
-1.437370e-007
-1.795830e-007
-1.867065e-007
-1.663321e-007
-1.248078e-007
-7.119632e-008
-1.498086e-008
3.561273e-008
7.466443e-008
9.918574e-008
1.094145e-007
1.086013e-007
1.019998e-007
9.502848e-008
9.111090e-008
9.016741e-008
8.870117e-008
8.173835e-008
6.583485e-008
4.157679e-008
1.406177e-008
-9.140267e-009
-2.160259e-008
-2.128521e-008
-1.156789e-008
5.421617e-010
8.023049e-009
7.242395e-009
-6.792589e-010
-1.110938e-008
-1.878664e-008
-2.054177e-008
-1.635293e-008
-8.397195e-009
1.004864e-009
1.111138e-008
2.311139e-008
3.906120e-008
6.025264e-008
8.611680e-008
1.143039e-007
1.417731e-007
1.661121e-007
1.862352e-007
2.020612e-007
2.134249e-007
2.189336e-007
2.155156e-007
1.990388e-007
1.658362e-007
1.145394e-007
4.746561e-008
-2.901556e-008
-1.053248e-007
-1.704919e-007
-2.144339e-007
-2.301106e-007
-2.150915e-007
-1.722645e-007
-1.095730e-007
-3.876444e-008
2.677852e-008
7.486232e-008
9.741223e-008
9.267881e-008
6.585764e-008
2.762585e-008
-9.172155e-009
-3.365738e-008
-4.036686e-008
-3.067919e-008
-1.164756e-008
7.258691e-009
1.812966e-008
1.765703e-008
8.031657e-009
-4.566335e-009
-1.311793e-008
6.309122e-009
3.410429e-009
1.393120e-010
-2.918289e-010
3.488854e-009
9.445949e-009
1.270648e-008
8.236424e-009
-5.700362e-009
-2.527845e-008
-4.161187e-008
-4.425580e-008
-2.633475e-008
1.111884e-008
5.790973e-008
9.749822e-008
1.129936e-007
9.387729e-008
4.057939e-008
-3.506078e-008
-1.136189e-007
-1.745456e-007
-2.026225e-007
-1.920140e-007
-1.467533e-007
-7.808145e-008
-2.034557e-010
7.371157e-008
1.340496e-007
1.755514e-007
1.969589e-007
2.002886e-007
1.901429e-007
1.728928e-007
1.552965e-007
1.424356e-007
1.355715e-007
1.311136e-007
1.217420e-007
9.972460e-008
6.107998e-008
8.380554e-009
-4.961966e-008
-1.017215e-007
-1.395844e-007
-1.616983e-007
-1.737071e-007
-1.848025e-007
-2.022006e-007
-2.268457e-007
-2.527476e-007
-2.701990e-007
-2.708837e-007
-2.519278e-007
-2.167625e-007
-1.726679e-007
-1.267517e-007
-8.279483e-008
-4.057737e-008
2.352597e-009
4.792123e-008
9.560933e-008
1.424450e-007
1.846964e-007
2.200524e-007
2.488958e-007
2.739045e-007
2.981939e-007
3.229828e-007
3.459661e-007
3.612016e-007
3.606258e-007
3.366533e-007
2.849377e-007
2.063769e-007
1.077554e-007
8.744506e-010
-9.956257e-008
-1.787907e-007
-2.249622e-007
-2.317251e-007
-1.999177e-007
-1.379379e-007
-6.042870e-008
1.478801e-008
7.106536e-008
9.746017e-008
9.190681e-008
6.168024e-008
2.067005e-008
-1.571712e-008
-3.609945e-008
-3.686099e-008
-2.256674e-008
-2.994813e-009
1.175334e-008
1.577891e-008
9.525324e-009
-1.287242e-009
-9.206999e-009
-3.283233e-009
-2.723099e-009
-5.673312e-010
3.961253e-009
9.805949e-009
1.358245e-008
1.095262e-008
-5.594642e-010
-1.886467e-008
-3.659055e-008
-4.340556e-008
-3.082822e-008
2.609188e-009
4.858550e-008
9.052755e-008
1.094180e-007
9.166878e-008
3.562057e-008
-4.638251e-008
-1.314987e-007
-1.941468e-007
-2.148201e-007
-1.863939e-007
-1.156201e-007
-1.968648e-008
8.023895e-008