# vtk DataFile Version 3.0
vtk output
ASCII
DATASET STRUCTURED_POINTS
DIMENSIONS 100 100 1
SPACING 1 1 1
ORIGIN 0 0 0
POINT_DATA 10000
SCALARS SFBox_profile double
LOOKUP_TABLE default 
0.000000e+000
0.000000e+000
0.000000e+000
0.000000e+000
0.000000e+000
0.000000e+000
0.000000e+000
0.000000e+000
0.000000e+000
0.000000e+000
0.000000e+000
0.000000e+000
0.000000e+000
0.000000e+000
0.000000e+000
0.000000e+000
0.000000e+000
0.000000e+000
0.000000e+000
0.000000e+000
0.000000e+000
0.000000e+000
0.000000e+000
0.000000e+000
0.000000e+000
0.000000e+000
0.000000e+000
0.000000e+000
0.000000e+000
0.000000e+000
0.000000e+000
0.000000e+000
0.000000e+000
0.000000e+000
0.000000e+000
0.000000e+000
0.000000e+000
0.000000e+000
0.000000e+000
0.000000e+000
0.000000e+000
0.000000e+000
0.000000e+000
0.000000e+000
0.000000e+000
0.000000e+000
0.000000e+000
0.000000e+000
0.000000e+000
0.000000e+000
0.000000e+000
0.000000e+000
0.000000e+000
0.000000e+000
0.000000e+000
0.000000e+000
0.000000e+000
0.000000e+000
0.000000e+000
0.000000e+000
0.000000e+000
0.000000e+000
0.000000e+000
0.000000e+000
0.000000e+000
0.000000e+000
0.000000e+000
0.000000e+000
0.000000e+000
0.000000e+000
0.000000e+000
0.000000e+000
0.000000e+000
0.000000e+000
0.000000e+000
0.000000e+000
0.000000e+000
0.000000e+000
0.000000e+000
0.000000e+000
0.000000e+000
0.000000e+000
0.000000e+000
0.000000e+000
0.000000e+000
0.000000e+000
0.000000e+000
0.000000e+000
0.000000e+000
0.000000e+000
0.000000e+000
0.000000e+000
0.000000e+000
0.000000e+000
0.000000e+000
0.000000e+000
0.000000e+000
0.000000e+000
0.000000e+000
0.000000e+000
9.811857e-009
3.501833e-009
-4.372211e-009
-8.738404e-009
-7.150581e-009
-1.022816e-009
5.523872e-009
8.414793e-009
6.170223e-009
5.973636e-010
-4.722291e-009
-6.938708e-009
-5.584163e-009
-2.312983e-009
7.630437e-010
2.614943e-009
3.528901e-009
4.154494e-009
4.516407e-009
3.974133e-009
2.040143e-009
-8.940712e-010
-3.700878e-009
-5.366176e-009
-5.689612e-009
-5.203103e-009
-4.500929e-009
-3.709095e-009
-2.565652e-009
-8.996521e-010
1.064283e-009
2.869195e-009
4.217392e-009
5.154784e-009
5.900151e-009
6.561741e-009
7.051020e-009
7.235756e-009
7.115866e-009
6.827605e-009
6.506041e-009
6.181367e-009
5.809709e-009
5.370604e-009
4.906622e-009
4.476108e-009
4.097406e-009
3.754356e-009
3.440793e-009
3.175246e-009
2.969809e-009
2.807601e-009
2.671041e-009
2.584576e-009
2.602505e-009
2.741411e-009
2.943055e-009
3.133025e-009
3.318551e-009
3.596396e-009
4.033092e-009
4.546634e-009
4.949820e-009
5.137385e-009
5.203964e-009
5.322971e-009
5.491517e-009
5.443068e-009
4.878724e-009
3.796289e-009
2.533525e-009
1.428244e-009
4.521051e-010
-7.359178e-010
-2.310759e-009
-3.886382e-009
-4.698036e-009
-4.258332e-009
-2.832375e-009
-1.208835e-009
2.718999e-011
9.578188e-010
2.020673e-009
3.243826e-009
3.889030e-009
3.002390e-009
4.356273e-010
-2.660952e-009
-4.464546e-009
-3.801240e-009
-1.076834e-009
1.965503e-009
3.469875e-009
2.714176e-009
4.752725e-010
-1.646473e-009
-2.348284e-009
-1.395414e-009
3.787713e-010
1.709381e-009
1.442553e-009
6.646731e-010
-3.975691e-010
-1.132484e-009
-1.107872e-009
-3.574165e-010
5.780579e-010
9.931566e-010
5.638607e-010
-3.426475e-010
-9.203899e-010
-5.963106e-010
4.405258e-010
1.349364e-009
1.332647e-009
3.132079e-010
-1.012590e-009
-1.780569e-009
-1.651844e-009
-9.711219e-010
-3.124725e-010
8.203200e-011
4.214121e-010
9.950093e-010
1.762784e-009
2.345580e-009
2.391339e-009
1.902978e-009
1.195509e-009
5.686344e-010
6.055342e-011
-4.869023e-010
-1.176709e-009
-1.915018e-009
-2.509966e-009
-2.865424e-009
-3.048742e-009
-3.183995e-009
-3.315807e-009
-3.391576e-009
-3.353438e-009
-3.215364e-009
-3.044434e-009
-2.888921e-009
-2.745235e-009
-2.590089e-009
-2.422616e-009
-2.263330e-009
-2.123980e-009
-1.998175e-009
-1.884504e-009
-1.802021e-009
-1.768156e-009
-1.767849e-009
-1.764884e-009
-1.752288e-009
-1.775827e-009
-1.885402e-009
-2.062409e-009
-2.219171e-009
-2.290730e-009
-2.316847e-009
-2.400908e-009
-2.571785e-009
-2.709442e-009
-2.645783e-009
-2.347925e-009
-1.968089e-009
-1.675147e-009
-1.443632e-009
-1.058368e-009
-3.663791e-010
4.916910e-010
1.153340e-009
1.368214e-009
1.240533e-009
1.097175e-009
1.106623e-009
1.071641e-009
6.525175e-010
-1.953220e-010
-1.049215e-009
-1.339430e-009
-8.718650e-010
-3.263751e-011
5.401413e-010
5.052603e-010
6.891833e-011
-2.723880e-010
-2.130545e-010
1.214250e-010
3.625901e-010
2.801034e-010
-2.625785e-011
-2.716032e-010
-2.759320e-010
-1.016789e-010
6.240912e-011
1.087502e-010
8.513237e-011
-8.376455e-009
-2.757875e-009
4.070219e-009
7.568702e-009
5.841694e-009
4.725189e-010
-4.902349e-009
-7.104506e-009
-5.256534e-009
-8.840144e-010
3.460766e-009
5.844895e-009
5.750711e-009
3.785806e-009
9.115518e-010
-2.072615e-009
-4.563085e-009
-6.014840e-009
-5.996664e-009
-4.439600e-009
-1.778166e-009
1.227450e-009
3.865371e-009
5.733518e-009
6.726675e-009
6.867417e-009
6.200571e-009
4.824208e-009
2.946404e-009
8.476224e-010
-1.231331e-009
-3.158873e-009
-4.879396e-009
-6.338801e-009
-7.464185e-009
-8.211015e-009
-8.606407e-009
-8.730107e-009
-8.655737e-009
-8.418247e-009
-8.033805e-009
-7.535239e-009
-6.977103e-009
-6.410050e-009
-5.860208e-009
-5.335015e-009
-4.840734e-009
-4.388040e-009
-3.985437e-009
-3.637403e-009
-3.351798e-009
-3.142146e-009
-3.016589e-009
-2.968633e-009
-2.987899e-009
-3.081390e-009
-3.274373e-009
-3.581001e-009
-3.977130e-009
-4.413455e-009
-4.859140e-009
-5.321389e-009
-5.808767e-009
-6.277040e-009
-6.627066e-009
-6.766210e-009
-6.663195e-009
-6.327624e-009
-5.739156e-009
-4.823477e-009
-3.523355e-009
-1.893175e-009
-1.055434e-010
1.639669e-009
3.190840e-009
4.410701e-009
5.091397e-009
4.972514e-009
3.913897e-009
2.076377e-009
-8.797131e-011
-2.051135e-009
-3.426435e-009
-3.996576e-009
-3.607802e-009
-2.172699e-009
1.041227e-010
2.499208e-009
3.916091e-009
3.500858e-009
1.331947e-009
-1.424453e-009
-3.158697e-009
-2.876346e-009
-8.944969e-010
1.371392e-009
2.398205e-009
1.607801e-009
-2.719134e-010
-1.776285e-009
-1.144409e-008
-4.003265e-009
5.125203e-009
9.940422e-009
7.827530e-009
8.176946e-010
-6.164843e-009
-8.747420e-009
-5.858075e-009
8.940959e-012
4.942460e-009
6.387817e-009
4.489694e-009
1.286103e-009
-1.214589e-009
-2.356232e-009
-2.675893e-009
-2.819793e-009
-2.771787e-009
-2.057830e-009
-4.999365e-010
1.386056e-009
2.752049e-009
3.108631e-009
2.636682e-009
1.882536e-009
1.230894e-009
6.832939e-010
6.237581e-011
-6.759788e-010
-1.365491e-009
-1.807026e-009
-1.955458e-009
-1.920473e-009
-1.824608e-009
-1.696814e-009
-1.496437e-009
-1.202821e-009
-8.562926e-010
-5.197902e-010
-2.233251e-010
4.505875e-011
3.047348e-010
5.526646e-010
7.685718e-010
9.401805e-010
1.075812e-009
1.192622e-009
1.297315e-009
1.381518e-009
1.435214e-009
1.461102e-009
1.471957e-009
1.473012e-009
1.451017e-009
1.386810e-009
1.279697e-009
1.151901e-009
1.020442e-009
8.673545e-010
6.521090e-010
3.631980e-010
4.742436e-011
-2.330855e-010
-4.780136e-010
-7.595043e-010
-1.126966e-009
-1.503791e-009
-1.717040e-009
-1.662165e-009
-1.422739e-009
-1.176231e-009
-9.581233e-010
-5.654222e-010
2.272849e-010
1.327035e-009
2.253518e-009
2.497906e-009
1.983973e-009
1.129119e-009
3.963251e-010
-1.909734e-010
-9.952726e-010
-2.162115e-009
-3.123651e-009
-2.871707e-009
-9.084040e-010
1.998735e-009
4.095433e-009
3.888870e-009
1.367307e-009
-1.867291e-009
-3.717999e-009
-3.088054e-009
-6.007268e-010
1.941645e-009
2.867778e-009
1.734056e-009
-4.974829e-010
-2.204191e-009
-4.998857e-009
-1.998128e-009
1.794469e-009
3.953782e-009
3.260728e-009
4.494268e-010
-2.297148e-009
-2.921991e-009
-1.071678e-009
1.591757e-009
2.718368e-009
1.225960e-009
-1.763781e-009
-3.843583e-009
-3.307629e-009
-4.781244e-010
2.720652e-009
4.422348e-009
4.154480e-009
2.769500e-009
1.310789e-009
6.812427e-011
-1.335367e-009
-3.146049e-009
-4.950994e-009
-5.960173e-009
-5.716075e-009
-4.452846e-009
-2.791623e-009
-1.172627e-009
3.863395e-010
2.055912e-009
3.841724e-009
5.506635e-009
6.789982e-009
7.630754e-009
8.160879e-009
8.525004e-009
8.749509e-009
8.778989e-009
8.594721e-009
8.264931e-009
7.887204e-009
7.510142e-009
7.124083e-009
6.714260e-009
6.301503e-009
5.925857e-009
5.604655e-009
5.323265e-009
5.068887e-009
4.860277e-009
4.731354e-009
4.687985e-009
4.697313e-009
4.732109e-009
4.817528e-009
5.010986e-009
5.323377e-009
5.676128e-009
5.965156e-009
6.173093e-009
6.386760e-009
6.667320e-009
6.908941e-009
6.876578e-009
6.424793e-009
5.659335e-009
4.820197e-009
3.978636e-009
2.906700e-009
1.337412e-009
-6.203756e-010
-2.399905e-009
-3.405129e-009
-3.540606e-009
-3.246886e-009
-2.951982e-009
-2.535915e-009
-1.468373e-009
4.405514e-010
2.487647e-009
3.438743e-009
2.591985e-009
5.232564e-010
-1.286635e-009
-1.666735e-009
-6.942269e-010
5.005340e-010
8.240094e-010
1.482397e-010
-7.354013e-010
-9.654516e-010
-3.802028e-010
4.649459e-010
9.030280e-010
7.148691e-010
1.664441e-010
-3.521283e-010
-6.290169e-010
5.952393e-009
1.697616e-009
-3.236330e-009
-5.429507e-009
-3.867217e-009
-1.117884e-010
3.323616e-009
4.777782e-009
4.051065e-009
1.818329e-009
-1.129817e-009
-4.026390e-009
-5.876741e-009
-5.596321e-009
-2.778098e-009
1.620893e-009
5.569772e-009
7.231652e-009
6.171748e-009
3.442482e-009
5.429180e-010
-1.707656e-009
-3.388021e-009
-4.807476e-009
-5.836071e-009
-5.955896e-009
-4.867946e-009
-2.902152e-009
-7.784791e-010
9.826606e-010
2.366619e-009
3.635583e-009
4.902511e-009
5.985105e-009
6.631932e-009
6.802768e-009
6.690203e-009
6.506287e-009
6.302703e-009
6.001718e-009
5.553449e-009
5.019685e-009
4.509941e-009
4.074489e-009
3.683773e-009
3.298074e-009
2.926771e-009
2.609182e-009
2.357120e-009
2.142111e-009
1.942535e-009
1.782493e-009
1.704351e-009
1.708080e-009
1.743263e-009
1.777300e-009
1.856507e-009
2.067306e-009
2.425094e-009
2.828555e-009
3.161074e-009
3.437239e-009
3.803572e-009
4.353199e-009
4.955931e-009
5.333213e-009
5.335817e-009
5.106831e-009
4.896207e-009
4.699436e-009
4.156419e-009
2.900846e-009
1.018591e-009
-9.195091e-010
-2.346240e-009
-3.188438e-009
-3.783476e-009
-4.285179e-009
-4.257843e-009
-3.018830e-009
-4.623939e-010
2.510262e-009
4.495820e-009
4.613146e-009
3.088281e-009
9.045168e-010
-1.027544e-009
-2.327703e-009
-2.924099e-009
-2.655333e-009
-1.337642e-009
7.316714e-010
2.529118e-009
2.856792e-009
1.361056e-009
-9.568273e-010
-2.380326e-009
-1.848490e-009
1.233956e-010
1.837804e-009
1.264484e-008
4.070119e-009
-5.986965e-009
-1.058882e-008
-7.519326e-009
-2.482043e-011
6.303110e-009
7.726950e-009
4.463308e-009
-4.196906e-010
-3.793268e-009
-4.471635e-009
-3.180996e-009
-1.223855e-009
5.871325e-010
1.954690e-009
2.609757e-009
2.210370e-009
7.757670e-010
-1.003173e-009
-2.125359e-009
-2.036670e-009
-1.004697e-009
2.556708e-010
1.260150e-009
2.023237e-009
2.736550e-009
3.339277e-009
3.502749e-009
3.000617e-009
1.989246e-009
8.733639e-010
-6.447128e-011
-8.492833e-010
-1.650631e-009
-2.509805e-009
-3.273945e-009
-3.771201e-009
-3.989574e-009
-4.060635e-009
-4.100967e-009
-4.110758e-009
-4.025895e-009
-3.829191e-009
-3.579929e-009
-3.345070e-009
-3.135287e-009
-2.923604e-009
-2.707422e-009
-2.523547e-009
-2.398767e-009
-2.310883e-009
-2.221958e-009
-2.143099e-009
-2.136524e-009
-2.236850e-009
-2.389211e-009
-2.499168e-009
-2.550277e-009
-2.638280e-009
-2.852355e-009
-3.130200e-009
-3.278726e-009
-3.169818e-009
-2.887976e-009
-2.627148e-009
-2.428401e-009
-2.077323e-009
-1.328434e-009
-2.287713e-010
8.503263e-010
1.551169e-009
1.863641e-009
2.050150e-009
2.233583e-009
2.154944e-009
1.445256e-009
1.425571e-010
-1.155607e-009
-1.737589e-009
-1.372606e-009
-4.281801e-010
5.640941e-010
1.340764e-009
1.845097e-009
1.861214e-009
9.799339e-010
-8.612961e-010
-2.839596e-009
-3.520097e-009
-1.994207e-009
1.083301e-009
3.669549e-009
3.814479e-009
1.284116e-009
-2.102417e-009
-3.813572e-009
-2.583516e-009
5.780899e-010
3.172568e-009
9.647757e-009
3.134049e-009
-4.394566e-009
-7.575034e-009
-4.852932e-009
8.554268e-010
4.803105e-009
4.194867e-009
1.502903e-010
-3.572455e-009
-3.840424e-009
-5.922491e-010
3.447697e-009
5.233973e-009
3.726949e-009
2.253598e-010
-3.132626e-009
-5.017609e-009
-5.326606e-009
-4.483868e-009
-2.734910e-009
-1.680609e-010
2.843423e-009
5.524977e-009
7.130102e-009
7.425792e-009
6.707474e-009
5.396949e-009
3.713398e-009
1.722528e-009
-4.227405e-010
-2.416214e-009
-3.986749e-009
-5.086129e-009
-5.846559e-009
-6.378947e-009
-6.660414e-009
-6.618961e-009
-6.277107e-009
-5.770289e-009
-5.233084e-009
-4.703022e-009
-4.146752e-009
-3.552746e-009
-2.968245e-009
-2.449316e-009
-2.005289e-009
-1.610746e-009
-1.257786e-009
-9.703878e-010
-7.640102e-010
-6.156271e-010
-4.957913e-010
-4.223068e-010
-4.537594e-010
-6.172917e-010
-8.634250e-010
-1.121124e-009
-1.395830e-009
-1.778558e-009
-2.332145e-009
-2.985654e-009
-3.581721e-009
-4.037845e-009
-4.420631e-009
-4.817979e-009
-5.151034e-009
-5.172499e-009
-4.685779e-009
-3.732383e-009
-2.510690e-009
-1.125163e-009
4.940841e-010
2.357019e-009
4.144757e-009
5.291590e-009
5.401622e-009
4.545997e-009
3.094758e-009
1.312222e-009
-7.307481e-010
-2.775486e-009
-4.062609e-009
-3.703829e-009
-1.584715e-009
1.141458e-009
2.707966e-009
2.142334e-009
1.408137e-010
-1.496168e-009
-1.419032e-009
1.389046e-010
1.661214e-009
1.741049e-009
2.759961e-010
-1.530811e-009
-2.232709e-009
-1.287034e-009
5.977720e-010
2.054389e-009
-8.044633e-010
-3.330903e-010
3.287433e-010
9.791485e-010
1.473962e-009
1.445933e-009
3.489530e-010
-1.865018e-009
-4.078284e-009
-4.388959e-009
-1.659256e-009
3.073438e-009
6.888597e-009
7.077147e-009
3.313238e-009
-2.062349e-009
-5.902217e-009
-6.546931e-009
-4.595289e-009
-1.799844e-009
5.453560e-010
2.216563e-009
3.478933e-009
4.315231e-009
4.363262e-009
3.445832e-009
1.926369e-009
4.646350e-010
-4.998649e-010
-9.632022e-010
-1.131517e-009
-1.108778e-009
-8.460100e-010
-3.150466e-010
3.733980e-010
1.046906e-009
1.613708e-009
2.088659e-009
2.500033e-009
2.817925e-009
2.986831e-009
2.998040e-009
2.900714e-009
2.747368e-009
2.552608e-009
2.310986e-009
2.034924e-009
1.756810e-009
1.500881e-009
1.273337e-009
1.084325e-009
9.614041e-010
9.253591e-010
9.611265e-010
1.034182e-009
1.139999e-009
1.316221e-009
1.586842e-009
1.904775e-009
2.177796e-009
2.357988e-009
2.477507e-009
2.569820e-009
2.573561e-009
2.363077e-009
1.893587e-009
1.277529e-009
6.710828e-010
1.034715e-010
-5.056850e-010
-1.121725e-009
-1.455177e-009
-1.161097e-009
-2.149602e-010
9.880058e-010
1.990326e-009
2.689084e-009
3.266538e-009
3.663363e-009
3.284310e-009
1.492894e-009
-1.472290e-009
-4.203342e-009
-5.014967e-009
-3.336263e-009
-2.636498e-010
2.310894e-009
3.172056e-009
2.478564e-009
1.192716e-009
5.105885e-011
-8.186259e-010
-1.456666e-009
-1.610710e-009
-9.531026e-010
3.052328e-010
1.291411e-009
1.188906e-009
9.910414e-011
-9.462830e-010
-1.077252e-008
-3.401624e-009
4.966583e-009
8.493986e-009
5.901984e-009
3.270845e-010
-4.048304e-009
-5.166994e-009
-3.630837e-009
-1.089584e-009
1.294561e-009
2.979592e-009
3.443610e-009
2.199922e-009
-4.144329e-010
-2.854694e-009
-3.292986e-009
-1.187797e-009
2.101533e-009
4.381448e-009
4.372698e-009
2.492970e-009
1.108341e-010
-1.754582e-009
-2.975235e-009
-3.822403e-009
-4.271393e-009
-3.933150e-009
-2.557283e-009
-4.136903e-010
1.881807e-009
3.841596e-009
5.348610e-009
6.492828e-009
7.291054e-009
7.619586e-009
7.365537e-009
6.561033e-009
5.349626e-009
3.863077e-009
2.163482e-009
2.865434e-010
-1.701478e-009
-3.706061e-009
-5.645564e-009
-7.472355e-009
-9.158364e-009
-1.067447e-008
-1.198515e-008
-1.305165e-008
-1.383508e-008
-1.430490e-008
-1.445102e-008
-1.427986e-008
-1.378803e-008
-1.294648e-008
-1.173058e-008
-1.017198e-008
-8.362138e-009
-6.386696e-009
-4.271601e-009
-2.030465e-009
2.270132e-010
2.276727e-009
3.917367e-009
5.115198e-009
5.951463e-009
6.399893e-009
6.224102e-009
5.200004e-009
3.461604e-009
1.533821e-009
-7.189233e-011
-1.267021e-009
-2.278156e-009
-3.099205e-009
-3.201365e-009
-2.007642e-009
2.737610e-010
2.441928e-009
3.150418e-009
2.064174e-009
1.400074e-010
-1.270907e-009
-1.546816e-009
-1.014072e-009
-2.280169e-010
6.569559e-010
1.653170e-009
2.298017e-009
1.706476e-009
-4.154011e-010
-2.903441e-009
-3.704863e-009
-1.720534e-009
1.826725e-009
4.099516e-009
3.072437e-009
-5.193378e-010
-3.658267e-009
-1.306347e-008
-3.533497e-009
6.722760e-009
9.883271e-009
4.980742e-009
-2.493293e-009
-6.101639e-009
-3.809890e-009
1.233802e-009
4.323023e-009
3.318454e-009
-2.959399e-010
-3.546963e-009
-4.595843e-009
-3.483290e-009
-1.103289e-009
1.831226e-009
4.744431e-009
6.696995e-009
6.583041e-009
4.075747e-009
2.130118e-010
-3.206334e-009
-4.909550e-009
-4.863299e-009
-3.835828e-009
-2.463720e-009
-8.476147e-010
1.074487e-009
3.018242e-009
4.361144e-009
4.602811e-009
3.701653e-009
1.941302e-009
-4.463851e-010
-3.461669e-009
-7.189729e-009
-1.157554e-008
-1.639046e-008
-2.138395e-008
-2.641592e-008
-3.144022e-008
-3.640342e-008
-4.119305e-008
-4.567597e-008
-4.975994e-008
-5.340622e-008
-5.659150e-008
-5.926756e-008
-6.135755e-008
-6.278694e-008
-6.351637e-008
-6.354105e-008
-6.285286e-008
-6.140629e-008
-5.914010e-008
-5.604938e-008
-5.222916e-008
-4.782163e-008
-4.291468e-008
-3.752605e-008
-3.172455e-008
-2.575251e-008
-1.996412e-008
-1.460175e-008
-9.671461e-009
-5.113715e-009
-1.102260e-009
1.920372e-009
3.598662e-009
4.036264e-009
3.707432e-009
2.953671e-009
1.674295e-009
-3.315720e-010
-2.709491e-009
-4.415642e-009
-4.435723e-009
-2.683230e-009
-1.049052e-010
2.130923e-009
3.460290e-009
3.911379e-009
3.492400e-009
1.981000e-009
-4.670959e-010
-2.720980e-009
-3.193673e-009
-1.333303e-009
1.450613e-009
2.722185e-009
1.233210e-009
-1.713996e-009
-3.289598e-009
-1.766730e-009
1.721917e-009
4.074328e-009
3.029292e-009
-6.965216e-010
-3.958658e-009
-6.653316e-009
-8.105038e-010
4.792160e-009
5.046365e-009
1.796486e-010
-4.842786e-009
-5.067979e-009
-7.148083e-011
5.770484e-009
7.310286e-009
3.142607e-009
-3.430873e-009
-7.521812e-009
-6.689826e-009
-2.318893e-009
2.306508e-009
4.837337e-009
5.003516e-009
3.726630e-009
1.838442e-009
-1.993979e-010
-1.816401e-009
-2.206870e-009
-9.323294e-010
1.503179e-009
3.899816e-009
5.226859e-009
5.190408e-009
3.998324e-009
1.750826e-009
-1.797097e-009
-6.923330e-009
-1.356127e-008
-2.132882e-008
-2.988122e-008
-3.914284e-008
-4.918421e-008
-5.994837e-008
-7.115854e-008
-8.247213e-008
-9.366463e-008
-1.046433e-007
-1.153212e-007
-1.255252e-007
-1.350313e-007
-1.436612e-007
-1.513206e-007
-1.579485e-007
-1.634454e-007
-1.676629e-007
-1.704589e-007
-1.717523e-007
-1.715126e-007
-1.696953e-007
-1.662054e-007
-1.609560e-007
-1.539751e-007
-1.454398e-007
-1.355799e-007
-1.245569e-007
-1.124847e-007
-9.959799e-008
-8.635965e-008
-7.332021e-008
-6.083668e-008
-4.897711e-008
-3.775995e-008
-2.745559e-008
-1.854398e-008
-1.131978e-008
-5.620452e-009
-1.073545e-009
2.376259e-009
4.324820e-009
4.420358e-009
2.987045e-009
1.005449e-009
-5.731928e-010
-1.392528e-009
-1.516288e-009
-8.805706e-010
7.281947e-010
2.986837e-009
4.588087e-009
3.989694e-009
9.481502e-010
-2.775735e-009
-4.595684e-009
-3.287790e-009
-9.914639e-011
2.364248e-009
2.426952e-009
6.406744e-010
-1.017363e-009
-1.091225e-009
1.585005e-010
1.267179e-009
1.073323e-009
-2.504194e-010
-1.469133e-009
3.265038e-009
2.222124e-009
3.205366e-010
-2.028716e-009
-3.888744e-009
-3.950193e-009
-1.480350e-009
2.539249e-009
5.464893e-009
4.848925e-009
7.562463e-010
-3.813403e-009
-5.244696e-009
-2.443722e-009
2.184646e-009
4.889951e-009
3.777076e-009
8.510825e-011
-3.321307e-009
-4.413880e-009
-3.086423e-009
-3.875409e-010
2.710045e-009
5.653506e-009
7.853075e-009
8.417950e-009
6.553825e-009
2.082420e-009
-4.613601e-009
-1.315817e-008
-2.359094e-008
-3.621209e-008
-5.115674e-008
-6.823560e-008
-8.715747e-008
-1.077757e-007
-1.300411e-007
-1.537566e-007
-1.784592e-007
-2.035626e-007
-2.285747e-007
-2.531548e-007
-2.769958e-007
-2.997135e-007
-3.208757e-007
-3.401168e-007
-3.571924e-007
-3.719175e-007
-3.840704e-007
-3.933725e-007
-3.995576e-007
-4.024411e-007
-4.019034e-007
-3.978120e-007
-3.899949e-007
-3.783298e-007
-3.628788e-007
-3.439164e-007
-3.218165e-007
-2.969422e-007
-2.697050e-007
-2.407475e-007
-2.110047e-007
-1.814918e-007
-1.529983e-007
-1.260176e-007
-1.009773e-007
-7.843309e-008
-5.890359e-008
-4.249163e-008
-2.879204e-008
-1.730295e-008
-7.919617e-009
-9.224276e-010
3.531316e-009
5.759472e-009
6.290928e-009
5.379981e-009
3.080423e-009
-6.074263e-011
-2.624606e-009
-3.077523e-009
-1.161911e-009
1.581252e-009
2.966745e-009
2.022052e-009
-2.719903e-010
-2.037671e-009
-2.176641e-009
-1.008346e-009
4.597602e-010
1.509726e-009
1.903490e-009
1.510880e-009
2.699075e-010
-1.359678e-009
-2.283337e-009
-1.588240e-009
4.008418e-010
2.125540e-009
1.005312e-008
2.955231e-009
-4.573146e-009
-6.944555e-009
-3.855800e-009
7.861509e-010
3.149796e-009
2.416850e-009
2.366269e-010
-1.546307e-009
-2.123255e-009
-1.345454e-009
7.482238e-010
3.513053e-009
5.293180e-009
4.317389e-009
4.566026e-010
-4.094608e-009
-6.299626e-009
-4.684591e-009
-3.790609e-010
4.046611e-009
6.564235e-009
6.576996e-009
4.285495e-009
-3.184982e-010
-7.690726e-009
-1.827807e-008
-3.221587e-008
-4.959132e-008
-7.083844e-008
-9.668927e-008
-1.277151e-007
-1.639767e-007
-2.050964e-007
-2.505373e-007
-2.997099e-007
-3.518464e-007
-4.059041e-007
-4.606912e-007
-5.151040e-007
-5.682375e-007
-6.193062e-007
-6.675313e-007
-7.121500e-007
-7.525175e-007
-7.881569e-007
-8.186864e-007
-8.437037e-007
-8.627533e-007
-8.753944e-007
-8.812713e-007
-8.800959e-007
-8.715734e-007
-8.553958e-007
-8.313604e-007
-7.995200e-007
-7.602161e-007
-7.139850e-007
-6.614971e-007
-6.036637e-007
-5.418119e-007
-4.776821e-007
-4.131657e-007
-3.500123e-007
-2.897797e-007
-2.339722e-007
-1.840165e-007
-1.409106e-007
-1.048572e-007
-7.534058e-008
-5.162584e-008
-3.313159e-008
-1.928376e-008
-9.187266e-009
-1.783300e-009
3.471903e-009
6.239775e-009
5.954617e-009
3.024301e-009
-7.557706e-010
-3.223334e-009
-3.369168e-009
-1.815587e-009
1.179739e-010
1.579091e-009
2.353439e-009
2.274711e-009
1.090114e-009
-8.353568e-010
-2.113744e-009
-1.352442e-009
1.132207e-009
3.022723e-009
2.057975e-009
-1.404707e-009
-4.243799e-009
-3.470077e-009
6.142001e-010
4.405839e-009
1.063042e-008
1.061918e-009
-7.761900e-009
-7.821263e-009
-3.668747e-010
6.573823e-009
6.574402e-009
4.216409e-010
-5.784019e-009
-6.932097e-009
-2.981027e-009
2.310454e-009
5.408266e-009
5.400955e-009
3.349953e-009
5.928238e-010
-1.850456e-009
-2.920262e-009
-1.673986e-009
1.709172e-009
5.370007e-009
6.715221e-009
4.131725e-009
-2.266993e-009
-1.155671e-008
-2.350991e-008
-3.920014e-008
-6.040883e-008
-8.877589e-008
-1.255618e-007
-1.719005e-007
-2.288632e-007
-2.970693e-007
-3.762535e-007
-4.652529e-007
-5.623685e-007
-6.656951e-007
-7.731932e-007
-8.826594e-007
-9.918366e-007
-1.098651e-006
-1.201371e-006
-1.298575e-006
-1.389035e-006
-1.471676e-006
-1.545621e-006
-1.610211e-006
-1.664915e-006
-1.709200e-006
-1.742483e-006
-1.764182e-006
-1.773768e-006
-1.770747e-006
-1.754605e-006
-1.724822e-006
-1.681017e-006
-1.623092e-006
-1.551288e-006
-1.466142e-006
-1.368523e-006
-1.259809e-006
-1.142071e-006
-1.018020e-006
-8.907611e-007
-7.635603e-007
-6.398182e-007
-5.230455e-007
-4.165307e-007
-3.227346e-007
-2.428835e-007
-1.771202e-007
-1.249505e-007
-8.538260e-008
-5.663846e-008
-3.607550e-008
-2.091558e-008
-9.397659e-009
-1.222792e-009
3.260385e-009
4.306341e-009
3.138504e-009
1.190410e-009
-6.750967e-010
-2.005905e-009
-2.154910e-009
-4.869365e-010
2.498802e-009
4.695287e-009
3.874891e-009
9.949540e-011
-3.673432e-009
-4.069642e-009
-7.137884e-010
3.081580e-009
3.470639e-009
3.208448e-011
-3.666361e-009
-3.686694e-009
1.597334e-010
4.041897e-009
6.579228e-009
-1.422293e-009
-7.773124e-009
-5.465863e-009
3.078297e-009
9.123053e-009
6.711139e-009
-1.682552e-009
-8.148130e-009
-7.242060e-009
-6.765542e-010
5.231520e-009
5.881246e-009
1.991333e-009
-2.222555e-009
-3.357309e-009
-1.132818e-009
2.599525e-009
5.927552e-009
7.651436e-009
6.764889e-009
2.143791e-009
-6.965123e-009
-2.060813e-008
-3.885503e-008
-6.307305e-008
-9.639058e-008
-1.428254e-007
-2.059279e-007
-2.880675e-007
-3.905360e-007
-5.137740e-007
-6.571890e-007
-8.188019e-007
-9.952713e-007
-1.182418e-006
-1.375853e-006
-1.571333e-006
-1.764858e-006
-1.952771e-006
-2.131957e-006
-2.300008e-006
-2.455181e-006
-2.596243e-006
-2.722309e-006
-2.832787e-006
-2.927318e-006
-3.005666e-006
-3.067589e-006
-3.112768e-006
-3.140825e-006
-3.151338e-006
-3.143807e-006
-3.117607e-006
-3.072007e-006
-3.006287e-006
-2.919854e-006
-2.812290e-006
-2.683395e-006
-2.533362e-006
-2.363095e-006
-2.174486e-006
-1.970473e-006
-1.754962e-006
-1.532804e-006
-1.309849e-006
-1.092722e-006
-8.880837e-007
-7.016457e-007
-5.375377e-007
-3.982973e-007
-2.850449e-007
-1.972934e-007
-1.325497e-007
-8.651207e-008
-5.425958e-008
-3.171000e-008
-1.619195e-008
-5.922423e-009
6.114024e-010
4.489324e-009
5.893322e-009
4.537604e-009
1.058674e-009
-2.243289e-009
-2.733388e-009
6.876850e-011
3.572890e-009
4.283206e-009
1.220547e-009
-2.934805e-009
-4.380346e-009
-1.933813e-009
1.862322e-009
3.389095e-009
1.555319e-009
-1.345628e-009
-2.249813e-009
-5.233072e-010
1.590380e-009
1.334774e-009
-2.218655e-009
-4.317264e-009
-1.668342e-009
3.609216e-009
6.175741e-009
3.149898e-009
-2.691365e-009
-5.595242e-009
-2.679190e-009
3.109807e-009
5.975391e-009
3.068881e-009
-2.815428e-009
-6.139417e-009
-3.855124e-009
2.220058e-009
7.591607e-009
8.905195e-009
5.568694e-009
-1.609057e-009
-1.255841e-008
-2.877165e-008
-5.290948e-008
-8.852822e-008
-1.403898e-007
-2.144934e-007
-3.170581e-007
-4.529058e-007
-6.243665e-007
-8.311736e-007
-1.070825e-006
-1.338750e-006
-1.628324e-006
-1.931248e-006
-2.238502e-006
-2.541487e-006
-2.832808e-006
-3.106557e-006
-3.358353e-006
-3.585347e-006
-3.786178e-006
-3.960753e-006
-4.109868e-006
-4.234823e-006
-4.337164e-006
-4.418528e-006
-4.480517e-006
-4.524601e-006
-4.552058e-006
-4.563947e-006
-4.561070e-006
-4.543883e-006
-4.512381e-006
-4.466018e-006
-4.403664e-006
-4.323544e-006
-4.223163e-006
-4.099369e-006
-3.948684e-006
-3.767883e-006
-3.554632e-006
-3.308067e-006
-3.029391e-006
-2.722575e-006
-2.394859e-006
-2.056528e-006
-1.719732e-006
-1.396822e-006
-1.098946e-006
-8.351753e-007
-6.117983e-007
-4.315098e-007
-2.929415e-007
-1.912792e-007
-1.199225e-007
-7.210992e-008
-4.155113e-008
-2.239187e-008
-9.656366e-009
-4.262285e-010
5.550010e-009
7.149214e-009
4.401045e-009
-1.801158e-010
-3.020407e-009
-2.356041e-009
4.268199e-010
2.387406e-009
1.874312e-009
-2.288267e-010
-1.794405e-009
-1.593429e-009
-1.241209e-010
1.270847e-009
1.693652e-009
1.151421e-009
1.676626e-010
-7.377148e-010
-1.254145e-009
-3.060038e-009
-9.135376e-010
1.403595e-009
2.216026e-009
1.260231e-009
-5.886484e-010
-2.100115e-009
-2.165045e-009
-2.464061e-010
2.883640e-009
4.990088e-009
3.873534e-009
-2.850464e-010
-4.290586e-009
-4.398506e-009
1.024780e-010
5.808666e-009
7.857961e-009
3.631131e-009
-6.242006e-009
-2.038618e-008
-4.004168e-008
-7.032346e-008
-1.190440e-007
-1.949696e-007
-3.069576e-007
-4.635657e-007
-6.719712e-007
-9.360481e-007
-1.254650e-006
-1.621062e-006
-2.023590e-006
-2.446659e-006
-2.872147e-006
-3.281118e-006
-3.655987e-006
-3.982599e-006
-4.251509e-006
-4.458209e-006
-4.602610e-006
-4.688231e-006
-4.721323e-006
-4.709937e-006
-4.662967e-006
-4.589344e-006
-4.497520e-006
-4.395264e-006
-4.289672e-006
-4.187238e-006
-4.093938e-006
-4.015249e-006
-3.956056e-006
-3.920437e-006
-3.911315e-006
-3.930015e-006
-3.975694e-006
-4.044703e-006
-4.129974e-006
-4.220733e-006
-4.302757e-006
-4.359242e-006
-4.372181e-006
-4.324266e-006
-4.201366e-006
-3.995359e-006
-3.706547e-006
-3.344622e-006
-2.927700e-006
-2.479817e-006
-2.027666e-006
-1.597105e-006
-1.209673e-006
-8.797154e-007
-6.131653e-007
-4.085988e-007
-2.597528e-007
-1.578061e-007
-9.249422e-008
-5.281163e-008
-2.856021e-008
-1.256168e-008
-1.762822e-009
4.056314e-009
4.978232e-009
2.632016e-009
-3.607262e-010
-2.028010e-009
-1.870387e-009
-4.213795e-010
1.413173e-009
2.557150e-009
2.063746e-009
-9.659523e-012
-2.071510e-009
-2.094202e-009
2.285413e-010
2.700580e-009
2.632560e-009
-2.080318e-010
-3.084771e-009
-6.554160e-009
9.716720e-010
7.042338e-009
5.365019e-009
-1.775358e-009
-7.012797e-009
-5.794810e-009
-8.989179e-011
4.789433e-009
5.540955e-009
2.873765e-009
-4.188276e-010
-2.037348e-009
-1.103795e-009
1.962475e-009