# vtk DataFile Version 3.0
vtk output
ASCII
DATASET STRUCTURED_POINTS
DIMENSIONS 100 100 1
SPACING 1 1 1
ORIGIN 0 0 0
POINT_DATA 10000
SCALARS SFBox_profile double
LOOKUP_TABLE default 
0.000000e+000
0.000000e+000
0.000000e+000
0.000000e+000
0.000000e+000
0.000000e+000
0.000000e+000
0.000000e+000
0.000000e+000
0.000000e+000
0.000000e+000
0.000000e+000
0.000000e+000
0.000000e+000
0.000000e+000
0.000000e+000
0.000000e+000
0.000000e+000
0.000000e+000
0.000000e+000
0.000000e+000
0.000000e+000
0.000000e+000
0.000000e+000
0.000000e+000
0.000000e+000
0.000000e+000
0.000000e+000
0.000000e+000
0.000000e+000
0.000000e+000
0.000000e+000
0.000000e+000
0.000000e+000
0.000000e+000
0.000000e+000
0.000000e+000
0.000000e+000
0.000000e+000
0.000000e+000
0.000000e+000
0.000000e+000
0.000000e+000
0.000000e+000
0.000000e+000
0.000000e+000
0.000000e+000
0.000000e+000
0.000000e+000
0.000000e+000
0.000000e+000
0.000000e+000
0.000000e+000
0.000000e+000
0.000000e+000
0.000000e+000
0.000000e+000
0.000000e+000
0.000000e+000
0.000000e+000
0.000000e+000
0.000000e+000
0.000000e+000
0.000000e+000
0.000000e+000
0.000000e+000
0.000000e+000
0.000000e+000
0.000000e+000
0.000000e+000
0.000000e+000
0.000000e+000
0.000000e+000
0.000000e+000
0.000000e+000
0.000000e+000
0.000000e+000
0.000000e+000
0.000000e+000
0.000000e+000
0.000000e+000
0.000000e+000
0.000000e+000
0.000000e+000
0.000000e+000
0.000000e+000
0.000000e+000
0.000000e+000
0.000000e+000
0.000000e+000
0.000000e+000
0.000000e+000
0.000000e+000
0.000000e+000
0.000000e+000
0.000000e+000
0.000000e+000
0.000000e+000
0.000000e+000
0.000000e+000
-6.883007e-011
-5.313717e-011
-2.784966e-011
-2.311677e-012
1.532378e-011
2.213402e-011
2.225918e-011
2.571165e-011
4.472305e-011
8.933531e-011
1.642779e-010
2.685536e-010
3.978180e-010
5.482598e-010
7.199381e-010
9.177869e-010
1.149654e-009
1.422189e-009
1.736424e-009
2.085018e-009
2.452289e-009
2.816861e-009
3.155642e-009
3.447446e-009
3.675031e-009
3.825266e-009
3.888074e-009
3.855219e-009
3.719783e-009
3.476575e-009
3.123068e-009
2.660216e-009
2.092590e-009
1.427756e-009
6.751875e-010
-1.548094e-010
-1.051744e-009
-2.005066e-009
-3.003904e-009
-4.036680e-009
-5.090842e-009
-6.152804e-009
-7.208054e-009
-8.241322e-009
-9.236717e-009
-1.017778e-008
-1.104749e-008
-1.182825e-008
-1.250197e-008
-1.305023e-008
-1.345461e-008
-1.369730e-008
-1.376187e-008
-1.363437e-008
-1.330455e-008
-1.276725e-008
-1.202372e-008
-1.108285e-008
-9.962074e-009
-8.687823e-009
-7.295381e-009
-5.827914e-009
-4.334657e-009
-2.868242e-009
-1.481341e-009
-2.229279e-010
8.654645e-010
1.753014e-009
2.421996e-009
2.868920e-009
3.104237e-009
3.150607e-009
3.039966e-009
2.809826e-009
2.499337e-009
2.145672e-009
1.781178e-009
1.431535e-009
1.114964e-009
8.423452e-010
6.180207e-010
4.410477e-010
3.066878e-010
2.079727e-010
1.371889e-010
8.711918e-011
5.188975e-011
2.732221e-011
1.079444e-011
7.418799e-013
-3.968604e-012
-4.548658e-012
-2.504074e-012
4.813311e-013
2.887041e-012
3.738341e-012
2.837968e-012
7.354850e-013
-1.562485e-012
-3.026931e-012
-6.980522e-011
-5.334368e-011
-2.584284e-011
4.210160e-012
2.902250e-011
4.512896e-011
5.540868e-011
6.865431e-011
9.689266e-011
1.516238e-010
2.405886e-010
3.663912e-010
5.273706e-010
7.199879e-010
9.412198e-010
1.189451e-009
1.463118e-009
1.757553e-009
2.061420e-009
2.354458e-009
2.607674e-009
2.786065e-009
2.852912e-009
2.774133e-009
2.521428e-009
2.073634e-009
1.416607e-009
5.424041e-010
-5.514472e-010
-1.862234e-009
-3.382047e-009
-5.097898e-009
-6.992324e-009
-9.044543e-009
-1.123187e-008
-1.353097e-008
-1.591859e-008
-1.837170e-008
-2.086716e-008
-2.338115e-008
-2.588879e-008
-2.836385e-008
-3.077871e-008
-3.310439e-008
-3.531066e-008
-3.736601e-008
-3.923767e-008
-4.089159e-008
-4.229263e-008
-4.340480e-008
-4.419192e-008
-4.461864e-008
-4.465179e-008
-4.426239e-008
-4.342792e-008
-4.213492e-008
-4.038171e-008
-3.818094e-008
-3.556165e-008
-3.257063e-008
-2.927258e-008
-2.574893e-008
-2.209506e-008
-1.841583e-008
-1.481978e-008
-1.141224e-008
-8.288161e-009
-5.525322e-009
-3.178875e-009
-1.277837e-009
1.758590e-010
1.205639e-009
1.856093e-009
2.186947e-009
2.266107e-009
2.162751e-009
1.941375e-009
1.657410e-009
1.354662e-009
1.064542e-009
8.067397e-010
5.909437e-010
4.191410e-010
2.880989e-010
1.917021e-010
1.228868e-010
7.501069e-011
4.259727e-011
2.151529e-011
8.761942e-012
2.071791e-012
-4.339157e-013
-4.282952e-013
6.281093e-013
1.616828e-012
1.890100e-012
1.310833e-012
1.622829e-013
-1.043560e-012
-1.798966e-012
-6.095451e-011
-4.514614e-011
-1.704831e-011
1.758972e-011
5.302467e-011
8.606120e-011
1.180836e-010
1.558076e-010
2.103429e-010
2.947249e-010
4.206553e-010
5.954760e-010
8.202172e-010
1.088961e-009
1.389060e-009
1.701311e-009
1.999357e-009
2.248166e-009
2.402317e-009
2.405254e-009
2.190653e-009
1.686301e-009
8.199768e-010
-4.739581e-010
-2.248739e-009
-4.541277e-009
-7.370513e-009
-1.073776e-008
-1.462833e-008
-1.901380e-008
-2.385447e-008
-2.910199e-008
-3.470201e-008
-4.059675e-008
-4.672741e-008
-5.303583e-008
-5.946541e-008
-6.596104e-008
-7.246845e-008
-7.893321e-008
-8.529973e-008
-9.151045e-008
-9.750539e-008
-1.032219e-007
-1.085943e-007
-1.135540e-007
-1.180293e-007
-1.219453e-007
-1.252244e-007
-1.277864e-007
-1.295505e-007
-1.304365e-007
-1.303683e-007
-1.292775e-007
-1.271087e-007
-1.238250e-007
-1.194142e-007
-1.138948e-007
-1.073209e-007
-9.978683e-008
-9.142789e-008
-8.241954e-008
-7.297255e-008
-6.332470e-008
-5.372908e-008
-4.443962e-008
-3.569502e-008
-2.770283e-008
-2.062531e-008
-1.456903e-008
-9.579650e-009
-5.642560e-009
-2.689410e-009
-6.094859e-010
7.358088e-010
1.497487e-009
1.824640e-009
1.852904e-009
1.696702e-009
1.445501e-009
1.163628e-009
8.927835e-010
6.561983e-010
4.634235e-010
3.149393e-010
2.060380e-010
1.297191e-010
7.857548e-011
4.583977e-011
2.584087e-011
1.412340e-011
7.412839e-012
3.512408e-012
1.140635e-012
-3.008410e-013
-1.016504e-012
-1.097277e-012
-7.140495e-013
-1.634509e-013
2.210515e-013
-2.667191e-011
-1.559601e-011
6.824477e-012
4.073839e-011
8.589562e-011
1.420862e-010
2.105011e-010
2.955043e-010
4.057204e-010
5.532952e-010
7.507670e-010
1.005923e-009
1.315817e-009
1.661365e-009
2.003525e-009
2.281331e-009
2.411443e-009
2.288769e-009
1.788134e-009
7.675363e-010
-9.262038e-010
-3.448904e-009
-6.947992e-009
-1.155040e-008
-1.735142e-008
-2.440664e-008
-3.272818e-008
-4.228551e-008
-5.301022e-008
-6.480313e-008
-7.754262e-008
-9.109274e-008
-1.053106e-007
-1.200522e-007
-1.351768e-007
-1.505498e-007
-1.660430e-007
-1.815343e-007
-1.969059e-007
-2.120416e-007
-2.268249e-007
-2.411366e-007
-2.548532e-007
-2.678462e-007
-2.799810e-007
-2.911165e-007
-3.011043e-007
-3.097892e-007
-3.170088e-007
-3.225948e-007
-3.263756e-007
-3.281793e-007
-3.278405e-007
-3.252071e-007
-3.201514e-007
-3.125810e-007
-3.024525e-007
-2.897844e-007
-2.746696e-007
-2.572847e-007
-2.378966e-007
-2.168621e-007
-1.946216e-007
-1.716848e-007
-1.486089e-007
-1.259687e-007
-1.043235e-007
-8.418009e-008
-6.595939e-008
-4.996814e-008
-3.638130e-008
-2.523684e-008
-1.644417e-008
-9.804656e-009
-5.041139e-009
-1.831773e-009
1.566373e-010
1.240093e-009
1.696521e-009
1.753715e-009
1.585657e-009
1.315516e-009
1.023070e-009
7.541969e-010
5.304899e-010
3.576928e-010
2.323075e-010
1.463001e-010
9.018879e-011
5.493363e-011
3.301491e-011
1.894523e-011
9.336437e-012
2.583329e-012
-1.748737e-012
-3.657492e-012
-3.332394e-012
-1.471875e-012
7.946382e-013
2.295351e-012
4.462990e-011
4.629385e-011
5.568929e-011
8.243376e-011
1.360594e-010
2.232707e-010
3.475323e-010
5.109519e-010
7.168034e-010
9.701558e-010
1.274441e-009
1.623284e-009
1.988790e-009
2.308889e-009
2.476641e-009
2.333710e-009
1.668984e-009
2.223686e-010
-2.306645e-009
-6.245860e-009
-1.193282e-008
-1.969322e-008
-2.981673e-008
-4.253279e-008
-5.798997e-008
-7.624226e-008
-9.724486e-008
-1.208596e-007
-1.468689e-007
-1.749947e-007
-2.049200e-007
-2.363087e-007
-2.688225e-007
-3.021335e-007
-3.359324e-007
-3.699315e-007
-4.038652e-007
-4.374865e-007
-4.705626e-007
-5.028691e-007
-5.341845e-007
-5.642853e-007
-5.929420e-007
-6.199164e-007
-6.449593e-007
-6.678085e-007
-6.881877e-007
-7.058053e-007
-7.203544e-007
-7.315146e-007
-7.389547e-007
-7.423401e-007
-7.413418e-007
-7.356514e-007
-7.249983e-007
-7.091726e-007
-6.880493e-007
-6.616149e-007
-6.299936e-007
-5.934697e-007
-5.525051e-007
-5.077477e-007
-4.600271e-007
-4.103360e-007
-3.597955e-007
-3.096024e-007
-2.609638e-007
-2.150215e-007
-1.727748e-007
-1.350115e-007
-1.022559e-007
-7.474143e-008
-5.241354e-008
-3.496126e-008
-2.187268e-008
-1.250504e-008
-6.158272e-009
-2.141730e-009
1.736392e-010
1.321718e-009
1.726329e-009
1.702153e-009
1.466798e-009
1.158928e-009
8.580077e-010
6.025011e-010
4.047935e-010
2.623554e-010
1.654824e-010
1.023162e-010
6.187164e-011
3.562078e-011
1.799411e-011
6.062506e-012
-1.320007e-012
-4.578162e-012
-4.305826e-012
-1.710014e-012
1.497489e-012
3.622118e-012
1.538607e-010
1.448326e-010
1.397857e-010
1.600651e-010
2.281205e-010
3.608758e-010
5.662533e-010
8.433662e-010
1.184387e-009
1.574329e-009
1.984933e-009
2.360660e-009
2.597727e-009
2.520002e-009
1.857177e-009
2.305859e-010
-2.849412e-009
-7.972570e-009
-1.580433e-008
-2.704917e-008
-4.240406e-008
-6.250585e-008
-8.787772e-008
-1.188811e-007
-1.556803e-007
-1.982243e-007
-2.462509e-007
-2.993095e-007
-3.568003e-007
-4.180218e-007
-4.822202e-007
-5.486336e-007
-6.165262e-007
-6.852125e-007
-7.540686e-007
-8.225362e-007
-8.901175e-007
-9.563663e-007
-1.020877e-006
-1.083270e-006
-1.143182e-006
-1.200255e-006
-1.254126e-006
-1.304421e-006
-1.350749e-006
-1.392697e-006
-1.429828e-006
-1.461674e-006
-1.487738e-006
-1.507495e-006
-1.520393e-006
-1.525864e-006
-1.523336e-006
-1.512255e-006
-1.492111e-006
-1.462472e-006
-1.423024e-006
-1.373615e-006
-1.314303e-006
-1.245406e-006
-1.167546e-006
-1.081683e-006
-9.891326e-007
-8.915669e-007
-7.909742e-007
-6.895896e-007
-5.897860e-007
-4.939335e-007
-4.042386e-007
-3.225817e-007
-2.503761e-007
-1.884694e-007
-1.371051e-007
-9.595188e-008
-6.419303e-008
-4.066090e-008
-2.399119e-008
-1.277245e-008
-5.670404e-009
-1.515178e-009
6.519302e-010
1.567560e-009
1.762345e-009
1.593227e-009
1.282205e-009
9.541217e-010
6.690270e-010
4.472981e-010
2.876129e-010
1.788809e-010
1.075506e-010
6.157866e-011
3.208049e-011
1.343588e-011
2.491726e-012
-2.570462e-012
-3.232070e-012
-1.182504e-012
1.673205e-012
3.612046e-012
2.913062e-010
2.779156e-010
2.703405e-010
3.007617e-010
4.041747e-010
6.078315e-010
9.232693e-010
1.341727e-009
1.830761e-009
2.327453e-009
2.723115e-009
2.836319e-009
2.375140e-009
8.941687e-010
-2.244399e-009
-7.894887e-009
-1.712787e-008
-3.119932e-008
-5.148738e-008
-7.940029e-008
-1.162635e-007
-1.631988e-007
-2.210113e-007
-2.900999e-007
-3.704063e-007
-4.614099e-007
-5.621687e-007
-6.713992e-007
-7.875815e-007
-9.090726e-007
-1.034213e-006
-1.161413e-006
-1.289215e-006
-1.416328e-006
-1.541639e-006
-1.664201e-006
-1.783222e-006
-1.898035e-006
-2.008075e-006
-2.112853e-006
-2.211934e-006
-2.304912e-006
-2.391394e-006
-2.470984e-006
-2.543268e-006
-2.607804e-006
-2.664109e-006
-2.711656e-006
-2.749866e-006
-2.778105e-006
-2.795687e-006
-2.801875e-006
-2.795896e-006
-2.776950e-006
-2.744237e-006
-2.696987e-006
-2.634504e-006
-2.556216e-006
-2.461750e-006
-2.351016e-006
-2.224304e-006
-2.082400e-006
-1.926685e-006
-1.759221e-006
-1.582794e-006
-1.400879e-006
-1.217530e-006
-1.037165e-006
-8.642738e-007
-7.030657e-007
-5.571063e-007
-4.290077e-007
-3.202237e-007
-2.309892e-007
-1.604151e-007
-1.067122e-007
-6.749566e-008
-4.010812e-008
-2.190953e-008
-1.049556e-008
-3.831544e-009
-3.059373e-010
1.279618e-009
1.761571e-009
1.685827e-009
1.382333e-009
1.031903e-009
7.199370e-010
4.759505e-010
3.004000e-010
1.814463e-010
1.044150e-010
5.634600e-011
2.750443e-011
1.123824e-011
3.152143e-012
2.230026e-013
1.827913e-013
1.249540e-012
2.127874e-012
4.452068e-010
4.437111e-010
4.629291e-010
5.406325e-010
7.184927e-010
1.027915e-009
1.475461e-009
2.028085e-009
2.595692e-009
3.006029e-009
2.966338e-009
2.008482e-009
-5.802951e-010
-5.831502e-009
-1.515800e-008
-3.038441e-008
-5.372512e-008
-8.769506e-008
-1.349488e-007
-1.980572e-007
-2.792452e-007
-3.801290e-007
-5.014933e-007
-6.431518e-007
-8.039148e-007
-9.816712e-007
-1.173568e-006
-1.376253e-006
-1.586146e-006
-1.799690e-006
-2.013560e-006
-2.224807e-006
-2.430937e-006
-2.629924e-006
-2.820189e-006
-3.000542e-006
-3.170131e-006
-3.328375e-006
-3.474924e-006
-3.609609e-006
-3.732405e-006
-3.843390e-006
-3.942712e-006
-4.030551e-006
-4.107088e-006
-4.172482e-006
-4.226847e-006
-4.270243e-006
-4.302655e-006
-4.323991e-006
-4.334065e-006
-4.332581e-006
-4.319108e-006
-4.293049e-006
-4.253607e-006
-4.199743e-006
-4.130158e-006
-4.043285e-006
-3.937333e-006
-3.810392e-006
-3.660617e-006
-3.486496e-006
-3.287192e-006
-3.062922e-006
-2.815322e-006
-2.547718e-006
-2.265231e-006
-1.974644e-006
-1.684003e-006
-1.401956e-006
-1.136917e-006
-8.961806e-007
-6.851620e-007
-5.069110e-007
-3.619934e-007
-2.487409e-007
-1.637824e-007
-1.027156e-007
-6.076960e-008
-3.334943e-008
-1.640535e-008
-6.622426e-009
-1.460970e-009
9.063951e-010
1.714478e-009
1.743912e-009
1.452100e-009
1.082491e-009
7.473701e-010
4.854914e-010
2.990345e-010
1.752641e-010
9.790243e-011
5.221511e-011
2.668345e-011
1.309705e-011
6.067327e-012
2.401455e-012
4.679612e-013
-4.007749e-013
6.165723e-010
6.520570e-010
7.426885e-010
9.219308e-010
1.225144e-009
1.671242e-009
2.237054e-009
2.822515e-009
3.203196e-009
2.965255e-009
1.418185e-009
-2.515459e-009
-1.042593e-008
-2.453852e-008
-4.780022e-008
-8.389016e-008
-1.371117e-007
-2.121352e-007
-3.135845e-007
-4.454974e-007
-6.107331e-007
-8.104324e-007
-1.043647e-006
-1.307227e-006
-1.596003e-006
-1.903227e-006
-2.221195e-006
-2.541921e-006
-2.857768e-006
-3.161947e-006
-3.448835e-006
-3.714113e-006
-3.954743e-006
-4.168836e-006
-4.355462e-006
-4.514453e-006
-4.646244e-006
-4.751755e-006
-4.832314e-006
-4.889602e-006
-4.925603e-006
-4.942550e-006
-4.942858e-006
-4.929062e-006
-4.903749e-006
-4.869517e-006
-4.828940e-006
-4.784555e-006
-4.738844e-006
-4.694225e-006
-4.653003e-006
-4.617304e-006
-4.588946e-006
-4.569262e-006
-4.558859e-006
-4.557341e-006
-4.563001e-006
-4.572545e-006
-4.580902e-006
-4.581184e-006
-4.564894e-006
-4.522409e-006
-4.443795e-006
-4.319889e-006
-4.143582e-006
-3.911115e-006
-3.623186e-006
-3.285602e-006
-2.909265e-006
-2.509345e-006
-2.103675e-006
-1.710589e-006
-1.346606e-006
-1.024461e-006
-7.518848e-007
-5.313457e-007
-3.606984e-007
-2.344356e-007
-1.451626e-007
-8.494428e-008
-4.631462e-008
-2.288249e-008
-9.580093e-009
-2.650142e-009
5.227585e-010
1.648346e-009
1.772474e-009
1.488307e-009
1.101669e-009
7.494027e-010
4.773906e-010
2.879377e-010
1.660969e-010
9.289783e-011
5.121888e-011
2.794199e-011
1.435069e-011
5.645269e-012
-6.522908e-014
-3.028290e-012
8.342688e-010
9.357328e-010
1.148329e-009
1.486605e-009
1.957102e-009
2.531823e-009
3.101549e-009
3.402655e-009
2.911591e-009
7.024600e-010
-4.733291e-009
-1.569768e-008
-3.550496e-008
-6.866415e-008
-1.209573e-007
-1.993256e-007
-3.114747e-007
-4.651342e-007
-6.669826e-007
-9.213503e-007
-1.228941e-006
-1.585878e-006
-1.983362e-006
-2.408096e-006
-2.843441e-006
-3.271060e-006
-3.672731e-006
-4.031988e-006
-4.335345e-006
-4.572982e-006
-4.738897e-006
-4.830626e-006
-4.848656e-006
-4.795722e-006
-4.676126e-006
-4.495182e-006
-4.258860e-006
-3.973596e-006
-3.646235e-006
-3.284035e-006
-2.894657e-006
-2.486127e-006
-2.066756e-006
-1.645036e-006
-1.229552e-006
-8.289235e-007
-4.517881e-007
-1.068237e-007
1.972172e-007
4.514943e-007
6.471294e-007
7.753621e-007
8.278521e-007
7.971576e-007
6.774048e-007
4.651390e-007
1.603156e-007
-2.326541e-007
-7.039319e-007
-1.237532e-006
-1.811055e-006
-2.396084e-006
-2.959415e-006
-3.465221e-006
-3.878108e-006
-4.166856e-006
-4.308407e-006
-4.291456e-006
-4.118875e-006
-3.808244e-006
-3.390037e-006
-2.903524e-006
-2.391072e-006
-1.892074e-006
-1.437874e-006
-1.048800e-006
-7.336959e-007
-4.916244e-007
-3.148204e-007
-1.919039e-007
-1.105827e-007
-5.948920e-008
-2.915096e-008
-1.228602e-008
-3.669400e-009
2.163370e-010
1.594400e-009
1.779441e-009
1.492006e-009
1.090668e-009
7.294979e-010
4.567375e-010
2.719424e-010
1.564741e-010
8.842261e-011
4.916520e-011
2.565691e-011
1.047286e-011
5.804805e-013
-4.504339e-012
1.162799e-009
1.355050e-009
1.729871e-009
2.262087e-009
2.891640e-009
3.477334e-009
3.708348e-009
2.959384e-009
7.926297e-011
-6.890472e-009
-2.105851e-008
-4.705928e-008
-9.139901e-008
-1.626643e-007
-2.714319e-007
-4.296757e-007
-6.494708e-007
-9.408949e-007
-1.309265e-006
-1.752176e-006
-2.257115e-006
-2.800480e-006
-3.348565e-006
-3.860554e-006
-4.292934e-006
-4.604391e-006
-4.760157e-006
-4.735060e-006
-4.514932e-006
-4.096443e-006
-3.485693e-006
-2.696061e-006
-1.745800e-006
-6.558116e-007
5.521093e-007
1.856425e-006
3.236409e-006
4.672241e-006
6.144816e-006
7.635474e-006
9.125777e-006
1.059740e-005
1.203214e-005
1.341198e-005
1.471909e-005
1.593587e-005
1.704477e-005
1.802811e-005
1.886786e-005
1.954540e-005
2.004147e-005
2.033620e-005
2.040957e-005
2.024203e-005
1.981568e-005
1.911581e-005
1.813291e-005
1.686507e-005
1.532064e-005
1.352092e-005
1.150257e-005
9.319118e-006
7.041186e-006
4.754567e-006
2.555771e-006
5.447233e-007
-1.185010e-006
-2.557360e-006
-3.524421e-006
-4.074289e-006
-4.233811e-006
-4.064788e-006
-3.653781e-006
-3.097584e-006
-2.487856e-006
-1.898692e-006
-1.379833e-006
-9.561455e-007
-6.320177e-007
-3.981574e-007
-2.383736e-007
-1.348142e-007
-7.119861e-008
-3.430964e-008
-1.429711e-008
-4.323070e-009
6.232845e-011
1.576532e-009
1.771159e-009
1.466162e-009
1.053326e-009
6.920968e-010
4.267431e-010
2.514070e-010
1.435438e-010
7.963872e-011
4.155057e-011
1.800124e-011
3.547857e-012
-3.559200e-012
1.696511e-009
1.989694e-009
2.534007e-009
3.232142e-009
3.891467e-009
4.133259e-009
3.223050e-009
-2.038305e-010
-8.538113e-009
-2.571245e-008
-5.780471e-008
-1.136443e-007
-2.052569e-007
-3.478679e-007
-5.590570e-007
-8.565645e-007
-1.254346e-006
-1.756891e-006
-2.352637e-006
-3.008206e-006
-3.665708e-006
-4.244915e-006
-4.650744e-006
-4.784770e-006
-4.558121e-006
-3.902797e-006
-2.779115e-006
-1.178254e-006
8.797802e-007
3.351574e-006
6.177542e-006
9.289458e-006
1.261708e-005
1.609309e-005
1.965620e-005
2.325238e-005
2.683492e-005
3.036367e-005
3.380393e-005
3.712547e-005
4.030166e-005
4.330891e-005
4.612632e-005
4.873532e-005
5.111933e-005
5.326328e-005
5.515306e-005
5.677475e-005
5.811388e-005
5.915459e-005
5.987889e-005
6.026588e-005
6.029124e-005
5.992682e-005
5.914064e-005
5.789753e-005
5.616053e-005
5.389365e-005
5.106629e-005
4.765950e-005
4.367436e-005
3.914152e-005
3.413088e-005
2.875901e-005
2.319143e-005
1.763710e-005
1.233328e-005
7.521114e-006
3.414693e-006
1.694144e-007
-2.143121e-006
-3.546525e-006
-4.153028e-006
-4.139382e-006
-3.711339e-006
-3.066534e-006
-2.365532e-006
-1.717263e-006
-1.179271e-006
-7.683926e-007
-4.755034e-007
-2.790108e-007
-1.544281e-007
-7.973476e-008
-3.753072e-008
-1.525533e-008
-4.478450e-009
9.925112e-011
1.601648e-009
1.748292e-009
1.412584e-009
9.925593e-010
6.391647e-010
3.869517e-010
2.235974e-010
1.239503e-010
6.483741e-011
2.997813e-011
1.007007e-011
8.497458e-013
2.537492e-009
2.914134e-009
3.571354e-009
4.283380e-009
4.606235e-009
3.696608e-009
-7.585346e-012
-9.286817e-009
-2.884201e-008
-6.617904e-008
-1.325780e-007
-2.439170e-007
-4.209065e-007
-6.879933e-007
-1.069879e-006
-1.584531e-006
-2.232195e-006
-2.981563e-006
-3.756666e-006
-4.429937e-006
-4.826611e-006
-4.742607e-006
-3.973269e-006
-2.346152e-006
2.504184e-007
3.849850e-006
8.403911e-006
1.379244e-005
1.984228e-005
2.635043e-005
3.310675e-005
3.991271e-005
4.659411e-005
5.300755e-005
5.904139e-005
6.461328e-005
6.966610e-005
7.416400e-005
7.808911e-005
8.143919e-005
8.422585e-005
8.647303e-005
8.821545e-005
8.949685e-005
9.036818e-005
9.088584e-005
9.110990e-005
9.110254e-005
9.092641e-005
9.064282e-005
9.030924e-005
8.997591e-005
8.968108e-005
8.944480e-005
8.926116e-005
8.908979e-005
8.884750e-005
8.840216e-005
8.757136e-005
8.612904e-005
8.382302e-005
8.040500e-005
7.567201e-005
6.951433e-005
6.196100e-005
5.321128e-005
4.364033e-005
3.377068e-005
2.420799e-005
1.554982e-005
8.286438e-006
2.719213e-006
-1.080805e-006
-3.263367e-006
-4.142569e-006
-4.111815e-006
-3.556996e-006
-2.791894e-006
-2.028481e-006
-1.380137e-006
-8.853625e-007
-5.372541e-007
-3.083029e-007
-1.665425e-007
-8.374722e-008
-3.826639e-008
-1.498480e-008
-4.105064e-009
3.162474e-010
1.656754e-009
1.705052e-009
1.330950e-009
9.096311e-010
5.711086e-010
3.367324e-010
1.882682e-010
9.955258e-011
4.876391e-011
2.140989e-011
9.450507e-012
3.758400e-009
4.156008e-009
4.761318e-009
5.117758e-009
4.317535e-009
6.533103e-010
-8.962246e-009
-2.986857e-008
-7.083746e-008
-1.454781e-007
-2.735884e-007
-4.818225e-007
-8.024737e-007
-1.268420e-006
-1.901736e-006
-2.694069e-006
-3.579810e-006
-4.408474e-006
-4.928264e-006
-4.794263e-006
-3.608914e-006
-9.907253e-007
3.344930e-006
9.515033e-006
1.742799e-005
2.678237e-005
3.710370e-005
4.780855e-005
5.827927e-005
6.793326e-005
7.627540e-005
8.292853e-005
8.764198e-005
9.028221e-005
9.081270e-005
8.927073e-005
8.574772e-005
8.037613e-005
7.332272e-005
6.478582e-005
5.499368e-005
4.420181e-005
3.268886e-005
2.075117e-005
8.697479e-006
-3.155482e-006
-1.448563e-005
-2.496663e-005
-3.426812e-005
-4.205650e-005
-4.799781e-005
-5.176477e-005
-5.304963e-005
-5.158445e-005
-4.716975e-005
-3.971144e-005
-2.926423e-005
-1.607746e-005
-6.360176e-007
1.631413e-005
3.376886e-005
5.051049e-005
6.520334e-005
7.654083e-005
8.343107e-005
8.519257e-005
8.171658e-005
7.354549e-005
6.182622e-005
4.812803e-005
3.415759e-005
2.144156e-005
1.106501e-005
3.539494e-006
-1.178218e-006
-3.545589e-006
-4.229976e-006
-3.910302e-006
-3.138615e-006
-2.282593e-006
-1.536406e-006
-9.684466e-007
-5.750385e-007
-3.219710e-007
-1.692744e-007
-8.257933e-008
-3.639322e-008
-1.354017e-008
-3.282701e-009
6.573793e-010
1.714075e-009
1.632263e-009
1.220727e-009
8.066171e-010
4.905790e-010
2.796407e-010
1.506692e-010
7.725274e-011
3.891400e-011
2.277810e-011
5.354079e-009
5.639216e-009
5.852478e-009
5.123944e-009
1.715010e-009
-7.616762e-009
-2.862686e-008
-7.103600e-008
-1.503914e-007
-2.900575e-007
-5.225524e-007
-8.885126e-007
-1.430124e-006
-2.174299e-006
-3.100821e-006
-4.094869e-006
-4.893723e-006
-5.051160e-006
-3.950972e-006
-8.931342e-007
4.749324e-006
1.333622e-005
2.478419e-005
3.846507e-005
5.321423e-005
6.745723e-005
7.942536e-005
8.740135e-005
8.993626e-005
8.599688e-005
7.502714e-005
5.692953e-005
3.198775e-005
7.585319e-007
-3.603907e-005
-7.761384e-005
-1.231595e-004
-1.718790e-004
-2.229848e-004
-2.756906e-004
-3.292030e-004
-3.827213e-004
-4.354436e-004
-4.865766e-004
-5.353440e-004
-5.809904e-004
-6.227780e-004
-6.599780e-004
-6.918577e-004
-7.176674e-004
-7.366308e-004
-7.479419e-004
-7.507738e-004
-7.443034e-004
-7.277550e-004
-7.004696e-004
-6.620024e-004
-6.122498e-004
-5.516016e-004
-4.811042e-004
-4.026070e-004
-3.188521e-004
-2.334546e-004
-1.507257e-004
-7.530380e-005
-1.159368e-005
3.692594e-005
6.839018e-005
8.301703e-005
8.313631e-005
7.268900e-005
5.633659e-005
3.847244e-005
2.242734e-005
1.008867e-005
1.968884e-006
-2.422755e-006
-4.091188e-006
-4.118351e-006
-3.382678e-006
-2.455771e-006
-1.630222e-006
-1.006844e-006
-5.834937e-007
-3.179551e-007
-1.622017e-007
-7.643582e-008
-3.224289e-008
-1.118897e-008
-2.176397e-009
1.039843e-009
1.741120e-009
1.522410e-009
1.084417e-009
6.893619e-010
4.047059e-010
2.235606e-010
1.187585e-010
6.416582e-011
4.146640e-011
7.186092e-009
7.114563e-009
6.319189e-009
3.206586e-009
-5.396196e-009
-2.533790e-008
-6.681362e-008
-1.466486e-007
-2.909741e-007
-5.374500e-007
-9.348780e-007
-1.535712e-006
-2.373795e-006
-3.417761e-006
-4.495019e-006
-5.198172e-006
-4.814305e-006
-2.342770e-006
3.335700e-006
1.312132e-005
2.724489e-005
4.483010e-005
6.362302e-005
8.002721e-005
8.951797e-005
8.734734e-005
6.934375e-005
3.259606e-005
-2.415901e-005
-1.005149e-004
-1.946681e-004
-3.038460e-004
-4.247606e-004
-5.540028e-004
-6.883312e-004
-8.248375e-004
-9.610033e-004
-1.094680e-003
-1.224040e-003
-1.347521e-003
-1.463807e-003
-1.571818e-003
-1.670716e-003
-1.759906e-003
-1.839023e-003
-1.907908e-003
-1.966559e-003
-2.015080e-003
-2.053625e-003
-2.082335e-003
-2.101272e-003
-2.110347e-003
-2.109240e-003
-2.097306e-003
-2.073476e-003
-2.036176e-003
-1.983276e-003
-1.912140e-003
-1.819821e-003
-1.703482e-003
-1.561078e-003
-1.392263e-003
-1.199378e-003
-9.882303e-004
-7.682917e-004
-5.520346e-004
-3.533074e-004
-1.849898e-004
-5.642891e-005
2.866764e-005
7.308555e-005
8.509249e-005
7.583101e-005
5.632721e-005
3.520309e-005
1.764416e-005
5.638712e-006
-1.060277e-006
-3.817312e-006
-4.212122e-006
-3.517372e-006
-2.533472e-006
-1.650892e-006
-9.954922e-007
-5.614321e-007
-2.968986e-007
-1.464633e-007
-6.632516e-008
-2.651049e-008
-8.336890e-009
-9.898872e-010
1.377967e-009
1.711392e-009
1.374245e-009
9.296867e-010
5.678285e-010
3.232474e-010
1.768519e-010
9.916607e-011
6.659673e-011
8.923251e-009
8.081287e-009
5.239235e-009
-2.416923e-009
-2.043454e-008
-5.888721e-008
-1.349916e-007
-2.764326e-007
-5.246130e-007
-9.354560e-007
-1.572154e-006
-2.479029e-006
-3.620496e-006
-4.771508e-006
-5.368572e-006
-4.380830e-006
-3.215828e-007
8.454406e-006
2.308193e-005
4.320262e-005
6.591569e-005
8.506237e-005
9.134553e-005
7.360790e-005
2.102961e-005
-7.433235e-005
-2.155376e-004
-4.000626e-004
-6.204148e-004
-8.655336e-004
-1.122473e-003
-1.378046e-003
-1.620215e-003
-1.839053e-003
-2.027190e-003
-2.179805e-003
-2.294335e-003
-2.370119e-003
-2.408091e-003
-2.410547e-003
-2.380935e-003
-2.323633e-003
-2.243679e-003
-2.146482e-003
-2.037553e-003
-1.922295e-003
-1.805872e-003
-1.693158e-003
-1.588749e-003
-1.497007e-003
-1.422103e-003
-1.368021e-003
-1.338503e-003
-1.336876e-003
-1.365745e-003
-1.426482e-003
-1.518486e-003
-1.638180e-003
-1.777825e-003
-1.924342e-003
-2.058647e-003
-2.156229e-003
-2.189892e-003
-2.135174e-003
-1.977798e-003
-1.720836e-003
-1.387963e-003
-1.019761e-003
-6.633452e-004
-3.598035e-004
-1.348365e-004
5.174435e-006
7.142399e-005
8.563502e-005
7.127777e-005
4.717598e-005
2.482129e-005
9.015363e-006
1.260940e-007
-3.577263e-006
-4.237883e-006
-3.544612e-006
-2.509960e-006
-1.596191e-006
-9.359962e-007
-5.120918e-007
-2.619855e-007
-1.244700e-007
-5.380029e-008
-2.007586e-008
-5.424612e-009
8.554329e-011
1.605084e-009
1.612455e-009
1.195035e-009
7.687011e-010
4.534357e-010
2.550972e-010
1.464249e-010
9.994823e-011
9.980579e-009
7.704479e-009
1.163864e-009
-1.442746e-008
-4.837500e-008
-1.172810e-007
-2.488783e-007
-4.863146e-007
-8.905997e-007
-1.535073e-006
-2.478509e-006
-3.693947e-006
-4.927134e-006
-5.482341e-006
-4.007440e-006
1.531386e-006
1.339762e-005
3.289797e-005
5.842994e-005
8.316165e-005
9.328972e-005
6.842776e-005
-1.474569e-005
-1.759572e-004
-4.236795e-004
-7.498489e-004
-1.128866e-003
-1.520377e-003
-1.875801e-003
-2.147914e-003
-2.300502e-003
-2.314559e-003
-2.189282e-003
-1.938476e-003
-1.584680e-003
-1.153601e-003
-6.703683e-004
-1.577112e-004
3.646335e-004
8.800295e-004
1.374975e-003
1.839134e-003
2.265282e-003
2.649072e-003
2.988611e-003
3.283898e-003
3.536222e-003
3.747587e-003
3.920203e-003
4.056075e-003
4.156636e-003
4.222424e-003
4.252721e-003
4.245154e-003
4.195203e-003
4.095644e-003
3.936014e-003
3.702288e-003
3.377235e-003
2.942168e-003
2.381156e-003
1.688756e-003
8.813498e-004
9.624688e-006
-8.344256e-004
-1.526336e-003
-1.942634e-003
-2.014082e-003
-1.768875e-003
-1.326136e-003
-8.366172e-004
-4.185260e-004
-1.299891e-004
2.631172e-005
8.255972e-005
8.092398e-005
5.639868e-005
3.021847e-005
1.126857e-005
7.463740e-007
-3.507272e-006
-4.225058e-006
-3.466046e-006
-2.387310e-006
-1.472542e-006
-8.363063e-007
-4.424092e-007
-2.181856e-007
-9.932379e-008
-4.058770e-008
-1.379888e-008
-2.829341e-009
9.120313e-010
1.687763e-009
1.449207e-009
9.994639e-010
6.153319e-010
3.566250e-010
2.088704e-010
1.440368e-010
9.461113e-009
4.737573e-009
-7.999259e-009
-3.657979e-008
-9.598761e-008
-2.124146e-007
-4.283860e-007
-8.070421e-007
-1.429660e-006
-2.371926e-006
-3.630551e-006
-4.960045e-006
-5.595963e-006
-3.930340e-006
2.607050e-006
1.697992e-005
4.071020e-005