# vtk DataFile Version 3.0
vtk output
ASCII
DATASET STRUCTURED_POINTS
DIMENSIONS 100 100 1
SPACING 1 1 1
ORIGIN 0 0 0
POINT_DATA 10000
SCALARS SFBox_profile double
LOOKUP_TABLE default 
9.439918e-003
9.439919e-003
9.439920e-003
9.439921e-003
9.439921e-003
9.439921e-003
9.439920e-003
9.439920e-003
9.439919e-003
9.439920e-003
9.439920e-003
9.439920e-003
9.439920e-003
9.439920e-003
9.439920e-003
9.439921e-003
9.439921e-003
9.439920e-003
9.439920e-003
9.439920e-003
9.439919e-003
9.439919e-003
9.439919e-003
9.439919e-003
9.439920e-003
9.439920e-003
9.439920e-003
9.439920e-003
9.439920e-003
9.439921e-003
9.439921e-003
9.439921e-003
9.439921e-003
9.439921e-003
9.439921e-003
9.439921e-003
9.439921e-003
9.439921e-003
9.439921e-003
9.439921e-003
9.439921e-003
9.439921e-003
9.439921e-003
9.439921e-003
9.439921e-003
9.439921e-003
9.439921e-003
9.439921e-003
9.439921e-003
9.439921e-003
9.439921e-003
9.439921e-003
9.439921e-003
9.439921e-003
9.439921e-003
9.439921e-003
9.439921e-003
9.439921e-003
9.439921e-003
9.439921e-003
9.439921e-003
9.439921e-003
9.439921e-003
9.439921e-003
9.439921e-003
9.439921e-003
9.439921e-003
9.439921e-003
9.439921e-003
9.439920e-003
9.439920e-003
9.439920e-003
9.439920e-003
9.439920e-003
9.439920e-003
9.439920e-003
9.439919e-003
9.439920e-003
9.439920e-003
9.439920e-003
9.439920e-003
9.439920e-003
9.439920e-003
9.439920e-003
9.439920e-003
9.439920e-003
9.439920e-003
9.439920e-003
9.439920e-003
9.439920e-003
9.439920e-003
9.439920e-003
9.439920e-003
9.439920e-003
9.439920e-003
9.439920e-003
9.439920e-003
9.439920e-003
9.439920e-003
9.439920e-003
9.439918e-003
9.439919e-003
9.439920e-003
9.439921e-003
9.439921e-003
9.439921e-003
9.439920e-003
9.439920e-003
9.439919e-003
9.439920e-003
9.439920e-003
9.439920e-003
9.439920e-003
9.439920e-003
9.439920e-003
9.439921e-003
9.439921e-003
9.439920e-003
9.439920e-003
9.439920e-003
9.439919e-003
9.439919e-003
9.439919e-003
9.439919e-003
9.439920e-003
9.439920e-003
9.439920e-003
9.439920e-003
9.439920e-003
9.439921e-003
9.439921e-003
9.439921e-003
9.439921e-003
9.439921e-003
9.439921e-003
9.439921e-003
9.439921e-003
9.439921e-003
9.439921e-003
9.439921e-003
9.439921e-003
9.439921e-003
9.439921e-003
9.439921e-003
9.439921e-003
9.439921e-003
9.439921e-003
9.439921e-003
9.439921e-003
9.439921e-003
9.439921e-003
9.439921e-003
9.439921e-003
9.439921e-003
9.439921e-003
9.439921e-003
9.439921e-003
9.439921e-003
9.439921e-003
9.439921e-003
9.439921e-003
9.439921e-003
9.439921e-003
9.439921e-003
9.439921e-003
9.439921e-003
9.439921e-003
9.439921e-003
9.439921e-003
9.439920e-003
9.439920e-003
9.439920e-003
9.439920e-003
9.439920e-003
9.439920e-003
9.439920e-003
9.439919e-003
9.439920e-003
9.439920e-003
9.439920e-003
9.439920e-003
9.439920e-003
9.439920e-003
9.439920e-003
9.439920e-003
9.439920e-003
9.439920e-003
9.439920e-003
9.439920e-003
9.439920e-003
9.439920e-003
9.439920e-003
9.439920e-003
9.439920e-003
9.439920e-003
9.439920e-003
9.439920e-003
9.439920e-003
9.439920e-003
9.439920e-003
9.439920e-003
9.439920e-003
9.439920e-003
9.439920e-003
9.439920e-003
9.439920e-003
9.439920e-003
9.439920e-003
9.439920e-003
9.439920e-003
9.439920e-003
9.439920e-003
9.439920e-003
9.439920e-003
9.439920e-003
9.439920e-003
9.439920e-003
9.439920e-003
9.439920e-003
9.439920e-003
9.439920e-003
9.439920e-003
9.439920e-003
9.439920e-003
9.439920e-003
9.439920e-003
9.439920e-003
9.439920e-003
9.439920e-003
9.439920e-003
9.439920e-003
9.439920e-003
9.439920e-003
9.439920e-003
9.439920e-003
9.439921e-003
9.439921e-003
9.439921e-003
9.439921e-003
9.439921e-003
9.439921e-003
9.439922e-003
9.439922e-003
9.439922e-003
9.439922e-003
9.439922e-003
9.439922e-003
9.439922e-003
9.439922e-003
9.439922e-003
9.439922e-003
9.439922e-003
9.439922e-003
9.439922e-003
9.439922e-003
9.439922e-003
9.439922e-003
9.439922e-003
9.439921e-003
9.439921e-003
9.439921e-003
9.439921e-003
9.439921e-003
9.439921e-003
9.439920e-003
9.439920e-003
9.439920e-003
9.439920e-003
9.439920e-003
9.439920e-003
9.439920e-003
9.439920e-003
9.439920e-003
9.439920e-003
9.439920e-003
9.439920e-003
9.439920e-003
9.439920e-003
9.439920e-003
9.439920e-003
9.439920e-003
9.439920e-003
9.439920e-003
9.439920e-003
9.439920e-003
9.439920e-003
9.439920e-003
9.439920e-003
9.439920e-003
9.439920e-003
9.439920e-003
9.439920e-003
9.439920e-003
9.439920e-003
9.439920e-003
9.439920e-003
9.439920e-003
9.439920e-003
9.439920e-003
9.439920e-003
9.439921e-003
9.439921e-003
9.439920e-003
9.439920e-003
9.439919e-003
9.439919e-003
9.439920e-003
9.439920e-003
9.439920e-003
9.439921e-003
9.439921e-003
9.439920e-003
9.439920e-003
9.439920e-003
9.439919e-003
9.439919e-003
9.439919e-003
9.439920e-003
9.439920e-003
9.439920e-003
9.439921e-003
9.439921e-003
9.439921e-003
9.439921e-003
9.439921e-003
9.439921e-003
9.439920e-003
9.439920e-003
9.439920e-003
9.439920e-003
9.439920e-003
9.439920e-003
9.439920e-003
9.439921e-003
9.439921e-003
9.439921e-003
9.439921e-003
9.439922e-003
9.439922e-003
9.439922e-003
9.439923e-003
9.439923e-003
9.439923e-003
9.439924e-003
9.439924e-003
9.439924e-003
9.439924e-003
9.439924e-003
9.439924e-003
9.439924e-003
9.439924e-003
9.439924e-003
9.439924e-003
9.439924e-003
9.439924e-003
9.439924e-003
9.439923e-003
9.439923e-003
9.439923e-003
9.439922e-003
9.439922e-003
9.439922e-003
9.439921e-003
9.439921e-003
9.439921e-003
9.439921e-003
9.439920e-003
9.439920e-003
9.439920e-003
9.439920e-003
9.439920e-003
9.439920e-003
9.439920e-003
9.439920e-003
9.439921e-003
9.439921e-003
9.439921e-003
9.439920e-003
9.439920e-003
9.439920e-003
9.439920e-003
9.439920e-003
9.439920e-003
9.439920e-003
9.439920e-003
9.439920e-003
9.439920e-003
9.439920e-003
9.439920e-003
9.439920e-003
9.439920e-003
9.439920e-003
9.439920e-003
9.439920e-003
9.439920e-003
9.439920e-003
9.439920e-003
9.439920e-003
9.439920e-003
9.439920e-003
9.439922e-003
9.439921e-003
9.439920e-003
9.439919e-003
9.439919e-003
9.439919e-003
9.439920e-003
9.439920e-003
9.439920e-003
9.439920e-003
9.439920e-003
9.439920e-003
9.439920e-003
9.439920e-003
9.439920e-003
9.439919e-003
9.439920e-003
9.439920e-003
9.439920e-003
9.439920e-003
9.439920e-003
9.439921e-003
9.439921e-003
9.439921e-003
9.439921e-003
9.439921e-003
9.439921e-003
9.439921e-003
9.439921e-003
9.439921e-003
9.439922e-003
9.439922e-003
9.439922e-003
9.439923e-003
9.439923e-003
9.439924e-003
9.439924e-003
9.439925e-003
9.439925e-003
9.439926e-003
9.439926e-003
9.439927e-003
9.439927e-003
9.439928e-003
9.439928e-003
9.439928e-003
9.439928e-003
9.439928e-003
9.439929e-003
9.439929e-003
9.439929e-003
9.439928e-003
9.439928e-003
9.439928e-003
9.439928e-003
9.439927e-003
9.439927e-003
9.439927e-003
9.439926e-003
9.439926e-003
9.439925e-003
9.439925e-003
9.439924e-003
9.439923e-003
9.439923e-003
9.439922e-003
9.439922e-003
9.439922e-003
9.439921e-003
9.439921e-003
9.439921e-003
9.439921e-003
9.439920e-003
9.439920e-003
9.439920e-003
9.439920e-003
9.439920e-003
9.439920e-003
9.439920e-003
9.439920e-003
9.439920e-003
9.439920e-003
9.439920e-003
9.439920e-003
9.439920e-003
9.439920e-003
9.439920e-003
9.439920e-003
9.439920e-003
9.439920e-003
9.439920e-003
9.439920e-003
9.439920e-003
9.439920e-003
9.439920e-003
9.439920e-003
9.439920e-003
9.439920e-003
9.439920e-003
9.439920e-003
9.439921e-003
9.439921e-003
9.439920e-003
9.439919e-003
9.439919e-003
9.439920e-003
9.439920e-003
9.439920e-003
9.439920e-003
9.439920e-003
9.439920e-003
9.439920e-003
9.439920e-003
9.439920e-003
9.439920e-003
9.439920e-003
9.439920e-003
9.439920e-003
9.439920e-003
9.439920e-003
9.439920e-003
9.439920e-003
9.439920e-003
9.439920e-003
9.439920e-003
9.439921e-003
9.439921e-003
9.439922e-003
9.439923e-003
9.439923e-003
9.439924e-003
9.439925e-003
9.439926e-003
9.439927e-003
9.439928e-003
9.439928e-003
9.439929e-003
9.439930e-003
9.439931e-003
9.439931e-003
9.439932e-003
9.439932e-003
9.439933e-003
9.439933e-003
9.439934e-003
9.439934e-003
9.439934e-003
9.439935e-003
9.439935e-003
9.439935e-003
9.439935e-003
9.439934e-003
9.439934e-003
9.439934e-003
9.439934e-003
9.439933e-003
9.439933e-003
9.439932e-003
9.439931e-003
9.439931e-003
9.439930e-003
9.439929e-003
9.439928e-003
9.439927e-003
9.439927e-003
9.439926e-003
9.439925e-003
9.439924e-003
9.439923e-003
9.439923e-003
9.439922e-003
9.439921e-003
9.439921e-003
9.439920e-003
9.439920e-003
9.439920e-003
9.439920e-003
9.439920e-003
9.439920e-003
9.439920e-003
9.439920e-003
9.439920e-003
9.439920e-003
9.439920e-003
9.439920e-003
9.439920e-003
9.439920e-003
9.439920e-003
9.439920e-003
9.439920e-003
9.439920e-003
9.439920e-003
9.439920e-003
9.439920e-003
9.439920e-003
9.439920e-003
9.439920e-003
9.439920e-003
9.439920e-003
9.439920e-003
9.439920e-003
9.439920e-003
9.439920e-003
9.439920e-003
9.439920e-003
9.439921e-003
9.439921e-003
9.439920e-003
9.439920e-003
9.439919e-003
9.439919e-003
9.439919e-003
9.439920e-003
9.439920e-003
9.439921e-003
9.439921e-003
9.439921e-003
9.439920e-003
9.439920e-003
9.439920e-003
9.439920e-003
9.439920e-003
9.439920e-003
9.439921e-003
9.439922e-003
9.439922e-003
9.439923e-003
9.439924e-003
9.439925e-003
9.439927e-003
9.439928e-003
9.439929e-003
9.439930e-003
9.439932e-003
9.439933e-003
9.439934e-003
9.439935e-003
9.439936e-003
9.439937e-003
9.439938e-003
9.439939e-003
9.439940e-003
9.439940e-003
9.439941e-003
9.439941e-003
9.439942e-003
9.439942e-003
9.439942e-003
9.439942e-003
9.439942e-003
9.439942e-003
9.439942e-003
9.439941e-003
9.439941e-003
9.439941e-003
9.439940e-003
9.439939e-003
9.439939e-003
9.439938e-003
9.439937e-003
9.439936e-003
9.439935e-003
9.439934e-003
9.439932e-003
9.439931e-003
9.439930e-003
9.439929e-003
9.439927e-003
9.439926e-003
9.439925e-003
9.439924e-003
9.439923e-003
9.439922e-003
9.439921e-003
9.439921e-003
9.439920e-003
9.439920e-003
9.439920e-003
9.439920e-003
9.439920e-003
9.439920e-003
9.439920e-003
9.439921e-003
9.439920e-003
9.439920e-003
9.439920e-003
9.439920e-003
9.439920e-003
9.439920e-003
9.439920e-003
9.439920e-003
9.439920e-003
9.439920e-003
9.439920e-003
9.439920e-003
9.439920e-003
9.439920e-003
9.439920e-003
9.439920e-003
9.439920e-003
9.439918e-003
9.439919e-003
9.439920e-003
9.439921e-003
9.439921e-003
9.439921e-003
9.439920e-003
9.439920e-003
9.439920e-003
9.439920e-003
9.439920e-003
9.439920e-003
9.439920e-003
9.439920e-003
9.439921e-003
9.439920e-003
9.439920e-003
9.439920e-003
9.439920e-003
9.439921e-003
9.439921e-003
9.439922e-003
9.439922e-003
9.439923e-003
9.439924e-003
9.439925e-003
9.439927e-003
9.439928e-003
9.439930e-003
9.439931e-003
9.439933e-003
9.439934e-003
9.439936e-003
9.439938e-003
9.439939e-003
9.439941e-003
9.439942e-003
9.439943e-003
9.439944e-003
9.439945e-003
9.439945e-003
9.439946e-003
9.439946e-003
9.439946e-003
9.439946e-003
9.439946e-003
9.439946e-003
9.439946e-003
9.439946e-003
9.439946e-003
9.439946e-003
9.439945e-003
9.439945e-003
9.439945e-003
9.439945e-003
9.439944e-003
9.439944e-003
9.439944e-003
9.439943e-003
9.439943e-003
9.439942e-003
9.439941e-003
9.439940e-003
9.439938e-003
9.439937e-003
9.439935e-003
9.439933e-003
9.439932e-003
9.439930e-003
9.439929e-003
9.439927e-003
9.439926e-003
9.439925e-003
9.439924e-003
9.439923e-003
9.439922e-003
9.439921e-003
9.439921e-003
9.439920e-003
9.439920e-003
9.439920e-003
9.439920e-003
9.439920e-003
9.439920e-003
9.439920e-003
9.439920e-003
9.439920e-003
9.439920e-003
9.439920e-003
9.439920e-003
9.439920e-003
9.439920e-003
9.439920e-003
9.439920e-003
9.439920e-003
9.439920e-003
9.439920e-003
9.439920e-003
9.439920e-003
9.439920e-003
9.439918e-003
9.439919e-003
9.439920e-003
9.439921e-003
9.439921e-003
9.439920e-003
9.439920e-003
9.439919e-003
9.439920e-003
9.439920e-003
9.439920e-003
9.439920e-003
9.439920e-003
9.439920e-003
9.439920e-003
9.439920e-003
9.439920e-003
9.439920e-003
9.439921e-003
9.439922e-003
9.439923e-003
9.439924e-003
9.439925e-003
9.439927e-003
9.439928e-003
9.439930e-003
9.439932e-003
9.439933e-003
9.439935e-003
9.439938e-003
9.439940e-003
9.439941e-003
9.439943e-003
9.439944e-003
9.439945e-003
9.439946e-003
9.439946e-003
9.439945e-003
9.439945e-003
9.439943e-003
9.439942e-003
9.439940e-003
9.439938e-003
9.439936e-003
9.439934e-003
9.439932e-003
9.439930e-003
9.439929e-003
9.439928e-003
9.439927e-003
9.439927e-003
9.439927e-003
9.439927e-003
9.439928e-003
9.439930e-003
9.439931e-003
9.439933e-003
9.439935e-003
9.439937e-003
9.439939e-003
9.439940e-003
9.439942e-003
9.439942e-003
9.439942e-003
9.439942e-003
9.439941e-003
9.439939e-003
9.439938e-003
9.439936e-003
9.439934e-003
9.439932e-003
9.439930e-003
9.439928e-003
9.439927e-003
9.439925e-003
9.439924e-003
9.439923e-003
9.439922e-003
9.439921e-003
9.439921e-003
9.439920e-003
9.439920e-003
9.439920e-003
9.439920e-003
9.439920e-003
9.439920e-003
9.439920e-003
9.439920e-003
9.439920e-003
9.439920e-003
9.439920e-003
9.439920e-003
9.439920e-003
9.439920e-003
9.439920e-003
9.439920e-003
9.439920e-003
9.439920e-003
9.439920e-003
9.439920e-003
9.439919e-003
9.439920e-003
9.439921e-003
9.439921e-003
9.439920e-003
9.439919e-003
9.439919e-003
9.439919e-003
9.439920e-003
9.439921e-003
9.439921e-003
9.439921e-003
9.439920e-003
9.439920e-003
9.439920e-003
9.439920e-003
9.439921e-003
9.439921e-003
9.439922e-003
9.439924e-003
9.439925e-003
9.439927e-003
9.439929e-003
9.439931e-003
9.439933e-003
9.439936e-003
9.439938e-003
9.439941e-003
9.439943e-003
9.439945e-003
9.439946e-003
9.439946e-003
9.439946e-003
9.439943e-003
9.439940e-003
9.439935e-003
9.439929e-003
9.439922e-003
9.439914e-003
9.439905e-003
9.439896e-003
9.439886e-003
9.439876e-003
9.439867e-003
9.439858e-003
9.439850e-003
9.439843e-003
9.439837e-003
9.439833e-003
9.439831e-003
9.439830e-003
9.439832e-003
9.439835e-003
9.439840e-003
9.439847e-003
9.439856e-003
9.439865e-003
9.439875e-003
9.439886e-003
9.439897e-003
9.439907e-003
9.439916e-003
9.439924e-003
9.439931e-003
9.439936e-003
9.439940e-003
9.439941e-003
9.439942e-003
9.439941e-003
9.439940e-003
9.439938e-003
9.439935e-003
9.439933e-003
9.439931e-003
9.439929e-003
9.439927e-003
9.439925e-003
9.439924e-003
9.439923e-003
9.439922e-003
9.439921e-003
9.439920e-003
9.439920e-003
9.439920e-003
9.439920e-003
9.439920e-003
9.439920e-003
9.439920e-003
9.439920e-003
9.439920e-003
9.439920e-003
9.439920e-003
9.439920e-003
9.439920e-003
9.439920e-003
9.439920e-003
9.439920e-003
9.439920e-003
9.439920e-003
9.439920e-003
9.439921e-003
9.439921e-003
9.439920e-003
9.439920e-003
9.439920e-003
9.439919e-003
9.439919e-003
9.439920e-003
9.439920e-003
9.439921e-003
9.439921e-003
9.439920e-003
9.439920e-003
9.439920e-003
9.439920e-003
9.439921e-003
9.439922e-003
9.439923e-003
9.439925e-003
9.439926e-003
9.439928e-003
9.439931e-003
9.439934e-003
9.439937e-003
9.439940e-003
9.439943e-003
9.439945e-003
9.439947e-003
9.439947e-003
9.439945e-003
9.439940e-003
9.439933e-003
9.439922e-003
9.439907e-003
9.439888e-003
9.439867e-003
9.439841e-003
9.439814e-003
9.439784e-003
9.439752e-003
9.439720e-003
9.439688e-003
9.439657e-003
9.439627e-003
9.439599e-003
9.439575e-003
9.439554e-003
9.439538e-003
9.439527e-003
9.439521e-003
9.439520e-003
9.439525e-003
9.439536e-003
9.439553e-003
9.439575e-003
9.439601e-003
9.439632e-003
9.439665e-003
9.439700e-003
9.439736e-003
9.439772e-003
9.439806e-003
9.439837e-003
9.439864e-003
9.439888e-003
9.439907e-003
9.439921e-003
9.439932e-003
9.439938e-003
9.439941e-003
9.439942e-003
9.439941e-003
9.439939e-003
9.439936e-003
9.439933e-003
9.439931e-003
9.439928e-003
9.439926e-003
9.439925e-003
9.439923e-003
9.439922e-003
9.439921e-003
9.439921e-003
9.439920e-003
9.439920e-003
9.439920e-003
9.439920e-003
9.439920e-003
9.439920e-003
9.439920e-003
9.439920e-003
9.439920e-003
9.439920e-003
9.439920e-003
9.439920e-003
9.439920e-003
9.439920e-003
9.439920e-003
9.439920e-003
9.439920e-003
9.439921e-003
9.439921e-003
9.439920e-003
9.439919e-003
9.439919e-003
9.439920e-003
9.439920e-003
9.439920e-003
9.439920e-003
9.439920e-003
9.439920e-003
9.439920e-003
9.439920e-003
9.439921e-003
9.439922e-003
9.439923e-003
9.439925e-003
9.439926e-003
9.439928e-003
9.439931e-003
9.439933e-003
9.439937e-003
9.439941e-003
9.439944e-003
9.439947e-003
9.439948e-003
9.439946e-003
9.439941e-003
9.439930e-003
9.439913e-003
9.439888e-003
9.439854e-003
9.439812e-003
9.439761e-003
9.439700e-003
9.439632e-003
9.439556e-003
9.439474e-003
9.439387e-003
9.439298e-003
9.439209e-003
9.439120e-003
9.439035e-003
9.438955e-003
9.438882e-003
9.438818e-003
9.438764e-003
9.438722e-003
9.438693e-003
9.438678e-003
9.438678e-003
9.438693e-003
9.438723e-003
9.438768e-003
9.438827e-003
9.438899e-003
9.438982e-003
9.439073e-003
9.439170e-003
9.439270e-003
9.439370e-003
9.439468e-003
9.439559e-003
9.439643e-003
9.439716e-003
9.439779e-003
9.439830e-003
9.439870e-003
9.439900e-003
9.439920e-003
9.439933e-003
9.439940e-003
9.439942e-003
9.439942e-003
9.439939e-003
9.439936e-003
9.439933e-003
9.439930e-003
9.439927e-003
9.439926e-003
9.439924e-003
9.439923e-003
9.439922e-003
9.439921e-003
9.439920e-003
9.439920e-003
9.439920e-003
9.439920e-003
9.439920e-003
9.439920e-003
9.439920e-003
9.439920e-003
9.439920e-003
9.439920e-003
9.439920e-003
9.439920e-003
9.439920e-003
9.439920e-003
9.439920e-003
9.439920e-003
9.439922e-003
9.439920e-003
9.439919e-003
9.439919e-003
9.439920e-003
9.439921e-003
9.439921e-003
9.439921e-003
9.439920e-003
9.439920e-003
9.439920e-003
9.439920e-003
9.439921e-003
9.439922e-003
9.439924e-003
9.439925e-003
9.439927e-003
9.439930e-003
9.439933e-003
9.439937e-003
9.439941e-003
9.439945e-003
9.439949e-003
9.439949e-003
9.439946e-003
9.439937e-003
9.439918e-003
9.439889e-003
9.439844e-003
9.439783e-003
9.439702e-003
9.439601e-003
9.439478e-003
9.439333e-003
9.439167e-003
9.438982e-003
9.438782e-003
9.438569e-003
9.438348e-003
9.438123e-003
9.437898e-003
9.437679e-003
9.437469e-003
9.437274e-003
9.437097e-003
9.436942e-003
9.436813e-003
9.436712e-003
9.436644e-003
9.436609e-003
9.436610e-003
9.436648e-003
9.436722e-003
9.436832e-003
9.436977e-003
9.437153e-003
9.437357e-003
9.437582e-003
9.437824e-003
9.438076e-003
9.438330e-003
9.438579e-003
9.438816e-003
9.439036e-003
9.439234e-003
9.439406e-003
9.439552e-003
9.439670e-003
9.439762e-003
9.439830e-003
9.439879e-003
9.439911e-003
9.439930e-003
9.439939e-003
9.439943e-003
9.439942e-003
9.439939e-003
9.439935e-003
9.439932e-003
9.439929e-003
9.439927e-003
9.439925e-003
9.439923e-003
9.439922e-003
9.439921e-003
9.439920e-003
9.439920e-003
9.439920e-003
9.439920e-003
9.439920e-003
9.439920e-003
9.439920e-003
9.439920e-003
9.439920e-003
9.439920e-003
9.439920e-003
9.439920e-003
9.439920e-003
9.439920e-003
9.439920e-003
9.439921e-003
9.439920e-003
9.439919e-003
9.439919e-003
9.439920e-003
9.439921e-003
9.439921e-003
9.439921e-003
9.439920e-003
9.439920e-003
9.439920e-003
9.439921e-003
9.439923e-003
9.439924e-003
9.439926e-003
9.439928e-003
9.439931e-003
9.439935e-003
9.439940e-003
9.439945e-003
9.439949e-003
9.439951e-003
9.439948e-003
9.439936e-003
9.439912e-003
9.439870e-003
9.439805e-003
9.439710e-003
9.439579e-003
9.439407e-003
9.439188e-003
9.438921e-003
9.438604e-003
9.438238e-003
9.437827e-003
9.437376e-003
9.436892e-003
9.436384e-003
9.435862e-003
9.435335e-003
9.434813e-003
9.434308e-003
9.433828e-003
9.433383e-003
9.432981e-003
9.432632e-003
9.432342e-003
9.432118e-003
9.431966e-003
9.431890e-003
9.431895e-003
9.431982e-003
9.432151e-003
9.432403e-003
9.432732e-003
9.433133e-003
9.433598e-003
9.434117e-003
9.434676e-003
9.435261e-003
9.435856e-003
9.436445e-003
9.437013e-003
9.437544e-003
9.438029e-003
9.438458e-003
9.438825e-003
9.439130e-003
9.439375e-003
9.439564e-003
9.439703e-003
9.439802e-003
9.439867e-003
9.439908e-003
9.439930e-003
9.439941e-003
9.439943e-003
9.439942e-003
9.439938e-003
9.439934e-003
9.439930e-003
9.439927e-003
9.439925e-003
9.439924e-003
9.439922e-003
9.439921e-003
9.439920e-003
9.439920e-003
9.439920e-003
9.439920e-003
9.439920e-003
9.439920e-003
9.439920e-003
9.439920e-003
9.439920e-003
9.439920e-003
9.439920e-003
9.439920e-003
9.439920e-003
9.439920e-003
9.439920e-003
9.439920e-003
9.439920e-003
9.439920e-003
9.439920e-003
9.439920e-003
9.439920e-003
9.439920e-003
9.439920e-003
9.439920e-003
9.439921e-003
9.439923e-003
9.439925e-003
9.439927e-003
9.439929e-003
9.439933e-003
9.439938e-003
9.439943e-003
9.439949e-003
9.439952e-003
9.439951e-003
9.439940e-003
9.439914e-003
9.439866e-003
9.439785e-003
9.439659e-003
9.439476e-003
9.439222e-003
9.438885e-003
9.438453e-003
9.437918e-003
9.437275e-003
9.436524e-003
9.435670e-003
9.434722e-003
9.433695e-003
9.432606e-003
9.431473e-003
9.430319e-003
9.429165e-003
9.428032e-003
9.426942e-003
9.425915e-003
9.424968e-003
9.424119e-003
9.423384e-003
9.422777e-003
9.422310e-003
9.421995e-003
9.421840e-003
9.421854e-003
9.422040e-003
9.422400e-003
9.422932e-003
9.423630e-003
9.424484e-003
9.425477e-003
9.426590e-003
9.427797e-003
9.429068e-003
9.430372e-003
9.431674e-003
9.432940e-003
9.434139e-003
9.435245e-003
9.436235e-003
9.437096e-003
9.437823e-003
9.438415e-003
9.438883e-003
9.439238e-003
9.439497e-003
9.439677e-003
9.439797e-003
9.439871e-003
9.439914e-003
9.439935e-003
9.439943e-003
9.439943e-003
9.439940e-003
9.439935e-003
9.439931e-003
9.439928e-003
9.439926e-003
9.439924e-003
9.439923e-003
9.439921e-003
9.439921e-003
9.439920e-003
9.439920e-003
9.439920e-003
9.439920e-003
9.439920e-003
9.439920e-003
9.439920e-003
9.439920e-003
9.439920e-003
9.439920e-003
9.439920e-003
9.439920e-003
9.439919e-003
9.439920e-003
9.439920e-003
9.439921e-003
9.439920e-003
9.439920e-003
9.439920e-003
9.439920e-003
9.439921e-003
9.439922e-003
9.439923e-003
9.439925e-003
9.439928e-003
9.439931e-003
9.439935e-003
9.439940e-003
9.439946e-003
9.439952e-003
9.439953e-003
9.439947e-003
9.439926e-003
9.439879e-003
9.439793e-003
9.439651e-003
9.439431e-003
9.439107e-003
9.438652e-003
9.438039e-003
9.437241e-003
9.436238e-003
9.435016e-003
9.433570e-003
9.431905e-003
9.430038e-003
9.427993e-003
9.425803e-003
9.423507e-003
9.421148e-003
9.418770e-003
9.416417e-003
9.414130e-003
9.411950e-003
9.409912e-003
9.408049e-003
9.406391e-003
9.404965e-003
9.403795e-003
9.402901e-003
9.402303e-003
9.402016e-003
9.402053e-003
9.402422e-003
9.403126e-003
9.404165e-003
9.405530e-003
9.407205e-003
9.409163e-003
9.411372e-003
9.413786e-003
9.416352e-003
9.419010e-003
9.421693e-003
9.424333e-003
9.426863e-003
9.429226e-003
9.431370e-003
9.433261e-003
9.434878e-003
9.436218e-003
9.437293e-003
9.438125e-003
9.438746e-003
9.439190e-003
9.439496e-003
9.439695e-003
9.439818e-003
9.439889e-003
9.439925e-003
9.439940e-003
9.439944e-003
9.439941e-003
9.439937e-003
9.439932e-003
9.439929e-003
9.439926e-003
9.439924e-003
9.439923e-003
9.439922e-003
9.439921e-003
9.439920e-003
9.439920e-003
9.439920e-003
9.439920e-003
9.439920e-003
9.439920e-003
9.439920e-003
9.439920e-003
9.439920e-003
9.439920e-003
9.439920e-003
9.439918e-003
9.439920e-003
9.439921e-003
9.439921e-003
9.439921e-003
9.439920e-003
9.439919e-003
9.439920e-003
9.439922e-003
9.439924e-003
9.439925e-003
9.439928e-003
9.439931e-003
9.439936e-003
9.439942e-003
9.439949e-003
9.439954e-003
9.439954e-003
9.439941e-003
9.439905e-003
9.439830e-003
9.439694e-003
9.439466e-003
9.439108e-003
9.438574e-003
9.437812e-003
9.436765e-003
9.435382e-003
9.433615e-003
9.431430e-003
9.428811e-003
9.425760e-003
9.422302e-003
9.418485e-003
9.414370e-003
9.410034e-003
9.405561e-003
9.401037e-003
9.396548e-003
9.392174e-003
9.387988e-003
9.384053e-003
9.380427e-003
9.377156e-003
9.374282e-003
9.371840e-003
9.369859e-003
9.368366e-003
9.367384e-003
9.366932e-003
9.367029e-003
9.367686e-003
9.368914e-003
9.370714e-003
9.373081e-003
9.376000e-003
9.379443e-003
9.383366e-003
9.387708e-003
9.392391e-003
9.397317e-003
9.402373e-003
9.407435e-003
9.412373e-003
9.417063e-003
9.421395e-003
9.425280e-003
9.428660e-003
9.431508e-003
9.433829e-003
9.435657e-003
9.437045e-003
9.438061e-003
9.438775e-003
9.439255e-003
9.439564e-003
9.439751e-003
9.439858e-003
9.439912e-003
9.439937e-003
9.439944e-003
9.439942e-003
9.439938e-003
9.439933e-003
9.439929e-003
9.439926e-003
9.439924e-003
9.439923e-003
9.439922e-003
9.439921e-003
9.439920e-003
9.439920e-003
9.439920e-003
9.439920e-003
9.439920e-003
9.439920e-003
9.439920e-003
9.439920e-003
9.439920e-003
9.439920e-003
9.439918e-003
9.439920e-003
9.439921e-003
9.439921e-003
9.439921e-003
9.439920e-003
9.439920e-003
9.439921e-003
9.439924e-003
9.439926e-003
9.439928e-003
9.439932e-003
9.439937e-003
9.439944e-003
9.439951e-003
9.439956e-003
9.439953e-003
9.439933e-003
9.439880e-003
9.439770e-003
9.439570e-003
9.439231e-003
9.438688e-003
9.437863e-003
9.436662e-003
9.434983e-003
9.432724e-003
9.429790e-003
9.426109e-003
9.421640e-003
9.416384e-003
9.410388e-003
9.403741e-003
9.396570e-003
9.389031e-003
9.381293e-003
9.373527e-003
9.365895e-003
9.358542e-003
9.351590e-003
9.345138e-003
9.339260e-003
9.334009e-003
9.329419e-003
9.325509e-003
9.322290e-003
9.319763e-003
9.317929e-003
9.316789e-003
9.316344e-003
9.316602e-003
9.317574e-003
9.319276e-003
9.321729e-003
9.324955e-003
9.328975e-003
9.333804e-003
9.339438e-003
9.345852e-003
9.352985e-003
9.360737e-003
9.368963e-003
9.377476e-003
9.386054e-003
9.394458e-003
9.402447e-003
9.409808e-003
9.416372e-003
9.422028e-003
9.426736e-003
9.430515e-003
9.433439e-003
9.435619e-003
9.437181e-003
9.438255e-003
9.438964e-003
9.439409e-003
9.439675e-003
9.439823e-003
9.439899e-003
9.439932e-003
9.439943e-003
9.439943e-003
9.439939e-003
9.439933e-003
9.439929e-003
9.439926e-003
9.439924e-003
9.439923e-003
9.439921e-003
9.439920e-003
9.439920e-003
9.439920e-003
9.439920e-003
9.439920e-003
9.439920e-003
9.439920e-003
9.439920e-003
9.439920e-003
9.439920e-003
9.439919e-003
9.439920e-003
9.439921e-003
9.439921e-003
9.439920e-003
9.439920e-003
9.439921e-003
9.439923e-003
9.439926e-003
9.439929e-003
9.439932e-003
9.439938e-003
9.439945e-003
9.439953e-003
9.439957e-003
9.439952e-003
9.439924e-003
9.439853e-003
9.439706e-003
9.439432e-003
9.438959e-003
9.438187e-003
9.436988e-003
9.435207e-003
9.432667e-003
9.429183e-003
9.424585e-003
9.418736e-003
9.411562e-003
9.403075e-003
9.393384e-003
9.382695e-003
9.371298e-003
9.359540e-003
9.347790e-003
9.336406e-003
9.325704e-003
9.315941e-003
9.307300e-003
9.299890e-003
9.293747e-003
9.288845e-003
9.285108e-003
9.282419e-003
9.280637e-003
9.279607e-003
9.279174e-003
9.279190e-003
9.279526e-003
9.280080e-003
9.280782e-003
9.281604e-003
9.282569e-003
9.283749e-003
9.285274e-003
9.287325e-003
9.290122e-003
9.293904e-003
9.298902e-003
9.305301e-003
9.313203e-003
9.322599e-003
9.333341e-003
9.345144e-003
9.357604e-003
9.370235e-003
9.382526e-003
9.394005e-003
9.404294e-003
9.413143e-003
9.420450e-003
9.426242e-003
9.430652e-003
9.433876e-003
9.436139e-003
9.437662e-003
9.438644e-003
9.439246e-003
9.439598e-003
9.439790e-003
9.439886e-003
9.439929e-003
9.439943e-003
9.439943e-003
9.439939e-003
9.439933e-003
9.439929e-003
9.439926e-003
9.439924e-003
9.439922e-003
9.439921e-003
9.439920e-003
9.439920e-003
9.439920e-003
9.439920e-003
9.439920e-003
9.439920e-003
9.439920e-003
9.439920e-003
9.439920e-003
9.439920e-003
9.439920e-003
9.439920e-003
9.439920e-003
9.439921e-003
9.439921e-003
9.439923e-003
9.439925e-003
9.439928e-003
9.439932e-003
9.439938e-003
9.439946e-003
9.439954e-003
9.439958e-003
9.439951e-003
9.439917e-003
9.439830e-003
9.439645e-003
9.439295e-003
9.438676e-003
9.437643e-003
9.436001e-003
9.433507e-003
9.429876e-003
9.424801e-003
9.417992e-003
9.409224e-003
9.398398e-003
9.385600e-003
9.371135e-003
9.355540e-003
9.339550e-003
9.324028e-003
9.309876e-003
9.297931e-003
9.288882e-003
9.283205e-003
9.281140e-003
9.282686e-003
9.287625e-003
9.295556e-003
9.305933e-003
9.318108e-003
9.331362e-003
9.344950e-003
9.358128e-003
9.370182e-003
9.380454e-003
9.388368e-003
9.393446e-003
9.395338e-003
9.393848e-003
9.388964e-003
9.380887e-003
9.370054e-003
9.357145e-003
9.343066e-003
9.328909e-003
9.315871e-003
9.305150e-003
9.297814e-003
9.294673e-003
9.296163e-003
9.302273e-003
9.312530e-003
9.326056e-003
9.341697e-003
9.358191e-003
9.374350e-003
9.389210e-003
9.402123e-003
9.412773e-003
9.421139e-003
9.427415e-003
9.431918e-003
9.435012e-003
9.437047e-003
9.438327e-003
9.439094e-003
9.439530e-003
9.439763e-003
9.439877e-003
9.439926e-003
9.439942e-003
9.439943e-003
9.439939e-003