# vtk DataFile Version 3.0
vtk output
ASCII
DATASET STRUCTURED_POINTS
DIMENSIONS 100 100 1
SPACING 1 1 1
ORIGIN 0 0 0
POINT_DATA 10000
SCALARS SFBox_profile double
LOOKUP_TABLE default 
0.000000e+000
0.000000e+000
0.000000e+000
0.000000e+000
0.000000e+000
0.000000e+000
0.000000e+000
0.000000e+000
0.000000e+000
0.000000e+000
0.000000e+000
0.000000e+000
0.000000e+000
0.000000e+000
0.000000e+000
0.000000e+000
0.000000e+000
0.000000e+000
0.000000e+000
0.000000e+000
0.000000e+000
0.000000e+000
0.000000e+000
0.000000e+000
0.000000e+000
0.000000e+000
0.000000e+000
0.000000e+000
0.000000e+000
0.000000e+000
0.000000e+000
0.000000e+000
0.000000e+000
0.000000e+000
0.000000e+000
0.000000e+000
0.000000e+000
0.000000e+000
0.000000e+000
0.000000e+000
0.000000e+000
0.000000e+000
0.000000e+000
0.000000e+000
0.000000e+000
0.000000e+000
0.000000e+000
0.000000e+000
0.000000e+000
0.000000e+000
0.000000e+000
0.000000e+000
0.000000e+000
0.000000e+000
0.000000e+000
0.000000e+000
0.000000e+000
0.000000e+000
0.000000e+000
0.000000e+000
0.000000e+000
0.000000e+000
0.000000e+000
0.000000e+000
0.000000e+000
0.000000e+000
0.000000e+000
0.000000e+000
0.000000e+000
0.000000e+000
0.000000e+000
0.000000e+000
0.000000e+000
0.000000e+000
0.000000e+000
0.000000e+000
0.000000e+000
0.000000e+000
0.000000e+000
0.000000e+000
0.000000e+000
0.000000e+000
0.000000e+000
0.000000e+000
0.000000e+000
0.000000e+000
0.000000e+000
0.000000e+000
0.000000e+000
0.000000e+000
0.000000e+000
0.000000e+000
0.000000e+000
0.000000e+000
0.000000e+000
0.000000e+000
0.000000e+000
0.000000e+000
0.000000e+000
0.000000e+000
2.441995e-009
1.016354e-009
-8.821335e-010
-2.144411e-009
-2.113289e-009
-8.859105e-010
8.039896e-010
2.014698e-009
2.105265e-009
1.077078e-009
-4.369105e-010
-1.564218e-009
-1.754988e-009
-1.124870e-009
-2.878024e-010
2.098540e-010
3.524958e-010
5.604161e-010
1.116244e-009
1.719176e-009
1.697505e-009
7.222627e-010
-7.317071e-010
-1.734066e-009
-1.756464e-009
-1.144159e-009
-6.852583e-010
-7.465694e-010
-9.335251e-010
-6.365830e-010
1.918485e-010
9.444809e-010
1.050374e-009
6.221088e-010
2.947381e-010
4.683190e-010
8.716934e-010
9.513620e-010
5.770794e-010
1.916807e-010
2.469600e-010
6.518561e-010
9.144775e-010
7.692140e-010
4.835342e-010
4.767177e-010
7.693882e-010
9.774738e-010
8.368973e-010
5.547487e-010
5.238062e-010
7.841441e-010
9.544139e-010
7.383565e-010
3.434947e-010
2.417708e-010
5.549462e-010
8.604548e-010
7.022726e-010
1.859706e-010
-1.047590e-010
1.975163e-010
7.819390e-010
1.012355e-009
6.833590e-010
2.619388e-010
3.119048e-010
7.902009e-010
1.067210e-009
6.588350e-010
-1.930557e-010
-7.784046e-010
-7.159418e-010
-3.636537e-010
-3.719308e-010
-8.972634e-010
-1.375148e-009
-1.112972e-009
-5.404572e-011
1.107780e-009
1.570590e-009
1.146202e-009
3.504102e-010
-1.619410e-010
-1.996675e-010
-9.681326e-011
-2.507879e-010
-6.572242e-010
-9.018891e-010
-5.839086e-010
2.571031e-010
1.105607e-009
1.350254e-009
7.566298e-010
-3.384764e-010
-1.245254e-009
-1.382191e-009
-6.590381e-010
4.666711e-010
1.285094e-009
4.293684e-010
1.870396e-010
-1.194344e-010
-3.079256e-010
-3.037767e-010
-1.486345e-010
5.817536e-011
2.112662e-010
2.274824e-010
8.652722e-011
-1.210132e-010
-2.162452e-010
-7.239324e-011
2.271663e-010
4.029602e-010
2.220112e-010
-2.392751e-010
-6.105661e-010
-5.661678e-010
-1.622667e-010
2.062087e-010
2.214472e-010
-9.056902e-012
-7.654628e-011
2.468937e-010
7.123608e-010
8.449394e-010
4.758521e-010
-5.607011e-011
-2.790838e-010
-1.113548e-010
7.745110e-011
-6.882444e-011
-4.628158e-010
-6.915843e-010
-5.265625e-010
-1.966230e-010
-9.729137e-011
-3.078063e-010
-5.152176e-010
-4.252936e-010
-1.328977e-010
9.524415e-012
-1.564197e-010
-4.030881e-010
-4.188201e-010
-2.039074e-010
-5.208582e-011
-1.550715e-010
-3.539143e-010
-3.599038e-010
-1.480295e-010
1.716900e-012
-1.227168e-010
-3.667908e-010
-3.900297e-010
-1.106243e-010
1.593860e-010
8.376526e-011
-2.729751e-010
-5.045445e-010
-3.508133e-010
-1.947642e-011
6.040701e-011
-2.402435e-010
-5.874817e-010
-5.788266e-010
-2.191326e-010
9.331135e-011
4.858870e-011
-2.054058e-010
-2.446867e-010
1.168026e-010
5.865128e-010
7.047941e-010
3.494594e-010
-1.335373e-010
-3.042845e-010
-8.162175e-011
2.094659e-010
2.132356e-010
-8.547996e-011
-3.746917e-010
-3.593397e-010
-5.421167e-011
2.570222e-010
3.140193e-010
1.117289e-010
-1.323956e-010
-2.014949e-010
-6.250176e-011
1.380339e-010
2.222350e-010
1.241159e-010
-7.861016e-011
-2.397432e-010
-2.508981e-010
-1.059355e-010
1.046318e-010
2.537980e-010
-1.945011e-009
-8.288045e-010
7.015872e-010
1.772290e-009
1.787680e-009
7.586326e-010
-6.984135e-010
-1.735712e-009
-1.801602e-009
-9.566661e-010
2.423476e-010
1.170707e-009
1.516527e-009
1.339513e-009
8.518322e-010
1.987634e-010
-5.539588e-010
-1.286381e-009
-1.763125e-009
-1.753489e-009
-1.213354e-009
-3.338956e-010
5.875160e-010
1.315326e-009
1.737562e-009
1.825520e-009
1.597736e-009
1.135567e-009
5.865257e-010
9.591217e-011
-2.802142e-010
-5.756044e-010
-8.212531e-010
-9.776380e-010
-9.844685e-010
-8.644884e-010
-7.354339e-010
-6.961923e-010
-7.229802e-010
-7.123858e-010
-6.253920e-010
-5.508435e-010
-6.009593e-010
-7.648093e-010
-9.059967e-010
-9.143580e-010
-8.278207e-010
-7.760969e-010
-8.194976e-010
-8.838993e-010
-8.667839e-010
-7.724708e-010
-7.027851e-010
-7.188737e-010
-7.554633e-010
-7.002793e-010
-5.394974e-010
-3.857340e-010
-3.526372e-010
-4.301349e-010
-5.094424e-010
-5.197594e-010
-5.066062e-010
-5.630194e-010
-7.071288e-010
-8.547365e-010
-9.075512e-010
-8.391804e-010
-6.817514e-010
-4.530863e-010
-1.336387e-010
2.773514e-010
7.090834e-010
1.046792e-009
1.207606e-009
1.171322e-009
9.413649e-010
5.133336e-010
-8.062198e-011
-6.999220e-010
-1.113785e-009
-1.141794e-009
-7.972021e-010
-2.815411e-010
1.766331e-010
4.798767e-010
6.613111e-010
7.468402e-010
6.570932e-010
2.832793e-010
-3.290535e-010
-8.960482e-010
-1.044121e-009
-5.994140e-010
2.271141e-010
9.366578e-010
1.070929e-009
5.328863e-010
-3.355476e-010
-9.748132e-010
-2.707226e-009
-1.212701e-009
8.423535e-010
2.302333e-009
2.383013e-009
1.092953e-009
-7.691736e-010
-2.093476e-009
-2.151168e-009
-1.041598e-009
4.326658e-010
1.373540e-009
1.408132e-009
8.436341e-010
2.745853e-010
2.792194e-011
-5.135359e-011
-3.139941e-010
-8.421404e-010
-1.290445e-009
-1.200952e-009
-4.776916e-010
4.624392e-010
1.028903e-009
9.642138e-010
5.280952e-010
1.951138e-010
1.884404e-010
3.199317e-010
2.681633e-010
-3.487734e-011
-3.312478e-010
-3.379430e-010
-6.776808e-011
1.899852e-010
1.938893e-010
2.911087e-012
-1.217227e-010
-3.223261e-011
1.462035e-010
1.829741e-010
1.717524e-011
-1.883584e-010
-2.565884e-010
-1.954831e-010
-1.509067e-010
-2.003547e-010
-2.643148e-010
-2.376692e-010
-1.481070e-010
-1.215031e-010
-2.030672e-010
-2.834475e-010
-2.398510e-010
-1.072077e-010
-4.174538e-011
-1.113476e-010
-1.893778e-010
-1.096900e-010
1.024915e-010
2.302954e-010
1.228112e-010
-1.018675e-010
-1.793055e-010
-2.114864e-011
1.560532e-010
7.702276e-011
-2.454808e-010
-4.841223e-010
-3.500357e-010
7.025634e-011
3.937426e-010
3.643191e-010
1.423400e-010
1.175211e-010
4.396023e-010
7.944937e-010
7.001213e-010
2.801232e-011
-8.035870e-010
-1.186053e-009
-8.767859e-010
-2.015009e-010
2.858779e-010
3.288284e-010
1.563387e-010
1.719117e-010
4.845581e-010
7.642748e-010
5.672095e-010
-1.882119e-010
-1.056187e-009
-1.379768e-009
-8.242649e-010
3.208968e-010
1.318548e-009
1.498786e-009
7.261951e-010
-5.074751e-010
-1.411449e-009
-1.186713e-009
-6.052215e-010
2.209501e-010
8.548480e-010
9.655835e-010
5.158930e-010
-1.881407e-010
-6.671242e-010
-5.954258e-010
-6.463001e-011
4.511595e-010
4.603110e-010
-1.119144e-010
-8.014999e-010
-9.599240e-010
-3.243382e-010
7.051239e-010
1.376148e-009
1.237940e-009
5.298314e-010
-8.599654e-011
-1.970039e-010
-3.566025e-011
-1.774459e-010
-8.531914e-010
-1.622894e-009
-1.792481e-009
-1.144320e-009
-1.836242e-010
3.826128e-010
3.661718e-010
2.229873e-010
4.638850e-010
1.044696e-009
1.437581e-009
1.275749e-009
7.927797e-010
5.409391e-010
7.458438e-010
1.078854e-009
1.098686e-009
7.951321e-010
5.694256e-010
7.088241e-010
1.036134e-009
1.163188e-009
9.949923e-010
8.269772e-010
9.274422e-010
1.171653e-009
1.213984e-009
9.638409e-010
7.227807e-010
7.867516e-010
1.035161e-009
1.066484e-009
7.292608e-010
3.584293e-010
3.804666e-010
7.660085e-010
1.036035e-009
8.475332e-010
4.395928e-010
3.634236e-010
7.993755e-010
1.294958e-009
1.267213e-009
6.847079e-010
1.102498e-010
3.977737e-011
3.148838e-010
3.093962e-010
-3.151841e-010
-1.159151e-009
-1.469346e-009
-9.410424e-010
-5.195817e-011
4.315853e-010
2.320834e-010
-2.052323e-010
-2.378144e-010
2.773791e-010
8.446055e-010
8.582680e-010
2.270896e-010
-5.334272e-010
-7.980623e-010
-4.048017e-010
2.342126e-010
5.414332e-010
2.858821e-010
-2.569619e-010
-5.881433e-010
-4.173245e-010
1.244873e-010
6.235267e-010
7.132477e-010
3.280067e-010
-2.778725e-010
-7.170315e-010
1.372465e-009
5.542316e-010
-5.395999e-010
-1.268826e-009
-1.251072e-009
-5.507864e-010
4.062685e-010
1.124392e-009
1.319913e-009
9.995792e-010
3.340383e-010
-4.897664e-010
-1.275748e-009
-1.739952e-009
-1.556604e-009
-6.131019e-010
7.471485e-010
1.827519e-009
2.062523e-009
1.474681e-009
6.244944e-010
5.409340e-011
-2.138978e-010
-5.752435e-010
-1.247744e-009
-1.876941e-009
-1.851070e-009
-1.011759e-009
6.794580e-011
6.199771e-010
4.675683e-010
1.643494e-010
3.149674e-010
8.679149e-010
1.212223e-009
9.492971e-010
3.963167e-010
2.089553e-010
5.943796e-010
1.086194e-009
1.147060e-009
8.331974e-010
6.918948e-010
1.042648e-009
1.567848e-009
1.727019e-009
1.446734e-009
1.194238e-009
1.352746e-009
1.723067e-009
1.801660e-009
1.461708e-009
1.131821e-009
1.226563e-009
1.574987e-009
1.614688e-009
1.125468e-009
5.542330e-010
4.838457e-010
8.982825e-010
1.182821e-009
8.850387e-010
2.953954e-010
1.118859e-010
5.855785e-010
1.193170e-009
1.242527e-009
6.800947e-010
1.288040e-010
1.207858e-010
4.526144e-010
4.303256e-010
-2.914264e-010
-1.259634e-009
-1.674497e-009
-1.217980e-009
-3.412419e-010
2.582378e-010
3.444199e-010
2.719586e-010
4.704636e-010
9.114678e-010
1.135194e-009
7.601496e-010
-9.730808e-011
-9.108969e-010
-1.202298e-009
-8.973569e-010
-2.885628e-010
2.681613e-010
5.908750e-010
6.720303e-010
5.495691e-010
2.466007e-010
-1.679606e-010
-5.198475e-010
-5.972512e-010
-3.184129e-010
1.607652e-010
5.254042e-010
2.791295e-009
1.311958e-009
-7.330609e-010
-2.210355e-009
-2.353944e-009
-1.185904e-009
5.101281e-010
1.706801e-009
1.812559e-009
1.006435e-009
-2.338267e-011
-6.786906e-010
-8.439364e-010
-7.672116e-010
-6.533142e-010
-4.537266e-010
-5.444750e-011
4.317778e-010
6.838321e-010
5.158581e-010
1.249984e-010
-9.535394e-011
1.445111e-011
2.252390e-010
2.414384e-010
1.026148e-010
1.383288e-010
5.031049e-010
8.840874e-010
8.074897e-010
2.203737e-010
-3.775330e-010
-4.707200e-010
-1.160006e-010
1.445295e-010
-3.928133e-011
-3.894323e-010
-3.565324e-010
1.710205e-010
7.050272e-010
7.601751e-010
4.614352e-010
3.769936e-010
7.829840e-010
1.301087e-009
1.378398e-009
9.951980e-010
6.888906e-010
8.641740e-010
1.282914e-009
1.392020e-009
1.056417e-009
7.366876e-010
8.765850e-010
1.301073e-009
1.420082e-009
9.882620e-010
4.407578e-010
3.591028e-010
7.362514e-010
9.743142e-010
6.250406e-010
-5.105403e-011
-3.982283e-010
-1.530295e-010
2.655932e-010
2.971022e-010
-7.784998e-011
-3.433077e-010
-1.026940e-010
4.346172e-010
7.060342e-010
4.493842e-010
-2.706666e-011
-2.347135e-010
-4.698846e-011
2.329662e-010
2.896656e-010
1.519720e-010
8.661773e-011
2.194594e-010
3.727990e-010
2.947168e-010
-2.969354e-011
-3.637633e-010
-4.932771e-010
-4.397189e-010
-3.662995e-010
-3.200691e-010
-1.498480e-010
2.795541e-010
8.217154e-010
1.064714e-009
6.741162e-010
-2.457337e-010
-1.132933e-009
-1.353865e-009
-6.943956e-010
4.427287e-010
1.300746e-009
1.806194e-009
9.801583e-010
-2.340550e-010
-1.212254e-009
-1.420835e-009
-7.736982e-010
2.296449e-010
8.239338e-010
5.912502e-010
-1.584623e-010
-6.429227e-010
-3.238153e-010
5.745088e-010
1.257280e-009
1.091713e-009
1.684715e-010
-8.400043e-010
-1.333264e-009
-1.258318e-009
-9.676977e-010
-7.172665e-010
-4.115465e-010
1.579242e-010
9.409451e-010
1.604414e-009
1.865339e-009
1.746889e-009
1.458187e-009
1.104923e-009
6.369307e-010
7.721585e-011
-3.389646e-010
-3.721771e-010
-8.700235e-011
1.810419e-010
2.155143e-010
1.794874e-010
3.830762e-010
8.344819e-010
1.170700e-009
1.096752e-009
7.821079e-010
6.772834e-010
9.512398e-010
1.266372e-009
1.200841e-009
7.933529e-010
5.084944e-010
6.562493e-010
1.006716e-009
1.095310e-009
8.233049e-010
5.778996e-010
7.210886e-010
1.113810e-009
1.290791e-009
1.055872e-009
7.289448e-010
7.325926e-010
1.053131e-009
1.256569e-009
1.021922e-009
5.131332e-010
1.488952e-010
9.936005e-011
1.447616e-010
2.594482e-011
-2.034647e-010
-2.634963e-010
-1.662031e-011
3.762736e-010
6.825943e-010
8.662846e-010
1.038930e-009
1.197148e-009
1.146298e-009
7.462031e-010
1.552693e-010
-2.809408e-010
-3.970416e-010
-3.792244e-010
-5.061805e-010
-7.593947e-010
-7.913289e-010
-3.315831e-010
4.212157e-010
8.976867e-010
6.923796e-010
-1.104707e-011
-5.784729e-010
-5.079892e-010
1.084544e-010
6.789979e-010
6.540778e-010
8.479499e-012
-7.490470e-010
-1.007521e-009
-5.395932e-010
3.370111e-010
1.008140e-009
-7.685453e-010
-2.061074e-010
4.410059e-010
7.437956e-010
6.381941e-010
3.343065e-010
-7.090877e-012
-4.221044e-010
-9.440743e-010
-1.329357e-009
-1.120584e-009
-9.794756e-011
1.323697e-009
2.249001e-009
1.986990e-009
6.626469e-010
-8.533552e-010
-1.665220e-009
-1.546479e-009
-9.675169e-010
-5.043417e-010
-2.854314e-010
-2.110370e-011
5.134201e-010
1.138854e-009
1.444974e-009
1.235161e-009
7.276963e-010
3.275306e-010
2.675688e-010
4.953369e-010
8.363333e-010
1.174894e-009
1.475252e-009
1.720686e-009
1.907972e-009
2.074515e-009
2.253763e-009
2.389055e-009
2.357251e-009
2.127125e-009
1.854629e-009
1.745677e-009
1.817403e-009
1.864290e-009
1.705336e-009
1.418445e-009
1.256536e-009
1.336921e-009
1.495525e-009
1.495006e-009
1.321680e-009
1.193229e-009
1.276253e-009
1.483252e-009
1.600815e-009
1.564501e-009
1.521539e-009
1.621440e-009
1.826538e-009
1.976765e-009
1.987465e-009
1.905643e-009
1.784606e-009
1.597835e-009
1.325805e-009
1.060331e-009
9.241695e-010
8.885414e-010
7.723918e-010
4.911372e-010
2.458296e-010
3.447963e-010
8.023233e-010
1.205230e-009
1.084472e-009
4.228484e-010
-2.899446e-010
-5.597048e-010
-4.019234e-010
-2.807165e-010
-5.310133e-010
-9.209017e-010
-8.686713e-010
-9.976948e-011
9.685879e-010
1.545422e-009
1.177796e-009
1.520782e-010
-7.809369e-010
-1.049855e-009
-6.628777e-010
-6.490852e-011
3.108011e-010
3.466696e-010
1.957011e-010
4.750354e-011
-2.517048e-011
-4.669396e-011
-5.214350e-011
-2.676511e-009
-1.206027e-009
6.893439e-010
1.894583e-009
1.919088e-009
1.047665e-009
-5.319771e-011
-8.592349e-010
-1.213797e-009
-1.182729e-009
-8.244274e-010
-1.704418e-010
6.055107e-010
1.124857e-009
1.043091e-009
4.055028e-010
-2.864969e-010
-4.640465e-010
-9.223115e-012
6.213361e-010
8.281613e-010
4.392602e-010
-1.601572e-010
-4.597281e-010
-3.428319e-010
-1.382271e-010
-1.769492e-010
-3.706425e-010
-2.852268e-010
3.806805e-010
1.445915e-009
2.398267e-009
2.866406e-009
2.910786e-009
2.867003e-009
2.960525e-009
3.110493e-009
3.084867e-009
2.787838e-009
2.361963e-009
2.027076e-009
1.859662e-009
1.748992e-009
1.552453e-009
1.261163e-009
9.958192e-010
8.541772e-010
7.973043e-010
7.080527e-010
5.452305e-010
3.987574e-010
3.738098e-010
4.526107e-010
5.198495e-010
5.267527e-010
5.730661e-010
7.784976e-010
1.101252e-009
1.361833e-009
1.474735e-009
1.588572e-009
1.910334e-009
2.398587e-009
2.733024e-009
2.661185e-009
2.324251e-009
2.123062e-009
2.226418e-009
2.308781e-009
1.890548e-009
9.348936e-010
-7.289159e-012
-3.307183e-010
-1.661047e-011
3.517358e-010
2.344485e-010
-2.801871e-010
-6.063025e-010
-3.450539e-010
2.579375e-010
5.866619e-010
3.331415e-010
-1.790942e-010
-3.605632e-010
1.714798e-011
6.059567e-010
8.605947e-010
5.653456e-010
-2.857958e-011
-5.161705e-010
-7.016845e-010
-6.470967e-010
-4.560886e-010
-1.253057e-010
3.523981e-010
8.028276e-010
8.986914e-010
4.469877e-010
-3.496262e-010
-9.690733e-010
-2.218966e-009
-1.088331e-009
3.868505e-010
1.329857e-009
1.318713e-009
6.017593e-010
-1.546291e-010
-3.980978e-010
-9.441907e-011
3.134267e-010
3.387280e-010
-1.172772e-010
-7.164900e-010
-1.023632e-009
-8.707221e-010
-4.000737e-010
1.820143e-010
7.990989e-010
1.418915e-009
1.854183e-009
1.792486e-009
1.111924e-009
1.270260e-010
-5.909127e-010
-7.010767e-010
-3.698294e-010
-1.231980e-011
2.143763e-010
5.695867e-010
1.338327e-009
2.355590e-009
3.043731e-009
2.970397e-009
2.301918e-009
1.617727e-009
1.283445e-009
1.095272e-009
5.892016e-010
-3.716591e-010
-1.432229e-009
-2.180768e-009
-2.637953e-009
-3.202448e-009
-4.131789e-009
-5.207666e-009
-5.998810e-009
-6.386944e-009
-6.692383e-009
-7.239659e-009
-7.912927e-009
-8.271047e-009
-8.086424e-009
-7.625992e-009
-7.308829e-009
-7.168508e-009
-6.811557e-009
-5.940940e-009
-4.780885e-009
-3.840584e-009
-3.290200e-009
-2.741297e-009
-1.741618e-009
-3.888547e-010
7.166207e-010
1.158209e-009
1.197777e-009
1.452363e-009
2.120690e-009
2.695137e-009
2.527394e-009
1.593077e-009
5.594202e-010
8.467621e-011
1.685710e-010
2.779352e-010
4.312582e-011
-3.157986e-010
-2.987362e-010
2.452778e-010
9.176256e-010
1.193886e-009
9.448037e-010
4.776666e-010
1.288644e-010
-6.543477e-011
-2.652077e-010
-4.968546e-010
-5.575041e-010
-2.830322e-010
1.660823e-010
3.891118e-010
1.542502e-010
-3.110975e-010
-4.973584e-010
-1.160881e-010
5.704234e-010
9.435083e-010
5.891750e-010
-2.938914e-010
-1.028418e-009
1.574854e-010
4.616865e-011
-1.003818e-010
-2.508418e-010
-4.260147e-010
-5.651860e-010
-4.474776e-010
1.330172e-010
1.042038e-009
1.707916e-009
1.495038e-009
2.980267e-010
-1.226393e-009
-2.107707e-009
-1.837389e-009
-7.454566e-010
3.747753e-010
9.852507e-010
1.135520e-009
1.155219e-009
1.171808e-009
1.045738e-009
7.299771e-010
5.083582e-010
7.412672e-010
1.417877e-009
2.107052e-009
2.410935e-009
2.367259e-009
2.284273e-009
2.216147e-009
1.777043e-009
5.824576e-010
-1.219044e-009
-3.035441e-009
-4.498641e-009
-5.906076e-009
-7.861720e-009
-1.052640e-008
-1.340091e-008
-1.592411e-008
-1.814367e-008
-2.060685e-008
-2.359564e-008
-2.667509e-008
-2.914634e-008
-3.084694e-008
-3.228001e-008
-3.389328e-008
-3.541968e-008
-3.613246e-008
-3.570970e-008
-3.461490e-008
-3.350330e-008
-3.240372e-008
-3.071877e-008
-2.804695e-008
-2.477949e-008
-2.170569e-008
-1.911987e-008
-1.655691e-008
-1.348724e-008
-1.009064e-008
-7.133556e-009
-5.104020e-009
-3.679700e-009
-2.173786e-009
-3.899212e-010
1.158100e-009
1.889918e-009
1.844894e-009
1.598010e-009
1.577916e-009
1.656909e-009
1.467886e-009
9.739720e-010
5.529055e-010
5.279605e-010
7.761643e-010
9.030819e-010
7.294023e-010
4.586123e-010
3.364679e-010
2.752939e-010
-4.354761e-011
-6.933822e-010
-1.253715e-009
-1.154064e-009
-2.836356e-010
7.960011e-010
1.297970e-009
8.947809e-010
-1.569425e-011
-6.904645e-010
-6.812985e-010
-1.536433e-010
3.452835e-010
3.984534e-010
4.695910e-011
-3.104351e-010
2.239451e-009
1.084352e-009
-3.828769e-010
-1.336667e-009
-1.509588e-009
-1.150371e-009
-5.796288e-010
1.067471e-010
8.882603e-010
1.505384e-009
1.492900e-009
6.529847e-010
-5.511973e-010
-1.244775e-009
-9.202600e-010
3.616512e-011
6.890044e-010
4.725531e-010
-2.698788e-010
-6.919780e-010
-3.230814e-010
5.517139e-010
1.360102e-009
1.916752e-009
2.484132e-009
3.221333e-009
3.790180e-009
3.644923e-009
2.618677e-009
1.031526e-009
-8.160430e-010
-3.082376e-009
-6.167047e-009
-1.013836e-008
-1.460782e-008
-1.926455e-008
-2.436329e-008
-3.045802e-008
-3.765427e-008
-4.534247e-008
-5.281048e-008
-5.998917e-008
-6.736190e-008
-7.512225e-008
-8.266350e-008
-8.909683e-008
-9.416934e-008
-9.839995e-008
-1.022323e-007
-1.052826e-007
-1.066664e-007
-1.060111e-007
-1.038637e-007
-1.009703e-007
-9.734880e-008
-9.234130e-008
-8.557494e-008
-7.759965e-008
-6.940160e-008
-6.142784e-008
-5.335159e-008
-4.482833e-008
-3.623524e-008
-2.845431e-008
-2.200513e-008
-1.662833e-008
-1.178910e-008
-7.397392e-009
-3.840635e-009
-1.377136e-009
2.539171e-010
1.509034e-009
2.485412e-009
2.898659e-009
2.609491e-009
1.969095e-009
1.498730e-009
1.313374e-009
1.052548e-009
4.292011e-010
-3.025464e-010
-5.809953e-010
-2.164474e-010
3.141584e-010
3.488466e-010
-2.294257e-010
-8.411716e-010
-8.091837e-010
-5.440587e-011
8.333464e-010
1.170412e-009
7.735903e-010
2.108360e-011
-5.657595e-010
-7.352781e-010
-5.657602e-010
-2.560718e-010
5.701814e-011
3.117527e-010
4.600243e-010
2.143566e-009
9.718410e-010
-4.129271e-010
-1.096523e-009
-8.991098e-010
-3.562975e-010
-9.013933e-011
-2.201229e-010
-3.745754e-010
-2.125237e-010
1.717505e-010
4.203541e-010
4.159768e-010
4.550383e-010
8.244511e-010
1.294283e-009
1.230767e-009
3.220384e-010
-8.980704e-010
-1.420557e-009
-7.156177e-010
7.585120e-010
2.053019e-009
2.647309e-009
2.745605e-009
2.690449e-009
2.291230e-009
9.025790e-010
-1.905849e-009
-5.986910e-009
-1.101711e-008
-1.710266e-008
-2.478201e-008
-3.444063e-008
-4.593492e-008
-5.891225e-008
-7.334064e-008
-8.946271e-008
-1.071930e-007
-1.257973e-007
-1.443704e-007
-1.625465e-007
-1.805004e-007
-1.982019e-007
-2.149050e-007
-2.295917e-007
-2.418355e-007
-2.519527e-007
-2.602154e-007
-2.661446e-007
-2.688279e-007
-2.678735e-007
-2.637662e-007
-2.571685e-007
-2.480843e-007
-2.359791e-007
-2.206923e-007
-2.029603e-007
-1.839002e-007
-1.641527e-007
-1.437714e-007
-1.229158e-007
-1.023701e-007
-8.320117e-008
-6.603400e-008
-5.087623e-008
-3.762813e-008
-2.649983e-008
-1.775852e-008
-1.121104e-008
-6.216003e-009
-2.283867e-009
5.176310e-010
1.916696e-009
2.105606e-009
1.828650e-009
1.724401e-009
1.734543e-009
1.343202e-009
3.779817e-010
-6.108358e-010
-8.739567e-010
-2.781132e-010
5.420563e-010
8.551546e-010
5.448456e-010
9.625617e-011
-2.950951e-011
1.362204e-010
2.377747e-010
8.991512e-011
-1.316730e-010
-1.791841e-010
-7.466211e-011
-6.121865e-011
-2.470046e-010
-4.154112e-010
-2.619105e-010
2.151684e-010
6.450635e-010
1.354411e-010
-1.770406e-010
-3.641809e-010
-5.668329e-011
6.335959e-010
1.123823e-009
8.442292e-010
-2.013426e-010
-1.345738e-009
-1.787686e-009
-1.263082e-009
-2.033857e-010
7.457907e-010
1.291710e-009
1.548170e-009
1.632865e-009
1.420942e-009
8.163892e-010
1.540635e-010
8.276633e-011
9.083021e-010
2.132778e-009
2.801934e-009
2.331382e-009
8.701466e-010
-1.218805e-009
-4.127659e-009
-8.704861e-009
-1.581361e-008
-2.577890e-008
-3.858382e-008
-5.447725e-008
-7.413373e-008
-9.812366e-008
-1.263669e-007
-1.582446e-007
-1.931569e-007
-2.307504e-007
-2.705497e-007
-3.115905e-007
-3.526574e-007
-3.928644e-007
-4.317965e-007
-4.690035e-007
-5.035472e-007
-5.342636e-007
-5.604228e-007
-5.818979e-007
-5.985951e-007
-6.099140e-007
-6.149888e-007
-6.134071e-007
-6.054491e-007
-5.915424e-007
-5.716910e-007
-5.456706e-007
-5.137321e-007
-4.768786e-007
-4.363734e-007
-3.931665e-007
-3.479841e-007
-3.018688e-007
-2.563415e-007
-2.129097e-007
-1.725626e-007
-1.358887e-007
-1.035465e-007
-7.630175e-008
-5.446704e-008
-3.748539e-008
-2.431297e-008
-1.423262e-008
-7.126934e-009
-2.899211e-009
-8.258201e-010
2.730721e-010
1.199434e-009
1.893191e-009
1.891985e-009
1.170578e-009
3.547236e-010
1.004935e-010
4.348138e-010
8.360021e-010
8.871889e-010
6.764496e-010
5.180118e-010
4.480233e-010
1.856605e-010
-4.018429e-010
-9.668026e-010
-9.674401e-010
-2.858330e-010
5.500370e-010
8.428209e-010
4.127970e-010
-2.404610e-010
-4.712997e-010
-1.432552e-010
2.802165e-010
-1.680187e-009
-1.130624e-009
-2.765626e-010
6.300117e-010
1.374869e-009
1.697548e-009
1.328382e-009
2.653829e-010
-9.998734e-010
-1.702395e-009
-1.406642e-009
-4.110817e-010
5.168331e-010
8.445769e-010
6.941413e-010
5.784055e-010
8.254892e-010
1.354366e-009
1.951138e-009
2.558363e-009
3.145055e-009
3.363676e-009
2.537205e-009
7.437494e-011
-4.226775e-009
-1.046566e-008
-1.924991e-008
-3.189182e-008
-4.990728e-008
-7.437051e-008
-1.058251e-007
-1.447142e-007
-1.916301e-007
-2.469538e-007
-3.102975e-007
-3.804531e-007
-4.559171e-007
-5.353561e-007
-6.175222e-007
-7.008964e-007
-7.836645e-007
-8.641111e-007
-9.409063e-007
-1.012923e-006
-1.078898e-006
-1.137454e-006
-1.187457e-006
-1.228181e-006
-1.259039e-006
-1.279280e-006
-1.288117e-006
-1.285100e-006
-1.270202e-006
-1.243502e-006
-1.204989e-006
-1.154829e-006
-1.093768e-006
-1.023115e-006
-9.443276e-007
-8.588350e-007
-7.683567e-007
-6.752427e-007
-5.822307e-007
-4.918034e-007
-4.059009e-007
-3.262669e-007
-2.547977e-007
-1.931971e-007
-1.421764e-007
-1.011495e-007
-6.885751e-008
-4.423965e-008
-2.658804e-008
-1.496315e-008
-7.787005e-009
-3.272467e-009
-2.445710e-010
1.605215e-009
2.280973e-009
2.119467e-009
1.749081e-009
1.539488e-009
1.343346e-009
8.880180e-010
2.869593e-010
-2.143297e-011
1.571099e-010
4.425548e-010
2.650403e-010
-4.476745e-010
-1.096954e-009
-1.000801e-009
-1.210605e-010
8.541304e-010
1.158032e-009
6.480162e-010
-1.287666e-010
-5.170318e-010
-3.622121e-010
-6.059206e-011
-1.544335e-009
-8.187323e-010
3.859915e-012
4.351446e-010
5.189760e-010
5.682287e-010
6.684655e-010
5.994150e-010
2.346205e-010
-1.601543e-010
-1.825267e-010
1.810088e-010
4.504712e-010
1.856872e-010
-4.272686e-010
-6.528703e-010
7.875866e-011
1.583583e-009
3.074687e-009
3.809228e-009
3.463233e-009
1.868712e-009
-1.479594e-009
-7.563164e-009
-1.760336e-008
-3.292549e-008
-5.516969e-008
-8.649476e-008
-1.293103e-007
-1.856338e-007
-2.566545e-007
-3.428262e-007
-4.441461e-007
-5.600929e-007
-6.892451e-007
-8.291323e-007
-9.766603e-007
-1.128756e-006
-1.282633e-006
-1.435574e-006
-1.584719e-006
-1.727243e-006
-1.860738e-006
-1.983348e-006
-2.093567e-006
-2.190010e-006
-2.271403e-006
-2.336685e-006
-2.385018e-006
-2.415729e-006
-2.428288e-006
-2.422302e-006
-2.397426e-006
-2.353288e-006
-2.289661e-006
-2.206802e-006
-2.105566e-006
-1.987146e-006
-1.852848e-006
-1.704359e-006
-1.544331e-006
-1.376552e-006
-1.205378e-006
-1.035015e-006
-8.693889e-007
-7.125341e-007
-5.686329e-007
-4.412545e-007
-3.323832e-007
-2.422067e-007
-1.697992e-007
-1.138490e-007
-7.270743e-008
-4.404118e-008
-2.491245e-008
-1.250511e-008
-4.802655e-009
-5.386471e-010
1.358476e-009
2.021593e-009
2.290639e-009
2.322301e-009
1.826970e-009
7.672951e-010
-3.023525e-010
-6.884514e-010
-2.777668e-010
3.355458e-010
4.782822e-010
7.461196e-011
-3.574351e-010
-3.218331e-010
1.409972e-010
5.569786e-010
5.405157e-010
1.478265e-010
-2.478924e-010
-3.455240e-010
-1.617028e-010
4.627773e-011
1.476114e-010
4.679746e-010
4.938819e-010
-1.266502e-010
-9.816214e-010
-1.282959e-009
-6.909358e-010
3.461878e-010
1.085426e-009
1.223189e-009
1.049052e-009
9.250115e-010
8.019281e-010
3.981103e-010
-2.083624e-010
-4.000244e-010
3.859724e-010
1.901039e-009
3.047496e-009
2.625859e-009
-1.349619e-011
-5.215470e-009
-1.393588e-008
-2.835764e-008
-5.164315e-008
-8.725532e-008
-1.386211e-007
-2.092489e-007
-3.026840e-007
-4.218620e-007
-5.682322e-007
-7.413789e-007
-9.393019e-007
-1.158816e-006
-1.395606e-006
-1.644173e-006
-1.898226e-006
-2.151556e-006
-2.398764e-006
-2.635358e-006
-2.857433e-006
-3.061575e-006
-3.245187e-006
-3.406813e-006
-3.546008e-006
-3.662833e-006
-3.757426e-006
-3.829932e-006
-3.880669e-006
-3.910193e-006
-3.919108e-006
-3.907661e-006
-3.875445e-006
-3.821480e-006
-3.744651e-006
-3.644083e-006
-3.519059e-006
-3.368693e-006
-3.192051e-006
-2.988993e-006
-2.761134e-006
-2.512084e-006
-2.246899e-006
-1.971557e-006
-1.693026e-006
-1.419445e-006
-1.159548e-006
-9.212440e-007
-7.103011e-007
-5.299802e-007
-3.814345e-007
-2.640348e-007
-1.753200e-007
-1.111399e-007
-6.651128e-008
-3.679128e-008
-1.825655e-008
-7.814046e-009
-2.561533e-009
2.949566e-011
1.489336e-009
2.168297e-009
1.906339e-009
9.128839e-010
-6.517556e-011
-3.677259e-010
-1.209711e-011
4.520648e-010
5.943895e-010
4.737671e-010
3.769954e-010
3.695470e-010
2.490229e-010
-1.041302e-010
-4.938651e-010
-6.049822e-010
-3.587003e-010
2.362240e-011
2.901516e-010
3.873791e-010
1.358152e-009
1.320575e-009
8.411740e-010
-2.521214e-010
-1.482526e-009
-2.022347e-009
-1.446379e-009
-1.708037e-010
9.095425e-010
1.239467e-009
1.031160e-009
8.803269e-010
1.061245e-009
1.333381e-009
1.430024e-009
1.518930e-009
1.935769e-009
2.424022e-009
1.797642e-009
-1.556125e-009
-9.036490e-009
-2.205951e-008
-4.316907e-008
-7.690726e-008