# vtk DataFile Version 3.0
vtk output
ASCII
DATASET STRUCTURED_POINTS
DIMENSIONS 100 100 1
SPACING 1 1 1
ORIGIN 0 0 0
POINT_DATA 10000
SCALARS SFBox_profile double
LOOKUP_TABLE default 
9.439919e-003
9.439919e-003
9.439920e-003
9.439920e-003
9.439920e-003
9.439920e-003
9.439920e-003
9.439920e-003
9.439920e-003
9.439920e-003
9.439920e-003
9.439920e-003
9.439920e-003
9.439920e-003
9.439920e-003
9.439920e-003
9.439920e-003
9.439920e-003
9.439920e-003
9.439920e-003
9.439920e-003
9.439920e-003
9.439920e-003
9.439920e-003
9.439920e-003
9.439921e-003
9.439921e-003
9.439921e-003
9.439922e-003
9.439922e-003
9.439922e-003
9.439923e-003
9.439923e-003
9.439924e-003
9.439924e-003
9.439925e-003
9.439925e-003
9.439926e-003
9.439926e-003
9.439927e-003
9.439927e-003
9.439928e-003
9.439928e-003
9.439929e-003
9.439929e-003
9.439930e-003
9.439930e-003
9.439930e-003
9.439931e-003
9.439931e-003
9.439931e-003
9.439931e-003
9.439931e-003
9.439931e-003
9.439931e-003
9.439930e-003
9.439930e-003
9.439930e-003
9.439929e-003
9.439929e-003
9.439928e-003
9.439927e-003
9.439927e-003
9.439926e-003
9.439926e-003
9.439925e-003
9.439924e-003
9.439924e-003
9.439923e-003
9.439923e-003
9.439922e-003
9.439922e-003
9.439922e-003
9.439921e-003
9.439921e-003
9.439921e-003
9.439920e-003
9.439920e-003
9.439920e-003
9.439920e-003
9.439920e-003
9.439920e-003
9.439920e-003
9.439920e-003
9.439920e-003
9.439920e-003
9.439920e-003
9.439920e-003
9.439920e-003
9.439920e-003
9.439920e-003
9.439920e-003
9.439920e-003
9.439920e-003
9.439920e-003
9.439920e-003
9.439920e-003
9.439920e-003
9.439920e-003
9.439920e-003
9.439919e-003
9.439919e-003
9.439920e-003
9.439920e-003
9.439920e-003
9.439920e-003
9.439920e-003
9.439920e-003
9.439920e-003
9.439920e-003
9.439920e-003
9.439920e-003
9.439920e-003
9.439920e-003
9.439920e-003
9.439920e-003
9.439920e-003
9.439920e-003
9.439920e-003
9.439920e-003
9.439920e-003
9.439920e-003
9.439920e-003
9.439920e-003
9.439920e-003
9.439921e-003
9.439921e-003
9.439921e-003
9.439922e-003
9.439922e-003
9.439922e-003
9.439923e-003
9.439923e-003
9.439924e-003
9.439924e-003
9.439925e-003
9.439925e-003
9.439926e-003
9.439926e-003
9.439927e-003
9.439927e-003
9.439928e-003
9.439928e-003
9.439929e-003
9.439929e-003
9.439930e-003
9.439930e-003
9.439930e-003
9.439931e-003
9.439931e-003
9.439931e-003
9.439931e-003
9.439931e-003
9.439931e-003
9.439931e-003
9.439930e-003
9.439930e-003
9.439930e-003
9.439929e-003
9.439929e-003
9.439928e-003
9.439927e-003
9.439927e-003
9.439926e-003
9.439926e-003
9.439925e-003
9.439924e-003
9.439924e-003
9.439923e-003
9.439923e-003
9.439922e-003
9.439922e-003
9.439922e-003
9.439921e-003
9.439921e-003
9.439921e-003
9.439920e-003
9.439920e-003
9.439920e-003
9.439920e-003
9.439920e-003
9.439920e-003
9.439920e-003
9.439920e-003
9.439920e-003
9.439920e-003
9.439920e-003
9.439920e-003
9.439920e-003
9.439920e-003
9.439920e-003
9.439920e-003
9.439920e-003
9.439920e-003
9.439920e-003
9.439920e-003
9.439920e-003
9.439920e-003
9.439920e-003
9.439920e-003
9.439920e-003
9.439920e-003
9.439920e-003
9.439920e-003
9.439920e-003
9.439920e-003
9.439920e-003
9.439920e-003
9.439920e-003
9.439920e-003
9.439920e-003
9.439920e-003
9.439920e-003
9.439920e-003
9.439920e-003
9.439920e-003
9.439920e-003
9.439920e-003
9.439920e-003
9.439920e-003
9.439920e-003
9.439920e-003
9.439921e-003
9.439921e-003
9.439921e-003
9.439921e-003
9.439921e-003
9.439922e-003
9.439922e-003
9.439923e-003
9.439923e-003
9.439924e-003
9.439925e-003
9.439925e-003
9.439926e-003
9.439927e-003
9.439928e-003
9.439929e-003
9.439929e-003
9.439930e-003
9.439931e-003
9.439932e-003
9.439932e-003
9.439933e-003
9.439933e-003
9.439934e-003
9.439934e-003
9.439935e-003
9.439935e-003
9.439935e-003
9.439935e-003
9.439935e-003
9.439935e-003
9.439935e-003
9.439935e-003
9.439935e-003
9.439934e-003
9.439934e-003
9.439933e-003
9.439932e-003
9.439932e-003
9.439931e-003
9.439930e-003
9.439929e-003
9.439928e-003
9.439927e-003
9.439926e-003
9.439926e-003
9.439925e-003
9.439924e-003
9.439923e-003
9.439923e-003
9.439922e-003
9.439922e-003
9.439921e-003
9.439921e-003
9.439921e-003
9.439921e-003
9.439920e-003
9.439920e-003
9.439920e-003
9.439920e-003
9.439920e-003
9.439920e-003
9.439920e-003
9.439920e-003
9.439920e-003
9.439920e-003
9.439920e-003
9.439920e-003
9.439920e-003
9.439920e-003
9.439920e-003
9.439920e-003
9.439920e-003
9.439920e-003
9.439920e-003
9.439920e-003
9.439920e-003
9.439920e-003
9.439921e-003
9.439920e-003
9.439920e-003
9.439920e-003
9.439920e-003
9.439920e-003
9.439920e-003
9.439920e-003
9.439920e-003
9.439920e-003
9.439920e-003
9.439920e-003
9.439920e-003
9.439920e-003
9.439920e-003
9.439920e-003
9.439920e-003
9.439920e-003
9.439920e-003
9.439921e-003
9.439921e-003
9.439921e-003
9.439921e-003
9.439921e-003
9.439922e-003
9.439922e-003
9.439922e-003
9.439923e-003
9.439924e-003
9.439925e-003
9.439926e-003
9.439927e-003
9.439928e-003
9.439929e-003
9.439930e-003
9.439932e-003
9.439933e-003
9.439934e-003
9.439935e-003
9.439936e-003
9.439937e-003
9.439938e-003
9.439939e-003
9.439940e-003
9.439940e-003
9.439941e-003
9.439941e-003
9.439942e-003
9.439942e-003
9.439942e-003
9.439942e-003
9.439942e-003
9.439942e-003
9.439942e-003
9.439942e-003
9.439941e-003
9.439941e-003
9.439940e-003
9.439939e-003
9.439939e-003
9.439938e-003
9.439937e-003
9.439936e-003
9.439935e-003
9.439933e-003
9.439932e-003
9.439931e-003
9.439929e-003
9.439928e-003
9.439927e-003
9.439926e-003
9.439925e-003
9.439924e-003
9.439923e-003
9.439922e-003
9.439922e-003
9.439921e-003
9.439921e-003
9.439921e-003
9.439921e-003
9.439921e-003
9.439920e-003
9.439920e-003
9.439920e-003
9.439920e-003
9.439920e-003
9.439920e-003
9.439920e-003
9.439920e-003
9.439920e-003
9.439920e-003
9.439920e-003
9.439920e-003
9.439920e-003
9.439920e-003
9.439920e-003
9.439920e-003
9.439920e-003
9.439920e-003
9.439920e-003
9.439921e-003
9.439921e-003
9.439920e-003
9.439920e-003
9.439920e-003
9.439920e-003
9.439920e-003
9.439920e-003
9.439920e-003
9.439920e-003
9.439920e-003
9.439920e-003
9.439920e-003
9.439920e-003
9.439920e-003
9.439920e-003
9.439920e-003
9.439920e-003
9.439921e-003
9.439921e-003
9.439921e-003
9.439921e-003
9.439922e-003
9.439923e-003
9.439923e-003
9.439924e-003
9.439925e-003
9.439926e-003
9.439928e-003
9.439929e-003
9.439931e-003
9.439932e-003
9.439934e-003
9.439936e-003
9.439937e-003
9.439939e-003
9.439940e-003
9.439942e-003
9.439943e-003
9.439944e-003
9.439945e-003
9.439945e-003
9.439946e-003
9.439947e-003
9.439947e-003
9.439947e-003
9.439947e-003
9.439947e-003
9.439947e-003
9.439947e-003
9.439947e-003
9.439947e-003
9.439947e-003
9.439947e-003
9.439946e-003
9.439946e-003
9.439946e-003
9.439945e-003
9.439945e-003
9.439944e-003
9.439944e-003
9.439943e-003
9.439942e-003
9.439941e-003
9.439940e-003
9.439939e-003
9.439937e-003
9.439935e-003
9.439934e-003
9.439932e-003
9.439930e-003
9.439929e-003
9.439927e-003
9.439926e-003
9.439925e-003
9.439924e-003
9.439923e-003
9.439922e-003
9.439921e-003
9.439921e-003
9.439921e-003
9.439921e-003
9.439920e-003
9.439920e-003
9.439920e-003
9.439920e-003
9.439920e-003
9.439920e-003
9.439920e-003
9.439920e-003
9.439920e-003
9.439920e-003
9.439920e-003
9.439920e-003
9.439920e-003
9.439920e-003
9.439920e-003
9.439920e-003
9.439920e-003
9.439920e-003
9.439921e-003
9.439920e-003
9.439920e-003
9.439920e-003
9.439920e-003
9.439920e-003
9.439920e-003
9.439920e-003
9.439920e-003
9.439920e-003
9.439920e-003
9.439920e-003
9.439920e-003
9.439920e-003
9.439920e-003
9.439920e-003
9.439921e-003
9.439921e-003
9.439921e-003
9.439921e-003
9.439922e-003
9.439922e-003
9.439924e-003
9.439925e-003
9.439926e-003
9.439928e-003
9.439930e-003
9.439932e-003
9.439934e-003
9.439936e-003
9.439938e-003
9.439940e-003
9.439942e-003
9.439944e-003
9.439945e-003
9.439946e-003
9.439947e-003
9.439947e-003
9.439947e-003
9.439947e-003
9.439946e-003
9.439946e-003
9.439945e-003
9.439944e-003
9.439942e-003
9.439941e-003
9.439940e-003
9.439938e-003
9.439937e-003
9.439936e-003
9.439935e-003
9.439935e-003
9.439935e-003
9.439935e-003
9.439935e-003
9.439935e-003
9.439936e-003
9.439937e-003
9.439938e-003
9.439939e-003
9.439941e-003
9.439942e-003
9.439943e-003
9.439943e-003
9.439943e-003
9.439943e-003
9.439943e-003
9.439942e-003
9.439940e-003
9.439939e-003
9.439937e-003
9.439935e-003
9.439933e-003
9.439931e-003
9.439929e-003
9.439927e-003
9.439925e-003
9.439924e-003
9.439923e-003
9.439922e-003
9.439921e-003
9.439921e-003
9.439921e-003
9.439920e-003
9.439920e-003
9.439920e-003
9.439920e-003
9.439920e-003
9.439920e-003
9.439920e-003
9.439920e-003
9.439920e-003
9.439920e-003
9.439920e-003
9.439920e-003
9.439920e-003
9.439920e-003
9.439920e-003
9.439920e-003
9.439920e-003
9.439920e-003
9.439920e-003
9.439920e-003
9.439920e-003
9.439920e-003
9.439920e-003
9.439920e-003
9.439920e-003
9.439920e-003
9.439920e-003
9.439920e-003
9.439920e-003
9.439920e-003
9.439921e-003
9.439921e-003
9.439921e-003
9.439921e-003
9.439921e-003
9.439922e-003
9.439923e-003
9.439924e-003
9.439925e-003
9.439927e-003
9.439929e-003
9.439931e-003
9.439934e-003
9.439937e-003
9.439939e-003
9.439942e-003
9.439944e-003
9.439946e-003
9.439947e-003
9.439947e-003
9.439947e-003
9.439945e-003
9.439943e-003
9.439940e-003
9.439936e-003
9.439931e-003
9.439926e-003
9.439920e-003
9.439914e-003
9.439907e-003
9.439900e-003
9.439893e-003
9.439887e-003
9.439881e-003
9.439875e-003
9.439870e-003
9.439867e-003
9.439864e-003
9.439862e-003
9.439862e-003
9.439862e-003
9.439865e-003
9.439868e-003
9.439873e-003
9.439878e-003
9.439885e-003
9.439892e-003
9.439900e-003
9.439908e-003
9.439915e-003
9.439922e-003
9.439928e-003
9.439934e-003
9.439938e-003
9.439940e-003
9.439942e-003
9.439943e-003
9.439942e-003
9.439941e-003
9.439939e-003
9.439937e-003
9.439934e-003
9.439932e-003
9.439929e-003
9.439927e-003
9.439925e-003
9.439924e-003
9.439923e-003
9.439922e-003
9.439921e-003
9.439921e-003
9.439921e-003
9.439920e-003
9.439920e-003
9.439920e-003
9.439920e-003
9.439920e-003
9.439920e-003
9.439920e-003
9.439920e-003
9.439920e-003
9.439920e-003
9.439920e-003
9.439920e-003
9.439920e-003
9.439920e-003
9.439920e-003
9.439919e-003
9.439920e-003
9.439920e-003
9.439920e-003
9.439920e-003
9.439920e-003
9.439920e-003
9.439920e-003
9.439920e-003
9.439920e-003
9.439920e-003
9.439920e-003
9.439920e-003
9.439921e-003
9.439921e-003
9.439921e-003
9.439922e-003
9.439923e-003
9.439924e-003
9.439925e-003
9.439927e-003
9.439930e-003
9.439932e-003
9.439935e-003
9.439939e-003
9.439941e-003
9.439944e-003
9.439946e-003
9.439947e-003
9.439947e-003
9.439945e-003
9.439941e-003
9.439934e-003
9.439926e-003
9.439914e-003
9.439901e-003
9.439884e-003
9.439866e-003
9.439846e-003
9.439825e-003
9.439802e-003
9.439779e-003
9.439756e-003
9.439733e-003
9.439710e-003
9.439689e-003
9.439670e-003
9.439653e-003
9.439638e-003
9.439627e-003
9.439618e-003
9.439614e-003
9.439613e-003
9.439617e-003
9.439625e-003
9.439636e-003
9.439652e-003
9.439671e-003
9.439693e-003
9.439718e-003
9.439744e-003
9.439772e-003
9.439799e-003
9.439825e-003
9.439850e-003
9.439873e-003
9.439892e-003
9.439909e-003
9.439921e-003
9.439931e-003
9.439937e-003
9.439941e-003
9.439942e-003
9.439942e-003
9.439940e-003
9.439938e-003
9.439935e-003
9.439932e-003
9.439930e-003
9.439927e-003
9.439925e-003
9.439924e-003
9.439923e-003
9.439922e-003
9.439921e-003
9.439921e-003
9.439920e-003
9.439920e-003
9.439920e-003
9.439920e-003
9.439920e-003
9.439920e-003
9.439920e-003
9.439920e-003
9.439920e-003
9.439920e-003
9.439920e-003
9.439920e-003
9.439920e-003
9.439920e-003
9.439919e-003
9.439920e-003
9.439920e-003
9.439920e-003
9.439920e-003
9.439920e-003
9.439920e-003
9.439920e-003
9.439920e-003
9.439920e-003
9.439920e-003
9.439920e-003
9.439920e-003
9.439921e-003
9.439921e-003
9.439922e-003
9.439923e-003
9.439925e-003
9.439927e-003
9.439930e-003
9.439933e-003
9.439936e-003
9.439940e-003
9.439943e-003
9.439946e-003
9.439948e-003
9.439948e-003
9.439945e-003
9.439939e-003
9.439928e-003
9.439912e-003
9.439890e-003
9.439862e-003
9.439827e-003
9.439786e-003
9.439739e-003
9.439686e-003
9.439629e-003
9.439567e-003
9.439503e-003
9.439436e-003
9.439370e-003
9.439303e-003
9.439239e-003
9.439177e-003
9.439120e-003
9.439067e-003
9.439021e-003
9.438982e-003
9.438952e-003
9.438931e-003
9.438919e-003
9.438919e-003
9.438929e-003
9.438951e-003
9.438984e-003
9.439027e-003
9.439081e-003
9.439143e-003
9.439212e-003
9.439287e-003
9.439365e-003
9.439444e-003
9.439522e-003
9.439597e-003
9.439667e-003
9.439729e-003
9.439784e-003
9.439830e-003
9.439867e-003
9.439896e-003
9.439916e-003
9.439930e-003
9.439938e-003
9.439942e-003
9.439942e-003
9.439941e-003
9.439938e-003
9.439935e-003
9.439932e-003
9.439929e-003
9.439927e-003
9.439925e-003
9.439923e-003
9.439922e-003
9.439921e-003
9.439921e-003
9.439920e-003
9.439920e-003
9.439920e-003
9.439920e-003
9.439920e-003
9.439920e-003
9.439920e-003
9.439920e-003
9.439920e-003
9.439920e-003
9.439920e-003
9.439920e-003
9.439920e-003
9.439920e-003
9.439920e-003
9.439920e-003
9.439920e-003
9.439920e-003
9.439920e-003
9.439919e-003
9.439920e-003
9.439920e-003
9.439921e-003
9.439921e-003
9.439921e-003
9.439921e-003
9.439922e-003
9.439923e-003
9.439924e-003
9.439926e-003
9.439929e-003
9.439932e-003
9.439936e-003
9.439940e-003
9.439944e-003
9.439948e-003
9.439949e-003
9.439948e-003
9.439943e-003
9.439931e-003
9.439911e-003
9.439881e-003
9.439838e-003
9.439782e-003
9.439710e-003
9.439623e-003
9.439520e-003
9.439401e-003
9.439269e-003
9.439124e-003
9.438968e-003
9.438804e-003
9.438636e-003
9.438464e-003
9.438293e-003
9.438125e-003
9.437963e-003
9.437809e-003
9.437666e-003
9.437537e-003
9.437424e-003
9.437330e-003
9.437257e-003
9.437206e-003
9.437180e-003
9.437180e-003
9.437207e-003
9.437262e-003
9.437344e-003
9.437453e-003
9.437586e-003
9.437742e-003
9.437916e-003
9.438105e-003
9.438304e-003
9.438507e-003
9.438711e-003
9.438908e-003
9.439094e-003
9.439265e-003
9.439418e-003
9.439550e-003
9.439660e-003
9.439748e-003
9.439816e-003
9.439867e-003
9.439901e-003
9.439923e-003
9.439936e-003
9.439942e-003
9.439943e-003
9.439941e-003
9.439938e-003
9.439935e-003
9.439931e-003
9.439928e-003
9.439926e-003
9.439924e-003
9.439922e-003
9.439921e-003
9.439921e-003
9.439920e-003
9.439920e-003
9.439920e-003
9.439920e-003
9.439920e-003
9.439920e-003
9.439920e-003
9.439920e-003
9.439920e-003
9.439920e-003
9.439920e-003
9.439920e-003
9.439920e-003
9.439920e-003
9.439920e-003
9.439920e-003
9.439920e-003
9.439920e-003
9.439920e-003
9.439920e-003
9.439920e-003
9.439921e-003
9.439921e-003
9.439921e-003
9.439922e-003
9.439923e-003
9.439925e-003
9.439928e-003
9.439931e-003
9.439935e-003
9.439939e-003
9.439944e-003
9.439948e-003
9.439950e-003
9.439949e-003
9.439942e-003
9.439925e-003
9.439895e-003
9.439848e-003
9.439780e-003
9.439684e-003
9.439558e-003
9.439399e-003
9.439203e-003
9.438970e-003
9.438701e-003
9.438398e-003
9.438064e-003
9.437704e-003
9.437323e-003
9.436927e-003
9.436522e-003
9.436115e-003
9.435711e-003
9.435318e-003
9.434941e-003
9.434585e-003
9.434257e-003
9.433962e-003
9.433705e-003
9.433491e-003
9.433326e-003
9.433213e-003
9.433156e-003
9.433158e-003
9.433222e-003
9.433349e-003
9.433539e-003
9.433789e-003
9.434097e-003
9.434457e-003
9.434862e-003
9.435304e-003
9.435772e-003
9.436254e-003
9.436740e-003
9.437216e-003
9.437670e-003
9.438093e-003
9.438475e-003
9.438811e-003
9.439098e-003
9.439334e-003
9.439522e-003
9.439666e-003
9.439771e-003
9.439844e-003
9.439892e-003
9.439921e-003
9.439936e-003
9.439942e-003
9.439943e-003
9.439940e-003
9.439937e-003
9.439933e-003
9.439930e-003
9.439927e-003
9.439925e-003
9.439923e-003
9.439922e-003
9.439921e-003
9.439921e-003
9.439920e-003
9.439920e-003
9.439920e-003
9.439920e-003
9.439920e-003
9.439920e-003
9.439920e-003
9.439920e-003
9.439920e-003
9.439920e-003
9.439920e-003
9.439920e-003
9.439920e-003
9.439920e-003
9.439920e-003
9.439920e-003
9.439920e-003
9.439920e-003
9.439920e-003
9.439921e-003
9.439921e-003
9.439922e-003
9.439924e-003
9.439926e-003
9.439929e-003
9.439933e-003
9.439938e-003
9.439943e-003
9.439948e-003
9.439951e-003
9.439951e-003
9.439944e-003
9.439925e-003
9.439889e-003
9.439828e-003
9.439733e-003
9.439594e-003
9.439402e-003
9.439147e-003
9.438821e-003
9.438418e-003
9.437934e-003
9.437369e-003
9.436726e-003
9.436012e-003
9.435235e-003
9.434405e-003
9.433537e-003
9.432643e-003
9.431737e-003
9.430834e-003
9.429946e-003
9.429086e-003
9.428266e-003
9.427499e-003
9.426794e-003
9.426163e-003
9.425617e-003
9.425165e-003
9.424816e-003
9.424579e-003
9.424462e-003
9.424471e-003
9.424610e-003
9.424884e-003
9.425291e-003
9.425829e-003
9.426492e-003
9.427269e-003
9.428149e-003
9.429113e-003
9.430140e-003
9.431208e-003
9.432290e-003
9.433360e-003
9.434392e-003
9.435362e-003
9.436250e-003
9.437042e-003
9.437726e-003
9.438300e-003
9.438767e-003
9.439133e-003
9.439409e-003
9.439610e-003
9.439748e-003
9.439839e-003
9.439894e-003
9.439924e-003
9.439939e-003
9.439943e-003
9.439942e-003
9.439939e-003
9.439935e-003
9.439931e-003
9.439928e-003
9.439925e-003
9.439923e-003
9.439922e-003
9.439921e-003
9.439921e-003
9.439920e-003
9.439920e-003
9.439920e-003
9.439920e-003
9.439920e-003
9.439920e-003
9.439920e-003
9.439920e-003
9.439920e-003
9.439921e-003
9.439920e-003
9.439919e-003
9.439919e-003
9.439920e-003
9.439921e-003
9.439921e-003
9.439921e-003
9.439921e-003
9.439921e-003
9.439922e-003
9.439924e-003
9.439927e-003
9.439930e-003
9.439935e-003
9.439940e-003
9.439946e-003
9.439951e-003
9.439953e-003
9.439949e-003
9.439933e-003
9.439897e-003
9.439830e-003
9.439718e-003
9.439544e-003
9.439290e-003
9.438934e-003
9.438456e-003
9.437838e-003
9.437064e-003
9.436123e-003
9.435012e-003
9.433734e-003
9.432299e-003
9.430723e-003
9.429029e-003
9.427243e-003
9.425392e-003
9.423507e-003
9.421615e-003
9.419744e-003
9.417922e-003
9.416171e-003
9.414516e-003
9.412977e-003
9.411574e-003
9.410325e-003
9.409250e-003
9.408365e-003
9.407686e-003
9.407230e-003
9.407008e-003
9.407035e-003
9.407317e-003
9.407862e-003
9.408671e-003
9.409741e-003
9.411063e-003
9.412620e-003
9.414391e-003
9.416345e-003
9.418444e-003
9.420643e-003
9.422894e-003
9.425142e-003
9.427335e-003
9.429420e-003
9.431353e-003
9.433096e-003
9.434625e-003
9.435927e-003
9.437001e-003
9.437859e-003
9.438521e-003
9.439013e-003
9.439364e-003
9.439604e-003
9.439759e-003
9.439853e-003
9.439906e-003
9.439932e-003
9.439942e-003
9.439943e-003
9.439940e-003
9.439936e-003
9.439932e-003
9.439928e-003
9.439925e-003
9.439923e-003
9.439922e-003
9.439921e-003
9.439920e-003
9.439920e-003
9.439920e-003
9.439920e-003
9.439920e-003
9.439920e-003
9.439920e-003
9.439920e-003
9.439920e-003
9.439921e-003
9.439920e-003
9.439920e-003
9.439919e-003
9.439920e-003
9.439921e-003
9.439921e-003
9.439921e-003
9.439921e-003
9.439923e-003
9.439925e-003
9.439928e-003
9.439932e-003
9.439936e-003
9.439942e-003
9.439948e-003
9.439953e-003
9.439954e-003
9.439944e-003
9.439915e-003
9.439854e-003
9.439742e-003
9.439556e-003
9.439265e-003
9.438832e-003
9.438219e-003
9.437383e-003
9.436284e-003
9.434888e-003
9.433168e-003
9.431111e-003
9.428719e-003
9.426007e-003
9.423006e-003
9.419758e-003
9.416316e-003
9.412736e-003
9.409078e-003
9.405400e-003
9.401759e-003
9.398205e-003
9.394785e-003
9.391540e-003
9.388506e-003
9.385716e-003
9.383200e-003
9.380985e-003
9.379095e-003
9.377556e-003
9.376389e-003
9.375616e-003
9.375256e-003
9.375329e-003
9.375848e-003
9.376827e-003
9.378271e-003
9.380180e-003
9.382548e-003
9.385357e-003
9.388577e-003
9.392165e-003
9.396066e-003
9.400207e-003
9.404503e-003
9.408858e-003
9.413170e-003
9.417336e-003
9.421258e-003
9.424853e-003
9.428056e-003
9.430825e-003
9.433148e-003
9.435033e-003
9.436512e-003
9.437632e-003
9.438450e-003
9.439022e-003
9.439407e-003
9.439652e-003
9.439799e-003
9.439882e-003
9.439923e-003
9.439940e-003
9.439944e-003
9.439941e-003
9.439937e-003
9.439932e-003
9.439929e-003
9.439926e-003
9.439923e-003
9.439922e-003
9.439921e-003
9.439921e-003
9.439920e-003
9.439920e-003
9.439920e-003
9.439920e-003
9.439920e-003
9.439920e-003
9.439920e-003
9.439921e-003
9.439920e-003
9.439920e-003
9.439920e-003
9.439920e-003
9.439921e-003
9.439921e-003
9.439922e-003
9.439923e-003
9.439925e-003
9.439928e-003
9.439933e-003
9.439938e-003
9.439944e-003
9.439951e-003
9.439955e-003
9.439953e-003
9.439936e-003
9.439891e-003
9.439798e-003
9.439628e-003
9.439341e-003
9.438886e-003
9.438199e-003
9.437207e-003
9.435832e-003
9.433994e-003
9.431621e-003
9.428657e-003
9.425069e-003
9.420852e-003
9.416036e-003
9.410679e-003
9.404867e-003
9.398706e-003
9.392313e-003
9.385808e-003
9.379309e-003
9.372923e-003
9.366743e-003
9.360849e-003
9.355308e-003
9.350171e-003
9.345480e-003
9.341267e-003
9.337556e-003
9.334365e-003
9.331708e-003
9.329599e-003
9.328048e-003
9.327067e-003
9.326671e-003
9.326873e-003
9.327692e-003
9.329147e-003
9.331258e-003
9.334046e-003
9.337525e-003
9.341704e-003
9.346578e-003
9.352124e-003
9.358293e-003
9.365010e-003
9.372166e-003
9.379619e-003
9.387202e-003
9.394725e-003
9.401993e-003
9.408819e-003
9.415043e-003
9.420543e-003
9.425249e-003
9.429142e-003
9.432253e-003
9.434652e-003
9.436435e-003
9.437710e-003
9.438585e-003
9.439161e-003
9.439522e-003
9.439735e-003
9.439853e-003
9.439912e-003
9.439937e-003
9.439944e-003
9.439942e-003
9.439938e-003
9.439933e-003
9.439929e-003
9.439926e-003
9.439923e-003
9.439922e-003
9.439921e-003
9.439921e-003
9.439920e-003
9.439920e-003
9.439920e-003
9.439920e-003
9.439920e-003
9.439920e-003
9.439920e-003
9.439920e-003
9.439920e-003
9.439920e-003
9.439920e-003
9.439921e-003
9.439921e-003
9.439923e-003
9.439925e-003
9.439928e-003
9.439933e-003
9.439939e-003
9.439946e-003
9.439953e-003
9.439957e-003
9.439952e-003
9.439928e-003
9.439865e-003
9.439735e-003
9.439494e-003
9.439081e-003
9.438414e-003
9.437389e-003
9.435880e-003
9.433747e-003
9.430844e-003
9.427037e-003
9.422215e-003
9.416315e-003
9.409332e-003
9.401330e-003
9.392440e-003
9.382854e-003
9.372805e-003
9.362547e-003
9.352337e-003
9.342410e-003
9.332969e-003
9.324175e-003
9.316146e-003
9.308960e-003
9.302655e-003
9.297243e-003
9.292704e-003
9.289001e-003
9.286078e-003
9.283869e-003
9.282296e-003
9.281282e-003
9.280751e-003
9.280635e-003
9.280879e-003
9.281451e-003
9.282341e-003
9.283570e-003
9.285190e-003
9.287288e-003
9.289976e-003
9.293389e-003
9.297674e-003
9.302965e-003
9.309375e-003
9.316963e-003
9.325720e-003
9.335550e-003
9.346260e-003
9.357569e-003
9.369120e-003
9.380517e-003
9.391369e-003
9.401329e-003
9.410133e-003
9.417625e-003
9.423762e-003
9.428599e-003
9.432267e-003
9.434941e-003
9.436814e-003
9.438073e-003
9.438883e-003
9.439380e-003
9.439668e-003
9.439824e-003
9.439901e-003
9.439934e-003
9.439943e-003
9.439943e-003
9.439938e-003
9.439933e-003
9.439929e-003
9.439926e-003
9.439923e-003
9.439922e-003
9.439921e-003
9.439920e-003
9.439920e-003
9.439920e-003
9.439920e-003
9.439920e-003
9.439920e-003
9.439919e-003
9.439920e-003
9.439921e-003
9.439921e-003
9.439921e-003
9.439921e-003
9.439923e-003
9.439925e-003
9.439928e-003
9.439933e-003
9.439939e-003
9.439947e-003
9.439954e-003
9.439958e-003
9.439952e-003
9.439920e-003
9.439839e-003
9.439671e-003
9.439352e-003
9.438796e-003
9.437878e-003
9.436436e-003
9.434269e-003
9.431144e-003
9.426812e-003
9.421038e-003
9.413633e-003
9.404500e-003
9.393668e-003
9.381319e-003
9.367791e-003
9.353563e-003
9.339206e-003
9.325333e-003
9.312533e-003
9.301319e-003
9.292089e-003
9.285105e-003
9.280491e-003
9.278244e-003
9.278257e-003
9.280336e-003
9.284224e-003
9.289612e-003
9.296151e-003
9.303460e-003
9.311133e-003
9.318749e-003
9.325886e-003
9.332138e-003
9.337132e-003
9.340548e-003
9.342143e-003
9.341774e-003
9.339417e-003
9.335185e-003
9.329343e-003
9.322306e-003
9.314634e-003
9.307005e-003
9.300175e-003
9.294922e-003
9.291970e-003
9.291916e-003
9.295145e-003
9.301764e-003
9.311570e-003
9.324045e-003
9.338423e-003
9.353780e-003
9.369165e-003
9.383720e-003
9.396785e-003
9.407947e-003
9.417047e-003
9.424140e-003
9.429435e-003
9.433222e-003
9.435820e-003
9.437527e-003
9.438600e-003
9.439242e-003
9.439606e-003
9.439799e-003
9.439893e-003
9.439932e-003
9.439943e-003
9.439943e-003
9.439938e-003
9.439933e-003
9.439929e-003
9.439925e-003
9.439923e-003
9.439922e-003
9.439921e-003
9.439920e-003
9.439920e-003
9.439920e-003
9.439920e-003
9.439920e-003
9.439919e-003
9.439920e-003
9.439921e-003
9.439922e-003
9.439922e-003
9.439922e-003
9.439925e-003
9.439928e-003
9.439933e-003
9.439939e-003
9.439947e-003
9.439955e-003
9.439959e-003
9.439952e-003
9.439915e-003
9.439819e-003
9.439615e-003
9.439221e-003
9.438516e-003
9.437326e-003
9.435413e-003
9.432472e-003
9.428140e-003
9.422022e-003
9.413738e-003
9.403002e-003
9.389711e-003
9.374043e-003
9.356535e-003
9.338106e-003
9.320023e-003
9.303793e-003
9.291008e-003
9.283166e-003
9.281513e-003
9.286920e-003
9.299821e-003
9.320210e-003
9.347690e-003
9.381542e-003
9.420817e-003
9.464411e-003
9.511116e-003
9.559658e-003
9.608711e-003
9.656902e-003
9.702822e-003
9.745045e-003
9.782154e-003
9.812780e-003
9.835655e-003
9.849667e-003
9.853922e-003
9.847819e-003
9.831115e-003
9.803989e-003
9.767101e-003
9.721622e-003
9.669243e-003
9.612139e-003
9.552890e-003
9.494348e-003
9.439446e-003
9.390966e-003
9.351262e-003
9.322002e-003
9.303947e-003
9.296852e-003
9.299502e-003
9.309910e-003
9.325632e-003
9.344149e-003
9.363205e-003
9.381059e-003
9.396595e-003
9.409294e-003
9.419117e-003
9.426343e-003
9.431416e-003
9.434820e-003
9.437005e-003
9.438345e-003
9.439127e-003
9.439560e-003
9.439783e-003
9.439888e-003
9.439931e-003
9.439943e-003
9.439942e-003
9.439937e-003
9.439932e-003
9.439928e-003
9.439925e-003
9.439923e-003
9.439921e-003
9.439921e-003
9.439921e-003
9.439920e-003
9.439920e-003
9.439920e-003
9.439919e-003
9.439920e-003
9.439921e-003
9.439922e-003
9.439923e-003
9.439924e-003
9.439928e-003
9.439933e-003
9.439939e-003
9.439947e-003
9.439955e-003
9.439960e-003
9.439953e-003
9.439914e-003
9.439809e-003
9.439577e-003
9.439119e-003
9.438279e-003
9.436823e-003
9.434424e-003
9.430649e-003
9.424965e-003
9.416779e-003
9.405526e-003
9.390816e-003
9.372639e-003
9.351605e-003
9.329161e-003
9.307709e-003
9.290558e-003
9.281687e-003
9.285336e-003
9.305501e-003
9.345448e-003
9.407338e-003
9.492019e-003
9.599006e-003
9.726622e-003
9.872238e-003
1.003257e-002
1.020397e-002
1.038260e-002
1.056461e-002
1.074616e-002
1.092346e-002
1.109267e-002
1.124998e-002
1.139157e-002
1.151364e-002
1.161255e-002
1.168488e-002
1.172757e-002
1.173808e-002
1.171455e-002
1.165600e-002
1.156250e-002
1.143534e-002
1.127718e-002
1.109214e-002
1.088583e-002
1.066520e-002
1.043837e-002
1.021419e-002
1.000167e-002
9.809258e-003
9.644004e-003
9.510782e-003
9.411711e-003
9.345950e-003
9.309941e-003
9.298093e-003
9.303759e-003
9.320280e-003
9.341872e-003
9.364166e-003
9.384363e-003
9.401068e-003
9.413937e-003
9.423277e-003
9.429710e-003
9.433931e-003
9.436575e-003
9.438155e-003
9.439053e-003
9.439536e-003
9.439778e-003
9.439889e-003
9.439932e-003
9.439943e-003
9.439942e-003
9.439937e-003
9.439932e-003
9.439927e-003
9.439924e-003
9.439922e-003
9.439921e-003
9.439921e-003
9.439920e-003
9.439920e-003
9.439920e-003
9.439920e-003
9.439921e-003
9.439922e-003
9.439922e-003
9.439924e-003
9.439927e-003
9.439932e-003
9.439938e-003
9.439947e-003
9.439955e-003
9.439961e-003
9.439955e-003
9.439918e-003
9.439811e-003
9.439565e-003
9.439064e-003
9.438118e-003
9.436436e-003
9.433593e-003
9.429006e-003
9.421938e-003
9.411552e-003
9.397055e-003
9.377973e-003
9.354582e-003
9.328460e-003
9.303068e-003
9.284160e-003
9.279838e-003
9.300083e-003
9.355780e-003
9.457392e-003
9.613561e-003
9.829965e-003
1.010863e-002
1.044782e-002
1.084237e-002
1.128446e-002
1.176444e-002
1.227179e-002
1.279578e-002
1.332600e-002
1.385258e-002
1.436621e-002
1.485802e-002
1.531941e-002
1.574191e-002
1.611716e-002
1.643692e-002
1.669320e-002
1.687840e-002
1.698563e-002
1.700890e-002
1.694353e-002
1.678652e-002
1.653696e-002
1.619649e-002
1.576970e-002
1.526456e-002
1.469267e-002
1.406934e-002
1.341340e-002
1.274664e-002
1.209272e-002
1.147555e-002
1.091719e-002
1.043553e-002
1.004224e-002
9.741408e-003
9.529272e-003
9.395277e-003
9.324204e-003
9.298897e-003
9.302916e-003
9.322543e-003
9.347773e-003
9.372357e-003
9.393141e-003
9.409131e-003
9.420583e-003
9.428316e-003
9.433273e-003
9.436299e-003
9.438058e-003
9.439031e-003
9.439539e-003