# vtk DataFile Version 3.0
vtk output
ASCII
DATASET STRUCTURED_POINTS
DIMENSIONS 100 100 1
SPACING 1 1 1
ORIGIN 0 0 0
POINT_DATA 10000
SCALARS SFBox_profile double
LOOKUP_TABLE default 
0.000000e+000
0.000000e+000
0.000000e+000
0.000000e+000
0.000000e+000
0.000000e+000
0.000000e+000
0.000000e+000
0.000000e+000
0.000000e+000
0.000000e+000
0.000000e+000
0.000000e+000
0.000000e+000
0.000000e+000
0.000000e+000
0.000000e+000
0.000000e+000
0.000000e+000
0.000000e+000
0.000000e+000
0.000000e+000
0.000000e+000
0.000000e+000
0.000000e+000
0.000000e+000
0.000000e+000
0.000000e+000
0.000000e+000
0.000000e+000
0.000000e+000
0.000000e+000
0.000000e+000
0.000000e+000
0.000000e+000
0.000000e+000
0.000000e+000
0.000000e+000
0.000000e+000
0.000000e+000
0.000000e+000
0.000000e+000
0.000000e+000
0.000000e+000
0.000000e+000
0.000000e+000
0.000000e+000
0.000000e+000
0.000000e+000
0.000000e+000
0.000000e+000
0.000000e+000
0.000000e+000
0.000000e+000
0.000000e+000
0.000000e+000
0.000000e+000
0.000000e+000
0.000000e+000
0.000000e+000
0.000000e+000
0.000000e+000
0.000000e+000
0.000000e+000
0.000000e+000
0.000000e+000
0.000000e+000
0.000000e+000
0.000000e+000
0.000000e+000
0.000000e+000
0.000000e+000
0.000000e+000
0.000000e+000
0.000000e+000
0.000000e+000
0.000000e+000
0.000000e+000
0.000000e+000
0.000000e+000
0.000000e+000
0.000000e+000
0.000000e+000
0.000000e+000
0.000000e+000
0.000000e+000
0.000000e+000
0.000000e+000
0.000000e+000
0.000000e+000
0.000000e+000
0.000000e+000
0.000000e+000
0.000000e+000
0.000000e+000
0.000000e+000
0.000000e+000
0.000000e+000
0.000000e+000
0.000000e+000
5.509078e-008
3.523155e-008
7.140114e-009
-1.384472e-008
-1.875656e-008
-1.002013e-008
1.922572e-009
7.321321e-009
4.161124e-009
-1.807545e-009
-3.430711e-009
1.044899e-009
6.760789e-009
7.380067e-009
1.433180e-009
-6.246594e-009
-9.241024e-009
-5.635234e-009
5.224998e-010
3.595491e-009
1.892072e-009
-1.245593e-009
-1.537853e-009
1.600317e-009
4.763284e-009
4.530469e-009
1.116855e-009
-2.165626e-009
-2.650893e-009
-9.166510e-010
4.134652e-010
-1.273492e-010
-1.420833e-009
-1.443966e-009
2.641446e-010
2.255487e-009
3.050553e-009
2.778826e-009
2.733737e-009
3.670722e-009
5.016062e-009
5.757474e-009
5.688081e-009
5.476287e-009
5.694405e-009
6.168150e-009
6.372626e-009
6.176793e-009
5.930475e-009
5.909911e-009
5.969841e-009
5.832847e-009
5.512890e-009
5.254006e-009
5.131905e-009
4.945368e-009
4.548070e-009
4.090243e-009
3.777643e-009
3.507591e-009
2.975608e-009
2.163982e-009
1.492635e-009
1.310498e-009
1.363811e-009
1.036327e-009
1.641306e-010
-6.375554e-010
-6.796870e-010
-1.222748e-010
1.194387e-010
-4.908540e-010
-1.308154e-009
-1.147235e-009
2.684280e-010
1.797186e-009
2.053958e-009
9.909301e-010
4.544900e-012
3.351037e-010
1.548994e-009
1.899219e-009
2.687522e-010
-2.423265e-009
-3.949284e-009
-2.933603e-009
-2.066524e-010
2.018870e-009
2.253084e-009
9.769855e-010
-1.101688e-010
7.254596e-011
9.668610e-010
1.107421e-009
-2.409088e-010
-2.205261e-009
-3.027409e-009
-1.685332e-009
1.086791e-009
3.298996e-009
1.368969e-008
7.659879e-009
-5.287901e-010
-5.809602e-009
-5.410249e-009
-6.789558e-010
4.107521e-009
5.099885e-009
1.820602e-009
-2.668821e-009
-4.533878e-009
-2.502904e-009
1.176171e-009
3.011408e-009
1.611008e-009
-1.126055e-009
-2.104905e-009
-2.557520e-010
2.427297e-009
3.063526e-009
9.323751e-010
-1.845442e-009
-2.640693e-009
-1.059314e-009
8.561273e-010
1.031592e-009
-4.099583e-010
-1.517797e-009
-8.666655e-010
8.836949e-010
1.896454e-009
1.292058e-009
-7.824579e-012
-5.419681e-010
-1.225769e-011
5.616711e-010
2.181714e-010
-8.260249e-010
-1.579138e-009
-1.524981e-009
-1.136225e-009
-1.152593e-009
-1.664126e-009
-2.120983e-009
-2.107246e-009
-1.815325e-009
-1.693683e-009
-1.847824e-009
-1.986698e-009
-1.883406e-009
-1.662280e-009
-1.563822e-009
-1.592201e-009
-1.552660e-009
-1.373242e-009
-1.205027e-009
-1.161558e-009
-1.115204e-009
-8.842475e-010
-5.433590e-010
-3.671643e-010
-4.354666e-010
-4.625205e-010
-1.561485e-010
3.396615e-010
5.599357e-010
3.187528e-010
1.529158e-011
1.711488e-010
7.278862e-010
1.029080e-009
5.987200e-010
-2.168518e-010
-5.907122e-010
-1.953217e-010
3.643501e-010
2.451579e-010
-5.964826e-010
-1.271307e-009
-9.387489e-010
2.084787e-010
1.101534e-009
9.367567e-010
2.521638e-011
-5.821214e-010
-2.503191e-010
5.805975e-010
9.151860e-010
2.891317e-010
-7.456499e-010
-1.201112e-009
-6.436015e-010
4.111470e-010
1.027565e-009
7.215885e-010
-1.541297e-010
-7.950942e-010
-6.742358e-010
3.957466e-011
6.811123e-010
-3.597295e-008
-2.432922e-008
-7.526622e-009
5.939780e-009
1.104420e-008
8.643444e-009
3.440501e-009
-2.800079e-010
-1.467571e-009
-1.756670e-009
-2.795578e-009
-4.318827e-009
-4.631116e-009
-2.610310e-009
9.918610e-010
4.162597e-009
5.332157e-009
4.439449e-009
2.553601e-009
7.528255e-010
-5.578884e-010
-1.487457e-009
-2.175702e-009
-2.586693e-009
-2.617129e-009
-2.207697e-009
-1.341041e-009
-8.349577e-011
1.282496e-009
2.266022e-009
2.475025e-009
1.968030e-009
1.216431e-009
6.410567e-010
2.155093e-010
-4.075387e-010
-1.403687e-009
-2.517097e-009
-3.341294e-009
-3.779564e-009
-4.115671e-009
-4.627500e-009
-5.240851e-009
-5.642411e-009
-5.679265e-009
-5.533596e-009
-5.480345e-009
-5.565484e-009
-5.603764e-009
-5.453521e-009
-5.187783e-009
-4.964431e-009
-4.811356e-009
-4.622733e-009
-4.338661e-009
-4.028539e-009
-3.760729e-009
-3.464925e-009
-3.009330e-009
-2.399637e-009
-1.812623e-009
-1.391551e-009
-1.066993e-009
-6.535701e-010
-1.092017e-010
3.856999e-010
6.466505e-010
7.255947e-010
8.554378e-010
1.152633e-009
1.442041e-009
1.422282e-009
9.792321e-010
2.929633e-010
-3.538285e-010
-8.212290e-010
-1.153647e-009
-1.429311e-009
-1.620038e-009
-1.587278e-009
-1.171631e-009
-2.977997e-010
9.207916e-010
2.110737e-009
2.721614e-009
2.335006e-009
1.024211e-009
-5.849563e-010
-1.706789e-009
-1.948693e-009
-1.517366e-009
-8.889498e-010
-3.076407e-010
3.426874e-010
1.172123e-009
1.879857e-009
1.849205e-009
7.430266e-010
-9.926063e-010
-2.300291e-009
-5.627403e-008
-3.534232e-008
-6.172246e-009
1.483891e-008
1.872754e-008
8.941936e-009
-3.105633e-009
-7.711534e-009
-3.757098e-009
2.334031e-009
3.690442e-009
-6.707129e-010
-5.738224e-009
-6.000155e-009
-8.537170e-010
5.142406e-009
6.929614e-009
3.642029e-009
-1.114635e-009
-3.169012e-009
-1.659795e-009
7.995325e-010
1.286072e-009
-5.046862e-010
-2.391936e-009
-2.288886e-009
-2.815186e-010
1.776827e-009
2.334405e-009
1.530092e-009
6.601516e-010
6.431127e-010
1.227341e-009
1.568903e-009
1.272548e-009
7.134909e-010
4.728228e-010
6.856551e-010
1.006666e-009
1.079652e-009
8.964231e-010
7.063843e-010
6.990617e-010
8.489591e-010
1.017952e-009
1.114928e-009
1.137559e-009
1.121898e-009
1.104021e-009
1.114194e-009
1.162134e-009
1.218475e-009
1.238174e-009
1.214162e-009
1.185515e-009
1.177534e-009
1.159928e-009
1.099532e-009
1.042141e-009
1.085934e-009
1.243465e-009
1.371299e-009
1.304094e-009
1.067315e-009
8.915076e-010
9.562348e-010
1.146315e-009
1.150106e-009
8.422759e-010
5.032987e-010
5.484346e-010
1.008707e-009
1.375503e-009
1.085073e-009
1.772341e-010
-6.366210e-010
-6.804127e-010
-8.414595e-011
2.784076e-010
-2.626127e-010
-1.313125e-009
-1.654435e-009
-4.798302e-010
1.608046e-009
2.961234e-009
2.380419e-009
2.904178e-010
-1.613177e-009
-1.941638e-009
-8.621176e-010
2.125835e-010
1.462223e-010
-7.532472e-010
-1.107987e-009
3.380594e-012
1.930981e-009
2.916993e-009
1.746609e-009
-9.860971e-010
-3.239545e-009
-3.579281e-008
-1.950193e-008
2.192410e-009
1.545485e-008
1.343192e-008
7.023865e-010
-1.103668e-008
-1.247767e-008
-3.696549e-009
6.927578e-009
1.055219e-008
5.395898e-009
-2.584809e-009
-5.963543e-009
-2.794152e-009
2.288369e-009
3.375740e-009
-6.706977e-010
-5.453572e-009
-5.903225e-009
-1.449634e-009
3.741980e-009
5.294007e-009
2.879904e-009
-6.783793e-011
-3.895341e-010
1.628967e-009
3.125174e-009
2.129604e-009
-3.825189e-010
-1.858948e-009
-1.033799e-009
9.883563e-010
2.318889e-009
2.405489e-009
2.303681e-009
3.137305e-009
4.783084e-009
6.207327e-009
6.766378e-009
6.815164e-009
7.070810e-009
7.717190e-009
8.335272e-009
8.548898e-009
8.453959e-009
8.371083e-009
8.396515e-009
8.367235e-009
8.179753e-009
7.943664e-009
7.784309e-009
7.646268e-009
7.401414e-009
7.067327e-009
6.774286e-009
6.526378e-009
6.149483e-009
5.553589e-009
4.930613e-009
4.538198e-009
4.313355e-009
3.882762e-009
3.050882e-009
2.146181e-009
1.687149e-009
1.704748e-009
1.608616e-009
8.890896e-010
-1.466940e-010
-5.873479e-010
3.767388e-011
1.096939e-009
1.472423e-009
8.465950e-010
1.482719e-010
5.148686e-010
1.871713e-009
2.801824e-009
2.002728e-009
-2.073933e-010
-2.048308e-009
-2.041051e-009
-5.248800e-010
7.190303e-010
3.644544e-010
-1.057543e-009
-1.745703e-009
-5.848060e-010
1.590927e-009
2.753832e-009
1.691978e-009
-7.557883e-010
-2.456384e-009
-1.969546e-009
1.491326e-010
1.920050e-009
1.784896e-009
-7.619872e-012
-1.705474e-009
5.073884e-009
6.980443e-009
8.474767e-009
6.675940e-009
6.592390e-010
-7.057087e-009
-1.163920e-008
-9.452225e-009
-1.367899e-009
7.270904e-009
1.061958e-008
7.077891e-009
4.621680e-010
-3.661868e-009
-3.064300e-009
-4.224082e-010
5.496813e-011
-2.688260e-009
-5.505983e-009
-4.639104e-009
4.669351e-011
4.793776e-009
5.869206e-009
3.323686e-009
5.675072e-010
4.613717e-010
2.380270e-009
3.362802e-009
1.738964e-009
-1.002796e-009
-2.055002e-009
-4.688575e-010
2.001843e-009
3.101594e-009
2.532330e-009
1.901101e-009
2.560183e-009
4.088153e-009
5.050609e-009
4.812315e-009
4.126881e-009
4.008001e-009
4.497867e-009
4.815483e-009
4.465749e-009
3.793147e-009
3.404104e-009
3.386079e-009
3.342074e-009
3.034991e-009
2.678314e-009
2.547890e-009
2.574133e-009
2.509688e-009
2.357338e-009
2.367698e-009
2.600787e-009
2.743140e-009
2.523103e-009
2.154319e-009
2.110849e-009
2.460520e-009
2.683807e-009
2.324928e-009
1.660392e-009
1.429492e-009
1.864738e-009
2.268460e-009
1.797329e-009
5.703223e-010
-3.168839e-010
-1.522956e-011
1.043240e-009
1.603289e-009
1.071393e-009
2.670980e-010
4.822308e-010
1.891725e-009
3.181616e-009
2.890870e-009
9.871526e-010
-1.084911e-009
-1.914889e-009
-1.495971e-009
-9.769383e-010
-1.182205e-009
-1.631817e-009
-1.151672e-009
6.530865e-010
2.723852e-009
3.427182e-009
2.078765e-009
-4.127058e-010
-2.345515e-009
-2.623213e-009
-1.472583e-009
1.917125e-012
8.389291e-010
8.812031e-010
6.391337e-010
3.551483e-008
2.288851e-008
5.487265e-009
-7.079196e-009
-1.025950e-008
-6.478488e-009
-1.392817e-009
1.269111e-009
1.611760e-009
1.523453e-009
1.838964e-009
1.815545e-009
7.792357e-010
-6.219459e-010
-1.159714e-009
-6.094520e-010
4.630771e-012
-1.615242e-010
-5.795768e-010
-4.130686e-011
1.578639e-009
2.816024e-009
2.225559e-009
2.492374e-010
-1.039967e-009
-2.172719e-010
1.831678e-009
2.905542e-009
2.033813e-009
5.667206e-010
5.092727e-010
2.097144e-009
3.499852e-009
2.949998e-009
7.115926e-010
-1.398016e-009
-2.205000e-009
-2.392088e-009
-3.408542e-009
-5.612148e-009
-7.942232e-009
-9.338344e-009
-9.980849e-009
-1.086598e-008
-1.244676e-008
-1.413409e-008
-1.515557e-008
-1.550645e-008
-1.578657e-008
-1.630865e-008
-1.674834e-008
-1.670831e-008
-1.628578e-008
-1.584136e-008
-1.538829e-008
-1.455389e-008
-1.318257e-008
-1.167015e-008
-1.047866e-008
-9.481475e-009
-8.103688e-009
-6.145186e-009
-4.171899e-009
-2.869279e-009
-2.155681e-009
-1.257468e-009
2.665450e-010
1.844908e-009
2.487971e-009
1.981467e-009
1.198883e-009
1.107484e-009
1.657574e-009
1.900570e-009
1.185996e-009
-8.374839e-012
-5.885080e-010
-6.104244e-011
9.665539e-010
1.505511e-009
1.205447e-009
5.286714e-010
4.530902e-011
-1.828682e-010
-4.351661e-010
-7.513420e-010
-7.783113e-010
-2.428660e-010
5.992718e-010
1.149773e-009
1.073404e-009
5.801556e-010
7.421259e-011
-3.312592e-010
-7.958516e-010
-1.290066e-009
-1.372759e-009
-6.171926e-010
7.586833e-010
1.861331e-009
3.990429e-008
2.055165e-008
-4.247280e-009
-1.782869e-008
-1.357553e-008
1.193903e-009
1.273952e-008
1.253328e-008
2.967803e-009
-6.730310e-009
-9.386954e-009
-5.201852e-009
3.439628e-010
2.587382e-009
1.466354e-009
1.185010e-010
8.851580e-010
3.159796e-009
4.669326e-009
4.037870e-009
1.811883e-009
-5.338465e-010
-1.955566e-009
-2.193595e-009
-1.392136e-009
8.847176e-011
1.580061e-009
2.359792e-009
2.296284e-009
2.030499e-009
2.171720e-009
2.337110e-009
1.333345e-009
-1.527718e-009
-5.518634e-009
-9.199492e-009
-1.198604e-008
-1.470007e-008
-1.843205e-008
-2.313271e-008
-2.766160e-008
-3.116343e-008
-3.400177e-008
-3.712743e-008
-4.078278e-008
-4.420897e-008
-4.662845e-008
-4.814260e-008
-4.942360e-008
-5.073661e-008
-5.163549e-008
-5.164612e-008
-5.090207e-008
-4.986087e-008
-4.857443e-008
-4.659432e-008
-4.365179e-008
-4.013161e-008
-3.663847e-008
-3.323537e-008
-2.942138e-008
-2.492051e-008
-2.022851e-008
-1.615042e-008
-1.289368e-008
-9.887827e-009
-6.580010e-009
-3.210029e-009
-6.020417e-010
7.549743e-010
1.217153e-009
1.522028e-009
1.970771e-009
2.214350e-009
1.793167e-009
7.244205e-010
-4.800761e-010
-1.240768e-009
-1.259695e-009
-5.703006e-010
5.305604e-010
1.541700e-009
1.949971e-009
1.606647e-009
9.359939e-010
5.815131e-010
7.015551e-010
7.044654e-010
-1.053046e-010
-1.552899e-009
-2.450239e-009
-1.685845e-009
4.690221e-010
2.316590e-009
2.231994e-009
2.939075e-010
-1.678581e-009
-1.853503e-009
-1.895760e-010
1.535490e-009
2.448867e-008
8.472109e-009
-1.088497e-008
-1.864348e-008
-9.690038e-009
7.560888e-009
1.869587e-008
1.534899e-008
1.441414e-009
-1.127124e-008
-1.371276e-008
-6.475797e-009
2.369818e-009
5.547814e-009
2.680576e-009
-9.773827e-010
-7.851412e-010
2.823984e-009
5.673427e-009
4.681206e-009
8.304964e-010
-2.346840e-009
-2.480785e-009
-2.450264e-010
1.980643e-009
2.606954e-009
1.844351e-009
7.587490e-010
-9.595768e-011
-1.087838e-009
-2.996463e-009
-6.389673e-009
-1.133743e-008
-1.740890e-008
-2.390362e-008
-3.033515e-008
-3.686307e-008
-4.414086e-008
-5.255795e-008
-6.166165e-008
-7.050194e-008
-7.857389e-008
-8.623295e-008
-9.405542e-008
-1.019398e-007
-1.090853e-007
-1.148550e-007
-1.193985e-007
-1.232532e-007
-1.264958e-007
-1.285738e-007
-1.289937e-007
-1.279060e-007
-1.258121e-007
-1.228340e-007
-1.185568e-007
-1.126480e-007
-1.054007e-007
-9.747477e-008
-8.919563e-008
-8.034699e-008
-7.071720e-008
-6.067021e-008
-5.100182e-008
-4.226382e-008
-3.437573e-008
-2.694307e-008
-1.985522e-008
-1.348729e-008
-8.359300e-009
-4.676619e-009
-2.186447e-009
-4.022053e-010
1.033815e-009
2.103117e-009
2.457198e-009
1.802072e-009
3.862741e-010
-8.960654e-010
-1.081402e-009
-9.942859e-013
1.450113e-009
2.086986e-009
1.590163e-009
8.101423e-010
7.786037e-010
1.431215e-009
1.521667e-009
4.228484e-012
-2.525094e-009
-4.010861e-009
-2.814328e-009
5.176385e-010
3.477625e-009
3.775908e-009
1.420177e-009
-1.346100e-009
-2.203958e-009
-8.999601e-010
7.143263e-010
3.981707e-009
-1.403870e-009
-7.390295e-009
-8.301140e-009
-2.412528e-009
6.184161e-009
1.061221e-008
7.016616e-009
-1.805525e-009
-8.532807e-009
-7.704137e-009
-5.945802e-010
6.118346e-009
6.707977e-009
1.590743e-009
-3.657299e-009
-4.172505e-009
-3.962942e-010
3.118366e-009
2.924205e-009
1.274527e-010
-1.353975e-009
6.545210e-010
4.321108e-009
5.951382e-009
3.749583e-009
-9.194062e-010
-5.662745e-009
-9.803340e-009
-1.481519e-008
-2.247916e-008
-3.311796e-008
-4.565100e-008
-5.895371e-008
-7.285867e-008
-8.797173e-008
-1.048472e-007
-1.234362e-007
-1.431293e-007
-1.631384e-007
-1.828799e-007
-2.021488e-007
-2.209736e-007
-2.392390e-007
-2.564353e-007
-2.718555e-007
-2.850748e-007
-2.961523e-007
-3.052691e-007
-3.122262e-007
-3.164389e-007
-3.174606e-007
-3.153885e-007
-3.106460e-007
-3.034238e-007
-2.934845e-007
-2.805583e-007
-2.648270e-007
-2.469205e-007
-2.274723e-007
-2.067839e-007
-1.849627e-007
-1.623317e-007
-1.396366e-007
-1.178305e-007
-9.763347e-008
-7.925710e-008
-6.253555e-008
-4.736774e-008
-3.407124e-008
-2.324775e-008
-1.518824e-008
-9.393870e-009
-4.828683e-009
-8.103367e-010
2.355422e-009
3.790317e-009
3.204705e-009
1.560899e-009
3.997922e-010
4.505477e-010
1.032334e-009
9.589468e-010
-2.489915e-011
-8.986832e-010
-5.427668e-010
8.694318e-010
1.873679e-009
1.207617e-009
-7.761738e-010
-2.319784e-009
-1.939191e-009
1.170715e-010
2.088286e-009
2.355305e-009
8.906906e-010
-8.517894e-010
-1.398593e-009
-6.011547e-010
3.883927e-010
-1.356780e-008
-5.946028e-009
3.254954e-009
7.392386e-009
4.711067e-009
-1.169039e-009
-5.389480e-009
-5.869491e-009
-3.607796e-009
-3.119640e-010
3.135769e-009
5.993490e-009
6.760960e-009
4.202920e-009
-6.648239e-010
-4.552493e-009
-4.689645e-009
-1.604970e-009
1.432869e-009
1.942883e-009
7.848872e-010
7.812521e-010
2.999417e-009
5.026747e-009
3.226447e-009
-3.667680e-009
-1.371155e-008
-2.445111e-008
-3.592128e-008
-5.062025e-008
-7.079594e-008
-9.630377e-008
-1.252593e-007
-1.563438e-007
-1.899918e-007
-2.273638e-007
-2.686033e-007
-3.123711e-007
-3.568903e-007
-4.011001e-007
-4.447470e-007
-4.876487e-007
-5.291353e-007
-5.681813e-007
-6.038797e-007
-6.357006e-007
-6.633856e-007
-6.867075e-007
-7.053203e-007
-7.187539e-007
-7.265210e-007
-7.282795e-007
-7.239524e-007
-7.136909e-007
-6.976844e-007
-6.759847e-007
-6.485428e-007
-6.154736e-007
-5.773199e-007
-5.350374e-007
-4.896612e-007
-4.419717e-007
-3.925523e-007
-3.422508e-007
-2.925359e-007
-2.452177e-007
-2.016517e-007
-1.622278e-007
-1.267634e-007
-9.541230e-008
-6.900420e-008
-4.829036e-008
-3.289081e-008
-2.124008e-008
-1.177525e-008
-4.138101e-009
9.526368e-010
3.024372e-009
2.858377e-009
2.040081e-009
1.604650e-009
1.349957e-009
5.532664e-010
-8.244819e-010
-1.871808e-009
-1.660032e-009
-2.548602e-010
1.321925e-009
2.057368e-009
1.749466e-009
9.104609e-010
1.075613e-010
-4.469729e-010
-7.667840e-010
-8.277333e-010
-5.824893e-010
-1.446878e-010
2.219069e-010
3.524707e-010
3.321981e-010
-2.788310e-008
-9.902039e-009
1.125731e-008
1.912085e-008
9.495370e-009
-7.303678e-009
-1.686555e-008
-1.308067e-008
-1.420046e-009
8.091653e-009
9.943709e-009
5.935834e-009
1.099655e-009
-1.445480e-009
-1.771244e-009
-1.068402e-009
1.222611e-010
1.610270e-009
2.716229e-009
2.686907e-009
1.709700e-009
6.236591e-010
-7.571086e-010
-4.534710e-009
-1.332154e-008
-2.798506e-008
-4.735128e-008
-7.043268e-008
-9.857944e-008
-1.348891e-007
-1.814483e-007
-2.375653e-007
-3.009294e-007
-3.701525e-007
-4.456600e-007
-5.280620e-007
-6.161486e-007
-7.069064e-007
-7.973982e-007
-8.862474e-007
-9.732090e-007
-1.057670e-006
-1.137970e-006
-1.212151e-006
-1.279022e-006
-1.338264e-006
-1.389672e-006
-1.432581e-006
-1.466082e-006
-1.489546e-006
-1.502742e-006
-1.505476e-006
-1.497376e-006
-1.478114e-006
-1.447733e-006
-1.406568e-006
-1.354863e-006
-1.292680e-006
-1.220379e-006
-1.139123e-006
-1.050731e-006
-9.569484e-007
-8.590462e-007
-7.583387e-007
-6.570470e-007
-5.583447e-007
-4.652845e-007
-3.796748e-007
-3.021402e-007
-2.332232e-007
-1.741082e-007
-1.259808e-007
-8.872536e-008
-6.054453e-008
-3.905568e-008
-2.271363e-008
-1.108937e-008
-3.926360e-009
-2.583010e-010
1.393212e-009
2.133187e-009
2.260585e-009
1.709784e-009
6.808928e-010
-3.060176e-010
-8.213839e-010
-7.449282e-010
-9.501666e-011
1.063793e-009
2.342457e-009
2.858577e-009
1.799479e-009
-5.916848e-010
-2.779926e-009
-3.092363e-009
-1.320276e-009
9.483117e-010
1.809562e-009
8.980836e-010
-3.536427e-010
-3.691259e-008
-1.549477e-008
1.000255e-008
2.025535e-008
1.037368e-008
-7.422591e-009
-1.629113e-008
-9.860514e-009
3.872285e-009
1.190731e-008
8.524390e-009
-1.070279e-009
-7.492015e-009
-6.171455e-009
2.278245e-011
5.346047e-009
6.836257e-009
5.574465e-009
3.832214e-009
2.238704e-009
-4.020444e-010
-5.716669e-009
-1.504847e-008
-2.982007e-008
-5.173631e-008
-8.230837e-008
-1.226519e-007
-1.742331e-007
-2.395656e-007
-3.214230e-007
-4.209270e-007
-5.365966e-007
-6.655928e-007
-8.057839e-007
-9.562019e-007
-1.115427e-006
-1.280034e-006
-1.445192e-006
-1.606864e-006
-1.763130e-006
-1.913253e-006
-2.055848e-006
-2.188375e-006
-2.308398e-006
-2.414888e-006
-2.507989e-006
-2.587690e-006
-2.653107e-006
-2.703103e-006
-2.737248e-006
-2.755817e-006
-2.758891e-006
-2.745805e-006
-2.715651e-006
-2.668125e-006
-2.603594e-006
-2.522333e-006
-2.424050e-006
-2.308460e-006
-2.176324e-006
-2.029649e-006
-1.870835e-006
-1.701898e-006
-1.524866e-006
-1.342936e-006
-1.160896e-006
-9.840770e-007
-8.168479e-007
-6.621623e-007
-5.223519e-007
-3.998594e-007
-2.967864e-007
-2.137019e-007
-1.491145e-007
-1.002288e-007
-6.417094e-008
-3.855558e-008
-2.126715e-008
-1.020862e-008
-3.488791e-009
2.938920e-010
2.127125e-009
2.835830e-009
3.018982e-009
2.754865e-009
1.732617e-009
1.195609e-011
-1.431531e-009
-1.330145e-009
4.524297e-010
2.332005e-009
2.296808e-009
1.763282e-011
-2.527815e-009
-2.877346e-009
-6.295381e-010
2.021716e-009
2.486266e-009
4.637333e-010
-1.759532e-009
-3.249450e-008
-1.690257e-008
2.140746e-009
1.109215e-008
6.510039e-009
-3.157023e-009
-6.620028e-009
-5.756206e-010
7.986119e-009
9.592660e-009
1.964435e-009
-7.994584e-009
-1.127535e-008
-5.309047e-009
4.380716e-009
1.017379e-008
9.207634e-009
4.433436e-009
-5.506374e-011
-3.801027e-009
-1.035076e-008
-2.409364e-008
-4.772264e-008
-8.264889e-008
-1.309528e-007
-1.962739e-007
-2.829728e-007
-3.948395e-007
-5.343843e-007
-7.024675e-007
-8.978373e-007
-1.117020e-006
-1.355150e-006
-1.607207e-006
-1.868381e-006
-2.133300e-006
-2.395481e-006
-2.648282e-006
-2.886767e-006
-3.108507e-006
-3.312427e-006
-3.497132e-006
-3.660677e-006
-3.801928e-006
-3.921628e-006
-4.021706e-006
-4.103608e-006
-4.167583e-006
-4.213590e-006
-4.242448e-006
-4.255655e-006
-4.254078e-006
-4.237159e-006
-4.203575e-006
-4.152424e-006
-4.083394e-006
-3.995764e-006
-3.887601e-006
-3.756342e-006
-3.600209e-006
-3.418930e-006
-3.213189e-006
-2.983868e-006
-2.732408e-006
-2.462101e-006
-2.178880e-006
-1.890630e-006
-1.605662e-006
-1.331696e-006
-1.075786e-006
-8.443621e-007
-6.426146e-007
-4.734945e-007
-3.372233e-007
-2.316632e-007
-1.530849e-007
-9.684136e-008
-5.799851e-008
-3.208650e-008
-1.565144e-008
-6.120293e-009
-1.179852e-009
1.432969e-009
3.270845e-009
4.442893e-009
4.034355e-009
1.668946e-009
-1.368692e-009
-2.886821e-009
-1.843530e-009
5.078637e-010
1.807436e-009
9.920714e-010
-6.579570e-010
-1.009883e-009
4.969046e-010
2.169811e-009
1.913173e-009
-4.000874e-010
-2.653217e-009
-9.026412e-009
-7.066862e-009
-4.330499e-009
-2.149023e-009
-7.784703e-010
7.889862e-010
3.470158e-009
6.367816e-009
6.823329e-009
2.956150e-009
-3.555563e-009
-7.822015e-009
-5.807807e-009
1.536196e-009
8.537138e-009
9.684054e-009
4.334813e-009
-3.647319e-009
-1.097350e-008
-1.948816e-008
-3.583223e-008
-6.727641e-008
-1.185679e-007
-1.927784e-007
-2.943062e-007
-4.300410e-007
-6.072000e-007
-8.300018e-007
-1.098016e-006
-1.406697e-006
-1.748566e-006
-2.113861e-006
-2.490938e-006
-2.867108e-006
-3.229808e-006
-3.567527e-006
-3.870486e-006
-4.131468e-006
-4.346676e-006
-4.515769e-006
-4.640736e-006
-4.724566e-006
-4.770994e-006
-4.785257e-006
-4.774424e-006
-4.746270e-006
-4.707546e-006
-4.663347e-006
-4.618026e-006
-4.576230e-006
-4.542567e-006
-4.520178e-006
-4.509844e-006
-4.510550e-006
-4.520595e-006
-4.537691e-006
-4.557834e-006
-4.574304e-006
-4.578076e-006
-4.559353e-006
-4.508836e-006
-4.418033e-006
-4.279309e-006
-4.086802e-006
-3.838176e-006
-3.536129e-006
-3.188644e-006
-2.808099e-006
-2.409904e-006
-2.011042e-006
-1.628371e-006
-1.276732e-006
-9.673559e-007
-7.069917e-007
-4.977186e-007
-3.371738e-007
-2.193381e-007
-1.361550e-007
-7.960821e-008
-4.311634e-008
-2.146632e-008
-9.905894e-009
-3.872942e-009
4.347947e-011
3.019773e-009
4.345339e-009
3.250149e-009
5.025145e-010
-1.834326e-009
-2.163461e-009
-7.109435e-010
9.269189e-010
1.459860e-009
9.958351e-010
5.394381e-010
6.677431e-010
9.222293e-010
4.974016e-010
-6.760193e-010
-1.724286e-009
2.507581e-008
1.143838e-008
-5.021682e-009
-1.239413e-008
-7.623106e-009
2.400153e-009
8.380995e-009
6.622966e-009
4.665273e-010
-4.303863e-009
-4.402736e-009
-3.418532e-010
5.161501e-009
8.993752e-009
8.714881e-009
3.473444e-009
-5.530747e-009
-1.644280e-008
-3.000470e-008
-5.202132e-008
-9.237678e-008
-1.613810e-007
-2.672055e-007
-4.168007e-007
-6.183408e-007
-8.811049e-007
-1.211411e-006
-1.607572e-006
-2.057874e-006
-2.542427e-006
-3.036419e-006
-3.512376e-006
-3.941522e-006
-4.295870e-006
-4.551485e-006
-4.691583e-006
-4.707950e-006
-4.600604e-006
-4.376639e-006
-4.048884e-006
-3.634426e-006
-3.153093e-006
-2.626345e-006
-2.076639e-006
-1.526698e-006
-9.981992e-007
-5.103746e-007
-7.955733e-008
2.801250e-007
5.559809e-007
7.370152e-007
8.150487e-007
7.855218e-007
6.473297e-007
4.023644e-007
5.588802e-008
-3.821092e-007
-8.955983e-007
-1.462321e-006
-2.054774e-006
-2.641657e-006
-3.189306e-006
-3.663461e-006
-4.031894e-006
-4.267902e-006
-4.353946e-006
-4.284591e-006
-4.068063e-006
-3.725865e-006
-3.290189e-006
-2.799410e-006
-2.292802e-006
-1.805778e-006
-1.366334e-006
-9.927315e-007
-6.925233e-007
-4.634749e-007
-2.965970e-007
-1.802147e-007
-1.030965e-007
-5.544611e-008
-2.845465e-008
-1.412063e-008
-6.131597e-009
-9.206598e-010
2.446150e-009
3.705768e-009
2.967523e-009
1.227140e-009
-2.190058e-010
-5.982108e-010
9.910621e-012
9.133674e-010
1.318084e-009
8.393507e-010
-2.149596e-010
-1.032497e-009
-9.495729e-010
-7.358877e-011
7.616945e-010
4.906758e-008
2.550988e-008
-2.978981e-009
-1.624666e-008
-9.880490e-009
3.606563e-009
9.019455e-009
2.709703e-009
-6.552171e-009
-8.461154e-009
-1.227770e-009
8.447275e-009
1.300822e-008
1.021470e-008
2.681277e-009
-6.656700e-009
-1.798236e-008
-3.520547e-008
-6.553492e-008
-1.194066e-007
-2.100099e-007
-3.516292e-007
-5.578275e-007
-8.406998e-007
-1.210082e-006
-1.670058e-006
-2.212340e-006
-2.810111e-006
-3.416937e-006
-3.971862e-006
-4.407558e-006
-4.657868e-006
-4.663888e-006
-4.379856e-006
-3.779018e-006
-2.857335e-006
-1.632884e-006
-1.413628e-007
1.569611e-006
3.445163e-006
5.426547e-006
7.454126e-006
9.470247e-006
1.142149e-005
1.325995e-005
1.494372e-005
1.643706e-005
1.770997e-005
1.873728e-005
1.949769e-005
1.997330e-005
2.014964e-005
2.001601e-005
1.956575e-005
1.879693e-005
1.771365e-005
1.632822e-005
1.466349e-005
1.275501e-005
1.065247e-005
8.420077e-006
6.135491e-006
3.886936e-006
1.768305e-006
-1.277650e-007
-1.718723e-006
-2.942028e-006
-3.764356e-006
-4.187407e-006
-4.248074e-006
-4.012454e-006
-3.565241e-006
-2.997021e-006
-2.391832e-006
-1.816902e-006
-1.316455e-006
-9.109900e-007
-6.018237e-007
-3.784755e-007
-2.255203e-007
-1.268170e-007
-6.731777e-008
-3.389195e-008
-1.606737e-008
-6.537120e-009
-1.032835e-009
2.350176e-009
4.030773e-009
3.894459e-009
2.233592e-009
1.970755e-010
-7.833760e-010
-2.366022e-010
7.721917e-010
6.658225e-010
-8.603554e-010
-2.283666e-009
-1.790784e-009
6.252947e-010
2.893527e-009
4.645879e-008
2.339880e-008
-3.564511e-009
-1.444810e-008
-6.393314e-009
6.337150e-009
8.697256e-009
-3.751634e-010
-9.252742e-009
-7.526910e-009
3.289619e-009
1.261827e-008
1.218250e-008
2.925947e-009
-8.818846e-009
-2.036118e-008
-3.755963e-008
-7.277843e-008
-1.406277e-007
-2.565907e-007
-4.383672e-007
-7.061389e-007
-1.079292e-006
-1.570069e-006
-2.175298e-006
-2.866718e-006
-3.581683e-006
-4.218883e-006
-4.644093e-006
-4.706653e-006
-4.261693e-006
-3.191155e-006
-1.419458e-006
1.077018e-006
4.266747e-006
8.067255e-006
1.235700e-005
1.699198e-005
2.182185e-005
2.670170e-005
3.149940e-005
3.610057e-005
4.041199e-005
4.436302e-005
4.790387e-005
5.100191e-005
5.363730e-005
5.579916e-005
5.748224e-005
5.868376e-005
5.940050e-005
5.962635e-005
5.935079e-005
5.855853e-005
5.723050e-005
5.534582e-005
5.288504e-005
4.983504e-005
4.619612e-005
4.199099e-005
3.727396e-005
3.213823e-005
2.671963e-005
2.119527e-005
1.577572e-005
1.068885e-005
6.155709e-006
2.361576e-006
-5.714262e-007
-2.602955e-006
-3.779285e-006
-4.222791e-006
-4.108157e-006
-3.630496e-006
-2.972850e-006
-2.281018e-006
-1.651465e-006
-1.133020e-006
-7.379705e-007
-4.560854e-007
-2.666307e-007
-1.465776e-007
-7.521037e-008
-3.590415e-008
-1.604209e-008
-6.397153e-009
-1.020088e-009
2.601119e-009
4.320446e-009
3.468919e-009
8.795455e-010
-1.168959e-009
-1.057899e-009
4.575164e-010
1.118627e-009
-1.709267e-010
-1.957107e-009
-1.875850e-009
4.907449e-010
2.915999e-009
2.029133e-008
6.895875e-009
-7.040896e-009
-9.158981e-009
7.229394e-011
8.991328e-009
7.918005e-009
-8.108732e-010
-6.458497e-009
-2.331517e-009
6.986680e-009
1.098679e-008
4.271316e-009
-9.366931e-009
-2.408789e-008
-4.248181e-008