# vtk DataFile Version 3.0
vtk output
ASCII
DATASET STRUCTURED_POINTS
DIMENSIONS 100 100 1
SPACING 1 1 1
ORIGIN 0 0 0
POINT_DATA 10000
SCALARS SFBox_profile double
LOOKUP_TABLE default 
0.000000e+000
0.000000e+000
0.000000e+000
0.000000e+000
0.000000e+000
0.000000e+000
0.000000e+000
0.000000e+000
0.000000e+000
0.000000e+000
0.000000e+000
0.000000e+000
0.000000e+000
0.000000e+000
0.000000e+000
0.000000e+000
0.000000e+000
0.000000e+000
0.000000e+000
0.000000e+000
0.000000e+000
0.000000e+000
0.000000e+000
0.000000e+000
0.000000e+000
0.000000e+000
0.000000e+000
0.000000e+000
0.000000e+000
0.000000e+000
0.000000e+000
0.000000e+000
0.000000e+000
0.000000e+000
0.000000e+000
0.000000e+000
0.000000e+000
0.000000e+000
0.000000e+000
0.000000e+000
0.000000e+000
0.000000e+000
0.000000e+000
0.000000e+000
0.000000e+000
0.000000e+000
0.000000e+000
0.000000e+000
0.000000e+000
0.000000e+000
0.000000e+000
0.000000e+000
0.000000e+000
0.000000e+000
0.000000e+000
0.000000e+000
0.000000e+000
0.000000e+000
0.000000e+000
0.000000e+000
0.000000e+000
0.000000e+000
0.000000e+000
0.000000e+000
0.000000e+000
0.000000e+000
0.000000e+000
0.000000e+000
0.000000e+000
0.000000e+000
0.000000e+000
0.000000e+000
0.000000e+000
0.000000e+000
0.000000e+000
0.000000e+000
0.000000e+000
0.000000e+000
0.000000e+000
0.000000e+000
0.000000e+000
0.000000e+000
0.000000e+000
0.000000e+000
0.000000e+000
0.000000e+000
0.000000e+000
0.000000e+000
0.000000e+000
0.000000e+000
0.000000e+000
0.000000e+000
0.000000e+000
0.000000e+000
0.000000e+000
0.000000e+000
0.000000e+000
0.000000e+000
0.000000e+000
0.000000e+000
-3.460509e-009
-1.445096e-009
1.223478e-009
2.920846e-009
2.803721e-009
1.225003e-009
-6.859976e-010
-1.874833e-009
-1.984943e-009
-1.356217e-009
-5.385326e-010
1.830306e-010
8.533005e-010
1.535639e-009
2.014287e-009
1.860734e-009
8.308908e-010
-7.917246e-010
-2.269133e-009
-2.882100e-009
-2.413666e-009
-1.240575e-009
1.478608e-011
9.395092e-010
1.507864e-009
1.895384e-009
2.180716e-009
2.242855e-009
1.918314e-009
1.214185e-009
3.451057e-010
-4.302991e-010
-9.940492e-010
-1.398649e-009
-1.743982e-009
-2.050525e-009
-2.252202e-009
-2.288421e-009
-2.179310e-009
-2.008611e-009
-1.847870e-009
-1.708394e-009
-1.561490e-009
-1.390543e-009
-1.215728e-009
-1.073946e-009
-9.850798e-010
-9.407455e-010
-9.205716e-010
-9.143718e-010
-9.296745e-010
-9.818941e-010
-1.078080e-009
-1.207458e-009
-1.346561e-009
-1.476247e-009
-1.595841e-009
-1.717345e-009
-1.840007e-009
-1.930405e-009
-1.935488e-009
-1.823071e-009
-1.607592e-009
-1.326520e-009
-9.879896e-010
-5.535784e-010
8.706300e-012
6.481527e-010
1.221509e-009
1.579613e-009
1.671454e-009
1.553654e-009
1.290643e-009
8.615527e-010
1.997973e-010
-6.525274e-010
-1.443907e-009
-1.814384e-009
-1.550218e-009
-7.686650e-010
1.497239e-010
8.297392e-010
1.126538e-009
1.114244e-009
8.930368e-010
4.546978e-010
-2.302552e-010
-1.004044e-009
-1.462464e-009
-1.197253e-009
-1.810632e-010
1.062583e-009
1.731049e-009
1.311137e-009
1.066777e-011
-1.319058e-009
-1.759288e-009
-9.886080e-010
4.640024e-010
1.581483e-009
-7.063483e-010
-1.962085e-010
4.189875e-010
6.800599e-010
4.139225e-010
-1.497149e-010
-5.650742e-010
-5.149649e-010
-4.964215e-011
4.621371e-010
6.269256e-010
3.288228e-010
-1.993817e-010
-5.814192e-010
-5.949978e-010
-3.108863e-010
2.394443e-011
2.256781e-010
3.059785e-010
3.903699e-010
5.311210e-010
6.187419e-010
4.835421e-010
7.897381e-011
-4.435763e-010
-8.449189e-010
-9.832986e-010
-8.980722e-010
-7.275099e-010
-5.618197e-010
-3.806544e-010
-1.191278e-010
2.284916e-010
5.823367e-010
8.460629e-010
9.883935e-010
1.053002e-009
1.098361e-009
1.139563e-009
1.148883e-009
1.101426e-009
1.009231e-009
9.107482e-010
8.351227e-010
7.822238e-010
7.346270e-010
6.825099e-010
6.345259e-010
6.077792e-010
6.110838e-010
6.380446e-010
6.741595e-010
7.099137e-010
7.482296e-010
7.994340e-010
8.670521e-010
9.373554e-010
9.851699e-010
9.935147e-010
9.672740e-010
9.228019e-010
8.609692e-010
7.548415e-010
5.730243e-010
3.194324e-010
4.439622e-011
-1.924683e-010
-3.714917e-010
-5.168732e-010
-6.447485e-010
-7.136986e-010
-6.446352e-010
-4.040131e-010
-6.530686e-011
2.270128e-010
3.675960e-010
3.664876e-010
3.125143e-010
2.641074e-010
1.891646e-010
2.420502e-011
-2.114208e-010
-3.817165e-010
-3.393073e-010
-7.782314e-011
2.259846e-010
3.418431e-010
1.815201e-010
-1.178563e-010
-3.044083e-010
-2.227953e-010
5.678554e-011
3.002329e-010
3.046720e-010
6.191088e-011
-2.394163e-010
-3.659109e-010
-2.197161e-010
9.064290e-011
3.354478e-010
2.533643e-009
1.179828e-009
-6.802046e-010
-2.015321e-009
-2.224083e-009
-1.385122e-009
-5.371980e-011
1.151955e-009
1.844038e-009
1.896365e-009
1.330266e-009
2.551141e-010
-1.074772e-009
-2.214376e-009
-2.649793e-009
-2.076804e-009
-6.349907e-010
1.114237e-009
2.481661e-009
3.009956e-009
2.649519e-009
1.667939e-009
4.223556e-010
-8.093235e-010
-1.852527e-009
-2.580919e-009
-2.891678e-009
-2.743098e-009
-2.196027e-009
-1.396253e-009
-5.047057e-010
3.630812e-010
1.144832e-009
1.802421e-009
2.301394e-009
2.619698e-009
2.765370e-009
2.774856e-009
2.690725e-009
2.542108e-009
2.345264e-009
2.117136e-009
1.882401e-009
1.666108e-009
1.482207e-009
1.331759e-009
1.212057e-009
1.125831e-009
1.081110e-009
1.083436e-009
1.129952e-009
1.211803e-009
1.321817e-009
1.458741e-009
1.622940e-009
1.807682e-009
1.995336e-009
2.162979e-009
2.291370e-009
2.366686e-009
2.372546e-009
2.282583e-009
2.065861e-009
1.703869e-009
1.203605e-009
5.946278e-010
-8.276667e-011
-7.795976e-010
-1.425342e-009
-1.919721e-009
-2.152547e-009
-2.047844e-009
-1.599854e-009
-8.746806e-010
1.193746e-011
9.084769e-010
1.625756e-009
1.955367e-009
1.744891e-009
1.005594e-009
-3.389923e-011
-9.993911e-010
-1.543734e-009
-1.507189e-009
-9.625305e-010
-1.420367e-010
6.697946e-010
1.206391e-009
1.263530e-009
7.720230e-010
-1.075343e-010
-9.694229e-010
-1.327413e-009
-9.185291e-010
6.144071e-011
1.012918e-009
1.304256e-009
7.208443e-010
-3.506977e-010
-1.171633e-009
3.680839e-009
1.482454e-009
-1.377182e-009
-3.103252e-009
-2.839143e-009
-1.084464e-009
8.646184e-010
1.914510e-009
1.821232e-009
1.080699e-009
3.139186e-010
-2.400678e-010
-7.170386e-010
-1.234318e-009
-1.589515e-009
-1.386858e-009
-4.627234e-010
8.347962e-010
1.821186e-009
1.972315e-009
1.301671e-009
2.965228e-010
-4.964642e-010
-8.489632e-010
-8.906432e-010
-8.552219e-010
-8.272952e-010
-7.188276e-010
-4.373904e-010
-3.087128e-011
3.388000e-010
5.396846e-010
5.691022e-010
5.197743e-010
4.724721e-010
4.334268e-010
3.634822e-010
2.443210e-010
1.043427e-010
-1.230365e-011
-8.749964e-011
-1.361711e-010
-1.803598e-010
-2.254229e-010
-2.614524e-010
-2.802587e-010
-2.850244e-010
-2.847293e-010
-2.843673e-010
-2.827876e-010
-2.771985e-010
-2.660890e-010
-2.479240e-010
-2.203953e-010
-1.829625e-010
-1.381118e-010
-8.694347e-011
-2.397692e-011
5.917154e-011
1.614838e-010
2.659708e-010
3.507133e-010
4.078938e-010
4.460975e-010
4.670090e-010
4.421150e-010
3.251654e-010
9.969731e-011
-1.865960e-010
-4.465067e-010
-6.199203e-010
-7.091208e-010
-7.354122e-010
-6.640398e-010
-4.008557e-010
1.004608e-010
7.160193e-010
1.162576e-009
1.177993e-009
7.282455e-010
4.503325e-011
-5.508166e-010
-8.737994e-010
-9.342291e-010
-8.032040e-010
-4.680460e-010
1.249565e-010
8.687104e-010
1.386177e-009
1.225394e-009
2.670924e-010
-1.021049e-009
-1.794104e-009
-1.430215e-009
-6.615438e-011
1.403938e-009
1.935577e-009
1.113814e-009
-5.019157e-010
-1.760789e-009
1.985007e-009
5.209380e-010
-1.214341e-009
-1.898271e-009
-1.085638e-009
5.005387e-010
1.583745e-009
1.344625e-009
2.902595e-011
-1.302179e-009
-1.640682e-009
-7.932546e-010
5.569044e-010
1.472578e-009
1.489840e-009
8.449990e-010
9.651227e-011
-4.202144e-010
-7.815953e-010
-1.197319e-009
-1.627422e-009
-1.725756e-009
-1.167369e-009
-1.062583e-011
1.281197e-009
2.178843e-009
2.455085e-009
2.253442e-009
1.849431e-009
1.381767e-009
8.058117e-010
5.628151e-011
-7.977369e-010
-1.571348e-009
-2.112043e-009
-2.406832e-009
-2.548711e-009
-2.622464e-009
-2.637303e-009
-2.558395e-009
-2.377900e-009
-2.141005e-009
-1.909803e-009
-1.716432e-009
-1.555149e-009
-1.410428e-009
-1.282876e-009
-1.188729e-009
-1.142917e-009
-1.147969e-009
-1.196254e-009
-1.277310e-009
-1.382779e-009
-1.509020e-009
-1.657265e-009
-1.827123e-009
-2.004643e-009
-2.157918e-009
-2.251429e-009
-2.268470e-009
-2.214255e-009
-2.089283e-009
-1.862050e-009
-1.482858e-009
-9.387711e-010
-2.938006e-010
3.395219e-010
8.775686e-010
1.306465e-009
1.631378e-009
1.789336e-009
1.645103e-009
1.113617e-009
3.002090e-010
-5.046065e-010
-1.008364e-009
-1.117655e-009
-9.588943e-010
-7.022312e-010
-3.868925e-010
5.092757e-011
5.790906e-010
9.493483e-010
8.508227e-010
2.331907e-010
-5.338285e-010
-8.882420e-010
-5.416351e-010
2.346093e-010
7.967100e-010
6.608300e-010
-7.579541e-011
-8.004353e-010
-8.918540e-010
-2.412993e-010
6.494069e-010
1.070521e-009
6.741568e-010
-2.477995e-010
-9.921968e-010
-1.022407e-009
-7.718816e-010
-2.429155e-010
5.251563e-010
1.303983e-009
1.678303e-009
1.253110e-009
-1.515804e-011
-1.614952e-009
-2.650570e-009
-2.378616e-009
-7.634804e-010
1.398156e-009
2.945187e-009
3.096048e-009
1.907611e-009
1.199858e-010
-1.427472e-009
-2.296893e-009
-2.508112e-009
-2.241525e-009
-1.575338e-009
-5.169437e-010
7.835634e-010
1.950581e-009
2.575823e-009
2.507262e-009
1.939645e-009
1.220466e-009
5.742046e-010
5.854869e-012
-5.671443e-010
-1.138052e-009
-1.582955e-009
-1.785194e-009
-1.753240e-009
-1.605001e-009
-1.452288e-009
-1.317423e-009
-1.156925e-009
-9.430767e-010
-7.061176e-010
-5.028227e-010
-3.615016e-010
-2.658884e-010
-1.849751e-010
-1.074359e-010
-4.644033e-011
-2.002060e-011
-3.337183e-011
-7.753478e-011
-1.390616e-010
-2.103386e-010
-2.954345e-010
-4.081224e-010
-5.594569e-010
-7.417650e-010
-9.266236e-010
-1.085753e-009
-1.215756e-009
-1.333740e-009
-1.438895e-009
-1.481279e-009
-1.384118e-009
-1.109352e-009
-6.972075e-010
-2.280460e-010
2.557680e-010
7.706723e-010
1.313865e-009
1.768678e-009
1.921605e-009
1.612544e-009
8.844976e-010
-2.333823e-011
-8.395212e-010
-1.413368e-009
-1.706053e-009
-1.664905e-009
-1.177062e-009
-2.133624e-010
9.720890e-010
1.847188e-009
1.906886e-009
1.062252e-009
-2.331931e-010
-1.261966e-009
-1.515504e-009
-9.899244e-010
-1.059152e-010
6.250747e-010
9.009354e-010
7.122563e-010
2.445756e-010
-2.563177e-010
-5.718900e-010
-5.687865e-010
-2.563208e-010
1.921368e-010
5.139051e-010
-3.001926e-009
-1.261977e-009
9.950656e-010
2.380298e-009
2.277118e-009
1.080892e-009
-3.124854e-010
-1.217703e-009
-1.476735e-009
-1.263787e-009
-7.439770e-010
1.618220e-011
8.682831e-010
1.454253e-009
1.385645e-009
6.026407e-010
-4.698691e-010
-1.184909e-009
-1.151595e-009
-5.012792e-010
2.796673e-010
7.578597e-010
8.166541e-010
5.908666e-010
2.325417e-010
-2.117891e-010
-7.230264e-010
-1.188570e-009
-1.420645e-009
-1.302998e-009
-8.941094e-010
-3.691025e-010
1.313483e-010
5.832330e-010
1.024982e-009
1.454401e-009
1.801105e-009
1.993872e-009
2.032924e-009
1.984947e-009
1.915797e-009
1.840476e-009
1.737076e-009
1.594924e-009
1.438346e-009
1.306705e-009
1.221351e-009
1.175615e-009
1.151559e-009
1.140834e-009
1.150619e-009
1.194164e-009
1.276489e-009
1.385761e-009
1.496949e-009
1.587282e-009
1.651269e-009
1.697544e-009
1.725047e-009
1.702883e-009
1.583153e-009
1.342397e-009
1.008323e-009
6.364992e-010
2.590916e-010
-1.311469e-010
-5.332379e-010
-8.794817e-010
-1.047814e-009
-9.542159e-010
-6.354990e-010
-2.296512e-010
1.290549e-010
3.847794e-010
5.274378e-010
5.136255e-010
2.708009e-010
-1.860443e-010
-6.578249e-010
-8.380116e-010
-5.427269e-010
1.101408e-010
7.565438e-010
1.039239e-009
8.340121e-010
2.728590e-010
-3.950059e-010
-9.290459e-010
-1.123586e-009
-8.233325e-010
-3.727753e-011
9.194097e-010
1.476676e-009
1.160241e-009
2.538684e-011
-1.235302e-009
-1.717993e-009
-1.002832e-009
4.528401e-010
1.603683e-009
-2.730148e-009
-6.483659e-010
1.744728e-009
2.563207e-009
1.307369e-009
-8.482379e-010
-2.124078e-009
-1.594388e-009
1.729531e-010
1.727524e-009
1.961625e-009
8.827096e-010
-6.138558e-010
-1.598733e-009
-1.755495e-009
-1.338528e-009
-6.852075e-010
1.159525e-010
1.098864e-009
2.090670e-009
2.638009e-009
2.320925e-009
1.135458e-009
-4.527842e-010
-1.834170e-009
-2.639395e-009
-2.852915e-009
-2.637876e-009
-2.121807e-009
-1.353660e-009
-4.027157e-010
5.761488e-010
1.403194e-009
1.982388e-009
2.331621e-009
2.514296e-009
2.562920e-009
2.474347e-009
2.258854e-009
1.968418e-009
1.669737e-009
1.399483e-009
1.154398e-009
9.209633e-010
7.051516e-010
5.308369e-010
4.157839e-010
3.559049e-010
3.332109e-010
3.356464e-010
3.678470e-010
4.441815e-010
5.724677e-010
7.438996e-010
9.387032e-010
1.142584e-009
1.356804e-009
1.587989e-009
1.824653e-009
2.026079e-009
2.140417e-009
2.135618e-009
2.007553e-009
1.754434e-009
1.352222e-009
7.732000e-010
3.982792e-011
-7.455521e-010
-1.437245e-009
-1.915575e-009
-2.114978e-009
-1.991676e-009
-1.500611e-009
-6.520634e-010
3.912583e-010
1.306859e-009
1.763436e-009
1.627128e-009
1.034807e-009
2.676255e-010
-4.362269e-010
-9.419432e-010
-1.139927e-009
-9.068103e-010
-2.360434e-010
5.867415e-010
1.039969e-009
7.409137e-010
-1.521279e-010
-9.452084e-010
-9.355033e-010
-5.052861e-011
1.002318e-009
1.288806e-009
4.675655e-010
-8.535240e-010
-1.582908e-009
-1.065752e-009
3.328174e-010
1.502377e-009
-7.962147e-010
3.655179e-010
1.453767e-009
1.230201e-009
-3.996407e-010
-2.211462e-009
-2.627327e-009
-1.042840e-009
1.587699e-009
3.423606e-009
3.141257e-009
9.262709e-010
-1.733872e-009
-3.223624e-009
-2.924809e-009
-1.419286e-009
2.251786e-010
1.314894e-009
1.798808e-009
1.903938e-009
1.695038e-009
1.049792e-009
-1.685459e-011
-1.139795e-009
-1.795074e-009
-1.707944e-009
-1.053999e-009
-2.683163e-010
3.146777e-010
6.391433e-010
8.148285e-010
9.075852e-010
8.700138e-010
6.409159e-010
2.554695e-010
-1.655588e-010
-5.166326e-010
-7.751538e-010
-9.752697e-010
-1.140586e-009
-1.257816e-009
-1.306660e-009
-1.295107e-009
-1.256413e-009
-1.218291e-009
-1.184392e-009
-1.145814e-009
-1.102958e-009
-1.070401e-009
-1.061755e-009
-1.074815e-009
-1.094456e-009
-1.108746e-009
-1.118622e-009
-1.129440e-009
-1.134333e-009
-1.110315e-009
-1.034310e-009
-9.017088e-010
-7.244237e-010
-5.099701e-010
-2.506136e-010
5.588991e-011
3.735543e-010
6.277098e-010
7.493591e-010
7.190487e-010
5.572596e-010
2.746831e-010
-1.409310e-010
-6.585360e-010
-1.126569e-009
-1.305069e-009
-1.027811e-009
-3.555054e-010
4.438533e-010
1.081636e-009
1.412265e-009
1.413785e-009
1.055905e-009
2.823656e-010
-8.042557e-010
-1.769924e-009
-1.996050e-009
-1.155860e-009
3.816417e-010
1.675194e-009
1.874064e-009
8.939016e-010
-4.990487e-010
-1.298360e-009
-1.045240e-009
-1.263881e-010
6.338067e-010
6.860494e-010
1.523874e-010
-3.834390e-010
-4.404804e-010
-4.228274e-011
3.659880e-010
1.264640e-009
8.440986e-010
1.431312e-010
-6.472180e-010
-1.299936e-009
-1.529281e-009
-1.071727e-009
6.493322e-011
1.388631e-009
2.075729e-009
1.541903e-009
6.899667e-012
-1.520146e-009
-1.958616e-009
-1.022050e-009
5.390557e-010
1.557071e-009
1.378038e-009
2.842613e-010
-8.925007e-010
-1.506033e-009
-1.476386e-009
-1.077126e-009
-5.067867e-010
2.539388e-010
1.218453e-009
2.156676e-009
2.669092e-009
2.501969e-009
1.755631e-009
7.737617e-010
-1.460059e-010
-9.205556e-010
-1.604875e-009
-2.217212e-009
-2.675557e-009
-2.885909e-009
-2.848969e-009
-2.660425e-009
-2.421753e-009
-2.170939e-009
-1.896548e-009
-1.595463e-009
-1.299343e-009
-1.049366e-009
-8.615807e-010
-7.251272e-010
-6.278891e-010
-5.738569e-010
-5.743782e-010
-6.306146e-010
-7.319316e-010
-8.701097e-010
-1.047431e-009
-1.265866e-009
-1.511523e-009
-1.756789e-009
-1.979150e-009
-2.170133e-009
-2.317016e-009
-2.378027e-009
-2.289807e-009
-2.011906e-009
-1.561911e-009
-9.958002e-010
-3.542009e-010
3.509282e-010
1.074598e-009
1.671621e-009
1.932351e-009
1.728977e-009
1.138132e-009
4.006372e-010
-2.529986e-010
-7.265277e-010
-1.003623e-009
-1.013683e-009
-6.374523e-010
9.287300e-011
8.288972e-010
1.053262e-009
5.055979e-010
-5.011029e-010
-1.239661e-009
-1.132214e-009
-2.297184e-010
8.291543e-010
1.333425e-009
1.020407e-009
1.814202e-010
-6.441901e-010
-1.047111e-009
-9.100317e-010
-3.550861e-010
3.552766e-010
8.873629e-010
9.441877e-010
4.471003e-010
-3.412507e-010
-9.297510e-010
2.307586e-009
5.052002e-010
-1.492457e-009
-2.066907e-009
-9.394780e-010
7.592631e-010
1.612264e-009
1.101023e-009
-1.674293e-010
-1.191794e-009
-1.416720e-009
-9.357545e-010
-1.038513e-010
8.319734e-010
1.690215e-009
2.128378e-009
1.705241e-009
3.023801e-010
-1.553339e-009
-2.915016e-009
-3.072601e-009
-2.046770e-009
-4.768597e-010
9.331966e-010
1.854573e-009
2.314929e-009
2.397619e-009
2.070770e-009
1.306271e-009
2.691240e-010
-7.024685e-010
-1.325539e-009
-1.557518e-009
-1.550390e-009
-1.453581e-009
-1.289675e-009
-1.007340e-009
-6.067671e-010
-1.786237e-010
1.726626e-010
4.155415e-010
5.918289e-010
7.484969e-010
8.882315e-010
9.848099e-010
1.027336e-009
1.035323e-009
1.035021e-009
1.034408e-009
1.025690e-009
1.003320e-009
9.694108e-010
9.226110e-010
8.518549e-010
7.471420e-010
6.109894e-010
4.498385e-010
2.544817e-010
1.478560e-012
-3.146033e-010
-6.534043e-010
-9.464405e-010
-1.147790e-009
-1.255221e-009
-1.266689e-009
-1.124027e-009
-7.331813e-010
-7.102664e-011
7.285093e-010
1.420914e-009
1.802978e-009
1.815692e-009
1.496487e-009
8.680648e-010
-5.781528e-011
-1.131062e-009
-1.966302e-009
-2.106204e-009
-1.378786e-009
-1.166148e-010
1.019147e-009
1.490303e-009
1.213060e-009
5.067251e-010
-2.143178e-010
-6.752428e-010
-7.546160e-010
-4.297289e-010
1.699154e-010
6.868183e-010
6.829527e-010
2.913628e-011
-8.288758e-010
-1.122014e-009
-4.379005e-010
7.878066e-010
1.531765e-009
1.067186e-009
-3.221797e-010
-1.515107e-009
2.145156e-009
-1.383013e-010
-2.412432e-009
-2.438571e-009
-6.844754e-011
2.666003e-009
3.391772e-009
1.449190e-009
-1.633957e-009
-3.534460e-009
-3.034904e-009
-7.865212e-010
1.518560e-009
2.587483e-009
2.271487e-009
1.211594e-009
5.351927e-011
-9.190762e-010
-1.582427e-009
-1.716062e-009
-1.124793e-009
2.422804e-011
1.139607e-009
1.592458e-009
1.189216e-009
2.613710e-010
-6.764250e-010
-1.314608e-009
-1.626491e-009
-1.671644e-009
-1.431597e-009
-8.606268e-010
-3.188700e-011
8.417563e-010
1.550208e-009
2.025478e-009
2.329987e-009
2.533410e-009
2.631504e-009
2.582715e-009
2.391014e-009
2.126369e-009
1.867913e-009
1.646369e-009
1.447768e-009
1.258821e-009
1.093495e-009
9.777698e-010
9.233518e-010
9.242349e-010
9.717745e-010
1.062397e-009
1.190965e-009
1.346890e-009
1.522234e-009
1.716060e-009
1.919531e-009
2.096935e-009
2.193794e-009
2.172705e-009
2.035155e-009
1.796444e-009
1.442727e-009
9.359551e-010
2.821812e-010
-4.098487e-010
-9.632948e-010
-1.243854e-009
-1.232316e-009
-9.837585e-010
-5.411178e-010
6.347122e-011
7.040217e-010
1.106358e-009
9.869087e-010
3.070051e-010
-6.146020e-010
-1.284739e-009
-1.367271e-009
-8.625584e-010
-1.557628e-011
8.714752e-010
1.504595e-009
1.576577e-009
8.791973e-010
-4.137324e-010
-1.611458e-009
-1.862329e-009
-8.631173e-010
7.239451e-010
1.681734e-009
1.250718e-009
-1.589216e-010
-1.285880e-009
-1.146371e-009
6.341475e-011
1.160683e-009
1.100626e-009
-3.561998e-011
-1.135289e-009
1.157650e-009
-4.165391e-010
-1.885884e-009
-1.625615e-009
3.900677e-010
2.497097e-009
2.794628e-009
8.602752e-010
-1.813649e-009
-3.079990e-009
-1.979563e-009
4.782946e-010
2.260428e-009
2.064983e-009
2.968871e-010
-1.495501e-009
-2.026021e-009
-1.177301e-009
2.462460e-010
1.401543e-009
1.967031e-009
2.005963e-009
1.566898e-009
5.956739e-010
-8.029244e-010
-2.188540e-009
-2.995913e-009
-2.937929e-009
-2.176652e-009
-1.114920e-009
-6.841919e-011
8.560629e-010
1.640442e-009
2.217017e-009
2.486015e-009
2.428969e-009
2.148913e-009
1.785365e-009
1.411513e-009
1.025360e-009
6.194205e-010
2.291203e-010
-9.159076e-011
-3.218550e-010
-4.850547e-010
-6.138327e-010
-7.175278e-010
-7.852468e-010
-8.084635e-010
-7.910761e-010
-7.414636e-010
-6.641680e-010
-5.599656e-010
-4.256488e-010
-2.495301e-010
-1.465672e-011
2.834883e-010
6.229189e-010
9.674278e-010
1.294610e-009
1.599558e-009
1.858604e-009
1.995821e-009
1.908134e-009
1.539932e-009
9.295153e-010
1.750315e-010
-6.310120e-010
-1.404221e-009
-2.002104e-009
-2.204185e-009
-1.832277e-009
-9.326361e-010
1.765881e-010
1.078503e-009
1.500869e-009
1.404738e-009
8.878641e-010
9.436231e-011
-7.314494e-010
-1.185874e-009
-8.911636e-010
1.091310e-010
1.161812e-009
1.391063e-009
4.617271e-010
-9.916379e-010
-1.794576e-009
-1.235920e-009
2.682852e-010
1.507941e-009
1.530063e-009
4.393765e-010
-7.706498e-010
-1.147635e-009
-5.784097e-010
2.436146e-010
5.596675e-010
2.411975e-010
-1.948489e-010
-2.670667e-010
-1.808148e-010
-5.993824e-011
8.216921e-011
2.524475e-010
3.526690e-010
1.861481e-010
-2.788196e-010
-6.738548e-010
-4.434508e-010
5.368180e-010
1.575868e-009
1.599622e-009
1.637800e-010
-1.928261e-009
-3.132893e-009
-2.438779e-009
-2.339901e-010
2.038693e-009
3.069101e-009
2.584467e-009
1.251790e-009
-1.006118e-010
-1.074760e-009
-1.657155e-009
-1.850517e-009
-1.536529e-009
-6.903889e-010
4.098863e-010
1.298128e-009
1.652857e-009
1.489102e-009
1.039140e-009
5.021103e-010
-6.532873e-011
-6.631730e-010
-1.234905e-009
-1.674366e-009
-1.918624e-009
-1.996203e-009
-1.979614e-009
-1.912919e-009
-1.797148e-009
-1.630464e-009
-1.439490e-009
-1.266530e-009
-1.138185e-009
-1.055035e-009
-1.007024e-009
-9.906105e-010
-1.011364e-009
-1.076419e-009
-1.186149e-009
-1.328141e-009
-1.476443e-009
-1.601082e-009
-1.682711e-009
-1.714230e-009
-1.681602e-009
-1.547046e-009
-1.266558e-009
-8.352696e-010
-3.108209e-010
2.180141e-010
6.810707e-010
1.028308e-009
1.182222e-009
1.026999e-009
4.986366e-010
-2.924298e-010
-1.055886e-009
-1.480918e-009
-1.420137e-009
-9.217674e-010
-1.190629e-010
8.361692e-010
1.693752e-009
2.043015e-009
1.509871e-009
1.568280e-010
-1.331292e-009
-2.021283e-009
-1.461990e-009
-1.094930e-010
1.014437e-009
1.163371e-009
4.367710e-010
-4.187522e-010
-7.194981e-010
-3.671830e-010
2.254476e-010
5.889508e-010
5.382381e-010
1.756016e-010
-2.795933e-010
-6.058790e-010
-6.245376e-010
-2.797160e-010
2.667481e-010
6.795585e-010
-1.782947e-009
1.621956e-010
2.026024e-009
1.949542e-009
-1.105938e-011
-2.081576e-009
-2.521985e-009
-1.115186e-009
9.143229e-010
2.167254e-009
2.124497e-009
1.150333e-009
-1.504334e-010
-1.335338e-009
-2.030387e-009
-1.836531e-009
-6.383511e-010
1.007341e-009
2.041948e-009
1.697531e-009
1.891577e-010
-1.422133e-009
-2.094176e-009
-1.563598e-009
-3.415823e-010
8.888557e-010
1.778673e-009
2.302461e-009
2.454793e-009
2.119858e-009
1.243571e-009
2.387011e-011
-1.158646e-009
-2.002699e-009
-2.452823e-009
-2.623555e-009
-2.615588e-009
-2.436754e-009
-2.071393e-009
-1.568022e-009
-1.031392e-009
-5.453327e-010
-1.273263e-010
2.434097e-010
5.739693e-010
8.436324e-010
1.030187e-009
1.134708e-009
1.176924e-009
1.172510e-009
1.118899e-009
1.001140e-009
8.088170e-010
5.474473e-010
2.337958e-010
-1.204532e-010
-5.174873e-010
-9.581833e-010
-1.413074e-009
-1.813691e-009
-2.082780e-009
-2.173878e-009
-2.071672e-009
-1.753886e-009
-1.179760e-009
-3.534682e-010
5.907454e-010
1.396893e-009
1.821716e-009
1.777442e-009
1.340158e-009
6.401538e-010
-1.989452e-010
-9.824513e-010
-1.374320e-009
-1.052258e-009
-4.804960e-011
1.083947e-009
1.569031e-009
1.016581e-009
-2.231323e-010
-1.318329e-009
-1.602448e-009
-1.014314e-009
-8.791150e-013
8.902346e-010
1.294814e-009
1.068010e-009
2.842833e-010
-6.820561e-010
-1.213106e-009
-8.528143e-010
1.948475e-010
1.066451e-009
9.502508e-010
-9.131654e-011
-1.078931e-009
-1.028993e-009
4.520434e-011
1.102482e-009
-2.808157e-009
1.927575e-010
3.079519e-009
2.978383e-009
-1.337809e-011
-3.076601e-009
-3.458247e-009
-9.867136e-010
2.005973e-009
3.018701e-009
1.565193e-009
-7.483813e-010
-1.966285e-009
-1.440341e-009
2.863610e-011
1.262026e-009
1.658517e-009
1.254744e-009
2.811065e-010
-1.027643e-009
-2.248278e-009
-2.727810e-009
-1.998994e-009
-2.736909e-010
1.589849e-009
2.700046e-009
2.739470e-009
2.014887e-009
1.021338e-009
4.809517e-011
-8.281951e-010
-1.522096e-009
-1.852042e-009
-1.688226e-009
-1.111850e-009
-3.694061e-010
3.235741e-010
9.076424e-010
1.426001e-009
1.898048e-009
2.276106e-009
2.508422e-009
2.606073e-009
2.632350e-009
2.640741e-009
2.639604e-009
2.613725e-009
2.563684e-009
2.514587e-009
2.490961e-009
2.492461e-009
2.497598e-009
2.487795e-009
2.461995e-009
2.424030e-009
2.357179e-009
2.218592e-009
1.966995e-009
1.596477e-009
1.135792e-009
6.126803e-010
3.440700e-011
-5.739803e-010
-1.109837e-009
-1.399974e-009
-1.303814e-009
-8.224322e-010
-9.668610e-011
6.977343e-010
1.420779e-009
1.917489e-009
1.953530e-009
1.319486e-009
8.974473e-011
-1.241370e-009
-1.992656e-009
-1.775647e-009
-7.913171e-010
3.411455e-010
1.043128e-009
1.089579e-009
5.833168e-010
-2.052233e-010
-8.938215e-010
-1.028004e-009
-3.453148e-010
8.356503e-010
1.609490e-009
1.161030e-009
-3.655802e-010
-1.759557e-009
-1.746989e-009
-2.517279e-010
1.403502e-009
1.708518e-009
4.494339e-010
-1.068176e-009
-1.342459e-009
-2.026013e-010
1.052865e-009
-2.594560e-009
-6.391504e-011
2.415183e-009
2.451545e-009
1.293608e-010
-2.181940e-009
-2.219637e-009
-3.935459e-011
2.103099e-009
2.024578e-009
-2.431269e-010
-2.530814e-009
-2.660250e-009
-4.633316e-010
2.208896e-009
3.287035e-009
2.209377e-009
5.098367e-011
-1.701399e-009
-2.306227e-009
-1.901444e-009
-9.317542e-010
2.568319e-010
1.338363e-009
1.867181e-009
1.487345e-009
3.041938e-010
-1.077655e-009
-1.974135e-009
-2.086819e-009
-1.572172e-009
-7.409351e-010
2.218301e-010
1.255607e-009
2.263719e-009
3.062345e-009
3.504002e-009
3.600513e-009
3.489635e-009
3.295849e-009
3.049119e-009
2.729422e-009
2.351472e-009
1.980925e-009
1.678325e-009
1.451959e-009
1.273430e-009
1.126554e-009
1.027963e-009
1.002368e-009
1.051012e-009
1.153360e-009
1.296312e-009
1.490829e-009
1.752287e-009
2.067089e-009
2.387831e-009
2.665290e-009
2.875885e-009
3.003257e-009
2.993177e-009
2.750145e-009
2.207396e-009
1.408215e-009
5.042265e-010
-3.342397e-010
-9.905023e-010
-1.374266e-009
-1.361610e-009
-8.475697e-010
7.766172e-011
1.027025e-009
1.484154e-009
1.160407e-009
2.193713e-010
-8.470205e-010
-1.549957e-009
-1.623728e-009
-1.027412e-009
8.438181e-011
1.287685e-009
1.909608e-009
1.413330e-009
-2.811008e-011
-1.407662e-009
-1.601729e-009
-4.228658e-010
1.064992e-009
1.460303e-009
3.803331e-010
-1.116866e-009
-1.553657e-009
-5.062868e-010
9.793783e-010
1.465187e-009
5.716167e-010
-6.964449e-010
-1.050947e-009
-2.591052e-010
6.832220e-010
-8.478154e-010
-2.460403e-010
3.942778e-010
5.137212e-010
1.042278e-010
-2.417835e-010
5.971496e-011
8.437458e-010
1.173925e-009
2.741163e-010
-1.451905e-009
-2.513554e-009
-1.691727e-009
6.260006e-010
2.596568e-009
2.559372e-009
5.771247e-010
-1.649042e-009
-2.355526e-009
-1.188874e-009
7.524283e-010
2.081934e-009
2.193758e-009
1.351844e-009
9.599380e-011
-1.196619e-009
-2.257829e-009
-2.752964e-009
-2.391931e-009
-1.220320e-009
3.175085e-010
1.675359e-009
2.557776e-009
2.986869e-009
3.098355e-009
2.955766e-009
2.566097e-009
1.996419e-009
1.397329e-009
9.017718e-010
5.354483e-010
2.434990e-010
-1.572984e-011
-2.269547e-010
-3.589524e-010
-4.192386e-010
-4.512721e-010
-4.871931e-010
-5.210916e-010
-5.316532e-010
-5.174114e-010
-4.969689e-010
-4.768685e-010
-4.325376e-010
-3.291085e-010
-1.546954e-010
7.957623e-011
3.735457e-010
7.544584e-010
1.238226e-009
1.770812e-009
2.224688e-009
2.468048e-009
2.432594e-009
2.104484e-009
1.471161e-009
5.341558e-010
-5.832875e-010
-1.565399e-009
-2.020299e-009
-1.739211e-009
-8.629855e-010
2.098880e-010
1.067215e-009
1.436777e-009
1.186671e-009
3.454830e-010
-7.602559e-010
-1.473634e-009
-1.170193e-009
1.319639e-010
1.544277e-009
1.908824e-009
8.304632e-010
-8.637340e-010
-1.801799e-009
-1.299235e-009
5.617781e-011
1.032954e-009
9.275017e-010
1.059880e-010
-5.254610e-010
-4.571474e-010
4.550114e-011
3.765494e-010
2.519874e-010
-9.000902e-011
-2.469109e-010
-9.916410e-011
1.157162e-010
1.717442e-009
-1.312275e-010
-1.862584e-009
-1.780019e-009
-8.464720e-011
1.570591e-009
1.846888e-009
8.263670e-010
-4.532565e-010
-1.142271e-009
-1.087263e-009
-5.140190e-010
3.196799e-010
1.034853e-009
1.052630e-009
4.303178e-011
-1.468129e-009
-2.232829e-009
-1.333083e-009
8.371164e-010
2.762069e-009
3.074003e-009
1.664193e-009
-3.918834e-010
-1.857888e-009
-2.212336e-009
-1.673728e-009