# vtk DataFile Version 3.0
vtk output
ASCII
DATASET STRUCTURED_POINTS
DIMENSIONS 100 100 1
SPACING 1 1 1
ORIGIN 0 0 0
POINT_DATA 10000
SCALARS SFBox_profile double
LOOKUP_TABLE default 
9.439882e-003
9.439895e-003
9.439913e-003
9.439929e-003
9.439935e-003
9.439931e-003
9.439922e-003
9.439914e-003
9.439911e-003
9.439914e-003
9.439919e-003
9.439922e-003
9.439922e-003
9.439922e-003
9.439922e-003
9.439923e-003
9.439923e-003
9.439922e-003
9.439919e-003
9.439915e-003
9.439915e-003
9.439916e-003
9.439920e-003
9.439922e-003
9.439923e-003
9.439922e-003
9.439921e-003
9.439922e-003
9.439923e-003
9.439923e-003
9.439922e-003
9.439919e-003
9.439918e-003
9.439918e-003
9.439919e-003
9.439919e-003
9.439918e-003
9.439917e-003
9.439917e-003
9.439919e-003
9.439920e-003
9.439921e-003
9.439920e-003
9.439920e-003
9.439921e-003
9.439922e-003
9.439923e-003
9.439922e-003
9.439921e-003
9.439921e-003
9.439922e-003
9.439923e-003
9.439922e-003
9.439921e-003
9.439920e-003
9.439920e-003
9.439921e-003
9.439921e-003
9.439919e-003
9.439918e-003
9.439918e-003
9.439919e-003
9.439920e-003
9.439919e-003
9.439919e-003
9.439918e-003
9.439920e-003
9.439921e-003
9.439922e-003
9.439922e-003
9.439921e-003
9.439921e-003
9.439922e-003
9.439922e-003
9.439921e-003
9.439920e-003
9.439918e-003
9.439917e-003
9.439918e-003
9.439920e-003
9.439920e-003
9.439921e-003
9.439920e-003
9.439921e-003
9.439922e-003
9.439922e-003
9.439921e-003
9.439919e-003
9.439917e-003
9.439917e-003
9.439919e-003
9.439922e-003
9.439924e-003
9.439923e-003
9.439920e-003
9.439917e-003
9.439916e-003
9.439918e-003
9.439921e-003
9.439923e-003
9.439882e-003
9.439895e-003
9.439913e-003
9.439929e-003
9.439935e-003
9.439931e-003
9.439922e-003
9.439914e-003
9.439911e-003
9.439914e-003
9.439919e-003
9.439922e-003
9.439922e-003
9.439922e-003
9.439922e-003
9.439923e-003
9.439923e-003
9.439922e-003
9.439919e-003
9.439915e-003
9.439915e-003
9.439916e-003
9.439920e-003
9.439922e-003
9.439923e-003
9.439922e-003
9.439921e-003
9.439922e-003
9.439923e-003
9.439923e-003
9.439922e-003
9.439919e-003
9.439918e-003
9.439918e-003
9.439919e-003
9.439919e-003
9.439918e-003
9.439917e-003
9.439917e-003
9.439919e-003
9.439920e-003
9.439921e-003
9.439920e-003
9.439920e-003
9.439921e-003
9.439922e-003
9.439923e-003
9.439922e-003
9.439921e-003
9.439921e-003
9.439922e-003
9.439923e-003
9.439922e-003
9.439921e-003
9.439920e-003
9.439920e-003
9.439921e-003
9.439921e-003
9.439919e-003
9.439918e-003
9.439918e-003
9.439919e-003
9.439920e-003
9.439919e-003
9.439919e-003
9.439918e-003
9.439920e-003
9.439921e-003
9.439922e-003
9.439922e-003
9.439921e-003
9.439921e-003
9.439922e-003
9.439922e-003
9.439921e-003
9.439920e-003
9.439918e-003
9.439917e-003
9.439918e-003
9.439920e-003
9.439920e-003
9.439921e-003
9.439920e-003
9.439921e-003
9.439922e-003
9.439922e-003
9.439921e-003
9.439919e-003
9.439917e-003
9.439917e-003
9.439919e-003
9.439922e-003
9.439924e-003
9.439923e-003
9.439920e-003
9.439917e-003
9.439916e-003
9.439918e-003
9.439921e-003
9.439923e-003
9.439912e-003
9.439915e-003
9.439919e-003
9.439922e-003
9.439923e-003
9.439922e-003
9.439919e-003
9.439918e-003
9.439918e-003
9.439920e-003
9.439922e-003
9.439922e-003
9.439920e-003
9.439919e-003
9.439918e-003
9.439919e-003
9.439920e-003
9.439921e-003
9.439921e-003
9.439920e-003
9.439920e-003
9.439920e-003
9.439921e-003
9.439921e-003
9.439920e-003
9.439919e-003
9.439919e-003
9.439919e-003
9.439920e-003
9.439921e-003
9.439921e-003
9.439920e-003
9.439921e-003
9.439922e-003
9.439923e-003
9.439924e-003
9.439923e-003
9.439923e-003
9.439923e-003
9.439924e-003
9.439925e-003
9.439925e-003
9.439924e-003
9.439924e-003
9.439924e-003
9.439925e-003
9.439925e-003
9.439925e-003
9.439924e-003
9.439924e-003
9.439925e-003
9.439925e-003
9.439925e-003
9.439924e-003
9.439924e-003
9.439924e-003
9.439925e-003
9.439925e-003
9.439924e-003
9.439923e-003
9.439923e-003
9.439923e-003
9.439923e-003
9.439923e-003
9.439921e-003
9.439921e-003
9.439921e-003
9.439921e-003
9.439921e-003
9.439920e-003
9.439919e-003
9.439919e-003
9.439920e-003
9.439920e-003
9.439921e-003
9.439920e-003
9.439920e-003
9.439920e-003
9.439920e-003
9.439921e-003
9.439921e-003
9.439920e-003
9.439919e-003
9.439919e-003
9.439920e-003
9.439921e-003
9.439921e-003
9.439920e-003
9.439920e-003
9.439919e-003
9.439920e-003
9.439920e-003
9.439921e-003
9.439921e-003
9.439920e-003
9.439919e-003
9.439919e-003
9.439920e-003
9.439920e-003
9.439921e-003
9.439948e-003
9.439939e-003
9.439926e-003
9.439914e-003
9.439909e-003
9.439911e-003
9.439917e-003
9.439923e-003
9.439926e-003
9.439926e-003
9.439924e-003
9.439921e-003
9.439918e-003
9.439917e-003
9.439916e-003
9.439916e-003
9.439917e-003
9.439920e-003
9.439923e-003
9.439924e-003
9.439925e-003
9.439923e-003
9.439921e-003
9.439920e-003
9.439919e-003
9.439918e-003
9.439917e-003
9.439917e-003
9.439918e-003
9.439919e-003
9.439921e-003
9.439922e-003
9.439924e-003
9.439925e-003
9.439926e-003
9.439927e-003
9.439928e-003
9.439928e-003
9.439928e-003
9.439928e-003
9.439929e-003
9.439929e-003
9.439928e-003
9.439928e-003
9.439928e-003
9.439929e-003
9.439929e-003
9.439928e-003
9.439928e-003
9.439928e-003
9.439928e-003
9.439928e-003
9.439928e-003
9.439928e-003
9.439928e-003
9.439928e-003
9.439928e-003
9.439928e-003
9.439928e-003
9.439927e-003
9.439927e-003
9.439927e-003
9.439926e-003
9.439925e-003
9.439924e-003
9.439923e-003
9.439922e-003
9.439921e-003
9.439920e-003
9.439919e-003
9.439919e-003
9.439918e-003
9.439918e-003
9.439919e-003
9.439920e-003
9.439921e-003
9.439922e-003
9.439922e-003
9.439922e-003
9.439922e-003
9.439920e-003
9.439919e-003
9.439918e-003
9.439918e-003
9.439918e-003
9.439919e-003
9.439920e-003
9.439922e-003
9.439923e-003
9.439922e-003
9.439920e-003
9.439918e-003
9.439917e-003
9.439918e-003
9.439920e-003
9.439922e-003
9.439923e-003
9.439922e-003
9.439919e-003
9.439918e-003
9.439961e-003
9.439947e-003
9.439927e-003
9.439910e-003
9.439904e-003
9.439908e-003
9.439918e-003
9.439927e-003
9.439929e-003
9.439925e-003
9.439921e-003
9.439918e-003
9.439918e-003
9.439919e-003
9.439919e-003
9.439918e-003
9.439917e-003
9.439919e-003
9.439921e-003
9.439924e-003
9.439924e-003
9.439922e-003
9.439920e-003
9.439919e-003
9.439919e-003
9.439920e-003
9.439921e-003
9.439921e-003
9.439921e-003
9.439921e-003
9.439923e-003
9.439925e-003
9.439926e-003
9.439926e-003
9.439926e-003
9.439927e-003
9.439928e-003
9.439929e-003
9.439930e-003
9.439930e-003
9.439930e-003
9.439931e-003
9.439931e-003
9.439932e-003
9.439932e-003
9.439932e-003
9.439932e-003
9.439933e-003
9.439933e-003
9.439933e-003
9.439932e-003
9.439932e-003
9.439932e-003
9.439932e-003
9.439932e-003
9.439931e-003
9.439931e-003
9.439930e-003
9.439930e-003
9.439929e-003
9.439929e-003
9.439928e-003
9.439927e-003
9.439926e-003
9.439926e-003
9.439925e-003
9.439924e-003
9.439923e-003
9.439922e-003
9.439921e-003
9.439921e-003
9.439921e-003
9.439920e-003
9.439919e-003
9.439919e-003
9.439920e-003
9.439922e-003
9.439922e-003
9.439922e-003
9.439921e-003
9.439920e-003
9.439920e-003
9.439920e-003
9.439919e-003
9.439918e-003
9.439918e-003
9.439919e-003
9.439921e-003
9.439923e-003
9.439923e-003
9.439921e-003
9.439918e-003
9.439916e-003
9.439917e-003
9.439920e-003
9.439923e-003
9.439924e-003
9.439922e-003
9.439919e-003
9.439916e-003
9.439942e-003
9.439934e-003
9.439922e-003
9.439913e-003
9.439911e-003
9.439916e-003
9.439923e-003
9.439926e-003
9.439924e-003
9.439919e-003
9.439915e-003
9.439915e-003
9.439919e-003
9.439923e-003
9.439925e-003
9.439923e-003
9.439920e-003
9.439918e-003
9.439919e-003
9.439920e-003
9.439920e-003
9.439919e-003
9.439918e-003
9.439919e-003
9.439922e-003
9.439925e-003
9.439927e-003
9.439926e-003
9.439925e-003
9.439925e-003
9.439926e-003
9.439928e-003
9.439928e-003
9.439928e-003
9.439927e-003
9.439928e-003
9.439930e-003
9.439931e-003
9.439932e-003
9.439933e-003
9.439933e-003
9.439935e-003
9.439936e-003
9.439938e-003
9.439938e-003
9.439938e-003
9.439938e-003
9.439939e-003
9.439940e-003
9.439940e-003
9.439939e-003
9.439938e-003
9.439938e-003
9.439938e-003
9.439938e-003
9.439936e-003
9.439935e-003
9.439933e-003
9.439933e-003
9.439932e-003
9.439931e-003
9.439930e-003
9.439928e-003
9.439927e-003
9.439928e-003
9.439928e-003
9.439927e-003
9.439925e-003
9.439925e-003
9.439925e-003
9.439925e-003
9.439925e-003
9.439923e-003
9.439921e-003
9.439920e-003
9.439920e-003
9.439920e-003
9.439920e-003
9.439919e-003
9.439919e-003
9.439919e-003
9.439921e-003
9.439922e-003
9.439922e-003
9.439920e-003
9.439919e-003
9.439918e-003
9.439919e-003
9.439921e-003
9.439922e-003
9.439921e-003
9.439919e-003
9.439918e-003
9.439918e-003
9.439920e-003
9.439922e-003
9.439922e-003
9.439921e-003
9.439919e-003
9.439918e-003
9.439908e-003
9.439911e-003
9.439916e-003
9.439921e-003
9.439925e-003
9.439926e-003
9.439925e-003
9.439922e-003
9.439917e-003
9.439914e-003
9.439913e-003
9.439916e-003
9.439921e-003
9.439925e-003
9.439927e-003
9.439925e-003
9.439921e-003
9.439918e-003
9.439917e-003
9.439917e-003
9.439918e-003
9.439919e-003
9.439919e-003
9.439921e-003
9.439924e-003
9.439928e-003
9.439930e-003
9.439930e-003
9.439929e-003
9.439929e-003
9.439931e-003
9.439933e-003
9.439934e-003
9.439934e-003
9.439934e-003
9.439935e-003
9.439938e-003
9.439940e-003
9.439941e-003
9.439941e-003
9.439941e-003
9.439943e-003
9.439945e-003
9.439946e-003
9.439946e-003
9.439945e-003
9.439945e-003
9.439946e-003
9.439946e-003
9.439946e-003
9.439945e-003
9.439944e-003
9.439944e-003
9.439945e-003
9.439945e-003
9.439944e-003
9.439942e-003
9.439941e-003
9.439940e-003
9.439940e-003
9.439939e-003
9.439937e-003
9.439935e-003
9.439934e-003
9.439933e-003
9.439933e-003
9.439931e-003
9.439929e-003
9.439928e-003
9.439928e-003
9.439928e-003
9.439927e-003
9.439926e-003
9.439923e-003
9.439921e-003
9.439921e-003
9.439920e-003
9.439919e-003
9.439918e-003
9.439918e-003
9.439919e-003
9.439921e-003
9.439923e-003
9.439923e-003
9.439922e-003
9.439920e-003
9.439918e-003
9.439918e-003
9.439918e-003
9.439919e-003
9.439921e-003
9.439921e-003
9.439921e-003
9.439921e-003
9.439920e-003
9.439919e-003
9.439919e-003
9.439919e-003
9.439920e-003
9.439921e-003
9.439885e-003
9.439896e-003
9.439913e-003
9.439927e-003
9.439933e-003
9.439930e-003
9.439923e-003
9.439916e-003
9.439914e-003
9.439915e-003
9.439918e-003
9.439920e-003
9.439922e-003
9.439923e-003
9.439923e-003
9.439922e-003
9.439921e-003
9.439920e-003
9.439919e-003
9.439919e-003
9.439921e-003
9.439923e-003
9.439924e-003
9.439925e-003
9.439926e-003
9.439928e-003
9.439930e-003
9.439931e-003
9.439933e-003
9.439934e-003
9.439937e-003
9.439940e-003
9.439943e-003
9.439944e-003
9.439945e-003
9.439946e-003
9.439948e-003
9.439949e-003
9.439949e-003
9.439948e-003
9.439946e-003
9.439945e-003
9.439944e-003
9.439943e-003
9.439941e-003
9.439938e-003
9.439937e-003
9.439936e-003
9.439937e-003
9.439936e-003
9.439935e-003
9.439935e-003
9.439936e-003
9.439938e-003
9.439940e-003
9.439940e-003
9.439941e-003
9.439942e-003
9.439944e-003
9.439945e-003
9.439946e-003
9.439945e-003
9.439943e-003
9.439943e-003
9.439942e-003
9.439941e-003
9.439938e-003
9.439935e-003
9.439933e-003
9.439931e-003
9.439930e-003
9.439929e-003
9.439927e-003
9.439925e-003
9.439924e-003
9.439923e-003
9.439922e-003
9.439921e-003
9.439920e-003
9.439919e-003
9.439919e-003
9.439920e-003
9.439921e-003
9.439922e-003
9.439922e-003
9.439921e-003
9.439920e-003
9.439919e-003
9.439917e-003
9.439918e-003
9.439919e-003
9.439922e-003
9.439923e-003
9.439923e-003
9.439920e-003
9.439917e-003
9.439916e-003
9.439918e-003
9.439921e-003
9.439924e-003
9.439889e-003
9.439901e-003
9.439917e-003
9.439929e-003
9.439931e-003
9.439925e-003
9.439916e-003
9.439913e-003
9.439915e-003
9.439922e-003
9.439926e-003
9.439925e-003
9.439921e-003
9.439917e-003
9.439915e-003
9.439917e-003
9.439920e-003
9.439922e-003
9.439923e-003
9.439924e-003
9.439926e-003
9.439928e-003
9.439930e-003
9.439930e-003
9.439930e-003
9.439930e-003
9.439932e-003
9.439936e-003
9.439939e-003
9.439942e-003
9.439944e-003
9.439947e-003
9.439949e-003
9.439949e-003
9.439948e-003
9.439945e-003
9.439941e-003
9.439937e-003
9.439931e-003
9.439923e-003
9.439915e-003
9.439907e-003
9.439899e-003
9.439892e-003
9.439884e-003
9.439877e-003
9.439871e-003
9.439867e-003
9.439865e-003
9.439864e-003
9.439864e-003
9.439865e-003
9.439869e-003
9.439875e-003
9.439882e-003
9.439889e-003
9.439896e-003
9.439904e-003
9.439913e-003
9.439922e-003
9.439928e-003
9.439934e-003
9.439938e-003
9.439941e-003
9.439944e-003
9.439944e-003
9.439943e-003
9.439941e-003
9.439939e-003
9.439936e-003
9.439934e-003
9.439931e-003
9.439929e-003
9.439928e-003
9.439927e-003
9.439926e-003
9.439925e-003
9.439924e-003
9.439923e-003
9.439922e-003
9.439921e-003
9.439920e-003
9.439918e-003
9.439918e-003
9.439919e-003
9.439921e-003
9.439922e-003
9.439921e-003
9.439919e-003
9.439918e-003
9.439918e-003
9.439921e-003
9.439923e-003
9.439923e-003
9.439921e-003
9.439918e-003
9.439916e-003
9.439918e-003
9.439921e-003
9.439923e-003
9.439915e-003
9.439919e-003
9.439924e-003
9.439925e-003
9.439922e-003
9.439916e-003
9.439912e-003
9.439913e-003
9.439920e-003
9.439927e-003
9.439930e-003
9.439927e-003
9.439920e-003
9.439913e-003
9.439912e-003
9.439916e-003
9.439921e-003
9.439925e-003
9.439926e-003
9.439927e-003
9.439929e-003
9.439932e-003
9.439935e-003
9.439936e-003
9.439936e-003
9.439937e-003
9.439941e-003
9.439945e-003
9.439948e-003
9.439948e-003
9.439945e-003
9.439941e-003
9.439935e-003
9.439926e-003
9.439913e-003
9.439896e-003
9.439876e-003
9.439855e-003
9.439831e-003
9.439805e-003
9.439779e-003
9.439752e-003
9.439726e-003
9.439701e-003
9.439678e-003
9.439658e-003
9.439642e-003
9.439630e-003
9.439622e-003
9.439620e-003
9.439621e-003
9.439628e-003
9.439640e-003
9.439657e-003
9.439677e-003
9.439701e-003
9.439726e-003
9.439754e-003
9.439782e-003
9.439810e-003
9.439836e-003
9.439860e-003
9.439882e-003
9.439901e-003
9.439916e-003
9.439927e-003
9.439935e-003
9.439940e-003
9.439942e-003
9.439942e-003
9.439941e-003
9.439938e-003
9.439935e-003
9.439933e-003
9.439932e-003
9.439930e-003
9.439928e-003
9.439926e-003
9.439925e-003
9.439925e-003
9.439923e-003
9.439920e-003
9.439917e-003
9.439916e-003
9.439918e-003
9.439921e-003
9.439923e-003
9.439923e-003
9.439921e-003
9.439919e-003
9.439918e-003
9.439919e-003
9.439920e-003
9.439921e-003
9.439921e-003
9.439920e-003
9.439919e-003
9.439919e-003
9.439920e-003
9.439921e-003
9.439940e-003
9.439935e-003
9.439927e-003
9.439919e-003
9.439914e-003
9.439912e-003
9.439914e-003
9.439918e-003
9.439923e-003
9.439926e-003
9.439926e-003
9.439923e-003
9.439919e-003
9.439916e-003
9.439916e-003
9.439921e-003
9.439926e-003
9.439928e-003
9.439928e-003
9.439928e-003
9.439930e-003
9.439934e-003
9.439939e-003
9.439943e-003
9.439945e-003
9.439947e-003
9.439949e-003
9.439949e-003
9.439944e-003
9.439933e-003
9.439914e-003
9.439890e-003
9.439859e-003
9.439821e-003
9.439775e-003
9.439720e-003
9.439659e-003
9.439592e-003
9.439521e-003
9.439448e-003
9.439373e-003
9.439298e-003
9.439225e-003
9.439158e-003
9.439097e-003
9.439044e-003
9.439000e-003
9.438968e-003
9.438948e-003
9.438941e-003
9.438948e-003
9.438968e-003
9.439000e-003
9.439045e-003
9.439100e-003
9.439165e-003
9.439237e-003
9.439314e-003
9.439393e-003
9.439472e-003
9.439550e-003
9.439623e-003
9.439691e-003
9.439752e-003
9.439803e-003
9.439845e-003
9.439879e-003
9.439906e-003
9.439925e-003
9.439936e-003
9.439942e-003
9.439943e-003
9.439942e-003
9.439941e-003
9.439938e-003
9.439934e-003
9.439930e-003
9.439927e-003
9.439926e-003
9.439926e-003
9.439925e-003
9.439923e-003
9.439920e-003
9.439918e-003
9.439918e-003
9.439920e-003
9.439922e-003
9.439923e-003
9.439922e-003
9.439921e-003
9.439919e-003
9.439918e-003
9.439918e-003
9.439919e-003
9.439920e-003
9.439922e-003
9.439923e-003
9.439921e-003
9.439919e-003
9.439917e-003
9.439948e-003
9.439937e-003
9.439923e-003
9.439912e-003
9.439911e-003
9.439916e-003
9.439923e-003
9.439925e-003
9.439923e-003
9.439919e-003
9.439917e-003
9.439917e-003
9.439919e-003
9.439922e-003
9.439925e-003
9.439928e-003
9.439930e-003
9.439930e-003
9.439930e-003
9.439931e-003
9.439934e-003
9.439939e-003
9.439945e-003
9.439950e-003
9.439951e-003
9.439947e-003
9.439937e-003
9.439920e-003
9.439891e-003
9.439847e-003
9.439787e-003
9.439710e-003
9.439617e-003
9.439505e-003
9.439374e-003
9.439225e-003
9.439061e-003
9.438884e-003
9.438699e-003
9.438508e-003
9.438316e-003
9.438126e-003
9.437945e-003
9.437776e-003
9.437624e-003
9.437494e-003
9.437388e-003
9.437309e-003
9.437261e-003
9.437245e-003
9.437262e-003
9.437313e-003
9.437394e-003
9.437505e-003
9.437643e-003
9.437805e-003
9.437986e-003
9.438181e-003
9.438384e-003
9.438588e-003
9.438790e-003
9.438984e-003
9.439165e-003
9.439329e-003
9.439472e-003
9.439594e-003
9.439695e-003
9.439777e-003
9.439839e-003
9.439883e-003
9.439913e-003
9.439930e-003
9.439940e-003
9.439944e-003
9.439944e-003
9.439940e-003
9.439935e-003
9.439930e-003
9.439928e-003
9.439927e-003
9.439927e-003
9.439926e-003
9.439924e-003
9.439922e-003
9.439921e-003
9.439920e-003
9.439919e-003
9.439920e-003
9.439921e-003
9.439921e-003
9.439921e-003
9.439920e-003
9.439918e-003
9.439918e-003
9.439919e-003
9.439922e-003
9.439924e-003
9.439922e-003
9.439919e-003
9.439916e-003
9.439937e-003
9.439927e-003
9.439915e-003
9.439910e-003
9.439914e-003
9.439923e-003
9.439930e-003
9.439929e-003
9.439921e-003
9.439913e-003
9.439910e-003
9.439914e-003
9.439922e-003
9.439929e-003
9.439931e-003
9.439932e-003
9.439931e-003
9.439933e-003
9.439936e-003
9.439940e-003
9.439944e-003
9.439949e-003
9.439950e-003
9.439947e-003
9.439933e-003
9.439907e-003
9.439863e-003
9.439796e-003
9.439703e-003
9.439576e-003
9.439412e-003
9.439208e-003
9.438962e-003
9.438673e-003
9.438342e-003
9.437972e-003
9.437569e-003
9.437139e-003
9.436692e-003
9.436237e-003
9.435783e-003
9.435339e-003
9.434916e-003
9.434525e-003
9.434176e-003
9.433878e-003
9.433636e-003
9.433458e-003
9.433349e-003
9.433314e-003
9.433355e-003
9.433471e-003
9.433659e-003
9.433915e-003
9.434235e-003
9.434611e-003
9.435033e-003
9.435489e-003
9.435967e-003
9.436453e-003
9.436937e-003
9.437406e-003
9.437848e-003
9.438254e-003
9.438615e-003
9.438928e-003
9.439192e-003
9.439408e-003
9.439579e-003
9.439707e-003
9.439799e-003
9.439863e-003
9.439904e-003
9.439929e-003
9.439940e-003
9.439943e-003
9.439941e-003
9.439938e-003
9.439934e-003
9.439931e-003
9.439928e-003
9.439927e-003
9.439927e-003
9.439926e-003
9.439924e-003
9.439920e-003
9.439917e-003
9.439917e-003
9.439919e-003
9.439922e-003
9.439923e-003
9.439922e-003
9.439919e-003
9.439918e-003
9.439918e-003
9.439920e-003
9.439922e-003
9.439922e-003
9.439920e-003
9.439918e-003
9.439921e-003
9.439917e-003
9.439912e-003
9.439912e-003
9.439918e-003
9.439926e-003
9.439931e-003
9.439928e-003
9.439920e-003
9.439913e-003
9.439912e-003
9.439918e-003
9.439927e-003
9.439932e-003
9.439933e-003
9.439931e-003
9.439932e-003
9.439937e-003
9.439946e-003
9.439953e-003
9.439955e-003
9.439950e-003
9.439935e-003
9.439905e-003
9.439850e-003
9.439762e-003
9.439630e-003
9.439445e-003
9.439195e-003
9.438869e-003
9.438459e-003
9.437957e-003
9.437360e-003
9.436671e-003
9.435893e-003
9.435036e-003
9.434113e-003
9.433141e-003
9.432138e-003
9.431124e-003
9.430122e-003
9.429151e-003
9.428234e-003
9.427390e-003
9.426640e-003
9.426001e-003
9.425487e-003
9.425111e-003
9.424883e-003
9.424811e-003
9.424900e-003
9.425148e-003
9.425552e-003
9.426104e-003
9.426793e-003
9.427605e-003
9.428521e-003
9.429517e-003
9.430568e-003
9.431648e-003
9.432730e-003
9.433788e-003
9.434796e-003
9.435731e-003
9.436576e-003
9.437319e-003
9.437955e-003
9.438483e-003
9.438907e-003
9.439235e-003
9.439481e-003
9.439658e-003
9.439780e-003
9.439859e-003
9.439906e-003
9.439931e-003
9.439943e-003
9.439945e-003
9.439942e-003
9.439937e-003
9.439932e-003
9.439929e-003
9.439928e-003
9.439927e-003
9.439926e-003
9.439922e-003
9.439919e-003
9.439917e-003
9.439918e-003
9.439921e-003
9.439923e-003
9.439923e-003
9.439921e-003
9.439919e-003
9.439918e-003
9.439919e-003
9.439920e-003
9.439921e-003
9.439921e-003
9.439920e-003
9.439911e-003
9.439913e-003
9.439917e-003
9.439920e-003
9.439922e-003
9.439923e-003
9.439923e-003
9.439921e-003
9.439919e-003
9.439919e-003
9.439921e-003
9.439926e-003
9.439931e-003
9.439933e-003
9.439932e-003
9.439933e-003
9.439937e-003
9.439946e-003
9.439955e-003
9.439958e-003
9.439947e-003
9.439916e-003
9.439857e-003
9.439758e-003
9.439602e-003
9.439367e-003
9.439030e-003
9.438570e-003
9.437963e-003
9.437190e-003
9.436233e-003
9.435080e-003
9.433731e-003
9.432194e-003
9.430484e-003
9.428625e-003
9.426647e-003
9.424587e-003
9.422484e-003
9.420381e-003
9.418322e-003
9.416347e-003
9.414495e-003
9.412807e-003
9.411315e-003
9.410051e-003
9.409041e-003
9.408307e-003
9.407866e-003
9.407732e-003
9.407911e-003
9.408404e-003
9.409204e-003
9.410301e-003
9.411675e-003
9.413300e-003
9.415144e-003
9.417165e-003
9.419317e-003
9.421549e-003
9.423808e-003
9.426038e-003
9.428187e-003
9.430206e-003
9.432056e-003
9.433705e-003
9.435136e-003
9.436341e-003
9.437324e-003
9.438102e-003
9.438696e-003
9.439135e-003
9.439445e-003
9.439655e-003
9.439790e-003
9.439871e-003
9.439917e-003
9.439940e-003
9.439946e-003
9.439944e-003
9.439937e-003
9.439932e-003
9.439929e-003
9.439928e-003
9.439927e-003
9.439925e-003
9.439922e-003
9.439920e-003
9.439919e-003
9.439920e-003
9.439921e-003
9.439922e-003
9.439921e-003
9.439921e-003
9.439919e-003
9.439918e-003
9.439918e-003
9.439919e-003
9.439921e-003
9.439922e-003
9.439908e-003
9.439916e-003
9.439925e-003
9.439928e-003
9.439924e-003
9.439917e-003
9.439912e-003
9.439914e-003
9.439920e-003
9.439927e-003
9.439931e-003
9.439932e-003
9.439933e-003
9.439934e-003
9.439936e-003
9.439941e-003
9.439948e-003
9.439954e-003
9.439953e-003
9.439934e-003
9.439884e-003
9.439787e-003
9.439623e-003
9.439365e-003
9.438975e-003
9.438409e-003
9.437619e-003
9.436559e-003
9.435188e-003
9.433468e-003
9.431374e-003
9.428895e-003
9.426038e-003
9.422832e-003
9.419320e-003
9.415560e-003
9.411621e-003
9.407578e-003
9.403513e-003
9.399507e-003
9.395638e-003
9.391978e-003
9.388594e-003
9.385544e-003
9.382880e-003
9.380648e-003
9.378882e-003
9.377613e-003
9.376862e-003
9.376648e-003
9.376979e-003
9.377858e-003
9.379280e-003
9.381231e-003
9.383688e-003
9.386617e-003
9.389971e-003
9.393690e-003
9.397701e-003
9.401921e-003
9.406253e-003
9.410596e-003
9.414847e-003
9.418905e-003
9.422682e-003
9.426104e-003
9.429120e-003
9.431701e-003
9.433842e-003
9.435565e-003
9.436905e-003
9.437912e-003
9.438640e-003
9.439146e-003
9.439482e-003
9.439696e-003
9.439825e-003
9.439897e-003
9.439932e-003
9.439943e-003
9.439943e-003
9.439938e-003
9.439934e-003
9.439930e-003
9.439928e-003
9.439927e-003
9.439925e-003
9.439924e-003
9.439922e-003
9.439919e-003
9.439918e-003
9.439919e-003
9.439921e-003
9.439922e-003
9.439922e-003
9.439920e-003
9.439918e-003
9.439918e-003
9.439920e-003
9.439922e-003
9.439906e-003
9.439917e-003
9.439929e-003
9.439932e-003
9.439926e-003
9.439914e-003
9.439908e-003
9.439912e-003
9.439923e-003
9.439932e-003
9.439935e-003
9.439934e-003
9.439933e-003
9.439938e-003
9.439946e-003
9.439955e-003
9.439958e-003
9.439949e-003
9.439915e-003
9.439839e-003
9.439695e-003
9.439448e-003
9.439050e-003
9.438438e-003
9.437538e-003
9.436262e-003
9.434522e-003
9.432231e-003
9.429316e-003
9.425725e-003
9.421431e-003
9.416444e-003
9.410813e-003
9.404623e-003
9.397990e-003
9.391052e-003
9.383956e-003
9.376857e-003
9.369903e-003
9.363232e-003
9.356962e-003
9.351192e-003
9.346000e-003
9.341447e-003
9.337575e-003
9.334412e-003
9.331975e-003
9.330272e-003
9.329309e-003
9.329089e-003
9.329619e-003
9.330904e-003
9.332951e-003
9.335766e-003
9.339350e-003
9.343694e-003
9.348772e-003
9.354539e-003
9.360924e-003
9.367824e-003
9.375109e-003
9.382617e-003
9.390169e-003
9.397572e-003
9.404639e-003
9.411197e-003
9.417108e-003
9.422273e-003
9.426647e-003
9.430231e-003
9.433071e-003
9.435244e-003
9.436846e-003
9.437983e-003
9.438758e-003
9.439264e-003
9.439581e-003
9.439768e-003
9.439871e-003
9.439921e-003
9.439941e-003
9.439945e-003
9.439941e-003
9.439935e-003
9.439931e-003
9.439928e-003
9.439927e-003
9.439927e-003
9.439924e-003
9.439920e-003
9.439917e-003
9.439917e-003
9.439919e-003
9.439923e-003
9.439923e-003
9.439921e-003
9.439919e-003
9.439918e-003
9.439919e-003
9.439921e-003
9.439904e-003
9.439913e-003
9.439925e-003
9.439930e-003
9.439926e-003
9.439917e-003
9.439913e-003
9.439918e-003
9.439927e-003
9.439934e-003
9.439935e-003
9.439934e-003
9.439937e-003
9.439946e-003
9.439958e-003
9.439963e-003
9.439948e-003
9.439898e-003
9.439790e-003
9.439589e-003
9.439240e-003
9.438666e-003
9.437764e-003
9.436412e-003
9.434463e-003
9.431758e-003
9.428142e-003
9.423477e-003
9.417662e-003
9.410658e-003
9.402493e-003
9.393280e-003
9.383207e-003
9.372531e-003
9.361552e-003
9.350587e-003
9.339945e-003
9.329905e-003
9.320696e-003
9.312489e-003
9.305391e-003
9.299442e-003
9.294628e-003
9.290886e-003
9.288113e-003
9.286186e-003
9.284971e-003
9.284339e-003
9.284181e-003
9.284421e-003
9.285025e-003
9.286005e-003
9.287420e-003
9.289375e-003
9.292004e-003
9.295464e-003
9.299909e-003
9.305471e-003
9.312239e-003
9.320235e-003
9.329399e-003
9.339576e-003
9.350521e-003
9.361914e-003
9.373380e-003
9.384528e-003
9.394992e-003
9.404467e-003
9.412741e-003
9.419706e-003
9.425357e-003
9.429774e-003
9.433097e-003
9.435504e-003
9.437180e-003
9.438299e-003
9.439016e-003
9.439454e-003
9.439707e-003
9.439844e-003
9.439912e-003
9.439940e-003
9.439946e-003
9.439942e-003
9.439935e-003
9.439930e-003
9.439928e-003
9.439928e-003
9.439926e-003
9.439922e-003
9.439918e-003
9.439917e-003
9.439919e-003
9.439922e-003
9.439923e-003
9.439922e-003
9.439920e-003
9.439919e-003
9.439919e-003
9.439920e-003
9.439907e-003
9.439912e-003
9.439918e-003
9.439923e-003
9.439923e-003
9.439922e-003
9.439923e-003
9.439926e-003
9.439931e-003
9.439934e-003
9.439936e-003
9.439938e-003
9.439945e-003
9.439956e-003
9.439961e-003
9.439944e-003
9.439882e-003
9.439744e-003
9.439481e-003
9.439016e-003
9.438236e-003
9.436987e-003
9.435069e-003
9.432251e-003
9.428271e-003
9.422866e-003
9.415802e-003
9.406921e-003
9.396183e-003
9.383711e-003
9.369811e-003
9.354969e-003
9.339821e-003
9.325098e-003
9.311554e-003
9.299887e-003
9.290674e-003
9.284322e-003
9.281033e-003
9.280803e-003
9.283432e-003
9.288540e-003
9.295605e-003
9.303997e-003
9.313017e-003
9.321940e-003
9.330063e-003
9.336752e-003
9.341485e-003
9.343891e-003
9.343782e-003
9.341171e-003
9.336282e-003
9.329543e-003
9.321562e-003
9.313092e-003
9.304975e-003
9.298079e-003
9.293223e-003
9.291100e-003
9.292202e-003
9.296756e-003
9.304689e-003
9.315622e-003
9.328904e-003
9.343694e-003
9.359062e-003
9.374111e-003
9.388082e-003
9.400426e-003
9.410836e-003
9.419232e-003
9.425720e-003
9.430528e-003
9.433947e-003
9.436280e-003
9.437806e-003
9.438760e-003
9.439328e-003
9.439650e-003
9.439822e-003
9.439906e-003
9.439939e-003
9.439945e-003
9.439941e-003
9.439934e-003
9.439930e-003
9.439928e-003
9.439927e-003
9.439924e-003
9.439922e-003
9.439920e-003
9.439920e-003
9.439920e-003
9.439921e-003
9.439921e-003
9.439920e-003
9.439920e-003
9.439920e-003
9.439920e-003
9.439921e-003
9.439917e-003
9.439914e-003
9.439915e-003
9.439919e-003
9.439926e-003
9.439930e-003
9.439933e-003
9.439934e-003
9.439936e-003
9.439941e-003
9.439949e-003
9.439957e-003
9.439959e-003
9.439937e-003
9.439866e-003
9.439703e-003
9.439382e-003
9.438799e-003
9.437798e-003
9.436160e-003
9.433592e-003
9.429737e-003
9.424188e-003
9.416530e-003
9.406407e-003
9.393608e-003
9.378183e-003
9.360547e-003
9.341554e-003
9.322503e-003
9.305073e-003
9.291175e-003
9.282757e-003
9.281580e-003
9.289021e-003
9.305918e-003
9.332483e-003
9.368286e-003
9.412300e-003
9.462980e-003
9.518368e-003
9.576198e-003
9.634010e-003
9.689261e-003
9.739438e-003
9.782184e-003
9.815409e-003
9.837412e-003
9.846973e-003
9.843444e-003
9.826800e-003
9.797680e-003
9.757375e-003
9.707796e-003
9.651390e-003
9.591020e-003
9.529808e-003
9.470935e-003
9.417416e-003
9.371862e-003
9.336243e-003
9.311693e-003
9.298391e-003
9.295559e-003
9.301589e-003
9.314293e-003
9.331226e-003
9.350024e-003
9.368685e-003
9.385745e-003
9.400328e-003
9.412094e-003
9.421109e-003
9.427694e-003
9.432291e-003
9.435362e-003
9.437324e-003
9.438522e-003
9.439220e-003
9.439607e-003
9.439806e-003
9.439900e-003
9.439936e-003
9.439944e-003
9.439941e-003