# vtk DataFile Version 3.0
vtk output
ASCII
DATASET STRUCTURED_POINTS
DIMENSIONS 100 100 1
SPACING 1 1 1
ORIGIN 0 0 0
POINT_DATA 10000
SCALARS SFBox_profile double
LOOKUP_TABLE default 
9.439920e-003
9.439920e-003
9.439920e-003
9.439920e-003
9.439920e-003
9.439920e-003
9.439920e-003
9.439920e-003
9.439920e-003
9.439920e-003
9.439920e-003
9.439920e-003
9.439921e-003
9.439921e-003
9.439921e-003
9.439922e-003
9.439923e-003
9.439924e-003
9.439925e-003
9.439926e-003
9.439928e-003
9.439930e-003
9.439932e-003
9.439934e-003
9.439936e-003
9.439939e-003
9.439941e-003
9.439944e-003
9.439946e-003
9.439949e-003
9.439951e-003
9.439954e-003
9.439956e-003
9.439958e-003
9.439960e-003
9.439962e-003
9.439963e-003
9.439965e-003
9.439966e-003
9.439967e-003
9.439968e-003
9.439969e-003
9.439969e-003
9.439969e-003
9.439970e-003
9.439970e-003
9.439970e-003
9.439969e-003
9.439969e-003
9.439969e-003
9.439968e-003
9.439968e-003
9.439967e-003
9.439966e-003
9.439965e-003
9.439964e-003
9.439963e-003
9.439962e-003
9.439960e-003
9.439959e-003
9.439957e-003
9.439955e-003
9.439952e-003
9.439950e-003
9.439947e-003
9.439944e-003
9.439941e-003
9.439939e-003
9.439936e-003
9.439933e-003
9.439931e-003
9.439929e-003
9.439927e-003
9.439925e-003
9.439924e-003
9.439923e-003
9.439922e-003
9.439921e-003
9.439921e-003
9.439921e-003
9.439920e-003
9.439920e-003
9.439920e-003
9.439920e-003
9.439920e-003
9.439920e-003
9.439920e-003
9.439920e-003
9.439920e-003
9.439920e-003
9.439920e-003
9.439920e-003
9.439920e-003
9.439920e-003
9.439920e-003
9.439920e-003
9.439920e-003
9.439920e-003
9.439920e-003
9.439920e-003
9.439920e-003
9.439920e-003
9.439920e-003
9.439920e-003
9.439920e-003
9.439920e-003
9.439920e-003
9.439920e-003
9.439920e-003
9.439920e-003
9.439920e-003
9.439920e-003
9.439921e-003
9.439921e-003
9.439921e-003
9.439922e-003
9.439923e-003
9.439924e-003
9.439925e-003
9.439926e-003
9.439928e-003
9.439930e-003
9.439932e-003
9.439934e-003
9.439936e-003
9.439939e-003
9.439941e-003
9.439944e-003
9.439946e-003
9.439949e-003
9.439951e-003
9.439954e-003
9.439956e-003
9.439958e-003
9.439960e-003
9.439962e-003
9.439963e-003
9.439965e-003
9.439966e-003
9.439967e-003
9.439968e-003
9.439969e-003
9.439969e-003
9.439969e-003
9.439970e-003
9.439970e-003
9.439970e-003
9.439969e-003
9.439969e-003
9.439969e-003
9.439968e-003
9.439968e-003
9.439967e-003
9.439966e-003
9.439965e-003
9.439964e-003
9.439963e-003
9.439962e-003
9.439960e-003
9.439959e-003
9.439957e-003
9.439955e-003
9.439952e-003
9.439950e-003
9.439947e-003
9.439944e-003
9.439941e-003
9.439939e-003
9.439936e-003
9.439933e-003
9.439931e-003
9.439929e-003
9.439927e-003
9.439925e-003
9.439924e-003
9.439923e-003
9.439922e-003
9.439921e-003
9.439921e-003
9.439921e-003
9.439920e-003
9.439920e-003
9.439920e-003
9.439920e-003
9.439920e-003
9.439920e-003
9.439920e-003
9.439920e-003
9.439920e-003
9.439920e-003
9.439920e-003
9.439920e-003
9.439920e-003
9.439920e-003
9.439920e-003
9.439920e-003
9.439920e-003
9.439920e-003
9.439920e-003
9.439920e-003
9.439920e-003
9.439920e-003
9.439920e-003
9.439920e-003
9.439920e-003
9.439920e-003
9.439920e-003
9.439920e-003
9.439920e-003
9.439920e-003
9.439920e-003
9.439921e-003
9.439921e-003
9.439922e-003
9.439922e-003
9.439923e-003
9.439924e-003
9.439926e-003
9.439927e-003
9.439929e-003
9.439931e-003
9.439933e-003
9.439935e-003
9.439938e-003
9.439940e-003
9.439943e-003
9.439945e-003
9.439948e-003
9.439950e-003
9.439952e-003
9.439953e-003
9.439955e-003
9.439956e-003
9.439957e-003
9.439957e-003
9.439957e-003
9.439957e-003
9.439957e-003
9.439957e-003
9.439956e-003
9.439955e-003
9.439954e-003
9.439953e-003
9.439952e-003
9.439951e-003
9.439949e-003
9.439948e-003
9.439947e-003
9.439947e-003
9.439946e-003
9.439946e-003
9.439946e-003
9.439946e-003
9.439947e-003
9.439947e-003
9.439948e-003
9.439949e-003
9.439950e-003
9.439951e-003
9.439951e-003
9.439951e-003
9.439951e-003
9.439951e-003
9.439950e-003
9.439948e-003
9.439946e-003
9.439944e-003
9.439942e-003
9.439939e-003
9.439936e-003
9.439934e-003
9.439931e-003
9.439929e-003
9.439927e-003
9.439925e-003
9.439924e-003
9.439923e-003
9.439922e-003
9.439921e-003
9.439921e-003
9.439921e-003
9.439920e-003
9.439920e-003
9.439920e-003
9.439920e-003
9.439920e-003
9.439920e-003
9.439920e-003
9.439920e-003
9.439920e-003
9.439920e-003
9.439920e-003
9.439920e-003
9.439920e-003
9.439920e-003
9.439920e-003
9.439920e-003
9.439920e-003
9.439920e-003
9.439920e-003
9.439919e-003
9.439920e-003
9.439920e-003
9.439920e-003
9.439920e-003
9.439920e-003
9.439920e-003
9.439920e-003
9.439920e-003
9.439921e-003
9.439921e-003
9.439922e-003
9.439922e-003
9.439923e-003
9.439924e-003
9.439926e-003
9.439928e-003
9.439930e-003
9.439932e-003
9.439934e-003
9.439937e-003
9.439940e-003
9.439942e-003
9.439945e-003
9.439947e-003
9.439949e-003
9.439950e-003
9.439950e-003
9.439950e-003
9.439949e-003
9.439947e-003
9.439945e-003
9.439941e-003
9.439937e-003
9.439933e-003
9.439927e-003
9.439922e-003
9.439916e-003
9.439909e-003
9.439903e-003
9.439896e-003
9.439889e-003
9.439883e-003
9.439877e-003
9.439871e-003
9.439866e-003
9.439862e-003
9.439859e-003
9.439857e-003
9.439857e-003
9.439857e-003
9.439859e-003
9.439862e-003
9.439867e-003
9.439872e-003
9.439879e-003
9.439887e-003
9.439895e-003
9.439903e-003
9.439911e-003
9.439919e-003
9.439926e-003
9.439932e-003
9.439937e-003
9.439941e-003
9.439943e-003
9.439944e-003
9.439944e-003
9.439943e-003
9.439941e-003
9.439939e-003
9.439936e-003
9.439934e-003
9.439931e-003
9.439929e-003
9.439927e-003
9.439925e-003
9.439924e-003
9.439923e-003
9.439922e-003
9.439921e-003
9.439921e-003
9.439920e-003
9.439920e-003
9.439920e-003
9.439920e-003
9.439920e-003
9.439920e-003
9.439920e-003
9.439920e-003
9.439920e-003
9.439920e-003
9.439920e-003
9.439920e-003
9.439920e-003
9.439920e-003
9.439920e-003
9.439920e-003
9.439920e-003
9.439920e-003
9.439920e-003
9.439920e-003
9.439920e-003
9.439920e-003
9.439920e-003
9.439920e-003
9.439920e-003
9.439920e-003
9.439921e-003
9.439921e-003
9.439922e-003
9.439923e-003
9.439924e-003
9.439926e-003
9.439928e-003
9.439930e-003
9.439933e-003
9.439936e-003
9.439939e-003
9.439942e-003
9.439945e-003
9.439947e-003
9.439949e-003
9.439949e-003
9.439948e-003
9.439945e-003
9.439940e-003
9.439934e-003
9.439925e-003
9.439914e-003
9.439900e-003
9.439885e-003
9.439868e-003
9.439849e-003
9.439829e-003
9.439808e-003
9.439786e-003
9.439764e-003
9.439741e-003
9.439718e-003
9.439695e-003
9.439674e-003
9.439653e-003
9.439634e-003
9.439617e-003
9.439602e-003
9.439590e-003
9.439581e-003
9.439576e-003
9.439575e-003
9.439578e-003
9.439585e-003
9.439596e-003
9.439612e-003
9.439631e-003
9.439654e-003
9.439680e-003
9.439709e-003
9.439738e-003
9.439768e-003
9.439798e-003
9.439826e-003
9.439853e-003
9.439876e-003
9.439896e-003
9.439912e-003
9.439925e-003
9.439934e-003
9.439939e-003
9.439942e-003
9.439943e-003
9.439942e-003
9.439940e-003
9.439937e-003
9.439934e-003
9.439931e-003
9.439929e-003
9.439927e-003
9.439925e-003
9.439923e-003
9.439922e-003
9.439921e-003
9.439921e-003
9.439921e-003
9.439920e-003
9.439920e-003
9.439920e-003
9.439920e-003
9.439920e-003
9.439920e-003
9.439920e-003
9.439920e-003
9.439920e-003
9.439920e-003
9.439920e-003
9.439920e-003
9.439920e-003
9.439920e-003
9.439920e-003
9.439920e-003
9.439920e-003
9.439920e-003
9.439920e-003
9.439920e-003
9.439920e-003
9.439920e-003
9.439921e-003
9.439921e-003
9.439922e-003
9.439923e-003
9.439924e-003
9.439926e-003
9.439928e-003
9.439931e-003
9.439934e-003
9.439937e-003
9.439941e-003
9.439944e-003
9.439947e-003
9.439949e-003
9.439950e-003
9.439948e-003
9.439942e-003
9.439934e-003
9.439920e-003
9.439902e-003
9.439878e-003
9.439849e-003
9.439815e-003
9.439774e-003
9.439729e-003
9.439679e-003
9.439625e-003
9.439567e-003
9.439506e-003
9.439444e-003
9.439379e-003
9.439315e-003
9.439250e-003
9.439186e-003
9.439124e-003
9.439065e-003
9.439009e-003
9.438958e-003
9.438913e-003
9.438874e-003
9.438843e-003
9.438821e-003
9.438809e-003
9.438807e-003
9.438816e-003
9.438836e-003
9.438868e-003
9.438911e-003
9.438965e-003
9.439029e-003
9.439102e-003
9.439181e-003
9.439264e-003
9.439350e-003
9.439437e-003
9.439521e-003
9.439600e-003
9.439673e-003
9.439737e-003
9.439793e-003
9.439838e-003
9.439875e-003
9.439902e-003
9.439921e-003
9.439933e-003
9.439940e-003
9.439942e-003
9.439942e-003
9.439940e-003
9.439937e-003
9.439934e-003
9.439931e-003
9.439928e-003
9.439926e-003
9.439924e-003
9.439923e-003
9.439922e-003
9.439921e-003
9.439921e-003
9.439920e-003
9.439920e-003
9.439920e-003
9.439920e-003
9.439920e-003
9.439920e-003
9.439920e-003
9.439920e-003
9.439920e-003
9.439920e-003
9.439920e-003
9.439920e-003
9.439920e-003
9.439920e-003
9.439920e-003
9.439921e-003
9.439921e-003
9.439920e-003
9.439920e-003
9.439920e-003
9.439921e-003
9.439921e-003
9.439923e-003
9.439924e-003
9.439925e-003
9.439927e-003
9.439930e-003
9.439934e-003
9.439937e-003
9.439942e-003
9.439946e-003
9.439949e-003
9.439951e-003
9.439950e-003
9.439945e-003
9.439935e-003
9.439917e-003
9.439890e-003
9.439853e-003
9.439804e-003
9.439742e-003
9.439667e-003
9.439578e-003
9.439475e-003
9.439360e-003
9.439232e-003
9.439095e-003
9.438949e-003
9.438795e-003
9.438637e-003
9.438474e-003
9.438310e-003
9.438146e-003
9.437983e-003
9.437824e-003
9.437671e-003
9.437525e-003
9.437389e-003
9.437265e-003
9.437156e-003
9.437063e-003
9.436989e-003
9.436937e-003
9.436908e-003
9.436905e-003
9.436929e-003
9.436980e-003
9.437060e-003
9.437168e-003
9.437302e-003
9.437461e-003
9.437641e-003
9.437839e-003
9.438050e-003
9.438269e-003
9.438490e-003
9.438708e-003
9.438917e-003
9.439111e-003
9.439287e-003
9.439442e-003
9.439573e-003
9.439682e-003
9.439767e-003
9.439832e-003
9.439878e-003
9.439909e-003
9.439928e-003
9.439939e-003
9.439942e-003
9.439942e-003
9.439940e-003
9.439937e-003
9.439933e-003
9.439930e-003
9.439927e-003
9.439925e-003
9.439923e-003
9.439922e-003
9.439921e-003
9.439921e-003
9.439920e-003
9.439920e-003
9.439920e-003
9.439920e-003
9.439920e-003
9.439920e-003
9.439920e-003
9.439920e-003
9.439920e-003
9.439920e-003
9.439920e-003
9.439920e-003
9.439920e-003
9.439920e-003
9.439921e-003
9.439921e-003
9.439921e-003
9.439920e-003
9.439921e-003
9.439922e-003
9.439923e-003
9.439925e-003
9.439927e-003
9.439929e-003
9.439933e-003
9.439937e-003
9.439941e-003
9.439946e-003
9.439950e-003
9.439953e-003
9.439951e-003
9.439944e-003
9.439928e-003
9.439901e-003
9.439857e-003
9.439795e-003
9.439709e-003
9.439596e-003
9.439455e-003
9.439282e-003
9.439078e-003
9.438843e-003
9.438577e-003
9.438283e-003
9.437964e-003
9.437623e-003
9.437266e-003
9.436894e-003
9.436513e-003
9.436127e-003
9.435740e-003
9.435356e-003
9.434978e-003
9.434611e-003
9.434259e-003
9.433927e-003
9.433618e-003
9.433338e-003
9.433091e-003
9.432883e-003
9.432719e-003
9.432604e-003
9.432542e-003
9.432537e-003
9.432593e-003
9.432713e-003
9.432896e-003
9.433142e-003
9.433450e-003
9.433815e-003
9.434231e-003
9.434691e-003
9.435183e-003
9.435697e-003
9.436220e-003
9.436739e-003
9.437242e-003
9.437715e-003
9.438150e-003
9.438538e-003
9.438874e-003
9.439157e-003
9.439386e-003
9.439565e-003
9.439700e-003
9.439796e-003
9.439862e-003
9.439904e-003
9.439928e-003
9.439939e-003
9.439943e-003
9.439942e-003
9.439939e-003
9.439935e-003
9.439931e-003
9.439928e-003
9.439926e-003
9.439924e-003
9.439922e-003
9.439921e-003
9.439921e-003
9.439920e-003
9.439920e-003
9.439920e-003
9.439920e-003
9.439920e-003
9.439920e-003
9.439920e-003
9.439920e-003
9.439920e-003
9.439920e-003
9.439920e-003
9.439920e-003
9.439920e-003
9.439920e-003
9.439921e-003
9.439921e-003
9.439921e-003
9.439922e-003
9.439924e-003
9.439926e-003
9.439928e-003
9.439931e-003
9.439935e-003
9.439940e-003
9.439946e-003
9.439951e-003
9.439954e-003
9.439954e-003
9.439946e-003
9.439927e-003
9.439892e-003
9.439832e-003
9.439742e-003
9.439613e-003
9.439436e-003
9.439204e-003
9.438910e-003
9.438549e-003
9.438118e-003
9.437617e-003
9.437048e-003
9.436415e-003
9.435725e-003
9.434984e-003
9.434202e-003
9.433388e-003
9.432551e-003
9.431700e-003
9.430845e-003
9.429993e-003
9.429153e-003
9.428334e-003
9.427542e-003
9.426788e-003
9.426078e-003
9.425422e-003
9.424830e-003
9.424312e-003
9.423876e-003
9.423535e-003
9.423296e-003
9.423170e-003
9.423165e-003
9.423288e-003
9.423544e-003
9.423935e-003
9.424462e-003
9.425120e-003
9.425903e-003
9.426799e-003
9.427792e-003
9.428863e-003
9.429989e-003
9.431144e-003
9.432300e-003
9.433429e-003
9.434505e-003
9.435503e-003
9.436405e-003
9.437198e-003
9.437874e-003
9.438433e-003
9.438879e-003
9.439224e-003
9.439479e-003
9.439661e-003
9.439783e-003
9.439861e-003
9.439907e-003
9.439931e-003
9.439941e-003
9.439943e-003
9.439941e-003
9.439937e-003
9.439933e-003
9.439929e-003
9.439926e-003
9.439924e-003
9.439923e-003
9.439922e-003
9.439921e-003
9.439920e-003
9.439920e-003
9.439920e-003
9.439920e-003
9.439920e-003
9.439920e-003
9.439920e-003
9.439920e-003
9.439920e-003
9.439920e-003
9.439920e-003
9.439920e-003
9.439920e-003
9.439920e-003
9.439922e-003
9.439923e-003
9.439925e-003
9.439927e-003
9.439929e-003
9.439933e-003
9.439938e-003
9.439944e-003
9.439950e-003
9.439955e-003
9.439957e-003
9.439951e-003
9.439934e-003
9.439896e-003
9.439827e-003
9.439716e-003
9.439548e-003
9.439305e-003
9.438970e-003
9.438527e-003
9.437959e-003
9.437254e-003
9.436405e-003
9.435408e-003
9.434265e-003
9.432985e-003
9.431578e-003
9.430061e-003
9.428453e-003
9.426773e-003
9.425041e-003
9.423278e-003
9.421503e-003
9.419734e-003
9.417988e-003
9.416280e-003
9.414626e-003
9.413040e-003
9.411538e-003
9.410135e-003
9.408847e-003
9.407691e-003
9.406685e-003
9.405845e-003
9.405190e-003
9.404737e-003
9.404504e-003
9.404505e-003
9.404755e-003
9.405262e-003
9.406035e-003
9.407074e-003
9.408375e-003
9.409927e-003
9.411713e-003
9.413705e-003
9.415869e-003
9.418163e-003
9.420538e-003
9.422939e-003
9.425310e-003
9.427595e-003
9.429742e-003
9.431707e-003
9.433456e-003
9.434969e-003
9.436239e-003
9.437270e-003
9.438081e-003
9.438696e-003
9.439144e-003
9.439457e-003
9.439667e-003
9.439799e-003
9.439877e-003
9.439918e-003
9.439937e-003
9.439943e-003
9.439942e-003
9.439939e-003
9.439934e-003
9.439930e-003
9.439927e-003
9.439924e-003
9.439923e-003
9.439922e-003
9.439921e-003
9.439920e-003
9.439920e-003
9.439920e-003
9.439920e-003
9.439920e-003
9.439920e-003
9.439920e-003
9.439920e-003
9.439920e-003
9.439920e-003
9.439920e-003
9.439920e-003
9.439922e-003
9.439924e-003
9.439926e-003
9.439928e-003
9.439931e-003
9.439935e-003
9.439941e-003
9.439947e-003
9.439954e-003
9.439959e-003
9.439958e-003
9.439945e-003
9.439912e-003
9.439846e-003
9.439730e-003
9.439540e-003
9.439250e-003
9.438827e-003
9.438238e-003
9.437446e-003
9.436418e-003
9.435127e-003
9.433551e-003
9.431682e-003
9.429519e-003
9.427076e-003
9.424376e-003
9.421451e-003
9.418339e-003
9.415084e-003
9.411729e-003
9.408315e-003
9.404884e-003
9.401472e-003
9.398112e-003
9.394834e-003
9.391667e-003
9.388634e-003
9.385759e-003
9.383066e-003
9.380577e-003
9.378317e-003
9.376309e-003
9.374579e-003
9.373151e-003
9.372051e-003
9.371306e-003
9.370941e-003
9.370980e-003
9.371443e-003
9.372351e-003
9.373716e-003
9.375548e-003
9.377846e-003
9.380604e-003
9.383799e-003
9.387399e-003
9.391356e-003
9.395603e-003
9.400063e-003
9.404640e-003
9.409230e-003
9.413726e-003
9.418019e-003
9.422013e-003
9.425627e-003
9.428803e-003
9.431511e-003
9.433748e-003
9.435535e-003
9.436914e-003
9.437940e-003
9.438675e-003
9.439180e-003
9.439511e-003
9.439717e-003
9.439837e-003
9.439901e-003
9.439932e-003
9.439942e-003
9.439943e-003
9.439940e-003
9.439935e-003
9.439931e-003
9.439927e-003
9.439925e-003
9.439923e-003
9.439922e-003
9.439921e-003
9.439920e-003
9.439920e-003
9.439920e-003
9.439920e-003
9.439920e-003
9.439920e-003
9.439920e-003
9.439920e-003
9.439920e-003
9.439920e-003
9.439923e-003
9.439924e-003
9.439926e-003
9.439929e-003
9.439933e-003
9.439937e-003
9.439943e-003
9.439951e-003
9.439958e-003
9.439962e-003
9.439957e-003
9.439936e-003
9.439883e-003
9.439779e-003
9.439597e-003
9.439297e-003
9.438832e-003
9.438145e-003
9.437170e-003
9.435841e-003
9.434089e-003
9.431857e-003
9.429098e-003
9.425789e-003
9.421928e-003
9.417538e-003
9.412668e-003
9.407384e-003
9.401768e-003
9.395911e-003
9.389904e-003
9.383838e-003
9.377794e-003
9.371846e-003
9.366056e-003
9.360478e-003
9.355156e-003
9.350125e-003
9.345418e-003
9.341061e-003
9.337075e-003
9.333482e-003
9.330299e-003
9.327544e-003
9.325234e-003
9.323387e-003
9.322019e-003
9.321149e-003
9.320797e-003
9.320986e-003
9.321740e-003
9.323083e-003
9.325045e-003
9.327653e-003
9.330933e-003
9.334907e-003
9.339586e-003
9.344965e-003
9.351018e-003
9.357691e-003
9.364893e-003
9.372501e-003
9.380357e-003
9.388273e-003
9.396046e-003
9.403471e-003
9.410360e-003
9.416557e-003
9.421957e-003
9.426507e-003
9.430212e-003
9.433124e-003
9.435331e-003
9.436941e-003
9.438071e-003
9.438832e-003
9.439320e-003
9.439619e-003
9.439791e-003
9.439882e-003
9.439925e-003
9.439941e-003
9.439944e-003
9.439941e-003
9.439936e-003
9.439931e-003
9.439927e-003
9.439925e-003
9.439923e-003
9.439922e-003
9.439921e-003
9.439920e-003
9.439920e-003
9.439920e-003
9.439920e-003
9.439920e-003
9.439920e-003
9.439920e-003
9.439920e-003
9.439920e-003
9.439928e-003
9.439929e-003
9.439931e-003
9.439934e-003
9.439939e-003
9.439946e-003
9.439954e-003
9.439962e-003
9.439965e-003
9.439956e-003
9.439923e-003
9.439848e-003
9.439698e-003
9.439432e-003
9.438990e-003
9.438291e-003
9.437241e-003
9.435724e-003
9.433619e-003
9.430798e-003
9.427151e-003
9.422588e-003
9.417062e-003
9.410574e-003
9.403179e-003
9.394986e-003
9.386147e-003
9.376850e-003
9.367295e-003
9.357686e-003
9.348213e-003
9.339042e-003
9.330315e-003
9.322140e-003
9.314597e-003
9.307742e-003
9.301610e-003
9.296216e-003
9.291563e-003
9.287637e-003
9.284416e-003
9.281861e-003
9.279926e-003
9.278555e-003
9.277685e-003
9.277249e-003
9.277183e-003
9.277424e-003
9.277921e-003
9.278637e-003
9.279557e-003
9.280691e-003
9.282082e-003
9.283810e-003
9.285987e-003
9.288758e-003
9.292290e-003
9.296754e-003
9.302308e-003
9.309073e-003
9.317105e-003
9.326373e-003
9.336745e-003
9.347983e-003
9.359752e-003
9.371653e-003
9.383255e-003
9.394154e-003
9.404009e-003
9.412583e-003
9.419760e-003
9.425537e-003
9.430009e-003
9.433339e-003
9.435720e-003
9.437356e-003
9.438433e-003
9.439111e-003
9.439516e-003
9.439744e-003
9.439863e-003
9.439918e-003
9.439940e-003
9.439944e-003
9.439941e-003
9.439936e-003
9.439931e-003
9.439927e-003
9.439924e-003
9.439923e-003
9.439921e-003
9.439921e-003
9.439920e-003
9.439920e-003
9.439920e-003
9.439920e-003
9.439920e-003
9.439920e-003
9.439920e-003
9.439920e-003
9.439934e-003
9.439935e-003
9.439937e-003
9.439941e-003
9.439949e-003
9.439958e-003
9.439966e-003
9.439968e-003
9.439955e-003
9.439911e-003
9.439811e-003
9.439611e-003
9.439249e-003
9.438635e-003
9.437649e-003
9.436134e-003
9.433906e-003
9.430753e-003
9.426458e-003
9.420822e-003
9.413692e-003
9.404998e-003
9.394775e-003
9.383182e-003
9.370502e-003
9.357123e-003
9.343504e-003
9.330135e-003
9.317493e-003
9.306004e-003
9.296019e-003
9.287797e-003
9.281504e-003
9.277219e-003
9.274950e-003
9.274645e-003
9.276211e-003
9.279515e-003
9.284394e-003
9.290650e-003
9.298048e-003
9.306313e-003
9.315132e-003
9.324159e-003
9.333018e-003
9.341316e-003
9.348660e-003
9.354670e-003
9.358997e-003
9.361350e-003
9.361520e-003
9.359401e-003
9.355022e-003
9.348567e-003
9.340388e-003
9.331007e-003
9.321106e-003
9.311488e-003
9.303026e-003
9.296589e-003
9.292955e-003
9.292720e-003
9.296210e-003
9.303422e-003
9.314002e-003
9.327272e-003
9.342315e-003
9.358099e-003
9.373618e-003
9.388021e-003
9.400696e-003
9.411313e-003
9.419797e-003
9.426280e-003
9.431024e-003
9.434349e-003
9.436584e-003
9.438021e-003
9.438904e-003
9.439419e-003
9.439703e-003
9.439848e-003
9.439914e-003
9.439939e-003
9.439944e-003
9.439941e-003
9.439936e-003
9.439931e-003
9.439927e-003
9.439924e-003
9.439922e-003
9.439921e-003
9.439921e-003
9.439920e-003
9.439920e-003
9.439920e-003
9.439920e-003
9.439920e-003
9.439920e-003
9.439920e-003
9.439942e-003
9.439943e-003
9.439946e-003
9.439952e-003
9.439961e-003
9.439970e-003
9.439972e-003
9.439956e-003
9.439902e-003
9.439778e-003
9.439527e-003
9.439065e-003
9.438265e-003
9.436950e-003
9.434888e-003
9.431790e-003
9.427321e-003
9.421128e-003
9.412885e-003
9.402364e-003
9.389501e-003
9.374479e-003
9.357769e-003
9.340148e-003
9.322654e-003
9.306500e-003
9.292962e-003
9.283248e-003
9.278391e-003
9.279172e-003
9.286077e-003
9.299300e-003
9.318767e-003
9.344189e-003
9.375115e-003
9.410990e-003
9.451186e-003
9.495024e-003
9.541770e-003
9.590619e-003
9.640674e-003
9.690936e-003
9.740291e-003
9.787524e-003
9.831335e-003
9.870371e-003
9.903263e-003
9.928676e-003
9.945367e-003
9.952246e-003
9.948458e-003
9.933457e-003
9.907100e-003
9.869722e-003
9.822203e-003
9.766011e-003
9.703197e-003
9.636340e-003
9.568430e-003
9.502688e-003
9.442325e-003
9.390256e-003
9.348794e-003
9.319383e-003
9.302404e-003
9.297125e-003
9.301830e-003
9.314087e-003
9.331147e-003
9.350344e-003
9.369436e-003
9.386812e-003
9.401540e-003
9.413288e-003
9.422169e-003
9.428559e-003
9.432949e-003
9.435832e-003
9.437642e-003
9.438727e-003
9.439344e-003
9.439674e-003
9.439839e-003
9.439912e-003
9.439939e-003
9.439944e-003
9.439940e-003
9.439935e-003
9.439930e-003
9.439926e-003
9.439924e-003
9.439922e-003
9.439921e-003
9.439921e-003
9.439920e-003
9.439920e-003
9.439920e-003
9.439920e-003
9.439920e-003
9.439920e-003
9.439950e-003
9.439953e-003
9.439958e-003
9.439966e-003
9.439974e-003
9.439976e-003
9.439958e-003
9.439898e-003
9.439755e-003
9.439460e-003
9.438904e-003
9.437919e-003
9.436265e-003
9.433610e-003
9.429533e-003
9.423530e-003
9.415065e-003
9.403648e-003
9.388977e-003
9.371110e-003
9.350652e-003
9.328906e-003
9.307938e-003
9.290503e-003
9.279836e-003
9.279336e-003
9.292194e-003
9.321065e-003
9.367822e-003
9.433433e-003
9.517961e-003
9.620660e-003
9.740141e-003
9.874563e-003
1.002182e-002
1.017969e-002
1.034592e-002
1.051828e-002
1.069446e-002
1.087210e-002
1.104863e-002
1.122123e-002
1.138685e-002
1.154215e-002
1.168361e-002
1.180755e-002
1.191023e-002
1.198800e-002
1.203738e-002
1.205527e-002
1.203906e-002
1.198693e-002
1.189799e-002
1.177258e-002
1.161244e-002
1.142088e-002
1.120293e-002
1.096522e-002
1.071587e-002
1.046412e-002
1.021979e-002
9.992547e-003
9.791040e-003
9.622013e-003
9.489523e-003
9.394465e-003
9.334565e-003
9.304859e-003
9.298613e-003
9.308453e-003
9.327455e-003
9.349961e-003
9.371974e-003
9.391154e-003
9.406522e-003
9.418039e-003
9.426192e-003
9.431677e-003
9.435195e-003
9.437349e-003
9.438605e-003
9.439301e-003
9.439663e-003
9.439838e-003
9.439913e-003
9.439939e-003
9.439944e-003
9.439940e-003
9.439934e-003
9.439929e-003
9.439926e-003
9.439923e-003
9.439922e-003
9.439921e-003
9.439920e-003
9.439920e-003
9.439920e-003
9.439920e-003
9.439920e-003
9.439920e-003
9.439962e-003
9.439966e-003
9.439973e-003
9.439980e-003
9.439982e-003
9.439964e-003
9.439901e-003
9.439747e-003
9.439421e-003
9.438790e-003
9.437645e-003
9.435675e-003
9.432439e-003
9.427354e-003
9.419709e-003
9.408728e-003
9.393728e-003
9.374375e-003
9.351071e-003
9.325410e-003
9.300606e-003
9.281752e-003
9.275752e-003
9.290865e-003
9.335895e-003
9.419180e-003
9.547604e-003
9.725841e-003
9.955944e-003
1.023733e-002
1.056706e-002
1.094037e-002
1.135127e-002
1.179308e-002
1.225901e-002
1.274245e-002
1.323717e-002
1.373730e-002
1.423718e-002
1.473112e-002
1.521317e-002
1.567695e-002
1.611555e-002
1.652155e-002
1.688706e-002
1.720390e-002
1.746372e-002
1.765827e-002
1.777958e-002
1.782032e-002
1.777409e-002
1.763590e-002
1.740260e-002
1.707348e-002
1.665081e-002
1.614034e-002
1.555175e-002
1.489888e-002
1.419972e-002
1.347594e-002
1.275207e-002
1.205397e-002
1.140686e-002
1.083288e-002
1.034865e-002
9.963317e-003
9.677494e-003
9.483648e-003
9.367776e-003
9.312096e-003
9.298065e-003
9.309012e-003
9.331836e-003
9.357589e-003
9.381120e-003
9.400170e-003
9.414342e-003
9.424207e-003
9.430700e-003
9.434763e-003
9.437185e-003
9.438559e-003
9.439299e-003
9.439672e-003
9.439846e-003
9.439917e-003
9.439940e-003
9.439943e-003
9.439939e-003
9.439933e-003
9.439928e-003
9.439925e-003
9.439923e-003
9.439921e-003
9.439921e-003
9.439920e-003
9.439920e-003
9.439920e-003
9.439920e-003
9.439920e-003
9.439977e-003
9.439982e-003
9.439990e-003
9.439992e-003
9.439974e-003
9.439912e-003
9.439755e-003
9.439415e-003
9.438740e-003
9.437482e-003
9.435261e-003
9.431523e-003
9.425510e-003
9.416266e-003
9.402735e-003
9.384002e-003
9.359774e-003
9.331147e-003
9.301631e-003
9.278249e-003
9.272381e-003
9.299917e-003
9.380432e-003
9.535320e-003
9.785210e-003
1.014724e-002
1.063281e-002
1.124627e-002
1.198477e-002
1.283907e-002
1.379503e-002
1.483535e-002
1.594135e-002
1.709439e-002
1.827694e-002
1.947323e-002
2.066939e-002
2.185317e-002
2.301344e-002
2.413952e-002
2.522057e-002
2.624516e-002
2.720104e-002
2.807506e-002
2.885330e-002
2.952123e-002
3.006399e-002
3.046660e-002
3.071432e-002
3.079304e-002
3.068974e-002
3.039316e-002
2.989464e-002
2.918905e-002
2.827601e-002
2.716112e-002
2.585724e-002
2.438572e-002
2.277726e-002
2.107229e-002
1.932038e-002
1.757833e-002
1.590663e-002
1.436426e-002
1.300242e-002
1.185823e-002
1.094994e-002
1.027499e-002
9.811718e-003
9.524397e-003
9.370335e-003
9.307166e-003
9.298533e-003
9.317129e-003
9.345088e-003
9.372471e-003
9.394948e-003
9.411532e-003
9.422868e-003
9.430157e-003
9.434600e-003
9.437177e-003
9.438596e-003
9.439337e-003
9.439698e-003
9.439860e-003
9.439924e-003
9.439942e-003
9.439942e-003
9.439937e-003
9.439931e-003
9.439927e-003
9.439924e-003
9.439922e-003
9.439921e-003
9.439921e-003
9.439920e-003
9.439920e-003
9.439920e-003
9.439920e-003
9.439996e-003
9.440001e-003
9.440004e-003
9.439989e-003
9.439931e-003
9.439780e-003
9.439445e-003
9.438761e-003
9.437453e-003
9.435083e-003
9.430991e-003
9.424243e-003
9.413626e-003
9.397761e-003
9.375467e-003
9.346546e-003
9.313183e-003
9.282011e-003
9.266618e-003
9.289849e-003
9.384878e-003
9.594084e-003
9.965250e-003
1.054552e-002
1.137441e-002
1.247766e-002
1.386339e-002
1.552132e-002
1.742493e-002
1.953570e-002
2.180806e-002
2.419429e-002
2.664838e-002
2.912881e-002
3.160005e-002
3.403298e-002
3.640440e-002
3.869586e-002
4.089212e-002
4.297959e-002
4.494504e-002
4.677471e-002
4.845375e-002
4.996613e-002
5.129464e-002
5.242103e-002
5.332620e-002
5.399031e-002
5.439293e-002
5.451323e-002
5.433033e-002
5.382383e-002
5.297464e-002
5.176627e-002
5.018647e-002
4.822948e-002
4.589878e-002
4.321033e-002
4.019620e-002
3.690801e-002
3.341947e-002
2.982689e-002
2.624614e-002
2.280499e-002
1.963083e-002
1.683506e-002
1.449749e-002
1.265472e-002
1.129623e-002
1.036988e-002
9.795099e-003
9.480107e-003
9.337876e-003
9.297154e-003
9.306974e-003
9.335581e-003
9.366116e-003
9.391481e-003
9.409983e-003
9.422367e-003
9.430129e-003
9.434733e-003
9.437325e-003
9.438710e-003
9.439409e-003
9.439738e-003
9.439879e-003
9.439930e-003
9.439943e-003
9.439941e-003
9.439935e-003
9.439930e-003
9.439926e-003
9.439923e-003
9.439922e-003
9.439921e-003
9.439920e-003
9.439920e-003
9.439920e-003
9.439920e-003
9.440019e-003
9.440019e-003
9.440007e-003
9.439957e-003
9.439821e-003
9.439507e-003
9.438850e-003
9.437561e-003
9.435165e-003
9.430916e-003
9.423729e-003
9.412137e-003
9.394419e-003
9.369071e-003
9.335967e-003
9.298630e-003
9.267953e-003
9.267240e-003
9.337561e-003
9.541374e-003
9.961894e-003
1.069629e-002
1.184279e-002
1.348425e-002
1.567248e-002
1.841785e-002
2.168686e-002
2.540793e-002
2.948282e-002
3.380054e-002
3.825010e-002
4.273027e-002
4.715549e-002
5.145837e-002
5.558938e-002
5.951487e-002
6.321388e-002
6.667469e-002
6.989129e-002
7.286058e-002
7.558013e-002
7.804683e-002
8.025616e-002
8.220190e-002
8.387602e-002
8.526863e-002
8.636782e-002
8.715939e-002
8.762641e-002
8.774879e-002
8.750281e-002
8.686086e-002
8.579135e-002
8.425917e-002
8.222678e-002
7.965632e-002
7.651313e-002
7.277111e-002
6.842022e-002
6.347616e-002
5.799142e-002
5.206580e-002
4.585308e-002
3.955978e-002
3.343198e-002
2.772875e-002
2.268523e-002
1.847396e-002
1.517601e-002
1.277195e-002
1.115593e-002
1.016767e-002
9.630530e-003
9.383942e-003
9.302559e-003
9.301228e-003
9.329690e-003
9.362699e-003
9.390197e-003
9.409907e-003
9.422776e-003
9.430621e-003
9.435139e-003
9.437606e-003
9.438882e-003
9.439504e-003