# vtk DataFile Version 3.0
vtk output
ASCII
DATASET STRUCTURED_POINTS
DIMENSIONS 100 100 1
SPACING 1 1 1
ORIGIN 0 0 0
POINT_DATA 10000
SCALARS SFBox_profile double
LOOKUP_TABLE default 
0.000000e+000
0.000000e+000
0.000000e+000
0.000000e+000
0.000000e+000
0.000000e+000
0.000000e+000
0.000000e+000
0.000000e+000
0.000000e+000
0.000000e+000
0.000000e+000
0.000000e+000
0.000000e+000
0.000000e+000
0.000000e+000
0.000000e+000
0.000000e+000
0.000000e+000
0.000000e+000
0.000000e+000
0.000000e+000
0.000000e+000
0.000000e+000
0.000000e+000
0.000000e+000
0.000000e+000
0.000000e+000
0.000000e+000
0.000000e+000
0.000000e+000
0.000000e+000
0.000000e+000
0.000000e+000
0.000000e+000
0.000000e+000
0.000000e+000
0.000000e+000
0.000000e+000
0.000000e+000
0.000000e+000
0.000000e+000
0.000000e+000
0.000000e+000
0.000000e+000
0.000000e+000
0.000000e+000
0.000000e+000
0.000000e+000
0.000000e+000
0.000000e+000
0.000000e+000
0.000000e+000
0.000000e+000
0.000000e+000
0.000000e+000
0.000000e+000
0.000000e+000
0.000000e+000
0.000000e+000
0.000000e+000
0.000000e+000
0.000000e+000
0.000000e+000
0.000000e+000
0.000000e+000
0.000000e+000
0.000000e+000
0.000000e+000
0.000000e+000
0.000000e+000
0.000000e+000
0.000000e+000
0.000000e+000
0.000000e+000
0.000000e+000
0.000000e+000
0.000000e+000
0.000000e+000
0.000000e+000
0.000000e+000
0.000000e+000
0.000000e+000
0.000000e+000
0.000000e+000
0.000000e+000
0.000000e+000
0.000000e+000
0.000000e+000
0.000000e+000
0.000000e+000
0.000000e+000
0.000000e+000
0.000000e+000
0.000000e+000
0.000000e+000
0.000000e+000
0.000000e+000
0.000000e+000
0.000000e+000
-8.259964e-008
-5.331347e-008
-9.973953e-009
2.559930e-008
3.729202e-008
2.342033e-008
-3.318981e-009
-2.454435e-008
-2.786211e-008
-1.384143e-008
6.115594e-009
1.889415e-008
1.868615e-008
9.360543e-009
-6.674371e-010
-5.851974e-009
-6.763342e-009
-7.184619e-009
-8.898854e-009
-9.674562e-009
-6.155282e-009
1.819096e-009
1.020880e-008
1.414285e-008
1.212783e-008
6.882000e-009
2.272153e-009
-2.253069e-010
-2.028577e-009
-4.925788e-009
-8.632859e-009
-1.103303e-008
-1.051327e-008
-7.640989e-009
-4.454268e-009
-2.380973e-009
-1.115381e-009
5.450557e-010
3.096109e-009
5.765094e-009
7.422000e-009
7.781597e-009
7.592192e-009
7.756773e-009
8.435813e-009
9.038568e-009
8.980108e-009
8.337450e-009
7.755523e-009
7.769435e-009
8.267479e-009
8.630021e-009
8.384697e-009
7.696914e-009
7.171630e-009
7.150306e-009
7.252448e-009
6.706461e-009
5.170666e-009
3.144206e-009
1.447839e-009
3.016287e-010
-9.284599e-010
-2.929234e-009
-5.439740e-009
-7.255241e-009
-7.361284e-009
-5.974167e-009
-4.259914e-009
-2.984494e-009
-1.655073e-009
7.549607e-010
4.236485e-009
7.176946e-009
7.638048e-009
5.236069e-009
1.585346e-009
-1.238935e-009
-2.581778e-009
-3.394154e-009
-4.575901e-009
-5.434584e-009
-4.162353e-009
-4.079844e-012
5.201973e-009
7.982715e-009
6.067738e-009
5.103014e-010
-4.941235e-009
-6.729285e-009
-4.130525e-009
4.935079e-010
3.795429e-009
3.947472e-009
1.597471e-009
-1.115097e-009
-2.334018e-009
-1.623634e-009
1.007669e-010
1.439889e-009
-9.378400e-009
-6.506265e-009
-1.968997e-009
2.211604e-009
4.082817e-009
2.914889e-009
-1.297948e-010
-2.593494e-009
-2.492152e-009
1.710468e-011
2.611371e-009
2.726142e-009
-9.459498e-011
-3.588995e-009
-4.653864e-009
-2.115498e-009
2.174435e-009
4.986354e-009
4.547359e-009
1.870253e-009
-5.764706e-010
-1.354650e-009
-1.155191e-009
-1.567087e-009
-3.047169e-009
-4.333099e-009
-3.838502e-009
-1.405917e-009
1.487384e-009
3.198526e-009
3.410048e-009
3.113752e-009
3.291542e-009
3.838147e-009
3.828078e-009
2.668190e-009
7.891878e-010
-8.188514e-010
-1.611169e-009
-1.919958e-009
-2.436671e-009
-3.405160e-009
-4.400704e-009
-4.851352e-009
-4.670739e-009
-4.328799e-009
-4.336964e-009
-4.728798e-009
-5.073968e-009
-4.977303e-009
-4.514950e-009
-4.145403e-009
-4.197266e-009
-4.489881e-009
-4.508406e-009
-3.957384e-009
-3.086800e-009
-2.410450e-009
-2.109652e-009
-1.799340e-009
-9.592710e-010
4.263942e-010
1.760551e-009
2.425310e-009
2.428397e-009
2.347889e-009
2.603054e-009
2.886802e-009
2.462316e-009
1.043837e-009
-7.378016e-010
-1.868505e-009
-1.938611e-009
-1.488158e-009
-1.310458e-009
-1.501140e-009
-1.354864e-009
-2.616200e-010
1.404237e-009
2.453103e-009
2.008349e-009
4.192712e-010
-1.021454e-009
-1.281852e-009
-4.910143e-010
3.353496e-010
3.814412e-010
-2.160426e-010
-6.539657e-010
-3.799761e-010
3.541555e-010
8.187370e-010
5.832705e-010
-8.647890e-011
-5.619441e-010
-4.937254e-010
-8.741603e-011
2.053883e-010
1.814768e-010
3.111133e-011
7.320073e-008
4.650841e-008
7.575932e-009
-2.346212e-008
-3.266394e-008
-1.972138e-008
3.423412e-009
2.120679e-008
2.412455e-008
1.318229e-008
-2.920914e-009
-1.472171e-008
-1.764116e-008
-1.297080e-008
-4.915826e-009
2.935198e-009
8.969103e-009
1.266882e-008
1.340315e-008
1.046277e-008
4.112552e-009
-3.780047e-009
-1.046673e-008
-1.385071e-008
-1.349556e-008
-1.037558e-008
-5.848560e-009
-8.837285e-010
3.951764e-009
8.118660e-009
1.098318e-008
1.210353e-008
1.152829e-008
9.719892e-009
7.190868e-009
4.257544e-009
1.118834e-009
-1.949823e-009
-4.603063e-009
-6.640055e-009
-8.134435e-009
-9.286947e-009
-1.017019e-008
-1.068256e-008
-1.076297e-008
-1.057766e-008
-1.041919e-008
-1.042634e-008
-1.047307e-008
-1.037024e-008
-1.012918e-008
-9.954005e-009
-9.970639e-009
-1.003407e-008
-9.857497e-009
-9.302596e-009
-8.471804e-009
-7.500322e-009
-6.325588e-009
-4.733836e-009
-2.627782e-009
-1.850520e-010
2.273436e-009
4.517544e-009
6.446060e-009
7.909183e-009
8.591107e-009
8.155343e-009
6.513068e-009
3.911934e-009
7.705881e-010
-2.499124e-009
-5.457249e-009
-7.500577e-009
-7.948636e-009
-6.440411e-009
-3.308536e-009
4.825364e-010
3.832895e-009
5.984700e-009
6.584411e-009
5.457776e-009
2.589425e-009
-1.487067e-009
-5.343224e-009
-7.044372e-009
-5.353142e-009
-8.882416e-010
3.889012e-009
6.149809e-009
4.646458e-009
6.124566e-010
-3.142427e-009
-4.260995e-009
-2.434120e-009
5.950328e-010
2.497867e-009
2.097252e-009
9.131094e-011
-1.662250e-009
9.279113e-008
5.953255e-008
1.077574e-008
-2.844870e-008
-4.041417e-008
-2.439859e-008
4.412517e-009
2.577571e-008
2.750573e-008
1.201203e-008
-7.647972e-009
-1.838442e-008
-1.596546e-008
-5.915706e-009
2.946454e-009
5.957589e-009
4.833163e-009
3.892018e-009
4.914664e-009
5.751848e-009
3.430180e-009
-2.047663e-009
-7.289941e-009
-8.716846e-009
-5.872446e-009
-1.518734e-009
1.264708e-009
1.777800e-009
1.603272e-009
2.305270e-009
3.667841e-009
4.220051e-009
3.102016e-009
1.033115e-009
-5.502715e-010
-9.931308e-010
-8.535312e-010
-9.963581e-010
-1.575792e-009
-2.027957e-009
-1.869900e-009
-1.249947e-009
-6.882033e-010
-4.700387e-010
-4.395271e-010
-3.153190e-010
-3.859687e-011
2.328413e-010
3.548899e-010
3.182805e-010
1.852416e-010
1.408381e-011
-1.409926e-010
-2.471507e-010
-3.622183e-010
-6.179662e-010
-1.045346e-009
-1.444062e-009
-1.540888e-009
-1.315733e-009
-1.064425e-009
-1.026434e-009
-1.000651e-009
-5.024807e-010
6.186751e-010
1.843206e-009
2.437322e-009
2.245282e-009
1.844168e-009
1.780659e-009
1.772743e-009
9.349352e-010
-1.085375e-009
-3.362750e-009
-4.349311e-009
-3.363122e-009
-1.283234e-009
3.861725e-010
1.081286e-009
1.589575e-009
2.787021e-009
4.144721e-009
3.864761e-009
7.836327e-010
-3.874571e-009
-6.925380e-009
-5.771869e-009
-8.135267e-010
4.588762e-009
6.692075e-009
4.281207e-009
-5.454290e-010
-4.221005e-009
-4.471580e-009
-1.746315e-009
1.551269e-009
3.072185e-009
2.102000e-009
-2.614680e-010
-2.123447e-009
3.140689e-008
2.079538e-008
4.870072e-009
-8.429909e-009
-1.283295e-008
-7.531829e-009
2.142005e-009
8.290986e-009
6.259332e-009
-1.694615e-009
-8.187734e-009
-6.947403e-009
1.629191e-009
1.056709e-008
1.221910e-008
4.836257e-009
-6.076151e-009
-1.271629e-008
-1.152510e-008
-5.333913e-009
3.522017e-010
2.744272e-009
3.472804e-009
5.488655e-009
9.041117e-009
1.116324e-008
8.952184e-009
2.823507e-009
-3.778209e-009
-7.678239e-009
-8.606284e-009
-8.571917e-009
-9.121390e-009
-9.695818e-009
-8.665070e-009
-5.481178e-009
-1.395140e-009
1.872099e-009
3.777826e-009
5.113452e-009
6.773670e-009
8.719703e-009
1.019899e-008
1.071168e-008
1.052496e-008
1.029402e-008
1.039242e-008
1.068730e-008
1.083467e-008
1.065780e-008
1.026984e-008
9.943326e-009
9.874417e-009
9.979822e-009
9.885798e-009
9.211132e-009
7.952037e-009
6.527606e-009
5.309404e-009
4.107126e-009
2.299274e-009
-3.877633e-010
-3.329691e-009
-5.457355e-009
-6.319658e-009
-6.499806e-009
-6.776548e-009
-6.966910e-009
-5.934829e-009
-2.952214e-009
1.110651e-009
4.282837e-009
5.298396e-009
4.716249e-009
4.037416e-009
3.811949e-009
2.983012e-009
3.453617e-010
-3.510490e-009
-6.129968e-009
-5.368929e-009
-1.627618e-009
2.272908e-009
3.578728e-009
1.999492e-009
-3.242694e-010
-1.102869e-009
-3.597364e-011
1.242190e-009
1.097979e-009
-4.219482e-010
-1.801045e-009
-1.712551e-009
-3.010275e-010
1.127958e-009
1.477504e-009
7.863128e-010
-1.040865e-010
-5.487879e-010
-6.002369e-010
-5.883792e-008
-3.661813e-008
-4.986806e-009
1.908757e-008
2.523763e-008
1.487336e-008
-2.021597e-009
-1.474502e-008
-1.798537e-008
-1.262116e-008
-2.666143e-009
7.748248e-009
1.522886e-008
1.693646e-008
1.140481e-008
2.798058e-010
-1.133788e-008
-1.753744e-008
-1.562981e-008
-7.949899e-009
4.135832e-010
5.839488e-009
8.318567e-009
9.793114e-009
1.099350e-008
1.042554e-008
6.455148e-009
-1.566643e-010
-6.331911e-009
-9.345097e-009
-9.126892e-009
-7.772623e-009
-7.028707e-009
-6.640412e-009
-5.190536e-009
-2.141644e-009
1.366298e-009
3.715856e-009
4.444690e-009
4.471999e-009
4.877860e-009
5.766719e-009
6.393511e-009
6.168905e-009
5.311109e-009
4.542646e-009
4.341990e-009
4.578082e-009
4.775737e-009
4.622636e-009
4.237694e-009
4.033433e-009
4.323208e-009
4.990247e-009
5.526540e-009
5.483193e-009
4.937924e-009
4.434344e-009
4.338464e-009
4.287824e-009
3.461317e-009
1.502570e-009
-9.467222e-010
-2.832539e-009
-3.807237e-009
-4.537166e-009
-5.724075e-009
-6.954998e-009
-6.851832e-009
-4.524834e-009
-7.138379e-010
2.763707e-009
4.704366e-009
5.431106e-009
5.898309e-009
6.115183e-009
4.870984e-009
1.235446e-009
-3.835500e-009
-7.720036e-009
-8.150346e-009
-5.048887e-009
-4.210872e-010
3.390931e-009
5.238788e-009
5.202879e-009
3.673444e-009
9.067276e-010
-2.462211e-009
-4.939593e-009
-4.846554e-009
-1.851369e-009
2.231157e-009
4.536694e-009
3.451094e-009
4.965127e-011
-2.766823e-009
-2.774587e-009
-3.325400e-010
2.043704e-009
-1.008497e-007
-6.334626e-008
-9.804913e-009
3.091587e-008
4.076169e-008
2.226813e-008
-6.035315e-009
-2.399959e-008
-2.291813e-008
-8.458138e-009
6.745724e-009
1.341526e-008
1.073398e-008
3.900577e-009
-1.731526e-009
-4.243975e-009
-4.480130e-009
-3.529370e-009
-1.614964e-009
1.037458e-009
3.292778e-009
3.721638e-009
2.019551e-009
-6.098966e-010
-2.630856e-009
-3.508084e-009
-3.697378e-009
-3.536716e-009
-2.598712e-009
-3.478876e-010
2.802614e-009
5.481140e-009
6.532551e-009
6.038006e-009
5.017187e-009
4.214017e-009
3.387091e-009
1.835649e-009
-5.772224e-010
-3.129456e-009
-4.947975e-009
-5.844887e-009
-6.367549e-009
-7.109340e-009
-8.096704e-009
-8.860234e-009
-9.006687e-009
-8.646120e-009
-8.274660e-009
-8.284904e-009
-8.596649e-009
-8.749325e-009
-8.362575e-009
-7.521194e-009
-6.683560e-009
-6.167691e-009
-5.743783e-009
-4.823580e-009
-3.111888e-009
-1.010150e-009
7.388880e-010
1.815638e-009
2.607023e-009
3.626733e-009
4.732777e-009
5.117932e-009
4.168512e-009
2.218500e-009
2.931981e-010
-8.817777e-010
-1.451911e-009
-1.948917e-009
-2.409129e-009
-2.232538e-009
-9.836072e-010
8.555550e-010
2.138791e-009
2.070459e-009
8.500288e-010
-6.858482e-010
-1.852479e-009
-2.381101e-009
-2.062236e-009
-5.859220e-010
1.899914e-009
4.166306e-009
4.349484e-009
1.548554e-009
-2.864385e-009
-5.811850e-009
-4.874773e-009
-4.778301e-010
4.184413e-009
5.619222e-009
2.859864e-009
-1.767875e-009
-4.574305e-009
-3.489159e-009
3.529072e-010
3.645593e-009
-5.906058e-008
-3.665893e-008
-5.035749e-009
1.805608e-008
2.178377e-008
8.810311e-009
-7.642119e-009
-1.409487e-008
-6.753819e-009
6.512399e-009
1.348674e-008
7.968815e-009
-5.456220e-009
-1.587545e-008
-1.533994e-008
-4.797819e-009
7.865393e-009
1.490710e-008
1.417857e-008
8.808636e-009
2.875690e-009
-2.019620e-009
-6.463021e-009
-1.072991e-008
-1.344597e-008
-1.276016e-008
-8.354726e-009
-1.946590e-009
4.099360e-009
8.403818e-009
1.089851e-008
1.197200e-008
1.171186e-008
1.001682e-008
7.131460e-009
3.752873e-009
5.625500e-010
-2.202635e-009
-4.639197e-009
-6.746389e-009
-8.266010e-009
-8.981743e-009
-9.059009e-009
-8.957034e-009
-8.987508e-009
-9.042353e-009
-8.819757e-009
-8.280040e-009
-7.780244e-009
-7.711759e-009
-8.060434e-009
-8.415418e-009
-8.429915e-009
-8.194002e-009
-8.071568e-009
-8.190652e-009
-8.202255e-009
-7.609633e-009
-6.280484e-009
-4.529623e-009
-2.689838e-009
-7.262981e-010
1.607132e-009
4.264146e-009
6.703767e-009
8.265106e-009
8.663053e-009
8.009536e-009
6.411975e-009
3.782454e-009
2.047005e-010
-3.610503e-009
-6.498130e-009
-7.617659e-009
-6.993225e-009
-5.186208e-009
-2.556641e-009
8.520030e-010
4.563599e-009
7.097992e-009
6.707209e-009
3.072269e-009
-1.804514e-009
-4.813471e-009
-4.241259e-009
-1.217662e-009
1.382133e-009
1.574496e-009
-9.500959e-011
-1.407278e-009
-8.074806e-010
1.143638e-009
2.495407e-009
1.875352e-009
-2.879955e-010
-2.289171e-009
-2.667754e-009
-1.267856e-009
8.724519e-010
2.382029e-009
3.089902e-008
2.009186e-008
4.493948e-009
-8.229568e-009
-1.354547e-008
-1.144546e-008
-4.474957e-009
4.473557e-009
1.238327e-008
1.553363e-008
1.074998e-008
-1.404237e-009
-1.487660e-008
-2.105311e-008
-1.513367e-008
-4.991054e-010
1.340326e-008
1.828983e-008
1.307655e-008
3.519699e-009
-3.605897e-009
-5.928172e-009
-5.745740e-009
-5.980529e-009
-6.701413e-009
-5.685295e-009
-1.703792e-009
3.520678e-009
6.802568e-009
6.544802e-009
3.971913e-009
1.482972e-009
2.362445e-010
-4.397072e-010
-1.586107e-009
-3.120627e-009
-3.989694e-009
-3.497993e-009
-2.078868e-009
-6.919174e-010
2.435785e-010
1.074954e-009
2.202970e-009
3.469041e-009
4.387430e-009
4.794022e-009
5.008102e-009
5.345660e-009
5.695795e-009
5.722795e-009
5.366445e-009
4.925669e-009
4.623041e-009
4.279871e-009
3.568476e-009
2.489662e-009
1.397842e-009
5.290130e-010
-2.959745e-010
-1.338744e-009
-2.418709e-009
-2.964077e-009
-2.655760e-009
-1.826428e-009
-1.027340e-009
-2.935093e-010
8.614186e-010
2.587956e-009
4.069450e-009
4.095602e-009
2.346615e-009
-1.362828e-010
-1.978149e-009
-2.851849e-009
-3.521675e-009
-4.429112e-009
-4.594025e-009
-2.433573e-009
2.145502e-009
6.773360e-009
8.209696e-009
5.184097e-009
-3.447970e-010
-4.821763e-009
-5.991742e-009
-4.271127e-009
-1.592726e-009
6.378591e-010
2.252305e-009
3.369019e-009
3.446229e-009
1.774854e-009
-1.184805e-009
-3.504316e-009
-3.320946e-009
-7.605698e-010
1.927011e-009
2.425464e-009
6.014767e-010
-1.405027e-009
9.459685e-008
5.871380e-008
8.695866e-009
-2.760670e-008
-3.499448e-008
-1.854410e-008
4.036093e-009
1.704878e-008
1.620655e-008
7.252600e-009
-1.834646e-009
-6.833330e-009
-7.560279e-009
-5.085453e-009
-3.759594e-010
4.715237e-009
6.959528e-009
3.893613e-009
-3.224273e-009
-9.404431e-009
-9.811024e-009
-4.015330e-009
3.737179e-009
8.556864e-009
9.056139e-009
7.505812e-009
6.381804e-009
5.475721e-009
2.688140e-009
-2.804851e-009
-8.927239e-009
-1.249663e-008
-1.227157e-008
-9.804241e-009
-7.382969e-009
-5.648189e-009
-3.510538e-009
-6.349493e-011
4.036274e-009
7.266936e-009
8.916123e-009
9.636589e-009
1.040890e-008
1.138769e-008
1.199603e-008
1.189161e-008
1.143670e-008
1.117905e-008
1.120000e-008
1.120151e-008
1.106050e-008
1.097778e-008
1.105651e-008
1.102724e-008
1.058502e-008
9.827666e-009
9.071458e-009
8.244758e-009
6.783426e-009
4.330480e-009
1.351828e-009
-1.261298e-009
-3.200837e-009
-5.011375e-009
-7.128039e-009
-8.874276e-009
-8.863570e-009
-6.538782e-009
-3.008312e-009
-2.923212e-011
1.747754e-009
3.141593e-009
4.927665e-009
6.341859e-009
5.619280e-009
2.150788e-009
-2.258694e-009
-4.697870e-009
-3.789523e-009
-8.677751e-010
1.491831e-009
1.883810e-009
8.861022e-010
-2.221598e-010
-9.689732e-010
-1.632977e-009
-2.059209e-009
-1.287639e-009
1.179011e-009
3.985030e-009
4.511493e-009
1.414830e-009
-3.435567e-009
-6.044832e-009
-3.851023e-009
1.590194e-009
5.652133e-009
4.741590e-009
-3.243779e-010
-4.953889e-009
8.307510e-008
4.866666e-008
2.478057e-009
-2.727450e-008
-2.715623e-008
-6.261379e-009
1.373392e-008
1.678873e-008
3.732201e-009
-1.150128e-008
-1.544306e-008
-5.902754e-009
8.321455e-009
1.644935e-008
1.418539e-008
4.904047e-009
-5.248903e-009
-1.221891e-008
-1.486076e-008
-1.309119e-008
-7.015214e-009
1.962330e-009
1.040993e-008
1.458857e-008
1.330447e-008
8.691441e-009
3.885313e-009
1.587874e-010
-3.345941e-009
-7.335192e-009
-1.060019e-008
-1.102703e-008
-8.095653e-009
-3.733822e-009
-4.445364e-010
1.065959e-009
2.046216e-009
3.711795e-009
5.671207e-009
6.551681e-009
5.788431e-009
4.275820e-009
3.238536e-009
2.909185e-009
2.598562e-009
1.808796e-009
8.385128e-010
2.562570e-010
1.655074e-010
2.566122e-010
3.815849e-010
7.127319e-010
1.321097e-009
1.943325e-009
2.371493e-009
2.847137e-009
3.730728e-009
4.811533e-009
5.309327e-009
4.751331e-009
3.595670e-009
2.644640e-009
1.909027e-009
4.841292e-010
-2.208399e-009
-5.323684e-009
-7.158426e-009
-6.849393e-009
-5.159733e-009
-3.367881e-009
-1.666615e-009
8.532421e-010
4.552994e-009
8.027361e-009
9.000091e-009
6.472627e-009
1.731133e-009
-2.836317e-009
-5.649162e-009
-6.510152e-009
-5.683885e-009
-3.163393e-009
7.370751e-010
4.447945e-009
5.664294e-009
3.384417e-009
-6.704786e-010
-3.200325e-009
-2.300512e-009
6.740731e-010
2.408828e-009
9.398208e-010
-2.321725e-009
-3.927081e-009
-1.816370e-009
2.517738e-009
5.255079e-009
3.738722e-009
-1.014381e-009
-5.097968e-009
1.145188e-008
2.172459e-009
-8.060736e-009
-9.714083e-009
-4.935276e-010
1.203126e-008
1.633001e-008
6.874461e-009
-1.032075e-008
-2.189952e-008
-1.809664e-008
-1.097979e-009
1.660225e-008
2.245930e-008
1.368021e-008
-1.742567e-009
-1.273708e-008
-1.389954e-008
-7.813743e-009
-5.263748e-010
4.067788e-009
5.741940e-009
5.610866e-009
3.951145e-009
6.118823e-010
-3.451696e-009
-6.196066e-009
-6.246277e-009
-4.102279e-009
-1.272321e-009
1.442038e-009
4.301496e-009
7.385585e-009
9.672048e-009
9.840220e-009
7.794948e-009
4.884175e-009
2.471543e-009
6.362271e-010
-1.458709e-009
-4.162145e-009
-6.751217e-009
-8.307721e-009
-8.792315e-009
-8.954973e-009
-9.355972e-009
-9.840694e-009
-1.000872e-008
-9.848704e-009
-9.666399e-009
-9.574517e-009
-9.386224e-009
-9.010879e-009
-8.630726e-009
-8.313829e-009
-7.685849e-009
-6.297393e-009
-4.269746e-009
-2.250018e-009
-6.046921e-010
1.061372e-009
3.283747e-009
5.747281e-009
7.301578e-009
7.120565e-009
5.593098e-009
3.797074e-009
2.235158e-009
4.879298e-010
-1.777420e-009
-3.835050e-009
-4.356211e-009
-2.823191e-009
-1.640101e-010
2.136278e-009
3.276685e-009
3.267849e-009
2.136153e-009
-3.162805e-010
-3.619470e-009
-5.938239e-009
-5.099598e-009
-7.967161e-010
4.429702e-009
6.936163e-009
5.052855e-009
4.905789e-010
-3.304255e-009
-4.136391e-009
-2.499021e-009
-4.244718e-010
6.461183e-010
7.763252e-010
7.546475e-010
9.408702e-010
1.034285e-009
6.834530e-010
-2.672169e-011
-7.174900e-010
-1.103386e-009
-6.003368e-008
-3.989331e-008
-1.094933e-008
1.228900e-008
2.138218e-008
1.714261e-008
6.037092e-009
-5.173838e-009
-1.200471e-008
-1.218579e-008
-5.810856e-009
3.636746e-009
9.927731e-009
8.119803e-009
-7.583705e-010
-9.470909e-009
-1.027877e-008
-1.799324e-009
9.609038e-009
1.540667e-008
1.198254e-008
2.699662e-009
-6.227339e-009
-1.111025e-008
-1.227424e-008
-1.148621e-008
-9.257736e-009
-4.969355e-009
1.209362e-009
7.515617e-009
1.187034e-008
1.347823e-008
1.291006e-008
1.098127e-008
8.055988e-009
4.413298e-009
7.401447e-010
-2.160019e-009
-4.037611e-009
-5.255420e-009
-6.149820e-009
-6.593127e-009
-6.314828e-009
-5.446963e-009
-4.499018e-009
-3.831818e-009
-3.382422e-009
-2.959201e-009
-2.602725e-009
-2.501664e-009
-2.679908e-009
-2.984620e-009
-3.368061e-009
-3.957663e-009
-4.750711e-009
-5.416359e-009
-5.589195e-009
-5.280176e-009
-4.770754e-009
-4.077705e-009
-2.767315e-009
-4.821609e-010
2.472538e-009
5.293490e-009
7.401415e-009
8.750336e-009
9.346238e-009
8.760952e-009
6.480679e-009
2.722383e-009
-1.418967e-009
-4.790473e-009
-6.926558e-009
-7.769342e-009
-6.926793e-009
-3.842718e-009
9.763230e-010
5.304078e-009
6.511717e-009
3.939937e-009
-2.199825e-010
-2.758202e-009
-2.255858e-009
-1.817687e-011
1.627705e-009
1.592001e-009
4.819904e-010
-7.042715e-010
-1.643916e-009
-2.292469e-009
-2.062647e-009
-2.369167e-010
2.612697e-009
4.262898e-009
2.711327e-009
-1.384289e-009
-4.641086e-009
-3.947451e-009
3.071145e-010
4.283112e-009
-8.073007e-008
-4.606711e-008
-9.265617e-010
2.603379e-008
2.358892e-008
3.531574e-009
-1.280691e-008
-1.307557e-008
-1.214955e-009
1.010427e-008
1.198112e-008
4.942895e-009
-4.738127e-009
-1.150605e-008
-1.312805e-008
-9.363123e-009
-8.912126e-010
9.629414e-009
1.702355e-008
1.635516e-008
7.271502e-009
-4.818211e-009
-1.273973e-008
-1.314801e-008
-8.319417e-009
-2.856955e-009
7.290300e-010
3.087490e-009
5.554378e-009
7.732468e-009
7.897174e-009
5.248687e-009
1.061795e-009
-2.479300e-009
-4.171618e-009
-4.330470e-009
-3.802751e-009
-2.926524e-009
-1.513488e-009
5.208655e-010
2.838052e-009
4.948758e-009
6.593143e-009
7.797495e-009
8.686416e-009
9.337265e-009
9.768695e-009
9.980887e-009
9.993569e-009
9.870584e-009
9.689144e-009
9.450930e-009
9.048626e-009
8.373189e-009
7.437841e-009
6.325174e-009
5.016686e-009
3.390667e-009
1.465239e-009
-4.424648e-010
-1.930008e-009
-2.851867e-009
-3.289093e-009
-3.158477e-009
-2.093033e-009
4.523401e-011
2.612372e-009
4.463049e-009
4.932749e-009
4.335367e-009
3.266183e-009
1.611274e-009
-1.244245e-009
-5.011397e-009
-7.723934e-009
-7.043411e-009
-2.617622e-009
3.116124e-009
6.806432e-009
6.887439e-009
4.350961e-009
1.135019e-009
-1.668766e-009
-3.807718e-009
-4.725137e-009
-3.463145e-009
-1.438636e-010
3.053100e-009
3.410086e-009
5.911056e-010
-2.447887e-009
-2.229123e-009
1.368228e-009
4.495734e-009
3.180080e-009
-2.176928e-009
-6.616764e-009
-5.405022e-009
9.688707e-010
6.872380e-009
-4.802890e-008
-1.959693e-008
1.369984e-008
2.567221e-008
1.011307e-008
-1.528318e-008
-2.622009e-008
-1.347726e-008
1.064226e-008
2.529491e-008
1.983389e-008
1.139559e-009
-1.501680e-008
-1.821629e-008
-9.925882e-009
1.217297e-009
8.067042e-009
8.966110e-009
5.699842e-009
2.970963e-010
-5.428738e-009
-8.844222e-009
-7.245055e-009
-5.045350e-010
7.740032e-009
1.258000e-008
1.183439e-008
7.379859e-009
2.597345e-009
-9.747558e-010
-4.169925e-009
-7.897099e-009
-1.120320e-008
-1.202201e-008
-9.487040e-009
-4.953217e-009
-6.517641e-010
2.305826e-009
4.384387e-009
6.391951e-009
8.266663e-009
9.221771e-009
8.799974e-009
7.448330e-009
6.026873e-009
4.979330e-009
4.143740e-009
3.273118e-009
2.507480e-009
2.231632e-009
2.590142e-009
3.327361e-009
4.134924e-009
4.999221e-009
6.053348e-009
7.136873e-009
7.716719e-009
7.370409e-009
6.228383e-009
4.733859e-009
2.981163e-009
5.719704e-010
-2.656826e-009
-5.914000e-009
-7.832478e-009
-7.715953e-009
-6.177194e-009
-4.286964e-009
-2.251309e-009
6.068953e-010
4.378810e-009
7.503584e-009
7.780703e-009
4.627164e-009
3.935715e-012
-3.205800e-009
-3.645249e-009
-2.135736e-009
-1.666327e-010
1.600746e-009
3.035303e-009
3.368909e-009
1.403611e-009
-2.634127e-009
-6.049353e-009
-5.560671e-009
-7.438639e-010
4.793275e-009
6.401665e-009
2.878197e-009
-2.240022e-009
-4.151908e-009
-1.563601e-009
2.189090e-009
2.805809e-009
-4.148917e-010
-3.896621e-009
-3.637453e-009
5.034579e-010
4.575192e-009
1.759889e-009
1.090339e-008
1.819041e-008
1.277173e-008
-4.514979e-009
-2.059610e-008
-2.166756e-008
-6.172988e-009
1.314588e-008
2.041915e-008
1.074581e-008
-5.928626e-009
-1.449947e-008
-8.425761e-009
5.349551e-009
1.397250e-008
1.046920e-008
-1.395484e-009
-1.225497e-008
-1.561725e-008
-1.148833e-008
-3.629193e-009
4.632931e-009
1.152932e-008
1.550926e-008
1.486480e-008
9.396292e-009
1.630692e-009
-4.682045e-009
-7.526861e-009
-7.739994e-009
-7.163841e-009
-6.266647e-009
-4.080773e-009
-2.352273e-010
3.729212e-009
5.513777e-009
4.268800e-009
1.193451e-009
-2.062295e-009
-5.152556e-009
-8.934175e-009
-1.391282e-008
-1.931308e-008
-2.383983e-008
-2.701092e-008
-2.936766e-008
-3.144877e-008
-3.296881e-008
-3.322192e-008
-3.204570e-008
-3.000116e-008
-2.757551e-008
-2.456834e-008
-2.054151e-008
-1.570606e-008
-1.096885e-008
-7.001507e-009
-3.595758e-009
-2.629748e-010
2.672793e-009
4.049820e-009
3.153681e-009
7.416051e-010
-1.597455e-009
-3.046609e-009
-4.095737e-009
-5.290521e-009
-5.863127e-009
-4.217794e-009
9.202243e-011
5.298939e-009
8.710273e-009
8.953125e-009
6.676066e-009
3.237102e-009
-6.158194e-010
-4.392918e-009
-6.776897e-009
-6.001708e-009
-1.900073e-009
2.886051e-009
4.674736e-009
2.203355e-009
-1.910686e-009
-3.585832e-009
-1.254178e-009
2.698757e-009
4.440140e-009
2.426068e-009
-1.389602e-009
-3.739189e-009
-3.077973e-009
-5.415343e-010
1.601892e-009
2.046339e-009
1.139247e-009
8.254930e-012
-6.186635e-010
-7.771977e-010
3.336021e-008
2.213296e-008
6.204570e-009
-6.185526e-009
-1.038700e-008
-7.079314e-009
-3.781184e-010
4.968678e-009
5.522682e-009
5.926955e-010
-6.686330e-009
-1.030590e-008
-5.572897e-009
6.002090e-009
1.625436e-008
1.641333e-008
4.974364e-009
-1.023611e-008
-1.837732e-008
-1.455603e-008
-3.070961e-009
7.454744e-009
1.147820e-008
9.423420e-009
4.792356e-009
1.263481e-010
-3.864939e-009
-6.573613e-009
-6.643409e-009
-3.363743e-009
1.886213e-009
6.458522e-009
8.687487e-009
8.792448e-009
7.486324e-009
4.357292e-009
-1.756592e-009
-1.097468e-008
-2.167099e-008
-3.190802e-008
-4.122115e-008
-5.052536e-008
-6.037705e-008
-6.989551e-008
-7.766405e-008
-8.330348e-008
-8.762681e-008
-9.126981e-008
-9.370337e-008
-9.391821e-008
-9.176816e-008
-8.811902e-008
-8.365101e-008
-7.801899e-008
-7.054272e-008
-6.144558e-008
-5.187894e-008
-4.265613e-008
-3.345496e-008
-2.366051e-008
-1.375576e-008
-5.325653e-009
4.500587e-010
3.879453e-009
5.996489e-009
7.005667e-009
6.087866e-009
2.907983e-009
-1.178281e-009
-3.927047e-009
-4.138904e-009
-2.404276e-009
3.470464e-011
2.550932e-009
4.840729e-009
5.846589e-009
4.025443e-009
-7.264258e-010
-5.847505e-009
-7.692764e-009
-4.786051e-009
6.696056e-010
4.749619e-009
5.200719e-009
2.854861e-009
1.025960e-010
-1.415724e-009
-1.555634e-009
-8.860575e-010
8.594722e-012
4.783213e-010
-9.737625e-011
-1.505402e-009
-2.263744e-009
-8.244181e-010
2.396437e-009
4.664910e-009
3.349244e-009
-1.111896e-009
-5.095429e-009
4.033738e-008
1.553685e-008
-1.297929e-008
-2.249647e-008
-8.625336e-009
1.281602e-008
2.202888e-008
1.264043e-008
-5.430096e-009
-1.741807e-008
-1.636287e-008
-5.979130e-009
5.432418e-009
1.173098e-008
1.100627e-008
4.514884e-009
-4.132446e-009
-9.633242e-009
-7.651718e-009
1.302644e-009
1.099136e-008
1.391293e-008
7.609260e-009
-3.377767e-009
-1.180937e-008
-1.372482e-008
-1.028330e-008
-4.774094e-009
8.501484e-010
6.227253e-009
1.059608e-008
1.199734e-008
8.776375e-009
1.125085e-009
-9.486981e-009
-2.211430e-008
-3.692043e-008
-5.398817e-008
-7.229850e-008
-9.044218e-008
-1.080461e-007
-1.258227e-007
-1.440787e-007
-1.617048e-007
-1.770408e-007
-1.894405e-007
-1.994178e-007
-2.072396e-007
-2.119750e-007
-2.123526e-007
-2.082564e-007
-2.008122e-007
-1.909783e-007
-1.786101e-007
-1.632623e-007
-1.455416e-007
-1.270535e-007
-1.089616e-007
-9.112968e-008
-7.301771e-008
-5.507614e-008
-3.870897e-008
-2.488813e-008
-1.337598e-008
-3.634414e-009
3.895454e-009
8.008487e-009
8.238421e-009
5.648566e-009
1.911064e-009
-1.954109e-009
-5.447632e-009
-7.523533e-009
-6.627518e-009
-2.415917e-009
2.931650e-009
5.958827e-009
4.893642e-009
1.180319e-009
-2.076015e-009
-2.911261e-009
-1.576353e-009
6.326685e-010
2.687760e-009
3.768796e-009
2.865353e-009
-3.497647e-010
-4.134942e-009
-5.286604e-009
-2.222428e-009
2.651822e-009
4.698942e-009
1.844598e-009
-2.805585e-009
-3.994746e-009
-1.221597e-010
4.673983e-009
4.866342e-009
-2.722323e-010
-5.610134e-009
3.730453e-008
8.217582e-009
-2.293810e-008
-2.833188e-008
-5.490000e-009
2.204934e-008
2.875639e-008
1.085752e-008
-1.283405e-008
-2.119353e-008
-1.023206e-008
6.400028e-009
1.303328e-008
6.119327e-009
-5.693010e-009
-1.200719e-008
-9.287219e-009
-8.274297e-010
8.238805e-009
1.416008e-008
1.456249e-008
8.473541e-009
-2.092621e-009
-1.168413e-008