# vtk DataFile Version 3.0
vtk output
ASCII
DATASET STRUCTURED_POINTS
DIMENSIONS 100 100 1
SPACING 1 1 1
ORIGIN 0 0 0
POINT_DATA 10000
SCALARS SFBox_profile double
LOOKUP_TABLE default 
0.000000e+000
0.000000e+000
0.000000e+000
0.000000e+000
0.000000e+000
0.000000e+000
0.000000e+000
0.000000e+000
0.000000e+000
0.000000e+000
0.000000e+000
0.000000e+000
0.000000e+000
0.000000e+000
0.000000e+000
0.000000e+000
0.000000e+000
0.000000e+000
0.000000e+000
0.000000e+000
0.000000e+000
0.000000e+000
0.000000e+000
0.000000e+000
0.000000e+000
0.000000e+000
0.000000e+000
0.000000e+000
0.000000e+000
0.000000e+000
0.000000e+000
0.000000e+000
0.000000e+000
0.000000e+000
0.000000e+000
0.000000e+000
0.000000e+000
0.000000e+000
0.000000e+000
0.000000e+000
0.000000e+000
0.000000e+000
0.000000e+000
0.000000e+000
0.000000e+000
0.000000e+000
0.000000e+000
0.000000e+000
0.000000e+000
0.000000e+000
0.000000e+000
0.000000e+000
0.000000e+000
0.000000e+000
0.000000e+000
0.000000e+000
0.000000e+000
0.000000e+000
0.000000e+000
0.000000e+000
0.000000e+000
0.000000e+000
0.000000e+000
0.000000e+000
0.000000e+000
0.000000e+000
0.000000e+000
0.000000e+000
0.000000e+000
0.000000e+000
0.000000e+000
0.000000e+000
0.000000e+000
0.000000e+000
0.000000e+000
0.000000e+000
0.000000e+000
0.000000e+000
0.000000e+000
0.000000e+000
0.000000e+000
0.000000e+000
0.000000e+000
0.000000e+000
0.000000e+000
0.000000e+000
0.000000e+000
0.000000e+000
0.000000e+000
0.000000e+000
0.000000e+000
0.000000e+000
0.000000e+000
0.000000e+000
0.000000e+000
0.000000e+000
0.000000e+000
0.000000e+000
0.000000e+000
0.000000e+000
2.166886e-010
4.288489e-010
8.453752e-010
1.455595e-009
2.249793e-009
3.212040e-009
4.291251e-009
5.341323e-009
6.023613e-009
5.666741e-009
3.080461e-009
-3.674319e-009
-1.754395e-008
-4.273118e-008
-8.487101e-008
-1.510496e-007
-2.495800e-007
-3.894728e-007
-5.795864e-007
-8.275234e-007
-1.138421e-006
-1.513864e-006
-1.951165e-006
-2.443218e-006
-2.978987e-006
-3.544564e-006
-4.124575e-006
-4.703653e-006
-5.267737e-006
-5.805000e-006
-6.306357e-006
-6.765561e-006
-7.179021e-006
-7.545435e-006
-7.865359e-006
-8.140781e-006
-8.374728e-006
-8.570915e-006
-8.733436e-006
-8.866488e-006
-8.974139e-006
-9.060140e-006
-9.127794e-006
-9.179879e-006
-9.218623e-006
-9.245731e-006
-9.262433e-006
-9.269567e-006
-9.267659e-006
-9.257013e-006
-9.237800e-006
-9.210150e-006
-9.174251e-006
-9.130437e-006
-9.079286e-006
-9.021698e-006
-8.958952e-006
-8.892733e-006
-8.825125e-006
-8.758551e-006
-8.695660e-006
-8.639135e-006
-8.591428e-006
-8.554379e-006
-8.528750e-006
-8.513661e-006
-8.505997e-006
-8.499856e-006
-8.486133e-006
-8.452404e-006
-8.383238e-006
-8.261113e-006
-8.068008e-006
-7.787638e-006
-7.408137e-006
-6.924767e-006
-6.342104e-006
-5.675077e-006
-4.948369e-006
-4.194000e-006
-3.447379e-006
-2.742566e-006
-2.107778e-006
-1.562152e-006
-1.114421e-006
-7.635630e-007
-5.009655e-007
-3.133197e-007
-1.854560e-007
-1.025927e-007
-5.177694e-008
-2.255887e-008
-7.080889e-009
1.983355e-010
2.951493e-009
3.461751e-009
3.050519e-009
2.418512e-009
1.896297e-009
1.615654e-009
5.501164e-010
7.629531e-010
1.183342e-009
1.801483e-009
2.597653e-009
3.519302e-009
4.428276e-009
5.006747e-009
4.611929e-009
2.071916e-009
-4.579752e-009
-1.842070e-008
-4.397409e-008
-8.749296e-008
-1.570869e-007
-2.625512e-007
-4.147533e-007
-6.244766e-007
-9.007392e-007
-1.248793e-006
-1.668205e-006
-2.151546e-006
-2.684149e-006
-3.245140e-006
-3.809613e-006
-4.351479e-006
-4.846379e-006
-5.274094e-006
-5.620074e-006
-5.875980e-006
-6.039347e-006
-6.112648e-006
-6.102070e-006
-6.016283e-006
-5.865368e-006
-5.659981e-006
-5.410746e-006
-5.127809e-006
-4.820507e-006
-4.497117e-006
-4.164656e-006
-3.828756e-006
-3.493615e-006
-3.162036e-006
-2.835556e-006
-2.514642e-006
-2.198950e-006
-1.887598e-006
-1.579453e-006
-1.273417e-006
-9.686904e-007
-6.650338e-007
-3.630127e-007
-6.422454e-008
2.285017e-007
5.109445e-007
7.773817e-007
1.020546e-006
1.231657e-006
1.400551e-006
1.515915e-006
1.565663e-006
1.537494e-006
1.419652e-006
1.201933e-006
8.769295e-007
4.414749e-007
-1.017675e-007
-7.427385e-007
-1.462653e-006
-2.233236e-006
-3.016915e-006
-3.768348e-006
-4.437574e-006
-4.974790e-006
-5.336385e-006
-5.491397e-006
-5.427145e-006
-5.152605e-006
-4.698347e-006
-4.112547e-006
-3.453603e-006
-2.780933e-006
-2.146131e-006
-1.586616e-006
-1.123006e-006
-7.602329e-007
-4.912888e-007
-3.020100e-007
-1.754815e-007
-9.525822e-008
-4.721992e-008
-2.029094e-008
-6.401226e-009
-4.459698e-011
2.305293e-009
2.762256e-009
2.501563e-009
2.118831e-009
1.880437e-009
1.194776e-009
1.410054e-009
1.837506e-009
2.461284e-009
3.225196e-009
3.973322e-009
4.342477e-009
3.589085e-009
3.333820e-010
-7.791044e-009
-2.457881e-008
-5.575044e-008
-1.094201e-007
-1.963768e-007
-3.299382e-007
-5.250676e-007
-7.964449e-007
-1.155348e-006
-1.605588e-006
-2.139310e-006
-2.733925e-006
-3.351504e-006
-3.941394e-006
-4.445857e-006
-4.807509e-006
-4.976839e-006
-4.918122e-006
-4.612694e-006
-4.059303e-006
-3.272004e-006
-2.276464e-006
-1.105697e-006
2.039419e-007
1.615986e-006
3.096113e-006
4.613502e-006
6.141483e-006
7.657734e-006
9.144244e-006
1.058716e-005
1.197656e-005
1.330625e-005
1.457339e-005
1.577808e-005
1.692285e-005
1.801199e-005
1.905095e-005
2.004560e-005
2.100161e-005
2.192381e-005
2.281564e-005
2.367862e-005
2.451189e-005
2.531183e-005
2.607173e-005
2.678153e-005
2.742771e-005
2.799326e-005
2.845773e-005
2.879745e-005
2.898581e-005
2.899379e-005
2.879061e-005
2.834483e-005
2.762574e-005
2.660531e-005
2.526076e-005
2.357776e-005
2.155435e-005
1.920528e-005
1.656641e-005
1.369829e-005
1.068793e-005
7.647282e-006
4.707366e-006
2.007301e-006
-3.211370e-007
-2.171381e-006
-3.478799e-006
-4.232089e-006
-4.475743e-006
-4.301899e-006
-3.832929e-006
-3.199052e-006
-2.516909e-006
-1.874492e-006
-1.325283e-006
-8.909993e-007
-5.698003e-007
-3.460554e-007
-1.987020e-007
-1.068789e-007
-5.287294e-008
-2.309976e-008
-7.927246e-009
-9.741557e-010
1.721761e-009
2.459808e-009
2.475076e-009
2.366228e-009
2.114923e-009
2.334107e-009
2.763849e-009
3.356726e-009
3.956571e-009
4.171035e-009
3.162281e-009
-6.735595e-010
-1.016691e-008
-2.998884e-008
-6.739153e-008
-1.329715e-007
-2.412293e-007
-4.105275e-007
-6.618429e-007
-1.015567e-006
-1.485745e-006
-2.071841e-006
-2.749427e-006
-3.462683e-006
-4.122261e-006
-4.611118e-006
-4.798403e-006
-4.558555e-006
-3.790777e-006
-2.434076e-006
-4.746177e-007
2.055345e-006
5.085506e-006
8.519706e-006
1.224922e-005
1.616458e-005
2.016437e-005
2.416076e-005
2.808192e-005
3.187235e-005
3.549179e-005
3.891337e-005
4.212160e-005
4.511029e-005
4.788075e-005
5.044013e-005
5.279996e-005
5.497482e-005
5.698111e-005
5.883593e-005
6.055603e-005
6.215690e-005
6.365208e-005
6.505251e-005
6.636608e-005
6.759729e-005
6.874702e-005
6.981241e-005
7.078690e-005
7.166032e-005
7.241912e-005
7.304650e-005
7.352262e-005
7.382449e-005
7.392569e-005
7.379576e-005
7.339935e-005
7.269506e-005
7.163444e-005
7.016120e-005
6.821155e-005
6.571618e-005
6.260507e-005
5.881592e-005
5.430685e-005
4.907273e-005
4.316345e-005
3.670009e-005
2.988351e-005
2.298945e-005
1.634596e-005
1.029377e-005
5.135628e-006
1.085953e-006
-1.765746e-006
-3.467006e-006
-4.185550e-006
-4.167622e-006
-3.683993e-006
-2.979608e-006
-2.240041e-006
-1.580230e-006
-1.052242e-006
-6.634662e-007
-3.962902e-007
-2.235785e-007
-1.182177e-007
-5.761545e-008
-2.492465e-008
-8.573336e-009
-1.148070e-009
1.796495e-009
2.744508e-009
2.959833e-009
3.271549e-009
3.488936e-009
3.887085e-009
4.326715e-009
4.422456e-009
3.297500e-009
-8.026499e-010
-1.108614e-008
-3.302207e-008
-7.537803e-008
-1.513847e-007
-2.797353e-007
-4.848145e-007
-7.951038e-007
-1.238227e-006
-1.830985e-006
-2.563703e-006
-3.380863e-006
-4.163820e-006
-4.724212e-006
-4.815744e-006
-4.166441e-006
-2.525367e-006
2.885411e-007
4.349158e-006
9.607210e-006
1.589817e-005
2.296978e-005
3.052091e-005
3.824192e-005
4.584846e-005
5.310397e-005
5.983007e-005
6.590717e-005
7.126875e-005
7.589274e-005
7.979205e-005
8.300545e-005
8.558917e-005
8.760959e-005
8.913698e-005
9.024050e-005
9.098442e-005
9.142569e-005
9.161245e-005
9.158366e-005
9.136942e-005
9.099194e-005
9.046700e-005
8.980566e-005
8.901623e-005
8.810634e-005
8.708508e-005
8.596526e-005
8.476560e-005
8.351291e-005
8.224386e-005
8.100615e-005
7.985871e-005
7.887057e-005
7.811768e-005
7.767749e-005
7.762073e-005
7.800011e-005
7.883608e-005
8.010024e-005
8.169777e-005
8.345167e-005
8.509288e-005
8.626180e-005
8.652759e-005
8.543057e-005
8.254934e-005
7.758649e-005
7.045695e-005
6.135446e-005
5.077017e-005
3.944585e-005
2.826222e-005
1.808395e-005
9.600742e-006
3.209985e-006
-1.026813e-006
-3.346955e-006
-4.185918e-006
-4.049439e-006
-3.399582e-006
-2.583942e-006
-1.815945e-006
-1.194222e-006
-7.398294e-007
-4.328425e-007
-2.387305e-007
-1.232054e-007
-5.845994e-008
-2.443573e-008
-7.832776e-009
-4.357849e-010
2.487615e-009
3.424619e-009
4.623579e-009
4.810389e-009
5.071468e-009
5.057616e-009
3.919080e-009
-1.358580e-010
-1.052253e-008
-3.327567e-008
-7.840174e-008
-1.615164e-007
-3.054404e-007
-5.409416e-007
-9.049945e-007
-1.433825e-006
-2.147168e-006
-3.021054e-006
-3.950911e-006
-4.715118e-006
-4.957657e-006
-4.209975e-006
-1.961818e-006
2.229092e-006
8.617409e-006
1.717742e-005
2.756692e-005
3.915866e-005
5.113139e-005
6.259533e-005
7.271892e-005
8.082820e-005
8.646335e-005
8.939026e-005
8.957683e-005
8.714955e-005
8.234568e-005
7.547076e-005
6.686506e-005
5.687801e-005
4.584853e-005
3.408932e-005
2.187486e-005
9.432981e-006
-3.059415e-006
-1.547668e-005
-2.774096e-005
-3.981577e-005
-5.169728e-005
-6.340429e-005
-7.496758e-005
-8.641917e-005
-9.778188e-005
-1.090593e-004
-1.202264e-004
-1.312202e-004
-1.419322e-004
-1.522003e-004
-1.618041e-004
-1.704606e-004
-1.778243e-004
-1.834906e-004
-1.870042e-004
-1.878744e-004
-1.855984e-004
-1.796943e-004
-1.697461e-004
-1.554603e-004
-1.367352e-004
-1.137385e-004
-8.698683e-005
-5.741217e-005
-2.639352e-005
4.274482e-006
3.250484e-005
5.614892e-005
7.332097e-005
8.276119e-005
8.414202e-005
7.820942e-005
6.668244e-005
5.191370e-005
3.639916e-005
2.227721e-005
1.096714e-005
3.043692e-006
-1.660475e-006
-3.801614e-006
-4.224662e-006
-3.714470e-006
-2.854093e-006
-1.993263e-006
-1.290702e-006
-7.832023e-007
-4.473480e-007
-2.402360e-007
-1.202987e-007
-5.498129e-008
-2.165511e-008
-5.874720e-009
9.125021e-010
3.314114e-009
6.110624e-009
6.186590e-009
6.062741e-009
4.973458e-009
1.208981e-009
-8.640860e-009
-3.084102e-008
-7.615681e-008
-1.619822e-007
-3.146472e-007
-5.709487e-007
-9.766936e-007
-1.578025e-006
-2.399059e-006
-3.399170e-006
-4.409365e-006
-5.062652e-006
-4.753951e-006
-2.676499e-006
2.032275e-006
1.004430e-005
2.155275e-005
3.603508e-005
5.215629e-005
6.786691e-005
8.069621e-005
8.816032e-005
8.816735e-005
7.931914e-005
6.104808e-005
3.358198e-005
-2.219651e-006
-4.508876e-005
-9.356567e-005
-1.461680e-004
-2.014992e-004
-2.583070e-004
-3.155087e-004
-3.722016e-004
-4.276651e-004
-4.813595e-004
-5.329191e-004
-5.821394e-004
-6.289582e-004
-6.734306e-004
-7.157002e-004
-7.559683e-004
-7.944635e-004
-8.314117e-004
-8.670102e-004
-9.014033e-004
-9.346621e-004
-9.667657e-004
-9.975860e-004
-1.026875e-003
-1.054254e-003
-1.079209e-003
-1.101085e-003
-1.119090e-003
-1.132296e-003
-1.139649e-003
-1.139976e-003
-1.132010e-003
-1.114415e-003
-1.085837e-003
-1.044973e-003
-9.906899e-004
-9.221862e-004
-8.392224e-004
-7.424077e-004
-6.335152e-004
-5.157545e-004
-3.938894e-004
-2.740706e-004
-1.632795e-004
-6.837549e-005
5.126983e-006
5.426299e-005
7.939082e-005
8.413899e-005
7.443202e-005
5.696563e-005
3.769533e-005
2.079498e-005
8.344374e-006
6.481776e-007
-3.120353e-006
-4.236630e-006
-3.910925e-006
-3.025314e-006
-2.090307e-006
-1.327687e-006
-7.865314e-007
-4.371757e-007
-2.276899e-007
-1.099441e-007
-4.780085e-008
-1.715464e-008
-3.303310e-009
1.851007e-009
7.613942e-009
7.403910e-009
6.401033e-009
3.089720e-009
-5.725281e-009
-2.616234e-008
-6.913504e-008
-1.529244e-007
-3.062350e-007
-5.707607e-007
-1.000627e-006
-1.652995e-006
-2.559780e-006
-3.667627e-006
-4.739282e-006
-5.233447e-006
-4.221949e-006
-4.403678e-007
7.436585e-006
2.027508e-005
3.781325e-005
5.805282e-005
7.696901e-005
8.878257e-005
8.686282e-005
6.501360e-005
1.876531e-005
-5.373536e-005
-1.515223e-004
-2.712528e-004
-4.080219e-004
-5.562494e-004
-7.104326e-004
-8.656627e-004
-1.017894e-003
-1.164019e-003
-1.301817e-003
-1.429852e-003
-1.547351e-003
-1.654084e-003
-1.750245e-003
-1.836348e-003
-1.913119e-003
-1.981403e-003
-2.042092e-003
-2.096052e-003
-2.144083e-003
-2.186884e-003
-2.225030e-003
-2.258971e-003
-2.289031e-003
-2.315421e-003
-2.338254e-003
-2.357568e-003
-2.373350e-003
-2.385567e-003
-2.394192e-003
-2.399230e-003
-2.400730e-003
-2.398777e-003
-2.393452e-003
-2.384758e-003
-2.372492e-003
-2.356075e-003
-2.334333e-003
-2.305243e-003
-2.265687e-003
-2.211282e-003
-2.136409e-003
-2.034602e-003
-1.899486e-003
-1.726362e-003
-1.514306e-003
-1.268255e-003
-1.000131e-003
-7.280701e-004
-4.734480e-004
-2.564340e-004
-9.144995e-005
1.614275e-005
7.094900e-005
8.526487e-005
7.457570e-005
5.313481e-005
3.112850e-005
1.393898e-005
3.053776e-006
-2.392544e-006
-4.174297e-006
-4.002669e-006
-3.087942e-006
-2.096909e-006
-1.300336e-006
-7.493100e-007
-4.038761e-007
-2.030911e-007
-9.385910e-008
-3.825035e-008
-1.222615e-008
-2.225081e-009
8.900264e-009
8.075286e-009
5.315314e-009
-2.151385e-009
-1.994200e-008
-5.848356e-008
-1.359022e-007
-2.817555e-007
-5.407650e-007
-9.738068e-007
-1.649403e-006
-2.612213e-006
-3.807935e-006
-4.946479e-006
-5.315366e-006
-3.625392e-006
1.941014e-006
1.326858e-005
3.130943e-005
5.464004e-005
7.798062e-005
9.136808e-005
8.086957e-005
3.119239e-005
-7.041276e-005
-2.301762e-004
-4.455656e-004
-7.056052e-004
-9.930684e-004
-1.287621e-003
-1.569205e-003
-1.820924e-003
-2.030808e-003
-2.192251e-003
-2.303450e-003
-2.366348e-003
-2.385495e-003
-2.367020e-003
-2.317751e-003
-2.244520e-003
-2.153627e-003
-2.050496e-003
-1.939494e-003
-1.823901e-003
-1.705986e-003
-1.587151e-003
-1.468107e-003
-1.349067e-003
-1.229928e-003
-1.110453e-003
-9.904239e-004
-8.697876e-004
-7.487747e-004
-6.279971e-004
-5.085285e-004
-3.919673e-004
-2.804854e-004
-1.768590e-004
-8.447864e-005
-7.331940e-006
5.004052e-005
8.261991e-005
8.502034e-005
5.165908e-005
-2.296478e-005
-1.437963e-004
-3.144254e-004
-5.357976e-004
-8.042817e-004
-1.109067e-003
-1.429250e-003
-1.731716e-003
-1.972017e-003
-2.101036e-003
-2.078790e-003
-1.891930e-003
-1.565599e-003
-1.159691e-003
-7.486546e-004
-3.965973e-004
-1.411852e-004
1.043495e-005
7.586198e-005
8.467336e-005
6.580200e-005
4.010541e-005
1.864729e-005
4.908944e-006
-1.906218e-006
-4.132217e-006
-4.006498e-006
-3.039985e-006
-2.012597e-006
-1.212225e-006
-6.768335e-007
-3.523985e-007
-1.702198e-007
-7.479841e-008
-2.888991e-008
-1.082784e-008
9.559890e-009
7.565006e-009
1.619723e-009
-1.303172e-008
-4.575861e-008
-1.135163e-007
-2.450416e-007
-4.856860e-007
-9.004073e-007
-1.567924e-006
-2.550240e-006
-3.809483e-006
-5.038713e-006
-5.402046e-006
-3.276310e-006
3.749534e-006
1.821422e-005
4.108539e-005
6.896887e-005
9.085887e-005
8.605867e-005
2.592328e-005
-1.191092e-004
-3.681419e-004
-7.182185e-004
-1.138597e-003
-1.572530e-003
-1.947451e-003
-2.193677e-003
-2.264323e-003
-2.146114e-003
-1.856968e-003
-1.434497e-003
-9.229689e-004
-3.639863e-004
2.081037e-004
7.674309e-004
1.296132e-003
1.783222e-003
2.223272e-003
2.615075e-003
2.960396e-003
3.262874e-003
3.527136e-003
3.758132e-003
3.960684e-003
4.139208e-003
4.297558e-003
4.438962e-003
4.566008e-003
4.680662e-003
4.784327e-003
4.877917e-003
4.961965e-003
5.036727e-003
5.102291e-003
5.158667e-003
5.205848e-003
5.243839e-003
5.272631e-003
5.292120e-003
5.301912e-003
5.300990e-003
5.287196e-003
5.256472e-003
5.201832e-003
5.112017e-003
4.969918e-003
4.750988e-003
4.422408e-003
3.944672e-003
3.278633e-003
2.401942e-003
1.336363e-003
1.778373e-004
-8.946936e-004
-1.662670e-003
-1.968060e-003
-1.812209e-003
-1.359306e-003
-8.291718e-004
-3.846989e-004
-9.500746e-005
4.680782e-005
8.646119e-005
7.414411e-005
4.620473e-005
2.142596e-005
5.680523e-006
-1.858543e-006
-4.154908e-006
-3.924625e-006
-2.883554e-006
-1.845982e-006
-1.074490e-006
-5.790065e-007
-2.900692e-007
-1.342935e-007
-5.748527e-008
-2.668666e-008
8.953623e-009
4.928150e-009
-6.361471e-009
-3.264986e-008
-8.884717e-008
-2.013185e-007
-4.134934e-007
-7.909001e-007
-1.419301e-006
-2.379787e-006
-3.667935e-006
-5.008203e-006
-5.531073e-006
-3.388165e-006
4.375500e-006
2.105148e-005
4.778312e-005
7.884945e-005
9.539518e-005
6.082130e-005
-7.553656e-005
-3.610987e-004
-8.088817e-004
-1.363716e-003
-1.883964e-003
-2.162005e-003
-2.010201e-003
-1.367589e-003
-3.328014e-004
8.973971e-004
2.121486e-003
3.196622e-003
4.054250e-003
4.683593e-003
5.106462e-003
5.357526e-003
5.473116e-003
5.486268e-003
5.425060e-003
5.312367e-003
5.166160e-003
5.000009e-003
4.823701e-003
4.643890e-003
4.464760e-003
4.288640e-003
4.116551e-003
3.948666e-003
3.784682e-003
3.624101e-003
3.466455e-003
3.311475e-003
3.159232e-003
3.010247e-003
2.865572e-003
2.726848e-003
2.596329e-003
2.476890e-003
2.372030e-003
2.285883e-003
2.223245e-003
2.189623e-003
2.191307e-003
2.235434e-003
2.330020e-003
2.483848e-003
2.706048e-003
3.004990e-003
3.385894e-003
3.846161e-003
4.367131e-003
4.901155e-003
5.354715e-003
5.574094e-003
5.351559e-003
4.484892e-003
2.921221e-003
9.409912e-004
-8.285534e-004
-1.777775e-003
-1.793860e-003
-1.267303e-003
-6.591716e-004
-2.182066e-004
1.020198e-005
8.361830e-005
7.815280e-005
4.855938e-005
2.166263e-005
5.144190e-006
-2.266374e-006
-4.211226e-006
-3.742872e-006
-2.626467e-006
-1.614377e-006
-9.040409e-007
-4.686186e-007
-2.260121e-007
-1.034481e-007
-5.346200e-008
6.182830e-009
-1.116801e-009
-2.081143e-008
-6.490550e-008
-1.561139e-007
-3.336540e-007
-6.598464e-007
-1.222579e-006
-2.119224e-006
-3.388579e-006
-4.831330e-006
-5.654445e-006
-3.965857e-006
3.562623e-006
2.102685e-005
5.023754e-005
8.387598e-005
9.498063e-005
2.778116e-005
-1.963644e-004
-6.418152e-004
-1.281756e-003
-1.905084e-003
-2.087118e-003
-1.396319e-003
1.957766e-004
2.199325e-003
3.971978e-003
5.116120e-003
5.564947e-003
5.453414e-003
4.974857e-003
4.300473e-003
3.553094e-003
2.809597e-003
2.112891e-003
1.483790e-003
9.296880e-004
4.501376e-004
4.028624e-005
-3.069966e-004
-5.997626e-004
-8.461173e-004
-1.053687e-003
-1.229317e-003
-1.378941e-003
-1.507553e-003
-1.619250e-003
-1.717313e-003
-1.804310e-003
-1.882201e-003
-1.952440e-003
-2.016065e-003
-2.073791e-003
-2.126079e-003
-2.173215e-003
-2.215362e-003
-2.252615e-003
-2.285017e-003
-2.312546e-003
-2.335063e-003
-2.352190e-003
-2.363113e-003
-2.366259e-003
-2.358800e-003
-2.335869e-003
-2.289367e-003
-2.206169e-003
-2.065560e-003
-1.835917e-003
-1.471291e-003
-9.101582e-004
-8.175152e-005
1.070058e-003
2.531692e-003
4.125467e-003
5.404955e-003
5.673559e-003
4.365611e-003
1.779223e-003
-6.998547e-004
-1.795715e-003
-1.576739e-003
-8.893794e-004
-3.183735e-004
-1.606842e-005
8.150850e-005
7.843827e-005
4.689764e-005
1.931349e-005
3.463627e-006
-2.959478e-006
-4.212835e-006
-3.444781e-006
-2.286487e-006
-1.342439e-006
-7.211530e-007
-3.604854e-007
-1.733651e-007
-9.576505e-008
9.478958e-011
-1.216588e-008
-4.435440e-008
-1.143288e-007
-2.552762e-007
-5.229298e-007
-1.001594e-006
-1.797790e-006
-2.991967e-006
-4.486796e-006
-5.662141e-006
-4.795164e-006
1.521268e-006
1.807481e-005
4.798126e-005
8.428280e-005
9.476596e-005
5.645766e-006
-2.929110e-004
-8.813185e-004
-1.649333e-003
-2.082127e-003
-1.323750e-003
9.336937e-004
3.667399e-003
5.426867e-003
5.636510e-003
4.654137e-003
3.133211e-003
1.581911e-003
2.640560e-004
-7.401234e-004
-1.449956e-003
-1.923006e-003
-2.221108e-003
-2.396295e-003
-2.487769e-003
-2.523469e-003
-2.522789e-003
-2.499029e-003
-2.461242e-003
-2.415535e-003
-2.365954e-003
-2.315107e-003
-2.264598e-003
-2.215346e-003
-2.167808e-003
-2.122152e-003
-2.078373e-003
-2.036393e-003
-1.996122e-003
-1.957509e-003
-1.920581e-003
-1.885463e-003
-1.852403e-003
-1.821780e-003
-1.794122e-003
-1.770117e-003
-1.750621e-003
-1.736678e-003
-1.729536e-003
-1.730675e-003
-1.741839e-003
-1.765083e-003
-1.802803e-003
-1.857764e-003
-1.933031e-003
-2.031735e-003
-2.156414e-003
-2.307520e-003
-2.480214e-003
-2.657960e-003
-2.800515e-003
-2.823563e-003
-2.570953e-003
-1.797968e-003
-2.309130e-004
2.173557e-003
4.742659e-003
5.892026e-003
4.285826e-003
9.156219e-004
-1.439966e-003
-1.718700e-003
-1.020643e-003
-3.608628e-004
-1.858723e-005
8.293448e-005
7.509525e-005
4.143219e-005
1.490766e-005
1.129634e-006
-3.658617e-006
-4.064599e-006
-3.030922e-006
-1.893582e-006
-1.059615e-006
-5.483610e-007
-2.746154e-007
-1.590313e-007
-1.066687e-008
-3.004566e-008
-7.988700e-008
-1.857252e-007
-3.940900e-007
-7.804442e-007
-1.451036e-006
-2.515971e-006
-3.978985e-006
-5.444828e-006
-5.540873e-006
-1.142176e-006
1.286238e-005
4.123628e-005
7.983365e-005
9.696237e-005
8.072371e-006
-3.267798e-004
-1.013893e-003
-1.851336e-003
-1.923589e-003
3.940184e-005
3.495890e-003
5.746500e-003
5.281400e-003
3.031557e-003
5.805931e-004
-1.202632e-003
-2.196877e-003
-2.605626e-003
-2.665864e-003
-2.549266e-003
-2.358431e-003
-2.147966e-003
-1.944144e-003
-1.757966e-003
-1.592774e-003
-1.448345e-003
-1.322971e-003
-1.214456e-003
-1.120566e-003
-1.039203e-003
-9.684790e-004
-9.067224e-004
-8.524767e-004
-8.044867e-004
-7.616847e-004
-7.231760e-004
-6.882258e-004
-6.562464e-004
-6.267860e-004
-5.995185e-004
-5.742327e-004
-5.508239e-004
-5.292851e-004
-5.097007e-004
-4.922421e-004
-4.771663e-004
-4.648200e-004
-4.556491e-004
-4.502179e-004
-4.492406e-004
-4.536310e-004
-4.645777e-004
-4.836548e-004
-5.129843e-004
-5.554679e-004
-6.151143e-004
-6.974832e-004
-8.102486e-004
-9.638118e-004
-1.171668e-003
-1.449636e-003
-1.811529e-003
-2.255359e-003
-2.727455e-003
-3.044885e-003
-2.776853e-003
-1.234022e-003
1.930359e-003
5.273349e-003
5.614435e-003
2.221146e-003
-1.085811e-003
-1.752608e-003
-1.031718e-003
-3.313509e-004
3.847171e-006
8.592391e-005
6.758312e-005
3.292965e-005
9.426766e-006
-1.218882e-006
-4.097855e-006
-3.716311e-006
-2.530025e-006
-1.487851e-006
-7.985994e-007
-4.146972e-007
-2.492105e-007
-2.756021e-008
-5.666152e-008
-1.303030e-007
-2.836382e-007
-5.792576e-007
-1.114094e-006
-2.010426e-006
-3.349314e-006
-4.956051e-006
-5.901105e-006
-3.659627e-006
6.630646e-006
3.105774e-005
6.991373e-005
9.858777e-005
3.449491e-005
-2.830914e-004
-1.007130e-003
-1.914444e-003
-1.740999e-003
1.172178e-003
5.074572e-003
5.736349e-003
2.908317e-003
-3.752287e-004
-2.260774e-003
-2.807546e-003
-2.646736e-003
-2.240986e-003
-1.811735e-003
-1.438204e-003
-1.136588e-003
-9.003431e-004
-7.171318e-004
-5.749783e-004
-4.640289e-004
-3.766989e-004
-3.073166e-004
-2.516810e-004
-2.066729e-004
-1.699538e-004
-1.397472e-004
-1.146852e-004
-9.370222e-005
-7.596146e-005
-6.080258e-005
-4.770402e-005
-3.625505e-005
-2.613461e-005
-1.709493e-005
-8.948641e-006
-1.558438e-006
5.171395e-006
1.130198e-005
1.686567e-005
2.187062e-005
2.630421e-005
3.013486e-005
3.331202e-005
3.576356e-005
3.738970e-005
3.805207e-005
3.755531e-005
3.561779e-005
3.182489e-005
2.555465e-005
1.585884e-005
1.271354e-006
-2.050192e-005
-5.308658e-005
-1.022553e-004
-1.772294e-004
-2.926675e-004
-4.713925e-004
-7.471158e-004
-1.163707e-003
-1.759774e-003
-2.507859e-003
-3.143002e-003
-2.848490e-003
-3.288932e-004
4.064572e-003
5.998538e-003
2.747871e-003
-1.045337e-003
-1.728352e-003
-9.218949e-004
-2.401899e-004
3.962619e-005
8.535047e-005
5.573322e-005
2.279375e-005
4.038618e-006
-3.023310e-006
-4.129031e-006
-3.187490e-006
-1.996318e-006
-1.116162e-006
-6.002537e-007
-3.722627e-007
-5.199181e-008
-9.378306e-008
-1.981295e-007
-4.116814e-007
-8.151610e-007
-1.525968e-006
-2.667715e-006
-4.236992e-006
-5.733105e-006
-5.398690e-006
8.103771e-007
1.936190e-005
5.482584e-005
9.389407e-005
6.996816e-005
-1.777419e-004
-8.585873e-004
-1.856031e-003
-1.802883e-003
1.503077e-003
5.637469e-003
4.957479e-003
7.586251e-004
-2.220716e-003
-2.909060e-003
-2.465576e-003
-1.787911e-003
-1.207676e-003
-7.850318e-004
-4.959380e-004
-3.028187e-004
-1.744466e-004
-8.872077e-005
-3.093533e-005
8.464121e-006
3.564561e-005
5.460140e-005
6.793655e-005
7.737238e-005
8.406486e-005
8.880483e-005
9.214339e-005
9.447075e-005
9.606645e-005
9.713209e-005
9.781339e-005
9.821555e-005
9.841429e-005
9.846397e-005
9.840375e-005
9.826220e-005
9.806087e-005
9.781710e-005
9.754619e-005
9.726318e-005
9.698430e-005
9.672818e-005
9.651674e-005
9.637586e-005
9.633576e-005
9.643091e-005
9.669946e-005
9.718172e-005
9.791696e-005
9.893703e-005
1.002538e-004
1.018349e-004
1.035568e-004
1.051153e-004
1.058528e-004
1.044233e-004
9.814023e-005
8.171358e-005
4.486523e-005
-3.192934e-005
-1.842306e-004
-4.718596e-004
-9.802841e-004
-1.785067e-003
-2.791311e-003
-3.275057e-003
-1.396535e-003
3.473263e-003
6.019412e-003
2.398593e-003
-1.349346e-003
-1.611905e-003
-7.084271e-004
-1.189902e-004
7.111121e-005
7.701497e-005
4.078225e-005
1.283280e-005
-2.638245e-007
-3.983459e-006
-3.760590e-006
-2.557774e-006
-1.499622e-006
-8.359146e-007
-5.334976e-007
-8.512395e-008
-1.427873e-007
-2.851192e-007
-5.718433e-007
-1.102676e-006
-2.010514e-006
-3.394652e-006
-5.087405e-006
-6.076678e-006
-3.473539e-006
8.462587e-006
3.679320e-005
7.942388e-005
9.463431e-005
-5.186790e-005
-6.007487e-004
-1.632440e-003
-2.064803e-003
8.758477e-004
5.552386e-003
4.666090e-003
-2.161055e-004
-2.791196e-003
-2.684934e-003
-1.800165e-003
-1.023388e-003
-5.137114e-004
-2.166384e-004
-5.412978e-005
3.101064e-005
7.371205e-005
9.368912e-005
1.016754e-004
1.034315e-004
1.020376e-004
9.914022e-005
9.561681e-005
9.193004e-005
8.831832e-005
8.489856e-005
8.172180e-005
7.880316e-005
7.613798e-005
7.371081e-005
7.150052e-005
6.948356e-005
6.763604e-005
6.593523e-005
6.436070e-005
6.289503e-005
6.152445e-005
6.023917e-005
5.903362e-005
5.790661e-005
5.686144e-005
5.590604e-005
5.505310e-005
5.432042e-005
5.373130e-005
5.331525e-005
5.310899e-005
5.315802e-005
5.351891e-005
5.426256e-005
5.547878e-005
5.728227e-005
5.982005e-005
6.327973e-005
6.789587e-005
7.394673e-005
8.171938e-005
9.138555e-005
1.026458e-004
1.138097e-004
1.195998e-004
1.063144e-004
4.228911e-005
-1.376461e-004
-5.474286e-004
-1.331280e-003
-2.497889e-003
-3.329131e-003
-1.489217e-003
3.870131e-003
5.748731e-003
1.239678e-003
-1.731285e-003
-1.338194e-003
-4.391946e-004
-8.208965e-006
8.474903e-005
6.082942e-005
2.531088e-005
4.683392e-006
-2.958089e-006
-4.108131e-006
-3.125731e-006
-1.939357e-006
-1.123166e-006
-7.368408e-007
-1.276685e-007
-2.043974e-007
-3.918668e-007
-7.639053e-007
-1.438387e-006
-2.553981e-006
-4.148718e-006
-5.790451e-006
-5.753770e-006
2.257868e-007
1.939430e-005
5.713930e-005
9.639728e-005
4.800060e-005
-3.078246e-004
-1.219553e-003
-2.190933e-003
-4.867588e-004
4.698562e-003
5.205390e-003
-1.174989e-005
-2.843812e-003
-2.446510e-003
-1.369080e-003
-5.898808e-004
-1.701613e-004
2.027107e-005
9.259266e-005
1.115527e-004
1.091048e-004
9.947517e-005
8.847077e-005
7.821178e-005
6.930690e-005
6.179040e-005
5.550614e-005
5.025697e-005
4.585831e-005
4.215359e-005
3.901532e-005
3.634109e-005
3.404863e-005
3.207126e-005
3.035433e-005
2.885262e-005
2.752851e-005
2.635066e-005
2.529313e-005
2.433477e-005
2.345864e-005
2.265173e-005
2.190455e-005
2.121086e-005
2.056739e-005
1.997365e-005
1.943176e-005
1.894634e-005
1.852460e-005
1.817643e-005
1.791476e-005
1.775621e-005
1.772207e-005
1.784002e-005
1.814666e-005
1.869148e-005
1.954290e-005
2.079747e-005
2.259423e-005
2.513683e-005
2.872792e-005
3.382016e-005
4.108324e-005
5.146160e-005
6.611653e-005
8.592037e-005
1.096268e-004
1.287265e-004
1.153176e-004
-1.071091e-006
-3.622434e-004
-1.170579e-003
-2.471539e-003
-3.306278e-003
-6.507067e-004
5.012952e-003
4.677894e-003
-3.563712e-004
-1.821219e-003
-9.222814e-004
-1.864509e-004
6.185188e-005
7.777932e-005
4.072235e-005
1.209355e-005
-7.527289e-007
-4.069227e-006
-3.637006e-006
-2.416984e-006
-1.459523e-006
-9.841559e-007
-1.797049e-007
-2.784663e-007
-5.175294e-007
-9.851197e-007
-1.814466e-006
-3.135596e-006
-4.879176e-006
-6.237949e-006
-4.585752e-006
5.827438e-006
3.305375e-005
7.710989e-005
9.498136e-005
-6.847911e-005
-7.091912e-004
-1.883853e-003