# vtk DataFile Version 3.0
vtk output
ASCII
DATASET STRUCTURED_POINTS
DIMENSIONS 100 100 1
SPACING 1 1 1
ORIGIN 0 0 0
POINT_DATA 10000
SCALARS SFBox_profile double
LOOKUP_TABLE default 
9.439921e-003
9.439921e-003
9.439920e-003
9.439919e-003
9.439919e-003
9.439919e-003
9.439920e-003
9.439921e-003
9.439921e-003
9.439921e-003
9.439921e-003
9.439920e-003
9.439919e-003
9.439919e-003
9.439919e-003
9.439919e-003
9.439920e-003
9.439920e-003
9.439921e-003
9.439921e-003
9.439921e-003
9.439921e-003
9.439921e-003
9.439921e-003
9.439921e-003
9.439921e-003
9.439920e-003
9.439920e-003
9.439920e-003
9.439920e-003
9.439920e-003
9.439921e-003
9.439921e-003
9.439921e-003
9.439921e-003
9.439922e-003
9.439922e-003
9.439923e-003
9.439923e-003
9.439924e-003
9.439924e-003
9.439925e-003
9.439925e-003
9.439925e-003
9.439926e-003
9.439926e-003
9.439927e-003
9.439927e-003
9.439927e-003
9.439927e-003
9.439927e-003
9.439927e-003
9.439927e-003
9.439927e-003
9.439927e-003
9.439927e-003
9.439927e-003
9.439926e-003
9.439926e-003
9.439926e-003
9.439925e-003
9.439925e-003
9.439924e-003
9.439924e-003
9.439923e-003
9.439923e-003
9.439922e-003
9.439922e-003
9.439921e-003
9.439921e-003
9.439920e-003
9.439920e-003
9.439920e-003
9.439920e-003
9.439920e-003
9.439920e-003
9.439920e-003
9.439920e-003
9.439920e-003
9.439921e-003
9.439921e-003
9.439921e-003
9.439921e-003
9.439920e-003
9.439920e-003
9.439919e-003
9.439919e-003
9.439919e-003
9.439920e-003
9.439920e-003
9.439920e-003
9.439920e-003
9.439920e-003
9.439920e-003
9.439920e-003
9.439920e-003
9.439920e-003
9.439920e-003
9.439920e-003
9.439920e-003
9.439921e-003
9.439921e-003
9.439920e-003
9.439919e-003
9.439919e-003
9.439919e-003
9.439920e-003
9.439921e-003
9.439921e-003
9.439921e-003
9.439921e-003
9.439920e-003
9.439919e-003
9.439919e-003
9.439919e-003
9.439919e-003
9.439920e-003
9.439920e-003
9.439921e-003
9.439921e-003
9.439921e-003
9.439921e-003
9.439921e-003
9.439921e-003
9.439921e-003
9.439921e-003
9.439920e-003
9.439920e-003
9.439920e-003
9.439920e-003
9.439920e-003
9.439921e-003
9.439921e-003
9.439921e-003
9.439921e-003
9.439922e-003
9.439922e-003
9.439923e-003
9.439923e-003
9.439924e-003
9.439924e-003
9.439925e-003
9.439925e-003
9.439925e-003
9.439926e-003
9.439926e-003
9.439927e-003
9.439927e-003
9.439927e-003
9.439927e-003
9.439927e-003
9.439927e-003
9.439927e-003
9.439927e-003
9.439927e-003
9.439927e-003
9.439927e-003
9.439926e-003
9.439926e-003
9.439926e-003
9.439925e-003
9.439925e-003
9.439924e-003
9.439924e-003
9.439923e-003
9.439923e-003
9.439922e-003
9.439922e-003
9.439921e-003
9.439921e-003
9.439920e-003
9.439920e-003
9.439920e-003
9.439920e-003
9.439920e-003
9.439920e-003
9.439920e-003
9.439920e-003
9.439920e-003
9.439921e-003
9.439921e-003
9.439921e-003
9.439921e-003
9.439920e-003
9.439920e-003
9.439919e-003
9.439919e-003
9.439919e-003
9.439920e-003
9.439920e-003
9.439920e-003
9.439920e-003
9.439920e-003
9.439920e-003
9.439920e-003
9.439920e-003
9.439920e-003
9.439920e-003
9.439920e-003
9.439920e-003
9.439920e-003
9.439920e-003
9.439920e-003
9.439920e-003
9.439920e-003
9.439920e-003
9.439920e-003
9.439920e-003
9.439920e-003
9.439920e-003
9.439920e-003
9.439920e-003
9.439920e-003
9.439920e-003
9.439920e-003
9.439920e-003
9.439920e-003
9.439920e-003
9.439920e-003
9.439920e-003
9.439920e-003
9.439920e-003
9.439920e-003
9.439920e-003
9.439921e-003
9.439921e-003
9.439921e-003
9.439921e-003
9.439921e-003
9.439922e-003
9.439922e-003
9.439923e-003
9.439923e-003
9.439923e-003
9.439924e-003
9.439924e-003
9.439925e-003
9.439926e-003
9.439926e-003
9.439927e-003
9.439927e-003
9.439928e-003
9.439928e-003
9.439929e-003
9.439929e-003
9.439929e-003
9.439930e-003
9.439930e-003
9.439930e-003
9.439930e-003
9.439930e-003
9.439930e-003
9.439930e-003
9.439930e-003
9.439930e-003
9.439930e-003
9.439930e-003
9.439929e-003
9.439929e-003
9.439928e-003
9.439928e-003
9.439927e-003
9.439927e-003
9.439926e-003
9.439925e-003
9.439925e-003
9.439924e-003
9.439924e-003
9.439923e-003
9.439923e-003
9.439922e-003
9.439922e-003
9.439921e-003
9.439921e-003
9.439921e-003
9.439921e-003
9.439920e-003
9.439920e-003
9.439920e-003
9.439920e-003
9.439920e-003
9.439920e-003
9.439920e-003
9.439920e-003
9.439920e-003
9.439920e-003
9.439920e-003
9.439920e-003
9.439920e-003
9.439920e-003
9.439920e-003
9.439920e-003
9.439920e-003
9.439920e-003
9.439920e-003
9.439920e-003
9.439920e-003
9.439920e-003
9.439920e-003
9.439920e-003
9.439919e-003
9.439920e-003
9.439920e-003
9.439921e-003
9.439921e-003
9.439920e-003
9.439920e-003
9.439919e-003
9.439919e-003
9.439919e-003
9.439920e-003
9.439920e-003
9.439921e-003
9.439921e-003
9.439921e-003
9.439921e-003
9.439920e-003
9.439920e-003
9.439920e-003
9.439920e-003
9.439919e-003
9.439919e-003
9.439920e-003
9.439920e-003
9.439920e-003
9.439921e-003
9.439922e-003
9.439922e-003
9.439923e-003
9.439924e-003
9.439925e-003
9.439926e-003
9.439926e-003
9.439927e-003
9.439928e-003
9.439929e-003
9.439930e-003
9.439931e-003
9.439931e-003
9.439932e-003
9.439933e-003
9.439933e-003
9.439934e-003
9.439934e-003
9.439935e-003
9.439935e-003
9.439936e-003
9.439936e-003
9.439936e-003
9.439936e-003
9.439936e-003
9.439936e-003
9.439936e-003
9.439936e-003
9.439936e-003
9.439936e-003
9.439935e-003
9.439935e-003
9.439934e-003
9.439934e-003
9.439933e-003
9.439932e-003
9.439932e-003
9.439931e-003
9.439930e-003
9.439929e-003
9.439928e-003
9.439927e-003
9.439927e-003
9.439926e-003
9.439925e-003
9.439924e-003
9.439923e-003
9.439923e-003
9.439922e-003
9.439921e-003
9.439921e-003
9.439920e-003
9.439920e-003
9.439920e-003
9.439920e-003
9.439920e-003
9.439920e-003
9.439920e-003
9.439920e-003
9.439920e-003
9.439920e-003
9.439920e-003
9.439920e-003
9.439920e-003
9.439920e-003
9.439920e-003
9.439920e-003
9.439920e-003
9.439920e-003
9.439920e-003
9.439920e-003
9.439920e-003
9.439920e-003
9.439920e-003
9.439919e-003
9.439919e-003
9.439920e-003
9.439921e-003
9.439921e-003
9.439921e-003
9.439920e-003
9.439919e-003
9.439919e-003
9.439919e-003
9.439919e-003
9.439920e-003
9.439921e-003
9.439921e-003
9.439921e-003
9.439921e-003
9.439920e-003
9.439920e-003
9.439920e-003
9.439920e-003
9.439920e-003
9.439920e-003
9.439920e-003
9.439921e-003
9.439921e-003
9.439922e-003
9.439923e-003
9.439925e-003
9.439926e-003
9.439927e-003
9.439928e-003
9.439930e-003
9.439931e-003
9.439932e-003
9.439933e-003
9.439935e-003
9.439936e-003
9.439937e-003
9.439938e-003
9.439939e-003
9.439940e-003
9.439941e-003
9.439941e-003
9.439942e-003
9.439943e-003
9.439943e-003
9.439943e-003
9.439944e-003
9.439944e-003
9.439944e-003
9.439944e-003
9.439944e-003
9.439944e-003
9.439944e-003
9.439943e-003
9.439943e-003
9.439943e-003
9.439942e-003
9.439941e-003
9.439941e-003
9.439940e-003
9.439939e-003
9.439938e-003
9.439937e-003
9.439936e-003
9.439935e-003
9.439933e-003
9.439932e-003
9.439931e-003
9.439929e-003
9.439928e-003
9.439927e-003
9.439926e-003
9.439925e-003
9.439923e-003
9.439922e-003
9.439922e-003
9.439921e-003
9.439920e-003
9.439920e-003
9.439920e-003
9.439920e-003
9.439920e-003
9.439920e-003
9.439920e-003
9.439921e-003
9.439921e-003
9.439921e-003
9.439920e-003
9.439920e-003
9.439920e-003
9.439919e-003
9.439920e-003
9.439920e-003
9.439920e-003
9.439920e-003
9.439920e-003
9.439920e-003
9.439920e-003
9.439920e-003
9.439919e-003
9.439919e-003
9.439920e-003
9.439921e-003
9.439921e-003
9.439921e-003
9.439920e-003
9.439920e-003
9.439919e-003
9.439919e-003
9.439919e-003
9.439920e-003
9.439921e-003
9.439921e-003
9.439921e-003
9.439921e-003
9.439920e-003
9.439920e-003
9.439920e-003
9.439921e-003
9.439921e-003
9.439922e-003
9.439922e-003
9.439923e-003
9.439924e-003
9.439925e-003
9.439927e-003
9.439928e-003
9.439930e-003
9.439931e-003
9.439933e-003
9.439935e-003
9.439937e-003
9.439938e-003
9.439940e-003
9.439941e-003
9.439943e-003
9.439944e-003
9.439945e-003
9.439946e-003
9.439946e-003
9.439947e-003
9.439947e-003
9.439947e-003
9.439947e-003
9.439947e-003
9.439947e-003
9.439947e-003
9.439947e-003
9.439947e-003
9.439946e-003
9.439946e-003
9.439946e-003
9.439946e-003
9.439946e-003
9.439945e-003
9.439945e-003
9.439945e-003
9.439945e-003
9.439945e-003
9.439944e-003
9.439944e-003
9.439943e-003
9.439943e-003
9.439942e-003
9.439941e-003
9.439939e-003
9.439938e-003
9.439936e-003
9.439934e-003
9.439933e-003
9.439931e-003
9.439929e-003
9.439928e-003
9.439926e-003
9.439925e-003
9.439924e-003
9.439923e-003
9.439922e-003
9.439921e-003
9.439921e-003
9.439920e-003
9.439920e-003
9.439920e-003
9.439920e-003
9.439920e-003
9.439921e-003
9.439921e-003
9.439920e-003
9.439920e-003
9.439920e-003
9.439920e-003
9.439920e-003
9.439920e-003
9.439920e-003
9.439920e-003
9.439920e-003
9.439920e-003
9.439920e-003
9.439920e-003
9.439920e-003
9.439920e-003
9.439920e-003
9.439920e-003
9.439920e-003
9.439920e-003
9.439920e-003
9.439920e-003
9.439920e-003
9.439920e-003
9.439920e-003
9.439920e-003
9.439920e-003
9.439920e-003
9.439920e-003
9.439920e-003
9.439920e-003
9.439920e-003
9.439921e-003
9.439922e-003
9.439923e-003
9.439924e-003
9.439925e-003
9.439927e-003
9.439928e-003
9.439930e-003
9.439932e-003
9.439934e-003
9.439936e-003
9.439938e-003
9.439940e-003
9.439942e-003
9.439943e-003
9.439945e-003
9.439945e-003
9.439946e-003
9.439946e-003
9.439945e-003
9.439945e-003
9.439943e-003
9.439942e-003
9.439940e-003
9.439938e-003
9.439935e-003
9.439933e-003
9.439931e-003
9.439928e-003
9.439926e-003
9.439924e-003
9.439923e-003
9.439921e-003
9.439920e-003
9.439920e-003
9.439920e-003
9.439920e-003
9.439921e-003
9.439923e-003
9.439925e-003
9.439927e-003
9.439930e-003
9.439932e-003
9.439935e-003
9.439937e-003
9.439939e-003
9.439941e-003
9.439942e-003
9.439942e-003
9.439942e-003
9.439941e-003
9.439940e-003
9.439938e-003
9.439936e-003
9.439934e-003
9.439932e-003
9.439930e-003
9.439928e-003
9.439927e-003
9.439925e-003
9.439924e-003
9.439923e-003
9.439922e-003
9.439921e-003
9.439921e-003
9.439920e-003
9.439920e-003
9.439920e-003
9.439920e-003
9.439920e-003
9.439920e-003
9.439920e-003
9.439920e-003
9.439920e-003
9.439920e-003
9.439920e-003
9.439920e-003
9.439920e-003
9.439920e-003
9.439920e-003
9.439920e-003
9.439920e-003
9.439921e-003
9.439921e-003
9.439920e-003
9.439919e-003
9.439919e-003
9.439920e-003
9.439920e-003
9.439921e-003
9.439921e-003
9.439921e-003
9.439920e-003
9.439920e-003
9.439920e-003
9.439919e-003
9.439920e-003
9.439920e-003
9.439920e-003
9.439921e-003
9.439923e-003
9.439924e-003
9.439926e-003
9.439928e-003
9.439930e-003
9.439931e-003
9.439934e-003
9.439936e-003
9.439939e-003
9.439941e-003
9.439943e-003
9.439945e-003
9.439946e-003
9.439946e-003
9.439945e-003
9.439943e-003
9.439939e-003
9.439934e-003
9.439928e-003
9.439921e-003
9.439912e-003
9.439903e-003
9.439893e-003
9.439883e-003
9.439872e-003
9.439861e-003
9.439851e-003
9.439841e-003
9.439832e-003
9.439824e-003
9.439816e-003
9.439811e-003
9.439806e-003
9.439804e-003
9.439803e-003
9.439804e-003
9.439807e-003
9.439812e-003
9.439819e-003
9.439827e-003
9.439837e-003
9.439848e-003
9.439861e-003
9.439873e-003
9.439886e-003
9.439898e-003
9.439909e-003
9.439918e-003
9.439927e-003
9.439933e-003
9.439937e-003
9.439940e-003
9.439942e-003
9.439942e-003
9.439940e-003
9.439938e-003
9.439936e-003
9.439934e-003
9.439931e-003
9.439929e-003
9.439928e-003
9.439926e-003
9.439924e-003
9.439923e-003
9.439922e-003
9.439921e-003
9.439920e-003
9.439920e-003
9.439920e-003
9.439920e-003
9.439920e-003
9.439920e-003
9.439920e-003
9.439920e-003
9.439921e-003
9.439920e-003
9.439920e-003
9.439920e-003
9.439920e-003
9.439920e-003
9.439920e-003
9.439920e-003
9.439922e-003
9.439921e-003
9.439920e-003
9.439919e-003
9.439918e-003
9.439919e-003
9.439920e-003
9.439921e-003
9.439921e-003
9.439921e-003
9.439921e-003
9.439920e-003
9.439920e-003
9.439920e-003
9.439920e-003
9.439921e-003
9.439922e-003
9.439923e-003
9.439925e-003
9.439927e-003
9.439929e-003
9.439932e-003
9.439935e-003
9.439938e-003
9.439941e-003
9.439944e-003
9.439946e-003
9.439948e-003
9.439947e-003
9.439945e-003
9.439939e-003
9.439931e-003
9.439920e-003
9.439905e-003
9.439886e-003
9.439864e-003
9.439838e-003
9.439810e-003
9.439779e-003
9.439746e-003
9.439713e-003
9.439678e-003
9.439644e-003
9.439610e-003
9.439578e-003
9.439548e-003
9.439520e-003
9.439496e-003
9.439475e-003
9.439459e-003
9.439447e-003
9.439440e-003
9.439438e-003
9.439442e-003
9.439452e-003
9.439468e-003
9.439489e-003
9.439516e-003
9.439547e-003
9.439582e-003
9.439621e-003
9.439661e-003
9.439702e-003
9.439743e-003
9.439782e-003
9.439817e-003
9.439849e-003
9.439876e-003
9.439898e-003
9.439916e-003
9.439928e-003
9.439936e-003
9.439941e-003
9.439942e-003
9.439942e-003
9.439940e-003
9.439937e-003
9.439934e-003
9.439932e-003
9.439929e-003
9.439927e-003
9.439925e-003
9.439923e-003
9.439922e-003
9.439921e-003
9.439921e-003
9.439920e-003
9.439920e-003
9.439920e-003
9.439920e-003
9.439920e-003
9.439921e-003
9.439921e-003
9.439920e-003
9.439920e-003
9.439920e-003
9.439920e-003
9.439920e-003
9.439920e-003
9.439920e-003
9.439922e-003
9.439921e-003
9.439920e-003
9.439919e-003
9.439919e-003
9.439919e-003
9.439920e-003
9.439920e-003
9.439921e-003
9.439921e-003
9.439920e-003
9.439920e-003
9.439920e-003
9.439921e-003
9.439922e-003
9.439923e-003
9.439925e-003
9.439926e-003
9.439928e-003
9.439931e-003
9.439934e-003
9.439938e-003
9.439942e-003
9.439945e-003
9.439947e-003
9.439948e-003
9.439946e-003
9.439940e-003
9.439928e-003
9.439910e-003
9.439884e-003
9.439850e-003
9.439807e-003
9.439755e-003
9.439694e-003
9.439624e-003
9.439547e-003
9.439463e-003
9.439374e-003
9.439282e-003
9.439188e-003
9.439093e-003
9.439000e-003
9.438910e-003
9.438824e-003
9.438745e-003
9.438673e-003
9.438609e-003
9.438556e-003
9.438514e-003
9.438484e-003
9.438467e-003
9.438464e-003
9.438476e-003
9.438502e-003
9.438545e-003
9.438601e-003
9.438673e-003
9.438757e-003
9.438852e-003
9.438956e-003
9.439066e-003
9.439179e-003
9.439292e-003
9.439402e-003
9.439505e-003
9.439600e-003
9.439683e-003
9.439754e-003
9.439812e-003
9.439858e-003
9.439892e-003
9.439915e-003
9.439930e-003
9.439939e-003
9.439942e-003
9.439942e-003
9.439940e-003
9.439937e-003
9.439934e-003
9.439930e-003
9.439928e-003
9.439926e-003
9.439924e-003
9.439923e-003
9.439922e-003
9.439921e-003
9.439920e-003
9.439920e-003
9.439920e-003
9.439920e-003
9.439920e-003
9.439920e-003
9.439920e-003
9.439920e-003
9.439920e-003
9.439920e-003
9.439920e-003
9.439920e-003
9.439920e-003
9.439921e-003
9.439921e-003
9.439920e-003
9.439920e-003
9.439920e-003
9.439920e-003
9.439920e-003
9.439920e-003
9.439920e-003
9.439920e-003
9.439920e-003
9.439921e-003
9.439921e-003
9.439922e-003
9.439924e-003
9.439926e-003
9.439928e-003
9.439931e-003
9.439934e-003
9.439937e-003
9.439941e-003
9.439945e-003
9.439948e-003
9.439949e-003
9.439945e-003
9.439934e-003
9.439914e-003
9.439883e-003
9.439837e-003
9.439775e-003
9.439692e-003
9.439589e-003
9.439464e-003
9.439317e-003
9.439149e-003
9.438962e-003
9.438758e-003
9.438540e-003
9.438313e-003
9.438079e-003
9.437844e-003
9.437609e-003
9.437380e-003
9.437160e-003
9.436953e-003
9.436762e-003
9.436589e-003
9.436438e-003
9.436311e-003
9.436212e-003
9.436142e-003
9.436103e-003
9.436098e-003
9.436127e-003
9.436193e-003
9.436296e-003
9.436434e-003
9.436607e-003
9.436811e-003
9.437043e-003
9.437299e-003
9.437571e-003
9.437852e-003
9.438136e-003
9.438414e-003
9.438679e-003
9.438925e-003
9.439146e-003
9.439339e-003
9.439501e-003
9.439633e-003
9.439736e-003
9.439813e-003
9.439868e-003
9.439904e-003
9.439926e-003
9.439938e-003
9.439942e-003
9.439942e-003
9.439939e-003
9.439936e-003
9.439932e-003
9.439929e-003
9.439927e-003
9.439925e-003
9.439923e-003
9.439922e-003
9.439921e-003
9.439921e-003
9.439920e-003
9.439920e-003
9.439920e-003
9.439920e-003
9.439920e-003
9.439920e-003
9.439920e-003
9.439920e-003
9.439920e-003
9.439920e-003
9.439920e-003
9.439918e-003
9.439919e-003
9.439920e-003
9.439921e-003
9.439921e-003
9.439920e-003
9.439920e-003
9.439919e-003
9.439919e-003
9.439920e-003
9.439921e-003
9.439922e-003
9.439923e-003
9.439924e-003
9.439927e-003
9.439930e-003
9.439933e-003
9.439937e-003
9.439942e-003
9.439946e-003
9.439949e-003
9.439950e-003
9.439946e-003
9.439932e-003
9.439906e-003
9.439861e-003
9.439792e-003
9.439693e-003
9.439558e-003
9.439381e-003
9.439159e-003
9.438887e-003
9.438565e-003
9.438194e-003
9.437778e-003
9.437321e-003
9.436830e-003
9.436312e-003
9.435775e-003
9.435229e-003
9.434682e-003
9.434143e-003
9.433620e-003
9.433121e-003
9.432654e-003
9.432224e-003
9.431838e-003
9.431502e-003
9.431222e-003
9.431002e-003
9.430849e-003
9.430765e-003
9.430757e-003
9.430825e-003
9.430975e-003
9.431205e-003
9.431516e-003
9.431906e-003
9.432368e-003
9.432895e-003
9.433477e-003
9.434100e-003
9.434750e-003
9.435410e-003
9.436062e-003
9.436690e-003
9.437279e-003
9.437815e-003
9.438290e-003
9.438698e-003
9.439036e-003
9.439307e-003
9.439517e-003
9.439672e-003
9.439782e-003
9.439856e-003
9.439901e-003
9.439927e-003
9.439939e-003
9.439942e-003
9.439941e-003
9.439938e-003
9.439935e-003
9.439931e-003
9.439928e-003
9.439926e-003
9.439924e-003
9.439922e-003
9.439922e-003
9.439921e-003
9.439920e-003
9.439920e-003
9.439920e-003
9.439920e-003
9.439920e-003
9.439920e-003
9.439920e-003
9.439920e-003
9.439920e-003
9.439920e-003
9.439917e-003
9.439918e-003
9.439920e-003
9.439922e-003
9.439922e-003
9.439921e-003
9.439920e-003
9.439919e-003
9.439919e-003
9.439920e-003
9.439922e-003
9.439923e-003
9.439925e-003
9.439927e-003
9.439930e-003
9.439935e-003
9.439940e-003
9.439945e-003
9.439950e-003
9.439952e-003
9.439949e-003
9.439936e-003
9.439908e-003
9.439855e-003
9.439767e-003
9.439634e-003
9.439442e-003
9.439179e-003
9.438831e-003
9.438387e-003
9.437841e-003
9.437187e-003
9.436426e-003
9.435562e-003
9.434605e-003
9.433566e-003
9.432461e-003
9.431308e-003
9.430125e-003
9.428932e-003
9.427748e-003
9.426589e-003
9.425473e-003
9.424415e-003
9.423429e-003
9.422527e-003
9.421723e-003
9.421026e-003
9.420447e-003
9.419996e-003
9.419682e-003
9.419514e-003
9.419501e-003
9.419649e-003
9.419963e-003
9.420447e-003
9.421100e-003
9.421917e-003
9.422891e-003
9.424007e-003
9.425244e-003
9.426578e-003
9.427979e-003
9.429413e-003
9.430843e-003
9.432234e-003
9.433552e-003
9.434766e-003
9.435855e-003
9.436802e-003
9.437601e-003
9.438254e-003
9.438768e-003
9.439160e-003
9.439446e-003
9.439646e-003
9.439778e-003
9.439861e-003
9.439908e-003
9.439932e-003
9.439942e-003
9.439943e-003
9.439941e-003
9.439936e-003
9.439932e-003
9.439929e-003
9.439926e-003
9.439924e-003
9.439923e-003
9.439922e-003
9.439921e-003
9.439920e-003
9.439920e-003
9.439920e-003
9.439920e-003
9.439921e-003
9.439921e-003
9.439920e-003
9.439920e-003
9.439919e-003
9.439917e-003
9.439918e-003
9.439920e-003
9.439921e-003
9.439922e-003
9.439921e-003
9.439920e-003
9.439920e-003
9.439920e-003
9.439922e-003
9.439924e-003
9.439926e-003
9.439928e-003
9.439931e-003
9.439936e-003
9.439941e-003
9.439947e-003
9.439952e-003
9.439953e-003
9.439944e-003
9.439919e-003
9.439867e-003
9.439773e-003
9.439620e-003
9.439385e-003
9.439043e-003
9.438567e-003
9.437931e-003
9.437109e-003
9.436082e-003
9.434837e-003
9.433370e-003
9.431686e-003
9.429800e-003
9.427736e-003
9.425525e-003
9.423201e-003
9.420804e-003
9.418373e-003
9.415946e-003
9.413559e-003
9.411248e-003
9.409041e-003
9.406967e-003
9.405048e-003
9.403308e-003
9.401765e-003
9.400436e-003
9.399340e-003
9.398492e-003
9.397908e-003
9.397602e-003
9.397590e-003
9.397883e-003
9.398493e-003
9.399427e-003
9.400686e-003
9.402266e-003
9.404155e-003
9.406331e-003
9.408761e-003
9.411403e-003
9.414203e-003
9.417098e-003
9.420019e-003
9.422893e-003
9.425651e-003
9.428226e-003
9.430565e-003
9.432629e-003
9.434396e-003
9.435861e-003
9.437036e-003
9.437947e-003
9.438626e-003
9.439114e-003
9.439449e-003
9.439668e-003
9.439804e-003
9.439881e-003
9.439922e-003
9.439939e-003
9.439944e-003
9.439942e-003
9.439937e-003
9.439933e-003
9.439929e-003
9.439926e-003
9.439924e-003
9.439923e-003
9.439921e-003
9.439920e-003
9.439920e-003
9.439920e-003
9.439920e-003
9.439921e-003
9.439921e-003
9.439920e-003
9.439920e-003
9.439919e-003
9.439918e-003
9.439919e-003
9.439920e-003
9.439921e-003
9.439921e-003
9.439921e-003
9.439920e-003
9.439921e-003
9.439922e-003
9.439924e-003
9.439926e-003
9.439929e-003
9.439933e-003
9.439938e-003
9.439943e-003
9.439950e-003
9.439954e-003
9.439952e-003
9.439935e-003
9.439894e-003
9.439809e-003
9.439659e-003
9.439411e-003
9.439027e-003
9.438460e-003
9.437657e-003
9.436566e-003
9.435134e-003
9.433318e-003
9.431086e-003
9.428423e-003
9.425334e-003
9.421843e-003
9.417996e-003
9.413852e-003
9.409482e-003
9.404964e-003
9.400376e-003
9.395797e-003
9.391297e-003
9.386940e-003
9.382782e-003
9.378869e-003
9.375242e-003
9.371931e-003
9.368965e-003
9.366367e-003
9.364158e-003
9.362356e-003
9.360982e-003
9.360054e-003
9.359592e-003
9.359616e-003
9.360145e-003
9.361197e-003
9.362788e-003
9.364926e-003
9.367616e-003
9.370850e-003
9.374608e-003
9.378853e-003
9.383530e-003
9.388564e-003
9.393856e-003
9.399290e-003
9.404738e-003
9.410060e-003
9.415124e-003
9.419808e-003
9.424015e-003
9.427678e-003
9.430769e-003
9.433289e-003
9.435275e-003
9.436785e-003
9.437890e-003
9.438667e-003
9.439190e-003
9.439527e-003
9.439731e-003
9.439848e-003
9.439908e-003
9.439935e-003
9.439943e-003
9.439942e-003
9.439938e-003
9.439933e-003
9.439930e-003
9.439927e-003
9.439924e-003
9.439922e-003
9.439921e-003
9.439921e-003
9.439920e-003
9.439920e-003
9.439920e-003
9.439920e-003
9.439920e-003
9.439920e-003
9.439920e-003
9.439921e-003
9.439920e-003
9.439920e-003
9.439920e-003
9.439920e-003
9.439920e-003
9.439921e-003
9.439922e-003
9.439924e-003
9.439926e-003
9.439929e-003
9.439934e-003
9.439940e-003
9.439946e-003
9.439952e-003
9.439955e-003
9.439949e-003
9.439924e-003
9.439862e-003
9.439738e-003
9.439515e-003
9.439143e-003
9.438555e-003
9.437672e-003
9.436400e-003
9.434639e-003
9.432288e-003
9.429259e-003
9.425484e-003
9.420930e-003
9.415600e-003
9.409544e-003
9.402850e-003
9.395644e-003
9.388072e-003
9.380295e-003
9.372473e-003
9.364756e-003
9.357277e-003
9.350148e-003
9.343458e-003
9.337272e-003
9.331635e-003
9.326574e-003
9.322101e-003
9.318221e-003
9.314932e-003
9.312227e-003
9.310104e-003
9.308557e-003
9.307589e-003
9.307202e-003
9.307406e-003
9.308217e-003
9.309655e-003
9.311749e-003
9.314531e-003
9.318038e-003
9.322307e-003
9.327367e-003
9.333237e-003
9.339908e-003
9.347337e-003
9.355436e-003
9.364065e-003
9.373037e-003
9.382119e-003
9.391054e-003
9.399582e-003
9.407464e-003
9.414512e-003
9.420599e-003
9.425672e-003
9.429750e-003
9.432908e-003
9.435262e-003
9.436951e-003
9.438113e-003
9.438880e-003
9.439362e-003
9.439650e-003
9.439811e-003
9.439893e-003
9.439930e-003
9.439942e-003
9.439943e-003
9.439939e-003
9.439934e-003
9.439930e-003
9.439926e-003
9.439924e-003
9.439922e-003
9.439921e-003
9.439921e-003
9.439920e-003
9.439920e-003
9.439920e-003
9.439920e-003
9.439920e-003
9.439920e-003
9.439923e-003
9.439921e-003
9.439920e-003
9.439919e-003
9.439919e-003
9.439920e-003
9.439922e-003
9.439924e-003
9.439926e-003
9.439929e-003
9.439934e-003
9.439940e-003
9.439948e-003
9.439954e-003
9.439957e-003
9.439948e-003
9.439913e-003
9.439829e-003
9.439661e-003
9.439353e-003
9.438828e-003
9.437985e-003
9.436691e-003
9.434790e-003
9.432106e-003
9.428460e-003
9.423689e-003
9.417667e-003
9.410334e-003
9.401715e-003
9.391926e-003
9.381178e-003
9.369756e-003
9.357997e-003
9.346255e-003
9.334873e-003
9.324153e-003
9.314339e-003
9.305607e-003
9.298064e-003
9.291752e-003
9.286655e-003
9.282709e-003
9.279814e-003
9.277848e-003
9.276674e-003
9.276153e-003
9.276147e-003
9.276526e-003
9.277172e-003
9.277976e-003
9.278851e-003
9.279724e-003
9.280554e-003
9.281330e-003
9.282086e-003
9.282909e-003
9.283942e-003
9.285387e-003
9.287499e-003
9.290561e-003
9.294859e-003
9.300640e-003
9.308065e-003
9.317173e-003
9.327845e-003
9.339801e-003
9.352615e-003
9.365759e-003
9.378668e-003
9.390809e-003
9.401748e-003
9.411193e-003
9.419012e-003
9.425222e-003
9.429955e-003
9.433417e-003
9.435849e-003
9.437486e-003
9.438541e-003
9.439190e-003
9.439569e-003
9.439776e-003
9.439880e-003
9.439926e-003
9.439942e-003
9.439944e-003
9.439940e-003
9.439934e-003
9.439930e-003
9.439926e-003
9.439924e-003
9.439922e-003
9.439921e-003
9.439920e-003
9.439920e-003
9.439920e-003
9.439920e-003
9.439920e-003
9.439921e-003
9.439924e-003
9.439922e-003
9.439920e-003
9.439919e-003
9.439919e-003
9.439921e-003
9.439924e-003
9.439926e-003
9.439929e-003
9.439933e-003
9.439940e-003
9.439948e-003
9.439956e-003
9.439958e-003
9.439947e-003
9.439903e-003
9.439799e-003
9.439585e-003
9.439187e-003
9.438494e-003
9.437355e-003
9.435567e-003
9.432884e-003
9.429018e-003
9.423672e-003
9.416567e-003
9.407504e-003
9.396412e-003
9.383407e-003
9.368819e-003
9.353198e-003
9.337276e-003
9.321901e-003
9.307945e-003
9.296215e-003
9.287375e-003
9.281894e-003
9.280021e-003
9.281789e-003
9.287034e-003
9.295431e-003
9.306527e-003
9.319777e-003
9.334577e-003
9.350302e-003
9.366322e-003
9.382030e-003
9.396845e-003
9.410224e-003
9.421658e-003
9.430679e-003
9.436861e-003
9.439838e-003
9.439323e-003
9.435140e-003
9.427268e-003
9.415885e-003
9.401406e-003
9.384512e-003
9.366156e-003
9.347520e-003
9.329948e-003
9.314822e-003
9.303412e-003
9.296719e-003
9.295331e-003
9.299323e-003
9.308233e-003
9.321121e-003
9.336709e-003
9.353578e-003
9.370373e-003
9.385981e-003
9.399636e-003
9.410948e-003
9.419859e-003
9.426555e-003
9.431363e-003
9.434669e-003
9.436844e-003
9.438212e-003
9.439032e-003
9.439499e-003
9.439748e-003
9.439871e-003
9.439924e-003
9.439942e-003
9.439944e-003
9.439939e-003
9.439933e-003
9.439929e-003
9.439926e-003
9.439924e-003
9.439922e-003
9.439921e-003
9.439920e-003
9.439919e-003
9.439920e-003
9.439920e-003
9.439921e-003
9.439923e-003
9.439922e-003
9.439920e-003
9.439919e-003
9.439920e-003
9.439923e-003
9.439926e-003
9.439930e-003
9.439934e-003
9.439940e-003
9.439947e-003
9.439955e-003
9.439959e-003
9.439946e-003
9.439898e-003
9.439777e-003
9.439524e-003
9.439040e-003
9.438179e-003
9.436727e-003
9.434395e-003
9.430813e-003
9.425545e-003
9.418122e-003
9.408117e-003
9.395247e-003
9.379507e-003
9.361308e-003
9.341574e-003
9.321776e-003
9.303856e-003
9.290062e-003
9.282698e-003
9.283853e-003
9.295170e-003
9.317672e-003
9.351696e-003
9.396904e-003
9.452372e-003
9.516708e-003
9.588176e-003
9.664819e-003
9.744558e-003
9.825281e-003
9.904912e-003
9.981460e-003
1.005305e-002
1.011793e-002
1.017446e-002
1.022111e-002
1.025643e-002
1.027907e-002
1.028780e-002
1.028160e-002
1.025970e-002
1.022177e-002
1.016804e-002
1.009947e-002
1.001784e-002
9.925879e-003
9.827179e-003
9.726080e-003
9.627370e-003
9.535879e-003
9.455995e-003
9.391165e-003
9.343476e-003
9.313395e-003
9.299755e-003
9.299990e-003
9.310613e-003
9.327798e-003
9.347966e-003
9.368221e-003
9.386574e-003
9.401948e-003
9.414017e-003
9.422971e-003
9.429286e-003
9.433533e-003
9.436260e-003
9.437933e-003
9.438911e-003
9.439452e-003
9.439734e-003
9.439868e-003
9.439924e-003
9.439942e-003
9.439943e-003
9.439938e-003
9.439933e-003
9.439928e-003
9.439926e-003
9.439923e-003
9.439922e-003
9.439920e-003
9.439920e-003
9.439920e-003
9.439920e-003
9.439921e-003
9.439922e-003
9.439921e-003
9.439920e-003
9.439920e-003
9.439922e-003
9.439925e-003
9.439929e-003
9.439934e-003
9.439940e-003
9.439947e-003
9.439955e-003
9.439959e-003
9.439948e-003
9.439898e-003
9.439768e-003
9.439486e-003
9.438934e-003
9.437924e-003
9.436177e-003
9.433301e-003
9.428778e-003
9.421977e-003
9.412211e-003
9.398865e-003
9.381603e-003
9.360662e-003
9.337192e-003
9.313560e-003
9.293491e-003
9.281980e-003
9.284898e-003
9.308353e-003
9.357935e-003
9.437995e-003
9.551113e-003
9.697844e-003
9.876749e-003
1.008466e-002
1.031709e-002
1.056863e-002
1.083339e-002
1.110530e-002
1.137830e-002
1.164660e-002
1.190472e-002
1.214760e-002
1.237059e-002
1.256943e-002
1.274014e-002
1.287900e-002
1.298242e-002
1.304696e-002
1.306937e-002
1.304671e-002
1.297663e-002
1.285764e-002
1.268958e-002
1.247403e-002
1.221474e-002
1.191798e-002
1.159258e-002
1.124985e-002
1.090294e-002
1.056602e-002
1.025300e-002
9.976188e-003
9.744866e-003
9.564241e-003
9.434873e-003
9.352849e-003
9.310687e-003
9.298791e-003
9.307107e-003
9.326590e-003
9.350168e-003
9.373093e-003
9.392765e-003
9.408226e-003
9.419568e-003
9.427419e-003
9.432581e-003
9.435815e-003
9.437747e-003
9.438845e-003
9.439436e-003
9.439734e-003