# vtk DataFile Version 3.0
vtk output
ASCII
DATASET STRUCTURED_POINTS
DIMENSIONS 100 100 1
SPACING 1 1 1
ORIGIN 0 0 0
POINT_DATA 10000
SCALARS SFBox_profile double
LOOKUP_TABLE default 
9.439927e-003
9.439925e-003
9.439921e-003
9.439918e-003
9.439917e-003
9.439918e-003
9.439920e-003
9.439921e-003
9.439921e-003
9.439920e-003
9.439919e-003
9.439920e-003
9.439921e-003
9.439921e-003
9.439920e-003
9.439919e-003
9.439919e-003
9.439919e-003
9.439920e-003
9.439921e-003
9.439921e-003
9.439920e-003
9.439920e-003
9.439921e-003
9.439921e-003
9.439921e-003
9.439921e-003
9.439921e-003
9.439921e-003
9.439922e-003
9.439923e-003
9.439923e-003
9.439924e-003
9.439924e-003
9.439925e-003
9.439926e-003
9.439927e-003
9.439928e-003
9.439928e-003
9.439929e-003
9.439930e-003
9.439931e-003
9.439931e-003
9.439932e-003
9.439932e-003
9.439933e-003
9.439933e-003
9.439934e-003
9.439934e-003
9.439934e-003
9.439934e-003
9.439934e-003
9.439934e-003
9.439934e-003
9.439934e-003
9.439933e-003
9.439933e-003
9.439932e-003
9.439932e-003
9.439931e-003
9.439930e-003
9.439929e-003
9.439929e-003
9.439928e-003
9.439927e-003
9.439926e-003
9.439925e-003
9.439925e-003
9.439924e-003
9.439923e-003
9.439923e-003
9.439922e-003
9.439921e-003
9.439921e-003
9.439921e-003
9.439921e-003
9.439921e-003
9.439920e-003
9.439920e-003
9.439920e-003
9.439920e-003
9.439920e-003
9.439920e-003
9.439920e-003
9.439920e-003
9.439920e-003
9.439920e-003
9.439920e-003
9.439920e-003
9.439920e-003
9.439920e-003
9.439920e-003
9.439920e-003
9.439920e-003
9.439920e-003
9.439920e-003
9.439920e-003
9.439920e-003
9.439920e-003
9.439920e-003
9.439927e-003
9.439925e-003
9.439921e-003
9.439918e-003
9.439917e-003
9.439918e-003
9.439920e-003
9.439921e-003
9.439921e-003
9.439920e-003
9.439919e-003
9.439920e-003
9.439921e-003
9.439921e-003
9.439920e-003
9.439919e-003
9.439919e-003
9.439919e-003
9.439920e-003
9.439921e-003
9.439921e-003
9.439920e-003
9.439920e-003
9.439921e-003
9.439921e-003
9.439921e-003
9.439921e-003
9.439921e-003
9.439921e-003
9.439922e-003
9.439923e-003
9.439923e-003
9.439924e-003
9.439924e-003
9.439925e-003
9.439926e-003
9.439927e-003
9.439928e-003
9.439928e-003
9.439929e-003
9.439930e-003
9.439931e-003
9.439931e-003
9.439932e-003
9.439932e-003
9.439933e-003
9.439933e-003
9.439934e-003
9.439934e-003
9.439934e-003
9.439934e-003
9.439934e-003
9.439934e-003
9.439934e-003
9.439934e-003
9.439933e-003
9.439933e-003
9.439932e-003
9.439932e-003
9.439931e-003
9.439930e-003
9.439929e-003
9.439929e-003
9.439928e-003
9.439927e-003
9.439926e-003
9.439925e-003
9.439925e-003
9.439924e-003
9.439923e-003
9.439923e-003
9.439922e-003
9.439921e-003
9.439921e-003
9.439921e-003
9.439921e-003
9.439921e-003
9.439920e-003
9.439920e-003
9.439920e-003
9.439920e-003
9.439920e-003
9.439920e-003
9.439920e-003
9.439920e-003
9.439920e-003
9.439920e-003
9.439920e-003
9.439920e-003
9.439920e-003
9.439920e-003
9.439920e-003
9.439920e-003
9.439920e-003
9.439920e-003
9.439920e-003
9.439920e-003
9.439920e-003
9.439920e-003
9.439920e-003
9.439922e-003
9.439921e-003
9.439920e-003
9.439919e-003
9.439919e-003
9.439920e-003
9.439920e-003
9.439921e-003
9.439920e-003
9.439920e-003
9.439919e-003
9.439920e-003
9.439920e-003
9.439920e-003
9.439920e-003
9.439920e-003
9.439920e-003
9.439920e-003
9.439920e-003
9.439921e-003
9.439920e-003
9.439920e-003
9.439920e-003
9.439921e-003
9.439921e-003
9.439922e-003
9.439922e-003
9.439922e-003
9.439923e-003
9.439924e-003
9.439924e-003
9.439925e-003
9.439926e-003
9.439927e-003
9.439927e-003
9.439928e-003
9.439929e-003
9.439930e-003
9.439931e-003
9.439932e-003
9.439933e-003
9.439934e-003
9.439934e-003
9.439935e-003
9.439935e-003
9.439936e-003
9.439936e-003
9.439937e-003
9.439937e-003
9.439937e-003
9.439937e-003
9.439937e-003
9.439937e-003
9.439937e-003
9.439937e-003
9.439936e-003
9.439936e-003
9.439935e-003
9.439935e-003
9.439934e-003
9.439933e-003
9.439932e-003
9.439931e-003
9.439931e-003
9.439930e-003
9.439929e-003
9.439928e-003
9.439927e-003
9.439926e-003
9.439925e-003
9.439924e-003
9.439923e-003
9.439923e-003
9.439922e-003
9.439922e-003
9.439921e-003
9.439921e-003
9.439921e-003
9.439920e-003
9.439920e-003
9.439920e-003
9.439920e-003
9.439920e-003
9.439920e-003
9.439920e-003
9.439920e-003
9.439920e-003
9.439920e-003
9.439920e-003
9.439920e-003
9.439920e-003
9.439920e-003
9.439920e-003
9.439920e-003
9.439920e-003
9.439920e-003
9.439920e-003
9.439920e-003
9.439920e-003
9.439920e-003
9.439915e-003
9.439917e-003
9.439919e-003
9.439921e-003
9.439922e-003
9.439921e-003
9.439920e-003
9.439920e-003
9.439920e-003
9.439920e-003
9.439920e-003
9.439920e-003
9.439920e-003
9.439920e-003
9.439920e-003
9.439921e-003
9.439921e-003
9.439921e-003
9.439921e-003
9.439920e-003
9.439920e-003
9.439921e-003
9.439921e-003
9.439921e-003
9.439922e-003
9.439923e-003
9.439923e-003
9.439924e-003
9.439926e-003
9.439927e-003
9.439928e-003
9.439929e-003
9.439930e-003
9.439931e-003
9.439932e-003
9.439934e-003
9.439935e-003
9.439936e-003
9.439937e-003
9.439938e-003
9.439939e-003
9.439940e-003
9.439941e-003
9.439941e-003
9.439942e-003
9.439942e-003
9.439943e-003
9.439943e-003
9.439943e-003
9.439944e-003
9.439944e-003
9.439944e-003
9.439943e-003
9.439943e-003
9.439943e-003
9.439943e-003
9.439942e-003
9.439941e-003
9.439941e-003
9.439940e-003
9.439939e-003
9.439938e-003
9.439937e-003
9.439936e-003
9.439935e-003
9.439934e-003
9.439932e-003
9.439931e-003
9.439930e-003
9.439928e-003
9.439927e-003
9.439926e-003
9.439925e-003
9.439924e-003
9.439923e-003
9.439922e-003
9.439922e-003
9.439921e-003
9.439921e-003
9.439920e-003
9.439920e-003
9.439920e-003
9.439920e-003
9.439920e-003
9.439920e-003
9.439920e-003
9.439920e-003
9.439920e-003
9.439920e-003
9.439920e-003
9.439920e-003
9.439920e-003
9.439920e-003
9.439920e-003
9.439920e-003
9.439920e-003
9.439920e-003
9.439920e-003
9.439920e-003
9.439920e-003
9.439912e-003
9.439915e-003
9.439919e-003
9.439922e-003
9.439923e-003
9.439921e-003
9.439920e-003
9.439919e-003
9.439919e-003
9.439920e-003
9.439921e-003
9.439920e-003
9.439919e-003
9.439919e-003
9.439920e-003
9.439921e-003
9.439921e-003
9.439921e-003
9.439921e-003
9.439921e-003
9.439921e-003
9.439922e-003
9.439923e-003
9.439923e-003
9.439924e-003
9.439925e-003
9.439927e-003
9.439928e-003
9.439930e-003
9.439931e-003
9.439933e-003
9.439935e-003
9.439937e-003
9.439938e-003
9.439940e-003
9.439941e-003
9.439943e-003
9.439944e-003
9.439945e-003
9.439946e-003
9.439946e-003
9.439947e-003
9.439947e-003
9.439948e-003
9.439948e-003
9.439948e-003
9.439948e-003
9.439947e-003
9.439947e-003
9.439947e-003
9.439947e-003
9.439947e-003
9.439947e-003
9.439946e-003
9.439946e-003
9.439946e-003
9.439946e-003
9.439946e-003
9.439945e-003
9.439945e-003
9.439945e-003
9.439944e-003
9.439944e-003
9.439943e-003
9.439942e-003
9.439940e-003
9.439939e-003
9.439937e-003
9.439936e-003
9.439934e-003
9.439932e-003
9.439930e-003
9.439929e-003
9.439927e-003
9.439926e-003
9.439924e-003
9.439923e-003
9.439923e-003
9.439922e-003
9.439921e-003
9.439921e-003
9.439920e-003
9.439920e-003
9.439920e-003
9.439921e-003
9.439920e-003
9.439920e-003
9.439920e-003
9.439920e-003
9.439920e-003
9.439920e-003
9.439920e-003
9.439920e-003
9.439920e-003
9.439920e-003
9.439920e-003
9.439920e-003
9.439920e-003
9.439920e-003
9.439920e-003
9.439916e-003
9.439918e-003
9.439920e-003
9.439922e-003
9.439922e-003
9.439920e-003
9.439919e-003
9.439918e-003
9.439919e-003
9.439921e-003
9.439921e-003
9.439921e-003
9.439920e-003
9.439919e-003
9.439920e-003
9.439920e-003
9.439921e-003
9.439921e-003
9.439921e-003
9.439921e-003
9.439922e-003
9.439924e-003
9.439925e-003
9.439927e-003
9.439928e-003
9.439930e-003
9.439932e-003
9.439934e-003
9.439936e-003
9.439938e-003
9.439940e-003
9.439942e-003
9.439944e-003
9.439946e-003
9.439947e-003
9.439947e-003
9.439947e-003
9.439947e-003
9.439946e-003
9.439945e-003
9.439944e-003
9.439942e-003
9.439940e-003
9.439938e-003
9.439935e-003
9.439933e-003
9.439931e-003
9.439929e-003
9.439928e-003
9.439926e-003
9.439925e-003
9.439925e-003
9.439924e-003
9.439925e-003
9.439925e-003
9.439927e-003
9.439928e-003
9.439930e-003
9.439932e-003
9.439934e-003
9.439936e-003
9.439939e-003
9.439940e-003
9.439942e-003
9.439943e-003
9.439943e-003
9.439943e-003
9.439943e-003
9.439942e-003
9.439940e-003
9.439938e-003
9.439936e-003
9.439934e-003
9.439932e-003
9.439930e-003
9.439928e-003
9.439926e-003
9.439925e-003
9.439924e-003
9.439923e-003
9.439922e-003
9.439921e-003
9.439921e-003
9.439921e-003
9.439920e-003
9.439920e-003
9.439920e-003
9.439920e-003
9.439920e-003
9.439920e-003
9.439920e-003
9.439920e-003
9.439920e-003
9.439920e-003
9.439920e-003
9.439920e-003
9.439920e-003
9.439920e-003
9.439920e-003
9.439920e-003
9.439921e-003
9.439921e-003
9.439921e-003
9.439921e-003
9.439920e-003
9.439919e-003
9.439919e-003
9.439919e-003
9.439920e-003
9.439921e-003
9.439921e-003
9.439921e-003
9.439920e-003
9.439920e-003
9.439920e-003
9.439921e-003
9.439921e-003
9.439922e-003
9.439922e-003
9.439923e-003
9.439925e-003
9.439927e-003
9.439930e-003
9.439932e-003
9.439934e-003
9.439936e-003
9.439939e-003
9.439942e-003
9.439944e-003
9.439946e-003
9.439947e-003
9.439947e-003
9.439946e-003
9.439945e-003
9.439941e-003
9.439936e-003
9.439931e-003
9.439924e-003
9.439916e-003
9.439907e-003
9.439897e-003
9.439887e-003
9.439877e-003
9.439867e-003
9.439858e-003
9.439848e-003
9.439840e-003
9.439833e-003
9.439826e-003
9.439822e-003
9.439818e-003
9.439817e-003
9.439817e-003
9.439819e-003
9.439823e-003
9.439829e-003
9.439836e-003
9.439844e-003
9.439854e-003
9.439865e-003
9.439876e-003
9.439887e-003
9.439898e-003
9.439908e-003
9.439918e-003
9.439926e-003
9.439932e-003
9.439937e-003
9.439941e-003
9.439942e-003
9.439943e-003
9.439942e-003
9.439940e-003
9.439938e-003
9.439936e-003
9.439933e-003
9.439931e-003
9.439929e-003
9.439927e-003
9.439925e-003
9.439924e-003
9.439922e-003
9.439921e-003
9.439921e-003
9.439921e-003
9.439920e-003
9.439920e-003
9.439920e-003
9.439920e-003
9.439920e-003
9.439920e-003
9.439920e-003
9.439920e-003
9.439920e-003
9.439920e-003
9.439920e-003
9.439920e-003
9.439920e-003
9.439920e-003
9.439920e-003
9.439925e-003
9.439923e-003
9.439921e-003
9.439919e-003
9.439918e-003
9.439919e-003
9.439920e-003
9.439920e-003
9.439920e-003
9.439920e-003
9.439920e-003
9.439920e-003
9.439920e-003
9.439921e-003
9.439921e-003
9.439922e-003
9.439922e-003
9.439923e-003
9.439925e-003
9.439927e-003
9.439929e-003
9.439932e-003
9.439935e-003
9.439938e-003
9.439941e-003
9.439944e-003
9.439947e-003
9.439948e-003
9.439948e-003
9.439945e-003
9.439940e-003
9.439932e-003
9.439921e-003
9.439907e-003
9.439889e-003
9.439867e-003
9.439843e-003
9.439816e-003
9.439786e-003
9.439755e-003
9.439723e-003
9.439690e-003
9.439657e-003
9.439626e-003
9.439596e-003
9.439568e-003
9.439542e-003
9.439521e-003
9.439503e-003
9.439489e-003
9.439480e-003
9.439477e-003
9.439478e-003
9.439485e-003
9.439497e-003
9.439515e-003
9.439537e-003
9.439564e-003
9.439595e-003
9.439629e-003
9.439665e-003
9.439702e-003
9.439739e-003
9.439775e-003
9.439809e-003
9.439840e-003
9.439867e-003
9.439890e-003
9.439908e-003
9.439922e-003
9.439932e-003
9.439939e-003
9.439942e-003
9.439943e-003
9.439942e-003
9.439939e-003
9.439937e-003
9.439934e-003
9.439931e-003
9.439929e-003
9.439926e-003
9.439925e-003
9.439923e-003
9.439922e-003
9.439921e-003
9.439921e-003
9.439920e-003
9.439920e-003
9.439920e-003
9.439920e-003
9.439920e-003
9.439920e-003
9.439920e-003
9.439920e-003
9.439920e-003
9.439920e-003
9.439920e-003
9.439920e-003
9.439920e-003
9.439920e-003
9.439925e-003
9.439923e-003
9.439920e-003
9.439918e-003
9.439918e-003
9.439920e-003
9.439922e-003
9.439922e-003
9.439921e-003
9.439919e-003
9.439919e-003
9.439920e-003
9.439921e-003
9.439922e-003
9.439922e-003
9.439923e-003
9.439925e-003
9.439927e-003
9.439929e-003
9.439932e-003
9.439935e-003
9.439939e-003
9.439942e-003
9.439946e-003
9.439948e-003
9.439949e-003
9.439946e-003
9.439940e-003
9.439928e-003
9.439910e-003
9.439885e-003
9.439852e-003
9.439811e-003
9.439760e-003
9.439701e-003
9.439634e-003
9.439560e-003
9.439480e-003
9.439394e-003
9.439306e-003
9.439216e-003
9.439125e-003
9.439037e-003
9.438952e-003
9.438871e-003
9.438797e-003
9.438731e-003
9.438675e-003
9.438628e-003
9.438594e-003
9.438572e-003
9.438563e-003
9.438567e-003
9.438586e-003
9.438620e-003
9.438667e-003
9.438727e-003
9.438799e-003
9.438882e-003
9.438974e-003
9.439072e-003
9.439174e-003
9.439278e-003
9.439380e-003
9.439477e-003
9.439568e-003
9.439650e-003
9.439723e-003
9.439784e-003
9.439833e-003
9.439872e-003
9.439901e-003
9.439921e-003
9.439934e-003
9.439940e-003
9.439943e-003
9.439942e-003
9.439940e-003
9.439937e-003
9.439934e-003
9.439931e-003
9.439928e-003
9.439926e-003
9.439924e-003
9.439923e-003
9.439922e-003
9.439921e-003
9.439921e-003
9.439920e-003
9.439920e-003
9.439920e-003
9.439920e-003
9.439920e-003
9.439920e-003
9.439920e-003
9.439920e-003
9.439920e-003
9.439920e-003
9.439920e-003
9.439920e-003
9.439922e-003
9.439921e-003
9.439919e-003
9.439918e-003
9.439919e-003
9.439921e-003
9.439922e-003
9.439922e-003
9.439920e-003
9.439919e-003
9.439919e-003
9.439920e-003
9.439922e-003
9.439923e-003
9.439924e-003
9.439926e-003
9.439928e-003
9.439931e-003
9.439935e-003
9.439940e-003
9.439943e-003
9.439947e-003
9.439949e-003
9.439949e-003
9.439945e-003
9.439934e-003
9.439914e-003
9.439882e-003
9.439837e-003
9.439775e-003
9.439694e-003
9.439594e-003
9.439473e-003
9.439330e-003
9.439169e-003
9.438988e-003
9.438793e-003
9.438584e-003
9.438365e-003
9.438141e-003
9.437915e-003
9.437691e-003
9.437472e-003
9.437264e-003
9.437069e-003
9.436890e-003
9.436731e-003
9.436596e-003
9.436486e-003
9.436404e-003
9.436352e-003
9.436331e-003
9.436344e-003
9.436391e-003
9.436472e-003
9.436587e-003
9.436733e-003
9.436910e-003
9.437112e-003
9.437338e-003
9.437580e-003
9.437835e-003
9.438094e-003
9.438352e-003
9.438602e-003
9.438839e-003
9.439056e-003
9.439250e-003
9.439419e-003
9.439561e-003
9.439676e-003
9.439765e-003
9.439832e-003
9.439879e-003
9.439911e-003
9.439930e-003
9.439939e-003
9.439943e-003
9.439942e-003
9.439940e-003
9.439936e-003
9.439933e-003
9.439930e-003
9.439927e-003
9.439925e-003
9.439923e-003
9.439922e-003
9.439921e-003
9.439921e-003
9.439920e-003
9.439920e-003
9.439920e-003
9.439920e-003
9.439920e-003
9.439920e-003
9.439920e-003
9.439920e-003
9.439920e-003
9.439920e-003
9.439920e-003
9.439919e-003
9.439919e-003
9.439919e-003
9.439919e-003
9.439920e-003
9.439921e-003
9.439921e-003
9.439921e-003
9.439920e-003
9.439920e-003
9.439920e-003
9.439922e-003
9.439924e-003
9.439925e-003
9.439927e-003
9.439929e-003
9.439933e-003
9.439938e-003
9.439943e-003
9.439948e-003
9.439951e-003
9.439950e-003
9.439945e-003
9.439931e-003
9.439904e-003
9.439858e-003
9.439788e-003
9.439689e-003
9.439555e-003
9.439381e-003
9.439163e-003
9.438899e-003
9.438586e-003
9.438228e-003
9.437826e-003
9.437385e-003
9.436912e-003
9.436413e-003
9.435897e-003
9.435371e-003
9.434846e-003
9.434329e-003
9.433830e-003
9.433355e-003
9.432913e-003
9.432511e-003
9.432155e-003
9.431853e-003
9.431608e-003
9.431426e-003
9.431313e-003
9.431270e-003
9.431301e-003
9.431408e-003
9.431590e-003
9.431849e-003
9.432180e-003
9.432579e-003
9.433040e-003
9.433554e-003
9.434110e-003
9.434697e-003
9.435300e-003
9.435905e-003
9.436497e-003
9.437062e-003
9.437588e-003
9.438065e-003
9.438485e-003
9.438845e-003
9.439143e-003
9.439382e-003
9.439567e-003
9.439704e-003
9.439801e-003
9.439867e-003
9.439907e-003
9.439930e-003
9.439940e-003
9.439943e-003
9.439942e-003
9.439939e-003
9.439935e-003
9.439931e-003
9.439928e-003
9.439925e-003
9.439924e-003
9.439922e-003
9.439921e-003
9.439921e-003
9.439920e-003
9.439920e-003
9.439920e-003
9.439920e-003
9.439920e-003
9.439920e-003
9.439920e-003
9.439920e-003
9.439920e-003
9.439920e-003
9.439917e-003
9.439919e-003
9.439920e-003
9.439921e-003
9.439921e-003
9.439920e-003
9.439919e-003
9.439919e-003
9.439920e-003
9.439921e-003
9.439923e-003
9.439924e-003
9.439926e-003
9.439928e-003
9.439931e-003
9.439935e-003
9.439940e-003
9.439946e-003
9.439951e-003
9.439953e-003
9.439948e-003
9.439934e-003
9.439903e-003
9.439847e-003
9.439757e-003
9.439622e-003
9.439428e-003
9.439164e-003
9.438819e-003
9.438383e-003
9.437848e-003
9.437211e-003
9.436471e-003
9.435634e-003
9.434707e-003
9.433704e-003
9.432637e-003
9.431525e-003
9.430384e-003
9.429235e-003
9.428094e-003
9.426981e-003
9.425912e-003
9.424902e-003
9.423968e-003
9.423123e-003
9.422380e-003
9.421749e-003
9.421242e-003
9.420867e-003
9.420634e-003
9.420548e-003
9.420617e-003
9.420843e-003
9.421228e-003
9.421771e-003
9.422467e-003
9.423310e-003
9.424286e-003
9.425381e-003
9.426572e-003
9.427837e-003
9.429147e-003
9.430471e-003
9.431780e-003
9.433042e-003
9.434229e-003
9.435318e-003
9.436290e-003
9.437135e-003
9.437846e-003
9.438427e-003
9.438887e-003
9.439237e-003
9.439493e-003
9.439673e-003
9.439793e-003
9.439868e-003
9.439912e-003
9.439934e-003
9.439942e-003
9.439943e-003
9.439941e-003
9.439936e-003
9.439932e-003
9.439928e-003
9.439926e-003
9.439924e-003
9.439923e-003
9.439922e-003
9.439921e-003
9.439920e-003
9.439920e-003
9.439920e-003
9.439920e-003
9.439920e-003
9.439920e-003
9.439920e-003
9.439920e-003
9.439920e-003
9.439917e-003
9.439919e-003
9.439921e-003
9.439922e-003
9.439921e-003
9.439919e-003
9.439918e-003
9.439919e-003
9.439921e-003
9.439923e-003
9.439925e-003
9.439927e-003
9.439929e-003
9.439933e-003
9.439938e-003
9.439944e-003
9.439950e-003
9.439954e-003
9.439953e-003
9.439942e-003
9.439913e-003
9.439856e-003
9.439757e-003
9.439597e-003
9.439355e-003
9.439007e-003
9.438527e-003
9.437891e-003
9.437075e-003
9.436063e-003
9.434842e-003
9.433409e-003
9.431770e-003
9.429940e-003
9.427941e-003
9.425801e-003
9.423554e-003
9.421236e-003
9.418887e-003
9.416543e-003
9.414240e-003
9.412013e-003
9.409893e-003
9.407909e-003
9.406086e-003
9.404448e-003
9.403017e-003
9.401810e-003
9.400845e-003
9.400137e-003
9.399701e-003
9.399548e-003
9.399688e-003
9.400129e-003
9.400874e-003
9.401924e-003
9.403274e-003
9.404912e-003
9.406820e-003
9.408972e-003
9.411333e-003
9.413860e-003
9.416502e-003
9.419202e-003
9.421900e-003
9.424532e-003
9.427039e-003
9.429368e-003
9.431476e-003
9.433331e-003
9.434918e-003
9.436235e-003
9.437293e-003
9.438115e-003
9.438732e-003
9.439176e-003
9.439483e-003
9.439686e-003
9.439812e-003
9.439885e-003
9.439923e-003
9.439939e-003
9.439944e-003
9.439942e-003
9.439938e-003
9.439933e-003
9.439929e-003
9.439926e-003
9.439924e-003
9.439923e-003
9.439922e-003
9.439921e-003
9.439920e-003
9.439920e-003
9.439920e-003
9.439920e-003
9.439920e-003
9.439920e-003
9.439920e-003
9.439920e-003
9.439916e-003
9.439919e-003
9.439921e-003
9.439922e-003
9.439921e-003
9.439919e-003
9.439919e-003
9.439920e-003
9.439923e-003
9.439925e-003
9.439927e-003
9.439930e-003
9.439933e-003
9.439939e-003
9.439946e-003
9.439953e-003
9.439956e-003
9.439951e-003
9.439931e-003
9.439883e-003
9.439790e-003
9.439628e-003
9.439367e-003
9.438966e-003
9.438382e-003
9.437564e-003
9.436463e-003
9.435031e-003
9.433228e-003
9.431025e-003
9.428410e-003
9.425390e-003
9.421989e-003
9.418249e-003
9.414227e-003
9.409990e-003
9.405611e-003
9.401165e-003
9.396728e-003
9.392368e-003
9.388149e-003
9.384127e-003
9.380353e-003
9.376867e-003
9.373707e-003
9.370901e-003
9.368476e-003
9.366455e-003
9.364857e-003
9.363701e-003
9.363004e-003
9.362781e-003
9.363046e-003
9.363812e-003
9.365089e-003
9.366882e-003
9.369191e-003
9.372008e-003
9.375316e-003
9.379085e-003
9.383271e-003
9.387814e-003
9.392637e-003
9.397647e-003
9.402736e-003
9.407790e-003
9.412689e-003
9.417320e-003
9.421584e-003
9.425402e-003
9.428723e-003
9.431524e-003
9.433812e-003
9.435621e-003
9.437002e-003
9.438018e-003
9.438738e-003
9.439227e-003
9.439543e-003
9.439738e-003
9.439849e-003
9.439908e-003
9.439935e-003
9.439943e-003
9.439943e-003
9.439939e-003
9.439934e-003
9.439930e-003
9.439926e-003
9.439924e-003
9.439923e-003
9.439922e-003
9.439921e-003
9.439920e-003
9.439920e-003
9.439920e-003
9.439920e-003
9.439920e-003
9.439920e-003
9.439920e-003
9.439917e-003
9.439919e-003
9.439920e-003
9.439921e-003
9.439921e-003
9.439920e-003
9.439921e-003
9.439923e-003
9.439925e-003
9.439928e-003
9.439930e-003
9.439934e-003
9.439940e-003
9.439948e-003
9.439955e-003
9.439958e-003
9.439948e-003
9.439916e-003
9.439844e-003
9.439706e-003
9.439463e-003
9.439065e-003
9.438444e-003
9.437524e-003
9.436214e-003
9.434419e-003
9.432046e-003
9.429014e-003
9.425263e-003
9.420765e-003
9.415528e-003
9.409601e-003
9.403070e-003
9.396051e-003
9.388685e-003
9.381120e-003
9.373509e-003
9.365995e-003
9.358707e-003
9.351757e-003
9.345233e-003
9.339203e-003
9.333718e-003
9.328809e-003
9.324493e-003
9.320778e-003
9.317665e-003
9.315149e-003
9.313227e-003
9.311895e-003
9.311153e-003
9.311004e-003
9.311457e-003
9.312526e-003
9.314230e-003
9.316593e-003
9.319642e-003
9.323406e-003
9.327907e-003
9.333160e-003
9.339158e-003
9.345872e-003
9.353236e-003
9.361147e-003
9.369460e-003
9.377993e-003
9.386534e-003
9.394857e-003
9.402741e-003
9.409990e-003
9.416449e-003
9.422021e-003
9.426669e-003
9.430414e-003
9.433326e-003
9.435510e-003
9.437087e-003
9.438181e-003
9.438910e-003
9.439372e-003
9.439651e-003
9.439809e-003
9.439892e-003
9.439929e-003
9.439943e-003
9.439944e-003
9.439940e-003
9.439935e-003
9.439930e-003
9.439926e-003
9.439924e-003
9.439923e-003
9.439922e-003
9.439921e-003
9.439920e-003
9.439920e-003
9.439920e-003
9.439920e-003
9.439920e-003
9.439920e-003
9.439920e-003
9.439919e-003
9.439919e-003
9.439920e-003
9.439920e-003
9.439922e-003
9.439923e-003
9.439925e-003
9.439927e-003
9.439931e-003
9.439935e-003
9.439942e-003
9.439950e-003
9.439957e-003
9.439958e-003
9.439944e-003
9.439901e-003
9.439802e-003
9.439611e-003
9.439270e-003
9.438701e-003
9.437799e-003
9.436434e-003
9.434453e-003
9.431689e-003
9.427974e-003
9.423157e-003
9.417130e-003
9.409843e-003
9.401328e-003
9.391704e-003
9.381173e-003
9.370003e-003
9.358511e-003
9.347028e-003
9.335877e-003
9.325345e-003
9.315666e-003
9.307017e-003
9.299507e-003
9.293186e-003
9.288046e-003
9.284032e-003
9.281050e-003
9.278979e-003
9.277681e-003
9.277012e-003
9.276831e-003
9.277004e-003
9.277417e-003
9.277969e-003
9.278590e-003
9.279236e-003
9.279897e-003
9.280604e-003
9.281430e-003
9.282497e-003
9.283971e-003
9.286057e-003
9.288983e-003
9.292980e-003
9.298257e-003
9.304963e-003
9.313162e-003
9.322802e-003
9.333710e-003
9.345584e-003
9.358024e-003
9.370561e-003
9.382714e-003
9.394043e-003
9.404197e-003
9.412948e-003
9.420197e-003
9.425972e-003
9.430397e-003
9.433656e-003
9.435963e-003
9.437531e-003
9.438552e-003
9.439186e-003
9.439561e-003
9.439769e-003
9.439876e-003
9.439924e-003
9.439942e-003
9.439944e-003
9.439940e-003
9.439935e-003
9.439930e-003
9.439926e-003
9.439924e-003
9.439922e-003
9.439921e-003
9.439921e-003
9.439920e-003
9.439920e-003
9.439920e-003
9.439920e-003
9.439920e-003
9.439923e-003
9.439921e-003
9.439920e-003
9.439919e-003
9.439920e-003
9.439923e-003
9.439925e-003
9.439928e-003
9.439931e-003
9.439936e-003
9.439943e-003
9.439951e-003
9.439959e-003
9.439959e-003
9.439941e-003
9.439886e-003
9.439762e-003
9.439515e-003
9.439067e-003
9.438304e-003
9.437068e-003
9.435157e-003
9.432326e-003
9.428299e-003
9.422795e-003
9.415560e-003
9.406419e-003
9.395329e-003
9.382420e-003
9.368021e-003
9.352663e-003
9.337035e-003
9.321928e-003
9.308155e-003
9.296470e-003
9.287499e-003
9.281693e-003
9.279303e-003
9.280383e-003
9.284798e-003
9.292253e-003
9.302319e-003
9.314463e-003
9.328080e-003
9.342523e-003
9.357133e-003
9.371265e-003
9.384308e-003
9.395699e-003
9.404938e-003
9.411595e-003
9.415327e-003
9.415887e-003
9.413149e-003
9.407129e-003
9.398010e-003
9.386165e-003
9.372169e-003
9.356798e-003
9.341002e-003
9.325856e-003
9.312480e-003
9.301942e-003
9.295144e-003
9.292713e-003
9.294921e-003
9.301626e-003
9.312279e-003
9.325988e-003
9.341631e-003
9.358011e-003
9.374012e-003
9.388730e-003
9.401554e-003
9.412181e-003
9.420581e-003
9.426931e-003
9.431528e-003
9.434717e-003
9.436837e-003
9.438186e-003
9.439006e-003
9.439478e-003
9.439735e-003
9.439863e-003
9.439921e-003
9.439941e-003
9.439944e-003
9.439940e-003
9.439935e-003
9.439930e-003
9.439926e-003
9.439924e-003
9.439922e-003
9.439921e-003
9.439921e-003
9.439920e-003
9.439920e-003
9.439920e-003
9.439920e-003
9.439926e-003
9.439923e-003
9.439920e-003
9.439919e-003
9.439921e-003
9.439924e-003
9.439928e-003
9.439931e-003
9.439935e-003
9.439943e-003
9.439952e-003
9.439960e-003
9.439961e-003
9.439940e-003
9.439877e-003
9.439730e-003
9.439432e-003
9.438879e-003
9.437914e-003
9.436314e-003
9.433784e-003
9.429956e-003
9.424402e-003
9.416677e-003
9.406394e-003
9.393320e-003
9.377500e-003
9.359378e-003
9.339880e-003
9.320424e-003
9.302847e-003
9.289241e-003
9.281739e-003
9.282276e-003
9.292378e-003
9.313022e-003
9.344560e-003
9.386729e-003
9.438712e-003
9.499233e-003
9.566656e-003
9.639081e-003
9.714440e-003
9.790571e-003
9.865298e-003
9.936495e-003
1.000214e-002
1.006035e-002
1.010942e-002
1.014781e-002
1.017420e-002
1.018748e-002
1.018681e-002
1.017167e-002
1.014193e-002
1.009793e-002
1.004058e-002
9.971442e-003
9.892743e-003
9.807365e-003
9.718749e-003
9.630717e-003
9.547209e-003
9.471969e-003
9.408195e-003
9.358211e-003
9.323198e-003
9.303063e-003
9.296473e-003
9.301070e-003
9.313849e-003
9.331614e-003
9.351413e-003
9.370870e-003
9.388358e-003
9.402998e-003
9.414536e-003
9.423158e-003
9.429293e-003
9.433464e-003
9.436174e-003
9.437858e-003
9.438855e-003
9.439416e-003
9.439712e-003
9.439857e-003
9.439919e-003
9.439941e-003
9.439944e-003
9.439940e-003
9.439934e-003
9.439929e-003
9.439926e-003
9.439923e-003
9.439922e-003
9.439921e-003
9.439920e-003
9.439920e-003
9.439920e-003
9.439920e-003
9.439926e-003
9.439923e-003
9.439921e-003
9.439921e-003
9.439923e-003
9.439927e-003
9.439931e-003
9.439935e-003
9.439942e-003
9.439951e-003
9.439961e-003
9.439962e-003
9.439942e-003
9.439874e-003
9.439712e-003
9.439375e-003
9.438732e-003
9.437580e-003
9.435624e-003
9.432456e-003
9.427552e-003
9.420288e-003
9.410011e-003
9.396167e-003
9.378512e-003
9.357393e-003
9.334050e-003
9.310866e-003
9.291472e-003
9.280613e-003
9.283774e-003
9.306592e-003
9.354192e-003
9.430565e-003
9.538105e-003
9.677389e-003
9.847188e-003
1.004467e-002
1.026574e-002
1.050536e-002
1.075790e-002
1.101741e-002
1.127780e-002
1.153307e-002
1.177740e-002
1.200527e-002
1.221160e-002
1.239171e-002
1.254138e-002
1.265685e-002
1.273480e-002
1.277240e-002
1.276736e-002
1.271805e-002
1.262374e-002
1.248479e-002
1.230293e-002
1.208153e-002
1.182575e-002
1.154268e-002
1.124119e-002
1.093162e-002
1.062528e-002
1.033368e-002
1.006759e-002
9.836098e-003
9.645633e-003
9.499288e-003
9.396516e-003
9.333358e-003
9.303194e-003
9.297879e-003
9.309019e-003
9.329092e-003
9.352199e-003
9.374349e-003
9.393333e-003
9.408327e-003
9.419421e-003
9.427182e-003
9.432347e-003
9.435625e-003
9.437611e-003
9.438756e-003
9.439383e-003
9.439705e-003
9.439857e-003
9.439921e-003
9.439942e-003
9.439944e-003
9.439939e-003
9.439933e-003
9.439928e-003
9.439925e-003
9.439923e-003
9.439922e-003
9.439921e-003
9.439920e-003
9.439920e-003
9.439920e-003
9.439923e-003
9.439922e-003
9.439921e-003
9.439923e-003
9.439926e-003
9.439930e-003
9.439936e-003
9.439942e-003
9.439951e-003
9.439960e-003
9.439963e-003
9.439946e-003
9.439879e-003
9.439712e-003
9.439353e-003
9.438649e-003
9.437352e-003
9.435090e-003
9.431333e-003
9.425378e-003
9.416365e-003
9.403383e-003
9.385694e-003
9.363141e-003
9.336741e-003
9.309414e-003
9.286678e-003
9.277064e-003
9.292008e-003
9.345060e-003
9.450472e-003
9.621421e-003
9.868249e-003
1.019709e-002
1.060916e-002
1.110070e-002
1.166361e-002
1.228638e-002
1.295529e-002
1.365538e-002
1.437131e-002
1.508798e-002
1.579086e-002
1.646627e-002
1.710155e-002
1.768513e-002
1.820660e-002
1.865660e-002
1.902681e-002
1.930975e-002
1.949870e-002
1.958770e-002
1.957161e-002
1.944637e-002
1.920932e-002
1.885985e-002
1.839995e-002
1.783499e-002
1.717430e-002
1.643175e-002
1.562583e-002
1.477949e-002
1.391931e-002
1.307418e-002
1.227335e-002
1.154397e-002
1.090850e-002
1.038219e-002
9.971356e-003
9.672882e-003
9.475166e-003
9.360450e-003
9.307982e-003
9.297262e-003
9.310633e-003
9.334746e-003
9.360835e-003
9.384091e-003
9.402581e-003
9.416134e-003
9.425451e-003
9.431514e-003
9.435268e-003
9.437483e-003
9.438726e-003
9.439386e-003