# vtk DataFile Version 3.0
vtk output
ASCII
DATASET STRUCTURED_POINTS
DIMENSIONS 100 100 1
SPACING 1 1 1
ORIGIN 0 0 0
POINT_DATA 10000
SCALARS SFBox_profile double
LOOKUP_TABLE default 
0.000000e+000
0.000000e+000
0.000000e+000
0.000000e+000
0.000000e+000
0.000000e+000
0.000000e+000
0.000000e+000
0.000000e+000
0.000000e+000
0.000000e+000
0.000000e+000
0.000000e+000
0.000000e+000
0.000000e+000
0.000000e+000
0.000000e+000
0.000000e+000
0.000000e+000
0.000000e+000
0.000000e+000
0.000000e+000
0.000000e+000
0.000000e+000
0.000000e+000
0.000000e+000
0.000000e+000
0.000000e+000
0.000000e+000
0.000000e+000
0.000000e+000
0.000000e+000
0.000000e+000
0.000000e+000
0.000000e+000
0.000000e+000
0.000000e+000
0.000000e+000
0.000000e+000
0.000000e+000
0.000000e+000
0.000000e+000
0.000000e+000
0.000000e+000
0.000000e+000
0.000000e+000
0.000000e+000
0.000000e+000
0.000000e+000
0.000000e+000
0.000000e+000
0.000000e+000
0.000000e+000
0.000000e+000
0.000000e+000
0.000000e+000
0.000000e+000
0.000000e+000
0.000000e+000
0.000000e+000
0.000000e+000
0.000000e+000
0.000000e+000
0.000000e+000
0.000000e+000
0.000000e+000
0.000000e+000
0.000000e+000
0.000000e+000
0.000000e+000
0.000000e+000
0.000000e+000
0.000000e+000
0.000000e+000
0.000000e+000
0.000000e+000
0.000000e+000
0.000000e+000
0.000000e+000
0.000000e+000
0.000000e+000
0.000000e+000
0.000000e+000
0.000000e+000
0.000000e+000
0.000000e+000
0.000000e+000
0.000000e+000
0.000000e+000
0.000000e+000
0.000000e+000
0.000000e+000
0.000000e+000
0.000000e+000
0.000000e+000
0.000000e+000
0.000000e+000
0.000000e+000
0.000000e+000
0.000000e+000
-1.330197e-007
-8.888756e-008
-2.322484e-008
3.193280e-008
5.341185e-008
3.904155e-008
6.245663e-009
-2.129733e-008
-2.919019e-008
-1.923173e-008
-3.970281e-009
5.188655e-009
6.125081e-009
4.626053e-009
6.479418e-009
1.119232e-008
1.289113e-008
6.750036e-009
-5.602555e-009
-1.675529e-008
-1.947021e-008
-1.250354e-008
-1.306050e-009
6.734521e-009
8.213286e-009
5.726414e-009
4.506758e-009
7.004141e-009
1.054603e-008
1.026769e-008
4.356904e-009
-3.748225e-009
-8.595883e-009
-8.143442e-009
-5.657586e-009
-5.989101e-009
-1.019856e-008
-1.442280e-008
-1.426278e-008
-9.790195e-009
-5.510224e-009
-5.313290e-009
-8.185433e-009
-9.585065e-009
-6.842359e-009
-2.280005e-009
-4.483062e-010
-2.776032e-009
-5.944212e-009
-5.861410e-009
-2.505482e-009
8.412477e-011
-1.392074e-009
-5.606658e-009
-8.203110e-009
-6.935073e-009
-4.255804e-009
-4.334629e-009
-8.055062e-009
-1.187482e-008
-1.185382e-008
-8.132692e-009
-4.687989e-009
-4.708312e-009
-6.947328e-009
-7.195906e-009
-3.130451e-009
2.970149e-009
6.633068e-009
5.952963e-009
3.421410e-009
2.912067e-009
5.242707e-009
7.179511e-009
4.932652e-009
-1.598928e-009
-8.281140e-009
-1.044230e-008
-7.073093e-009
-1.444784e-009
2.236994e-009
2.668218e-009
2.046944e-009
3.090127e-009
5.668436e-009
6.565500e-009
2.747382e-009
-4.973841e-009
-1.156885e-008
-1.149317e-008
-3.496306e-009
7.645098e-009
1.423088e-008
1.134044e-008
6.957007e-010
-1.037392e-008
-1.414659e-008
-8.039207e-009
3.571728e-009
1.248922e-008
-2.868561e-008
-1.820841e-008
-3.022824e-009
8.713317e-009
1.136893e-008
5.301944e-009
-3.601488e-009
-8.273365e-009
-5.630473e-009
1.438552e-009
6.839357e-009
6.400053e-009
1.017490e-009
-4.627025e-009
-6.282905e-009
-3.442892e-009
8.629736e-010
3.112389e-009
2.243854e-009
1.058321e-010
-6.198110e-010
1.005315e-009
3.325750e-009
3.642592e-009
8.036440e-010
-3.493835e-009
-6.023361e-009
-4.946775e-009
-1.594803e-009
7.999076e-010
3.584840e-010
-1.499889e-009
-1.610365e-009
1.391259e-009
5.385358e-009
6.955400e-009
5.145630e-009
2.557156e-009
2.430419e-009
4.965248e-009
7.118338e-009
6.164033e-009
2.903981e-009
7.637582e-010
1.814941e-009
4.392456e-009
5.109591e-009
2.876549e-009
1.652090e-010
4.850952e-011
2.560467e-009
4.696326e-009
4.011203e-009
1.509668e-009
4.121948e-010
2.309405e-009
5.278727e-009
6.152173e-009
4.206359e-009
1.932754e-009
2.049835e-009
4.312854e-009
5.822200e-009
4.392520e-009
1.042237e-009
-1.206287e-009
-7.391209e-010
9.411641e-010
1.056915e-009
-1.242966e-009
-3.915527e-009
-4.264219e-009
-1.830989e-009
1.173837e-009
2.220599e-009
9.768390e-010
-6.009705e-010
-5.052407e-010
1.210172e-009
2.574959e-009
1.817068e-009
-7.682282e-010
-3.025117e-009
-2.947902e-009
-5.423445e-010
2.169028e-009
2.934119e-009
1.204801e-009
-1.459500e-009
-2.782268e-009
-1.688381e-009
8.678398e-010
2.768998e-009
2.479580e-009
2.239479e-010
-2.268834e-009
-3.135375e-009
-1.751088e-009
8.784530e-010
2.891809e-009
9.613963e-008
6.550302e-008
1.955395e-008
-2.017961e-008
-3.808208e-008
-3.184091e-008
-1.120739e-008
9.758840e-009
2.108853e-008
2.079411e-008
1.305806e-008
3.472256e-009
-4.642714e-009
-1.062239e-008
-1.443781e-008
-1.500769e-008
-1.077280e-008
-1.879677e-009
8.541528e-009
1.578100e-008
1.671830e-008
1.191772e-008
4.733841e-009
-1.587662e-009
-5.979306e-009
-9.089757e-009
-1.137393e-008
-1.214280e-008
-1.050209e-008
-6.744771e-009
-2.339597e-009
1.462910e-009
4.645381e-009
7.850318e-009
1.107195e-008
1.337422e-008
1.400906e-008
1.344378e-008
1.288834e-008
1.285642e-008
1.259368e-008
1.115241e-008
8.784590e-009
6.858702e-009
6.326618e-009
6.613048e-009
6.329279e-009
4.972952e-009
3.545446e-009
3.337956e-009
4.379073e-009
5.434409e-009
5.530990e-009
5.126084e-009
5.512133e-009
7.217414e-009
9.347083e-009
1.061027e-008
1.073465e-008
1.057906e-008
1.090609e-008
1.137566e-008
1.095033e-008
9.131220e-009
6.493052e-009
3.945779e-009
1.724895e-009
-6.459564e-010
-3.462294e-009
-6.193079e-009
-7.869038e-009
-7.969435e-009
-6.716029e-009
-4.531462e-009
-1.515304e-009
2.282551e-009
6.140406e-009
8.563666e-009
8.224746e-009
5.097277e-009
5.891019e-010
-3.491921e-009
-6.072835e-009
-6.968168e-009
-6.169673e-009
-3.406158e-009
1.265028e-009
6.444801e-009
9.382086e-009
7.617845e-009
1.212544e-009
-6.472345e-009
-1.057079e-008
-8.092212e-009
-3.585908e-010
7.561162e-009
1.026399e-008
5.874512e-009
-2.516477e-009
-8.985153e-009
1.429837e-007
9.510365e-008
2.449952e-008
-3.383770e-008
-5.562249e-008
-3.979691e-008
-5.678240e-009
2.199939e-008
2.905602e-008
1.813408e-008
2.481558e-009
-6.250828e-009
-6.123791e-009
-3.402030e-009
-4.404348e-009
-8.902618e-009
-1.094356e-008
-5.596265e-009
5.369428e-009
1.448742e-008
1.521407e-008
7.693914e-009
-1.742914e-009
-6.534564e-009
-5.366892e-009
-2.188817e-009
-1.445602e-009
-3.695654e-009
-5.764009e-009
-4.615801e-009
-5.685375e-010
3.293982e-009
4.417673e-009
3.121966e-009
1.790582e-009
2.178756e-009
3.796372e-009
4.795247e-009
4.068729e-009
2.276638e-009
9.505062e-010
8.749690e-010
1.462644e-009
1.585656e-009
8.189225e-010
-2.046727e-010
-5.736664e-010
-9.644548e-011
5.309258e-010
5.145046e-010
-1.604316e-010
-7.089467e-010
-4.127338e-010
5.618430e-010
1.316519e-009
1.228392e-009
7.070709e-010
7.890992e-010
1.931606e-009
3.355116e-009
3.786823e-009
2.884820e-009
1.724796e-009
1.658628e-009
2.715675e-009
3.396489e-009
2.262336e-009
-3.573998e-010
-2.531338e-009
-2.754015e-009
-1.640258e-009
-1.273613e-009
-2.747273e-009
-4.597453e-009
-4.070752e-009
-1.178981e-010
5.051016e-009
7.702516e-009
6.023380e-009
1.781057e-009
-1.536534e-009
-2.187365e-009
-1.630906e-009
-2.451023e-009
-4.975573e-009
-6.314450e-009
-3.149365e-009
4.307262e-009
1.126266e-008
1.176209e-008
3.911654e-009
-7.717685e-009
-1.495095e-008
-1.214539e-008
-7.584979e-010
1.137126e-008
1.562619e-008
8.912928e-009
-4.032365e-009
-1.402788e-008
7.865128e-008
4.932197e-008
7.507795e-009
-2.382019e-008
-3.000628e-008
-1.334886e-008
9.805083e-009
2.133322e-008
1.410441e-008
-4.035078e-009
-1.767827e-008
-1.645985e-008
-2.688413e-009
1.177474e-008
1.606318e-008
8.921423e-009
-1.708177e-009
-6.871078e-009
-4.541309e-009
-1.982039e-010
-2.825629e-010
-5.414562e-009
-9.960340e-009
-7.966488e-009
7.125142e-010
1.012411e-008
1.379244e-008
1.048822e-008
4.673618e-009
1.617180e-009
2.334559e-009
3.274574e-009
6.145626e-010
-5.534529e-009
-1.127436e-008
-1.298321e-008
-1.089571e-008
-8.545842e-009
-8.884400e-009
-1.129111e-008
-1.255671e-008
-1.058188e-008
-6.701899e-009
-4.178126e-009
-4.632851e-009
-6.398714e-009
-6.547209e-009
-4.245965e-009
-1.657835e-009
-1.417493e-009
-3.604535e-009
-5.680797e-009
-5.451674e-009
-3.631343e-009
-3.030454e-009
-5.266584e-009
-8.781433e-009
-1.049441e-008
-9.251223e-009
-7.114179e-009
-6.956915e-009
-9.061354e-009
-1.062776e-008
-8.853557e-009
-4.159796e-009
1.136205e-010
1.297573e-009
2.905119e-010
4.684667e-010
3.724602e-009
8.014776e-009
9.238710e-009
5.566086e-009
-4.249465e-010
-4.167324e-009
-3.595492e-009
-9.908647e-010
-2.625190e-010
-2.581591e-009
-5.033633e-009
-3.775302e-009
1.570405e-009
6.920506e-009
7.369415e-009
1.987751e-009
-4.940160e-009
-7.566939e-009
-3.687252e-009
3.277966e-009
7.277085e-009
4.860519e-009
-1.941810e-009
-7.437135e-009
-7.035850e-009
-9.232759e-010
6.212471e-009
8.921140e-009
5.126506e-009
-2.427584e-009
-8.293270e-009
-4.095638e-008
-3.147938e-008
-1.577657e-008
1.283841e-009
1.502401e-008
2.180381e-008
1.938086e-008
7.919337e-009
-8.591948e-009
-2.252898e-008
-2.601203e-008
-1.608575e-008
2.342511e-009
1.897287e-008
2.485078e-008
1.829315e-008
5.264088e-009
-5.905579e-009
-1.077532e-008
-1.080901e-008
-1.005919e-008
-1.029496e-008
-9.407868e-009
-4.369293e-009
4.591762e-009
1.308565e-008
1.607565e-008
1.242754e-008
5.940887e-009
1.727784e-009
1.465945e-009
2.240798e-009
7.972837e-011
-5.538691e-009
-1.094875e-008
-1.212131e-008
-8.954891e-009
-5.380132e-009
-5.121676e-009
-7.728062e-009
-9.242535e-009
-6.773136e-009
-1.847834e-009
1.233629e-009
2.004068e-010
-2.686852e-009
-3.285430e-009
-3.325204e-010
3.150006e-009
3.403569e-009
2.993385e-010
-2.548907e-009
-2.038113e-009
7.790898e-010
1.915421e-009
-8.856086e-010
-5.472167e-009
-7.704549e-009
-6.159030e-009
-3.671061e-009
-3.956611e-009
-7.233137e-009
-9.881190e-009
-8.518494e-009
-3.821058e-009
2.388825e-010
8.353147e-010
-6.240037e-010
-2.163595e-010
3.921973e-009
9.251922e-009
1.127904e-008
8.106752e-009
2.230584e-009
-2.178398e-009
-3.414866e-009
-3.391204e-009
-4.795640e-009
-7.551775e-009
-8.498206e-009
-4.686576e-009
3.120113e-009
1.036426e-008
1.221679e-008
7.452366e-009
-7.254009e-010
-7.333826e-009
-9.167003e-009
-6.385431e-009
-1.464386e-009
2.924431e-009
5.226798e-009
5.046973e-009
2.738711e-009
-7.034723e-010
-3.657359e-009
-4.444212e-009
-2.453849e-009
1.120233e-009
3.868759e-009
-1.209259e-007
-8.153720e-008
-2.367375e-008
2.429069e-008
4.360287e-008
3.406644e-008
1.009015e-008
-1.120075e-008
-2.027809e-008
-1.768069e-008
-9.468180e-009
-1.185779e-009
4.881359e-009
8.600317e-009
9.828656e-009
7.918516e-009
3.013723e-009
-2.880634e-009
-6.741771e-009
-6.759398e-009
-3.764480e-009
-3.441942e-010
1.516579e-009
1.882306e-009
2.014772e-009
2.384571e-009
1.988589e-009
-1.404920e-010
-3.077848e-009
-4.316262e-009
-2.307681e-009
1.570264e-009
4.172463e-009
3.932728e-009
2.664554e-009
3.522287e-009
7.224582e-009
1.092364e-008
1.128089e-008
8.367450e-009
5.779728e-009
6.607252e-009
9.832849e-009
1.145306e-008
9.158508e-009
5.133128e-009
3.608487e-009
5.961961e-009
9.115918e-009
9.160062e-009
5.950539e-009
3.265298e-009
4.343781e-009
8.084512e-009
1.035948e-008
8.839520e-009
5.630458e-009
4.687629e-009
7.139439e-009
1.000735e-008
9.710490e-009
6.162574e-009
2.734580e-009
2.291383e-009
3.995620e-009
4.481279e-009
1.859676e-009
-2.101184e-009
-3.971617e-009
-2.382699e-009
7.063036e-010
2.352047e-009
1.699692e-009
4.036758e-010
2.786356e-010
1.118846e-009
1.123469e-009
-7.810423e-010
-3.484210e-009
-4.679246e-009
-3.089784e-009
4.466932e-010
3.915232e-009
5.760234e-009
5.512569e-009
3.265118e-009
-7.273036e-010
-5.508926e-009
-8.800061e-009
-7.816980e-009
-1.635941e-009
6.920360e-009
1.224151e-008
9.833721e-009
2.998890e-010
-1.020919e-008
-1.409754e-008
-8.118207e-009
3.779815e-009
1.309944e-008
-1.058539e-007
-6.528542e-008
-8.689016e-009
3.178937e-008
3.776887e-008
1.508711e-008
-1.328681e-008
-2.531795e-008
-1.496162e-008
6.246133e-009
2.053224e-008
1.809275e-008
3.121249e-009
-1.176880e-008
-1.665458e-008
-1.124238e-008
-2.665519e-009
2.398336e-009
3.344225e-009
4.225972e-009
7.858091e-009
1.211141e-008
1.216490e-008
5.910384e-009
-3.488852e-009
-1.051001e-008
-1.228700e-008
-1.038695e-008
-7.967001e-009
-6.064635e-009
-3.237953e-009
1.609958e-009
7.153863e-009
1.096009e-008
1.235838e-008
1.307258e-008
1.476704e-008
1.670643e-008
1.664328e-008
1.388684e-008
1.057669e-008
9.335271e-009
1.010502e-008
1.019513e-008
7.657068e-009
3.873886e-009
2.066888e-009
3.430860e-009
5.623457e-009
5.534691e-009
3.026683e-009
1.113018e-009
2.365513e-009
5.895373e-009
8.495193e-009
8.456148e-009
7.425545e-009
8.185944e-009
1.118975e-008
1.402518e-008
1.428156e-008
1.222459e-008
1.015531e-008
9.476916e-009
9.128474e-009
7.124262e-009
3.096272e-009
-1.269759e-009
-4.203144e-009
-5.597492e-009
-6.452026e-009
-6.996460e-009
-6.118699e-009
-2.914525e-009
1.652429e-009
5.229333e-009
6.283375e-009
5.421788e-009
4.233973e-009
3.126368e-009
9.446647e-010
-2.968437e-009
-6.783493e-009
-7.093227e-009
-2.381699e-009
4.518798e-009
8.082437e-009
4.917476e-009
-2.694066e-009
-8.236924e-009
-6.517293e-009
1.540354e-009
9.292780e-009
9.862349e-009
2.069721e-009
-8.284624e-009
-1.295679e-008
-7.911888e-009
3.328827e-009
1.234367e-008
-1.930220e-008
-3.760765e-009
1.476022e-008
2.083077e-008
8.292700e-009
-1.438289e-008
-2.989161e-008
-2.507305e-008
-1.372563e-009
2.546963e-008
3.675873e-008
2.475798e-008
-1.693709e-009
-2.434808e-008
-2.960596e-008
-1.790767e-008
-1.116557e-009
8.837211e-009
9.378341e-009
6.741031e-009
7.416013e-009
1.100279e-008
1.153865e-008
5.050757e-009
-5.302068e-009
-1.203084e-008
-1.075931e-008
-4.192716e-009
1.306081e-009
2.309087e-009
8.959197e-010
1.091643e-009
3.915409e-009
6.664124e-009
6.568743e-009
3.994976e-009
1.550462e-009
7.366228e-010
4.739551e-010
-9.944441e-010
-3.642718e-009
-5.826171e-009
-6.575858e-009
-6.819374e-009
-7.969328e-009
-9.902729e-009
-1.108752e-008
-1.066025e-008
-9.644278e-009
-9.665833e-009
-1.085120e-008
-1.165411e-008
-1.081442e-008
-8.891019e-009
-7.437595e-009
-6.989470e-009
-6.503313e-009
-4.883431e-009
-2.483240e-009
-6.049181e-010
2.415298e-010
9.200887e-010
2.316393e-009
3.939841e-009
4.461727e-009
3.528472e-009
2.350669e-009
2.098274e-009
2.138393e-009
6.325599e-010
-2.914053e-009
-6.293186e-009
-6.470537e-009
-2.861112e-009
1.813140e-009
4.320033e-009
4.298189e-009
4.253545e-009
6.022609e-009
7.817359e-009
5.639055e-009
-1.988685e-009
-1.106634e-008
-1.465563e-008
-9.017607e-009
2.498029e-009
1.176908e-008
1.249589e-008
5.153033e-009
-3.931604e-009
-8.139885e-009
-5.650311e-009
4.062378e-011
3.852006e-009
3.360028e-009
9.166344e-011
-2.537491e-009
-2.332665e-009
1.328816e-010
2.407816e-009
6.553609e-008
4.922105e-008
2.347861e-008
-2.025451e-009
-1.967484e-008
-2.608615e-008
-2.143289e-008
-8.314044e-009
8.212044e-009
2.075727e-008
2.231819e-008
1.119799e-008
-6.095749e-009
-1.813498e-008
-1.691363e-008
-4.459069e-009
8.720127e-009
1.261582e-008
6.089733e-009
-3.159917e-009
-6.691140e-009
-3.196168e-009
1.563609e-009
1.993584e-009
-1.109529e-009
-1.968552e-009
3.118004e-009
1.115726e-008
1.535034e-008
1.209452e-008
4.358828e-009
-1.932620e-009
-4.096552e-009
-4.673795e-009
-7.640583e-009
-1.369193e-008
-1.982360e-008
-2.303733e-008
-2.350337e-008
-2.382151e-008
-2.585075e-008
-2.898322e-008
-3.141284e-008
-3.234859e-008
-3.255903e-008
-3.311729e-008
-3.422577e-008
-3.533995e-008
-3.596371e-008
-3.599283e-008
-3.551864e-008
-3.471543e-008
-3.391646e-008
-3.340285e-008
-3.292104e-008
-3.171022e-008
-2.937538e-008
-2.661637e-008
-2.461012e-008
-2.348549e-008
-2.182448e-008
-1.818097e-008
-1.301348e-008
-8.507431e-009
-6.118622e-009
-4.674851e-009
-1.610130e-009
3.758496e-009
8.773557e-009
9.893648e-009
6.580042e-009
2.145232e-009
3.455141e-010
1.428801e-009
2.168278e-009
-5.082945e-011
-3.752027e-009
-4.650868e-009
-5.320264e-010
5.641169e-009
8.051701e-009
3.665228e-009
-4.538090e-009
-1.003053e-008
-8.458368e-009
-1.156934e-009
6.466145e-009
9.570078e-009
7.115430e-009
1.466723e-009
-4.132756e-009
-7.419107e-009
-7.321576e-009
-3.711396e-009
2.210520e-009
7.547607e-009
8.822944e-009
4.533453e-009
-3.023120e-009
-8.839195e-009
9.164895e-008
5.632815e-008
8.032535e-009
-2.516536e-008
-2.916128e-008
-1.124244e-008
9.056512e-009
1.628881e-008
8.855953e-009
-3.912759e-009
-1.194484e-008
-1.175898e-008
-5.979429e-009
1.561178e-009
8.759149e-009
1.412690e-008
1.506454e-008
9.217061e-009
-2.125973e-009
-1.315686e-008
-1.745946e-008
-1.333722e-008
-4.993192e-009
1.839152e-009
5.199249e-009
7.544093e-009
1.143302e-008
1.551184e-008
1.553118e-008
9.189901e-009
-8.646670e-010
-9.415286e-009
-1.381734e-008
-1.624201e-008
-2.076192e-008
-2.876301e-008
-3.770938e-008
-4.422706e-008
-4.775002e-008
-5.080121e-008
-5.602587e-008
-6.347390e-008
-7.085809e-008
-7.606576e-008
-7.909034e-008
-8.162992e-008
-8.512983e-008
-8.931386e-008
-9.245065e-008
-9.294203e-008
-9.077374e-008
-8.754336e-008
-8.496786e-008
-8.317847e-008
-8.052812e-008
-7.533519e-008
-6.790048e-008
-6.051086e-008
-5.512040e-008
-5.113210e-008
-4.595103e-008
-3.798941e-008
-2.878291e-008
-2.156630e-008
-1.766516e-008
-1.482860e-008
-9.659281e-009
-1.585597e-009
6.155782e-009
9.789397e-009
8.910840e-009
6.630474e-009
5.843373e-009
5.965630e-009
3.920575e-009
-1.749709e-009
-8.373141e-009
-1.118311e-008
-7.809321e-009
-5.334367e-010
5.827988e-009
7.962526e-009
6.024775e-009
2.290239e-009
-1.222547e-009
-3.548158e-009
-4.024962e-009
-2.035558e-009
1.843196e-009
4.949224e-009
4.031623e-009
-1.438376e-009
-7.549696e-009
-8.510347e-009
-1.967111e-009
7.874238e-009
1.297081e-008
8.276239e-009
-3.356453e-009
-1.300002e-008
5.918865e-008
2.508968e-008
-1.716270e-008
-3.652115e-008
-2.123983e-008
1.302377e-008
3.721835e-008
3.249067e-008
3.814083e-009
-2.629102e-008
-3.684178e-008
-2.363407e-008
7.159021e-010
1.928630e-008
2.360437e-008
1.665219e-008
6.476823e-009
-1.469823e-009
-6.433502e-009
-9.299181e-009
-9.653974e-009
-6.425346e-009
-3.802192e-010
5.366849e-009
7.800835e-009
6.520837e-009
3.385171e-009
-8.869329e-011
-4.321900e-009
-1.049078e-008
-1.835276e-008
-2.606264e-008
-3.236845e-008
-3.848911e-008
-4.722131e-008
-6.009885e-008
-7.577838e-008
-9.147102e-008
-1.058127e-007
-1.200207e-007
-1.361622e-007
-1.545126e-007
-1.728503e-007
-1.883737e-007
-2.001850e-007
-2.097866e-007
-2.191278e-007
-2.282208e-007
-2.347795e-007
-2.363150e-007
-2.326016e-007
-2.259350e-007
-2.187850e-007
-2.112294e-007
-2.009733e-007
-1.860926e-007
-1.675821e-007
-1.487953e-007
-1.322280e-007
-1.171923e-007
-1.010856e-007
-8.290768e-008
-6.499134e-008
-5.084873e-008
-4.150363e-008
-3.448630e-008
-2.663197e-008
-1.745736e-008
-9.310962e-009
-4.334071e-009
-1.937765e-009
2.947517e-010
3.534786e-009
6.217808e-009
5.866826e-009
2.023714e-009
-3.047393e-009
-6.427755e-009
-6.803484e-009
-4.588320e-009
-5.466359e-010
4.712891e-009
9.667956e-009
1.128315e-008
6.922445e-009
-2.379141e-009
-1.103725e-008
-1.258918e-008
-5.356108e-009
5.298062e-009
1.095055e-008
7.286683e-009
-2.035485e-009
-8.591557e-009
-6.726944e-009
1.434912e-009
8.101324e-009
7.055407e-009
-6.642502e-010
-7.843141e-009
9.638341e-009
-8.162647e-009
-2.719141e-008
-2.848547e-008
-7.207786e-009
2.240853e-008
3.806184e-008
2.741652e-008
-1.735288e-009
-2.764175e-008
-3.193716e-008
-1.373607e-008
1.094869e-008
2.322898e-008
1.635514e-008
-7.358545e-010
-1.300872e-008
-1.231227e-008
-2.287340e-009
7.544540e-009
1.117028e-008
9.776396e-009
7.691564e-009
6.443695e-009
3.498628e-009
-3.911285e-009
-1.504734e-008
-2.633595e-008
-3.528808e-008
-4.302157e-008
-5.285456e-008
-6.706777e-008
-8.557083e-008
-1.074291e-007
-1.327881e-007
-1.626993e-007
-1.972993e-007
-2.348700e-007
-2.730843e-007
-3.109384e-007
-3.489885e-007
-3.875685e-007
-4.251402e-007
-4.588593e-007
-4.868603e-007
-5.096686e-007
-5.290067e-007
-5.452148e-007
-5.562134e-007
-5.593256e-007
-5.540249e-007
-5.424774e-007
-5.271445e-007
-5.081065e-007
-4.832201e-007
-4.510314e-007
-4.131355e-007
-3.732246e-007
-3.338821e-007
-2.948157e-007
-2.545272e-007
-2.133575e-007
-1.742592e-007
-1.404106e-007
-1.125381e-007
-8.902439e-008
-6.840320e-008
-5.102372e-008
-3.793867e-008
-2.869352e-008
-2.105274e-008
-1.312654e-008
-5.222731e-009
9.096290e-010
4.408970e-009
6.151204e-009
7.079571e-009
6.459546e-009
2.848935e-009
-2.971558e-009
-6.955592e-009
-4.923836e-009
2.749744e-009
1.011570e-008
1.031844e-008
2.013884e-009
-8.747991e-009
-1.339310e-008
-8.165099e-009
2.739015e-009
1.092035e-008
1.078663e-008
3.605389e-009
-4.437301e-009
-7.761675e-009
-5.451926e-009
-8.363390e-010
2.194860e-009
2.440392e-009
1.551327e-009
-2.213383e-008
-1.812536e-008
-1.120649e-008
-3.013236e-009
4.578987e-009
9.289482e-009
8.866362e-009
2.945276e-009
-5.025091e-009
-8.694795e-009
-3.549836e-009
7.970189e-009
1.655401e-008
1.309246e-008
-2.592765e-009
-1.982710e-008
-2.508351e-008
-1.345627e-008
6.967222e-009
2.212744e-008
2.377013e-008
1.488420e-008
4.391439e-009
-2.528072e-009
-8.487201e-009
-1.924176e-008
-3.666011e-008
-5.733422e-008
-7.772774e-008
-9.938224e-008
-1.282062e-007
-1.689579e-007
-2.212258e-007
-2.809365e-007
-3.449788e-007
-4.135128e-007
-4.878843e-007
-5.672718e-007
-6.481796e-007
-7.270600e-007
-8.026465e-007
-8.752886e-007
-9.444252e-007
-1.007501e-006
-1.061638e-006
-1.105883e-006
-1.141194e-006
-1.168177e-006
-1.185445e-006
-1.190659e-006
-1.182981e-006
-1.163873e-006
-1.135223e-006
-1.097157e-006
-1.048292e-006
-9.881649e-007
-9.188391e-007
-8.437016e-007
-7.649883e-007
-6.831061e-007
-5.984899e-007
-5.134862e-007
-4.317718e-007
-3.560394e-007
-2.869352e-007
-2.245448e-007
-1.702737e-007
-1.263264e-007
-9.315952e-008
-6.820496e-008
-4.786225e-008
-3.062413e-008
-1.751443e-008
-9.227642e-009
-3.667690e-009
2.568231e-009
1.007216e-008
1.495841e-008
1.248582e-008
2.699137e-009
-8.094932e-009
-1.221261e-008
-7.300453e-009
1.749019e-009
7.438374e-009
6.149636e-009
4.240393e-010
-4.320025e-009
-4.689649e-009
-1.303320e-009
2.897956e-009
5.323231e-009
4.905965e-009
1.841205e-009
-2.701207e-009
-6.536588e-009
-7.117863e-009
-3.328074e-009
3.009533e-009
7.848895e-009
-3.587726e-008
-1.199748e-008
1.633292e-008
2.691477e-008
1.314806e-008
-1.182154e-008
-2.762166e-008
-2.349952e-008
-4.825565e-009
1.429164e-008
2.315908e-008
2.022777e-008
9.958219e-009
-2.707265e-009
-1.394184e-008
-1.952628e-008
-1.543676e-008
-1.990302e-009
1.347553e-008
2.055812e-008
1.417854e-008
-9.964297e-010
-1.538748e-008
-2.415885e-008
-3.188040e-008
-4.773712e-008
-7.702647e-008
-1.182283e-007
-1.680664e-007
-2.278873e-007
-3.037217e-007
-4.001443e-007
-5.151574e-007
-6.417698e-007
-7.741110e-007
-9.111202e-007
-1.054222e-006
-1.202411e-006
-1.350619e-006
-1.492864e-006
-1.626121e-006
-1.750538e-006
-1.866287e-006
-1.971132e-006
-2.061442e-006
-2.134989e-006
-2.191973e-006
-2.233263e-006
-2.258352e-006
-2.265554e-006
-2.253874e-006
-2.223913e-006
-2.176704e-006
-2.112281e-006
-2.030062e-006
-1.930535e-006
-1.815889e-006
-1.688696e-006
-1.550520e-006
-1.402560e-006
-1.247588e-006
-1.090467e-006
-9.361633e-007
-7.875665e-007
-6.460027e-007
-5.139045e-007
-3.960299e-007
-2.970466e-007
-2.178817e-007
-1.552404e-007
-1.051982e-007
-6.676500e-008
-4.107900e-008
-2.712693e-008
-1.942012e-008
-1.115700e-008
4.186022e-011
1.017991e-008
1.324844e-008
7.590809e-009
-2.162788e-009
-9.152741e-009
-9.764105e-009
-5.265806e-009
8.085441e-010
5.711376e-009
8.041820e-009
6.871861e-009
2.057997e-009
-4.253113e-009
-7.741281e-009
-5.186718e-009
1.822934e-009
7.258369e-009
5.892956e-009
-1.348626e-009
-7.701959e-009
-6.887020e-009
6.094008e-010
7.757506e-009
-4.941161e-008
-1.283243e-008
2.974609e-008
4.361853e-008
1.930874e-008
-2.080950e-008
-4.330158e-008
-3.219329e-008
-7.323250e-011
2.596154e-008
2.838197e-008
1.129663e-008
-7.660752e-009
-1.455432e-008
-8.600255e-009
2.039781e-009
9.939454e-009
1.278415e-008
1.067662e-008
2.910895e-009
-1.090591e-008
-2.816389e-008
-4.464446e-008
-6.008405e-008
-8.160698e-008
-1.202155e-007
-1.834532e-007
-2.719777e-007
-3.832776e-007
-5.175062e-007
-6.782738e-007
-8.675886e-007
-1.081172e-006
-1.309797e-006
-1.545143e-006
-1.783598e-006
-2.024197e-006
-2.263773e-006
-2.495243e-006
-2.710882e-006
-2.906619e-006
-3.082585e-006
-3.239813e-006
-3.377217e-006
-3.492073e-006
-3.582772e-006
-3.650222e-006
-3.696429e-006
-3.722337e-006
-3.727466e-006
-3.711170e-006
-3.673385e-006
-3.613962e-006
-3.531970e-006
-3.426328e-006
-3.296925e-006
-3.144493e-006
-2.969344e-006
-2.771115e-006
-2.550651e-006
-2.312088e-006
-2.062362e-006
-1.808258e-006
-1.554390e-006
-1.304634e-006
-1.065178e-006
-8.449368e-007
-6.518930e-007
-4.890005e-007
-3.542417e-007
-2.447841e-007
-1.603238e-007
-1.016269e-007
-6.608942e-008
-4.592436e-008
-3.172481e-008
-1.800543e-008
-5.126950e-009
3.826395e-009
7.294640e-009
6.363645e-009
2.948472e-009
-1.518923e-009
-5.269809e-009
-5.517667e-009
-4.726470e-010
7.473524e-009
1.191266e-008
7.634929e-009
-3.561029e-009
-1.303043e-008
-1.257656e-008
-2.308018e-009
8.972811e-009
1.179005e-008
4.768085e-009
-4.507502e-009
-7.312034e-009
-2.305002e-009
3.799525e-009
-6.364816e-008
-2.690156e-008
1.759867e-008
3.656885e-008
2.008346e-008
-1.190565e-008
-2.908324e-008
-1.793389e-008
8.004569e-009
2.295342e-008
1.360131e-008
-9.655362e-009
-2.417850e-008
-1.662525e-008
6.224636e-009
2.578895e-008
2.870390e-008
1.578188e-008
-3.201305e-009
-2.059874e-008
-3.641332e-008
-5.566899e-008
-8.397514e-008
-1.270152e-007
-1.926052e-007
-2.903725e-007
-4.279272e-007
-6.076525e-007
-8.277282e-007
-1.085636e-006
-1.379361e-006
-1.704716e-006
-2.052379e-006
-2.408862e-006
-2.760928e-006
-3.098972e-006
-3.416304e-006
-3.706162e-006
-3.960746e-006
-4.173778e-006
-4.343712e-006
-4.473934e-006
-4.569800e-006
-4.635781e-006
-4.675412e-006
-4.693150e-006
-4.695191e-006
-4.688030e-006
-4.676454e-006
-4.662989e-006
-4.648592e-006
-4.632909e-006
-4.613670e-006
-4.586511e-006
-4.546001e-006
-4.486650e-006
-4.402550e-006
-4.286473e-006
-4.130725e-006
-3.930146e-006
-3.684685e-006
-3.398893e-006
-3.079187e-006
-2.732394e-006
-2.367376e-006
-1.997292e-006
-1.638620e-006
-1.306555e-006
-1.010733e-006
-7.551025e-007
-5.412151e-007
-3.705574e-007
-2.432762e-007
-1.553593e-007
-9.828994e-008
-6.210604e-008
-3.878805e-008
-2.298919e-008
-1.086242e-008
7.810441e-011
9.460326e-009
1.385196e-008
1.018682e-008
3.952959e-010
-8.155807e-009
-8.342788e-009
-1.452411e-010
8.621541e-009
9.347365e-009
9.219294e-010
-9.030679e-009
-1.139959e-008
-4.198833e-009
5.874240e-009
1.015684e-008
6.081925e-009
-1.240002e-009
-4.864683e-009
-2.887782e-009
5.406121e-010
-5.417980e-008
-3.374791e-008
-6.690851e-009
1.042362e-008
1.119136e-008
3.225092e-009
-4.178945e-010
5.586602e-009
1.362045e-008
1.136013e-008
-4.311986e-009
-2.194334e-008
-2.510445e-008
-8.241883e-009
1.687746e-008
3.084969e-008
2.314360e-008
-4.217673e-010
-2.565461e-008
-4.474486e-008
-6.392079e-008
-9.889730e-008
-1.650714e-007
-2.722939e-007
-4.267338e-007
-6.345248e-007
-9.016937e-007
-1.230544e-006
-1.616580e-006
-2.048448e-006
-2.509590e-006
-2.979389e-006
-3.433748e-006
-3.846780e-006
-4.194193e-006
-4.456787e-006
-4.622129e-006
-4.684329e-006
-4.643494e-006
-4.505956e-006
-4.284594e-006
-3.997804e-006
-3.666976e-006
-3.314068e-006
-2.960678e-006
-2.628157e-006
-2.337107e-006
-2.105686e-006
-1.947933e-006
-1.873292e-006
-1.886732e-006
-1.988221e-006
-2.171727e-006
-2.425209e-006
-2.731985e-006
-3.071914e-006
-3.421225e-006
-3.752278e-006
-4.035551e-006
-4.243902e-006
-4.356389e-006
-4.359516e-006
-4.246931e-006
-4.020191e-006
-3.690968e-006
-3.281967e-006
-2.823883e-006
-2.349312e-006
-1.887252e-006
-1.460716e-006
-1.086539e-006
-7.750113e-007
-5.289815e-007
-3.443459e-007
-2.128967e-007
-1.255260e-007
-7.298844e-008
-4.452847e-008
-2.792999e-008
-1.329879e-008
2.134329e-009
1.367466e-008
1.514025e-008
6.273327e-009
-5.553628e-009
-1.117628e-008
-7.333755e-009
1.215404e-009
6.801082e-009
5.768610e-009
7.218719e-010
-3.114785e-009
-2.983338e-009
-2.666212e-010
1.898425e-009
1.863335e-009
4.277330e-010
-6.849675e-010
-7.209090e-010
-2.940225e-010
-1.599214e-009
-1.099177e-008
-2.000768e-008
-1.860896e-008
-5.761221e-009
1.032597e-008
1.990764e-008
1.891825e-008
9.816128e-009
-2.036319e-009
-1.131116e-008
-1.359327e-008
-6.812603e-009
5.926405e-009
1.579760e-008