# vtk DataFile Version 3.0
vtk output
ASCII
DATASET STRUCTURED_POINTS
DIMENSIONS 100 100 1
SPACING 1 1 1
ORIGIN 0 0 0
POINT_DATA 10000
SCALARS SFBox_profile double
LOOKUP_TABLE default 
9.439916e-003
9.439917e-003
9.439919e-003
9.439921e-003
9.439922e-003
9.439922e-003
9.439920e-003
9.439919e-003
9.439918e-003
9.439918e-003
9.439920e-003
9.439921e-003
9.439922e-003
9.439921e-003
9.439920e-003
9.439919e-003
9.439919e-003
9.439920e-003
9.439920e-003
9.439920e-003
9.439919e-003
9.439919e-003
9.439919e-003
9.439920e-003
9.439921e-003
9.439921e-003
9.439920e-003
9.439920e-003
9.439921e-003
9.439921e-003
9.439921e-003
9.439921e-003
9.439921e-003
9.439921e-003
9.439921e-003
9.439922e-003
9.439922e-003
9.439922e-003
9.439922e-003
9.439922e-003
9.439922e-003
9.439923e-003
9.439923e-003
9.439922e-003
9.439923e-003
9.439923e-003
9.439923e-003
9.439923e-003
9.439923e-003
9.439922e-003
9.439923e-003
9.439923e-003
9.439922e-003
9.439922e-003
9.439922e-003
9.439922e-003
9.439922e-003
9.439922e-003
9.439921e-003
9.439921e-003
9.439921e-003
9.439921e-003
9.439921e-003
9.439921e-003
9.439920e-003
9.439920e-003
9.439920e-003
9.439921e-003
9.439920e-003
9.439920e-003
9.439920e-003
9.439920e-003
9.439920e-003
9.439920e-003
9.439920e-003
9.439920e-003
9.439920e-003
9.439920e-003
9.439921e-003
9.439921e-003
9.439920e-003
9.439920e-003
9.439920e-003
9.439920e-003
9.439920e-003
9.439920e-003
9.439920e-003
9.439920e-003
9.439920e-003
9.439921e-003
9.439920e-003
9.439920e-003
9.439919e-003
9.439919e-003
9.439920e-003
9.439920e-003
9.439921e-003
9.439921e-003
9.439920e-003
9.439919e-003
9.439916e-003
9.439917e-003
9.439919e-003
9.439921e-003
9.439922e-003
9.439922e-003
9.439920e-003
9.439919e-003
9.439918e-003
9.439918e-003
9.439920e-003
9.439921e-003
9.439922e-003
9.439921e-003
9.439920e-003
9.439919e-003
9.439919e-003
9.439920e-003
9.439920e-003
9.439920e-003
9.439919e-003
9.439919e-003
9.439919e-003
9.439920e-003
9.439921e-003
9.439921e-003
9.439920e-003
9.439920e-003
9.439921e-003
9.439921e-003
9.439921e-003
9.439921e-003
9.439921e-003
9.439921e-003
9.439921e-003
9.439922e-003
9.439922e-003
9.439922e-003
9.439922e-003
9.439922e-003
9.439922e-003
9.439923e-003
9.439923e-003
9.439922e-003
9.439923e-003
9.439923e-003
9.439923e-003
9.439923e-003
9.439923e-003
9.439922e-003
9.439923e-003
9.439923e-003
9.439922e-003
9.439922e-003
9.439922e-003
9.439922e-003
9.439922e-003
9.439922e-003
9.439921e-003
9.439921e-003
9.439921e-003
9.439921e-003
9.439921e-003
9.439921e-003
9.439920e-003
9.439920e-003
9.439920e-003
9.439921e-003
9.439920e-003
9.439920e-003
9.439920e-003
9.439920e-003
9.439920e-003
9.439920e-003
9.439920e-003
9.439920e-003
9.439920e-003
9.439920e-003
9.439921e-003
9.439921e-003
9.439920e-003
9.439920e-003
9.439920e-003
9.439920e-003
9.439920e-003
9.439920e-003
9.439920e-003
9.439920e-003
9.439920e-003
9.439921e-003
9.439920e-003
9.439920e-003
9.439919e-003
9.439919e-003
9.439920e-003
9.439920e-003
9.439921e-003
9.439921e-003
9.439920e-003
9.439919e-003
9.439920e-003
9.439920e-003
9.439920e-003
9.439920e-003
9.439920e-003
9.439920e-003
9.439920e-003
9.439920e-003
9.439920e-003
9.439920e-003
9.439920e-003
9.439920e-003
9.439920e-003
9.439920e-003
9.439920e-003
9.439920e-003
9.439920e-003
9.439920e-003
9.439920e-003
9.439920e-003
9.439920e-003
9.439920e-003
9.439920e-003
9.439920e-003
9.439921e-003
9.439921e-003
9.439920e-003
9.439920e-003
9.439921e-003
9.439921e-003
9.439921e-003
9.439921e-003
9.439921e-003
9.439922e-003
9.439922e-003
9.439923e-003
9.439923e-003
9.439923e-003
9.439923e-003
9.439924e-003
9.439924e-003
9.439924e-003
9.439924e-003
9.439924e-003
9.439924e-003
9.439925e-003
9.439925e-003
9.439925e-003
9.439924e-003
9.439924e-003
9.439924e-003
9.439924e-003
9.439924e-003
9.439924e-003
9.439923e-003
9.439923e-003
9.439923e-003
9.439923e-003
9.439922e-003
9.439922e-003
9.439921e-003
9.439921e-003
9.439921e-003
9.439921e-003
9.439920e-003
9.439920e-003
9.439920e-003
9.439920e-003
9.439920e-003
9.439920e-003
9.439920e-003
9.439920e-003
9.439920e-003
9.439920e-003
9.439920e-003
9.439920e-003
9.439920e-003
9.439920e-003
9.439920e-003
9.439920e-003
9.439920e-003
9.439920e-003
9.439920e-003
9.439920e-003
9.439920e-003
9.439920e-003
9.439920e-003
9.439920e-003
9.439920e-003
9.439920e-003
9.439920e-003
9.439920e-003
9.439920e-003
9.439920e-003
9.439920e-003
9.439920e-003
9.439920e-003
9.439920e-003
9.439920e-003
9.439920e-003
9.439924e-003
9.439923e-003
9.439920e-003
9.439919e-003
9.439918e-003
9.439919e-003
9.439920e-003
9.439921e-003
9.439922e-003
9.439921e-003
9.439920e-003
9.439919e-003
9.439919e-003
9.439919e-003
9.439920e-003
9.439920e-003
9.439920e-003
9.439920e-003
9.439920e-003
9.439921e-003
9.439921e-003
9.439921e-003
9.439921e-003
9.439920e-003
9.439921e-003
9.439921e-003
9.439921e-003
9.439921e-003
9.439921e-003
9.439922e-003
9.439922e-003
9.439923e-003
9.439923e-003
9.439924e-003
9.439924e-003
9.439925e-003
9.439926e-003
9.439926e-003
9.439927e-003
9.439927e-003
9.439927e-003
9.439928e-003
9.439928e-003
9.439928e-003
9.439928e-003
9.439928e-003
9.439928e-003
9.439928e-003
9.439928e-003
9.439928e-003
9.439928e-003
9.439928e-003
9.439927e-003
9.439927e-003
9.439926e-003
9.439926e-003
9.439925e-003
9.439925e-003
9.439924e-003
9.439923e-003
9.439923e-003
9.439922e-003
9.439922e-003
9.439921e-003
9.439921e-003
9.439921e-003
9.439921e-003
9.439920e-003
9.439920e-003
9.439920e-003
9.439920e-003
9.439921e-003
9.439921e-003
9.439921e-003
9.439920e-003
9.439920e-003
9.439920e-003
9.439920e-003
9.439920e-003
9.439920e-003
9.439920e-003
9.439920e-003
9.439920e-003
9.439920e-003
9.439920e-003
9.439920e-003
9.439920e-003
9.439920e-003
9.439920e-003
9.439920e-003
9.439920e-003
9.439920e-003
9.439920e-003
9.439920e-003
9.439920e-003
9.439920e-003
9.439920e-003
9.439920e-003
9.439920e-003
9.439920e-003
9.439925e-003
9.439923e-003
9.439921e-003
9.439919e-003
9.439918e-003
9.439918e-003
9.439920e-003
9.439921e-003
9.439922e-003
9.439922e-003
9.439920e-003
9.439919e-003
9.439918e-003
9.439919e-003
9.439920e-003
9.439921e-003
9.439921e-003
9.439920e-003
9.439920e-003
9.439920e-003
9.439921e-003
9.439921e-003
9.439921e-003
9.439921e-003
9.439921e-003
9.439922e-003
9.439922e-003
9.439923e-003
9.439923e-003
9.439924e-003
9.439925e-003
9.439925e-003
9.439926e-003
9.439927e-003
9.439928e-003
9.439929e-003
9.439930e-003
9.439931e-003
9.439931e-003
9.439932e-003
9.439933e-003
9.439933e-003
9.439933e-003
9.439934e-003
9.439934e-003
9.439934e-003
9.439934e-003
9.439934e-003
9.439934e-003
9.439934e-003
9.439933e-003
9.439933e-003
9.439932e-003
9.439931e-003
9.439931e-003
9.439930e-003
9.439929e-003
9.439928e-003
9.439927e-003
9.439927e-003
9.439926e-003
9.439925e-003
9.439924e-003
9.439923e-003
9.439923e-003
9.439922e-003
9.439922e-003
9.439921e-003
9.439921e-003
9.439921e-003
9.439921e-003
9.439921e-003
9.439920e-003
9.439920e-003
9.439920e-003
9.439920e-003
9.439920e-003
9.439920e-003
9.439920e-003
9.439919e-003
9.439920e-003
9.439920e-003
9.439920e-003
9.439920e-003
9.439920e-003
9.439920e-003
9.439920e-003
9.439920e-003
9.439920e-003
9.439919e-003
9.439920e-003
9.439920e-003
9.439921e-003
9.439921e-003
9.439920e-003
9.439920e-003
9.439919e-003
9.439919e-003
9.439920e-003
9.439921e-003
9.439921e-003
9.439921e-003
9.439921e-003
9.439920e-003
9.439920e-003
9.439919e-003
9.439919e-003
9.439920e-003
9.439921e-003
9.439921e-003
9.439920e-003
9.439919e-003
9.439919e-003
9.439920e-003
9.439921e-003
9.439921e-003
9.439921e-003
9.439920e-003
9.439919e-003
9.439920e-003
9.439921e-003
9.439921e-003
9.439922e-003
9.439922e-003
9.439922e-003
9.439923e-003
9.439925e-003
9.439926e-003
9.439927e-003
9.439928e-003
9.439929e-003
9.439930e-003
9.439932e-003
9.439933e-003
9.439934e-003
9.439935e-003
9.439936e-003
9.439937e-003
9.439938e-003
9.439939e-003
9.439940e-003
9.439940e-003
9.439941e-003
9.439941e-003
9.439941e-003
9.439941e-003
9.439941e-003
9.439941e-003
9.439941e-003
9.439941e-003
9.439940e-003
9.439939e-003
9.439939e-003
9.439938e-003
9.439937e-003
9.439936e-003
9.439935e-003
9.439934e-003
9.439933e-003
9.439932e-003
9.439930e-003
9.439929e-003
9.439928e-003
9.439927e-003
9.439926e-003
9.439925e-003
9.439924e-003
9.439923e-003
9.439922e-003
9.439921e-003
9.439921e-003
9.439921e-003
9.439920e-003
9.439920e-003
9.439920e-003
9.439920e-003
9.439920e-003
9.439920e-003
9.439920e-003
9.439920e-003
9.439920e-003
9.439920e-003
9.439920e-003
9.439920e-003
9.439920e-003
9.439920e-003
9.439920e-003
9.439920e-003
9.439920e-003
9.439920e-003
9.439920e-003
9.439920e-003
9.439920e-003
9.439921e-003
9.439920e-003
9.439920e-003
9.439919e-003
9.439919e-003
9.439920e-003
9.439921e-003
9.439916e-003
9.439917e-003
9.439920e-003
9.439922e-003
9.439922e-003
9.439921e-003
9.439919e-003
9.439919e-003
9.439919e-003
9.439919e-003
9.439920e-003
9.439920e-003
9.439921e-003
9.439921e-003
9.439921e-003
9.439921e-003
9.439920e-003
9.439920e-003
9.439920e-003
9.439920e-003
9.439921e-003
9.439922e-003
9.439923e-003
9.439924e-003
9.439925e-003
9.439927e-003
9.439929e-003
9.439931e-003
9.439932e-003
9.439933e-003
9.439935e-003
9.439937e-003
9.439939e-003
9.439941e-003
9.439942e-003
9.439942e-003
9.439943e-003
9.439944e-003
9.439945e-003
9.439945e-003
9.439945e-003
9.439945e-003
9.439945e-003
9.439945e-003
9.439945e-003
9.439945e-003
9.439945e-003
9.439944e-003
9.439945e-003
9.439944e-003
9.439944e-003
9.439944e-003
9.439944e-003
9.439943e-003
9.439943e-003
9.439942e-003
9.439941e-003
9.439940e-003
9.439939e-003
9.439938e-003
9.439937e-003
9.439935e-003
9.439933e-003
9.439931e-003
9.439930e-003
9.439928e-003
9.439927e-003
9.439925e-003
9.439924e-003
9.439923e-003
9.439922e-003
9.439921e-003
9.439920e-003
9.439920e-003
9.439920e-003
9.439920e-003
9.439921e-003
9.439920e-003
9.439920e-003
9.439920e-003
9.439920e-003
9.439920e-003
9.439920e-003
9.439919e-003
9.439919e-003
9.439920e-003
9.439920e-003
9.439921e-003
9.439921e-003
9.439920e-003
9.439920e-003
9.439920e-003
9.439920e-003
9.439920e-003
9.439920e-003
9.439920e-003
9.439920e-003
9.439920e-003
9.439920e-003
9.439920e-003
9.439913e-003
9.439916e-003
9.439919e-003
9.439922e-003
9.439923e-003
9.439922e-003
9.439920e-003
9.439918e-003
9.439918e-003
9.439919e-003
9.439920e-003
9.439921e-003
9.439921e-003
9.439921e-003
9.439920e-003
9.439920e-003
9.439921e-003
9.439921e-003
9.439922e-003
9.439922e-003
9.439923e-003
9.439925e-003
9.439926e-003
9.439928e-003
9.439929e-003
9.439932e-003
9.439934e-003
9.439937e-003
9.439939e-003
9.439941e-003
9.439943e-003
9.439944e-003
9.439946e-003
9.439946e-003
9.439946e-003
9.439945e-003
9.439944e-003
9.439943e-003
9.439941e-003
9.439939e-003
9.439936e-003
9.439933e-003
9.439931e-003
9.439929e-003
9.439928e-003
9.439926e-003
9.439925e-003
9.439926e-003
9.439926e-003
9.439928e-003
9.439929e-003
9.439931e-003
9.439933e-003
9.439935e-003
9.439938e-003
9.439939e-003
9.439941e-003
9.439942e-003
9.439943e-003
9.439943e-003
9.439942e-003
9.439941e-003
9.439939e-003
9.439937e-003
9.439935e-003
9.439933e-003
9.439931e-003
9.439929e-003
9.439927e-003
9.439926e-003
9.439924e-003
9.439923e-003
9.439922e-003
9.439921e-003
9.439921e-003
9.439921e-003
9.439920e-003
9.439920e-003
9.439920e-003
9.439920e-003
9.439920e-003
9.439920e-003
9.439920e-003
9.439920e-003
9.439919e-003
9.439920e-003
9.439920e-003
9.439921e-003
9.439921e-003
9.439920e-003
9.439920e-003
9.439920e-003
9.439920e-003
9.439920e-003
9.439920e-003
9.439920e-003
9.439920e-003
9.439920e-003
9.439920e-003
9.439920e-003
9.439916e-003
9.439917e-003
9.439919e-003
9.439921e-003
9.439921e-003
9.439921e-003
9.439920e-003
9.439919e-003
9.439919e-003
9.439920e-003
9.439921e-003
9.439921e-003
9.439921e-003
9.439920e-003
9.439919e-003
9.439920e-003
9.439921e-003
9.439923e-003
9.439924e-003
9.439925e-003
9.439927e-003
9.439929e-003
9.439931e-003
9.439934e-003
9.439936e-003
9.439939e-003
9.439941e-003
9.439944e-003
9.439946e-003
9.439946e-003
9.439946e-003
9.439945e-003
9.439942e-003
9.439937e-003
9.439931e-003
9.439923e-003
9.439913e-003
9.439904e-003
9.439893e-003
9.439881e-003
9.439870e-003
9.439860e-003
9.439851e-003
9.439843e-003
9.439837e-003
9.439832e-003
9.439831e-003
9.439831e-003
9.439834e-003
9.439840e-003
9.439847e-003
9.439855e-003
9.439865e-003
9.439877e-003
9.439888e-003
9.439899e-003
9.439909e-003
9.439918e-003
9.439927e-003
9.439933e-003
9.439938e-003
9.439940e-003
9.439942e-003
9.439942e-003
9.439941e-003
9.439939e-003
9.439937e-003
9.439934e-003
9.439932e-003
9.439930e-003
9.439928e-003
9.439926e-003
9.439924e-003
9.439923e-003
9.439922e-003
9.439921e-003
9.439921e-003
9.439920e-003
9.439920e-003
9.439920e-003
9.439920e-003
9.439920e-003
9.439920e-003
9.439920e-003
9.439920e-003
9.439920e-003
9.439920e-003
9.439920e-003
9.439920e-003
9.439920e-003
9.439920e-003
9.439920e-003
9.439920e-003
9.439919e-003
9.439920e-003
9.439920e-003
9.439921e-003
9.439921e-003
9.439920e-003
9.439919e-003
9.439923e-003
9.439922e-003
9.439920e-003
9.439918e-003
9.439919e-003
9.439920e-003
9.439921e-003
9.439921e-003
9.439921e-003
9.439921e-003
9.439921e-003
9.439921e-003
9.439920e-003
9.439920e-003
9.439920e-003
9.439921e-003
9.439923e-003
9.439925e-003
9.439927e-003
9.439929e-003
9.439931e-003
9.439934e-003
9.439938e-003
9.439941e-003
9.439944e-003
9.439946e-003
9.439947e-003
9.439947e-003
9.439944e-003
9.439938e-003
9.439928e-003
9.439914e-003
9.439896e-003
9.439874e-003
9.439848e-003
9.439818e-003
9.439785e-003
9.439750e-003
9.439714e-003
9.439678e-003
9.439644e-003
9.439612e-003
9.439584e-003
9.439561e-003
9.439543e-003
9.439531e-003
9.439526e-003
9.439529e-003
9.439538e-003
9.439555e-003
9.439577e-003
9.439605e-003
9.439637e-003
9.439672e-003
9.439709e-003
9.439746e-003
9.439782e-003
9.439816e-003
9.439847e-003
9.439873e-003
9.439895e-003
9.439913e-003
9.439926e-003
9.439934e-003
9.439940e-003
9.439942e-003
9.439942e-003
9.439940e-003
9.439938e-003
9.439935e-003
9.439932e-003
9.439930e-003
9.439928e-003
9.439926e-003
9.439924e-003
9.439923e-003
9.439921e-003
9.439921e-003
9.439920e-003
9.439920e-003
9.439920e-003
9.439920e-003
9.439920e-003
9.439921e-003
9.439921e-003
9.439920e-003
9.439920e-003
9.439919e-003
9.439919e-003
9.439920e-003
9.439921e-003
9.439921e-003
9.439920e-003
9.439920e-003
9.439920e-003
9.439920e-003
9.439920e-003
9.439920e-003
9.439920e-003
9.439920e-003
9.439929e-003
9.439925e-003
9.439921e-003
9.439917e-003
9.439917e-003
9.439918e-003
9.439921e-003
9.439922e-003
9.439921e-003
9.439920e-003
9.439920e-003
9.439920e-003
9.439921e-003
9.439921e-003
9.439922e-003
9.439924e-003
9.439926e-003
9.439929e-003
9.439931e-003
9.439934e-003
9.439937e-003
9.439941e-003
9.439945e-003
9.439949e-003
9.439949e-003
9.439947e-003
9.439939e-003
9.439927e-003
9.439907e-003
9.439878e-003
9.439840e-003
9.439790e-003
9.439730e-003
9.439660e-003
9.439580e-003
9.439492e-003
9.439397e-003
9.439299e-003
9.439199e-003
9.439102e-003
9.439009e-003
9.438924e-003
9.438849e-003
9.438788e-003
9.438742e-003
9.438712e-003
9.438701e-003
9.438708e-003
9.438734e-003
9.438778e-003
9.438838e-003
9.438913e-003
9.438999e-003
9.439095e-003
9.439197e-003
9.439300e-003
9.439403e-003
9.439501e-003
9.439592e-003
9.439673e-003
9.439744e-003
9.439802e-003
9.439849e-003
9.439885e-003
9.439910e-003
9.439927e-003
9.439937e-003
9.439942e-003
9.439942e-003
9.439941e-003
9.439938e-003
9.439935e-003
9.439932e-003
9.439929e-003
9.439927e-003
9.439925e-003
9.439923e-003
9.439922e-003
9.439921e-003
9.439921e-003
9.439920e-003
9.439920e-003
9.439920e-003
9.439920e-003
9.439921e-003
9.439921e-003
9.439920e-003
9.439919e-003
9.439919e-003
9.439920e-003
9.439921e-003
9.439921e-003
9.439920e-003
9.439920e-003
9.439919e-003
9.439920e-003
9.439920e-003
9.439920e-003
9.439920e-003
9.439920e-003
9.439928e-003
9.439925e-003
9.439921e-003
9.439918e-003
9.439917e-003
9.439919e-003
9.439921e-003
9.439922e-003
9.439921e-003
9.439920e-003
9.439919e-003
9.439920e-003
9.439922e-003
9.439924e-003
9.439926e-003
9.439928e-003
9.439930e-003
9.439933e-003
9.439937e-003
9.439941e-003
9.439945e-003
9.439949e-003
9.439950e-003
9.439947e-003
9.439936e-003
9.439916e-003
9.439883e-003
9.439834e-003
9.439766e-003
9.439676e-003
9.439561e-003
9.439421e-003
9.439254e-003
9.439065e-003
9.438853e-003
9.438624e-003
9.438382e-003
9.438134e-003
9.437885e-003
9.437644e-003
9.437416e-003
9.437209e-003
9.437028e-003
9.436879e-003
9.436769e-003
9.436699e-003
9.436673e-003
9.436691e-003
9.436755e-003
9.436862e-003
9.437009e-003
9.437193e-003
9.437406e-003
9.437643e-003
9.437896e-003
9.438156e-003
9.438417e-003
9.438668e-003
9.438905e-003
9.439120e-003
9.439311e-003
9.439474e-003
9.439608e-003
9.439715e-003
9.439796e-003
9.439855e-003
9.439895e-003
9.439921e-003
9.439935e-003
9.439941e-003
9.439942e-003
9.439940e-003
9.439937e-003
9.439934e-003
9.439931e-003
9.439928e-003
9.439925e-003
9.439924e-003
9.439923e-003
9.439922e-003
9.439921e-003
9.439920e-003
9.439920e-003
9.439920e-003
9.439920e-003
9.439920e-003
9.439920e-003
9.439920e-003
9.439919e-003
9.439920e-003
9.439920e-003
9.439920e-003
9.439920e-003
9.439920e-003
9.439920e-003
9.439920e-003
9.439920e-003
9.439920e-003
9.439920e-003
9.439920e-003
9.439921e-003
9.439921e-003
9.439920e-003
9.439920e-003
9.439920e-003
9.439920e-003
9.439921e-003
9.439921e-003
9.439920e-003
9.439920e-003
9.439920e-003
9.439921e-003
9.439924e-003
9.439927e-003
9.439930e-003
9.439932e-003
9.439935e-003
9.439940e-003
9.439945e-003
9.439950e-003
9.439952e-003
9.439948e-003
9.439936e-003
9.439911e-003
9.439867e-003
9.439797e-003
9.439694e-003
9.439552e-003
9.439363e-003
9.439121e-003
9.438822e-003
9.438465e-003
9.438052e-003
9.437586e-003
9.437074e-003
9.436527e-003
9.435956e-003
9.435374e-003
9.434798e-003
9.434242e-003
9.433721e-003
9.433249e-003
9.432840e-003
9.432506e-003
9.432258e-003
9.432103e-003
9.432046e-003
9.432090e-003
9.432234e-003
9.432478e-003
9.432813e-003
9.433231e-003
9.433719e-003
9.434263e-003
9.434848e-003
9.435455e-003
9.436065e-003
9.436662e-003
9.437229e-003
9.437752e-003
9.438220e-003
9.438628e-003
9.438971e-003
9.439250e-003
9.439469e-003
9.439635e-003
9.439754e-003
9.439837e-003
9.439889e-003
9.439920e-003
9.439936e-003
9.439942e-003
9.439943e-003
9.439940e-003
9.439936e-003
9.439932e-003
9.439929e-003
9.439927e-003
9.439925e-003
9.439923e-003
9.439922e-003
9.439921e-003
9.439920e-003
9.439920e-003
9.439920e-003
9.439920e-003
9.439920e-003
9.439920e-003
9.439920e-003
9.439920e-003
9.439920e-003
9.439920e-003
9.439920e-003
9.439920e-003
9.439920e-003
9.439920e-003
9.439920e-003
9.439920e-003
9.439920e-003
9.439920e-003
9.439913e-003
9.439916e-003
9.439919e-003
9.439922e-003
9.439922e-003
9.439921e-003
9.439920e-003
9.439920e-003
9.439920e-003
9.439921e-003
9.439922e-003
9.439924e-003
9.439927e-003
9.439930e-003
9.439934e-003
9.439938e-003
9.439943e-003
9.439949e-003
9.439953e-003
9.439952e-003
9.439942e-003
9.439916e-003
9.439866e-003
9.439782e-003
9.439650e-003
9.439456e-003
9.439185e-003
9.438820e-003
9.438349e-003
9.437760e-003
9.437048e-003
9.436210e-003
9.435253e-003
9.434188e-003
9.433034e-003
9.431812e-003
9.430550e-003
9.429278e-003
9.428027e-003
9.426829e-003
9.425715e-003
9.424713e-003
9.423849e-003
9.423148e-003
9.422628e-003
9.422306e-003
9.422189e-003
9.422285e-003
9.422593e-003
9.423108e-003
9.423818e-003
9.424706e-003
9.425748e-003
9.426917e-003
9.428180e-003
9.429500e-003
9.430840e-003
9.432162e-003
9.433430e-003
9.434613e-003
9.435687e-003
9.436633e-003
9.437442e-003
9.438111e-003
9.438647e-003
9.439062e-003
9.439371e-003
9.439591e-003
9.439741e-003
9.439837e-003
9.439894e-003
9.439926e-003
9.439940e-003
9.439944e-003
9.439942e-003
9.439938e-003
9.439933e-003
9.439930e-003
9.439927e-003
9.439925e-003
9.439923e-003
9.439922e-003
9.439921e-003
9.439920e-003
9.439920e-003
9.439920e-003
9.439920e-003
9.439921e-003
9.439921e-003
9.439920e-003
9.439919e-003
9.439919e-003
9.439920e-003
9.439920e-003
9.439921e-003
9.439920e-003
9.439920e-003
9.439920e-003
9.439920e-003
9.439920e-003
9.439910e-003
9.439914e-003
9.439920e-003
9.439923e-003
9.439923e-003
9.439921e-003
9.439919e-003
9.439919e-003
9.439921e-003
9.439924e-003
9.439926e-003
9.439928e-003
9.439930e-003
9.439935e-003
9.439940e-003
9.439946e-003
9.439952e-003
9.439954e-003
9.439949e-003
9.439929e-003
9.439883e-003
9.439797e-003
9.439652e-003
9.439425e-003
9.439087e-003
9.438609e-003
9.437956e-003
9.437099e-003
9.436012e-003
9.434678e-003
9.433087e-003
9.431245e-003
9.429169e-003
9.426891e-003
9.424451e-003
9.421901e-003
9.419298e-003
9.416703e-003
9.414179e-003
9.411785e-003
9.409580e-003
9.407613e-003
9.405933e-003
9.404577e-003
9.403580e-003
9.402965e-003
9.402750e-003
9.402943e-003
9.403546e-003
9.404549e-003
9.405936e-003
9.407676e-003
9.409731e-003
9.412052e-003
9.414580e-003
9.417250e-003
9.419988e-003
9.422720e-003
9.425373e-003
9.427880e-003
9.430185e-003
9.432243e-003
9.434028e-003
9.435528e-003
9.436749e-003
9.437711e-003
9.438441e-003
9.438975e-003
9.439350e-003
9.439601e-003
9.439761e-003
9.439857e-003
9.439909e-003
9.439934e-003
9.439943e-003
9.439943e-003
9.439939e-003
9.439935e-003
9.439930e-003
9.439927e-003
9.439925e-003
9.439923e-003
9.439922e-003
9.439921e-003
9.439920e-003
9.439920e-003
9.439920e-003
9.439921e-003
9.439921e-003
9.439920e-003
9.439919e-003
9.439919e-003
9.439920e-003
9.439920e-003
9.439921e-003
9.439920e-003
9.439920e-003
9.439920e-003
9.439920e-003
9.439920e-003
9.439913e-003
9.439916e-003
9.439921e-003
9.439923e-003
9.439922e-003
9.439920e-003
9.439919e-003
9.439920e-003
9.439923e-003
9.439927e-003
9.439930e-003
9.439932e-003
9.439936e-003
9.439942e-003
9.439949e-003
9.439955e-003
9.439955e-003
9.439944e-003
9.439910e-003
9.439837e-003
9.439702e-003
9.439474e-003
9.439110e-003
9.438562e-003
9.437771e-003
9.436676e-003
9.435213e-003
9.433327e-003
9.430975e-003
9.428134e-003
9.424802e-003
9.421007e-003
9.416801e-003
9.412260e-003
9.407482e-003
9.402574e-003
9.397651e-003
9.392828e-003
9.388215e-003
9.383912e-003
9.380009e-003
9.376581e-003
9.373691e-003
9.371390e-003
9.369719e-003
9.368707e-003
9.368373e-003
9.368729e-003
9.369776e-003
9.371507e-003
9.373901e-003
9.376925e-003
9.380530e-003
9.384652e-003
9.389207e-003
9.394091e-003
9.399186e-003
9.404360e-003
9.409476e-003
9.414399e-003
9.419004e-003
9.423190e-003
9.426882e-003
9.430039e-003
9.432651e-003
9.434743e-003
9.436360e-003
9.437565e-003
9.438430e-003
9.439025e-003
9.439418e-003
9.439664e-003
9.439809e-003
9.439888e-003
9.439926e-003
9.439941e-003
9.439944e-003
9.439940e-003
9.439936e-003
9.439931e-003
9.439928e-003
9.439925e-003
9.439924e-003
9.439922e-003
9.439921e-003
9.439920e-003
9.439920e-003
9.439920e-003
9.439921e-003
9.439920e-003
9.439920e-003
9.439919e-003
9.439920e-003
9.439920e-003
9.439920e-003
9.439920e-003
9.439920e-003
9.439920e-003
9.439920e-003
9.439920e-003
9.439919e-003
9.439920e-003
9.439922e-003
9.439922e-003
9.439921e-003
9.439920e-003
9.439920e-003
9.439922e-003
9.439926e-003
9.439930e-003
9.439934e-003
9.439938e-003
9.439943e-003
9.439951e-003
9.439957e-003
9.439956e-003
9.439938e-003
9.439888e-003
9.439782e-003
9.439586e-003
9.439250e-003
9.438707e-003
9.437872e-003
9.436644e-003
9.434912e-003
9.432558e-003
9.429472e-003
9.425566e-003
9.420785e-003
9.415124e-003
9.408629e-003
9.401401e-003
9.393593e-003
9.385392e-003
9.377013e-003
9.368674e-003
9.360584e-003
9.352928e-003
9.345864e-003
9.339511e-003
9.333957e-003
9.329255e-003
9.325432e-003
9.322497e-003
9.320447e-003
9.319274e-003
9.318972e-003
9.319536e-003
9.320971e-003
9.323287e-003
9.326496e-003
9.330610e-003
9.335628e-003
9.341530e-003
9.348265e-003
9.355742e-003
9.363824e-003
9.372327e-003
9.381028e-003
9.389681e-003
9.398030e-003
9.405839e-003
9.412909e-003
9.419100e-003
9.424338e-003
9.428616e-003
9.431987e-003
9.434547e-003
9.436419e-003
9.437736e-003
9.438624e-003
9.439198e-003
9.439550e-003
9.439754e-003
9.439864e-003
9.439918e-003
9.439939e-003
9.439944e-003
9.439941e-003
9.439936e-003
9.439931e-003
9.439928e-003
9.439926e-003
9.439924e-003
9.439922e-003
9.439920e-003
9.439920e-003
9.439920e-003
9.439920e-003
9.439920e-003
9.439920e-003
9.439920e-003
9.439920e-003
9.439920e-003
9.439920e-003
9.439920e-003
9.439920e-003
9.439920e-003
9.439920e-003
9.439920e-003
9.439925e-003
9.439923e-003
9.439921e-003
9.439920e-003
9.439920e-003
9.439921e-003
9.439923e-003
9.439925e-003
9.439929e-003
9.439933e-003
9.439938e-003
9.439945e-003
9.439953e-003
9.439958e-003
9.439955e-003
9.439932e-003
9.439866e-003
9.439725e-003
9.439459e-003
9.438996e-003
9.438234e-003
9.437037e-003
9.435241e-003
9.432655e-003
9.429075e-003
9.424304e-003
9.418181e-003
9.410611e-003
9.401591e-003
9.391238e-003
9.379785e-003
9.367575e-003
9.355030e-003
9.342610e-003
9.330765e-003
9.319895e-003
9.310313e-003
9.302226e-003
9.295723e-003
9.290785e-003
9.287294e-003
9.285060e-003
9.283845e-003
9.283394e-003
9.283466e-003
9.283852e-003
9.284401e-003
9.285035e-003
9.285757e-003
9.286657e-003
9.287906e-003
9.289739e-003
9.292437e-003
9.296284e-003
9.301534e-003
9.308363e-003
9.316828e-003
9.326846e-003
9.338180e-003
9.350451e-003
9.363179e-003
9.375832e-003
9.387895e-003
9.398924e-003
9.408602e-003
9.416753e-003
9.423346e-003
9.428468e-003
9.432293e-003
9.435035e-003
9.436924e-003
9.438171e-003
9.438958e-003
9.439431e-003
9.439700e-003
9.439842e-003
9.439911e-003
9.439938e-003
9.439944e-003
9.439941e-003
9.439936e-003
9.439931e-003
9.439928e-003
9.439925e-003
9.439923e-003
9.439922e-003
9.439921e-003
9.439920e-003
9.439920e-003
9.439920e-003
9.439920e-003
9.439920e-003
9.439920e-003
9.439920e-003
9.439920e-003
9.439920e-003
9.439920e-003
9.439920e-003
9.439920e-003
9.439920e-003
9.439928e-003
9.439924e-003
9.439919e-003
9.439918e-003
9.439920e-003
9.439924e-003
9.439927e-003
9.439930e-003
9.439932e-003
9.439937e-003
9.439945e-003
9.439954e-003
9.439960e-003
9.439955e-003
9.439926e-003
9.439846e-003
9.439672e-003
9.439337e-003
9.438737e-003
9.437728e-003
9.436110e-003
9.433628e-003
9.429979e-003
9.424829e-003
9.417855e-003
9.408793e-003
9.397511e-003
9.384081e-003
9.368831e-003
9.352372e-003
9.335575e-003
9.319492e-003
9.305249e-003
9.293912e-003
9.286358e-003
9.283172e-003
9.284590e-003
9.290472e-003
9.300324e-003
9.313347e-003
9.328511e-003
9.344635e-003
9.360487e-003
9.374866e-003
9.386691e-003
9.395073e-003
9.399368e-003
9.399233e-003
9.394654e-003
9.385966e-003
9.373852e-003
9.359310e-003
9.343594e-003
9.328119e-003
9.314336e-003
9.303586e-003
9.296952e-003
9.295126e-003
9.298321e-003
9.306244e-003
9.318133e-003
9.332876e-003
9.349177e-003
9.365745e-003
9.381463e-003
9.395505e-003
9.407388e-003
9.416955e-003
9.424304e-003
9.429702e-003
9.433499e-003
9.436058e-003
9.437708e-003
9.438725e-003
9.439322e-003
9.439654e-003
9.439825e-003
9.439905e-003
9.439936e-003
9.439944e-003
9.439941e-003
9.439936e-003
9.439931e-003
9.439927e-003
9.439925e-003
9.439923e-003
9.439922e-003
9.439921e-003
9.439920e-003
9.439920e-003
9.439920e-003
9.439921e-003
9.439920e-003
9.439920e-003
9.439919e-003
9.439920e-003
9.439920e-003
9.439921e-003
9.439920e-003
9.439920e-003
9.439927e-003
9.439923e-003
9.439918e-003
9.439917e-003
9.439921e-003
9.439927e-003
9.439931e-003
9.439934e-003
9.439938e-003
9.439944e-003
9.439954e-003
9.439962e-003
9.439957e-003
9.439924e-003
9.439832e-003
9.439631e-003
9.439233e-003
9.438505e-003
9.437246e-003
9.435178e-003
9.431933e-003
9.427059e-003
9.420046e-003
9.410393e-003
9.397718e-003
9.381905e-003
9.363276e-003
9.342751e-003
9.321935e-003
9.303097e-003
9.288996e-003
9.282592e-003
9.286672e-003
9.303474e-003
9.334372e-003
9.379683e-003
9.438598e-003
9.509242e-003
9.588815e-003
9.673814e-003
9.760268e-003
9.843999e-003
9.920868e-003
9.987006e-003
1.003901e-002
1.007413e-002
1.009038e-002
1.008666e-002
1.006288e-002
1.001996e-002
9.959927e-003
9.885814e-003
9.801581e-003
9.711884e-003
9.621772e-003
9.536288e-003
9.460023e-003
9.396678e-003
9.348690e-003
9.316984e-003
9.300938e-003
9.298551e-003
9.306833e-003
9.322309e-003
9.341561e-003
9.361670e-003
9.380487e-003
9.396712e-003
9.409800e-003
9.419767e-003
9.426976e-003
9.431949e-003
9.435225e-003
9.437289e-003
9.438529e-003
9.439239e-003
9.439622e-003
9.439815e-003
9.439903e-003
9.439936e-003
9.439944e-003
9.439941e-003
9.439935e-003
9.439930e-003
9.439927e-003
9.439925e-003