# vtk DataFile Version 3.0
vtk output
ASCII
DATASET STRUCTURED_POINTS
DIMENSIONS 100 100 1
SPACING 1 1 1
ORIGIN 0 0 0
POINT_DATA 10000
SCALARS SFBox_profile double
LOOKUP_TABLE default 
0.000000e+000
0.000000e+000
0.000000e+000
0.000000e+000
0.000000e+000
0.000000e+000
0.000000e+000
0.000000e+000
0.000000e+000
0.000000e+000
0.000000e+000
0.000000e+000
0.000000e+000
0.000000e+000
0.000000e+000
0.000000e+000
0.000000e+000
0.000000e+000
0.000000e+000
0.000000e+000
0.000000e+000
0.000000e+000
0.000000e+000
0.000000e+000
0.000000e+000
0.000000e+000
0.000000e+000
0.000000e+000
0.000000e+000
0.000000e+000
0.000000e+000
0.000000e+000
0.000000e+000
0.000000e+000
0.000000e+000
0.000000e+000
0.000000e+000
0.000000e+000
0.000000e+000
0.000000e+000
0.000000e+000
0.000000e+000
0.000000e+000
0.000000e+000
0.000000e+000
0.000000e+000
0.000000e+000
0.000000e+000
0.000000e+000
0.000000e+000
0.000000e+000
0.000000e+000
0.000000e+000
0.000000e+000
0.000000e+000
0.000000e+000
0.000000e+000
0.000000e+000
0.000000e+000
0.000000e+000
0.000000e+000
0.000000e+000
0.000000e+000
0.000000e+000
0.000000e+000
0.000000e+000
0.000000e+000
0.000000e+000
0.000000e+000
0.000000e+000
0.000000e+000
0.000000e+000
0.000000e+000
0.000000e+000
0.000000e+000
0.000000e+000
0.000000e+000
0.000000e+000
0.000000e+000
0.000000e+000
0.000000e+000
0.000000e+000
0.000000e+000
0.000000e+000
0.000000e+000
0.000000e+000
0.000000e+000
0.000000e+000
0.000000e+000
0.000000e+000
0.000000e+000
0.000000e+000
0.000000e+000
0.000000e+000
0.000000e+000
0.000000e+000
0.000000e+000
0.000000e+000
0.000000e+000
0.000000e+000
7.811344e-009
3.019482e-009
-2.343988e-009
-4.830836e-009
-3.582706e-009
-3.790876e-010
2.132788e-009
2.532880e-009
1.380311e-009
2.010398e-010
-1.436288e-010
-1.044055e-010
-5.916946e-010
-1.674682e-009
-2.325055e-009
-1.524470e-009
4.954800e-010
2.314436e-009
2.686736e-009
1.724582e-009
6.053212e-010
1.926657e-010
1.869655e-010
-2.696706e-010
-1.373578e-009
-2.354839e-009
-2.412939e-009
-1.665019e-009
-9.294801e-010
-6.942119e-010
-6.164598e-010
-1.227611e-010
7.712300e-010
1.499758e-009
1.703942e-009
1.642074e-009
1.758046e-009
2.081212e-009
2.271839e-009
2.153638e-009
1.936386e-009
1.870613e-009
1.905376e-009
1.833536e-009
1.636432e-009
1.485217e-009
1.443770e-009
1.378444e-009
1.208977e-009
1.065361e-009
1.073670e-009
1.120934e-009
1.015658e-009
8.214054e-010
8.107490e-010
1.049695e-009
1.244661e-009
1.149494e-009
9.652286e-010
1.094192e-009
1.540035e-009
1.834543e-009
1.671098e-009
1.371866e-009
1.470048e-009
1.930390e-009
2.114879e-009
1.617463e-009
8.511010e-010
5.356711e-010
7.236563e-010
6.885389e-010
-1.100368e-010
-1.232436e-009
-1.719909e-009
-1.267419e-009
-6.033440e-010
-5.569770e-010
-9.793791e-010
-9.030615e-010
2.132144e-010
1.676716e-009
2.209587e-009
1.327954e-009
-1.404859e-010
-9.706635e-010
-8.072693e-010
-3.626175e-010
-4.116449e-010
-8.177015e-010
-7.234417e-010
3.322014e-010
1.668872e-009
1.987328e-009
6.821806e-010
-1.396055e-009
-2.553991e-009
-1.731599e-009
5.063060e-010
2.381951e-009
3.000998e-010
-4.943107e-011
-3.383723e-010
-2.524793e-010
1.775463e-010
5.711991e-010
5.020209e-010
-9.752486e-011
-7.951403e-010
-9.787124e-010
-4.086042e-010
5.153247e-010
1.080906e-009
9.101929e-010
2.816615e-010
-2.135426e-010
-3.087686e-010
-2.813260e-010
-5.149257e-010
-9.440268e-010
-1.074737e-009
-5.788753e-010
2.666898e-010
8.571270e-010
9.284190e-010
7.953426e-010
8.794860e-010
1.149563e-009
1.188863e-009
7.704646e-010
1.655951e-010
-2.054216e-010
-2.868098e-010
-3.860767e-010
-7.066815e-010
-1.077350e-009
-1.217116e-009
-1.120371e-009
-1.027183e-009
-1.070771e-009
-1.127377e-009
-1.045156e-009
-8.715668e-010
-7.536756e-010
-7.082309e-010
-6.275801e-010
-4.821037e-010
-3.718397e-010
-3.480867e-010
-3.150312e-010
-1.915302e-010
-7.151827e-011
-9.659522e-011
-2.181856e-010
-2.420253e-010
-1.277094e-010
-8.597684e-011
-2.813274e-010
-5.589781e-010
-6.329995e-010
-5.030934e-010
-4.852032e-010
-7.646435e-010
-1.093579e-009
-1.097424e-009
-7.947008e-010
-5.924742e-010
-7.268794e-010
-9.109096e-010
-7.001245e-010
-1.047291e-010
3.853486e-010
4.191589e-010
2.317320e-010
3.187620e-010
7.585793e-010
1.070397e-009
8.029629e-010
1.073878e-010
-4.249166e-010
-4.456230e-010
-2.058809e-010
-1.750669e-010
-4.282713e-010
-5.614006e-010
-2.171683e-010
4.313907e-010
8.177839e-010
5.766646e-010
-7.376143e-011
-5.593177e-010
-5.107815e-010
-7.132354e-011
3.097110e-010
3.240927e-010
4.407524e-011
-2.172826e-010
-2.244642e-010
-8.911775e-012
2.002676e-010
-7.287516e-009
-2.977520e-009
1.914272e-009
4.363158e-009
3.575716e-009
9.466286e-010
-1.435616e-009
-2.379869e-009
-2.050593e-009
-1.232818e-009
-3.887645e-010
5.444583e-010
1.620777e-009
2.422811e-009
2.299963e-009
1.052678e-009
-7.379175e-010
-2.136585e-009
-2.591645e-009
-2.232582e-009
-1.519543e-009
-7.384322e-010
1.117324e-010
1.051333e-009
1.910402e-009
2.435596e-009
2.523162e-009
2.269774e-009
1.823415e-009
1.260673e-009
6.150759e-010
-5.000938e-011
-6.515151e-010
-1.145007e-009
-1.529305e-009
-1.801956e-009
-1.949223e-009
-1.982185e-009
-1.945722e-009
-1.875408e-009
-1.769478e-009
-1.619007e-009
-1.442199e-009
-1.265638e-009
-1.089992e-009
-9.043875e-010
-7.243814e-010
-5.801012e-010
-4.664890e-010
-3.445620e-010
-2.069885e-010
-1.055457e-010
-8.342731e-011
-1.090662e-010
-1.216201e-010
-1.286411e-010
-2.034038e-010
-3.748371e-010
-5.743801e-010
-7.278876e-010
-8.594823e-010
-1.047937e-009
-1.296118e-009
-1.508317e-009
-1.609169e-009
-1.624285e-009
-1.604678e-009
-1.519490e-009
-1.288698e-009
-9.052418e-010
-4.519910e-010
1.499209e-011
5.243256e-010
1.077103e-009
1.532369e-009
1.699053e-009
1.544350e-009
1.219423e-009
8.326224e-010
2.840201e-010
-5.523086e-010
-1.484013e-009
-1.978577e-009
-1.612641e-009
-5.368298e-010
5.968907e-010
1.206906e-009
1.230248e-009
9.748211e-010
6.223705e-010
4.143406e-011
-8.420536e-010
-1.614555e-009
-1.542319e-009
-3.198794e-010
1.375842e-009
2.244806e-009
1.459766e-009
-4.989221e-010
-2.126042e-009
-7.678734e-009
-2.760769e-009
2.545755e-009
4.668811e-009
3.006472e-009
-2.386162e-010
-2.254969e-009
-1.928642e-009
-3.625956e-010
6.002334e-010
2.567500e-010
-4.978732e-010
-4.159567e-010
6.178532e-010
1.481339e-009
1.130806e-009
-1.920419e-010
-1.221731e-009
-1.060989e-009
-9.826060e-011
5.450569e-010
3.085953e-010
-2.919416e-010
-4.266425e-010
3.550876e-011
4.729741e-010
3.604699e-010
-1.060648e-010
-3.309627e-010
-7.519611e-011
3.261893e-010
4.693133e-010
3.809749e-010
4.000752e-010
6.904918e-010
1.056192e-009
1.240779e-009
1.250127e-009
1.284345e-009
1.437253e-009
1.595415e-009
1.632671e-009
1.587213e-009
1.583053e-009
1.644909e-009
1.682252e-009
1.642110e-009
1.587214e-009
1.590735e-009
1.622685e-009
1.605499e-009
1.546395e-009
1.531505e-009
1.583775e-009
1.611175e-009
1.544976e-009
1.463852e-009
1.491882e-009
1.597589e-009
1.606761e-009
1.450776e-009
1.295465e-009
1.320471e-009
1.431345e-009
1.345201e-009
9.893236e-010
6.579120e-010
6.440039e-010
8.085734e-010
7.184380e-010
2.423047e-010
-1.938255e-010
-1.138812e-010
3.501282e-010
5.553699e-010
1.629710e-010
-3.652525e-010
-3.038147e-010
3.739089e-010
8.470749e-010
3.969387e-010
-6.619990e-010
-1.248192e-009
-7.302163e-010
3.350067e-010
8.393087e-010
3.982394e-010
-2.423623e-010
-1.509327e-010
6.123202e-010
9.948441e-010
1.831454e-010
-1.316198e-009
-2.017164e-009
-9.546717e-010
1.196076e-009
2.587987e-009
1.881916e-009
-4.541359e-010
-2.480756e-009
-9.817867e-010
2.237651e-010
1.172625e-009
8.146474e-010
-6.362748e-010
-1.847912e-009
-1.522929e-009
3.563651e-010
2.342598e-009
2.710273e-009
1.022905e-009
-1.415022e-009
-2.735579e-009
-2.198712e-009
-7.054452e-010
3.421068e-010
5.322462e-010
6.374947e-010
1.394117e-009
2.408939e-009
2.543514e-009
1.298066e-009
-5.175367e-010
-1.652630e-009
-1.750439e-009
-1.539409e-009
-1.744656e-009
-2.157832e-009
-1.997588e-009
-9.875437e-010
2.793432e-010
1.093533e-009
1.443659e-009
1.861727e-009
2.616858e-009
3.375999e-009
3.708475e-009
3.660180e-009
3.629303e-009
3.802977e-009
3.967703e-009
3.890568e-009
3.661233e-009
3.524143e-009
3.513260e-009
3.446083e-009
3.242403e-009
3.049781e-009
2.994779e-009
2.975059e-009
2.832259e-009
2.629486e-009
2.575003e-009
2.688884e-009
2.743329e-009
2.610734e-009
2.498273e-009
2.665504e-009
3.005258e-009
3.141972e-009
2.971186e-009
2.857387e-009
3.129821e-009
3.550149e-009
3.559714e-009
3.041001e-009
2.526801e-009
2.483432e-009
2.610490e-009
2.176056e-009
1.020243e-009
-1.264016e-010
-5.190854e-010
-3.579278e-010
-5.233069e-010
-1.364290e-009
-2.116326e-009
-1.775355e-009
-3.761015e-010
9.485634e-010
1.240835e-009
7.607256e-010
5.230704e-010
9.358154e-010
1.255912e-009
5.520106e-010
-1.001964e-009
-2.098720e-009
-1.636735e-009
6.648365e-011
1.532604e-009
1.561768e-009
3.330240e-010
-8.964895e-010
-1.063445e-009
-2.258331e-010
6.622758e-010
7.520571e-010
6.138094e-011
-6.460169e-010
5.899068e-009
2.702538e-009
-1.022879e-009
-3.168004e-009
-3.142698e-009
-1.672409e-009
1.728030e-010
1.676547e-009
2.460379e-009
2.240042e-009
9.556271e-010
-8.670488e-010
-2.205535e-009
-2.290193e-009
-1.294093e-009
-1.242744e-010
5.254307e-010
7.767652e-010
1.132901e-009
1.618333e-009
1.655370e-009
8.664330e-010
-2.740876e-010
-8.715446e-010
-6.334854e-010
-1.649130e-010
-1.415244e-010
-4.426989e-010
-3.732275e-010
3.564560e-010
1.219622e-009
1.558110e-009
1.406698e-009
1.361036e-009
1.733192e-009
2.173576e-009
2.219322e-009
1.939259e-009
1.790220e-009
1.963254e-009
2.172884e-009
2.127443e-009
1.938644e-009
1.897801e-009
2.021311e-009
2.063915e-009
1.932503e-009
1.826253e-009
1.894699e-009
1.979545e-009
1.868298e-009
1.659512e-009
1.635661e-009
1.810807e-009
1.871028e-009
1.651334e-009
1.432885e-009
1.554790e-009
1.876878e-009
1.929677e-009
1.602634e-009
1.365464e-009
1.626291e-009
2.104747e-009
2.162725e-009
1.694005e-009
1.315426e-009
1.525808e-009
1.969575e-009
1.864296e-009
1.059354e-009
2.809056e-010
1.920457e-010
5.161394e-010
4.132270e-010
-3.761183e-010
-1.135753e-009
-1.050536e-009
-2.074532e-010
5.567853e-010
7.090603e-010
5.832064e-010
7.704398e-010
1.204001e-009
1.164502e-009
2.055009e-010
-1.174672e-009
-1.945878e-009
-1.544972e-009
-3.355144e-010
8.555302e-010
1.456395e-009
1.369243e-009
7.224422e-010
-2.881624e-010
-1.270033e-009
-1.616224e-009
-9.266657e-010
4.761660e-010
1.612140e-009
6.660808e-009
2.119791e-009
-2.463381e-009
-3.809432e-009
-1.876065e-009
8.167589e-010
1.816013e-009
8.013126e-010
-6.505183e-010
-9.841812e-010
-1.403713e-010
7.686766e-010
8.887817e-010
4.295118e-010
1.032459e-010
1.258074e-010
5.916218e-011
-4.511365e-010
-1.121832e-009
-1.369605e-009
-1.006739e-009
-3.534520e-010
2.843822e-010
9.596117e-010
1.793438e-009
2.574397e-009
2.917188e-009
2.773400e-009
2.515761e-009
2.426977e-009
2.319806e-009
1.851411e-009
1.083552e-009
4.663843e-010
2.553399e-010
1.970752e-010
-7.218889e-011
-5.052861e-010
-7.455682e-010
-6.682135e-010
-5.529561e-010
-6.622791e-010
-8.819830e-010
-9.450389e-010
-8.564664e-010
-8.605516e-010
-1.033205e-009
-1.162672e-009
-1.103633e-009
-1.024759e-009
-1.136363e-009
-1.326415e-009
-1.308163e-009
-1.079597e-009
-9.647558e-010
-1.125137e-009
-1.278781e-009
-1.100263e-009
-7.346641e-010
-6.278885e-010
-8.737277e-010
-1.039333e-009
-7.695560e-010
-3.135083e-010
-1.862019e-010
-4.231889e-010
-5.006612e-010
-5.602471e-011
6.065094e-010
9.401887e-010
9.035023e-010
9.787358e-010
1.457262e-009
2.012215e-009
2.136591e-009
1.793990e-009
1.375277e-009
1.088613e-009
7.068254e-010
2.865347e-011
-6.600135e-010
-8.517781e-010
-4.778124e-010
-2.762451e-011
7.200556e-011
-2.852224e-011
8.548198e-011
3.926888e-010
3.768906e-010
-2.131421e-010
-8.000034e-010
-5.138107e-010
6.657938e-010
1.589507e-009
1.049549e-009
-7.825961e-010
-2.263356e-009
-1.831792e-009
3.312199e-010
2.326760e-009
1.698152e-009
-6.061106e-010
-2.276452e-009
-1.392153e-009
1.334416e-009
3.282396e-009
2.412063e-009
-7.614097e-010
-3.584446e-009
-3.700399e-009
-1.158906e-009
1.820232e-009
3.065891e-009
2.321503e-009
9.673255e-010
2.208430e-010
-2.645793e-011
-5.864939e-010
-1.618164e-009
-2.306176e-009
-1.863667e-009
-4.818900e-010
9.336924e-010
1.776528e-009
2.197678e-009
2.603439e-009
3.033030e-009
3.211297e-009
3.019934e-009
2.644136e-009
2.273201e-009
1.888803e-009
1.425211e-009
9.585617e-010
5.913166e-010
2.505980e-010
-2.295020e-010
-8.559629e-010
-1.470733e-009
-2.014895e-009
-2.638404e-009
-3.466579e-009
-4.389069e-009
-5.212347e-009
-5.937778e-009
-6.721713e-009
-7.583171e-009
-8.335209e-009
-8.857556e-009
-9.267936e-009
-9.701125e-009
-1.004497e-008
-1.007683e-008
-9.808366e-009
-9.485340e-009
-9.211474e-009
-8.774832e-009
-7.971129e-009
-6.946734e-009
-6.027434e-009
-5.276561e-009
-4.448847e-009
-3.409286e-009
-2.377414e-009
-1.627525e-009
-1.108217e-009
-5.570812e-010
8.594220e-011
6.150488e-010
9.264177e-010
1.209523e-009
1.636077e-009
2.043196e-009
2.158125e-009
2.054093e-009
2.084402e-009
2.289852e-009
2.158275e-009
1.235880e-009
-1.477455e-010
-1.097645e-009
-1.162709e-009
-8.344396e-010
-8.105491e-010
-9.596877e-010
-4.380079e-010
1.047074e-009
2.441607e-009
2.237524e-009
2.121049e-010
-2.025545e-009
-2.494768e-009
-8.391545e-010
1.292473e-009
1.908904e-009
6.344851e-010
-1.043186e-009
-1.396351e-009
-2.066569e-010
1.124742e-009
-3.334125e-009
-2.262818e-009
-5.897930e-010
1.219828e-009
2.570863e-009
2.751969e-009
1.373298e-009
-1.003485e-009
-2.861353e-009
-2.795315e-009
-8.481824e-010
1.346136e-009
2.029676e-009
9.990968e-010
-3.219949e-010
-5.175410e-010
3.373748e-010
1.008997e-009
7.296417e-010
7.713771e-011
1.031354e-010
9.327017e-010
1.635773e-009
1.443937e-009
6.819549e-010
2.770409e-010
6.001471e-010
1.139475e-009
1.273229e-009
1.006193e-009
7.757053e-010
7.602402e-010
6.575046e-010
1.007844e-010
-9.544909e-010
-2.330774e-009
-3.935848e-009
-5.830540e-009
-8.068574e-009
-1.060496e-008
-1.335315e-008
-1.623460e-008
-1.916198e-008
-2.205003e-008
-2.486234e-008
-2.758814e-008
-3.015717e-008
-3.244097e-008
-3.436250e-008
-3.593575e-008
-3.715389e-008
-3.790751e-008
-3.808663e-008
-3.771308e-008
-3.687827e-008
-3.557692e-008
-3.371629e-008
-3.130027e-008
-2.848759e-008
-2.542128e-008
-2.211735e-008
-1.861397e-008
-1.512526e-008
-1.189366e-008
-8.941272e-009
-6.157926e-009
-3.648736e-009
-1.764911e-009
-6.507664e-010
5.209833e-011
7.936178e-010
1.482372e-009
1.588976e-009
9.807032e-010
3.412592e-010
4.477724e-010
1.159813e-009
1.524780e-009
9.886197e-010
1.489268e-010
-1.107638e-011
5.451203e-010
8.011964e-010
4.465991e-011
-1.044946e-009
-1.070848e-009
3.622368e-010
1.982799e-009
2.119561e-009
4.824842e-010
-1.533037e-009
-2.269423e-009
-1.335775e-009
2.741012e-010
1.310767e-009
1.308550e-009
6.474598e-010
-6.710508e-011
-5.131339e-010
-6.901137e-010
-4.149612e-009
-1.095843e-009
1.677743e-009
2.045795e-009
5.129977e-010
-8.911009e-010
-8.696605e-010
1.382272e-010
9.198406e-010
9.214873e-010
4.831424e-010
-1.359591e-011
-6.559078e-010
-1.492319e-009
-1.944989e-009
-1.246349e-009
5.190083e-010
2.229012e-009
2.841598e-009
2.483945e-009
2.116969e-009
2.223412e-009
2.255531e-009
1.532943e-009
3.127471e-010
-4.506336e-010
-3.274036e-010
2.952889e-011
-3.083689e-010
-1.503690e-009
-3.021184e-009
-4.577539e-009
-6.627704e-009
-9.810238e-009
-1.419890e-008
-1.933572e-008
-2.486890e-008
-3.088555e-008
-3.759304e-008
-4.489673e-008
-5.243243e-008
-5.991416e-008
-6.729684e-008
-7.460343e-008
-8.171512e-008
-8.839165e-008
-9.444267e-008
-9.980409e-008
-1.044388e-007
-1.082149e-007
-1.109326e-007
-1.124686e-007
-1.128352e-007
-1.120545e-007
-1.100231e-007
-1.066002e-007
-1.018340e-007
-9.598436e-008
-8.925167e-008
-8.160201e-008
-7.301603e-008
-6.385209e-008
-5.473295e-008
-4.600614e-008
-3.754092e-008
-2.924701e-008
-2.161848e-008
-1.542268e-008
-1.082944e-008
-7.198171e-009
-3.941139e-009
-1.334520e-009
-8.983533e-011
-1.838322e-010
-5.692042e-010
-2.701247e-010
5.483252e-010
9.833837e-010
7.377272e-010
5.705283e-010
1.223191e-009
2.273851e-009
2.506749e-009
1.377000e-009
-2.907268e-010
-1.219118e-009
-1.010853e-009
-3.104289e-010
1.624357e-010
3.148860e-010
3.601813e-010
2.388779e-010
-2.294051e-010
-7.495717e-010
-6.120992e-010
3.943244e-010
1.405707e-009
1.241635e-009
-2.004790e-010
-1.620841e-009
-1.832025e-009
1.231764e-009
3.161348e-009
1.532442e-009
-2.165833e-009
-4.266117e-009
-2.687037e-009
1.117403e-009
3.815942e-009
3.480475e-009
1.054393e-009
-1.153728e-009
-1.875050e-009
-1.552285e-009
-1.071902e-009
-5.621306e-010
3.245277e-010
1.453544e-009
2.154091e-009
2.121563e-009
1.869785e-009
2.016536e-009
2.425850e-009
2.438600e-009
1.815776e-009
9.775628e-010
1.727927e-010
-1.197122e-009
-4.080404e-009
-8.776773e-009
-1.482761e-008
-2.190676e-008
-3.042397e-008
-4.101205e-008
-5.365809e-008
-6.768116e-008
-8.252042e-008
-9.821341e-008
-1.149791e-007
-1.325839e-007
-1.503733e-007
-1.678471e-007
-1.849446e-007
-2.017022e-007
-2.178309e-007
-2.327958e-007
-2.462295e-007
-2.580709e-007
-2.682612e-007
-2.764681e-007
-2.822478e-007
-2.854094e-007
-2.860371e-007
-2.841243e-007
-2.793712e-007
-2.715069e-007
-2.607158e-007
-2.475189e-007
-2.322215e-007
-2.147357e-007
-1.951233e-007
-1.741198e-007
-1.528088e-007
-1.318012e-007
-1.110758e-007
-9.076661e-008
-7.177632e-008
-5.523108e-008
-4.142966e-008
-2.974887e-008
-1.968689e-008
-1.160336e-008
-6.105835e-009
-2.947854e-009
-1.019245e-009
5.258878e-010
1.564258e-009
1.666506e-009
1.126220e-009
8.598410e-010
1.319623e-009
1.962463e-009
2.002829e-009
1.368421e-009
5.752765e-010
-1.263248e-010
-9.430905e-010
-1.768219e-009
-1.766518e-009
-2.984184e-010
1.838563e-009
2.726276e-009
1.298432e-009
-1.232931e-009
-2.416832e-009
-1.155698e-009
1.064893e-009
1.814062e-009
4.231776e-010
-1.327924e-009
-1.376590e-010
1.772707e-009
2.697007e-009
9.687662e-010
-2.201482e-009
-3.893576e-009
-2.411749e-009
9.366247e-010
3.097923e-009
2.328877e-009
-1.487408e-010
-1.623455e-009
-7.961025e-010
1.102488e-009
2.010222e-009
1.337533e-009
2.381670e-010
-8.334730e-011
3.246153e-010
6.951499e-010
8.009395e-010
1.101813e-009
1.764050e-009
2.104187e-009
1.205270e-009
-1.313282e-009
-5.487707e-009
-1.173027e-008
-2.087883e-008
-3.348256e-008
-4.942725e-008
-6.846335e-008
-9.080309e-008
-1.168499e-007
-1.464488e-007
-1.787795e-007
-2.130643e-007
-2.490789e-007
-2.867679e-007
-3.255782e-007
-3.644912e-007
-4.026894e-007
-4.398955e-007
-4.759399e-007
-5.102237e-007
-5.418462e-007
-5.701752e-007
-5.950175e-007
-6.161660e-007
-6.330146e-007
-6.448222e-007
-6.512381e-007
-6.523037e-007
-6.479212e-007
-6.376089e-007
-6.209839e-007
-5.983205e-007
-5.703496e-007
-5.375544e-007
-5.000183e-007
-4.581266e-007
-4.131346e-007
-3.667114e-007
-3.200288e-007
-2.736643e-007
-2.284257e-007
-1.858272e-007
-1.474115e-007
-1.137961e-007
-8.475268e-008
-6.014109e-008
-4.030430e-008
-2.538780e-008
-1.468229e-008
-7.051307e-009
-1.856281e-009
9.693781e-010
1.756891e-009
1.514200e-009
1.212784e-009
9.891930e-010
4.981381e-010
-8.134947e-011
1.754545e-011
9.896302e-010
1.749333e-009
1.014461e-009
-9.251651e-010
-2.123451e-009
-1.059331e-009
1.445879e-009
2.880081e-009
1.706781e-009
-9.449038e-010
-2.493520e-009
-1.643957e-009
3.900961e-010
1.411434e-009
6.668667e-010
-5.301210e-010
-2.492800e-010
-7.098056e-011
2.616838e-010
4.988558e-010
3.574193e-010
-1.520403e-011
-1.380966e-010
7.547171e-011
1.610257e-011
-7.973184e-010
-1.718118e-009
-1.358504e-009
7.377228e-010
3.166501e-009
3.913439e-009
2.518758e-009
5.659022e-010
-1.269472e-010
5.935907e-010
1.425998e-009
1.355890e-009
5.353947e-010
-6.647467e-010
-2.893433e-009
-7.656392e-009
-1.617503e-008
-2.892469e-008
-4.629809e-008
-6.920147e-008
-9.868519e-008
-1.352433e-007
-1.787998e-007
-2.292268e-007
-2.864594e-007
-3.500342e-007
-4.188589e-007
-4.916637e-007
-5.674956e-007
-6.455412e-007
-7.246089e-007
-8.031334e-007
-8.797681e-007
-9.537179e-007
-1.024338e-006
-1.090604e-006
-1.151234e-006
-1.205283e-006
-1.252298e-006
-1.291811e-006
-1.322921e-006
-1.344590e-006
-1.356240e-006
-1.357735e-006
-1.348804e-006
-1.328788e-006
-1.297183e-006
-1.254227e-006
-1.200689e-006
-1.137194e-006
-1.064155e-006
-9.824900e-007
-8.941001e-007
-8.013774e-007
-7.064323e-007
-6.111099e-007
-5.176285e-007
-4.286886e-007
-3.466958e-007
-2.730969e-007
-2.086533e-007
-1.540300e-007
-1.096404e-007
-7.496402e-008
-4.854477e-008
-2.892780e-008
-1.530189e-008
-6.953932e-009
-2.448237e-009
3.052996e-011
1.455181e-009
1.633235e-009
4.533193e-010
-9.481160e-010
-9.015119e-010
8.917705e-010
2.763119e-009
2.800481e-009
9.542241e-010
-9.652841e-010
-1.322593e-009
-2.796720e-010
7.184699e-010
6.807027e-010
-7.008320e-011
-6.052762e-010
-4.963066e-010
-5.710177e-011
2.279717e-010
2.197304e-010
1.101599e-010
1.776359e-010
-1.873685e-009
-2.636961e-009
-5.932819e-010
2.460140e-009
3.621188e-009
2.020630e-009
-6.295931e-010
-2.208139e-009
-2.166055e-009
-1.269573e-009
-1.638719e-010
1.074537e-009
2.200511e-009
2.532788e-009
1.864467e-009
1.136600e-009
1.522279e-009
2.863582e-009
3.541252e-009
2.017752e-009
-1.997269e-009
-8.287588e-009
-1.769639e-008
-3.240508e-008
-5.469063e-008
-8.593622e-008
-1.270586e-007
-1.794078e-007
-2.446698e-007
-3.238841e-007
-4.168958e-007
-5.227745e-007
-6.403679e-007
-7.682305e-007
-9.043023e-007
-1.046064e-006
-1.191046e-006
-1.337018e-006
-1.481745e-006
-1.622908e-006
-1.758462e-006
-1.886918e-006
-2.007093e-006
-2.117670e-006
-2.217252e-006
-2.304798e-006
-2.379742e-006
-2.441527e-006
-2.489218e-006
-2.521758e-006
-2.538488e-006
-2.539121e-006
-2.523209e-006
-2.489931e-006
-2.438579e-006
-2.369059e-006
-2.281715e-006
-2.176860e-006
-2.054882e-006
-1.916900e-006
-1.765080e-006
-1.602241e-006
-1.431464e-006
-1.256332e-006
-1.081267e-006
-9.111184e-007
-7.502489e-007
-6.021617e-007
-4.698459e-007
-3.558152e-007
-2.612826e-007
-1.854809e-007
-1.262970e-007
-8.163763e-008
-4.983232e-008
-2.874399e-008
-1.524149e-008
-6.278174e-009
-4.141140e-010
2.303046e-009
2.101351e-009
6.209660e-010
-7.818192e-011
6.767330e-010
1.873933e-009
2.272317e-009
1.665006e-009
6.150811e-010
-4.507454e-010
-1.347560e-009
-1.637997e-009
-8.165494e-010
7.709280e-010
1.771334e-009
1.166752e-009
-3.978326e-010
-1.206595e-009
-4.943379e-010
6.323958e-010
2.807834e-009
-1.307237e-009
-3.942674e-009
-2.135852e-009
1.922647e-009
3.865808e-009
2.048504e-009
-1.069363e-009
-2.124103e-009
-5.328978e-010
1.447987e-009
1.738321e-009
5.895265e-010
-3.275256e-010
-9.409695e-011
8.673754e-010
1.915031e-009
2.883541e-009
3.361426e-009
1.940319e-009
-3.221859e-009
-1.338724e-008
-2.947394e-008
-5.339304e-008
-8.861319e-008
-1.390802e-007
-2.078554e-007
-2.970446e-007
-4.085958e-007
-5.443386e-007
-7.048910e-007
-8.887680e-007
-1.092755e-006
-1.312927e-006
-1.545108e-006
-1.784651e-006
-2.026443e-006
-2.265511e-006
-2.497633e-006
-2.719394e-006
-2.927935e-006
-3.120942e-006
-3.296829e-006
-3.454679e-006
-3.593927e-006
-3.714229e-006
-3.815610e-006
-3.898504e-006
-3.963400e-006
-4.010510e-006
-4.039871e-006
-4.051639e-006
-4.046001e-006
-4.022741e-006
-3.981059e-006
-3.919878e-006
-3.838110e-006
-3.734504e-006
-3.607489e-006
-3.455558e-006
-3.277906e-006
-3.074692e-006
-2.846987e-006
-2.597096e-006
-2.329282e-006
-2.049961e-006
-1.766868e-006
-1.487995e-006
-1.221296e-006
-9.747129e-007
-7.552961e-007
-5.675127e-007
-4.123854e-007
-2.884591e-007
-1.933478e-007
-1.240368e-007
-7.614941e-008
-4.407725e-008
-2.267753e-008
-8.823931e-009
-1.045472e-009
2.052823e-009
2.444592e-009
1.846042e-009
9.865662e-010
1.433596e-010
-1.006264e-010
6.711113e-010
1.683651e-009
1.394549e-009
-5.376794e-010
-2.288926e-009
-1.714480e-009
9.010558e-010
2.788394e-009
1.825212e-009
-8.572989e-010
-2.164936e-009
-7.829950e-010
1.274700e-009
5.295923e-009
8.878788e-010
-2.783054e-009
-2.677101e-009
-1.306577e-010
1.357724e-009
2.874950e-010
-1.380479e-009
-9.091404e-010
1.742437e-009
3.830243e-009
3.119529e-009
4.912374e-010
-1.199344e-009
-3.975873e-010
1.713245e-009
2.870917e-009
1.851108e-009
-1.634713e-009
-8.627666e-009
-2.172842e-008
-4.435877e-008
-8.013135e-008
-1.334202e-007
-2.099956e-007
-3.162454e-007
-4.574699e-007
-6.369325e-007
-8.560436e-007
-1.114392e-006
-1.408852e-006
-1.732789e-006
-2.076686e-006
-2.429891e-006
-2.781967e-006
-3.123035e-006
-3.443908e-006
-3.736808e-006
-3.996257e-006
-4.219231e-006
-4.404555e-006
-4.552355e-006
-4.664007e-006
-4.742185e-006
-4.790588e-006
-4.813505e-006
-4.815583e-006
-4.801743e-006
-4.776947e-006
-4.745866e-006
-4.712694e-006
-4.681064e-006
-4.653786e-006
-4.632434e-006
-4.617071e-006
-4.606187e-006
-4.596513e-006
-4.582724e-006
-4.557529e-006
-4.512355e-006
-4.438129e-006
-4.325803e-006
-4.167133e-006
-3.956308e-006
-3.691851e-006
-3.377461e-006
-3.021502e-006
-2.636193e-006
-2.237191e-006
-1.842616e-006
-1.470447e-006
-1.135179e-006
-8.459286e-007
-6.068114e-007
-4.180679e-007
-2.764109e-007
-1.751669e-007
-1.056721e-007
-5.964478e-008
-3.060622e-008
-1.351295e-008
-4.050809e-009
9.605448e-010
2.889111e-009
2.088262e-009
-2.484302e-010
-1.684914e-009
-5.829722e-010
1.914949e-009
2.943951e-009
1.243696e-009
-1.246228e-009
-1.677748e-009
2.377642e-010
1.910903e-009
1.138585e-009
-1.139156e-009
-2.051931e-009
-4.344442e-010
1.702992e-009
3.743964e-009
1.893416e-009
-1.808170e-010
-1.216644e-009
-1.128399e-009
-8.352450e-010
-1.005706e-009
-1.093872e-009
-4.928414e-011
1.995407e-009
3.380614e-009
2.781490e-009
1.068902e-009
5.298826e-010
2.067611e-009
3.763201e-009
2.532994e-009
-3.413109e-009
-1.460244e-008
-3.278571e-008
-6.280256e-008
-1.119451e-007
-1.882864e-007
-3.001729e-007
-4.565950e-007
-6.664258e-007
-9.359689e-007
-1.266507e-006
-1.653342e-006
-2.085883e-006
-2.547754e-006
-3.017262e-006
-3.469416e-006
-3.879348e-006
-4.225410e-006
-4.490662e-006
-4.663252e-006
-4.736813e-006
-4.710888e-006
-4.590460e-006
-4.384449e-006
-4.104222e-006
-3.762983e-006
-3.375695e-006
-2.958680e-006
-2.528819e-006
-2.102952e-006
-1.697701e-006
-1.329337e-006
-1.013382e-006
-7.640643e-007
-5.937943e-007
-5.126089e-007
-5.275598e-007
-6.420904e-007
-8.552723e-007
-1.160775e-006
-1.545941e-006
-1.991616e-006
-2.472768e-006
-2.959306e-006
-3.417105e-006
-3.810177e-006
-4.104580e-006
-4.272974e-006
-4.298178e-006
-4.175290e-006
-3.913061e-006
-3.534267e-006
-3.073474e-006
-2.571484e-006
-2.068320e-006
-1.597690e-006
-1.184053e-006
-8.413889e-007
-5.730705e-007
-3.735784e-007
-2.322457e-007
-1.371358e-007
-7.687925e-008
-4.077847e-008
-1.940194e-008
-6.349660e-009
9.123342e-010
2.942292e-009
1.311482e-009
-7.211817e-010
-5.677674e-010
1.422681e-009
2.807061e-009
2.057609e-009
1.502601e-010
-9.134159e-010
-5.146975e-010
1.888409e-010
2.584185e-011
-7.113760e-010
-8.253502e-010
1.193028e-010
1.181835e-009
-1.945318e-009
5.057814e-010
2.076264e-009
1.271954e-009
-4.681160e-010
-1.103005e-009
-4.149284e-010
3.580156e-010
4.986802e-010
4.603241e-010
7.689704e-010
1.295186e-009
1.892964e-009
2.856633e-009
3.911945e-009
3.052966e-009
-2.885348e-009
-1.670045e-008
-4.100667e-008
-8.072925e-008
-1.452255e-007
-2.475705e-007
-4.019335e-007
-6.216373e-007
-9.182481e-007
-1.299468e-006
-1.764657e-006
-2.300051e-006
-2.876726e-006
-3.452153e-006
-3.973996e-006
-4.385186e-006
-4.630317e-006
-4.662815e-006
-4.450665e-006
-3.978771e-006
-3.248209e-006
-2.274177e-006
-1.083630e-006
2.877509e-007
1.799304e-006
3.408624e-006
5.073176e-006
6.750724e-006
8.399827e-006
9.980732e-006
1.145593e-005
1.279002e-005
1.394947e-005
1.490279e-005
1.562107e-005
1.607853e-005
1.625316e-005
1.612744e-005
1.568947e-005
1.493463e-005
1.386795e-005
1.250664e-005
1.088200e-005
9.040563e-006
7.044950e-006
4.973811e-006
2.919174e-006
9.801351e-007
-7.461179e-007
-2.174232e-006
-3.240794e-006
-3.913870e-006
-4.199482e-006
-4.141509e-006
-3.813743e-006
-3.306537e-006
-2.712090e-006
-2.111263e-006
-1.563799e-006
-1.103956e-006
-7.428677e-007
-4.758090e-007
-2.898213e-007
-1.683381e-007
-9.350608e-008
-4.876061e-008
-2.191497e-008
-6.352624e-009
9.765045e-010
2.624787e-009
1.725053e-009
8.109588e-010
7.049002e-010
9.879231e-010
1.137757e-009
9.412889e-010
3.255872e-010
-5.377114e-010
-1.038099e-009
-6.232695e-010
3.735147e-010
8.858868e-010
3.782108e-010
-4.144335e-010
-6.964908e-009
-1.291296e-009
3.086412e-009
2.699468e-009
4.273542e-011
-7.179950e-010
1.030494e-009
2.429532e-009
1.463461e-009
-5.347030e-010
-9.687515e-010
7.435992e-010
2.867853e-009
3.484474e-009
1.496890e-009
-4.696300e-009