# vtk DataFile Version 3.0
vtk output
ASCII
DATASET STRUCTURED_POINTS
DIMENSIONS 100 100 1
SPACING 1 1 1
ORIGIN 0 0 0
POINT_DATA 10000
SCALARS SFBox_profile double
LOOKUP_TABLE default 
0.000000e+000
0.000000e+000
0.000000e+000
0.000000e+000
0.000000e+000
0.000000e+000
0.000000e+000
0.000000e+000
0.000000e+000
0.000000e+000
0.000000e+000
0.000000e+000
0.000000e+000
0.000000e+000
0.000000e+000
0.000000e+000
0.000000e+000
0.000000e+000
0.000000e+000
0.000000e+000
0.000000e+000
0.000000e+000
0.000000e+000
0.000000e+000
0.000000e+000
0.000000e+000
0.000000e+000
0.000000e+000
0.000000e+000
0.000000e+000
0.000000e+000
0.000000e+000
0.000000e+000
0.000000e+000
0.000000e+000
0.000000e+000
0.000000e+000
0.000000e+000
0.000000e+000
0.000000e+000
0.000000e+000
0.000000e+000
0.000000e+000
0.000000e+000
0.000000e+000
0.000000e+000
0.000000e+000
0.000000e+000
0.000000e+000
0.000000e+000
0.000000e+000
0.000000e+000
0.000000e+000
0.000000e+000
0.000000e+000
0.000000e+000
0.000000e+000
0.000000e+000
0.000000e+000
0.000000e+000
0.000000e+000
0.000000e+000
0.000000e+000
0.000000e+000
0.000000e+000
0.000000e+000
0.000000e+000
0.000000e+000
0.000000e+000
0.000000e+000
0.000000e+000
0.000000e+000
0.000000e+000
0.000000e+000
0.000000e+000
0.000000e+000
0.000000e+000
0.000000e+000
0.000000e+000
0.000000e+000
0.000000e+000
0.000000e+000
0.000000e+000
0.000000e+000
0.000000e+000
0.000000e+000
0.000000e+000
0.000000e+000
0.000000e+000
0.000000e+000
0.000000e+000
0.000000e+000
0.000000e+000
0.000000e+000
0.000000e+000
0.000000e+000
0.000000e+000
0.000000e+000
0.000000e+000
0.000000e+000
-1.430036e-010
-5.170751e-011
6.776892e-011
1.399126e-010
1.274039e-010
5.065420e-011
-3.423042e-011
-7.832946e-011
-6.976411e-011
-3.183756e-011
1.395529e-012
8.811643e-012
-9.752507e-012
-3.904037e-011
-5.829181e-011
-5.114394e-011
-1.492334e-011
3.479315e-011
7.100619e-011
7.323869e-011
4.437855e-011
1.091219e-011
3.842433e-012
3.490833e-011
8.709013e-011
1.264055e-010
1.250538e-010
7.834476e-011
4.943557e-012
-6.674996e-011
-1.156109e-010
-1.381687e-010
-1.472290e-010
-1.601967e-010
-1.847192e-010
-2.118021e-010
-2.222315e-010
-2.021560e-010
-1.555740e-010
-1.033593e-010
-6.903252e-011
-6.194815e-011
-7.134110e-011
-7.656660e-011
-6.499776e-011
-4.200348e-011
-2.449051e-011
-2.432322e-011
-3.729145e-011
-4.796186e-011
-4.533200e-011
-3.405703e-011
-3.053568e-011
-4.743508e-011
-8.137432e-011
-1.155678e-010
-1.348050e-010
-1.384924e-010
-1.393806e-010
-1.492328e-010
-1.654121e-010
-1.716166e-010
-1.524775e-010
-1.086377e-010
-5.818739e-011
-2.277656e-011
-1.051893e-011
-1.043668e-011
-3.078778e-012
2.197922e-011
5.666734e-011
8.068402e-011
7.820484e-011
5.139523e-011
1.961453e-011
4.998094e-012
1.577361e-011
3.949420e-011
5.109152e-011
3.091946e-011
-1.944710e-011
-7.543290e-011
-1.042840e-010
-8.709975e-011
-3.213956e-011
3.097873e-011
7.159619e-011
7.660243e-011
5.353919e-011
1.916102e-011
-1.314122e-011
-3.627935e-011
-4.517111e-011
-3.547408e-011
-9.268342e-012
2.019139e-011
3.417595e-011
2.272053e-011
-5.589726e-012
-2.883363e-011
-2.211378e-011
6.372827e-012
4.397384e-011
6.417619e-011
4.907511e-011
2.364394e-012
-5.052673e-011
-7.858175e-011
-6.709586e-011
-2.771562e-011
1.178935e-011
2.888211e-011
2.073544e-011
1.920998e-012
-9.168842e-012
-2.874530e-012
1.754805e-011
3.953302e-011
4.862500e-011
3.650749e-011
6.562355e-012
-2.692969e-011
-4.690699e-011
-4.417947e-011
-2.321014e-011
1.262246e-012
1.432952e-011
1.031015e-011
-4.811459e-012
-1.857547e-011
-2.079881e-011
-1.023762e-011
4.946231e-012
1.324244e-011
8.605464e-012
-4.104644e-012
-1.189855e-011
-3.689001e-012
2.004849e-011
4.630367e-011
5.883143e-011
5.076436e-011
3.002574e-011
1.251852e-011
8.863915e-012
1.636581e-011
2.311292e-011
2.020115e-011
1.041542e-011
5.002390e-012
1.198306e-011
2.759217e-011
3.915576e-011
3.677840e-011
2.259307e-011
8.589345e-012
5.220536e-012
1.177545e-011
1.771677e-011
1.364990e-011
1.097120e-012
-8.556284e-012
-5.022760e-012
1.038282e-011
2.475652e-011
2.438121e-011
6.678550e-012
-1.711884e-011
-3.091896e-011
-2.661135e-011
-9.943462e-012
4.915542e-012
7.107932e-012
-2.461209e-012
-1.251334e-011
-1.099351e-011
5.031415e-012
2.646458e-011
3.824169e-011
3.025367e-011
5.201083e-012
-2.255049e-011
-3.645977e-011
-2.897867e-011
-6.279198e-012
1.678176e-011
2.707499e-011
2.099242e-011
4.823098e-012
-1.071736e-011
-1.685953e-011
-1.093620e-011
2.295113e-012
1.295751e-011
1.256004e-011
1.306047e-012
-1.092902e-011
-1.314827e-011
-4.188911e-012
5.748913e-012
1.188229e-010
6.696543e-011
9.165277e-013
-4.017931e-011
-4.672142e-011
-3.911343e-011
-4.073502e-011
-5.308545e-011
-5.760738e-011
-3.880002e-011
-1.522950e-012
3.519424e-011
5.750758e-011
6.617711e-011
6.833386e-011
6.533300e-011
5.210436e-011
2.662693e-011
-4.351111e-012
-3.084967e-011
-4.932707e-011
-6.506187e-011
-8.469278e-011
-1.070903e-010
-1.220707e-010
-1.179429e-010
-9.047308e-011
-4.564960e-011
5.002288e-012
5.167731e-011
9.036711e-011
1.219111e-010
1.481961e-010
1.689116e-010
1.814499e-010
1.840534e-010
1.789206e-010
1.713863e-010
1.653691e-010
1.596243e-010
1.489400e-010
1.295705e-010
1.036442e-010
7.816290e-011
5.966616e-011
4.957136e-011
4.430003e-011
3.997367e-011
3.690184e-011
3.907919e-011
4.940652e-011
6.584947e-011
8.255163e-011
9.493535e-011
1.036174e-010
1.130797e-010
1.265290e-010
1.421499e-010
1.544201e-010
1.590731e-010
1.564841e-010
1.500467e-010
1.414292e-010
1.277568e-010
1.039043e-010
6.788649e-011
2.423384e-011
-1.781357e-011
-4.988682e-011
-6.901488e-011
-7.735006e-011
-7.829206e-011
-7.328814e-011
-6.195151e-011
-4.465073e-011
-2.446909e-011
-6.216478e-012
6.808670e-012
1.546586e-011
2.409852e-011
3.603927e-011
4.877999e-011
5.392899e-011
4.333473e-011
1.681680e-011
-1.567097e-011
-4.042269e-011
-4.938228e-011
-4.347604e-011
-2.745853e-011
-3.937014e-012
2.468073e-011
4.880962e-011
5.181114e-011
2.415589e-011
-2.101379e-011
-5.158464e-011
-4.254423e-011
-1.127291e-012
3.632043e-011
1.616679e-010
7.543833e-011
-3.725920e-011
-1.059404e-010
-9.936484e-011
-4.344254e-011
6.121408e-012
1.221591e-011
-1.658514e-011
-4.169282e-011
-3.305839e-011
8.134104e-012
5.859961e-011
9.538861e-011
1.067997e-010
8.922754e-011
4.478782e-011
-1.392014e-011
-6.310697e-011
-8.108289e-011
-6.656166e-011
-4.242665e-011
-3.778776e-011
-6.320437e-011
-1.013448e-010
-1.207613e-010
-1.000592e-010
-4.263710e-011
2.780569e-011
8.469985e-011
1.146723e-010
1.222001e-010
1.223083e-010
1.279030e-010
1.407912e-010
1.524093e-010
1.526391e-010
1.386501e-010
1.165794e-010
9.577104e-011
8.147428e-011
7.207354e-011
6.201262e-011
4.715203e-011
2.840538e-011
1.112410e-011
9.285261e-013
-2.599742e-013
5.126192e-012
1.272039e-011
1.952317e-011
2.573994e-011
3.393624e-011
4.642763e-011
6.294892e-011
8.036586e-011
9.490899e-011
1.052385e-010
1.135143e-010
1.230898e-010
1.343577e-010
1.424948e-010
1.398143e-010
1.214164e-010
8.961158e-011
5.299221e-011
2.041191e-011
-5.084826e-012
-2.710902e-011
-5.053244e-011
-7.438208e-011
-9.007247e-011
-8.774453e-011
-6.564613e-011
-3.415192e-011
-1.005221e-011
-4.548227e-012
-1.389763e-011
-2.052565e-011
-5.541002e-012
3.498934e-011
8.271118e-011
1.067834e-010
8.577086e-011
2.527856e-011
-4.376894e-011
-8.622817e-011
-8.602860e-011
-5.257688e-011
-7.973684e-012
2.960908e-011
5.139437e-011
5.341806e-011
3.421769e-011
-1.519501e-013
-3.291161e-011
-4.468324e-011
-2.824712e-011
4.301049e-012
2.954377e-011
7.822561e-011
2.808396e-011
-4.627547e-011
-1.019050e-010
-9.963490e-011
-3.456862e-011
5.189505e-011
9.977734e-011
7.953768e-011
1.604649e-011
-3.653278e-011
-4.249415e-011
-8.540781e-012
3.188976e-011
4.929212e-011
3.413891e-011
-5.292804e-012
-4.965490e-011
-7.450471e-011
-6.125192e-011
-1.199459e-011
4.591161e-011
7.610953e-011
6.034736e-011
1.310510e-011
-2.962654e-011
-3.809980e-011
-1.028692e-011
2.907203e-011
4.872075e-011
3.324125e-011
-8.270369e-012
-5.095584e-011
-7.238737e-011
-6.720675e-011
-4.857022e-011
-3.636608e-011
-4.168465e-011
-5.939530e-011
-7.391389e-011
-7.259695e-011
-5.567585e-011
-3.544226e-011
-2.610443e-011
-3.251288e-011
-4.679046e-011
-5.563030e-011
-5.175749e-011
-3.961157e-011
-3.079775e-011
-3.359515e-011
-4.577615e-011
-5.702932e-011
-5.850369e-011
-5.077715e-011
-4.312534e-011
-4.454445e-011
-5.460296e-011
-6.283759e-011
-5.779431e-011
-3.787020e-011
-1.390038e-011
-5.661698e-013
-3.892415e-012
-1.578686e-011
-2.083247e-011
-9.944635e-012
1.101986e-011
2.553427e-011
2.050699e-011
-1.468704e-012
-2.274193e-011
-2.455786e-011
-3.106150e-012
2.566203e-011
3.704690e-011
1.687245e-011
-2.544807e-011
-6.084373e-011
-6.043927e-011
-1.791328e-011
4.307525e-011
8.390189e-011
7.817460e-011
3.030962e-011
-2.883177e-011
-6.472317e-011
-6.106578e-011
-2.536017e-011
2.016318e-011
5.095958e-011
5.040566e-011
1.887634e-011
-2.252274e-011
-4.358357e-011
-3.001270e-011
1.530327e-012
1.938398e-011
1.055348e-011
-6.504916e-012
-4.130911e-011
-3.512547e-011
-4.161928e-011
-6.474090e-011
-7.345300e-011
-2.737931e-011
7.311820e-011
1.697089e-010
1.902357e-010
1.146299e-010
-5.715186e-012
-9.499030e-011
-1.160336e-010
-8.810896e-011
-5.343690e-011
-3.723992e-011
-3.764648e-011
-3.975749e-011
-2.954697e-011
1.089255e-012
5.084864e-011
1.050784e-010
1.399597e-010
1.378273e-010
1.018528e-010
5.520417e-011
2.327306e-011
1.371698e-011
1.158224e-011
-6.883408e-012
-5.407587e-011
-1.206514e-010
-1.817274e-010
-2.138329e-010
-2.101818e-010
-1.841069e-010
-1.587427e-010
-1.501784e-010
-1.563500e-010
-1.603629e-010
-1.456057e-010
-1.101552e-010
-6.881927e-011
-4.146389e-011
-3.726017e-011
-4.791344e-011
-5.574775e-011
-4.959133e-011
-3.435013e-011
-2.587474e-011
-3.595975e-011
-6.136382e-011
-8.697983e-011
-9.990402e-011
-1.011617e-010
-1.042141e-010
-1.213992e-010
-1.508904e-010
-1.767085e-010
-1.822385e-010
-1.649688e-010
-1.386120e-010
-1.204195e-010
-1.152407e-010
-1.107533e-010
-8.853221e-011
-4.165800e-011
1.673597e-011
6.194909e-011
7.653580e-011
6.387991e-011
4.509838e-011
4.175202e-011
5.841523e-011
7.874397e-011
7.806725e-011
4.321149e-011
-1.552989e-011
-6.984873e-011
-9.272165e-011
-7.688584e-011
-3.791836e-011
-2.279471e-013
2.093208e-011
2.607533e-011
2.394036e-011
2.096392e-011
1.919187e-011
2.033580e-011
2.476735e-011
2.488436e-011
7.288472e-012
-2.964017e-011
-6.220664e-011
-5.721628e-011
-9.288277e-012
4.336874e-011
5.236524e-011
1.116111e-011
-3.446207e-011
-8.724949e-011
-7.625974e-011
-6.072405e-011
-4.706913e-011
-3.018766e-011
9.526065e-012
8.445504e-011
1.692057e-010
2.040315e-010
1.454265e-010
1.545122e-011
-1.092614e-010
-1.626523e-010
-1.398706e-010
-8.471697e-011
-3.930370e-011
-1.445965e-011
-4.568403e-013
1.096794e-011
2.170934e-011
3.458929e-011
5.396562e-011
7.780620e-011
9.485350e-011
9.352450e-011
7.316082e-011
4.466856e-011
1.973073e-011
2.237086e-013
-2.165852e-011
-5.357077e-011
-9.336690e-011
-1.283162e-010
-1.435160e-010
-1.327573e-010
-1.039967e-010
-7.513493e-011
-6.177370e-011
-6.536309e-011
-7.198522e-011
-6.417022e-011
-3.620115e-011
3.792059e-013
2.601500e-011
2.939873e-011
1.676025e-011
5.773877e-012
9.294813e-012
2.376574e-011
3.314139e-011
2.466396e-011
1.307524e-012
-2.112167e-011
-2.923035e-011
-2.487992e-011
-2.333308e-011
-3.829332e-011
-6.811719e-011
-9.659998e-011
-1.076732e-010
-1.000047e-010
-8.747845e-011
-8.516512e-011
-9.416844e-011
-9.943628e-011
-8.284804e-011
-4.016285e-011
1.335062e-011
5.374963e-011
6.634771e-011
5.570896e-011
4.011340e-011
3.616310e-011
4.641402e-011
5.897919e-011
5.824666e-011
3.772813e-011
4.577923e-012
-2.750326e-011
-4.986121e-011
-6.362518e-011
-7.281869e-011
-7.379805e-011
-5.472570e-011
-8.899327e-012
5.125669e-011
9.699665e-011
1.038684e-010
7.057234e-011
1.710436e-011
-3.316592e-011
-6.610853e-011
-7.486774e-011
-5.579320e-011
-1.389264e-011
3.084297e-011
5.196300e-011
3.707571e-011
-3.294952e-013
-3.062609e-011
-5.830206e-011
-8.658380e-011
-8.976785e-011
-3.580755e-011
4.225286e-011
8.630153e-011
8.079571e-011
6.025136e-011
5.412034e-011
4.907150e-011
1.734479e-011
-3.493137e-011
-6.905095e-011
-6.015059e-011
-2.401144e-011
6.423139e-012
1.664620e-011
1.379791e-011
5.119994e-012
-1.138863e-011
-3.456091e-011
-5.051930e-011
-4.349655e-011
-1.406195e-011
1.826840e-011
3.176233e-011
2.086249e-011
-1.036393e-012
-1.449883e-011
-9.223424e-012
1.098961e-011
3.501652e-011
5.480496e-011
7.045941e-011
8.712113e-011
1.072330e-010
1.253571e-010
1.313818e-010
1.204463e-010
9.987615e-011
8.482128e-011
8.554155e-011
9.830009e-011
1.088048e-010
1.053258e-010
8.945376e-011
7.434511e-011
7.195400e-011
8.156043e-011
9.099020e-011
8.941781e-011
7.870571e-011
7.166092e-011
7.903675e-011
9.838088e-011
1.158437e-010
1.192004e-010
1.089917e-010
9.669294e-011
9.212561e-011
9.299102e-011
8.715279e-011
6.533519e-011
3.160363e-011
1.456129e-012
-1.086020e-011
-4.242554e-012
9.016989e-012
1.435615e-011
6.662773e-012
-7.663539e-012
-1.865908e-011
-2.203958e-011
-2.119226e-011
-2.124605e-011
-2.178311e-011
-1.583338e-011
2.473961e-012
2.794468e-011
4.282722e-011
2.879102e-011
-1.521796e-011
-6.539307e-011
-8.629013e-011
-5.705613e-011
1.121950e-011
8.201399e-011
1.166896e-010
9.525975e-011
2.472474e-011
-6.171060e-011
-1.152582e-010
-9.950486e-011
-2.431079e-011
5.225522e-011
7.260305e-011
3.522493e-011
-9.023959e-012
-1.928551e-011
-7.420114e-012
-5.733149e-011
-7.405662e-011
-5.277511e-011
3.303478e-011
1.256462e-010
1.298785e-010
2.013718e-011
-1.165037e-010
-1.612589e-010
-8.246858e-011
4.129752e-011
1.117482e-010
1.023760e-010
5.622698e-011
1.995113e-011
4.226906e-012
-1.136436e-012
-2.791257e-012
-5.007283e-012
-1.832023e-011
-5.003187e-011
-8.819788e-011
-1.065958e-010
-9.025466e-011
-5.253489e-011
-2.359031e-011
-2.203000e-011
-3.782901e-011
-4.135551e-011
-8.739920e-012
5.904367e-011
1.381136e-010
2.003027e-010
2.318734e-010
2.386408e-010
2.360057e-010
2.338219e-010
2.293856e-010
2.140434e-010
1.857279e-010
1.539406e-010
1.320778e-010
1.254117e-010
1.270725e-010
1.255784e-010
1.158952e-010
1.031459e-010
9.601089e-011
9.730043e-011
1.017479e-010
1.030245e-010
1.017581e-010
1.054268e-010
1.202947e-010
1.443147e-010
1.687098e-010
1.863919e-010
1.977342e-010
2.073992e-010
2.161773e-010
2.173078e-010
2.019545e-010
1.684734e-010
1.256311e-010
8.601666e-011
5.587073e-011
3.138473e-011
5.264119e-012
-2.342849e-011
-4.691443e-011
-5.667379e-011
-5.359497e-011
-4.939686e-011
-5.655644e-011
-7.512416e-011
-8.868862e-011
-7.514057e-011
-2.570214e-011
4.322316e-011
9.735831e-011
1.075674e-010
7.070041e-011
1.089220e-011
-3.922262e-011
-5.958073e-011
-4.828870e-011
-1.406071e-011
2.776357e-011
5.228078e-011
3.376645e-011
-2.573265e-011
-7.976502e-011
-7.163427e-011
1.674757e-012
7.340628e-011
7.463460e-011
1.326944e-011
-3.666852e-011
-2.737955e-011
7.524464e-012
-1.421026e-010
-4.359188e-011
8.214745e-011
1.600693e-010
1.530733e-010
5.853876e-011
-9.343703e-011
-2.262590e-010
-2.431895e-010
-1.113173e-010
8.536240e-011
2.083271e-010
1.887564e-010
7.714841e-011
-2.592563e-011
-6.410142e-011
-4.681937e-011
-8.548388e-012
2.447767e-011
3.520853e-011
1.358400e-011
-3.243327e-011
-7.383946e-011
-8.235680e-011
-5.734336e-011
-2.652696e-011
-1.801408e-011
-3.210341e-011
-4.049136e-011
-1.272805e-011
5.545472e-011
1.372318e-010
1.956211e-010
2.105840e-010
1.903694e-010
1.606769e-010
1.428971e-010
1.395636e-010
1.376788e-010
1.248922e-010
1.025587e-010
8.395636e-011
8.112214e-011
9.410829e-011
1.120795e-010
1.232524e-010
1.234893e-010
1.167237e-010
1.089772e-010
1.030444e-010
9.853038e-011
9.514188e-011
9.414705e-011
9.663192e-011
1.018930e-010
1.088260e-010
1.183993e-010
1.327825e-010
1.508408e-010
1.653938e-010
1.669175e-010
1.515805e-010
1.257248e-010
1.010397e-010
8.384892e-011
6.892110e-011
4.505860e-011
8.311763e-012
-3.029579e-011
-5.176800e-011
-4.585241e-011
-2.233779e-011
-5.623135e-012
-1.548232e-011
-4.935492e-011
-8.167393e-011
-8.268259e-011
-4.258122e-011
1.954582e-011
7.071484e-011
8.993717e-011
8.098376e-011
6.055015e-011
3.634057e-011
1.692285e-012
-4.583205e-011
-8.676525e-011
-9.148747e-011
-5.292595e-011
5.438735e-013
3.237683e-011
3.387766e-011
2.495732e-011
2.256072e-011
2.118271e-011
8.542220e-012
-1.082410e-011
-1.887035e-011
-8.372275e-012
6.230117e-012
-2.159516e-010
1.758228e-013
2.110883e-010
2.300833e-010
7.863068e-011
-8.748709e-011
-1.631620e-010
-1.573828e-010
-1.103735e-010
-2.869203e-011
7.633249e-011
1.447905e-010
1.162203e-010
7.879119e-012
-9.345143e-011
-1.188397e-010
-7.253922e-011
-2.822381e-012
5.254715e-011
8.094617e-011
7.979796e-011
5.282123e-011
1.884694e-011
5.176910e-012
2.272826e-011
5.263541e-011
6.366232e-011
4.339075e-011
1.065275e-011
-2.944867e-012
1.675440e-011
5.369859e-011
7.680198e-011
6.708768e-011
3.243165e-011
-5.892893e-013
-8.381410e-012
1.272843e-011
4.679042e-011
7.396457e-011
8.745448e-011
9.706515e-011
1.177257e-010
1.549781e-010
2.001917e-010
2.376023e-010
2.555369e-010
2.529640e-010
2.377805e-010
2.197916e-010
2.043671e-010
1.906005e-010
1.737432e-010
1.496615e-010
1.189319e-010
8.814804e-011
6.653872e-011
5.891817e-011
6.049028e-011
5.944049e-011
4.679451e-011
2.544678e-011
9.323502e-012
1.150197e-011
3.095631e-011
5.088028e-011
5.220056e-011
3.125951e-011
4.947112e-012
-2.883165e-012
1.758574e-011
5.211432e-011
7.251612e-011
5.924195e-011
1.800678e-011
-2.411208e-011
-4.082092e-011
-2.816207e-011
-5.653187e-012
4.720983e-012
1.311006e-012
3.246720e-012
2.604373e-011
5.778821e-011
6.422626e-011
2.124983e-011
-5.774860e-011
-1.268889e-010
-1.384891e-010
-7.404710e-011
3.944301e-011
1.348164e-010
1.431676e-010
5.491964e-011
-5.584292e-011
-9.452642e-011
-4.457166e-011
1.962798e-011
3.042541e-011
6.628382e-012
-1.180683e-010
4.246959e-011
1.742534e-010
1.254345e-010
-4.932526e-011
-1.595853e-010
-1.018386e-010
3.483286e-011
9.747174e-011
5.115742e-011
-1.466414e-011
-2.899895e-011
-1.897575e-011
-4.008857e-011
-8.663082e-011
-1.069999e-010
-7.722466e-011
-2.140085e-011
2.995388e-011
6.927288e-011
9.853441e-011
1.130125e-010
1.109322e-010
1.056903e-010
1.139005e-010
1.332941e-010
1.415405e-010
1.195495e-010
7.271629e-011
2.722940e-011
6.518235e-012
1.229822e-011
2.750251e-011
3.553251e-011
3.617936e-011
4.484638e-011
7.822807e-011
1.396610e-010
2.156029e-010
2.856673e-010
3.380458e-010
3.772228e-010
4.174988e-010
4.688537e-010
5.276842e-010
5.790776e-010
6.075217e-010
6.075930e-010
5.869256e-010
5.595893e-010
5.352998e-010
5.128574e-010
4.825605e-010
4.354521e-010
3.721887e-010
3.043131e-010
2.462106e-010
2.037212e-010
1.694369e-010
1.299446e-010
7.956072e-011
2.844590e-011
-3.201874e-012
-1.536634e-012
2.758808e-011
6.110670e-011
7.652157e-011
6.986240e-011
5.748697e-011
5.998255e-011
8.284597e-011
1.109220e-010
1.209947e-010
1.015092e-010
6.231074e-011
2.547429e-011
5.279040e-012
-3.786075e-012
-1.880408e-011
-4.738011e-011
-7.518775e-011
-7.671154e-011
-4.023241e-011
1.818447e-011
6.526440e-011
7.240931e-011
2.918926e-011
-5.062208e-011
-1.222356e-010
-1.208518e-010
-1.564314e-011
1.304552e-010
1.875865e-010
8.855912e-011
-7.768653e-011
-1.498246e-010
-7.760868e-011
2.940826e-011
5.646167e-011
2.499887e-011
1.710478e-010
6.751172e-011
-5.091977e-011
-1.178859e-010
-1.262090e-010
-7.397807e-011
4.208842e-011
1.628229e-010
1.782828e-010
5.449278e-011
-1.011661e-010
-1.543994e-010
-9.422947e-011
-2.165491e-011
-1.209946e-011
-4.396825e-011
-5.896787e-011
-3.868046e-011
-1.758084e-012
3.783532e-011
7.851194e-011
1.116637e-010
1.225681e-010
1.122649e-010
1.022282e-010
1.111244e-010
1.341520e-010
1.503948e-010
1.476600e-010
1.365983e-010
1.412541e-010
1.780633e-010
2.440956e-010
3.232738e-010
4.016297e-010
4.768673e-010
5.558544e-010
6.445138e-010
7.392132e-010
8.270853e-010
8.957217e-010
9.437705e-010
9.820695e-010
1.023798e-009
1.072554e-009
1.118568e-009
1.146011e-009
1.145620e-009
1.122371e-009
1.091373e-009
1.065063e-009
1.042789e-009
1.012015e-009
9.601604e-010
8.865600e-010
8.037059e-010
7.263242e-010
6.580981e-010
5.886982e-010
5.045842e-010
4.040084e-010
3.024576e-010
2.229831e-010
1.789220e-010
1.636688e-010
1.567588e-010
1.411201e-010
1.159786e-010
9.408025e-011
8.694922e-011
9.281546e-011
9.829496e-011
9.144893e-011
7.326450e-011
5.581400e-011
4.802512e-011
4.354894e-011
2.509761e-011
-1.663058e-011
-6.827743e-011
-1.009768e-010
-9.526236e-011
-5.824737e-011
-1.325904e-011
2.471911e-011
5.423547e-011
6.736612e-011
4.268377e-011
-2.212620e-011
-7.894436e-011
-6.309755e-011
2.602588e-011
1.026579e-010
8.259289e-011
-1.581581e-011
-9.064044e-011
-7.643568e-011
-9.484424e-012
3.834328e-011
4.943842e-011
4.523481e-010
7.735681e-011
-2.779054e-010
-3.130219e-010
-1.082301e-010
7.539454e-011
1.268745e-010
1.146366e-010
8.993182e-011
1.935938e-011
-9.450804e-011
-1.585581e-010
-1.061554e-010
6.457219e-012
7.337323e-011
6.382068e-011
2.785645e-011
9.955208e-012
7.978669e-012
7.568664e-012
1.097752e-011
2.129856e-011
2.720543e-011
2.118164e-011
2.041504e-011
5.420452e-011
1.323603e-010
2.342155e-010
3.297906e-010
4.083857e-010
4.860663e-010
5.875985e-010
7.223154e-010
8.759376e-010
1.022831e-009
1.144965e-009
1.241552e-009
1.324093e-009
1.402946e-009
1.477187e-009
1.536622e-009
1.573750e-009
1.593338e-009
1.609514e-009
1.633168e-009
1.661880e-009
1.681908e-009
1.680743e-009
1.658977e-009
1.630145e-009
1.608192e-009
1.594361e-009
1.576230e-009
1.539772e-009
1.482450e-009
1.414373e-009
1.346471e-009
1.277738e-009
1.194823e-009
1.084922e-009
9.494996e-010
8.056391e-010
6.738035e-010
5.633014e-010
4.685492e-010
3.787269e-010
2.904938e-010
2.110413e-010
1.492371e-010
1.048299e-010
6.757942e-011
2.825171e-011
-8.834074e-012
-2.560987e-011
-6.637496e-012
4.054326e-011
8.221749e-011
8.136263e-011
3.003112e-011
-3.943386e-011
-7.963994e-011
-6.966750e-011
-3.176469e-011
-4.200353e-012
1.250399e-013
1.667990e-012
2.156133e-011
5.086955e-011
5.841099e-011
2.457575e-011
-3.544755e-011
-7.714997e-011
-5.903916e-011
1.348116e-011
7.531472e-011
5.978356e-011
-1.742334e-011
-6.326757e-011
-2.198744e-011
4.683322e-011
4.705041e-010
8.744444e-011
-2.761564e-010
-2.965729e-010
-5.728363e-011
1.208665e-010
8.753854e-011
-1.988021e-011
-3.990243e-011
-6.613089e-012
-3.584842e-011
-1.112644e-010
-1.072902e-010
1.780965e-011
1.622626e-010
2.148992e-010
1.680719e-010
8.138946e-011
-1.407545e-012
-6.531219e-011
-9.560829e-011
-8.038180e-011
-3.171260e-011
2.510388e-011
8.579103e-011
1.742079e-010
3.110869e-010
4.852187e-010
6.612303e-010
8.127865e-010
9.447888e-010
1.083719e-009
1.248238e-009
1.429211e-009
1.596010e-009
1.720170e-009
1.794687e-009
1.834973e-009
1.863337e-009
1.890530e-009
1.909819e-009
1.908348e-009
1.884049e-009
1.850680e-009
1.826311e-009
1.817645e-009
1.815750e-009
1.806829e-009
1.787058e-009
1.766776e-009
1.760010e-009
1.770227e-009
1.787018e-009
1.796521e-009
1.793751e-009
1.783542e-009
1.769698e-009
1.744902e-009
1.693312e-009
1.603926e-009
1.480891e-009
1.339859e-009
1.194140e-009
1.045132e-009
8.871531e-010
7.211045e-010
5.610141e-010
4.249248e-010
3.187078e-010
2.294209e-010
1.363548e-010
3.202221e-011
-6.463727e-011
-1.168093e-010
-9.769395e-011
-1.708459e-011
7.744763e-011
1.301950e-010
1.162446e-010
5.725646e-011
-1.391886e-013
-2.372586e-011
-1.682611e-011
-5.546075e-012
-1.083682e-011
-3.117909e-011
-4.250130e-011
-1.467386e-011
5.250962e-011
1.001916e-010
5.017673e-011
-8.730499e-011
-1.736588e-010
-8.382210e-011
1.104588e-010
1.930899e-010
7.740153e-011
-7.445789e-011
-8.350920e-011
-2.650786e-012
1.603368e-010
9.794801e-011
-9.623737e-012
-8.150944e-011
-5.114306e-011
1.638887e-011
5.212819e-012
-7.107524e-011
-9.716591e-011
-5.124564e-011
-3.198833e-011
-7.332720e-011
-6.793312e-011
6.673746e-011
2.445875e-010
3.069253e-010
2.067027e-010
3.491954e-011
-9.779411e-011
-1.438331e-010
-1.030658e-010
9.062453e-012
1.605263e-010
3.072080e-010
4.262199e-010
5.372639e-010
6.778624e-010
8.601080e-010
1.058325e-009
1.236697e-009
1.382641e-009
1.511738e-009
1.643160e-009
1.773013e-009
1.871492e-009
1.904551e-009
1.859128e-009
1.751153e-009
1.611584e-009
1.462894e-009
1.305947e-009
1.128876e-009
9.287422e-010
7.234981e-010
5.424108e-010
4.059608e-010
3.154805e-010
2.608822e-010
2.366684e-010
2.496100e-010
3.112131e-010
4.241211e-010
5.773182e-010
7.541467e-010
9.425018e-010
1.135385e-009
1.322593e-009
1.485307e-009
1.602227e-009
1.662296e-009
1.670383e-009
1.638715e-009
1.572253e-009
1.464262e-009
1.308970e-009
1.118754e-009
9.253989e-010
7.604538e-010
6.321032e-010
5.203055e-010
3.952567e-010
2.443118e-010
8.600017e-011
-3.993863e-011
-9.876434e-011
-8.293749e-011
-1.480642e-011
6.835150e-011
1.323115e-010
1.551519e-010
1.293493e-010
6.514972e-011
-7.183676e-012
-5.174293e-011
-5.800722e-011
-5.234203e-011
-5.949940e-011
-5.568546e-011
4.272847e-012
9.596868e-011
1.097557e-010
-1.332496e-011
-1.568438e-010
-1.358220e-010
5.435756e-011
2.011420e-010
1.453504e-010
-1.630922e-011
-9.590145e-011
-7.936686e-011
-2.712439e-010
8.076142e-011
3.089427e-010
1.690123e-010
-7.489535e-011
-1.153555e-010
-1.559819e-011
-4.350967e-012
-9.944563e-011
-1.436029e-010
-7.873528e-011
1.402959e-011
8.506053e-011
1.573747e-010
2.119977e-010
1.712547e-010
2.370932e-011
-1.233760e-010
-1.513082e-010
-3.865738e-011
1.567977e-010
3.750879e-010
5.812078e-010
7.505058e-010
8.730929e-010
9.733339e-010
1.098112e-009
1.273072e-009
1.474900e-009
1.648828e-009
1.749389e-009
1.763388e-009
1.698196e-009
1.553259e-009
1.305644e-009
9.234298e-010
3.928676e-010
-2.662938e-010
-1.010345e-009
-1.796844e-009
-2.603009e-009
-3.420754e-009
-4.234493e-009
-5.005831e-009
-5.681618e-009
-6.216553e-009
-6.588123e-009
-6.792470e-009
-6.829565e-009
-6.694293e-009
-6.381456e-009
-5.897344e-009
-5.264389e-009
-4.515049e-009
-3.684064e-009
-2.808197e-009
-1.930703e-009
-1.100132e-009
-3.593154e-010
2.670442e-010
7.738093e-010
1.163390e-009
1.431801e-009
1.568344e-009
1.572228e-009
1.470046e-009
1.313016e-009
1.151991e-009
1.011393e-009
8.844068e-010
7.510479e-010
6.006189e-010
4.390354e-010
2.789812e-010
1.292220e-010
-1.283267e-012
-9.022524e-011
-1.036405e-010
-2.562568e-011
1.059179e-010
2.025691e-010
1.867355e-010
6.425479e-011
-7.243776e-011
-1.296820e-010
-9.931853e-011
-4.657969e-011
-1.879756e-011
2.606982e-012
4.684678e-011
8.424541e-011
5.494128e-011
-3.550983e-011
-9.490308e-011
-4.743405e-011
6.664860e-011
1.304095e-010
7.930273e-011
-4.075580e-011
-1.332756e-010
-5.084151e-010
8.155410e-012
4.073391e-010
2.970275e-010
-3.545790e-011
-1.310014e-010
7.414272e-012
4.374973e-011
-1.148706e-010
-2.036051e-010
-3.967086e-011
2.116355e-010
2.889847e-010
1.540011e-010
-4.303587e-011
-1.761856e-010
-2.075354e-010
-1.219902e-010
8.181863e-011
3.493823e-010
5.950726e-010
7.791845e-010
9.264577e-010
1.072507e-009
1.225811e-009
1.383874e-009
1.552027e-009
1.723266e-009
1.847159e-009
1.833431e-009
1.591081e-009
1.065509e-009
2.426601e-010
-8.765111e-010
-2.300828e-009
-4.046467e-009
-6.111244e-009
-8.453282e-009
-1.099479e-008
-1.364583e-008
-1.632583e-008
-1.896472e-008
-2.148675e-008
-2.379760e-008
-2.579179e-008
-2.737491e-008
-2.848076e-008
-2.907149e-008
-2.912708e-008
-2.863848e-008
-2.761153e-008
-2.607586e-008
-2.408798e-008
-2.172587e-008
-1.908276e-008
-1.626606e-008
-1.339647e-008
-1.059816e-008
-7.980091e-009
-5.621031e-009
-3.569182e-009
-1.854337e-009
-4.984807e-010
4.872638e-010
1.117746e-009
1.444767e-009
1.548131e-009
1.509578e-009
1.390063e-009
1.227443e-009
1.050592e-009
8.887787e-010
7.607084e-010
6.531502e-010
5.194179e-010
3.164435e-010
5.879845e-011
-1.631996e-010
-2.370532e-010
-1.250028e-010
8.181163e-011
2.199444e-010
1.865831e-010
2.531029e-011
-1.218673e-010
-1.463532e-010
-5.894360e-011
3.967678e-011
6.256472e-011
1.940648e-011
-1.988189e-012
4.571559e-011
8.606732e-011
1.661514e-011
-1.112236e-010
-1.205097e-010
3.065547e-011
1.437592e-010
5.054744e-011
-1.210095e-010
-3.823764e-010
-1.045207e-010
1.958576e-010
2.649738e-010
1.143791e-010
-2.484967e-011
-3.910143e-011
-5.048739e-011
-1.236783e-010
-9.068083e-011
1.574077e-010
3.967319e-010
3.161656e-010
-5.960286e-011
-3.860593e-010
-3.925702e-010
-1.092002e-010
2.671091e-010
5.819893e-010
7.807042e-010
8.778837e-010
9.421899e-010
1.066917e-009
1.298541e-009
1.590987e-009
1.839214e-009
1.941046e-009
1.810765e-009
1.346392e-009
4.101316e-010
-1.146239e-009
-3.435632e-009
-6.511912e-009
-1.038313e-008
-1.503833e-008
-2.045369e-008
-2.657152e-008