# vtk DataFile Version 3.0
vtk output
ASCII
DATASET STRUCTURED_POINTS
DIMENSIONS 100 100 1
SPACING 1 1 1
ORIGIN 0 0 0
POINT_DATA 10000
SCALARS SFBox_profile double
LOOKUP_TABLE default 
0.000000e+000
0.000000e+000
0.000000e+000
0.000000e+000
0.000000e+000
0.000000e+000
0.000000e+000
0.000000e+000
0.000000e+000
0.000000e+000
0.000000e+000
0.000000e+000
0.000000e+000
0.000000e+000
0.000000e+000
0.000000e+000
0.000000e+000
0.000000e+000
0.000000e+000
0.000000e+000
0.000000e+000
0.000000e+000
0.000000e+000
0.000000e+000
0.000000e+000
0.000000e+000
0.000000e+000
0.000000e+000
0.000000e+000
0.000000e+000
0.000000e+000
0.000000e+000
0.000000e+000
0.000000e+000
0.000000e+000
0.000000e+000
0.000000e+000
0.000000e+000
0.000000e+000
0.000000e+000
0.000000e+000
0.000000e+000
0.000000e+000
0.000000e+000
0.000000e+000
0.000000e+000
0.000000e+000
0.000000e+000
0.000000e+000
0.000000e+000
0.000000e+000
0.000000e+000
0.000000e+000
0.000000e+000
0.000000e+000
0.000000e+000
0.000000e+000
0.000000e+000
0.000000e+000
0.000000e+000
0.000000e+000
0.000000e+000
0.000000e+000
0.000000e+000
0.000000e+000
0.000000e+000
0.000000e+000
0.000000e+000
0.000000e+000
0.000000e+000
0.000000e+000
0.000000e+000
0.000000e+000
0.000000e+000
0.000000e+000
0.000000e+000
0.000000e+000
0.000000e+000
0.000000e+000
0.000000e+000
0.000000e+000
0.000000e+000
0.000000e+000
0.000000e+000
0.000000e+000
0.000000e+000
0.000000e+000
0.000000e+000
0.000000e+000
0.000000e+000
0.000000e+000
0.000000e+000
0.000000e+000
0.000000e+000
0.000000e+000
0.000000e+000
0.000000e+000
0.000000e+000
0.000000e+000
0.000000e+000
3.273074e-009
1.532508e-009
-5.817937e-010
-1.842873e-009
-1.908849e-009
-1.254135e-009
-4.914762e-010
1.928252e-010
9.680477e-010
1.826556e-009
2.257868e-009
1.586416e-009
-2.877337e-010
-2.503309e-009
-3.703497e-009
-3.042313e-009
-8.593492e-010
1.586063e-009
3.075729e-009
3.229943e-009
2.501652e-009
1.526929e-009
5.519629e-010
-5.484179e-010
-1.828075e-009
-2.980647e-009
-3.529999e-009
-3.257641e-009
-2.385260e-009
-1.339214e-009
-3.830500e-010
4.997014e-010
1.412839e-009
2.319632e-009
3.038157e-009
3.425526e-009
3.513247e-009
3.449831e-009
3.342768e-009
3.184743e-009
2.922284e-009
2.559594e-009
2.175041e-009
1.848833e-009
1.597593e-009
1.384934e-009
1.182346e-009
1.007125e-009
9.022896e-010
8.892769e-010
9.467533e-010
1.035577e-009
1.141261e-009
1.287720e-009
1.505104e-009
1.784244e-009
2.070410e-009
2.310271e-009
2.501435e-009
2.679912e-009
2.849100e-009
2.934123e-009
2.831173e-009
2.509226e-009
2.041907e-009
1.516929e-009
9.262939e-010
1.873931e-010
-7.031380e-010
-1.562334e-009
-2.117316e-009
-2.228311e-009
-1.988724e-009
-1.575642e-009
-1.025849e-009
-2.280475e-010
8.233798e-010
1.809511e-009
2.217121e-009
1.759121e-009
6.697141e-010
-4.538100e-010
-1.123639e-009
-1.275506e-009
-1.133384e-009
-8.357158e-010
-2.895585e-010
5.670806e-010
1.424143e-009
1.658658e-009
8.636463e-010
-6.339249e-010
-1.840541e-009
-1.816242e-009
-4.771495e-010
1.237463e-009
2.042140e-009
1.310569e-009
-4.086088e-010
-1.799823e-009
8.059055e-010
1.019889e-010
-5.989122e-010
-6.919249e-010
-1.422747e-010
5.369822e-010
7.500163e-010
3.211933e-010
-3.837025e-010
-7.977623e-010
-6.344390e-010
-8.434627e-011
4.167187e-010
5.915955e-010
5.042006e-010
3.802730e-010
3.023773e-010
1.254367e-010
-3.036366e-010
-8.836874e-010
-1.266391e-009
-1.148115e-009
-5.477567e-010
2.148437e-010
8.057059e-010
1.125538e-009
1.286519e-009
1.392063e-009
1.389752e-009
1.148305e-009
6.401152e-010
5.889053e-012
-5.647051e-010
-9.896277e-010
-1.318315e-009
-1.621129e-009
-1.888671e-009
-2.049205e-009
-2.062421e-009
-1.969642e-009
-1.849634e-009
-1.743086e-009
-1.632682e-009
-1.489234e-009
-1.320505e-009
-1.168558e-009
-1.067340e-009
-1.013093e-009
-9.778513e-010
-9.461030e-010
-9.328510e-010
-9.650227e-010
-1.048185e-009
-1.155954e-009
-1.255207e-009
-1.339922e-009
-1.433147e-009
-1.550031e-009
-1.663084e-009
-1.715654e-009
-1.675409e-009
-1.565210e-009
-1.427290e-009
-1.258375e-009
-1.000294e-009
-6.119335e-010
-1.431756e-010
2.864449e-010
5.929570e-010
7.947840e-010
9.531280e-010
1.053053e-009
9.808757e-010
6.497888e-010
1.391135e-010
-3.270944e-010
-5.619535e-010
-5.660368e-010
-4.795379e-010
-3.964087e-010
-2.639725e-010
8.881632e-012
3.660141e-010
5.798759e-010
4.525275e-010
3.996466e-011
-3.530166e-010
-4.293630e-010
-1.643570e-010
1.800527e-010
3.014736e-010
1.241815e-010
-1.570066e-010
-2.750151e-010
-1.308389e-010
1.368526e-010
2.908170e-010
2.015045e-010
-5.431524e-011
-2.672892e-010
-2.100173e-009
-1.330268e-009
-2.147483e-010
8.451785e-010
1.597196e-009
1.866701e-009
1.464690e-009
2.984671e-010
-1.355280e-009
-2.741975e-009
-2.960204e-009
-1.598559e-009
8.301324e-010
3.090688e-009
3.983500e-009
3.091533e-009
9.557381e-010
-1.388027e-009
-3.069070e-009
-3.732120e-009
-3.444610e-009
-2.423293e-009
-8.913816e-010
8.811937e-010
2.530250e-009
3.683687e-009
4.123602e-009
3.862850e-009
3.071884e-009
1.947631e-009
6.470813e-010
-6.951743e-010
-1.940311e-009
-2.965997e-009
-3.709374e-009
-4.175265e-009
-4.400118e-009
-4.415717e-009
-4.248301e-009
-3.938737e-009
-3.546285e-009
-3.126626e-009
-2.710947e-009
-2.310446e-009
-1.937436e-009
-1.615272e-009
-1.366431e-009
-1.196436e-009
-1.095217e-009
-1.054376e-009
-1.078950e-009
-1.179532e-009
-1.355144e-009
-1.588538e-009
-1.859789e-009
-2.160501e-009
-2.489189e-009
-2.832000e-009
-3.152813e-009
-3.406502e-009
-3.559681e-009
-3.592668e-009
-3.481256e-009
-3.186518e-009
-2.674252e-009
-1.947476e-009
-1.055640e-009
-7.292513e-011
9.209289e-010
1.828959e-009
2.516671e-009
2.832457e-009
2.675801e-009
2.056229e-009
1.087888e-009
-6.080020e-011
-1.192873e-009
-2.065591e-009
-2.404602e-009
-2.022093e-009
-9.847129e-010
3.327742e-010
1.409198e-009
1.856366e-009
1.597207e-009
8.250997e-010
-1.582213e-010
-1.046490e-009
-1.534134e-009
-1.357353e-009
-4.735265e-010
7.481610e-010
1.598089e-009
1.459998e-009
3.292472e-010
-1.056602e-009
-1.693197e-009
-1.080353e-009
3.412933e-010
1.492893e-009
-3.269262e-009
-1.408537e-009
7.480160e-010
1.855259e-009
1.671546e-009
8.936629e-010
2.611680e-010
-1.207496e-010
-6.186744e-010
-1.362581e-009
-1.849003e-009
-1.356886e-009
2.208510e-010
2.025012e-009
2.812508e-009
1.986505e-009
1.102390e-010
-1.575422e-009
-2.158837e-009
-1.660384e-009
-7.670993e-010
-9.325156e-011
2.697017e-010
5.741125e-010
9.512577e-010
1.216644e-009
1.103738e-009
5.931591e-010
-4.516931e-011
-5.087797e-010
-7.086214e-010
-7.599275e-010
-7.867734e-010
-7.867372e-010
-6.800260e-010
-4.397871e-010
-1.371133e-010
1.321906e-010
3.333124e-010
4.957338e-010
6.523897e-010
7.978129e-010
9.046117e-010
9.621539e-010
9.872339e-010
1.002710e-009
1.016919e-009
1.025056e-009
1.022309e-009
1.010241e-009
9.937192e-010
9.767284e-010
9.601388e-010
9.389441e-010
9.017638e-010
8.384969e-010
7.508450e-010
6.499098e-010
5.379971e-010
3.974989e-010
2.093827e-010
-1.395344e-011
-2.256002e-010
-3.857262e-010
-5.004754e-010
-6.000859e-010
-6.716959e-010
-6.359618e-010
-4.212105e-010
-6.453542e-011
2.897234e-010
5.166189e-010
6.213886e-010
6.876058e-010
7.107445e-010
5.364122e-010
3.046412e-011
-6.799466e-010
-1.197237e-009
-1.159590e-009
-5.783461e-010
1.589811e-010
6.437808e-010
7.836153e-010
7.601695e-010
6.864877e-010
4.079854e-010
-2.647716e-010
-1.136772e-009
-1.566974e-009
-9.823254e-010
4.650700e-010
1.800206e-009
1.928521e-009
5.964632e-010
-1.267441e-009
-2.219255e-009
-1.469612e-009
4.303031e-010
1.995574e-009
-2.183952e-009
-2.199359e-010
1.688043e-009
1.858539e-009
2.801063e-010
-1.547294e-009
-2.013268e-009
-7.685949e-010
1.092239e-009
2.086686e-009
1.601787e-009
2.364412e-010
-9.439718e-010
-1.391774e-009
-1.340453e-009
-1.230798e-009
-1.057969e-009
-3.964584e-010
9.600186e-010
2.514316e-009
3.332678e-009
2.823797e-009
1.235732e-009
-6.079815e-010
-2.011545e-009
-2.830064e-009
-3.280461e-009
-3.481945e-009
-3.277329e-009
-2.475025e-009
-1.158583e-009
3.123421e-010
1.586727e-009
2.557238e-009
3.316827e-009
3.946114e-009
4.396661e-009
4.571248e-009
4.462648e-009
4.177796e-009
3.839648e-009
3.496562e-009
3.131686e-009
2.734650e-009
2.341264e-009
2.007400e-009
1.763063e-009
1.600124e-009
1.496771e-009
1.445285e-009
1.458079e-009
1.552973e-009
1.732771e-009
1.975527e-009
2.246207e-009
2.523296e-009
2.812342e-009
3.122560e-009
3.424469e-009
3.641917e-009
3.702762e-009
3.596678e-009
3.362761e-009
3.009112e-009
2.466964e-009
1.662247e-009
6.425123e-010
-3.990224e-010
-1.259540e-009
-1.877501e-009
-2.307963e-009
-2.539228e-009
-2.392607e-009
-1.684814e-009
-5.107702e-010
6.948296e-010
1.451251e-009
1.602742e-009
1.366705e-009
1.012739e-009
5.620698e-010
-1.197654e-010
-9.490785e-010
-1.467270e-009
-1.193363e-009
-1.728904e-010
8.983146e-010
1.209235e-009
5.610560e-010
-4.315527e-010
-8.909135e-010
-4.661096e-010
3.798271e-010
8.321339e-010
4.771295e-010
-3.481562e-010
-8.914529e-010
-6.645507e-010
1.412497e-010
8.383682e-010
-7.429097e-012
9.197384e-010
1.556967e-009
8.883649e-010
-9.636426e-010
-2.719253e-009
-2.898374e-009
-1.040614e-009
1.802806e-009
3.766408e-009
3.540476e-009
1.306963e-009
-1.498932e-009
-3.320255e-009
-3.493420e-009
-2.374418e-009
-7.119762e-010
9.629666e-010
2.395396e-009
3.307823e-009
3.308964e-009
2.209875e-009
3.592086e-010
-1.472529e-009
-2.618653e-009
-2.934736e-009
-2.714798e-009
-2.266182e-009
-1.635624e-009
-7.340610e-010
3.754019e-010
1.409169e-009
2.085399e-009
2.356024e-009
2.386763e-009
2.340477e-009
2.228120e-009
1.970139e-009
1.551112e-009
1.070426e-009
6.490939e-010
3.236338e-010
4.652574e-011
-2.297917e-010
-4.941125e-010
-6.984875e-010
-8.170134e-010
-8.703096e-010
-8.982357e-010
-9.188316e-010
-9.146878e-010
-8.544261e-010
-7.262752e-010
-5.520709e-010
-3.656136e-010
-1.732618e-010
5.917353e-011
3.679690e-010
7.363663e-010
1.091636e-009
1.371606e-009
1.585736e-009
1.783687e-009
1.953539e-009
1.978347e-009
1.730897e-009
1.214090e-009
5.730939e-010
-5.282929e-011
-6.598427e-010
-1.309844e-009
-1.928078e-009
-2.234766e-009
-1.951487e-009
-1.088103e-009
1.669235e-011
9.635516e-010
1.570371e-009
1.854467e-009
1.790724e-009
1.214614e-009
6.352014e-011
-1.309647e-009
-2.190906e-009
-2.002361e-009
-8.055967e-010
6.891807e-010
1.636100e-009
1.623632e-009
8.396694e-010
-1.923802e-010
-9.721493e-010
-1.203266e-009
-8.203582e-010
-6.851705e-012
8.066272e-010
1.111188e-009
6.644089e-010
-2.560879e-010
-9.902557e-010
1.826440e-009
9.446391e-010
-7.856525e-011
-6.995123e-010
-9.238826e-010
-1.004514e-009
-9.396337e-010
-4.387447e-010
5.780115e-010
1.584141e-009
1.747624e-009
7.343682e-010
-8.245164e-010
-1.774393e-009
-1.426305e-009
-1.410987e-010
1.040785e-009
1.315043e-009
6.814928e-010
-2.735580e-010
-9.955527e-010
-1.307147e-009
-1.264617e-009
-8.822097e-010
-1.170911e-010
9.267961e-010
1.917779e-009
2.495955e-009
2.533380e-009
2.160796e-009
1.561447e-009
7.983634e-010
-1.417191e-010
-1.194228e-009
-2.177523e-009
-2.920042e-009
-3.389976e-009
-3.674831e-009
-3.852789e-009
-3.916477e-009
-3.822531e-009
-3.582465e-009
-3.278326e-009
-2.994800e-009
-2.756745e-009
-2.539012e-009
-2.323657e-009
-2.134289e-009
-2.015905e-009
-1.990752e-009
-2.039188e-009
-2.122692e-009
-2.223395e-009
-2.358588e-009
-2.552327e-009
-2.791365e-009
-3.016099e-009
-3.164692e-009
-3.224314e-009
-3.223820e-009
-3.167314e-009
-2.990272e-009
-2.607641e-009
-2.011168e-009
-1.297047e-009
-5.791191e-010
1.084909e-010
7.879683e-010
1.414429e-009
1.820438e-009
1.831865e-009
1.441133e-009
8.315146e-010
2.180429e-010
-3.008716e-010
-7.059960e-010
-9.159619e-010
-7.804191e-010
-2.716436e-010
3.581776e-010
7.039304e-010
5.431775e-010
3.026264e-011
-4.627410e-010
-6.701955e-010
-5.679551e-010
-2.383023e-010
2.658561e-010
8.308410e-010
1.127277e-009
7.479756e-010
-3.350898e-010
-1.475173e-009
-1.708000e-009
-6.119703e-010
1.127894e-009
2.129850e-009
1.477340e-009
-3.980924e-010
-1.992001e-009
2.688551e-009
1.040665e-010
-2.274609e-009
-2.255403e-009
-5.687454e-011
2.176621e-009
2.481799e-009
7.538619e-010
-1.434868e-009
-2.435084e-009
-1.865766e-009
-5.442518e-010
6.054619e-010
1.354765e-009
1.940826e-009
2.327698e-009
1.988123e-009
5.054988e-010
-1.733448e-009
-3.611511e-009
-4.109661e-009
-3.061063e-009
-1.129688e-009
8.390999e-010
2.376665e-009
3.404019e-009
3.912443e-009
3.796750e-009
2.996595e-009
1.679252e-009
1.912495e-010
-1.164628e-009
-2.267235e-009
-3.113540e-009
-3.689115e-009
-3.945302e-009
-3.878243e-009
-3.573956e-009
-3.151391e-009
-2.678923e-009
-2.164639e-009
-1.615798e-009
-1.080175e-009
-6.197108e-010
-2.585796e-010
2.636843e-011
2.645307e-010
4.522233e-010
5.590494e-010
5.668700e-010
4.929137e-010
3.705098e-010
2.107013e-010
-9.730060e-012
-3.176802e-010
-7.044573e-010
-1.125295e-009
-1.540834e-009
-1.949248e-009
-2.363171e-009
-2.754600e-009
-3.039689e-009
-3.131996e-009
-3.002749e-009
-2.671004e-009
-2.139526e-009
-1.375501e-009
-3.838570e-010
7.118749e-010
1.697855e-009
2.390876e-009
2.708070e-009
2.609391e-009
2.027934e-009
9.457220e-010
-4.322848e-010
-1.649542e-009
-2.245124e-009
-2.072866e-009
-1.356633e-009
-4.319135e-010
5.007918e-010
1.316980e-009
1.747612e-009
1.420691e-009
2.813113e-010
-1.068348e-009
-1.658902e-009
-9.850862e-010
4.137760e-010
1.320789e-009
9.319383e-010
-3.592201e-010
-1.297068e-009
-9.502747e-010
3.842007e-010
1.445477e-009
1.201528e-009
-1.658992e-010
-1.420208e-009
2.525784e-009
-5.055949e-010
-3.197447e-009
-2.821795e-009
4.097128e-010
3.703009e-009
4.219209e-009
1.498041e-009
-2.294871e-009
-4.338615e-009
-3.453351e-009
-7.338292e-010
1.760125e-009
2.771242e-009
2.446294e-009
1.568401e-009
5.729408e-010
-5.798843e-010
-1.805793e-009
-2.539316e-009
-2.163129e-009
-7.207691e-010
9.637456e-010
1.942183e-009
1.881735e-009
1.157385e-009
3.262895e-010
-3.670584e-010
-9.845893e-010
-1.560177e-009
-1.921160e-009
-1.850950e-009
-1.333907e-009
-5.735548e-010
2.048649e-010
9.141158e-010
1.573238e-009
2.182069e-009
2.677228e-009
2.999640e-009
3.160438e-009
3.220463e-009
3.223951e-009
3.174559e-009
3.070662e-009
2.939578e-009
2.824055e-009
2.744644e-009
2.690439e-009
2.647794e-009
2.625786e-009
2.644295e-009
2.702099e-009
2.769113e-009
2.814186e-009
2.830975e-009
2.825349e-009
2.780587e-009
2.651399e-009
2.402136e-009
2.040992e-009
1.600827e-009
1.091599e-009
4.996105e-010
-1.489727e-010
-7.441013e-010
-1.148002e-009
-1.302353e-009
-1.249419e-009
-1.030388e-009
-6.054493e-010
5.662150e-011
7.999853e-010
1.270938e-009
1.176208e-009
5.651896e-010
-1.997731e-010
-7.779812e-010
-1.100466e-009
-1.237994e-009
-1.094283e-009
-4.098126e-010
8.114998e-010
1.960418e-009
2.130702e-009
9.462076e-010
-9.151646e-010
-2.146476e-009
-1.886502e-009
-4.418361e-010
1.023618e-009
1.502245e-009
8.982954e-010
-8.698277e-011
-6.807991e-010
-6.347294e-010
-2.367164e-010
9.990195e-011
2.028247e-010
1.756301e-010
1.187166e-009
-2.809696e-010
-1.668483e-009
-1.592729e-009
4.146077e-011
1.923825e-009
2.408729e-009
9.685736e-010
-1.251400e-009
-2.383732e-009
-1.508997e-009
5.119433e-010
1.857646e-009
1.422793e-009
-2.711259e-010
-1.725297e-009
-1.881478e-009
-8.685495e-010
4.720575e-010
1.512738e-009
2.167948e-009
2.482000e-009
2.224260e-009
1.085103e-009
-8.034598e-010
-2.738354e-009
-3.931000e-009
-4.085910e-009
-3.470983e-009
-2.495967e-009
-1.334048e-009
3.899414e-011
1.561012e-009
2.968516e-009
3.977581e-009
4.507605e-009
4.683828e-009
4.655017e-009
4.462465e-009
4.083200e-009
3.542446e-009
2.938859e-009
2.369917e-009
1.868305e-009
1.420898e-009
1.025786e-009
7.090622e-010
4.938209e-010
3.765494e-010
3.424007e-010
3.899646e-010
5.276233e-010
7.514718e-010
1.042854e-009
1.390249e-009
1.797733e-009
2.258627e-009
2.729190e-009
3.147280e-009
3.478108e-009
3.718994e-009
3.843202e-009
3.759083e-009
3.364146e-009
2.651648e-009
1.734447e-009
7.384520e-010
-3.002353e-010
-1.376265e-009
-2.346878e-009
-2.896704e-009
-2.758040e-009
-1.979121e-009
-9.168626e-010
6.698434e-011
8.532145e-010
1.460321e-009
1.758272e-009
1.452860e-009
4.667101e-010
-7.291848e-010
-1.344092e-009
-9.500715e-010
7.811445e-011
8.740626e-010
8.503870e-010
1.515565e-010
-6.031115e-010
-9.093992e-010
-6.775099e-010
-9.391155e-011
5.909349e-010
1.075310e-009
1.000977e-009
2.075460e-010
-9.229085e-010
-1.548191e-009
-1.037931e-009
3.437779e-010
1.522622e-009
-1.369845e-009
2.735299e-010
1.581425e-009
1.188916e-009
-4.316455e-010
-1.701363e-009
-1.598588e-009
-4.490242e-010
7.512014e-010
1.423302e-009
1.639461e-009
1.504180e-009
7.463212e-010
-8.318173e-010
-2.659137e-009
-3.508147e-009
-2.519493e-009
-8.454747e-011
2.396730e-009
3.645637e-009
3.370550e-009
2.127609e-009
5.782381e-010
-9.496562e-010
-2.282787e-009
-3.101745e-009
-3.043996e-009
-2.085612e-009
-6.680845e-010
6.337501e-010
1.531042e-009
2.080834e-009
2.405618e-009
2.468980e-009
2.154656e-009
1.482515e-009
6.565258e-010
-1.046235e-010
-7.311945e-010
-1.279827e-009
-1.793447e-009
-2.231281e-009
-2.530086e-009
-2.688541e-009
-2.766090e-009
-2.816773e-009
-2.850559e-009
-2.855996e-009
-2.834786e-009
-2.801749e-009
-2.765081e-009
-2.722937e-009
-2.673743e-009
-2.612396e-009
-2.514835e-009
-2.344963e-009
-2.088835e-009
-1.768910e-009
-1.405552e-009
-9.723034e-010
-4.213951e-010
2.306069e-010
8.670418e-010
1.353859e-009
1.651322e-009
1.802428e-009
1.797542e-009
1.503938e-009
8.006282e-010
-2.100380e-010
-1.187459e-009
-1.796325e-009
-1.940098e-009
-1.711717e-009
-1.157994e-009
-2.202211e-010
1.016716e-009
2.099212e-009
2.402135e-009
1.653673e-009
2.371012e-010
-1.086868e-009
-1.748703e-009
-1.647541e-009
-9.737569e-010
3.007338e-011
1.030025e-009
1.502028e-009
1.009558e-009
-2.427627e-010
-1.288020e-009
-1.147422e-009
1.387762e-010
1.356680e-009
1.227726e-009
-2.426960e-010
-1.639940e-009
-1.510716e-009
1.226363e-010
1.711351e-009
-4.147417e-009
3.037035e-010
4.228797e-009
3.842056e-009
-2.377963e-010
-4.096512e-009
-4.433580e-009
-1.365827e-009
2.237494e-009
3.690788e-009
2.612204e-009
5.192650e-010
-1.047442e-009
-1.687328e-009
-1.741220e-009
-1.372328e-009
-4.327475e-010
9.103111e-010
1.867839e-009
1.632062e-009
2.296412e-010
-1.401564e-009
-2.220450e-009
-1.888062e-009
-7.954824e-010
5.076654e-010
1.732957e-009
2.761378e-009
3.382777e-009
3.320887e-009
2.505774e-009
1.197100e-009
-2.208486e-010
-1.520355e-009
-2.672881e-009
-3.672698e-009
-4.415799e-009
-4.780439e-009
-4.769978e-009
-4.519030e-009
-4.165171e-009
-3.753334e-009
-3.270508e-009
-2.734577e-009
-2.216634e-009
-1.786544e-009
-1.465870e-009
-1.239997e-009
-1.096483e-009
-1.039245e-009
-1.077692e-009
-1.218163e-009
-1.461656e-009
-1.793984e-009
-2.177305e-009
-2.567747e-009
-2.947958e-009
-3.324610e-009
-3.675895e-009
-3.913581e-009
-3.928094e-009
-3.679594e-009
-3.218251e-009
-2.595891e-009
-1.787479e-009
-7.527552e-010
4.159230e-010
1.459624e-009
2.115418e-009
2.300943e-009
2.100227e-009
1.590917e-009
7.796171e-010
-2.354488e-010
-1.110802e-009
-1.410502e-009
-9.828575e-010
-1.367321e-010
6.154232e-010
9.586995e-010
8.712547e-010
4.061374e-010
-4.072842e-010
-1.325010e-009
-1.717215e-009
-9.762379e-010
7.147801e-010
2.171786e-009
2.099664e-009
3.828010e-010
-1.599407e-009
-2.154332e-009
-8.814889e-010
9.373916e-010
1.609090e-009
6.795873e-010
-7.150957e-010
-1.110958e-009
-2.316285e-010
8.169998e-010
-5.026325e-009
-2.735106e-010
4.141452e-009
4.224111e-009
3.890448e-010
-3.451602e-009
-3.824770e-009
-8.131880e-010
2.428799e-009
2.945810e-009
6.740528e-010
-1.907351e-009
-2.427318e-009
-7.236832e-010
1.479814e-009
2.505567e-009
2.052530e-009
8.458284e-010
-4.749775e-010
-1.776900e-009
-2.936750e-009
-3.410738e-009
-2.600892e-009
-5.761226e-010
1.790592e-009
3.475178e-009
4.022279e-009
3.625286e-009
2.670164e-009
1.376073e-009
-1.397042e-010
-1.643667e-009
-2.798174e-009
-3.388894e-009
-3.454667e-009
-3.168542e-009
-2.648077e-009
-1.920784e-009
-1.029956e-009
-9.650298e-011
7.476244e-010
1.452166e-009
2.046979e-009
2.564535e-009
2.992439e-009
3.300378e-009
3.486624e-009
3.582942e-009
3.623702e-009
3.621534e-009
3.567050e-009
3.440831e-009
3.227961e-009
2.931398e-009
2.570422e-009
2.154790e-009
1.660797e-009
1.051380e-009
3.325919e-010
-4.226955e-010
-1.126101e-009
-1.739717e-009
-2.260188e-009
-2.630846e-009
-2.710109e-009
-2.372117e-009
-1.635147e-009
-6.544743e-010
4.095211e-010
1.456757e-009
2.346385e-009
2.798829e-009
2.526749e-009
1.523565e-009
1.662127e-010
-1.039388e-009
-1.795813e-009
-2.047455e-009
-1.750142e-009
-8.172928e-010
5.636459e-010
1.687141e-009
1.716049e-009
5.176245e-010
-9.719320e-010
-1.463473e-009
-5.358431e-010
9.068358e-010
1.491887e-009
7.006148e-010
-6.903990e-010
-1.437552e-009
-1.004295e-009
8.048016e-011
8.779064e-010
9.071710e-010
4.000368e-010
-1.180208e-010
-3.540635e-010
-3.816069e-010
-2.407056e-009
-6.801652e-010
1.120770e-009
1.564858e-009
5.873353e-010
-5.440857e-010
-5.189541e-010
6.102565e-010
1.379252e-009
4.544691e-010
-1.754365e-009
-3.226745e-009
-2.265297e-009
7.186138e-010
3.468650e-009
3.943417e-009
2.049612e-009
-5.913970e-010
-2.312910e-009
-2.639861e-009
-2.066591e-009
-1.103848e-009
1.207528e-010
1.459002e-009
2.373619e-009
2.252616e-009
1.036466e-009
-6.454431e-010
-2.000756e-009
-2.649937e-009
-2.677319e-009
-2.270295e-009
-1.470939e-009
-2.765020e-010
1.163679e-009
2.564879e-009
3.704713e-009
4.541221e-009
5.135506e-009
5.519277e-009
5.673944e-009
5.606341e-009
5.390718e-009
5.122657e-009
4.855077e-009
4.593494e-009
4.339539e-009
4.120186e-009
3.974335e-009
3.922105e-009
3.951798e-009
4.033803e-009
4.146462e-009
4.289617e-009
4.468938e-009
4.662169e-009
4.806755e-009
4.833503e-009
4.712445e-009
4.449363e-009
4.031660e-009
3.403538e-009
2.527765e-009
1.469709e-009
3.859383e-010
-5.826314e-010
-1.370111e-009
-1.909431e-009
-2.044703e-009
-1.620199e-009
-7.028477e-010
3.442697e-010
1.093765e-009
1.358024e-009
1.207330e-009
7.170589e-010
-1.438919e-010
-1.251097e-009
-2.052761e-009
-1.833631e-009
-4.380425e-010
1.335951e-009
2.267730e-009
1.755387e-009
3.138703e-010
-9.630655e-010
-1.355847e-009
-9.251770e-010
-1.666045e-010
4.771356e-010
7.429467e-010
4.898363e-010
-1.775688e-010
-7.585012e-010
-6.464290e-010
2.092182e-010
1.045604e-009
9.556634e-010
-1.070986e-010
-1.156793e-009
2.785386e-009
-3.002654e-010
-2.912615e-009
-2.551058e-009
1.028842e-010
2.444570e-009
2.715191e-009
1.261571e-009
-4.982077e-010
-1.626629e-009
-1.987851e-009
-1.598987e-009
-3.941583e-010
1.236653e-009
2.201275e-009
1.546114e-009
-4.098539e-010
-2.103354e-009
-2.105780e-009
-4.219396e-010
1.646558e-009
2.785306e-009
2.642670e-009
1.648837e-009
2.569012e-010
-1.359988e-009
-2.980130e-009
-4.069185e-009
-4.072195e-009
-2.917076e-009
-1.090326e-009
7.953179e-010
2.422545e-009
3.766358e-009
4.817516e-009
5.447962e-009
5.546018e-009
5.178732e-009
4.553590e-009
3.846320e-009
3.111674e-009
2.348670e-009
1.595633e-009
9.314670e-010
4.069431e-010
9.653313e-012
-2.987205e-010
-5.293479e-010
-6.603228e-010
-6.735233e-010
-5.821573e-010
-4.161589e-010
-1.855504e-010
1.319683e-010
5.606819e-010
1.087859e-009
1.666188e-009
2.257992e-009
2.859969e-009
3.462198e-009
3.986580e-009
4.297843e-009
4.295761e-009
3.975971e-009
3.371748e-009
2.461125e-009
1.206099e-009
-2.773947e-010
-1.643415e-009
-2.498993e-009
-2.683366e-009
-2.316746e-009
-1.571578e-009
-5.067342e-010
7.653062e-010
1.815835e-009
2.031466e-009
1.176633e-009
-2.197919e-010
-1.199997e-009
-1.174311e-009
-3.536800e-010
5.819986e-010
1.096809e-009
1.016724e-009
3.591054e-010
-6.997351e-010
-1.609394e-009
-1.556634e-009
-2.283864e-010
1.509500e-009
2.103745e-009
8.461726e-010
-1.165430e-009
-1.962124e-009
-7.640079e-010
1.104905e-009
1.617031e-009
2.851700e-010
-1.301100e-009
7.096929e-009
4.870507e-010
-5.385228e-009
-5.228426e-009
-3.060085e-010
3.913718e-009
3.692606e-009
2.191180e-010
-2.547712e-009
-2.233696e-009
1.198552e-010
1.933485e-009
1.860595e-009
4.909816e-010
-9.786823e-010
-1.960405e-009
-2.343448e-009
-1.870583e-009
-2.810844e-010
1.967455e-009
3.612721e-009
3.549201e-009
1.821228e-009
-4.716292e-010
-2.180065e-009
-2.873377e-009
-2.710730e-009
-1.894060e-009
-4.949195e-010
1.270240e-009
2.882600e-009
3.806132e-009
3.883206e-009
3.362557e-009
2.569488e-009
1.640874e-009
5.828823e-010
-5.282120e-010
-1.505836e-009
-2.202691e-009
-2.628771e-009
-2.894099e-009
-3.072853e-009
-3.158838e-009
-3.135063e-009
-3.039440e-009
-2.942478e-009
-2.881060e-009
-2.839266e-009
-2.792815e-009
-2.751082e-009
-2.742214e-009
-2.766229e-009
-2.782552e-009
-2.750633e-009
-2.667517e-009
-2.545249e-009
-2.353955e-009
-2.016035e-009
-1.479180e-009
-7.819715e-010
-1.729424e-011
7.647209e-010
1.568136e-009
2.332674e-009
2.844313e-009
2.846040e-009
2.269115e-009
1.310070e-009
2.460922e-010
-7.685546e-010
-1.643525e-009
-2.134973e-009
-1.868020e-009
-7.220268e-010
8.457538e-010
2.014970e-009
2.218685e-009
1.514397e-009
3.653653e-010
-7.796408e-010
-1.573729e-009
-1.632672e-009
-7.172138e-010
7.491152e-010
1.622939e-009
9.794476e-010
-7.419213e-010
-1.853222e-009
-1.063649e-009
9.972314e-010
2.238414e-009
1.295201e-009
-9.166510e-010
-2.121693e-009
-1.154051e-009
7.905412e-010
1.553960e-009
4.615209e-010
-9.963413e-010
7.128612e-009
7.298921e-010
-4.862415e-009
-4.564226e-009
1.172472e-010
3.585390e-009
2.365871e-009
-1.622133e-009
-3.708159e-009
-1.631977e-009
2.372391e-009
4.318114e-009
2.585727e-009
-9.264125e-010
-3.215039e-009
-3.028699e-009
-1.315039e-009
4.177684e-010
1.484124e-009
1.887578e-009
1.574331e-009
3.996001e-010
-1.275271e-009
-2.452814e-009
-2.249138e-009
-6.854496e-010
1.394077e-009
3.104298e-009
4.078423e-009
4.341460e-009
3.926432e-009
2.814904e-009
1.174828e-009
-5.598712e-010
-1.948103e-009
-2.828565e-009
-3.304786e-009
-3.506177e-009
-3.449232e-009
-3.125147e-009
-2.629533e-009
-2.137098e-009
-1.764923e-009
-1.507375e-009
-1.307138e-009
-1.148880e-009
-1.059558e-009
-1.041912e-009
-1.048527e-009
-1.031294e-009
-9.933645e-010
-9.738080e-010
-9.929736e-010
-1.039316e-009
-1.114515e-009
-1.263510e-009
-1.529952e-009
-1.885344e-009
-2.231896e-009
-2.486569e-009
-2.632244e-009
-2.654126e-009
-2.448628e-009
-1.864233e-009
-8.719336e-010
3.380122e-010
1.476794e-009
2.356677e-009
2.912436e-009
3.040749e-009
2.550188e-009
1.395457e-009
-6.557787e-011
-1.192319e-009
-1.525602e-009
-1.097170e-009
-2.621643e-010
6.463485e-010
1.357643e-009
1.476159e-009
6.233863e-010
-9.780595e-010
-2.236828e-009
-1.957626e-009
-1.188989e-010
1.800675e-009
2.112761e-009
6.260900e-010
-1.118338e-009
-1.444872e-009
-2.610352e-010
9.786219e-010
9.504298e-010
-1.472601e-010
-9.837508e-010
-6.788733e-010
2.804144e-010
7.421519e-010
2.689561e-010
-4.280878e-010
2.485470e-009
8.688502e-011
-1.764425e-009
-1.128444e-009
9.825928e-010
1.862188e-009
1.923111e-010
-2.371919e-009
-2.912461e-009
-4.809871e-010
2.699228e-009
3.481792e-009
1.100775e-009
-2.059218e-009
-2.989653e-009
-1.047964e-009
1.709400e-009
2.843811e-009
1.750725e-009
-3.546437e-010
-2.043554e-009
-2.782918e-009
-2.662073e-009
-1.702429e-009
1.307466e-010
2.411566e-009
4.197016e-009
4.689561e-009
3.858231e-009
2.322771e-009
7.375472e-010
-5.867177e-010
-1.553310e-009
-2.036301e-009
-1.917636e-009
-1.292826e-009
-4.929561e-010
1.394331e-010
4.461069e-010
4.182065e-010
4.658600e-011
-7.171989e-010
-1.863795e-009
-3.258304e-009
-4.703101e-009
-6.044708e-009
-7.195749e-009
-8.076685e-009
-8.585811e-009
-8.646186e-009
-8.259699e-009
-7.492062e-009
-6.416498e-009
-5.101357e-009
-3.654762e-009
-2.244479e-009
-1.037861e-009
-1.250642e-010
4.744254e-010
7.366217e-010
6.147733e-010
1.340884e-010
-5.206169e-010
-1.071465e-009
-1.320212e-009
-1.221539e-009
-7.815162e-010
3.159008e-011
1.175791e-009
2.349975e-009
3.052383e-009
2.929409e-009
2.048329e-009
7.773808e-010
-5.348472e-010
-1.634164e-009
-2.166714e-009
-1.708579e-009
-2.655105e-010
1.322108e-009
1.834305e-009
8.046013e-010
-8.662216e-010
-1.661518e-009
-9.012675e-010
6.376641e-010
1.566405e-009
1.215865e-009
7.532220e-011
-8.909582e-010
-1.111730e-009
-6.477597e-010
9.248473e-011
6.516173e-010
6.993074e-010
2.274547e-010
-3.532001e-010
-5.079740e-010
-1.195701e-010
3.464577e-010
-3.783785e-009
-6.864779e-010
2.239584e-009
2.674157e-009
1.014338e-009
-8.023634e-010
-1.464740e-009
-1.021638e-009
-1.142451e-010
7.134868e-010
9.624749e-010
2.221487e-010
-1.196671e-009
-1.999639e-009
-9.685494e-010
1.522915e-009
3.457273e-009
3.011260e-009
3.880685e-010
-2.380785e-009
-3.381975e-009
-2.355432e-009
-4.042372e-010
1.344954e-009
2.478414e-009