# vtk DataFile Version 3.0
vtk output
ASCII
DATASET STRUCTURED_POINTS
DIMENSIONS 100 100 1
SPACING 1 1 1
ORIGIN 0 0 0
POINT_DATA 10000
SCALARS SFBox_profile double
LOOKUP_TABLE default 
9.439923e-003
9.439924e-003
9.439926e-003
9.439928e-003
9.439931e-003
9.439936e-003
9.439943e-003
9.439952e-003
9.439962e-003
9.439973e-003
9.439984e-003
9.439990e-003
9.439987e-003
9.439966e-003
9.439917e-003
9.439824e-003
9.439668e-003
9.439428e-003
9.439078e-003
9.438592e-003
9.437944e-003
9.437111e-003
9.436073e-003
9.434819e-003
9.433344e-003
9.431649e-003
9.429747e-003
9.427655e-003
9.425395e-003
9.422994e-003
9.420481e-003
9.417884e-003
9.415230e-003
9.412544e-003
9.409848e-003
9.407161e-003
9.404499e-003
9.401875e-003
9.399301e-003
9.396786e-003
9.394338e-003
9.391964e-003
9.389670e-003
9.387461e-003
9.385342e-003
9.383317e-003
9.381392e-003
9.379571e-003
9.377860e-003
9.376265e-003
9.374796e-003
9.373463e-003
9.372281e-003
9.371268e-003
9.370444e-003
9.369834e-003
9.369468e-003
9.369376e-003
9.369594e-003
9.370155e-003
9.371094e-003
9.372443e-003
9.374226e-003
9.376462e-003
9.379156e-003
9.382302e-003
9.385874e-003
9.389830e-003
9.394107e-003
9.398625e-003
9.403288e-003
9.407988e-003
9.412609e-003
9.417040e-003
9.421177e-003
9.424935e-003
9.428249e-003
9.431087e-003
9.433439e-003
9.435326e-003
9.436786e-003
9.437875e-003
9.438655e-003
9.439190e-003
9.439538e-003
9.439752e-003
9.439873e-003
9.439935e-003
9.439960e-003
9.439965e-003
9.439960e-003
9.439952e-003
9.439944e-003
9.439937e-003
9.439931e-003
9.439927e-003
9.439924e-003
9.439922e-003
9.439921e-003
9.439921e-003
9.439923e-003
9.439924e-003
9.439926e-003
9.439928e-003
9.439931e-003
9.439936e-003
9.439943e-003
9.439952e-003
9.439962e-003
9.439973e-003
9.439984e-003
9.439990e-003
9.439987e-003
9.439966e-003
9.439917e-003
9.439824e-003
9.439668e-003
9.439428e-003
9.439078e-003
9.438592e-003
9.437944e-003
9.437111e-003
9.436073e-003
9.434819e-003
9.433344e-003
9.431649e-003
9.429747e-003
9.427655e-003
9.425395e-003
9.422994e-003
9.420481e-003
9.417884e-003
9.415230e-003
9.412544e-003
9.409848e-003
9.407161e-003
9.404499e-003
9.401875e-003
9.399301e-003
9.396786e-003
9.394338e-003
9.391964e-003
9.389670e-003
9.387461e-003
9.385342e-003
9.383317e-003
9.381392e-003
9.379571e-003
9.377860e-003
9.376265e-003
9.374796e-003
9.373463e-003
9.372281e-003
9.371268e-003
9.370444e-003
9.369834e-003
9.369468e-003
9.369376e-003
9.369594e-003
9.370155e-003
9.371094e-003
9.372443e-003
9.374226e-003
9.376462e-003
9.379156e-003
9.382302e-003
9.385874e-003
9.389830e-003
9.394107e-003
9.398625e-003
9.403288e-003
9.407988e-003
9.412609e-003
9.417040e-003
9.421177e-003
9.424935e-003
9.428249e-003
9.431087e-003
9.433439e-003
9.435326e-003
9.436786e-003
9.437875e-003
9.438655e-003
9.439190e-003
9.439538e-003
9.439752e-003
9.439873e-003
9.439935e-003
9.439960e-003
9.439965e-003
9.439960e-003
9.439952e-003
9.439944e-003
9.439937e-003
9.439931e-003
9.439927e-003
9.439924e-003
9.439922e-003
9.439921e-003
9.439921e-003
9.439925e-003
9.439926e-003
9.439927e-003
9.439930e-003
9.439935e-003
9.439940e-003
9.439948e-003
9.439957e-003
9.439966e-003
9.439974e-003
9.439976e-003
9.439967e-003
9.439937e-003
9.439870e-003
9.439749e-003
9.439547e-003
9.439235e-003
9.438775e-003
9.438129e-003
9.437258e-003
9.436124e-003
9.434694e-003
9.432946e-003
9.430868e-003
9.428462e-003
9.425740e-003
9.422730e-003
9.419465e-003
9.415989e-003
9.412347e-003
9.408585e-003
9.404748e-003
9.400878e-003
9.397008e-003
9.393172e-003
9.389393e-003
9.385692e-003
9.382086e-003
9.378586e-003
9.375202e-003
9.371942e-003
9.368811e-003
9.365814e-003
9.362954e-003
9.360234e-003
9.357658e-003
9.355227e-003
9.352947e-003
9.350820e-003
9.348855e-003
9.347060e-003
9.345448e-003
9.344033e-003
9.342835e-003
9.341879e-003
9.341192e-003
9.340808e-003
9.340762e-003
9.341095e-003
9.341847e-003
9.343060e-003
9.344775e-003
9.347027e-003
9.349846e-003
9.353251e-003
9.357246e-003
9.361821e-003
9.366943e-003
9.372555e-003
9.378574e-003
9.384891e-003
9.391373e-003
9.397869e-003
9.404218e-003
9.410262e-003
9.415858e-003
9.420888e-003
9.425272e-003
9.428974e-003
9.431995e-003
9.434377e-003
9.436188e-003
9.437513e-003
9.438443e-003
9.439069e-003
9.439470e-003
9.439712e-003
9.439848e-003
9.439917e-003
9.439947e-003
9.439955e-003
9.439952e-003
9.439946e-003
9.439939e-003
9.439933e-003
9.439928e-003
9.439925e-003
9.439923e-003
9.439922e-003
9.439921e-003
9.439928e-003
9.439929e-003
9.439931e-003
9.439935e-003
9.439941e-003
9.439948e-003
9.439956e-003
9.439964e-003
9.439969e-003
9.439966e-003
9.439945e-003
9.439892e-003
9.439786e-003
9.439598e-003
9.439287e-003
9.438803e-003
9.438086e-003
9.437068e-003
9.435679e-003
9.433848e-003
9.431514e-003
9.428633e-003
9.425179e-003
9.421153e-003
9.416582e-003
9.411516e-003
9.406027e-003
9.400200e-003
9.394129e-003
9.387906e-003
9.381621e-003
9.375354e-003
9.369173e-003
9.363135e-003
9.357284e-003
9.351652e-003
9.346264e-003
9.341136e-003
9.336276e-003
9.331689e-003
9.327373e-003
9.323327e-003
9.319543e-003
9.316015e-003
9.312737e-003
9.309702e-003
9.306904e-003
9.304339e-003
9.302006e-003
9.299907e-003
9.298045e-003
9.296428e-003
9.295067e-003
9.293977e-003
9.293177e-003
9.292687e-003
9.292534e-003
9.292747e-003
9.293357e-003
9.294401e-003
9.295920e-003
9.297958e-003
9.300563e-003
9.303789e-003
9.307693e-003
9.312329e-003
9.317748e-003
9.323986e-003
9.331055e-003
9.338929e-003
9.347536e-003
9.356743e-003
9.366363e-003
9.376153e-003
9.385839e-003
9.395134e-003
9.403772e-003
9.411534e-003
9.418270e-003
9.423909e-003
9.428460e-003
9.431998e-003
9.434646e-003
9.436550e-003
9.437865e-003
9.438735e-003
9.439284e-003
9.439612e-003
9.439796e-003
9.439890e-003
9.439932e-003
9.439947e-003
9.439947e-003
9.439943e-003
9.439937e-003
9.439932e-003
9.439928e-003
9.439925e-003
9.439923e-003
9.439922e-003
9.439933e-003
9.439935e-003
9.439938e-003
9.439943e-003
9.439951e-003
9.439959e-003
9.439966e-003
9.439969e-003
9.439960e-003
9.439926e-003
9.439847e-003
9.439691e-003
9.439414e-003
9.438953e-003
9.438226e-003
9.437132e-003
9.435556e-003
9.433369e-003
9.430444e-003
9.426666e-003
9.421949e-003
9.416246e-003
9.409565e-003
9.401968e-003
9.393575e-003
9.384546e-003
9.375075e-003
9.365369e-003
9.355633e-003
9.346055e-003
9.336798e-003
9.327993e-003
9.319738e-003
9.312101e-003
9.305124e-003
9.298829e-003
9.293220e-003
9.288286e-003
9.284008e-003
9.280355e-003
9.277289e-003
9.274767e-003
9.272743e-003
9.271170e-003
9.270002e-003
9.269199e-003
9.268721e-003
9.268538e-003
9.268621e-003
9.268945e-003
9.269490e-003
9.270232e-003
9.271148e-003
9.272210e-003
9.273384e-003
9.274630e-003
9.275900e-003
9.277144e-003
9.278307e-003
9.279343e-003
9.280216e-003
9.280917e-003
9.281473e-003
9.281962e-003
9.282523e-003
9.283362e-003
9.284750e-003
9.287006e-003
9.290468e-003
9.295448e-003
9.302181e-003
9.310772e-003
9.321157e-003
9.333087e-003
9.346137e-003
9.359749e-003
9.373306e-003
9.386208e-003
9.397949e-003
9.408175e-003
9.416704e-003
9.423523e-003
9.428751e-003
9.432597e-003
9.435312e-003
9.437150e-003
9.438340e-003
9.439076e-003
9.439508e-003
9.439747e-003
9.439868e-003
9.439923e-003
9.439942e-003
9.439945e-003
9.439941e-003
9.439936e-003
9.439931e-003
9.439927e-003
9.439925e-003
9.439924e-003
9.439941e-003
9.439943e-003
9.439948e-003
9.439955e-003
9.439963e-003
9.439970e-003
9.439971e-003
9.439957e-003
9.439911e-003
9.439804e-003
9.439594e-003
9.439215e-003
9.438574e-003
9.437545e-003
9.435969e-003
9.433653e-003
9.430381e-003
9.425931e-003
9.420103e-003
9.412747e-003
9.403798e-003
9.393308e-003
9.381453e-003
9.368540e-003
9.354977e-003
9.341244e-003
9.327843e-003
9.315255e-003
9.303901e-003
9.294120e-003
9.286152e-003
9.280140e-003
9.276145e-003
9.274158e-003
9.274121e-003
9.275942e-003
9.279508e-003
9.284690e-003
9.291344e-003
9.299316e-003
9.308438e-003
9.318536e-003
9.329433e-003
9.340957e-003
9.352944e-003
9.365245e-003
9.377728e-003
9.390273e-003
9.402773e-003
9.415120e-003
9.427204e-003
9.438896e-003
9.450040e-003
9.460445e-003
9.469872e-003
9.478036e-003
9.484599e-003
9.489184e-003
9.491382e-003
9.490783e-003
9.487008e-003
9.479755e-003
9.468859e-003
9.454344e-003
9.436493e-003
9.415887e-003
9.393430e-003
9.370327e-003
9.348019e-003
9.328056e-003
9.311929e-003
9.300882e-003
9.295726e-003
9.296712e-003
9.303474e-003
9.315077e-003
9.330166e-003
9.347172e-003
9.364558e-003
9.381021e-003
9.395630e-003
9.407867e-003
9.417596e-003
9.424961e-003
9.430288e-003
9.433972e-003
9.436411e-003
9.437955e-003
9.438888e-003
9.439422e-003
9.439710e-003
9.439854e-003
9.439918e-003
9.439941e-003
9.439944e-003
9.439941e-003
9.439935e-003
9.439931e-003
9.439928e-003
9.439926e-003
9.439952e-003
9.439955e-003
9.439961e-003
9.439969e-003
9.439976e-003
9.439976e-003
9.439957e-003
9.439900e-003
9.439769e-003
9.439505e-003
9.439020e-003
9.438183e-003
9.436812e-003
9.434667e-003
9.431450e-003
9.426815e-003
9.420405e-003
9.411891e-003
9.401050e-003
9.387839e-003
9.372472e-003
9.355467e-003
9.337656e-003
9.320135e-003
9.304169e-003
9.291065e-003
9.282043e-003
9.278122e-003
9.280046e-003
9.288247e-003
9.302860e-003
9.323759e-003
9.350619e-003
9.382988e-003
9.420346e-003
9.462153e-003
9.507872e-003
9.556978e-003
9.608951e-003
9.663268e-003
9.719398e-003
9.776809e-003
9.834975e-003
9.893394e-003
9.951602e-003
1.000918e-002
1.006576e-002
1.012101e-002
1.017462e-002
1.022629e-002
1.027566e-002
1.032232e-002
1.036574e-002
1.040526e-002
1.044005e-002
1.046909e-002
1.049120e-002
1.050500e-002
1.050901e-002
1.050168e-002
1.048152e-002
1.044722e-002
1.039784e-002
1.033298e-002
1.025301e-002
1.015925e-002
1.005408e-002
9.940969e-003
9.824378e-003
9.709448e-003
9.601562e-003
9.505792e-003
9.426294e-003
9.365781e-003
9.325177e-003
9.303533e-003
9.298251e-003
9.305580e-003
9.321273e-003
9.341252e-003
9.362134e-003
9.381518e-003
9.398025e-003
9.411141e-003
9.420967e-003
9.427952e-003
9.432683e-003
9.435742e-003
9.437631e-003
9.438744e-003
9.439365e-003
9.439691e-003
9.439849e-003
9.439917e-003
9.439941e-003
9.439944e-003
9.439940e-003
9.439935e-003
9.439931e-003
9.439929e-003
9.439967e-003
9.439971e-003
9.439977e-003
9.439983e-003
9.439982e-003
9.439961e-003
9.439896e-003
9.439745e-003
9.439434e-003
9.438851e-003
9.437822e-003
9.436097e-003
9.433338e-003
9.429108e-003
9.422892e-003
9.414140e-003
9.402365e-003
9.387277e-003
9.368976e-003
9.348141e-003
9.326185e-003
9.305314e-003
9.288432e-003
9.278912e-003
9.280246e-003
9.295665e-003
9.327787e-003
9.378380e-003
9.448258e-003
9.537304e-003
9.644606e-003
9.768651e-003
9.907553e-003
1.005927e-002
1.022178e-002
1.039318e-002
1.057174e-002
1.075589e-002
1.094415e-002
1.113511e-002
1.132741e-002
1.151971e-002
1.171069e-002
1.189917e-002
1.208403e-002
1.226432e-002
1.243919e-002
1.260792e-002
1.276981e-002
1.292415e-002
1.307011e-002
1.320664e-002
1.333238e-002
1.344557e-002
1.354400e-002
1.362492e-002
1.368505e-002
1.372062e-002
1.372745e-002
1.370111e-002
1.363717e-002
1.353156e-002
1.338094e-002
1.318326e-002
1.293831e-002
1.264828e-002
1.231819e-002
1.195619e-002
1.157344e-002
1.118366e-002
1.080216e-002
1.044446e-002
1.012472e-002
9.854074e-003
9.639250e-003
9.481843e-003
9.378338e-003
9.321003e-003
9.299454e-003
9.302503e-003
9.319853e-003
9.343274e-003
9.367085e-003
9.388030e-003
9.404761e-003
9.417178e-003
9.425854e-003
9.431604e-003
9.435232e-003
9.437415e-003
9.438665e-003
9.439344e-003
9.439690e-003
9.439852e-003
9.439920e-003
9.439942e-003
9.439944e-003
9.439941e-003
9.439936e-003
9.439934e-003
9.439987e-003
9.439990e-003
9.439994e-003
9.439992e-003
9.439970e-003
9.439901e-003
9.439736e-003
9.439392e-003
9.438730e-003
9.437535e-003
9.435484e-003
9.432125e-003
9.426857e-003
9.418950e-003
9.407616e-003
9.392171e-003
9.372311e-003
9.348522e-003
9.322555e-003
9.297868e-003
9.279877e-003
9.275859e-003
9.294434e-003
9.344680e-003
9.435061e-003
9.572399e-003
9.761109e-003
1.000283e-002
1.029647e-002
1.063860e-002
1.102403e-002
1.144649e-002
1.189932e-002
1.237602e-002
1.287061e-002
1.337790e-002
1.389341e-002
1.441334e-002
1.493434e-002
1.545333e-002
1.596743e-002
1.647387e-002
1.697008e-002
1.745370e-002
1.792265e-002
1.837519e-002
1.880985e-002
1.922541e-002
1.962071e-002
1.999449e-002
2.034522e-002
2.067080e-002
2.096845e-002
2.123441e-002
2.146383e-002
2.165064e-002
2.178751e-002
2.186587e-002
2.187608e-002
2.180772e-002
2.165003e-002
2.139257e-002
2.102610e-002
2.054361e-002
1.994165e-002
1.922166e-002
1.839125e-002
1.746531e-002
1.646641e-002
1.542447e-002
1.437530e-002
1.335806e-002
1.241160e-002
1.157031e-002
1.086001e-002
1.029466e-002
9.874939e-003
9.589016e-003
9.415457e-003
9.327645e-003
9.298470e-003
9.304179e-003
9.326619e-003
9.353759e-003
9.378884e-003
9.399141e-003
9.414041e-003
9.424263e-003
9.430883e-003
9.434954e-003
9.437337e-003
9.438663e-003
9.439362e-003
9.439707e-003
9.439863e-003
9.439925e-003
9.439944e-003
9.439945e-003
9.439942e-003
9.439940e-003
9.440010e-003
9.440011e-003
9.440007e-003
9.439984e-003
9.439914e-003
9.439746e-003
9.439386e-003
9.438676e-003
9.437363e-003
9.435054e-003
9.431179e-003
9.424958e-003
9.415413e-003
9.401469e-003
9.382213e-003
9.357408e-003
9.328298e-003
9.298689e-003
9.276094e-003
9.272584e-003
9.304895e-003
9.393474e-003
9.560442e-003
9.826828e-003
1.020971e-002
1.071991e-002
1.136079e-002
1.212821e-002
1.301157e-002
1.399549e-002
1.506181e-002
1.619146e-002
1.736604e-002
1.856896e-002
1.978612e-002
2.100607e-002
2.221973e-002
2.341994e-002
2.460089e-002
2.575757e-002
2.688551e-002
2.798060e-002
2.903912e-002
3.005786e-002
3.103416e-002
3.196599e-002
3.285187e-002
3.369065e-002
3.448129e-002
3.522250e-002
3.591232e-002
3.654774e-002
3.712431e-002
3.763574e-002
3.807364e-002
3.842723e-002
3.868327e-002
3.882602e-002
3.883739e-002
3.869729e-002
3.838427e-002
3.787638e-002
3.715248e-002
3.619401e-002
3.498716e-002
3.352556e-002
3.181322e-002
2.986745e-002
2.772132e-002
2.542498e-002
2.304514e-002
2.066208e-002
1.836382e-002
1.623760e-002
1.435967e-002
1.278521e-002
1.154083e-002
1.062186e-002
9.995525e-003
9.609258e-003
9.401824e-003
9.314066e-003
9.296688e-003
9.313832e-003
9.342832e-003
9.371555e-003
9.394945e-003
9.411960e-003
9.423399e-003
9.430625e-003
9.434949e-003
9.437410e-003
9.438738e-003
9.439416e-003
9.439739e-003
9.439880e-003
9.439932e-003
9.439947e-003
9.439948e-003
9.439946e-003
9.440033e-003
9.440027e-003
9.440004e-003
9.439937e-003
9.439774e-003
9.439417e-003
9.438696e-003
9.437330e-003
9.434867e-003
9.430629e-003
9.423658e-003
9.412712e-003
9.396390e-003
9.373514e-003
9.343968e-003
9.310169e-003
9.279244e-003
9.265657e-003
9.293573e-003
9.397886e-003
9.622879e-003
1.001804e-002
1.063159e-002
1.150309e-002
1.265714e-002
1.409959e-002
1.581715e-002
1.778005e-002
1.994671e-002
2.226926e-002
2.469867e-002
2.718884e-002
2.969944e-002
3.219738e-002
3.465720e-002
3.706044e-002
3.939447e-002
4.165089e-002
4.382417e-002
4.591039e-002
4.790660e-002
4.981043e-002
5.162008e-002
5.333445e-002
5.495320e-002
5.647675e-002
5.790617e-002
5.924282e-002
6.048796e-002
6.164220e-002
6.270498e-002
6.367397e-002
6.454455e-002
6.530932e-002
6.595763e-002
6.647530e-002
6.684432e-002
6.704266e-002
6.704431e-002
6.681929e-002
6.633410e-002
6.555224e-002
6.443534e-002
6.294486e-002
6.104461e-002
5.870432e-002
5.590443e-002
5.264195e-002
4.893708e-002
4.483990e-002
4.043554e-002
3.584612e-002
3.122715e-002
2.675649e-002
2.261569e-002
1.896569e-002
1.592228e-002
1.353810e-002
1.179733e-002
1.062499e-002
9.908008e-003
9.520786e-003
9.347675e-003
9.297010e-003
9.305498e-003
9.335197e-003
9.366821e-003
9.392691e-003
9.411219e-003
9.423386e-003
9.430868e-003
9.435219e-003
9.437621e-003
9.438877e-003
9.439497e-003
9.439781e-003
9.439899e-003
9.439941e-003
9.439952e-003
9.439954e-003
9.440050e-003
9.440029e-003
9.439968e-003
9.439817e-003
9.439481e-003
9.438787e-003
9.437438e-003
9.434946e-003
9.430549e-003
9.423134e-003
9.411202e-003
9.393002e-003
9.367034e-003
9.333272e-003
9.295556e-003
9.265502e-003
9.267788e-003
9.345712e-003
9.564846e-003
1.001209e-002
1.078815e-002
1.199371e-002
1.371197e-002
1.599246e-002
1.884073e-002
2.221670e-002
2.604155e-002
3.021054e-002
3.460775e-002
3.911952e-002
4.364431e-002
4.809848e-002
5.241845e-002
5.656008e-002
6.049623e-002
6.421336e-002
6.770787e-002
7.098257e-002
7.404394e-002
7.690007e-002
7.955958e-002
8.203105e-002
8.432298e-002
8.644385e-002
8.840222e-002
9.020671e-002
9.186576e-002
9.338738e-002
9.477864e-002
9.604530e-002
9.719127e-002
9.821818e-002
9.912496e-002
9.990746e-002
1.005581e-001
1.010655e-001
1.014141e-001
1.015840e-001
1.015502e-001
1.012823e-001
1.007436e-001
9.989081e-002
9.867337e-002
9.703309e-002
9.490475e-002
9.221788e-002
8.890051e-002
8.488587e-002
8.012267e-002
7.458960e-002
6.831320e-002
6.138650e-002
5.398355e-002
4.636235e-002
3.884922e-002
3.180092e-002
2.554877e-002
2.033875e-002
1.628720e-002
1.336826e-002
1.143732e-002
1.027955e-002
9.664587e-003
9.389592e-003
9.301737e-003
9.301142e-003
9.331298e-003
9.365163e-003
9.392660e-003
9.411919e-003
9.424226e-003
9.431575e-003
9.435720e-003
9.437937e-003
9.439059e-003
9.439593e-003
9.439827e-003
9.439921e-003
9.439952e-003
9.439961e-003
9.440049e-003
9.440001e-003
9.439869e-003
9.439567e-003
9.438932e-003
9.437668e-003
9.435274e-003
9.430944e-003
9.423451e-003
9.411081e-003
9.391738e-003
9.363520e-003
9.326311e-003
9.285225e-003
9.256813e-003
9.278403e-003
9.419332e-003
9.790390e-003
1.054564e-002
1.187095e-002
1.395705e-002
1.696159e-002
2.097076e-002
2.597334e-002
3.185656e-002
3.842453e-002
4.543240e-002
5.262477e-002
5.976826e-002
6.667255e-002
7.319916e-002
7.926051e-002
8.481283e-002
8.984635e-002
9.437515e-002
9.842827e-002
1.020428e-001
1.052587e-001
1.081158e-001
1.106514e-001
1.129001e-001
1.148930e-001
1.166581e-001
1.182205e-001
1.196025e-001
1.208240e-001
1.219025e-001
1.228531e-001
1.236888e-001
1.244201e-001
1.250556e-001
1.256017e-001
1.260626e-001
1.264406e-001
1.267359e-001
1.269465e-001
1.270678e-001
1.270924e-001
1.270092e-001
1.268029e-001
1.264519e-001
1.259273e-001
1.251896e-001
1.241862e-001
1.228477e-001
1.210836e-001
1.187791e-001
1.157937e-001
1.119635e-001
1.071129e-001
1.010780e-001
9.374574e-002
8.510606e-002
7.530591e-002
6.468629e-002
5.377728e-002
4.323291e-002
3.370965e-002
2.572377e-002
1.954231e-002
1.515158e-002
1.230987e-002
1.065191e-002
9.797034e-003
9.424723e-003
9.306038e-003
9.299875e-003
9.331269e-003
9.366740e-003
9.394851e-003
9.413959e-003
9.425792e-003
9.432638e-003
9.436378e-003
9.438313e-003
9.439258e-003
9.439691e-003
9.439873e-003
9.439942e-003
9.439964e-003
9.440010e-003
9.439914e-003
9.439662e-003
9.439109e-003
9.437982e-003
9.435796e-003
9.431743e-003
9.424547e-003
9.412349e-003
9.392751e-003
9.363382e-003
9.323722e-003
9.279475e-003
9.251267e-003
9.289144e-003
9.492258e-003
1.002874e-002
1.114527e-002
1.315303e-002
1.638084e-002
2.109909e-002
2.743559e-002
3.531550e-002
4.445290e-002
5.440027e-002
6.463700e-002
7.466413e-002
8.407629e-002
9.259719e-002
1.000813e-001
1.064936e-001
1.118788e-001
1.163309e-001
1.199664e-001
1.229064e-001
1.252650e-001
1.271442e-001
1.286327e-001
1.298059e-001
1.307270e-001
1.314481e-001
1.320118e-001
1.324521e-001
1.327959e-001
1.330643e-001
1.332733e-001
1.334354e-001
1.335601e-001
1.336546e-001
1.337247e-001
1.337746e-001
1.338079e-001
1.338273e-001
1.338351e-001
1.338328e-001
1.338214e-001
1.338011e-001
1.337712e-001
1.337297e-001
1.336732e-001
1.335957e-001
1.334886e-001
1.333389e-001
1.331273e-001
1.328257e-001
1.323923e-001
1.317639e-001
1.308447e-001
1.294891e-001
1.274817e-001
1.245216e-001
1.202268e-001
1.141788e-001
1.060247e-001
9.562671e-002
8.321932e-002
6.948923e-002
5.550159e-002
4.245809e-002
3.137293e-002
2.281513e-002
1.683188e-002
1.305952e-002
1.093216e-002
9.878098e-003
9.439115e-003
9.306374e-003
9.301233e-003
9.335091e-003
9.371383e-003
9.398981e-003
9.417056e-003
9.427866e-003
9.433912e-003
9.437105e-003
9.438701e-003
9.439452e-003
9.439783e-003
9.439915e-003
9.439960e-003
9.439908e-003
9.439734e-003
9.439285e-003
9.438331e-003
9.436433e-003
9.432824e-003
9.426253e-003
9.414809e-003
9.395886e-003
9.366635e-003
9.325786e-003
9.278537e-003
9.247289e-003
9.291431e-003
9.537442e-003
1.021433e-002
1.167885e-002
1.440490e-002
1.891169e-002
2.562565e-002
3.471049e-002
4.593735e-002
5.866980e-002
7.198941e-002
8.491433e-002
9.661807e-002
1.065690e-001
1.145621e-001
1.206632e-001
1.251132e-001
1.282315e-001
1.303424e-001
1.317303e-001
1.326199e-001
1.331770e-001
1.335185e-001
1.337246e-001
1.338496e-001
1.339290e-001
1.339845e-001
1.340280e-001
1.340644e-001
1.340945e-001
1.341170e-001
1.341300e-001
1.341322e-001
1.341232e-001
1.341039e-001
1.340757e-001
1.340412e-001
1.340032e-001
1.339652e-001
1.339309e-001
1.339042e-001
1.338896e-001
1.338914e-001
1.339143e-001
1.339627e-001
1.340405e-001
1.341500e-001
1.342913e-001
1.344602e-001
1.346463e-001
1.348309e-001
1.349847e-001
1.350681e-001
1.350327e-001
1.348281e-001
1.344093e-001
1.337362e-001
1.327503e-001
1.313118e-001
1.291020e-001
1.255340e-001
1.197726e-001
1.109740e-001
9.873928e-002
8.354298e-002
6.680589e-002
5.048021e-002
3.635662e-002
2.549278e-002
1.804715e-002
1.350093e-002
1.104098e-002
9.881138e-003
9.426886e-003
9.302607e-003
9.305582e-003
9.342608e-003
9.378610e-003
9.404536e-003
9.420807e-003
9.430180e-003
9.435239e-003
9.437819e-003
9.439062e-003
9.439625e-003
9.439860e-003
9.439942e-003
9.439705e-003
9.439407e-003
9.438657e-003
9.437093e-003
9.434036e-003
9.428325e-003
9.418109e-003
9.400706e-003
9.372879e-003
9.332386e-003
9.282777e-003
9.245053e-003
9.281396e-003
9.535484e-003
1.028699e-002
1.200184e-002
1.533774e-002
2.105152e-002
2.977618e-002
4.170847e-002
5.634634e-002
7.245850e-002
8.837571e-002
1.024971e-001
1.137607e-001
1.218563e-001
1.271279e-001
1.302766e-001
1.320489e-001
1.330399e-001
1.336327e-001
1.340242e-001
1.342848e-001
1.344211e-001
1.344216e-001
1.342805e-001
1.340043e-001
1.336080e-001
1.331103e-001
1.325298e-001
1.318835e-001
1.311862e-001
1.304515e-001
1.296918e-001
1.289189e-001
1.281435e-001
1.273755e-001
1.266237e-001
1.258963e-001
1.252006e-001
1.245442e-001
1.239347e-001
1.233807e-001
1.228923e-001
1.224816e-001
1.221630e-001
1.219536e-001
1.218736e-001
1.219456e-001
1.221950e-001
1.226481e-001
1.233310e-001
1.242661e-001
1.254675e-001
1.269339e-001
1.286385e-001
1.305169e-001
1.324525e-001
1.342651e-001
1.357098e-001
1.365045e-001
1.364085e-001
1.353392e-001
1.334153e-001
1.307162e-001
1.267586e-001
1.202189e-001
1.095386e-001
9.421615e-002
7.563026e-002
5.655313e-002
3.978955e-002
2.702158e-002
1.850942e-002
1.351643e-002
1.094620e-002
9.805385e-003
9.393270e-003
9.298055e-003
9.313759e-003
9.353372e-003
9.387652e-003
9.410859e-003
9.424772e-003
9.432477e-003
9.436486e-003
9.438456e-003
9.439369e-003
9.439761e-003
9.439902e-003
9.439352e-003
9.438872e-003
9.437677e-003
9.435221e-003
9.430498e-003
9.421816e-003
9.406581e-003
9.381350e-003
9.342933e-003
9.292483e-003
9.246611e-003
9.262430e-003
9.484882e-003
1.021958e-002
1.201522e-002
1.570367e-002
2.230770e-002
3.272984e-002
4.723886e-002
6.497592e-002
8.386976e-002
1.012342e-001
1.148542e-001
1.239034e-001
1.290548e-001
1.317548e-001
1.332919e-001
1.343130e-001
1.349057e-001
1.349423e-001
1.343392e-001
1.331275e-001
1.314161e-001
1.293390e-001
1.270233e-001
1.245748e-001
1.220748e-001
1.195821e-001
1.171366e-001
1.147649e-001
1.124841e-001
1.103050e-001
1.082347e-001
1.062771e-001
1.044344e-001
1.027068e-001
1.010934e-001
9.959239e-002
9.820167e-002
9.691957e-002
9.574553e-002
9.468079e-002
9.372911e-002
9.289738e-002
9.219621e-002
9.164052e-002
9.125009e-002
9.105016e-002
9.107195e-002
9.135336e-002
9.193945e-002
9.288286e-002
9.424373e-002
9.608875e-002
9.848842e-002
1.015113e-001
1.052130e-001
1.096169e-001
1.146821e-001
1.202554e-001
1.260069e-001
1.313696e-001
1.355415e-001
1.376575e-001
1.372251e-001
1.345968e-001
1.306334e-001
1.251240e-001
1.159342e-001
1.010160e-001
8.113696e-002
5.984065e-002
4.106150e-002
2.707496e-002
1.810643e-002
1.310307e-002
1.067694e-002
9.676195e-003
9.351804e-003
9.297471e-003
9.326257e-003
9.366516e-003
9.397555e-003
9.417273e-003
9.428552e-003
9.434553e-003
9.437558e-003
9.438978e-003
9.439601e-003
9.439829e-003
9.438795e-003
9.438055e-003
9.436229e-003
9.432527e-003
9.425505e-003
9.412812e-003
9.391044e-003
9.356340e-003
9.307366e-003
9.254586e-003
9.243471e-003
9.403277e-003
1.003190e-002
1.171025e-002
1.539409e-002
2.236185e-002
3.385369e-002
5.033442e-002
7.064570e-002
9.174470e-002
1.097363e-001
1.219768e-001
1.286342e-001
1.319886e-001
1.340884e-001
1.353763e-001
1.353131e-001
1.335121e-001
1.301139e-001
1.255784e-001
1.204145e-001
1.150366e-001
1.097287e-001
1.046607e-001
9.992007e-002
9.553981e-002
9.152069e-002
8.784587e-002
8.449061e-002
8.142811e-002
7.863262e-002
7.608078e-002
7.375173e-002
7.162689e-002
6.968944e-002
6.792402e-002
6.631657e-002
6.485436e-002
6.352624e-002
6.232291e-002
6.123732e-002
6.026505e-002
5.940464e-002
5.865800e-002
5.803073e-002
5.753257e-002
5.717784e-002
5.698605e-002
5.698275e-002
5.720056e-002
5.768060e-002
5.847429e-002
5.964571e-002
6.127426e-002
6.345769e-002
6.631484e-002
6.998693e-002
7.463505e-002
8.042878e-002
8.751703e-002
9.596656e-002
1.056497e-001
1.160713e-001
1.261688e-001
1.342446e-001
1.383909e-001
1.377267e-001
1.335637e-001
1.278012e-001
1.191680e-001
1.042671e-001
8.306354e-002
5.995389e-002
3.995573e-002
2.564647e-002
1.694096e-002
1.237326e-002
1.031028e-002
9.532958e-003
9.317540e-003
9.304352e-003
9.342562e-003
9.380790e-003
9.407340e-003
9.423199e-003
9.431859e-003
9.436281e-003
9.438407e-003
9.439357e-003
9.439710e-003
9.437971e-003
9.436874e-003
9.434192e-003
9.428814e-003
9.418755e-003
9.400903e-003
9.371159e-003
9.326234e-003
9.270357e-003
9.234139e-003
9.318661e-003
9.781802e-003
1.117402e-002
1.448707e-002
2.118567e-002
3.288323e-002
5.044558e-002
7.270354e-002
9.575978e-002
1.143686e-001
1.255114e-001
1.308207e-001
1.338978e-001
1.357803e-001
1.350707e-001
1.308753e-001
1.237825e-001
1.150697e-001
1.059082e-001
9.707626e-002
8.898205e-002
8.177890e-002
7.547240e-002
6.999466e-002
6.524873e-002
6.113266e-002
5.755121e-002
5.442092e-002
5.167145e-002
4.924499e-002
4.709466e-002
4.518258e-002
4.347791e-002
4.195514e-002
4.059282e-002
3.937259e-002
3.827862e-002
3.729725e-002
3.641691e-002
3.562806e-002
3.492324e-002
3.429718e-002
3.374690e-002
3.327182e-002
3.287391e-002
3.255791e-002
3.233160e-002
3.220626e-002
3.219727e-002
3.232503e-002
3.261627e-002
3.310588e-002
3.383952e-002
3.487716e-002
3.629801e-002
3.820700e-002
4.074335e-002
4.409080e-002
4.848838e-002
5.423678e-002
6.168912e-002
7.120271e-002
8.301189e-002
9.697046e-002
1.121408e-001
1.263622e-001
1.363311e-001
1.391911e-001
1.355313e-001
1.291194e-001
1.201825e-001
1.043682e-001
8.139021e-002
5.689378e-002
3.667646e-002
2.304928e-002
1.529264e-002
1.150889e-002
9.938447e-003
9.412079e-003
9.300504e-003
9.319275e-003
9.361111e-003
9.394809e-003
9.416189e-003
9.428245e-003
9.434533e-003
9.437608e-003
9.439003e-003
9.439530e-003
9.436818e-003
9.435252e-003
9.431450e-003
9.423908e-003
9.410006e-003
9.385856e-003
9.347101e-003
9.293034e-003
9.239971e-003
9.256189e-003
9.538637e-003
1.055175e-002
1.321827e-002
1.905742e-002
3.000107e-002
4.750892e-002
7.090456e-002
9.593657e-002
1.159428e-001
1.269973e-001
1.319355e-001
1.351256e-001
1.357025e-001
1.309332e-001
1.209731e-001
1.081646e-001
9.487766e-002
8.259439e-002
7.195122e-002
6.305320e-002
5.574725e-002
4.979005e-002
4.493256e-002
4.095459e-002
3.767415e-002
3.494590e-002
3.265583e-002
3.071554e-002
2.905690e-002
2.762763e-002
2.638751e-002
2.530543e-002
2.435698e-002
2.352266e-002
2.278660e-002
2.213563e-002
2.155871e-002
2.104655e-002
2.059140e-002
2.018693e-002
1.982818e-002
1.951147e-002
1.923447e-002
1.899616e-002
1.879690e-002
1.863848e-002
1.852427e-002
1.845949e-002
1.845151e-002
1.851040e-002
1.864980e-002
1.888811e-002
1.925026e-002
1.977041e-002
2.049589e-002
2.149300e-002
2.285581e-002
2.471904e-002
2.727652e-002
3.080595e-002
3.569740e-002
4.247438e-002
5.177744e-002
6.424712e-002
8.020344e-002
9.902123e-002
1.182827e-001
1.334054e-001
1.394854e-001
1.362490e-001
1.291683e-001
1.192901e-001
1.013528e-001
7.616558e-002
5.104137e-002
3.181522e-002