# vtk DataFile Version 3.0
vtk output
ASCII
DATASET STRUCTURED_POINTS
DIMENSIONS 100 100 1
SPACING 1 1 1
ORIGIN 0 0 0
POINT_DATA 10000
SCALARS SFBox_profile double
LOOKUP_TABLE default 
9.439920e-003
9.439920e-003
9.439920e-003
9.439920e-003
9.439920e-003
9.439920e-003
9.439920e-003
9.439919e-003
9.439920e-003
9.439920e-003
9.439920e-003
9.439921e-003
9.439921e-003
9.439920e-003
9.439920e-003
9.439919e-003
9.439919e-003
9.439920e-003
9.439920e-003
9.439920e-003
9.439920e-003
9.439920e-003
9.439921e-003
9.439921e-003
9.439921e-003
9.439921e-003
9.439921e-003
9.439921e-003
9.439921e-003
9.439921e-003
9.439921e-003
9.439922e-003
9.439922e-003
9.439922e-003
9.439923e-003
9.439923e-003
9.439924e-003
9.439924e-003
9.439925e-003
9.439925e-003
9.439926e-003
9.439926e-003
9.439926e-003
9.439927e-003
9.439927e-003
9.439928e-003
9.439928e-003
9.439928e-003
9.439928e-003
9.439929e-003
9.439929e-003
9.439929e-003
9.439929e-003
9.439929e-003
9.439928e-003
9.439928e-003
9.439928e-003
9.439928e-003
9.439927e-003
9.439927e-003
9.439926e-003
9.439926e-003
9.439925e-003
9.439925e-003
9.439924e-003
9.439924e-003
9.439923e-003
9.439922e-003
9.439922e-003
9.439922e-003
9.439921e-003
9.439921e-003
9.439921e-003
9.439921e-003
9.439921e-003
9.439921e-003
9.439921e-003
9.439921e-003
9.439920e-003
9.439920e-003
9.439920e-003
9.439920e-003
9.439920e-003
9.439920e-003
9.439920e-003
9.439920e-003
9.439920e-003
9.439920e-003
9.439920e-003
9.439920e-003
9.439920e-003
9.439920e-003
9.439920e-003
9.439920e-003
9.439920e-003
9.439920e-003
9.439920e-003
9.439920e-003
9.439920e-003
9.439920e-003
9.439920e-003
9.439920e-003
9.439920e-003
9.439920e-003
9.439920e-003
9.439920e-003
9.439920e-003
9.439919e-003
9.439920e-003
9.439920e-003
9.439920e-003
9.439921e-003
9.439921e-003
9.439920e-003
9.439920e-003
9.439919e-003
9.439919e-003
9.439920e-003
9.439920e-003
9.439920e-003
9.439920e-003
9.439920e-003
9.439921e-003
9.439921e-003
9.439921e-003
9.439921e-003
9.439921e-003
9.439921e-003
9.439921e-003
9.439921e-003
9.439921e-003
9.439922e-003
9.439922e-003
9.439922e-003
9.439923e-003
9.439923e-003
9.439924e-003
9.439924e-003
9.439925e-003
9.439925e-003
9.439926e-003
9.439926e-003
9.439926e-003
9.439927e-003
9.439927e-003
9.439928e-003
9.439928e-003
9.439928e-003
9.439928e-003
9.439929e-003
9.439929e-003
9.439929e-003
9.439929e-003
9.439929e-003
9.439928e-003
9.439928e-003
9.439928e-003
9.439928e-003
9.439927e-003
9.439927e-003
9.439926e-003
9.439926e-003
9.439925e-003
9.439925e-003
9.439924e-003
9.439924e-003
9.439923e-003
9.439922e-003
9.439922e-003
9.439922e-003
9.439921e-003
9.439921e-003
9.439921e-003
9.439921e-003
9.439921e-003
9.439921e-003
9.439921e-003
9.439921e-003
9.439920e-003
9.439920e-003
9.439920e-003
9.439920e-003
9.439920e-003
9.439920e-003
9.439920e-003
9.439920e-003
9.439920e-003
9.439920e-003
9.439920e-003
9.439920e-003
9.439920e-003
9.439920e-003
9.439920e-003
9.439920e-003
9.439920e-003
9.439920e-003
9.439920e-003
9.439920e-003
9.439920e-003
9.439920e-003
9.439920e-003
9.439920e-003
9.439920e-003
9.439920e-003
9.439920e-003
9.439920e-003
9.439920e-003
9.439920e-003
9.439920e-003
9.439920e-003
9.439920e-003
9.439920e-003
9.439920e-003
9.439920e-003
9.439920e-003
9.439920e-003
9.439920e-003
9.439920e-003
9.439920e-003
9.439920e-003
9.439920e-003
9.439920e-003
9.439920e-003
9.439920e-003
9.439920e-003
9.439921e-003
9.439921e-003
9.439921e-003
9.439922e-003
9.439922e-003
9.439923e-003
9.439923e-003
9.439924e-003
9.439925e-003
9.439925e-003
9.439926e-003
9.439927e-003
9.439927e-003
9.439928e-003
9.439929e-003
9.439929e-003
9.439930e-003
9.439930e-003
9.439931e-003
9.439931e-003
9.439932e-003
9.439932e-003
9.439932e-003
9.439932e-003
9.439933e-003
9.439933e-003
9.439933e-003
9.439933e-003
9.439932e-003
9.439932e-003
9.439932e-003
9.439932e-003
9.439931e-003
9.439931e-003
9.439930e-003
9.439930e-003
9.439929e-003
9.439928e-003
9.439928e-003
9.439927e-003
9.439926e-003
9.439926e-003
9.439925e-003
9.439924e-003
9.439923e-003
9.439923e-003
9.439922e-003
9.439922e-003
9.439921e-003
9.439921e-003
9.439921e-003
9.439920e-003
9.439920e-003
9.439920e-003
9.439920e-003
9.439920e-003
9.439920e-003
9.439920e-003
9.439920e-003
9.439920e-003
9.439920e-003
9.439920e-003
9.439920e-003
9.439920e-003
9.439920e-003
9.439920e-003
9.439920e-003
9.439920e-003
9.439920e-003
9.439920e-003
9.439920e-003
9.439920e-003
9.439920e-003
9.439920e-003
9.439920e-003
9.439920e-003
9.439920e-003
9.439920e-003
9.439920e-003
9.439920e-003
9.439920e-003
9.439920e-003
9.439921e-003
9.439920e-003
9.439920e-003
9.439920e-003
9.439919e-003
9.439919e-003
9.439920e-003
9.439920e-003
9.439920e-003
9.439921e-003
9.439921e-003
9.439921e-003
9.439920e-003
9.439920e-003
9.439920e-003
9.439920e-003
9.439920e-003
9.439921e-003
9.439921e-003
9.439922e-003
9.439922e-003
9.439923e-003
9.439924e-003
9.439925e-003
9.439926e-003
9.439927e-003
9.439928e-003
9.439930e-003
9.439931e-003
9.439932e-003
9.439933e-003
9.439933e-003
9.439934e-003
9.439935e-003
9.439936e-003
9.439937e-003
9.439937e-003
9.439938e-003
9.439938e-003
9.439939e-003
9.439939e-003
9.439939e-003
9.439939e-003
9.439939e-003
9.439939e-003
9.439939e-003
9.439939e-003
9.439939e-003
9.439938e-003
9.439938e-003
9.439938e-003
9.439937e-003
9.439936e-003
9.439936e-003
9.439935e-003
9.439934e-003
9.439933e-003
9.439932e-003
9.439931e-003
9.439930e-003
9.439929e-003
9.439928e-003
9.439926e-003
9.439925e-003
9.439924e-003
9.439923e-003
9.439923e-003
9.439922e-003
9.439921e-003
9.439921e-003
9.439920e-003
9.439920e-003
9.439920e-003
9.439920e-003
9.439920e-003
9.439920e-003
9.439920e-003
9.439920e-003
9.439920e-003
9.439920e-003
9.439920e-003
9.439920e-003
9.439920e-003
9.439920e-003
9.439920e-003
9.439920e-003
9.439920e-003
9.439920e-003
9.439920e-003
9.439920e-003
9.439920e-003
9.439920e-003
9.439920e-003
9.439920e-003
9.439920e-003
9.439920e-003
9.439920e-003
9.439920e-003
9.439920e-003
9.439920e-003
9.439921e-003
9.439920e-003
9.439920e-003
9.439920e-003
9.439919e-003
9.439919e-003
9.439920e-003
9.439920e-003
9.439921e-003
9.439921e-003
9.439921e-003
9.439921e-003
9.439921e-003
9.439921e-003
9.439921e-003
9.439921e-003
9.439922e-003
9.439922e-003
9.439923e-003
9.439924e-003
9.439925e-003
9.439927e-003
9.439928e-003
9.439929e-003
9.439931e-003
9.439932e-003
9.439934e-003
9.439935e-003
9.439937e-003
9.439938e-003
9.439939e-003
9.439940e-003
9.439941e-003
9.439942e-003
9.439943e-003
9.439944e-003
9.439944e-003
9.439945e-003
9.439945e-003
9.439946e-003
9.439946e-003
9.439946e-003
9.439946e-003
9.439946e-003
9.439946e-003
9.439946e-003
9.439946e-003
9.439945e-003
9.439945e-003
9.439945e-003
9.439944e-003
9.439943e-003
9.439943e-003
9.439942e-003
9.439941e-003
9.439940e-003
9.439939e-003
9.439938e-003
9.439936e-003
9.439935e-003
9.439934e-003
9.439932e-003
9.439931e-003
9.439929e-003
9.439928e-003
9.439926e-003
9.439925e-003
9.439924e-003
9.439923e-003
9.439922e-003
9.439921e-003
9.439921e-003
9.439921e-003
9.439920e-003
9.439920e-003
9.439920e-003
9.439920e-003
9.439920e-003
9.439920e-003
9.439920e-003
9.439920e-003
9.439920e-003
9.439920e-003
9.439920e-003
9.439920e-003
9.439920e-003
9.439920e-003
9.439920e-003
9.439920e-003
9.439920e-003
9.439920e-003
9.439920e-003
9.439920e-003
9.439920e-003
9.439920e-003
9.439920e-003
9.439920e-003
9.439920e-003
9.439920e-003
9.439920e-003
9.439920e-003
9.439920e-003
9.439920e-003
9.439920e-003
9.439920e-003
9.439920e-003
9.439920e-003
9.439920e-003
9.439920e-003
9.439920e-003
9.439920e-003
9.439920e-003
9.439921e-003
9.439922e-003
9.439922e-003
9.439923e-003
9.439924e-003
9.439926e-003
9.439927e-003
9.439929e-003
9.439930e-003
9.439932e-003
9.439934e-003
9.439936e-003
9.439937e-003
9.439939e-003
9.439941e-003
9.439942e-003
9.439943e-003
9.439944e-003
9.439945e-003
9.439946e-003
9.439946e-003
9.439947e-003
9.439947e-003
9.439947e-003
9.439946e-003
9.439946e-003
9.439946e-003
9.439945e-003
9.439945e-003
9.439944e-003
9.439944e-003
9.439944e-003
9.439943e-003
9.439943e-003
9.439943e-003
9.439943e-003
9.439943e-003
9.439943e-003
9.439943e-003
9.439943e-003
9.439943e-003
9.439943e-003
9.439943e-003
9.439943e-003
9.439943e-003
9.439943e-003
9.439942e-003
9.439941e-003
9.439939e-003
9.439938e-003
9.439936e-003
9.439934e-003
9.439933e-003
9.439931e-003
9.439929e-003
9.439928e-003
9.439926e-003
9.439925e-003
9.439924e-003
9.439923e-003
9.439922e-003
9.439921e-003
9.439921e-003
9.439920e-003
9.439920e-003
9.439920e-003
9.439920e-003
9.439920e-003
9.439920e-003
9.439920e-003
9.439920e-003
9.439920e-003
9.439920e-003
9.439920e-003
9.439920e-003
9.439920e-003
9.439920e-003
9.439920e-003
9.439920e-003
9.439920e-003
9.439920e-003
9.439919e-003
9.439920e-003
9.439920e-003
9.439921e-003
9.439920e-003
9.439920e-003
9.439919e-003
9.439919e-003
9.439920e-003
9.439920e-003
9.439920e-003
9.439921e-003
9.439921e-003
9.439920e-003
9.439920e-003
9.439920e-003
9.439920e-003
9.439920e-003
9.439921e-003
9.439922e-003
9.439923e-003
9.439925e-003
9.439926e-003
9.439928e-003
9.439930e-003
9.439932e-003
9.439935e-003
9.439937e-003
9.439939e-003
9.439941e-003
9.439943e-003
9.439945e-003
9.439946e-003
9.439946e-003
9.439946e-003
9.439945e-003
9.439944e-003
9.439942e-003
9.439940e-003
9.439937e-003
9.439933e-003
9.439930e-003
9.439926e-003
9.439922e-003
9.439918e-003
9.439915e-003
9.439911e-003
9.439908e-003
9.439905e-003
9.439903e-003
9.439901e-003
9.439900e-003
9.439900e-003
9.439900e-003
9.439901e-003
9.439903e-003
9.439905e-003
9.439908e-003
9.439912e-003
9.439916e-003
9.439920e-003
9.439924e-003
9.439929e-003
9.439933e-003
9.439936e-003
9.439939e-003
9.439941e-003
9.439942e-003
9.439942e-003
9.439942e-003
9.439940e-003
9.439939e-003
9.439937e-003
9.439935e-003
9.439933e-003
9.439930e-003
9.439928e-003
9.439927e-003
9.439925e-003
9.439924e-003
9.439923e-003
9.439922e-003
9.439921e-003
9.439920e-003
9.439920e-003
9.439920e-003
9.439920e-003
9.439920e-003
9.439920e-003
9.439920e-003
9.439920e-003
9.439920e-003
9.439920e-003
9.439920e-003
9.439920e-003
9.439920e-003
9.439920e-003
9.439920e-003
9.439920e-003
9.439920e-003
9.439919e-003
9.439920e-003
9.439920e-003
9.439921e-003
9.439920e-003
9.439920e-003
9.439919e-003
9.439919e-003
9.439920e-003
9.439920e-003
9.439921e-003
9.439921e-003
9.439921e-003
9.439920e-003
9.439920e-003
9.439921e-003
9.439921e-003
9.439922e-003
9.439923e-003
9.439925e-003
9.439926e-003
9.439928e-003
9.439931e-003
9.439933e-003
9.439936e-003
9.439939e-003
9.439942e-003
9.439944e-003
9.439946e-003
9.439947e-003
9.439946e-003
9.439945e-003
9.439941e-003
9.439936e-003
9.439929e-003
9.439920e-003
9.439910e-003
9.439898e-003
9.439884e-003
9.439870e-003
9.439855e-003
9.439840e-003
9.439825e-003
9.439810e-003
9.439796e-003
9.439782e-003
9.439770e-003
9.439759e-003
9.439750e-003
9.439743e-003
9.439737e-003
9.439734e-003
9.439733e-003
9.439735e-003
9.439739e-003
9.439746e-003
9.439756e-003
9.439768e-003
9.439782e-003
9.439797e-003
9.439815e-003
9.439832e-003
9.439851e-003
9.439868e-003
9.439885e-003
9.439900e-003
9.439913e-003
9.439923e-003
9.439932e-003
9.439937e-003
9.439941e-003
9.439942e-003
9.439942e-003
9.439941e-003
9.439938e-003
9.439936e-003
9.439933e-003
9.439931e-003
9.439928e-003
9.439926e-003
9.439925e-003
9.439923e-003
9.439922e-003
9.439921e-003
9.439921e-003
9.439920e-003
9.439920e-003
9.439920e-003
9.439920e-003
9.439920e-003
9.439920e-003
9.439920e-003
9.439920e-003
9.439920e-003
9.439920e-003
9.439920e-003
9.439920e-003
9.439920e-003
9.439920e-003
9.439920e-003
9.439920e-003
9.439920e-003
9.439920e-003
9.439920e-003
9.439920e-003
9.439920e-003
9.439920e-003
9.439920e-003
9.439920e-003
9.439920e-003
9.439920e-003
9.439920e-003
9.439920e-003
9.439920e-003
9.439921e-003
9.439922e-003
9.439923e-003
9.439925e-003
9.439926e-003
9.439928e-003
9.439931e-003
9.439934e-003
9.439937e-003
9.439940e-003
9.439943e-003
9.439946e-003
9.439947e-003
9.439947e-003
9.439944e-003
9.439938e-003
9.439927e-003
9.439913e-003
9.439894e-003
9.439869e-003
9.439840e-003
9.439807e-003
9.439769e-003
9.439728e-003
9.439684e-003
9.439638e-003
9.439592e-003
9.439545e-003
9.439500e-003
9.439456e-003
9.439414e-003
9.439376e-003
9.439341e-003
9.439310e-003
9.439284e-003
9.439264e-003
9.439250e-003
9.439242e-003
9.439241e-003
9.439247e-003
9.439260e-003
9.439281e-003
9.439309e-003
9.439344e-003
9.439385e-003
9.439432e-003
9.439483e-003
9.439538e-003
9.439593e-003
9.439648e-003
9.439702e-003
9.439752e-003
9.439797e-003
9.439836e-003
9.439868e-003
9.439894e-003
9.439914e-003
9.439928e-003
9.439936e-003
9.439941e-003
9.439942e-003
9.439941e-003
9.439939e-003
9.439936e-003
9.439933e-003
9.439930e-003
9.439928e-003
9.439926e-003
9.439924e-003
9.439923e-003
9.439922e-003
9.439921e-003
9.439921e-003
9.439920e-003
9.439920e-003
9.439920e-003
9.439920e-003
9.439920e-003
9.439920e-003
9.439920e-003
9.439920e-003
9.439920e-003
9.439920e-003
9.439920e-003
9.439920e-003
9.439920e-003
9.439921e-003
9.439920e-003
9.439920e-003
9.439919e-003
9.439920e-003
9.439920e-003
9.439920e-003
9.439920e-003
9.439920e-003
9.439920e-003
9.439920e-003
9.439920e-003
9.439920e-003
9.439921e-003
9.439922e-003
9.439924e-003
9.439926e-003
9.439928e-003
9.439931e-003
9.439934e-003
9.439937e-003
9.439941e-003
9.439945e-003
9.439948e-003
9.439948e-003
9.439946e-003
9.439939e-003
9.439927e-003
9.439906e-003
9.439876e-003
9.439835e-003
9.439783e-003
9.439719e-003
9.439642e-003
9.439554e-003
9.439455e-003
9.439347e-003
9.439232e-003
9.439112e-003
9.438988e-003
9.438864e-003
9.438741e-003
9.438621e-003
9.438507e-003
9.438400e-003
9.438301e-003
9.438213e-003
9.438136e-003
9.438072e-003
9.438021e-003
9.437986e-003
9.437967e-003
9.437965e-003
9.437982e-003
9.438017e-003
9.438071e-003
9.438144e-003
9.438234e-003
9.438342e-003
9.438464e-003
9.438598e-003
9.438741e-003
9.438889e-003
9.439037e-003
9.439182e-003
9.439320e-003
9.439448e-003
9.439561e-003
9.439659e-003
9.439741e-003
9.439807e-003
9.439857e-003
9.439893e-003
9.439917e-003
9.439932e-003
9.439940e-003
9.439942e-003
9.439942e-003
9.439939e-003
9.439936e-003
9.439933e-003
9.439930e-003
9.439927e-003
9.439925e-003
9.439924e-003
9.439922e-003
9.439921e-003
9.439921e-003
9.439920e-003
9.439920e-003
9.439920e-003
9.439920e-003
9.439920e-003
9.439920e-003
9.439920e-003
9.439920e-003
9.439920e-003
9.439920e-003
9.439920e-003
9.439920e-003
9.439922e-003
9.439920e-003
9.439919e-003
9.439919e-003
9.439919e-003
9.439920e-003
9.439921e-003
9.439921e-003
9.439920e-003
9.439920e-003
9.439920e-003
9.439921e-003
9.439922e-003
9.439923e-003
9.439925e-003
9.439927e-003
9.439929e-003
9.439933e-003
9.439937e-003
9.439941e-003
9.439945e-003
9.439949e-003
9.439950e-003
9.439947e-003
9.439937e-003
9.439917e-003
9.439884e-003
9.439833e-003
9.439763e-003
9.439668e-003
9.439548e-003
9.439399e-003
9.439221e-003
9.439015e-003
9.438784e-003
9.438528e-003
9.438254e-003
9.437964e-003
9.437665e-003
9.437362e-003
9.437059e-003
9.436762e-003
9.436475e-003
9.436203e-003
9.435949e-003
9.435717e-003
9.435509e-003
9.435329e-003
9.435180e-003
9.435064e-003
9.434983e-003
9.434941e-003
9.434939e-003
9.434979e-003
9.435063e-003
9.435191e-003
9.435364e-003
9.435579e-003
9.435835e-003
9.436126e-003
9.436448e-003
9.436792e-003
9.437151e-003
9.437514e-003
9.437873e-003
9.438218e-003
9.438540e-003
9.438833e-003
9.439090e-003
9.439309e-003
9.439490e-003
9.439633e-003
9.439742e-003
9.439822e-003
9.439876e-003
9.439911e-003
9.439931e-003
9.439940e-003
9.439943e-003
9.439942e-003
9.439939e-003
9.439935e-003
9.439931e-003
9.439928e-003
9.439926e-003
9.439924e-003
9.439923e-003
9.439922e-003
9.439921e-003
9.439920e-003
9.439920e-003
9.439920e-003
9.439920e-003
9.439920e-003
9.439920e-003
9.439920e-003
9.439920e-003
9.439920e-003
9.439920e-003
9.439920e-003
9.439922e-003
9.439921e-003
9.439920e-003
9.439919e-003
9.439919e-003
9.439920e-003
9.439921e-003
9.439921e-003
9.439920e-003
9.439920e-003
9.439921e-003
9.439922e-003
9.439924e-003
9.439926e-003
9.439928e-003
9.439931e-003
9.439935e-003
9.439939e-003
9.439945e-003
9.439949e-003
9.439951e-003
9.439949e-003
9.439938e-003
9.439913e-003
9.439870e-003
9.439800e-003
9.439696e-003
9.439550e-003
9.439355e-003
9.439103e-003
9.438790e-003
9.438413e-003
9.437972e-003
9.437469e-003
9.436910e-003
9.436303e-003
9.435658e-003
9.434985e-003
9.434296e-003
9.433602e-003
9.432916e-003
9.432247e-003
9.431605e-003
9.431000e-003
9.430439e-003
9.429927e-003
9.429473e-003
9.429081e-003
9.428757e-003
9.428506e-003
9.428334e-003
9.428244e-003
9.428243e-003
9.428333e-003
9.428520e-003
9.428803e-003
9.429184e-003
9.429660e-003
9.430226e-003
9.430874e-003
9.431592e-003
9.432365e-003
9.433176e-003
9.434004e-003
9.434829e-003
9.435629e-003
9.436384e-003
9.437077e-003
9.437696e-003
9.438231e-003
9.438681e-003
9.439045e-003
9.439330e-003
9.439544e-003
9.439698e-003
9.439804e-003
9.439872e-003
9.439912e-003
9.439933e-003
9.439942e-003
9.439943e-003
9.439941e-003
9.439937e-003
9.439933e-003
9.439929e-003
9.439926e-003
9.439924e-003
9.439923e-003
9.439922e-003
9.439921e-003
9.439920e-003
9.439920e-003
9.439920e-003
9.439920e-003
9.439920e-003
9.439920e-003
9.439920e-003
9.439920e-003
9.439920e-003
9.439920e-003
9.439920e-003
9.439920e-003
9.439920e-003
9.439920e-003
9.439920e-003
9.439920e-003
9.439920e-003
9.439920e-003
9.439920e-003
9.439921e-003
9.439922e-003
9.439924e-003
9.439926e-003
9.439929e-003
9.439933e-003
9.439937e-003
9.439942e-003
9.439948e-003
9.439952e-003
9.439952e-003
9.439943e-003
9.439918e-003
9.439871e-003
9.439788e-003
9.439658e-003
9.439464e-003
9.439189e-003
9.438817e-003
9.438333e-003
9.437722e-003
9.436978e-003
9.436095e-003
9.435078e-003
9.433934e-003
9.432679e-003
9.431330e-003
9.429912e-003
9.428447e-003
9.426962e-003
9.425480e-003
9.424026e-003
9.422620e-003
9.421282e-003
9.420027e-003
9.418869e-003
9.417822e-003
9.416896e-003
9.416101e-003
9.415446e-003
9.414943e-003
9.414599e-003
9.414424e-003
9.414427e-003
9.414617e-003
9.415000e-003
9.415582e-003
9.416363e-003
9.417341e-003
9.418508e-003
9.419850e-003
9.421344e-003
9.422964e-003
9.424676e-003
9.426439e-003
9.428210e-003
9.429945e-003
9.431600e-003
9.433138e-003
9.434528e-003
9.435747e-003
9.436784e-003
9.437639e-003
9.438321e-003
9.438844e-003
9.439231e-003
9.439506e-003
9.439692e-003
9.439811e-003
9.439882e-003
9.439920e-003
9.439938e-003
9.439943e-003
9.439942e-003
9.439938e-003
9.439934e-003
9.439930e-003
9.439927e-003
9.439925e-003
9.439923e-003
9.439922e-003
9.439921e-003
9.439920e-003
9.439920e-003
9.439920e-003
9.439920e-003
9.439920e-003
9.439920e-003
9.439920e-003
9.439920e-003
9.439920e-003
9.439919e-003
9.439920e-003
9.439920e-003
9.439921e-003
9.439921e-003
9.439920e-003
9.439920e-003
9.439920e-003
9.439921e-003
9.439922e-003
9.439924e-003
9.439927e-003
9.439930e-003
9.439934e-003
9.439939e-003
9.439945e-003
9.439951e-003
9.439954e-003
9.439950e-003
9.439932e-003
9.439889e-003
9.439807e-003
9.439667e-003
9.439444e-003
9.439110e-003
9.438630e-003
9.437971e-003
9.437099e-003
9.435984e-003
9.434604e-003
9.432947e-003
9.431012e-003
9.428812e-003
9.426374e-003
9.423732e-003
9.420931e-003
9.418022e-003
9.415054e-003
9.412081e-003
9.409148e-003
9.406301e-003
9.403576e-003
9.401006e-003
9.398617e-003
9.396434e-003
9.394473e-003
9.392753e-003
9.391287e-003
9.390089e-003
9.389175e-003
9.388558e-003
9.388254e-003
9.388278e-003
9.388645e-003
9.389368e-003
9.390458e-003
9.391920e-003
9.393754e-003
9.395951e-003
9.398491e-003
9.401343e-003
9.404462e-003
9.407790e-003
9.411258e-003
9.414785e-003
9.418285e-003
9.421671e-003
9.424861e-003
9.427785e-003
9.430387e-003
9.432635e-003
9.434516e-003
9.436038e-003
9.437229e-003
9.438128e-003
9.438780e-003
9.439234e-003
9.439537e-003
9.439727e-003
9.439841e-003
9.439902e-003
9.439932e-003
9.439942e-003
9.439943e-003
9.439940e-003
9.439935e-003
9.439931e-003
9.439928e-003
9.439925e-003
9.439923e-003
9.439922e-003
9.439921e-003
9.439920e-003
9.439920e-003
9.439920e-003
9.439920e-003
9.439920e-003
9.439920e-003
9.439920e-003
9.439920e-003
9.439918e-003
9.439919e-003
9.439921e-003
9.439921e-003
9.439921e-003
9.439920e-003
9.439920e-003
9.439921e-003
9.439923e-003
9.439925e-003
9.439927e-003
9.439930e-003
9.439935e-003
9.439941e-003
9.439948e-003
9.439954e-003
9.439955e-003
9.439946e-003
9.439916e-003
9.439849e-003
9.439722e-003
9.439503e-003
9.439151e-003
9.438614e-003
9.437831e-003
9.436736e-003
9.435261e-003
9.433345e-003
9.430937e-003
9.428005e-003
9.424541e-003
9.420566e-003
9.416124e-003
9.411285e-003
9.406136e-003
9.400778e-003
9.395313e-003
9.389843e-003
9.384461e-003
9.379250e-003
9.374279e-003
9.369603e-003
9.365266e-003
9.361299e-003
9.357728e-003
9.354569e-003
9.351837e-003
9.349544e-003
9.347700e-003
9.346319e-003
9.345416e-003
9.345005e-003
9.345106e-003
9.345741e-003
9.346928e-003
9.348691e-003
9.351046e-003
9.354005e-003
9.357573e-003
9.361740e-003
9.366480e-003
9.371747e-003
9.377468e-003
9.383548e-003
9.389861e-003
9.396262e-003
9.402590e-003
9.408681e-003
9.414381e-003
9.419558e-003
9.424116e-003
9.428000e-003
9.431201e-003
9.433749e-003
9.435705e-003
9.437151e-003
9.438181e-003
9.438883e-003
9.439341e-003
9.439625e-003
9.439791e-003
9.439881e-003
9.439924e-003
9.439941e-003
9.439944e-003
9.439941e-003
9.439936e-003
9.439931e-003
9.439928e-003
9.439925e-003
9.439923e-003
9.439922e-003
9.439921e-003
9.439920e-003
9.439920e-003
9.439920e-003
9.439920e-003
9.439920e-003
9.439920e-003
9.439920e-003
9.439918e-003
9.439919e-003
9.439921e-003
9.439921e-003
9.439921e-003
9.439920e-003
9.439921e-003
9.439922e-003
9.439925e-003
9.439928e-003
9.439931e-003
9.439936e-003
9.439942e-003
9.439949e-003
9.439955e-003
9.439955e-003
9.439941e-003
9.439897e-003
9.439802e-003
9.439620e-003
9.439303e-003
9.438783e-003
9.437974e-003
9.436772e-003
9.435059e-003
9.432709e-003
9.429602e-003
9.425639e-003
9.420752e-003
9.414922e-003
9.408187e-003
9.400640e-003
9.392427e-003
9.383732e-003
9.374764e-003
9.365734e-003
9.356843e-003
9.348268e-003
9.340152e-003
9.332603e-003
9.325692e-003
9.319459e-003
9.313920e-003
9.309069e-003
9.304892e-003
9.301363e-003
9.298455e-003
9.296142e-003
9.294397e-003
9.293199e-003
9.292529e-003
9.292379e-003
9.292746e-003
9.293638e-003
9.295077e-003
9.297094e-003
9.299736e-003
9.303059e-003
9.307130e-003
9.312017e-003
9.317779e-003
9.324459e-003
9.332062e-003
9.340542e-003
9.349790e-003
9.359626e-003
9.369804e-003
9.380026e-003
9.389971e-003
9.399327e-003
9.407828e-003
9.415278e-003
9.421571e-003
9.426691e-003
9.430703e-003
9.433727e-003
9.435920e-003
9.437447e-003
9.438466e-003
9.439117e-003
9.439512e-003
9.439738e-003
9.439859e-003
9.439916e-003
9.439939e-003
9.439944e-003
9.439941e-003
9.439936e-003
9.439931e-003
9.439928e-003
9.439925e-003
9.439923e-003
9.439922e-003
9.439921e-003
9.439920e-003
9.439920e-003
9.439920e-003
9.439920e-003
9.439920e-003
9.439920e-003
9.439919e-003
9.439920e-003
9.439921e-003
9.439921e-003
9.439921e-003
9.439921e-003
9.439922e-003
9.439924e-003
9.439928e-003
9.439932e-003
9.439937e-003
9.439943e-003
9.439951e-003
9.439957e-003
9.439956e-003
9.439936e-003
9.439879e-003
9.439754e-003
9.439512e-003
9.439081e-003
9.438360e-003
9.437214e-003
9.435476e-003
9.432946e-003
9.429409e-003
9.424653e-003
9.418496e-003
9.410823e-003
9.401615e-003
9.390974e-003
9.379131e-003
9.366434e-003
9.353316e-003
9.340257e-003
9.327728e-003
9.316152e-003
9.305868e-003
9.297109e-003
9.289995e-003
9.284546e-003
9.280689e-003
9.278289e-003
9.277167e-003
9.277120e-003
9.277939e-003
9.279420e-003
9.281366e-003
9.283589e-003
9.285913e-003
9.288170e-003
9.290205e-003
9.291881e-003
9.293082e-003
9.293728e-003
9.293782e-003
9.293270e-003
9.292288e-003
9.291017e-003
9.289727e-003
9.288773e-003
9.288579e-003
9.289603e-003
9.292287e-003
9.296998e-003
9.303959e-003
9.313195e-003
9.324501e-003
9.337446e-003
9.351417e-003
9.365700e-003
9.379575e-003
9.392409e-003
9.403735e-003
9.413285e-003
9.420990e-003
9.426944e-003
9.431355e-003
9.434489e-003
9.436624e-003
9.438017e-003
9.438886e-003
9.439401e-003
9.439689e-003
9.439839e-003
9.439910e-003
9.439938e-003
9.439944e-003
9.439941e-003
9.439936e-003
9.439931e-003
9.439928e-003
9.439925e-003
9.439923e-003
9.439921e-003
9.439921e-003
9.439920e-003
9.439920e-003
9.439920e-003
9.439920e-003
9.439920e-003
9.439921e-003
9.439921e-003
9.439920e-003
9.439920e-003
9.439921e-003
9.439922e-003
9.439924e-003
9.439927e-003
9.439931e-003
9.439937e-003
9.439944e-003
9.439952e-003
9.439958e-003
9.439956e-003
9.439933e-003
9.439865e-003
9.439712e-003
9.439410e-003
9.438860e-003
9.437919e-003
9.436390e-003
9.434017e-003
9.430487e-003
9.425453e-003
9.418567e-003
9.409534e-003
9.398192e-003
9.384582e-003
9.369023e-003
9.352135e-003
9.334827e-003
9.318220e-003
9.303531e-003
9.291935e-003
9.284430e-003
9.281734e-003
9.284229e-003
9.291945e-003
9.304590e-003
9.321605e-003
9.342244e-003
9.365648e-003
9.390919e-003
9.417176e-003
9.443585e-003
9.469376e-003
9.493840e-003
9.516313e-003
9.536168e-003
9.552797e-003
9.565615e-003
9.574066e-003
9.577647e-003
9.575939e-003
9.568656e-003
9.555697e-003
9.537210e-003
9.513647e-003
9.485810e-003
9.454880e-003
9.422393e-003
9.390178e-003
9.360219e-003
9.334469e-003
9.314619e-003
9.301874e-003
9.296765e-003
9.299066e-003
9.307826e-003
9.321519e-003
9.338304e-003
9.356308e-003
9.373894e-003
9.389838e-003
9.403405e-003
9.414319e-003
9.422660e-003
9.428737e-003
9.432969e-003
9.435788e-003
9.437583e-003
9.438675e-003
9.439306e-003
9.439651e-003
9.439826e-003
9.439906e-003
9.439937e-003
9.439944e-003
9.439941e-003
9.439936e-003
9.439931e-003
9.439927e-003
9.439924e-003
9.439923e-003
9.439921e-003
9.439921e-003
9.439920e-003
9.439920e-003
9.439920e-003
9.439920e-003
9.439922e-003
9.439921e-003
9.439920e-003
9.439920e-003
9.439922e-003
9.439924e-003
9.439927e-003
9.439931e-003
9.439936e-003
9.439943e-003
9.439952e-003
9.439959e-003
9.439958e-003
9.439933e-003
9.439857e-003
9.439683e-003
9.439330e-003
9.438671e-003
9.437514e-003
9.435587e-003
9.432524e-003
9.427865e-003
9.421083e-003
9.411645e-003
9.399120e-003
9.383334e-003
9.364563e-003
9.343712e-003
9.322428e-003
9.303097e-003
9.288683e-003
9.282426e-003
9.287450e-003
9.306369e-003
9.340959e-003
9.391970e-003
9.459080e-003
9.540979e-003
9.635561e-003
9.740152e-003
9.851765e-003
9.967330e-003
1.008388e-002
1.019868e-002
1.030925e-002
1.041343e-002
1.050925e-002
1.059490e-002
1.066867e-002
1.072888e-002
1.077385e-002
1.080194e-002
1.081159e-002
1.080138e-002
1.077022e-002
1.071747e-002
1.064314e-002
1.054810e-002
1.043424e-002
1.030467e-002
1.016370e-002
1.001677e-002
9.870197e-003
9.730648e-003
9.604542e-003
9.497311e-003
9.412730e-003
9.352442e-003
9.315792e-003
9.300035e-003
9.300896e-003
9.313342e-003
9.332401e-003
9.353831e-003
9.374518e-003
9.392567e-003
9.407144e-003
9.418191e-003
9.426114e-003
9.431519e-003
9.435035e-003
9.437220e-003
9.438515e-003
9.439244e-003
9.439631e-003
9.439822e-003
9.439907e-003
9.439938e-003
9.439944e-003
9.439941e-003
9.439935e-003
9.439930e-003
9.439926e-003
9.439924e-003
9.439922e-003
9.439921e-003
9.439920e-003
9.439920e-003
9.439920e-003
9.439920e-003
9.439923e-003
9.439921e-003
9.439920e-003
9.439921e-003
9.439923e-003
9.439927e-003
9.439931e-003
9.439935e-003
9.439942e-003
9.439951e-003
9.439959e-003
9.439959e-003
9.439936e-003
9.439858e-003
9.439673e-003
9.439285e-003
9.438541e-003
9.437200e-003
9.434905e-003
9.431166e-003
9.425342e-003
9.416684e-003
9.404424e-003
9.387978e-003
9.367266e-003
9.343140e-003
9.317853e-003
9.295434e-003
9.281797e-003
9.284462e-003
9.311849e-003
9.372253e-003
9.472713e-003
9.618027e-003
9.810117e-003
1.004783e-002
1.032716e-002
1.064179e-002
1.098381e-002
1.134442e-002
1.171464e-002
1.208589e-002
1.245031e-002
1.280105e-002
1.313223e-002
1.343885e-002
1.371657e-002
1.396144e-002
1.416968e-002
1.433753e-002
1.446111e-002
1.453644e-002
1.455956e-002
1.452669e-002
1.443457e-002
1.428084e-002
1.406451e-002
1.378653e-002
1.345034e-002
1.306240e-002
1.263252e-002
1.217391e-002
1.170279e-002
1.123743e-002
1.079666e-002
1.039805e-002
1.005585e-002
9.779323e-003
9.571612e-003
9.429657e-003
9.345092e-003
9.306014e-003
9.299180e-003
9.312093e-003
9.334515e-003
9.359176e-003
9.381716e-003
9.400128e-003
9.413994e-003
9.423781e-003
9.430317e-003
9.434469e-003
9.436982e-003
9.438431e-003
9.439224e-003
9.439632e-003