# vtk DataFile Version 3.0
vtk output
ASCII
DATASET STRUCTURED_POINTS
DIMENSIONS 100 100 1
SPACING 1 1 1
ORIGIN 0 0 0
POINT_DATA 10000
SCALARS SFBox_profile double
LOOKUP_TABLE default 
0.000000e+000
0.000000e+000
0.000000e+000
0.000000e+000
0.000000e+000
0.000000e+000
0.000000e+000
0.000000e+000
0.000000e+000
0.000000e+000
0.000000e+000
0.000000e+000
0.000000e+000
0.000000e+000
0.000000e+000
0.000000e+000
0.000000e+000
0.000000e+000
0.000000e+000
0.000000e+000
0.000000e+000
0.000000e+000
0.000000e+000
0.000000e+000
0.000000e+000
0.000000e+000
0.000000e+000
0.000000e+000
0.000000e+000
0.000000e+000
0.000000e+000
0.000000e+000
0.000000e+000
0.000000e+000
0.000000e+000
0.000000e+000
0.000000e+000
0.000000e+000
0.000000e+000
0.000000e+000
0.000000e+000
0.000000e+000
0.000000e+000
0.000000e+000
0.000000e+000
0.000000e+000
0.000000e+000
0.000000e+000
0.000000e+000
0.000000e+000
0.000000e+000
0.000000e+000
0.000000e+000
0.000000e+000
0.000000e+000
0.000000e+000
0.000000e+000
0.000000e+000
0.000000e+000
0.000000e+000
0.000000e+000
0.000000e+000
0.000000e+000
0.000000e+000
0.000000e+000
0.000000e+000
0.000000e+000
0.000000e+000
0.000000e+000
0.000000e+000
0.000000e+000
0.000000e+000
0.000000e+000
0.000000e+000
0.000000e+000
0.000000e+000
0.000000e+000
0.000000e+000
0.000000e+000
0.000000e+000
0.000000e+000
0.000000e+000
0.000000e+000
0.000000e+000
0.000000e+000
0.000000e+000
0.000000e+000
0.000000e+000
0.000000e+000
0.000000e+000
0.000000e+000
0.000000e+000
0.000000e+000
0.000000e+000
0.000000e+000
0.000000e+000
0.000000e+000
0.000000e+000
0.000000e+000
0.000000e+000
2.331985e-008
1.888575e-008
1.087687e-008
8.626662e-010
-9.156520e-009
-1.711831e-008
-2.129632e-008
-2.065224e-008
-1.506654e-008
-5.390856e-009
6.698257e-009
1.901823e-008
2.930358e-008
3.563908e-008
3.680793e-008
3.248422e-008
2.323951e-008
1.037841e-008
-4.345173e-009
-1.905995e-008
-3.208609e-008
-4.216593e-008
-4.858714e-008
-5.119595e-008
-5.032004e-008
-4.663291e-008
-4.099549e-008
-3.430543e-008
-2.737559e-008
-2.085239e-008
-1.517543e-008
-1.057298e-008
-7.085131e-009
-4.604889e-009
-2.929170e-009
-1.812206e-009
-1.015315e-009
-3.474565e-010
3.082294e-010
9.853107e-010
1.643269e-009
2.192481e-009
2.528851e-009
2.569403e-009
2.279721e-009
1.686250e-009
8.708091e-010
-5.005439e-011
-9.537457e-010
-1.738947e-009
-2.343132e-009
-2.745610e-009
-2.956949e-009
-3.000782e-009
-2.897027e-009
-2.655026e-009
-2.281142e-009
-1.799287e-009
-1.276823e-009
-8.448087e-010
-7.019294e-010
-1.095836e-009
-2.282453e-009
-4.470688e-009
-7.764712e-009
-1.211705e-008
-1.730348e-008
-2.292584e-008
-2.844384e-008
-3.323191e-008
-3.665424e-008
-3.814890e-008
-3.731100e-008
-3.396438e-008
-2.821128e-008
-2.045036e-008
-1.135624e-008
-1.817107e-009
7.166674e-009
1.461364e-008
1.970539e-008
2.192124e-008
2.113798e-008
1.767037e-008
1.223589e-008
5.840530e-009
-3.996209e-010
-5.468350e-009
-8.645445e-009
-9.641460e-009
-8.635039e-009
-6.200243e-009
-3.140944e-009
-2.759949e-010
1.766356e-009
2.688868e-009
2.564050e-009
1.765010e-009
8.137487e-010
1.954298e-010
1.401936e-008
1.065835e-008
4.729840e-009
-2.358226e-009
-8.902540e-009
-1.329265e-008
-1.438081e-008
-1.174822e-008
-5.805549e-009
2.295560e-009
1.091721e-008
1.829315e-008
2.290305e-008
2.377603e-008
2.065875e-008
1.402102e-008
4.913015e-009
-5.278373e-009
-1.510967e-008
-2.333385e-008
-2.907907e-008
-3.193041e-008
-3.191683e-008
-2.942482e-008
-2.507050e-008
-1.956291e-008
-1.358454e-008
-7.705546e-009
-2.336822e-009
2.281233e-009
6.062947e-009
9.045038e-009
1.134712e-008
1.313198e-008
1.456967e-008
1.580771e-008
1.694865e-008
1.803660e-008
1.905424e-008
1.993165e-008
2.056643e-008
2.085215e-008
2.070957e-008
2.011320e-008
1.910610e-008
1.779835e-008
1.634846e-008
1.493196e-008
1.370513e-008
1.277346e-008
1.217345e-008
1.187277e-008
1.178823e-008
1.181576e-008
1.186277e-008
1.187231e-008
1.183108e-008
1.175873e-008
1.168216e-008
1.160382e-008
1.147533e-008
1.118627e-008
1.057309e-008
9.447229e-009
7.636105e-009
5.027498e-009
1.607669e-009
-2.514310e-009
-7.100475e-009
-1.179750e-008
-1.616887e-008
-1.974286e-008
-2.207204e-008
-2.279795e-008
-2.171281e-008
-1.880870e-008
-1.430416e-008
-8.639927e-009
-2.439169e-009
3.567135e-009
8.642202e-009
1.215893e-008
1.370942e-008
1.318630e-008
1.081533e-008
7.125389e-009
2.854292e-009
-1.195408e-009
-4.321273e-009
-6.067316e-009
-6.313004e-009
-5.278657e-009
-3.443427e-009
-1.398098e-009
3.242341e-010
1.388613e-009
1.727617e-009
1.520667e-009
1.094116e-009
7.793092e-010
-1.946105e-009
-3.260731e-009
-5.286452e-009
-7.025569e-009
-7.436357e-009
-5.809472e-009
-2.047867e-009
3.240976e-009
8.871361e-009
1.338642e-008
1.545333e-008
1.423046e-008
9.602793e-009
2.225429e-009
-6.627464e-009
-1.535718e-008
-2.239354e-008
-2.651494e-008
-2.706311e-008
-2.401572e-008
-1.791980e-008
-9.721255e-009
-5.434541e-010
8.530292e-009
1.662739e-008
2.318554e-008
2.797711e-008
3.107055e-008
3.275050e-008
3.342121e-008
3.351449e-008
3.341666e-008
3.342150e-008
3.370859e-008
3.434265e-008
3.528705e-008
3.642565e-008
3.758902e-008
3.858289e-008
3.921795e-008
3.933937e-008
3.885359e-008
3.774811e-008
3.609995e-008
3.406955e-008
3.187918e-008
2.977836e-008
2.800193e-008
2.672840e-008
2.604700e-008
2.594079e-008
2.629046e-008
2.689957e-008
2.753722e-008
2.798948e-008
2.810816e-008
2.784460e-008
2.725958e-008
2.650573e-008
2.578614e-008
2.529914e-008
2.518266e-008
2.547119e-008
2.607467e-008
2.678298e-008
2.729438e-008
2.726218e-008
2.635194e-008
2.430113e-008
2.097313e-008
1.639762e-008
1.079024e-008
4.545607e-009
-1.799203e-009
-7.628863e-009
-1.233467e-008
-1.540792e-008
-1.652661e-008
-1.561936e-008
-1.289316e-008
-8.816170e-009
-4.053630e-009
6.363418e-010
4.531849e-009
7.077909e-009
7.991013e-009
7.311138e-009
5.383984e-009
2.772559e-009
1.172946e-010
-2.018973e-009
-3.277574e-009
-3.565680e-009
-3.037373e-009
-2.005882e-009
-8.225075e-010
2.321872e-010
1.007565e-009
1.478331e-009
1.690170e-009
-1.992929e-008
-1.847550e-008
-1.535753e-008
-1.034717e-008
-3.493898e-009
4.618345e-009
1.278779e-008
1.935588e-008
2.258933e-008
2.117180e-008
1.464643e-008
3.659943e-009
-1.007899e-008
-2.412452e-008
-3.581341e-008
-4.283769e-008
-4.372151e-008
-3.808966e-008
-2.668028e-008
-1.112396e-008
6.434603e-009
2.376924e-008
3.896012e-008
5.066463e-008
5.823793e-008
6.170841e-008
6.164208e-008
5.894477e-008
5.465193e-008
4.974609e-008
4.502676e-008
4.104115e-008
3.807080e-008
3.616019e-008
3.517076e-008
3.484454e-008
3.486627e-008
3.491755e-008
3.472060e-008
3.407110e-008
3.285991e-008
3.108303e-008
2.883862e-008
2.631111e-008
2.374412e-008
2.140549e-008
1.954968e-008
1.838191e-008
1.802834e-008
1.851488e-008
1.975727e-008
2.156492e-008
2.366121e-008
2.572139e-008
2.742617e-008
2.852347e-008
2.888637e-008
2.855239e-008
2.773142e-008
2.677593e-008
2.611649e-008
2.617458e-008
2.727033e-008
2.954393e-008
3.290557e-008
3.702292e-008
4.134809e-008
4.518109e-008
4.776215e-008
4.838249e-008
4.649954e-008
4.184058e-008
3.447695e-008
2.485321e-008
1.376047e-008
2.251889e-009
-8.491430e-009
-1.732644e-008
-2.332099e-008
-2.590548e-008
-2.497612e-008
-2.092798e-008
-1.460495e-008
-7.167187e-009
1.072963e-010
6.053139e-009
9.833526e-009
1.109112e-008
9.994113e-009
7.162147e-009
3.489627e-009
-8.516082e-011
-2.800480e-009
-4.221612e-009
-4.287637e-009
-3.256976e-009
-1.585826e-009
2.118126e-010
1.680501e-009
2.495762e-009
-3.440667e-008
-2.992441e-008
-2.138615e-008
-9.727384e-009
3.522751e-009
1.627469e-008
2.611967e-008
3.078423e-008
2.869994e-008
1.951564e-008
4.369596e-009
-1.419983e-008
-3.271511e-008
-4.748442e-008
-5.540021e-008
-5.460136e-008
-4.483503e-008
-2.744529e-008
-5.019273e-009
1.919458e-008
4.193946e-008
6.052233e-008
7.319581e-008
7.930191e-008
7.919152e-008
7.397886e-008
6.521261e-008
5.454408e-008
4.345470e-008
3.307809e-008
2.412459e-008
1.689422e-008
1.135112e-008
7.229021e-009
4.140554e-009
1.672044e-009
-5.455290e-010
-2.790734e-009
-5.228079e-009
-7.902558e-009
-1.074924e-008
-1.361575e-008
-1.629520e-008
-1.856488e-008
-2.022412e-008
-2.112356e-008
-2.118031e-008
-2.037820e-008
-1.875777e-008
-1.640438e-008
-1.344230e-008
-1.003757e-008
-6.405191e-009
-2.810144e-009
4.495783e-010
3.084278e-009
4.874493e-009
5.738956e-009
5.787379e-009
5.337795e-009
4.886754e-009
5.033577e-009
6.372261e-009
9.372364e-009
1.427169e-008
2.099977e-008
2.914506e-008
3.797215e-008
4.649030e-008
5.356890e-008
5.808982e-008
5.911885e-008
5.607176e-008
4.884595e-008
3.788975e-008
2.418938e-008
9.166675e-009
-5.503065e-009
-1.812874e-008
-2.726075e-008
-3.192632e-008
-3.180116e-008
-2.728186e-008
-1.943580e-008
-9.824847e-009
-2.245741e-010
7.712052e-009
1.277593e-008
1.443125e-008
1.289183e-008
9.020509e-009
4.076741e-009
-6.175564e-010
-4.000831e-009
-5.497593e-009
-5.096104e-009
-3.275141e-009
-8.191196e-010
1.416467e-009
2.727728e-009
-4.039824e-008
-3.330338e-008
-2.036722e-008
-3.955757e-009
1.276257e-008
2.631739e-008
3.359656e-008
3.255505e-008
2.279537e-008
5.830329e-009
-1.509763e-008
-3.564443e-008
-5.130386e-008
-5.842051e-008
-5.500946e-008
-4.117289e-008
-1.902240e-008
7.845414e-009
3.515913e-008
5.885044e-008
7.579136e-008
8.424513e-008
8.397537e-008
7.604691e-008
6.241515e-008
4.542886e-008
2.736409e-008
1.007438e-008
-5.201418e-009
-1.787449e-008
-2.791729e-008
-3.569967e-008
-4.180116e-008
-4.684097e-008
-5.135144e-008
-5.570401e-008
-6.008285e-008
-6.449415e-008
-6.879785e-008
-7.275184e-008
-7.606348e-008
-7.844553e-008
-7.967256e-008
-7.963025e-008
-7.834640e-008
-7.599270e-008
-7.285168e-008
-6.925398e-008
-6.550231e-008
-6.180589e-008
-5.824838e-008
-5.480220e-008
-5.138502e-008
-4.793741e-008
-4.449051e-008
-4.119440e-008
-3.829111e-008
-3.603737e-008
-3.460063e-008
-3.396293e-008
-3.386442e-008
-3.380612e-008
-3.311359e-008
-3.104820e-008
-2.694379e-008
-2.034468e-008
-1.112367e-008
4.378520e-010
1.362292e-008
2.731702e-008
4.011749e-008
5.050982e-008
5.709217e-008
5.881418e-008
5.518666e-008
4.641774e-008
3.344165e-008
1.782510e-008
1.559125e-009
-1.323435e-008
-2.463594e-008
-3.124772e-008
-3.244112e-008
-2.848267e-008
-2.050082e-008
-1.028261e-008
7.555186e-011
8.598868e-009
1.385099e-008
1.523056e-008
1.306356e-008
8.459960e-009
2.971996e-009
-1.847631e-009
-4.858780e-009
-5.600953e-009
-4.346373e-009
-1.938703e-009
5.205589e-010
2.037705e-009
-3.484442e-008
-2.634347e-008
-1.144372e-008
6.110471e-009
2.177563e-008
3.127925e-008
3.169202e-008
2.224228e-008
4.641639e-009
-1.720519e-008
-3.807214e-008
-5.266034e-008
-5.689817e-008
-4.894400e-008
-2.962703e-008
-2.225863e-009
2.832760e-008
5.658138e-008
7.772688e-008
8.851008e-008
8.770611e-008
7.610661e-008
5.609456e-008
3.096689e-008
4.194143e-009
-2.121511e-008
-4.313475e-008
-6.048601e-008
-7.316977e-008
-8.183251e-008
-8.755097e-008
-9.151686e-008
-9.478236e-008
-9.809946e-008
-1.018577e-007
-1.061028e-007
-1.106083e-007
-1.149685e-007
-1.186933e-007
-1.212923e-007
-1.223484e-007
-1.215835e-007
-1.189155e-007
-1.144984e-007
-1.087326e-007
-1.022294e-007
-9.572348e-008
-8.994307e-008
-8.546189e-008
-8.257253e-008
-8.121979e-008
-8.102032e-008
-8.137083e-008
-8.161825e-008
-8.124362e-008
-8.000389e-008
-7.798833e-008
-7.557260e-008
-7.328626e-008
-7.163480e-008
-7.092717e-008
-7.115324e-008
-7.193690e-008
-7.256964e-008
-7.211351e-008
-6.955465e-008
-6.398597e-008
-5.479651e-008
-4.184104e-008
-2.555907e-008
-7.010621e-009
1.219647e-008
3.009520e-008
4.464515e-008
5.406992e-008
5.718230e-008
5.362991e-008
4.400725e-008
2.980561e-008
1.320332e-008
-3.272980e-009
-1.716271e-008
-2.649377e-008
-3.013799e-008
-2.802608e-008
-2.116331e-008
-1.141941e-008
-1.116394e-009
7.503803e-009
1.280209e-008
1.411092e-008
1.183635e-008
7.256661e-009
2.077523e-009
-2.114254e-009
-4.321046e-009
-4.378363e-009
-2.902089e-009
-9.722181e-010
3.242536e-010
-1.757019e-008
-9.574534e-009
3.706460e-009
1.765920e-008
2.715899e-008
2.815765e-008
1.900864e-008
1.129875e-009
-2.121717e-008
-4.199754e-008
-5.503078e-008
-5.571038e-008
-4.231674e-008
-1.655059e-008
1.684733e-008
5.125351e-008
7.974506e-008
9.666570e-008
9.877634e-008
8.574624e-008
5.994284e-008
2.566225e-008
-1.194088e-008
-4.793632e-008
-7.847464e-008
-1.012757e-007
-1.157185e-007
-1.225955e-007
-1.236526e-007
-1.210536e-007
-1.168918e-007
-1.128331e-007
-1.099277e-007
-1.085848e-007
-1.086713e-007
-1.096796e-007
-1.109117e-007
-1.116374e-007
-1.112096e-007
-1.091359e-007
-1.051229e-007
-9.910777e-008
-9.128537e-008
-8.212538e-008
-7.236227e-008
-6.293998e-008
-5.490006e-008
-4.921909e-008
-4.662142e-008
-4.740925e-008
-5.135878e-008
-5.772218e-008
-6.535150e-008
-7.292692e-008
-7.923841e-008
-8.344907e-008
-8.526933e-008
-8.499580e-008
-8.340739e-008
-8.155137e-008
-8.047766e-008
-8.098467e-008
-8.342614e-008
-8.760606e-008
-9.276925e-008
-9.768360e-008
-1.008063e-007
-1.005223e-007
-9.543337e-008
-8.465994e-008
-6.810058e-008
-4.658472e-008
-2.186486e-008
3.576824e-009
2.688963e-008
4.532203e-008
5.670471e-008
5.985068e-008
5.479078e-008
4.279664e-008
2.618379e-008
7.924956e-009
-8.865147e-009
-2.148896e-008
-2.816770e-008
-2.837897e-008
-2.293940e-008
-1.378566e-008
-3.480739e-009
5.443098e-009
1.112636e-008
1.281654e-008
1.095563e-008
6.894950e-009
2.343253e-009
-1.247742e-009
-3.134870e-009
-3.414596e-009
-2.807101e-009
-2.207205e-009
8.474547e-009
1.367891e-008
2.129440e-008
2.681303e-008
2.579177e-008
1.570527e-008
-2.793994e-009
-2.568248e-008
-4.655420e-008
-5.850120e-008
-5.628671e-008
-3.810714e-008
-6.374460e-009
3.272563e-008
7.075106e-008
9.912171e-008
1.112112e-007
1.038393e-007
7.781644e-008
3.749144e-008
-1.046858e-008
-5.867038e-008
-1.005273e-007
-1.313900e-007
-1.490904e-007
-1.538907e-007
-1.479623e-007
-1.346024e-007
-1.174035e-007
-9.955358e-008
-8.337650e-008
-7.014725e-008
-6.015199e-008
-5.292066e-008
-4.754071e-008
-4.296527e-008
-3.825250e-008
-3.270608e-008
-2.592104e-008
-1.776413e-008
-8.327442e-009
2.112298e-009
1.311407e-008
2.407694e-008
3.424692e-008
4.274849e-008
4.865723e-008
5.111814e-008
4.949872e-008
4.355011e-008
3.353672e-008
2.028924e-008
5.144115e-009
-1.024261e-008
-2.418276e-008
-3.528337e-008
-4.273164e-008
-4.646139e-008
-4.715741e-008
-4.610075e-008
-4.489922e-008
-4.516811e-008
-4.822284e-008
-5.482669e-008
-6.501719e-008
-7.802518e-008
-9.230138e-008
-1.056680e-007
-1.156054e-007
-1.196577e-007
-1.159061e-007
-1.034183e-007
-8.256644e-008
-5.511947e-008
-2.405762e-008
6.873395e-009
3.378812e-008
5.334054e-008
6.331801e-008
6.303326e-008
5.344141e-008
3.696181e-008
1.703381e-008
-2.522009e-009
-1.822904e-008
-2.762905e-008
-2.975632e-008
-2.528238e-008
-1.626725e-008
-5.558517e-009
4.004167e-009
1.034165e-008
1.260627e-008
1.122540e-008
7.529287e-009
3.134241e-009
-6.590664e-010
-3.216339e-009
-4.561073e-009
-5.070016e-009
3.783216e-008
3.811036e-008
3.652905e-008
2.997202e-008
1.616274e-008
-4.656317e-009
-2.895345e-008
-5.047266e-008
-6.203371e-008
-5.796854e-008
-3.632161e-008
5.355640e-013
4.358145e-008
8.427566e-008
1.118602e-007
1.187283e-007
1.018223e-007
6.328959e-008
9.771251e-009
-4.936074e-008
-1.042446e-007
-1.466224e-007
-1.712958e-007
-1.766988e-007
-1.646094e-007
-1.392225e-007
-1.059153e-007
-7.003159e-008
-3.593550e-008
-6.470171e-009
1.716220e-008
3.517220e-008
4.873478e-008
5.946402e-008
6.893779e-008
7.836091e-008
8.840522e-008
9.921538e-008
1.105315e-007
1.218622e-007
1.326471e-007
1.423695e-007
1.506094e-007
1.570471e-007
1.614359e-007
1.635642e-007
1.632186e-007
1.601662e-007
1.541717e-007
1.450654e-007
1.328614e-007
1.178965e-007
1.009340e-007
8.316916e-008
6.609747e-008
5.125354e-008
3.988485e-008
3.265322e-008
2.945166e-008
2.938345e-008
3.089875e-008
3.204476e-008
3.077379e-008
2.526567e-008
1.423883e-008
-2.769185e-009
-2.518366e-008
-5.129039e-008
-7.831377e-008
-1.027231e-007
-1.207651e-007
-1.291499e-007
-1.257533e-007
-1.101648e-007
-8.392828e-008
-5.039151e-008
-1.417383e-008
1.963968e-008
4.640699e-008
6.275210e-008
6.714203e-008
6.011582e-008
4.413057e-008
2.305328e-008
1.383566e-009
-1.665525e-008
-2.797582e-008
-3.123787e-008
-2.704231e-008
-1.763374e-008
-6.180061e-009
4.157845e-009
1.107056e-008
1.359101e-008
1.210175e-008
7.921033e-009
2.688981e-009
-2.174659e-009
-5.749601e-009
-7.601520e-009
6.388960e-008
5.783943e-008
4.505120e-008
2.510513e-008
-7.812004e-010
-2.879264e-008
-5.266393e-008
-6.515360e-008
-6.044140e-008
-3.656528e-008
3.104604e-009
5.005225e-008
9.255565e-008
1.188185e-007
1.202917e-007
9.411965e-008
4.396839e-008
-2.095175e-008
-8.827738e-008
-1.455170e-007
-1.828310e-007
-1.948714e-007
-1.813482e-007
-1.463797e-007
-9.698932e-008
-4.125301e-008
1.341636e-008
6.149923e-008
9.995431e-008
1.281787e-007
1.474929e-007
1.603648e-007
1.695890e-007
1.775991e-007
1.860226e-007
1.955201e-007
2.058760e-007
2.162652e-007
2.255903e-007
2.327933e-007
2.370811e-007
2.380443e-007
2.356906e-007
2.304191e-007
2.229555e-007
2.142407e-007
2.052636e-007
1.968461e-007
1.894313e-007
1.829539e-007
1.768710e-007
1.703754e-007
1.627362e-007
1.536414e-007
1.434049e-007
1.329489e-007
1.235621e-007
1.165231e-007
1.127148e-007
1.123440e-007
1.148174e-007
1.187715e-007
1.222191e-007
1.227853e-007
1.180223e-007
1.058085e-007
8.481274e-008
5.495512e-008
1.774817e-008
-2.362336e-008
-6.458907e-008
-9.986411e-008
-1.244058e-007
-1.344513e-007
-1.283812e-007
-1.071761e-007
-7.433578e-008
-3.526401e-008
3.739922e-009
3.665404e-008
5.882149e-008
6.774266e-008
6.343663e-008
4.832142e-008
2.664059e-008
3.536482e-009
-1.605873e-008
-2.848225e-008
-3.209416e-008
-2.751523e-008
-1.726798e-008
-4.923345e-009
5.975931e-009
1.286716e-008
1.470647e-008
1.197942e-008
6.274184e-009
-3.506877e-010
-5.956285e-009
-9.119500e-009
8.059136e-008
6.799609e-008
4.421642e-008
1.250316e-008
-2.165888e-008
-5.083492e-008
-6.700819e-008
-6.388501e-008
-3.940005e-008
2.623878e-009
5.254528e-008
9.698943e-008
1.224517e-007
1.192898e-007
8.477117e-008
2.414991e-008
-5.056800e-008
-1.237343e-007
-1.800277e-007
-2.080841e-007
-2.028136e-007
-1.659347e-007
-1.048242e-007
-3.022730e-008
4.642116e-008
1.153583e-007
1.700521e-007
2.077719e-007
2.292576e-007
2.377589e-007
2.377875e-007
2.339044e-007
2.297782e-007
2.276424e-007
2.281743e-007
2.307304e-007
2.338132e-007
2.356174e-007
2.345118e-007
2.293617e-007
2.196678e-007
2.055643e-007
1.877581e-007
1.674722e-007
1.464002e-007
1.266129e-007
1.103395e-007
9.958437e-008
9.564469e-008
9.868573e-008
1.075654e-007
1.200330e-007
1.332843e-007
1.447027e-007
1.525329e-007
1.562637e-007
1.566179e-007
1.552016e-007
1.539698e-007
1.546872e-007
1.585030e-007
1.656774e-007
1.754413e-007
1.859696e-007
1.944895e-007
1.975785e-007
1.916981e-007
1.739440e-007
1.428857e-007
9.927968e-008
4.640817e-008
-1.014491e-008
-6.332573e-008
-1.059141e-007
-1.320030e-007
-1.382823e-007
-1.247902e-007
-9.493860e-008
-5.481289e-008
-1.193215e-008
2.622953e-008
5.363704e-008
6.673579e-008
6.496957e-008
5.070434e-008
2.858175e-008
4.417575e-009
-1.614280e-008
-2.891519e-008
-3.208612e-008
-2.648014e-008
-1.509763e-008
-2.067602e-009
8.641471e-009
1.433625e-008
1.420749e-008
9.306376e-009
1.985663e-009
-4.947279e-009
-9.087817e-009
8.399358e-008
6.598650e-008
3.380316e-008
-5.284606e-009
-4.158741e-008
-6.489109e-008
-6.711253e-008
-4.509128e-008
-2.501078e-009
5.010290e-008
9.754660e-008
1.241898e-007
1.187336e-007
7.806246e-008
8.746963e-009
-7.437253e-008
-1.520835e-007
-2.059114e-007
-2.228374e-007
-1.982654e-007
-1.365487e-007
-4.920478e-008
4.840648e-008
1.408521e-007
2.158220e-007
2.660746e-007
2.899142e-007
2.903917e-007
2.736850e-007
2.471968e-007
2.178376e-007
1.908031e-007
1.689776e-007
1.529369e-007
1.414204e-007
1.320820e-007
1.223063e-007
1.098987e-007
9.350816e-008
7.273127e-008
4.795761e-008
2.009958e-008
-9.620206e-009
-3.971227e-008
-6.830810e-008
-9.303749e-008
-1.110978e-007
-1.196533e-007
-1.165340e-007
-1.010117e-007
-7.432439e-008
-3.967466e-008
-1.620492e-009
3.496804e-008
6.603708e-008
8.919145e-008
1.040211e-007
1.118989e-007
1.154193e-007
1.177153e-007
1.218326e-007
1.302243e-007
1.443363e-007
1.642416e-007
1.883477e-007
2.132944e-007
2.342023e-007
2.453842e-007
2.414918e-007
2.188861e-007
1.768785e-007
1.184433e-007
5.010474e-008
-1.908679e-008
-7.930017e-008
-1.219716e-007
-1.416274e-007
-1.370111e-007
-1.112446e-007
-7.102750e-008
-2.512176e-008
1.748489e-008
4.932793e-008
6.579409e-008
6.581409e-008
5.182304e-008
2.900355e-008
3.948037e-009
-1.698708e-008
-2.924370e-008
-3.111481e-008
-2.396616e-008
-1.154885e-008
1.371474e-009
1.060286e-008
1.379868e-008
1.101139e-008
4.400335e-009
-2.738832e-009
-7.248234e-009
7.316980e-008
5.204197e-008
1.592804e-008
-2.429032e-008
-5.568110e-008
-6.686055e-008
-5.171248e-008
-1.208882e-008
4.165181e-008
9.289332e-008
1.234749e-007
1.195249e-007
7.645472e-008
1.273678e-009
-8.873929e-008
-1.706783e-007
-2.224551e-007
-2.289386e-007
-1.858839e-007
-1.006024e-007
1.053992e-008
1.267423e-007
2.279638e-007
2.992196e-007
3.330141e-007
3.296341e-007
2.956476e-007
2.413397e-007
1.779097e-007
1.151117e-007
5.974076e-008
1.507535e-008
-1.884693e-008
-4.437235e-008
-6.508810e-008
-8.467007e-008
-1.059521e-007
-1.303829e-007
-1.579505e-007
-1.875385e-007
-2.175504e-007
-2.465418e-007
-2.735870e-007
-2.982174e-007
-3.199674e-007
-3.377796e-007
-3.496356e-007
-3.527117e-007
-3.441235e-007
-3.220241e-007
-2.866013e-007
-2.405165e-007
-1.885435e-007
-1.365037e-007
-8.988802e-008
-5.265117e-008
-2.654303e-008
-1.107328e-008
-3.948105e-009
-1.697325e-009
-2.632128e-010
4.516003e-009
1.644255e-008
3.838640e-008
7.156565e-008
1.148128e-007
1.641101e-007
2.127130e-007
2.520623e-007
2.734426e-007
2.700586e-007
2.389884e-007
1.824123e-007
1.076681e-007
2.599802e-008
-4.975206e-008
-1.078960e-007
-1.403981e-007
-1.444495e-007
-1.227773e-007
-8.270346e-008
-3.429129e-008
1.191640e-008
4.705475e-008
6.558138e-008
6.613904e-008
5.150438e-008
2.763253e-008
1.979942e-009
-1.851623e-008
-2.926904e-008
-2.913447e-008
-2.040444e-008
-7.698001e-009
3.850623e-009
1.043995e-008
1.080876e-008
6.387454e-009
3.981590e-010
-3.686588e-009
5.018716e-008
2.889439e-008
-5.765638e-009
-4.040800e-008
-6.053918e-008
-5.565116e-008
-2.350737e-008
2.795939e-008
8.217045e-008
1.187859e-007
1.205869e-007
8.002339e-008
2.960710e-009
-9.197252e-008
-1.784513e-007
-2.302957e-007
-2.294160e-007
-1.712044e-007
-6.571776e-008
6.546477e-008
1.953932e-007
2.987781e-007
3.577805e-007
3.651360e-007
3.242049e-007
2.464898e-007
1.477464e-007
4.393864e-008
-5.195911e-008
-1.317752e-007
-1.925056e-007
-2.355239e-007
-2.650993e-007
-2.866959e-007
-3.054264e-007
-3.249053e-007
-3.466375e-007
-3.699911e-007
-3.927226e-007
-4.119251e-007
-4.251468e-007
-4.313392e-007
-4.312932e-007
-4.273552e-007
-4.224769e-007
-4.189356e-007
-4.172494e-007
-4.157782e-007
-4.112407e-007
-3.999820e-007
-3.794832e-007
-3.494847e-007
-3.122671e-007
-2.720137e-007
-2.335748e-007
-2.011660e-007
-1.774723e-007
-1.633539e-007
-1.580311e-007
-1.594415e-007
-1.644976e-007
-1.691814e-007
-1.686431e-007
-1.575885e-007
-1.311575e-007
-8.625291e-008
-2.299340e-008
5.423663e-008
1.366666e-007
2.122623e-007
2.680272e-007
2.929986e-007
2.811450e-007
2.332912e-007
1.574124e-007
6.710169e-008
-2.143061e-008
-9.300368e-008
-1.367573e-007
-1.482343e-007
-1.298148e-007
-8.956372e-008
-3.894727e-008
9.931755e-009
4.694886e-008
6.592173e-008
6.558870e-008
4.943511e-008
2.439929e-008
-1.257125e-009
-2.036356e-008
-2.882408e-008
-2.651992e-008
-1.682098e-008
-4.910887e-009
4.394597e-009
8.448892e-009
7.482629e-009
3.993825e-009
1.179259e-009
1.918635e-008
7.207176e-010
-2.732579e-008
-5.062241e-008
-5.515355e-008
-3.332981e-008
1.184170e-008
6.637514e-008
1.093382e-007
1.202499e-007
8.729152e-008
1.314666e-008
-8.407214e-008
-1.755709e-007
-2.308425e-007
-2.277002e-007
-1.597800e-007
-3.890696e-008
1.083205e-007
2.482964e-007
3.497228e-007
3.914551e-007
3.667147e-007
2.829596e-007
1.581429e-007
1.501935e-008
-1.246158e-007
-2.442634e-007
-3.348734e-007
-3.948117e-007
-4.281979e-007
-4.424173e-007
-4.455770e-007
-4.444580e-007
-4.432374e-007
-4.430235e-007
-4.421099e-007
-4.368027e-007
-4.226541e-007
-3.959034e-007
-3.548586e-007
-3.008884e-007
-2.386974e-007
-1.756797e-007
-1.203992e-007
-8.055027e-008
-6.099711e-008
-6.254252e-008
-8.186977e-008
-1.126911e-007
-1.476793e-007
-1.804685e-007
-2.070297e-007
-2.260505e-007
-2.384113e-007
-2.462051e-007
-2.518306e-007
-2.574751e-007
-2.649619e-007
-2.756733e-007
-2.902395e-007
-3.079010e-007
-3.257736e-007
-3.384728e-007
-3.385566e-007
-3.179916e-007
-2.704446e-007
-1.938011e-007
-9.207888e-008
2.405202e-008
1.386055e-007
2.333862e-007
2.921810e-007
3.048991e-007
2.704118e-007
1.971546e-007
1.012241e-007
2.490772e-009
-8.012778e-008
-1.328810e-007
-1.497900e-007
-1.331348e-007
-9.197138e-008
-3.930374e-008
1.126410e-008
4.862169e-008
6.638533e-008
6.386865e-008
4.561633e-008
1.961787e-008
-5.328486e-009
-2.231893e-008
-2.823076e-008
-2.414749e-008
-1.422543e-008
-3.545902e-009
4.075298e-009
7.365699e-009
7.476639e-009
6.681441e-009
-1.509669e-008
-2.825505e-008
-4.566793e-008
-5.373724e-008
-4.091286e-008
-4.173629e-009
4.766380e-008
9.566852e-008
1.174510e-007
9.647735e-008
3.031855e-008
-6.585543e-008
-1.625435e-007
-2.252309e-007
-2.264601e-007
-1.560888e-007
-2.580557e-008
1.337701e-007
2.822275e-007
3.813311e-007
4.056495e-007
3.485468e-007
2.221914e-007
5.238158e-008
-1.294943e-007
-2.945797e-007
-4.224925e-007
-5.039431e-007
-5.400714e-007
-5.394271e-007
-5.139058e-007
-4.748835e-007
-4.304153e-007
-3.838754e-007
-3.339858e-007
-2.759011e-007
-2.029215e-007
-1.084337e-007
1.222586e-008
1.602117e-007
3.321008e-007
5.194850e-007
7.093797e-007
8.855336e-007
1.030590e-006
1.128840e-006
1.169067e-006
1.146807e-006
1.065363e-006
9.351817e-007
7.716950e-007
5.922634e-007
4.131250e-007
2.471785e-007
1.029758e-007
-1.523055e-008
-1.068800e-007
-1.744199e-007
-2.227241e-007
-2.584474e-007
-2.889945e-007
-3.209367e-007
-3.580703e-007
-3.996813e-007
-4.397443e-007
-4.676354e-007
-4.705139e-007
-4.369694e-007
-3.610125e-007
-2.452042e-007
-1.017840e-007
4.887878e-008
1.824174e-007
2.762183e-007
3.151760e-007
2.956838e-007
2.265683e-007
1.266489e-007
1.971090e-008
-7.151346e-008
-1.305675e-007
-1.503442e-007
-1.334832e-007
-9.039191e-008
-3.574534e-008
1.550243e-008
5.165965e-008
6.667780e-008
6.092720e-008
4.024895e-008
1.357716e-008
-1.013749e-008
-2.468928e-008
-2.811912e-008
-2.249313e-008
-1.222068e-008
-1.799987e-009
5.927120e-009
1.028529e-008
1.202954e-008
-4.884833e-008
-5.501289e-008
-5.930452e-008
-5.036979e-008
-2.075029e-008
2.696544e-008
7.839068e-008
1.115588e-007
1.059721e-007
5.284667e-008
-3.815044e-008
-1.393238e-007
-2.132893e-007
-2.264713e-007
-1.625073e-007
-3.005886e-008
1.382962e-007
2.958141e-007
3.962913e-007
4.082876e-007
3.239502e-007
1.599048e-007
-4.925222e-008
-2.618622e-007
-4.405146e-007
-5.603141e-007
-6.122589e-007
-6.017246e-007
-5.434531e-007
-4.550968e-007
-3.512778e-007
-2.395428e-007
-1.188276e-007
1.966226e-008
1.897464e-007
4.065700e-007
6.827507e-007
1.025069e-006
1.432184e-006
1.893627e-006
2.390089e-006
2.894842e-006
3.375995e-006
3.799296e-006
4.131340e-006
4.343073e-006
4.413498e-006
4.333104e-006
4.106234e-006
3.751447e-006
3.299337e-006
2.788043e-006
2.257559e-006
1.744322e-006
1.277300e-006
8.760769e-007
5.505968e-007
3.018982e-007
1.232627e-007
1.649897e-009
-8.035068e-008
-1.417901e-007
-1.999093e-007
-2.665052e-007
-3.450223e-007
-4.293432e-007
-5.049593e-007
-5.526149e-007
-5.537903e-007
-4.967157e-007
-3.812090e-007
-2.206995e-007
-4.044288e-008
1.279562e-007
2.543341e-007
3.177662e-007
3.119087e-007
2.461782e-007
1.424871e-007
2.875681e-008
-6.858939e-008
-1.308631e-007
-1.505014e-007
-1.311521e-007
-8.500166e-008
-2.848587e-008
2.234966e-008
5.574033e-008
6.654667e-008
5.662212e-008
3.323259e-008
6.085522e-009
-1.602015e-008
-2.776714e-008
-2.827814e-008
-2.032255e-008
-8.395734e-009
3.284928e-009
1.196831e-008
1.645129e-008
-8.022080e-008
-7.842685e-008
-6.840998e-008
-4.227495e-008
2.179814e-009
5.630682e-008
1.009984e-007
1.135676e-007
7.866303e-008
-1.802965e-009
-1.050321e-007
-1.929462e-007
-2.257843e-007
-1.784858e-007
-5.287578e-008
1.199117e-007
2.883191e-007
3.973338e-007
4.069967e-007
3.054734e-007
1.121829e-007
-1.294130e-007
-3.659102e-007
-5.494505e-007
-6.493900e-007
-6.570497e-007