# vtk DataFile Version 3.0
vtk output
ASCII
DATASET STRUCTURED_POINTS
DIMENSIONS 100 100 1
SPACING 1 1 1
ORIGIN 0 0 0
POINT_DATA 10000
SCALARS SFBox_profile double
LOOKUP_TABLE default 
9.439920e-003
9.439920e-003
9.439920e-003
9.439920e-003
9.439920e-003
9.439920e-003
9.439920e-003
9.439920e-003
9.439920e-003
9.439920e-003
9.439920e-003
9.439920e-003
9.439920e-003
9.439920e-003
9.439920e-003
9.439920e-003
9.439920e-003
9.439920e-003
9.439920e-003
9.439920e-003
9.439920e-003
9.439920e-003
9.439920e-003
9.439920e-003
9.439920e-003
9.439920e-003
9.439920e-003
9.439920e-003
9.439920e-003
9.439920e-003
9.439920e-003
9.439920e-003
9.439920e-003
9.439920e-003
9.439920e-003
9.439920e-003
9.439921e-003
9.439921e-003
9.439921e-003
9.439921e-003
9.439921e-003
9.439921e-003
9.439921e-003
9.439921e-003
9.439921e-003
9.439921e-003
9.439921e-003
9.439921e-003
9.439921e-003
9.439921e-003
9.439921e-003
9.439921e-003
9.439921e-003
9.439921e-003
9.439921e-003
9.439921e-003
9.439921e-003
9.439921e-003
9.439921e-003
9.439921e-003
9.439921e-003
9.439921e-003
9.439921e-003
9.439921e-003
9.439921e-003
9.439920e-003
9.439920e-003
9.439920e-003
9.439920e-003
9.439920e-003
9.439920e-003
9.439920e-003
9.439920e-003
9.439920e-003
9.439920e-003
9.439920e-003
9.439920e-003
9.439920e-003
9.439920e-003
9.439920e-003
9.439920e-003
9.439920e-003
9.439920e-003
9.439920e-003
9.439920e-003
9.439920e-003
9.439920e-003
9.439920e-003
9.439920e-003
9.439920e-003
9.439920e-003
9.439920e-003
9.439920e-003
9.439920e-003
9.439920e-003
9.439920e-003
9.439920e-003
9.439920e-003
9.439920e-003
9.439920e-003
9.439920e-003
9.439920e-003
9.439920e-003
9.439920e-003
9.439920e-003
9.439920e-003
9.439920e-003
9.439920e-003
9.439920e-003
9.439920e-003
9.439920e-003
9.439920e-003
9.439920e-003
9.439920e-003
9.439920e-003
9.439920e-003
9.439920e-003
9.439920e-003
9.439920e-003
9.439920e-003
9.439920e-003
9.439920e-003
9.439920e-003
9.439920e-003
9.439920e-003
9.439920e-003
9.439920e-003
9.439920e-003
9.439920e-003
9.439920e-003
9.439920e-003
9.439920e-003
9.439920e-003
9.439920e-003
9.439920e-003
9.439920e-003
9.439921e-003
9.439921e-003
9.439921e-003
9.439921e-003
9.439921e-003
9.439921e-003
9.439921e-003
9.439921e-003
9.439921e-003
9.439921e-003
9.439921e-003
9.439921e-003
9.439921e-003
9.439921e-003
9.439921e-003
9.439921e-003
9.439921e-003
9.439921e-003
9.439921e-003
9.439921e-003
9.439921e-003
9.439921e-003
9.439921e-003
9.439921e-003
9.439921e-003
9.439921e-003
9.439921e-003
9.439921e-003
9.439921e-003
9.439920e-003
9.439920e-003
9.439920e-003
9.439920e-003
9.439920e-003
9.439920e-003
9.439920e-003
9.439920e-003
9.439920e-003
9.439920e-003
9.439920e-003
9.439920e-003
9.439920e-003
9.439920e-003
9.439920e-003
9.439920e-003
9.439920e-003
9.439920e-003
9.439920e-003
9.439920e-003
9.439920e-003
9.439920e-003
9.439920e-003
9.439920e-003
9.439920e-003
9.439920e-003
9.439920e-003
9.439920e-003
9.439920e-003
9.439920e-003
9.439920e-003
9.439920e-003
9.439920e-003
9.439920e-003
9.439920e-003
9.439920e-003
9.439920e-003
9.439920e-003
9.439920e-003
9.439920e-003
9.439920e-003
9.439920e-003
9.439920e-003
9.439920e-003
9.439920e-003
9.439920e-003
9.439920e-003
9.439920e-003
9.439920e-003
9.439920e-003
9.439920e-003
9.439920e-003
9.439920e-003
9.439920e-003
9.439920e-003
9.439920e-003
9.439920e-003
9.439920e-003
9.439920e-003
9.439920e-003
9.439920e-003
9.439920e-003
9.439920e-003
9.439920e-003
9.439920e-003
9.439920e-003
9.439920e-003
9.439921e-003
9.439921e-003
9.439921e-003
9.439921e-003
9.439921e-003
9.439921e-003
9.439921e-003
9.439921e-003
9.439921e-003
9.439922e-003
9.439922e-003
9.439922e-003
9.439922e-003
9.439922e-003
9.439922e-003
9.439922e-003
9.439922e-003
9.439922e-003
9.439922e-003
9.439922e-003
9.439922e-003
9.439922e-003
9.439922e-003
9.439922e-003
9.439922e-003
9.439922e-003
9.439922e-003
9.439922e-003
9.439921e-003
9.439921e-003
9.439921e-003
9.439921e-003
9.439921e-003
9.439921e-003
9.439921e-003
9.439921e-003
9.439920e-003
9.439920e-003
9.439920e-003
9.439920e-003
9.439920e-003
9.439920e-003
9.439920e-003
9.439920e-003
9.439920e-003
9.439920e-003
9.439920e-003
9.439920e-003
9.439920e-003
9.439920e-003
9.439920e-003
9.439920e-003
9.439920e-003
9.439920e-003
9.439920e-003
9.439920e-003
9.439920e-003
9.439920e-003
9.439920e-003
9.439920e-003
9.439920e-003
9.439920e-003
9.439920e-003
9.439920e-003
9.439920e-003
9.439920e-003
9.439920e-003
9.439920e-003
9.439920e-003
9.439920e-003
9.439920e-003
9.439920e-003
9.439920e-003
9.439920e-003
9.439920e-003
9.439920e-003
9.439920e-003
9.439920e-003
9.439920e-003
9.439920e-003
9.439920e-003
9.439920e-003
9.439920e-003
9.439920e-003
9.439920e-003
9.439920e-003
9.439920e-003
9.439920e-003
9.439920e-003
9.439920e-003
9.439920e-003
9.439920e-003
9.439920e-003
9.439920e-003
9.439920e-003
9.439920e-003
9.439920e-003
9.439921e-003
9.439921e-003
9.439921e-003
9.439921e-003
9.439921e-003
9.439921e-003
9.439922e-003
9.439922e-003
9.439922e-003
9.439922e-003
9.439923e-003
9.439923e-003
9.439923e-003
9.439923e-003
9.439924e-003
9.439924e-003
9.439924e-003
9.439924e-003
9.439924e-003
9.439924e-003
9.439924e-003
9.439924e-003
9.439924e-003
9.439924e-003
9.439924e-003
9.439924e-003
9.439924e-003
9.439924e-003
9.439924e-003
9.439923e-003
9.439923e-003
9.439923e-003
9.439923e-003
9.439922e-003
9.439922e-003
9.439922e-003
9.439922e-003
9.439921e-003
9.439921e-003
9.439921e-003
9.439921e-003
9.439921e-003
9.439920e-003
9.439920e-003
9.439920e-003
9.439920e-003
9.439920e-003
9.439920e-003
9.439920e-003
9.439920e-003
9.439920e-003
9.439920e-003
9.439920e-003
9.439920e-003
9.439920e-003
9.439920e-003
9.439920e-003
9.439920e-003
9.439920e-003
9.439920e-003
9.439920e-003
9.439920e-003
9.439920e-003
9.439920e-003
9.439920e-003
9.439920e-003
9.439920e-003
9.439920e-003
9.439920e-003
9.439920e-003
9.439920e-003
9.439920e-003
9.439920e-003
9.439920e-003
9.439920e-003
9.439920e-003
9.439920e-003
9.439920e-003
9.439920e-003
9.439920e-003
9.439920e-003
9.439920e-003
9.439920e-003
9.439920e-003
9.439920e-003
9.439920e-003
9.439920e-003
9.439920e-003
9.439920e-003
9.439920e-003
9.439920e-003
9.439920e-003
9.439920e-003
9.439920e-003
9.439920e-003
9.439920e-003
9.439920e-003
9.439921e-003
9.439921e-003
9.439921e-003
9.439921e-003
9.439922e-003
9.439922e-003
9.439922e-003
9.439923e-003
9.439923e-003
9.439923e-003
9.439924e-003
9.439924e-003
9.439925e-003
9.439925e-003
9.439926e-003
9.439926e-003
9.439927e-003
9.439927e-003
9.439927e-003
9.439928e-003
9.439928e-003
9.439928e-003
9.439928e-003
9.439928e-003
9.439928e-003
9.439928e-003
9.439928e-003
9.439928e-003
9.439928e-003
9.439928e-003
9.439927e-003
9.439927e-003
9.439927e-003
9.439926e-003
9.439926e-003
9.439925e-003
9.439925e-003
9.439924e-003
9.439924e-003
9.439923e-003
9.439923e-003
9.439922e-003
9.439922e-003
9.439922e-003
9.439921e-003
9.439921e-003
9.439921e-003
9.439921e-003
9.439920e-003
9.439920e-003
9.439920e-003
9.439920e-003
9.439920e-003
9.439920e-003
9.439920e-003
9.439920e-003
9.439920e-003
9.439920e-003
9.439920e-003
9.439920e-003
9.439920e-003
9.439920e-003
9.439920e-003
9.439920e-003
9.439920e-003
9.439920e-003
9.439920e-003
9.439920e-003
9.439920e-003
9.439920e-003
9.439920e-003
9.439920e-003
9.439920e-003
9.439920e-003
9.439920e-003
9.439920e-003
9.439920e-003
9.439920e-003
9.439920e-003
9.439920e-003
9.439920e-003
9.439920e-003
9.439920e-003
9.439920e-003
9.439920e-003
9.439920e-003
9.439920e-003
9.439920e-003
9.439920e-003
9.439920e-003
9.439920e-003
9.439920e-003
9.439920e-003
9.439920e-003
9.439920e-003
9.439920e-003
9.439920e-003
9.439921e-003
9.439921e-003
9.439921e-003
9.439921e-003
9.439922e-003
9.439922e-003
9.439923e-003
9.439923e-003
9.439924e-003
9.439924e-003
9.439925e-003
9.439926e-003
9.439927e-003
9.439928e-003
9.439928e-003
9.439929e-003
9.439930e-003
9.439931e-003
9.439931e-003
9.439932e-003
9.439933e-003
9.439933e-003
9.439934e-003
9.439934e-003
9.439934e-003
9.439935e-003
9.439935e-003
9.439935e-003
9.439935e-003
9.439935e-003
9.439934e-003
9.439934e-003
9.439934e-003
9.439933e-003
9.439933e-003
9.439932e-003
9.439931e-003
9.439931e-003
9.439930e-003
9.439929e-003
9.439928e-003
9.439927e-003
9.439926e-003
9.439925e-003
9.439925e-003
9.439924e-003
9.439923e-003
9.439923e-003
9.439922e-003
9.439922e-003
9.439921e-003
9.439921e-003
9.439921e-003
9.439920e-003
9.439920e-003
9.439920e-003
9.439920e-003
9.439920e-003
9.439920e-003
9.439920e-003
9.439920e-003
9.439920e-003
9.439920e-003
9.439920e-003
9.439920e-003
9.439920e-003
9.439920e-003
9.439920e-003
9.439920e-003
9.439920e-003
9.439920e-003
9.439920e-003
9.439920e-003
9.439920e-003
9.439920e-003
9.439920e-003
9.439920e-003
9.439920e-003
9.439920e-003
9.439920e-003
9.439920e-003
9.439920e-003
9.439920e-003
9.439920e-003
9.439920e-003
9.439920e-003
9.439920e-003
9.439920e-003
9.439920e-003
9.439920e-003
9.439920e-003
9.439920e-003
9.439920e-003
9.439920e-003
9.439920e-003
9.439920e-003
9.439920e-003
9.439920e-003
9.439921e-003
9.439921e-003
9.439921e-003
9.439921e-003
9.439922e-003
9.439923e-003
9.439923e-003
9.439924e-003
9.439925e-003
9.439926e-003
9.439927e-003
9.439928e-003
9.439930e-003
9.439931e-003
9.439932e-003
9.439933e-003
9.439934e-003
9.439936e-003
9.439937e-003
9.439938e-003
9.439939e-003
9.439940e-003
9.439940e-003
9.439941e-003
9.439941e-003
9.439942e-003
9.439942e-003
9.439942e-003
9.439942e-003
9.439942e-003
9.439942e-003
9.439942e-003
9.439942e-003
9.439941e-003
9.439941e-003
9.439940e-003
9.439940e-003
9.439939e-003
9.439938e-003
9.439937e-003
9.439936e-003
9.439935e-003
9.439934e-003
9.439932e-003
9.439931e-003
9.439930e-003
9.439929e-003
9.439927e-003
9.439926e-003
9.439925e-003
9.439924e-003
9.439923e-003
9.439922e-003
9.439922e-003
9.439921e-003
9.439921e-003
9.439921e-003
9.439920e-003
9.439920e-003
9.439920e-003
9.439920e-003
9.439920e-003
9.439920e-003
9.439920e-003
9.439920e-003
9.439920e-003
9.439920e-003
9.439920e-003
9.439920e-003
9.439920e-003
9.439920e-003
9.439920e-003
9.439920e-003
9.439920e-003
9.439920e-003
9.439920e-003
9.439920e-003
9.439920e-003
9.439920e-003
9.439920e-003
9.439920e-003
9.439920e-003
9.439920e-003
9.439920e-003
9.439920e-003
9.439920e-003
9.439920e-003
9.439920e-003
9.439920e-003
9.439920e-003
9.439920e-003
9.439920e-003
9.439920e-003
9.439920e-003
9.439920e-003
9.439920e-003
9.439920e-003
9.439920e-003
9.439920e-003
9.439921e-003
9.439921e-003
9.439922e-003
9.439922e-003
9.439923e-003
9.439924e-003
9.439925e-003
9.439926e-003
9.439928e-003
9.439929e-003
9.439931e-003
9.439933e-003
9.439934e-003
9.439936e-003
9.439938e-003
9.439939e-003
9.439941e-003
9.439942e-003
9.439943e-003
9.439944e-003
9.439945e-003
9.439946e-003
9.439946e-003
9.439946e-003
9.439947e-003
9.439947e-003
9.439947e-003
9.439946e-003
9.439946e-003
9.439946e-003
9.439946e-003
9.439946e-003
9.439945e-003
9.439945e-003
9.439945e-003
9.439945e-003
9.439945e-003
9.439945e-003
9.439944e-003
9.439944e-003
9.439943e-003
9.439942e-003
9.439942e-003
9.439940e-003
9.439939e-003
9.439938e-003
9.439936e-003
9.439934e-003
9.439933e-003
9.439931e-003
9.439929e-003
9.439928e-003
9.439926e-003
9.439925e-003
9.439924e-003
9.439923e-003
9.439922e-003
9.439921e-003
9.439921e-003
9.439921e-003
9.439920e-003
9.439920e-003
9.439920e-003
9.439920e-003
9.439920e-003
9.439920e-003
9.439920e-003
9.439920e-003
9.439920e-003
9.439920e-003
9.439920e-003
9.439920e-003
9.439920e-003
9.439920e-003
9.439920e-003
9.439920e-003
9.439920e-003
9.439920e-003
9.439920e-003
9.439920e-003
9.439920e-003
9.439920e-003
9.439920e-003
9.439920e-003
9.439920e-003
9.439920e-003
9.439920e-003
9.439920e-003
9.439920e-003
9.439920e-003
9.439920e-003
9.439920e-003
9.439920e-003
9.439920e-003
9.439920e-003
9.439920e-003
9.439920e-003
9.439920e-003
9.439921e-003
9.439921e-003
9.439922e-003
9.439922e-003
9.439923e-003
9.439924e-003
9.439926e-003
9.439927e-003
9.439929e-003
9.439931e-003
9.439933e-003
9.439936e-003
9.439938e-003
9.439940e-003
9.439942e-003
9.439944e-003
9.439945e-003
9.439946e-003
9.439946e-003
9.439947e-003
9.439946e-003
9.439945e-003
9.439944e-003
9.439942e-003
9.439940e-003
9.439938e-003
9.439936e-003
9.439934e-003
9.439932e-003
9.439930e-003
9.439928e-003
9.439927e-003
9.439926e-003
9.439926e-003
9.439926e-003
9.439926e-003
9.439927e-003
9.439928e-003
9.439930e-003
9.439932e-003
9.439934e-003
9.439936e-003
9.439938e-003
9.439940e-003
9.439942e-003
9.439942e-003
9.439943e-003
9.439943e-003
9.439942e-003
9.439941e-003
9.439939e-003
9.439937e-003
9.439935e-003
9.439933e-003
9.439931e-003
9.439929e-003
9.439927e-003
9.439925e-003
9.439924e-003
9.439923e-003
9.439922e-003
9.439921e-003
9.439921e-003
9.439921e-003
9.439920e-003
9.439920e-003
9.439920e-003
9.439920e-003
9.439920e-003
9.439920e-003
9.439920e-003
9.439920e-003
9.439920e-003
9.439920e-003
9.439920e-003
9.439920e-003
9.439920e-003
9.439920e-003
9.439920e-003
9.439920e-003
9.439920e-003
9.439920e-003
9.439920e-003
9.439920e-003
9.439920e-003
9.439920e-003
9.439920e-003
9.439920e-003
9.439920e-003
9.439920e-003
9.439920e-003
9.439920e-003
9.439920e-003
9.439920e-003
9.439920e-003
9.439920e-003
9.439920e-003
9.439920e-003
9.439921e-003
9.439921e-003
9.439922e-003
9.439922e-003
9.439923e-003
9.439924e-003
9.439926e-003
9.439928e-003
9.439930e-003
9.439933e-003
9.439935e-003
9.439938e-003
9.439941e-003
9.439943e-003
9.439945e-003
9.439946e-003
9.439947e-003
9.439946e-003
9.439944e-003
9.439941e-003
9.439936e-003
9.439930e-003
9.439923e-003
9.439915e-003
9.439906e-003
9.439896e-003
9.439886e-003
9.439876e-003
9.439867e-003
9.439857e-003
9.439849e-003
9.439841e-003
9.439835e-003
9.439831e-003
9.439828e-003
9.439827e-003
9.439828e-003
9.439831e-003
9.439835e-003
9.439842e-003
9.439850e-003
9.439859e-003
9.439870e-003
9.439881e-003
9.439892e-003
9.439902e-003
9.439912e-003
9.439921e-003
9.439929e-003
9.439935e-003
9.439939e-003
9.439941e-003
9.439942e-003
9.439942e-003
9.439941e-003
9.439939e-003
9.439936e-003
9.439934e-003
9.439931e-003
9.439929e-003
9.439927e-003
9.439925e-003
9.439924e-003
9.439923e-003
9.439922e-003
9.439921e-003
9.439921e-003
9.439920e-003
9.439920e-003
9.439920e-003
9.439920e-003
9.439920e-003
9.439920e-003
9.439920e-003
9.439920e-003
9.439920e-003
9.439920e-003
9.439920e-003
9.439920e-003
9.439920e-003
9.439920e-003
9.439920e-003
9.439920e-003
9.439920e-003
9.439920e-003
9.439920e-003
9.439920e-003
9.439920e-003
9.439920e-003
9.439920e-003
9.439920e-003
9.439920e-003
9.439920e-003
9.439920e-003
9.439920e-003
9.439920e-003
9.439920e-003
9.439920e-003
9.439920e-003
9.439921e-003
9.439921e-003
9.439922e-003
9.439923e-003
9.439924e-003
9.439926e-003
9.439928e-003
9.439931e-003
9.439934e-003
9.439937e-003
9.439940e-003
9.439943e-003
9.439945e-003
9.439947e-003
9.439947e-003
9.439945e-003
9.439940e-003
9.439932e-003
9.439922e-003
9.439907e-003
9.439889e-003
9.439868e-003
9.439844e-003
9.439816e-003
9.439787e-003
9.439755e-003
9.439723e-003
9.439691e-003
9.439659e-003
9.439628e-003
9.439599e-003
9.439574e-003
9.439552e-003
9.439534e-003
9.439520e-003
9.439513e-003
9.439510e-003
9.439514e-003
9.439523e-003
9.439539e-003
9.439559e-003
9.439585e-003
9.439615e-003
9.439649e-003
9.439684e-003
9.439721e-003
9.439757e-003
9.439793e-003
9.439825e-003
9.439855e-003
9.439880e-003
9.439901e-003
9.439917e-003
9.439929e-003
9.439936e-003
9.439941e-003
9.439942e-003
9.439942e-003
9.439940e-003
9.439937e-003
9.439935e-003
9.439932e-003
9.439929e-003
9.439927e-003
9.439925e-003
9.439923e-003
9.439922e-003
9.439921e-003
9.439921e-003
9.439920e-003
9.439920e-003
9.439920e-003
9.439920e-003
9.439920e-003
9.439920e-003
9.439920e-003
9.439920e-003
9.439920e-003
9.439920e-003
9.439920e-003
9.439920e-003
9.439920e-003
9.439920e-003
9.439920e-003
9.439920e-003
9.439920e-003
9.439920e-003
9.439920e-003
9.439920e-003
9.439920e-003
9.439920e-003
9.439920e-003
9.439920e-003
9.439920e-003
9.439920e-003
9.439920e-003
9.439920e-003
9.439920e-003
9.439921e-003
9.439921e-003
9.439922e-003
9.439922e-003
9.439924e-003
9.439926e-003
9.439928e-003
9.439931e-003
9.439934e-003
9.439937e-003
9.439941e-003
9.439945e-003
9.439947e-003
9.439948e-003
9.439946e-003
9.439940e-003
9.439929e-003
9.439913e-003
9.439888e-003
9.439856e-003
9.439815e-003
9.439765e-003
9.439706e-003
9.439639e-003
9.439564e-003
9.439483e-003
9.439397e-003
9.439308e-003
9.439218e-003
9.439129e-003
9.439042e-003
9.438959e-003
9.438883e-003
9.438816e-003
9.438758e-003
9.438711e-003
9.438677e-003
9.438658e-003
9.438653e-003
9.438663e-003
9.438689e-003
9.438731e-003
9.438787e-003
9.438857e-003
9.438938e-003
9.439029e-003
9.439127e-003
9.439229e-003
9.439331e-003
9.439432e-003
9.439527e-003
9.439615e-003
9.439693e-003
9.439759e-003
9.439815e-003
9.439859e-003
9.439891e-003
9.439915e-003
9.439930e-003
9.439938e-003
9.439942e-003
9.439942e-003
9.439941e-003
9.439938e-003
9.439934e-003
9.439931e-003
9.439928e-003
9.439926e-003
9.439924e-003
9.439923e-003
9.439922e-003
9.439921e-003
9.439921e-003
9.439920e-003
9.439920e-003
9.439920e-003
9.439920e-003
9.439920e-003
9.439920e-003
9.439920e-003
9.439920e-003
9.439920e-003
9.439920e-003
9.439920e-003
9.439920e-003
9.439920e-003
9.439920e-003
9.439920e-003
9.439920e-003
9.439920e-003
9.439920e-003
9.439920e-003
9.439920e-003
9.439920e-003
9.439920e-003
9.439920e-003
9.439920e-003
9.439920e-003
9.439920e-003
9.439921e-003
9.439921e-003
9.439922e-003
9.439923e-003
9.439925e-003
9.439927e-003
9.439930e-003
9.439933e-003
9.439937e-003
9.439941e-003
9.439945e-003
9.439948e-003
9.439949e-003
9.439945e-003
9.439936e-003
9.439918e-003
9.439888e-003
9.439845e-003
9.439786e-003
9.439707e-003
9.439608e-003
9.439488e-003
9.439346e-003
9.439184e-003
9.439003e-003
9.438805e-003
9.438594e-003
9.438374e-003
9.438149e-003
9.437923e-003
9.437700e-003
9.437486e-003
9.437284e-003
9.437099e-003
9.436935e-003
9.436796e-003
9.436685e-003
9.436605e-003
9.436559e-003
9.436549e-003
9.436576e-003
9.436640e-003
9.436742e-003
9.436880e-003
9.437051e-003
9.437251e-003
9.437475e-003
9.437718e-003
9.437973e-003
9.438232e-003
9.438488e-003
9.438734e-003
9.438964e-003
9.439172e-003
9.439354e-003
9.439509e-003
9.439637e-003
9.439737e-003
9.439812e-003
9.439866e-003
9.439903e-003
9.439925e-003
9.439937e-003
9.439942e-003
9.439943e-003
9.439940e-003
9.439937e-003
9.439933e-003
9.439930e-003
9.439927e-003
9.439925e-003
9.439923e-003
9.439922e-003
9.439921e-003
9.439921e-003
9.439920e-003
9.439920e-003
9.439920e-003
9.439920e-003
9.439920e-003
9.439920e-003
9.439920e-003
9.439920e-003
9.439920e-003
9.439920e-003
9.439920e-003
9.439920e-003
9.439920e-003
9.439920e-003
9.439920e-003
9.439920e-003
9.439920e-003
9.439920e-003
9.439920e-003
9.439920e-003
9.439920e-003
9.439920e-003
9.439920e-003
9.439920e-003
9.439921e-003
9.439921e-003
9.439922e-003
9.439924e-003
9.439926e-003
9.439928e-003
9.439931e-003
9.439936e-003
9.439940e-003
9.439945e-003
9.439949e-003
9.439950e-003
9.439946e-003
9.439934e-003
9.439910e-003
9.439869e-003
9.439804e-003
9.439711e-003
9.439583e-003
9.439415e-003
9.439202e-003
9.438941e-003
9.438630e-003
9.438272e-003
9.437868e-003
9.437424e-003
9.436946e-003
9.436443e-003
9.435922e-003
9.435394e-003
9.434868e-003
9.434355e-003
9.433864e-003
9.433405e-003
9.432986e-003
9.432617e-003
9.432305e-003
9.432057e-003
9.431880e-003
9.431779e-003
9.431758e-003
9.431821e-003
9.431968e-003
9.432200e-003
9.432512e-003
9.432901e-003
9.433357e-003
9.433872e-003
9.434432e-003
9.435022e-003
9.435628e-003
9.436231e-003
9.436816e-003
9.437369e-003
9.437876e-003
9.438327e-003
9.438718e-003
9.439044e-003
9.439308e-003
9.439514e-003
9.439668e-003
9.439778e-003
9.439852e-003
9.439899e-003
9.439925e-003
9.439938e-003
9.439943e-003
9.439942e-003
9.439939e-003
9.439935e-003
9.439931e-003
9.439928e-003
9.439926e-003
9.439924e-003
9.439922e-003
9.439921e-003
9.439921e-003
9.439920e-003
9.439920e-003
9.439920e-003
9.439920e-003
9.439920e-003
9.439920e-003
9.439920e-003
9.439920e-003
9.439920e-003
9.439920e-003
9.439920e-003
9.439920e-003
9.439920e-003
9.439920e-003
9.439920e-003
9.439920e-003
9.439920e-003
9.439920e-003
9.439920e-003
9.439920e-003
9.439920e-003
9.439920e-003
9.439921e-003
9.439921e-003
9.439923e-003
9.439924e-003
9.439926e-003
9.439929e-003
9.439933e-003
9.439938e-003
9.439943e-003
9.439948e-003
9.439951e-003
9.439949e-003
9.439937e-003
9.439911e-003
9.439863e-003
9.439782e-003
9.439657e-003
9.439477e-003
9.439227e-003
9.438896e-003
9.438473e-003
9.437948e-003
9.437318e-003
9.436582e-003
9.435744e-003
9.434812e-003
9.433800e-003
9.432723e-003
9.431599e-003
9.430448e-003
9.429291e-003
9.428150e-003
9.427044e-003
9.425993e-003
9.425016e-003
9.424131e-003
9.423354e-003
9.422700e-003
9.422184e-003
9.421817e-003
9.421610e-003
9.421571e-003
9.421707e-003
9.422020e-003
9.422509e-003
9.423171e-003
9.423995e-003
9.424967e-003
9.426068e-003
9.427272e-003
9.428551e-003
9.429872e-003
9.431201e-003
9.432502e-003
9.433742e-003
9.434894e-003
9.435933e-003
9.436843e-003
9.437616e-003
9.438252e-003
9.438758e-003
9.439146e-003
9.439432e-003
9.439634e-003
9.439769e-003
9.439854e-003
9.439904e-003
9.439930e-003
9.439941e-003
9.439943e-003
9.439941e-003
9.439937e-003
9.439933e-003
9.439929e-003
9.439926e-003
9.439924e-003
9.439923e-003
9.439921e-003
9.439921e-003
9.439920e-003
9.439920e-003
9.439920e-003
9.439920e-003
9.439920e-003
9.439920e-003
9.439920e-003
9.439920e-003
9.439920e-003
9.439920e-003
9.439920e-003
9.439920e-003
9.439920e-003
9.439920e-003
9.439920e-003
9.439920e-003
9.439920e-003
9.439920e-003
9.439920e-003
9.439920e-003
9.439921e-003
9.439922e-003
9.439923e-003
9.439924e-003
9.439927e-003
9.439931e-003
9.439935e-003
9.439940e-003
9.439946e-003
9.439951e-003
9.439952e-003
9.439944e-003
9.439922e-003
9.439874e-003
9.439788e-003
9.439646e-003
9.439426e-003
9.439105e-003
9.438655e-003
9.438049e-003
9.437264e-003
9.436279e-003
9.435079e-003
9.433661e-003
9.432027e-003
9.430193e-003
9.428180e-003
9.426020e-003
9.423748e-003
9.421405e-003
9.419032e-003
9.416672e-003
9.414366e-003
9.412152e-003
9.410067e-003
9.408145e-003
9.406416e-003
9.404910e-003
9.403651e-003
9.402663e-003
9.401966e-003
9.401579e-003
9.401516e-003
9.401787e-003
9.402400e-003
9.403355e-003
9.404645e-003
9.406257e-003
9.408168e-003
9.410344e-003
9.412744e-003
9.415314e-003
9.417996e-003
9.420721e-003
9.423421e-003
9.426027e-003
9.428475e-003
9.430714e-003
9.432702e-003
9.434416e-003
9.435847e-003
9.437005e-003
9.437908e-003
9.438589e-003
9.439082e-003
9.439423e-003
9.439650e-003
9.439791e-003
9.439874e-003
9.439918e-003
9.439938e-003
9.439943e-003
9.439942e-003
9.439938e-003
9.439934e-003
9.439930e-003
9.439927e-003
9.439924e-003
9.439923e-003
9.439922e-003
9.439921e-003
9.439920e-003
9.439920e-003
9.439920e-003
9.439920e-003
9.439920e-003
9.439920e-003
9.439920e-003
9.439920e-003
9.439920e-003
9.439920e-003
9.439920e-003
9.439920e-003
9.439920e-003
9.439920e-003
9.439920e-003
9.439920e-003
9.439920e-003
9.439920e-003
9.439921e-003
9.439922e-003
9.439923e-003
9.439925e-003
9.439928e-003
9.439931e-003
9.439936e-003
9.439942e-003
9.439949e-003
9.439953e-003
9.439951e-003
9.439937e-003
9.439899e-003
9.439822e-003
9.439684e-003
9.439454e-003
9.439095e-003
9.438561e-003
9.437802e-003
9.436766e-003
9.435399e-003
9.433658e-003
9.431509e-003
9.428936e-003
9.425940e-003
9.422543e-003
9.418789e-003
9.414734e-003
9.410451e-003
9.406018e-003
9.401518e-003
9.397033e-003
9.392640e-003
9.388412e-003
9.384413e-003
9.380701e-003
9.377324e-003
9.374327e-003
9.371748e-003
9.369618e-003
9.367968e-003
9.366822e-003
9.366205e-003
9.366135e-003
9.366629e-003
9.367698e-003
9.369348e-003
9.371578e-003
9.374374e-003
9.377713e-003
9.381556e-003
9.385846e-003
9.390506e-003
9.395443e-003
9.400546e-003
9.405688e-003
9.410740e-003
9.415573e-003
9.420069e-003
9.424131e-003
9.427693e-003
9.430717e-003
9.433203e-003
9.435178e-003
9.436692e-003
9.437809e-003
9.438603e-003
9.439143e-003
9.439494e-003
9.439711e-003
9.439835e-003
9.439902e-003
9.439932e-003
9.439943e-003
9.439943e-003
9.439939e-003
9.439935e-003
9.439930e-003
9.439927e-003
9.439924e-003
9.439923e-003
9.439922e-003
9.439921e-003
9.439920e-003
9.439920e-003
9.439920e-003
9.439920e-003
9.439920e-003
9.439920e-003
9.439920e-003
9.439920e-003
9.439920e-003
9.439920e-003
9.439920e-003
9.439920e-003
9.439920e-003
9.439920e-003
9.439920e-003
9.439920e-003
9.439921e-003
9.439922e-003
9.439923e-003
9.439925e-003
9.439928e-003
9.439932e-003
9.439937e-003
9.439944e-003
9.439950e-003
9.439954e-003
9.439949e-003
9.439927e-003
9.439871e-003
9.439758e-003
9.439553e-003
9.439207e-003
9.438659e-003
9.437829e-003
9.436627e-003
9.434955e-003
9.432714e-003
9.429813e-003
9.426182e-003
9.421783e-003
9.416614e-003
9.410719e-003
9.404179e-003
9.397114e-003
9.389670e-003
9.382008e-003
9.374290e-003
9.366675e-003
9.359303e-003
9.352299e-003
9.345762e-003
9.339771e-003
9.334382e-003
9.329636e-003
9.325557e-003
9.322157e-003
9.319442e-003
9.317416e-003
9.316079e-003
9.315435e-003
9.315491e-003
9.316256e-003
9.317747e-003
9.319986e-003
9.322998e-003
9.326805e-003
9.331428e-003
9.336870e-003
9.343116e-003
9.350115e-003
9.357781e-003
9.365976e-003
9.374523e-003
9.383202e-003
9.391773e-003
9.399989e-003
9.407622e-003
9.414486e-003
9.420453e-003
9.425463e-003
9.429522e-003
9.432692e-003
9.435076e-003
9.436802e-003
9.438002e-003
9.438801e-003
9.439310e-003
9.439618e-003
9.439793e-003
9.439884e-003
9.439926e-003
9.439942e-003
9.439944e-003
9.439940e-003
9.439935e-003
9.439930e-003
9.439927e-003
9.439924e-003
9.439923e-003
9.439921e-003
9.439921e-003
9.439920e-003
9.439920e-003
9.439920e-003
9.439920e-003
9.439920e-003
9.439920e-003
9.439920e-003
9.439920e-003
9.439920e-003
9.439920e-003
9.439920e-003
9.439920e-003
9.439920e-003
9.439920e-003
9.439921e-003
9.439922e-003
9.439923e-003
9.439925e-003
9.439928e-003
9.439932e-003
9.439938e-003
9.439945e-003
9.439952e-003
9.439955e-003
9.439947e-003
9.439917e-003
9.439841e-003
9.439688e-003
9.439404e-003
9.438919e-003
9.438132e-003
9.436917e-003
9.435124e-003
9.432580e-003
9.429107e-003
9.424542e-003
9.418754e-003
9.411673e-003
9.403310e-003
9.393767e-003
9.383239e-003
9.371999e-003
9.360375e-003
9.348720e-003
9.337380e-003
9.326667e-003
9.316837e-003
9.308082e-003
9.300523e-003
9.294213e-003
9.289144e-003
9.285253e-003
9.282436e-003
9.280559e-003
9.279471e-003
9.279012e-003
9.279028e-003
9.279381e-003
9.279953e-003
9.280659e-003
9.281456e-003
9.282348e-003
9.283394e-003
9.284711e-003
9.286476e-003
9.288908e-003
9.292259e-003
9.296779e-003
9.302682e-003
9.310107e-003
9.319084e-003
9.329505e-003
9.341116e-003
9.353533e-003
9.366274e-003
9.378818e-003
9.390666e-003
9.401401e-003
9.410734e-003
9.418519e-003
9.424754e-003
9.429548e-003
9.433090e-003
9.435601e-003
9.437309e-003
9.438422e-003
9.439114e-003
9.439523e-003
9.439751e-003
9.439868e-003
9.439921e-003
9.439941e-003
9.439944e-003
9.439940e-003
9.439935e-003
9.439930e-003
9.439927e-003
9.439924e-003
9.439922e-003
9.439921e-003
9.439921e-003
9.439920e-003
9.439920e-003
9.439920e-003
9.439920e-003
9.439920e-003
9.439920e-003
9.439920e-003
9.439920e-003
9.439920e-003
9.439920e-003
9.439920e-003
9.439920e-003
9.439921e-003
9.439921e-003
9.439923e-003
9.439925e-003
9.439928e-003
9.439932e-003
9.439938e-003
9.439946e-003
9.439953e-003
9.439956e-003
9.439946e-003
9.439908e-003
9.439815e-003
9.439620e-003
9.439254e-003
9.438613e-003
9.437551e-003
9.435876e-003
9.433347e-003
9.429688e-003
9.424601e-003
9.417809e-003
9.409099e-003
9.398383e-003
9.385745e-003
9.371479e-003
9.356097e-003
9.340295e-003
9.324898e-003
9.310768e-003
9.298719e-003
9.289435e-003
9.283409e-003
9.280919e-003
9.282018e-003
9.286549e-003
9.294174e-003
9.304402e-003
9.316625e-003
9.330152e-003
9.344243e-003
9.358142e-003
9.371108e-003
9.382440e-003
9.391505e-003
9.397764e-003
9.400796e-003
9.400333e-003
9.396290e-003
9.388796e-003
9.378229e-003
9.365221e-003
9.350655e-003
9.335624e-003
9.321362e-003
9.309133e-003
9.300106e-003
9.295212e-003
9.295020e-003
9.299647e-003
9.308729e-003
9.321461e-003
9.336715e-003
9.353206e-003
9.369681e-003
9.385084e-003
9.398662e-003
9.410008e-003
9.419030e-003
9.425875e-003
9.430841e-003
9.434290e-003
9.436584e-003
9.438043e-003
9.438929e-003
9.439439e-003
9.439716e-003
9.439855e-003
9.439918e-003
9.439940e-003
9.439944e-003