# vtk DataFile Version 3.0
vtk output
ASCII
DATASET STRUCTURED_POINTS
DIMENSIONS 100 100 1
SPACING 1 1 1
ORIGIN 0 0 0
POINT_DATA 10000
SCALARS SFBox_profile double
LOOKUP_TABLE default 
0.000000e+000
0.000000e+000
0.000000e+000
0.000000e+000
0.000000e+000
0.000000e+000
0.000000e+000
0.000000e+000
0.000000e+000
0.000000e+000
0.000000e+000
0.000000e+000
0.000000e+000
0.000000e+000
0.000000e+000
0.000000e+000
0.000000e+000
0.000000e+000
0.000000e+000
0.000000e+000
0.000000e+000
0.000000e+000
0.000000e+000
0.000000e+000
0.000000e+000
0.000000e+000
0.000000e+000
0.000000e+000
0.000000e+000
0.000000e+000
0.000000e+000
0.000000e+000
0.000000e+000
0.000000e+000
0.000000e+000
0.000000e+000
0.000000e+000
0.000000e+000
0.000000e+000
0.000000e+000
0.000000e+000
0.000000e+000
0.000000e+000
0.000000e+000
0.000000e+000
0.000000e+000
0.000000e+000
0.000000e+000
0.000000e+000
0.000000e+000
0.000000e+000
0.000000e+000
0.000000e+000
0.000000e+000
0.000000e+000
0.000000e+000
0.000000e+000
0.000000e+000
0.000000e+000
0.000000e+000
0.000000e+000
0.000000e+000
0.000000e+000
0.000000e+000
0.000000e+000
0.000000e+000
0.000000e+000
0.000000e+000
0.000000e+000
0.000000e+000
0.000000e+000
0.000000e+000
0.000000e+000
0.000000e+000
0.000000e+000
0.000000e+000
0.000000e+000
0.000000e+000
0.000000e+000
0.000000e+000
0.000000e+000
0.000000e+000
0.000000e+000
0.000000e+000
0.000000e+000
0.000000e+000
0.000000e+000
0.000000e+000
0.000000e+000
0.000000e+000
0.000000e+000
0.000000e+000
0.000000e+000
0.000000e+000
0.000000e+000
0.000000e+000
0.000000e+000
0.000000e+000
0.000000e+000
0.000000e+000
2.495527e-009
2.117648e-009
1.394388e-009
4.008257e-010
-7.329479e-010
-1.818935e-009
-2.628341e-009
-2.932151e-009
-2.558607e-009
-1.451776e-009
2.891051e-010
2.407245e-009
4.530931e-009
6.255268e-009
7.243338e-009
7.318350e-009
6.518233e-009
5.093245e-009
3.443281e-009
2.009748e-009
1.151383e-009
1.039324e-009
1.602017e-009
2.536300e-009
3.381565e-009
3.635328e-009
2.876660e-009
8.623624e-010
-2.429900e-009
-6.820398e-009
-1.199778e-008
-1.761574e-008
-2.338406e-008
-2.912602e-008
-3.478723e-008
-4.039749e-008
-4.600311e-008
-5.159577e-008
-5.706376e-008
-6.218263e-008
-6.664784e-008
-7.013781e-008
-7.238616e-008
-7.323985e-008
-7.268593e-008
-7.084116e-008
-6.791125e-008
-6.413567e-008
-5.973724e-008
-5.489167e-008
-4.972344e-008
-4.432401e-008
-3.878064e-008
-3.320105e-008
-2.772250e-008
-2.250112e-008
-1.768586e-008
-1.338793e-008
-9.658421e-009
-6.483459e-009
-3.799438e-009
-1.522771e-009
4.168780e-010
2.052339e-009
3.372579e-009
4.336264e-009
4.899561e-009
5.047078e-009
4.813552e-009
4.287442e-009
3.594401e-009
2.866267e-009
2.206809e-009
1.666840e-009
1.238051e-009
8.680842e-010
4.915167e-010
6.538332e-011
-4.041390e-010
-8.544423e-010
-1.182444e-009
-1.279350e-009
-1.072787e-009
-5.616402e-010
1.693814e-010
9.622321e-010
1.623194e-009
1.975459e-009
1.911056e-009
1.426030e-009
6.273314e-010
-2.919165e-010
-1.102637e-009
-1.601673e-009
-1.667740e-009
-1.295365e-009
-5.968683e-010
2.284167e-010
9.491794e-010
1.365977e-009
3.217489e-009
2.873727e-009
2.205834e-009
1.265830e-009
1.555123e-010
-9.642353e-010
-1.883803e-009
-2.379709e-009
-2.268715e-009
-1.466471e-009
-3.079833e-011
1.828445e-009
3.782269e-009
5.454240e-009
6.513556e-009
6.763125e-009
6.195339e-009
4.996142e-009
3.492768e-009
2.057665e-009
9.950919e-010
4.431012e-010
3.198903e-010
3.306890e-010
3.348740e-011
-1.055502e-009
-3.347193e-009
-7.088224e-009
-1.231715e-008
-1.887720e-008
-2.647689e-008
-3.477588e-008
-4.346707e-008
-5.232943e-008
-6.123758e-008
-7.012957e-008
-7.894843e-008
-8.758119e-008
-9.581892e-008
-1.033529e-007
-1.098093e-007
-1.148113e-007
-1.180492e-007
-1.193364e-007
-1.186372e-007
-1.160578e-007
-1.118109e-007
-1.061644e-007
-9.939413e-008
-9.175380e-008
-8.346667e-008
-7.473670e-008
-6.576789e-008
-5.677910e-008
-4.800496e-008
-3.967978e-008
-3.200968e-008
-2.514302e-008
-1.915112e-008
-1.402686e-008
-9.702888e-009
-6.083033e-009
-3.076209e-009
-6.208289e-010
1.308235e-009
2.711471e-009
3.589445e-009
3.969600e-009
3.923641e-009
3.567617e-009
3.043565e-009
2.488751e-009
2.003565e-009
1.629991e-009
1.349068e-009
1.098956e-009
8.077065e-010
4.292923e-010
-3.014304e-011
-5.057770e-010
-8.906274e-010
-1.070358e-009
-9.650210e-010
-5.634774e-010
6.192128e-011
7.667540e-010
1.370096e-009
1.704362e-009
1.664605e-009
1.242093e-009
5.313410e-010
-2.924552e-010
-1.019800e-009
-1.464166e-009
-1.513814e-009
-1.163274e-009
-5.153244e-010
2.472420e-010
9.121734e-010
1.296420e-009
4.133171e-009
3.879366e-009
3.365251e-009
2.595669e-009
1.613653e-009
5.221311e-010
-5.132083e-010
-1.287246e-009
-1.602361e-009
-1.326331e-009
-4.424084e-010
9.270285e-010
2.534812e-009
4.061030e-009
5.189782e-009
5.688337e-009
5.463966e-009
4.579364e-009
3.219745e-009
1.619678e-009
-2.931368e-011
-1.662779e-009
-3.393266e-009
-5.510441e-009
-8.430607e-009
-1.260988e-008
-1.844581e-008
-2.619475e-008
-3.592642e-008
-4.752471e-008
-6.072928e-008
-7.520025e-008
-9.058304e-008
-1.065523e-007
-1.228235e-007
-1.391324e-007
-1.551957e-007
-1.706705e-007
-1.851331e-007
-1.980869e-007
-2.090024e-007
-2.173789e-007
-2.228105e-007
-2.250401e-007
-2.239865e-007
-2.197408e-007
-2.125381e-007
-2.027147e-007
-1.906661e-007
-1.768155e-007
-1.615981e-007
-1.454572e-007
-1.288446e-007
-1.122162e-007
-9.601616e-008
-8.065021e-008
-6.645326e-008
-5.366164e-008
-4.239907e-008
-3.268177e-008
-2.444209e-008
-1.756340e-008
-1.191538e-008
-7.379292e-009
-3.856668e-009
-1.261387e-009
4.985555e-010
1.539579e-009
2.011402e-009
2.090375e-009
1.957652e-009
1.768956e-009
1.626509e-009
1.563718e-009
1.549155e-009
1.509808e-009
1.366734e-009
1.071610e-009
6.319553e-010
1.162741e-010
-3.631130e-010
-6.842862e-010
-7.559565e-010
-5.503988e-010
-1.178817e-010
4.228780e-010
9.161261e-010
1.213282e-009
1.216725e-009
9.098323e-010
3.639918e-010
-2.798904e-010
-8.502730e-010
-1.193129e-009
-1.215517e-009
-9.120852e-010
-3.669302e-010
2.696640e-010
8.229777e-010
1.142273e-009
4.401009e-009
4.324250e-009
4.125053e-009
3.736784e-009
3.111606e-009
2.259393e-009
1.269453e-009
3.043092e-010
-4.355582e-010
-7.666354e-010
-5.800360e-010
1.169223e-010
1.189522e-009
2.399518e-009
3.457280e-009
4.085928e-009
4.076855e-009
3.318553e-009
1.789142e-009
-4.852234e-010
-3.492662e-009
-7.298276e-009
-1.208647e-008
-1.816826e-008
-2.594963e-008
-3.586874e-008
-4.831864e-008
-6.357572e-008
-8.175106e-008
-1.027737e-007
-1.264051e-007
-1.522735e-007
-1.799145e-007
-2.088038e-007
-2.383714e-007
-2.680011e-007
-2.970196e-007
-3.246891e-007
-3.502145e-007
-3.727726e-007
-3.915622e-007
-4.058667e-007
-4.151170e-007
-4.189414e-007
-4.171932e-007
-4.099529e-007
-3.975091e-007
-3.803263e-007
-3.590080e-007
-3.342632e-007
-3.068778e-007
-2.776886e-007
-2.475554e-007
-2.173278e-007
-1.878044e-007
-1.596889e-007
-1.335498e-007
-1.097935e-007
-8.865597e-008
-7.021580e-008
-5.442518e-008
-4.114952e-008
-3.020569e-008
-2.138967e-008
-1.448928e-008
-9.283450e-009
-5.534616e-009
-2.982905e-009
-1.349828e-009
-3.546508e-010
2.589599e-010
6.934693e-010
1.074916e-009
1.445736e-009
1.776923e-009
1.997293e-009
2.031876e-009
1.838218e-009
1.429741e-009
8.792562e-010
3.019418e-010
-1.764856e-010
-4.560971e-010
-4.919891e-010
-3.072342e-010
1.445459e-011
3.540282e-010
5.925899e-010
6.463443e-010
4.906538e-010
1.663161e-010
-2.334310e-010
-5.910012e-010
-7.992153e-010
-7.925853e-010
-5.662579e-010
-1.774536e-010
2.706944e-010
6.580834e-010
8.810808e-010
3.223778e-009
3.431959e-009
3.752897e-009
4.027990e-009
4.089629e-009
3.819883e-009
3.194798e-009
2.299850e-009
1.311040e-009
4.467472e-010
-9.577565e-011
-2.009800e-010
1.241050e-010
7.389395e-010
1.389193e-009
1.748559e-009
1.467944e-009
2.161618e-010
-2.299790e-009
-6.339139e-009
-1.215207e-008
-2.001354e-008
-3.025183e-008
-4.325951e-008
-5.947943e-008
-7.936647e-008
-1.033322e-007
-1.316836e-007
-1.645687e-007
-2.019373e-007
-2.435211e-007
-2.888322e-007
-3.371759e-007
-3.876703e-007
-4.392708e-007
-4.907970e-007
-5.409636e-007
-5.884197e-007
-6.317977e-007
-6.697729e-007
-7.011296e-007
-7.248270e-007
-7.400583e-007
-7.462946e-007
-7.433106e-007
-7.311922e-007
-7.103265e-007
-6.813811e-007
-6.452732e-007
-6.031332e-007
-5.562596e-007
-5.060659e-007
-4.540170e-007
-4.015573e-007
-3.500366e-007
-3.006406e-007
-2.543361e-007
-2.118392e-007
-1.736103e-007
-1.398730e-007
-1.106524e-007
-8.582008e-008
-6.513706e-008
-4.828742e-008
-3.489934e-008
-2.455696e-008
-1.680918e-008
-1.118213e-008
-7.199895e-009
-4.413545e-009
-2.433899e-009
-9.601002e-010
2.041896e-010
1.152599e-009
1.896579e-009
2.399946e-009
2.618533e-009
2.534577e-009
2.177171e-009
1.624395e-009
9.882454e-010
3.883918e-010
-7.637671e-011
-3.501488e-010
-4.291256e-010
-3.561929e-010
-2.034470e-010
-4.863481e-011
4.728244e-011
5.520410e-011
-1.789916e-011
-1.357024e-010
-2.471239e-010
-3.038599e-010
-2.756034e-010
-1.588667e-010
2.253864e-011
2.248806e-010
3.972234e-010
4.957461e-010
2.270674e-010
8.181281e-010
1.850679e-009
3.064313e-009
4.154832e-009
4.851654e-009
4.984981e-009
4.525109e-009
3.583815e-009
2.377770e-009
1.163584e-009
1.607034e-010
-5.195705e-010
-9.235390e-010
-1.274238e-009
-1.959742e-009
-3.497698e-009
-6.487976e-009
-1.156639e-008
-1.936981e-008
-3.051763e-008
-4.560868e-008
-6.522714e-008
-8.994823e-008
-1.203345e-007
-1.569159e-007
-2.001507e-007
-2.503704e-007
-3.077144e-007
-3.720641e-007
-4.429861e-007
-5.196942e-007
-6.010367e-007
-6.855124e-007
-7.713164e-007
-8.564115e-007
-9.386186e-007
-1.015720e-006
-1.085562e-006
-1.146154e-006
-1.195752e-006
-1.232922e-006
-1.256588e-006
-1.266057e-006
-1.261039e-006
-1.241650e-006
-1.208414e-006
-1.162253e-006
-1.104468e-006
-1.036714e-006
-9.609350e-007
-8.792930e-007
-7.940652e-007
-7.075285e-007
-6.218418e-007
-5.389383e-007
-4.604427e-007
-3.876211e-007
-3.213665e-007
-2.622158e-007
-2.103882e-007
-1.658344e-007
-1.282866e-007
-9.730216e-008
-7.230159e-008
-5.260141e-008
-3.744862e-008
-2.605954e-008
-1.766378e-008
-1.154997e-008
-7.106583e-009
-3.850156e-009
-1.435118e-009
3.567001e-010
1.643801e-009
2.482759e-009
2.906559e-009
2.954842e-009
2.690387e-009
2.200678e-009
1.587617e-009
9.513265e-010
3.745283e-010
-8.749666e-011
-4.092381e-010
-5.904565e-010
-6.478344e-010
-6.063646e-010
-4.931718e-010
-3.347060e-010
-1.564650e-010
1.663313e-011
1.610381e-010
2.573073e-010
2.941694e-010
2.721715e-010
2.049140e-010
1.165878e-010
3.594775e-011
-1.165860e-011
-4.274817e-009
-3.256294e-009
-1.416933e-009
8.898182e-010
3.229125e-009
5.174801e-009
6.394670e-009
6.711955e-009
6.128698e-009
4.805597e-009
3.002061e-009
9.887425e-010
-1.049716e-009
-3.102487e-009
-5.394421e-009
-8.411624e-009
-1.288848e-008
-1.976178e-008
-3.010385e-008
-4.504927e-008
-6.572893e-008
-9.322079e-008
-1.285199e-007
-1.725235e-007
-2.260207e-007
-2.896752e-007
-3.639893e-007
-4.492435e-007
-5.454144e-007
-6.520807e-007
-7.683354e-007
-8.927233e-007
-1.023224e-006
-1.157289e-006
-1.291944e-006
-1.423933e-006
-1.549900e-006
-1.666574e-006
-1.770938e-006
-1.860355e-006
-1.932655e-006
-1.986161e-006
-2.019693e-006
-2.032540e-006
-2.024439e-006
-1.995563e-006
-1.946530e-006
-1.878420e-006
-1.792801e-006
-1.691728e-006
-1.577720e-006
-1.453683e-006
-1.322795e-006
-1.188350e-006
-1.053595e-006
-9.215613e-007
-7.949259e-007
-6.759116e-007
-5.662311e-007
-4.670734e-007
-3.791240e-007
-3.026065e-007
-2.373372e-007
-1.827864e-007
-1.381424e-007
-1.023819e-007
-7.434412e-008
-5.281000e-008
-3.658008e-008
-2.454442e-008
-1.573594e-008
-9.360880e-009
-4.803797e-009
-1.610113e-009
5.465327e-010
1.902266e-009
2.637003e-009
2.898271e-009
2.813100e-009
2.490502e-009
2.019659e-009
1.469054e-009
8.897293e-010
3.226098e-010
-1.930879e-010
-6.146328e-010
-8.971676e-010
-1.002416e-009
-9.120046e-010
-6.400273e-010
-2.388059e-010
2.064534e-010
5.946868e-010
8.338814e-010
8.666568e-010
6.882178e-010
3.501866e-010
-5.197675e-011
-4.049941e-010
-6.097755e-010
-9.228066e-009
-7.833247e-009
-5.269662e-009
-1.950125e-009
1.597311e-009
4.820032e-009
7.233579e-009
8.497998e-009
8.461473e-009
7.160118e-009
4.770653e-009
1.521838e-009
-2.420873e-009
-7.076806e-009
-1.275484e-008
-2.012131e-008
-3.021804e-008
-4.442734e-008
-6.439186e-008
-9.190522e-008
-1.287938e-007
-1.768087e-007
-2.375389e-007
-3.123496e-007
-4.023354e-007
-5.082761e-007
-6.305777e-007
-7.691900e-007
-9.235020e-007
-1.092230e-006
-1.273327e-006
-1.463937e-006
-1.660439e-006
-1.858577e-006
-2.053682e-006
-2.240967e-006
-2.415834e-006
-2.574168e-006
-2.712550e-006
-2.828371e-006
-2.919827e-006
-2.985821e-006
-3.025807e-006
-3.039612e-006
-3.027305e-006
-2.989121e-006
-2.925485e-006
-2.837098e-006
-2.725073e-006
-2.591083e-006
-2.437460e-006
-2.267228e-006
-2.084048e-006
-1.892077e-006
-1.695757e-006
-1.499568e-006
-1.307782e-006
-1.124243e-006
-9.521912e-007
-7.941547e-007
-6.518892e-007
-5.263775e-007
-4.178703e-007
-3.259637e-007
-2.497047e-007
-1.877192e-007
-1.383521e-007
-9.981110e-008
-7.029867e-008
-4.812268e-008
-3.177344e-008
-1.996396e-008
-1.163548e-008
-5.937080e-009
-2.191830e-009
1.380686e-010
1.478229e-009
2.157970e-009
2.417877e-009
2.415563e-009
2.236580e-009
1.914464e-009
1.458848e-009
8.855566e-010
2.398178e-010
-3.955687e-010
-9.109701e-010
-1.197063e-009
-1.179664e-009
-8.499073e-010
-2.779400e-010
3.969412e-010
9.991702e-010
1.364306e-009
1.386902e-009
1.053707e-009
4.509477e-010
-2.577340e-010
-8.769414e-010
-1.235425e-009
-1.304189e-008
-1.144365e-008
-8.467406e-009
-4.525246e-009
-1.669699e-010
3.993388e-009
7.360413e-009
9.435570e-009
9.874565e-009
8.507991e-009
5.313923e-009
3.394414e-010
-6.420990e-009
-1.517143e-008
-2.645785e-008
-4.127964e-008
-6.114439e-008
-8.805151e-008
-1.244041e-007
-1.728629e-007
-2.361648e-007
-3.169328e-007
-4.174977e-007
-5.397421e-007
-6.849671e-007
-8.537698e-007
-1.045922e-006
-1.260243e-006
-1.494486e-006
-1.745247e-006
-2.007958e-006
-2.276986e-006
-2.545880e-006
-2.807753e-006
-3.055789e-006
-3.283789e-006
-3.486683e-006
-3.660907e-006
-3.804586e-006
-3.917455e-006
-4.000564e-006
-4.055790e-006
-4.085269e-006
-4.090854e-006
-4.073700e-006
-4.034054e-006
-3.971289e-006
-3.884162e-006
-3.771241e-006
-3.631416e-006
-3.464393e-006
-3.271081e-006
-3.053811e-006
-2.816351e-006
-2.563728e-006
-2.301894e-006
-2.037284e-006
-1.776350e-006
-1.525107e-006
-1.288764e-006
-1.071447e-006
-8.760488e-007
-7.041843e-007
-5.562607e-007
-4.316279e-007
-3.287921e-007
-2.456620e-007
-1.798004e-007
-1.286531e-007
-8.973301e-008
-6.074939e-008
-3.967697e-008
-2.477640e-008
-1.458062e-008
-7.866453e-009
-3.627140e-009
-1.054660e-009
4.680047e-010
1.371836e-009
1.914237e-009
2.207341e-009
2.264259e-009
2.057341e-009
1.575764e-009
8.673303e-010
5.231898e-011
-6.949163e-010
-1.190732e-009
-1.298507e-009
-9.770467e-010
-3.033551e-010
5.401955e-010
1.312851e-009
1.783726e-009
1.800796e-009
1.338981e-009
5.115029e-010
-4.600867e-010
-1.308977e-009
-1.800507e-009
-1.400410e-008
-1.249426e-008
-9.643655e-009
-5.782693e-009
-1.384280e-009
2.970285e-009
6.641846e-009
8.995055e-009
9.458017e-009
7.560940e-009
2.933925e-009
-4.750143e-009
-1.588952e-008
-3.111088e-008
-5.144178e-008
-7.846128e-008
-1.143907e-007
-1.620960e-007
-2.249874e-007
-3.068229e-007
-4.114343e-007
-5.424074e-007
-7.027443e-007
-8.945335e-007
-1.118641e-006
-1.374431e-006
-1.659534e-006
-1.969674e-006
-2.298600e-006
-2.638172e-006
-2.978649e-006
-3.309225e-006
-3.618799e-006
-3.896942e-006
-4.134942e-006
-4.326785e-006
-4.469888e-006
-4.565454e-006
-4.618324e-006
-4.636329e-006
-4.629197e-006
-4.607177e-006
-4.579571e-006
-4.553421e-006
-4.532529e-006
-4.516969e-006
-4.503154e-006
-4.484436e-006
-4.452143e-006
-4.396886e-006
-4.309935e-006
-4.184479e-006
-4.016581e-006
-3.805735e-006
-3.554950e-006
-3.270412e-006
-2.960780e-006
-2.636266e-006
-2.307620e-006
-1.985168e-006
-1.678007e-006
-1.393433e-006
-1.136630e-006
-9.106038e-007
-7.163482e-007
-5.531546e-007
-4.190228e-007
-3.110945e-007
-2.260560e-007
-1.604714e-007
-1.110213e-007
-7.465037e-008
-4.863598e-008
-3.060532e-008
-1.852695e-008
-1.069872e-008
-5.742224e-009
-2.602202e-009
-5.409072e-010
8.857105e-010
1.878683e-009
2.473174e-009
2.630936e-009
2.328898e-009
1.622731e-009
6.695424e-010
-2.948819e-010
-1.015237e-009
-1.291674e-009
-1.044685e-009
-3.467914e-010
5.916427e-010
1.480393e-009
2.034651e-009
2.061683e-009
1.521764e-009
5.437785e-010
-6.102161e-010
-1.621252e-009
-2.207511e-009
-1.080075e-008
-9.754095e-009
-7.729578e-009
-4.887965e-009
-1.517038e-009
1.939208e-009
4.873719e-009
6.539286e-009
6.094693e-009
2.654057e-009
-4.688655e-009
-1.688622e-008
-3.503032e-008
-6.050400e-008
-9.516780e-008
-1.415351e-007
-2.028846e-007
-2.832627e-007
-3.873421e-007
-5.201259e-007
-6.865095e-007
-8.907282e-007
-1.135733e-006
-1.422543e-006
-1.749624e-006
-2.112357e-006
-2.502664e-006
-2.908879e-006
-3.315960e-006
-3.706121e-006
-4.059936e-006
-4.357903e-006
-4.582358e-006
-4.719553e-006
-4.761596e-006
-4.707974e-006
-4.566342e-006
-4.352384e-006
-4.088668e-006
-3.802589e-006
-3.523613e-006
-3.280182e-006
-3.096647e-006
-2.990644e-006
-2.971196e-006
-3.037794e-006
-3.180525e-006
-3.381246e-006
-3.615629e-006
-3.855846e-006
-4.073578e-006
-4.242963e-006
-4.343163e-006
-4.360233e-006
-4.288101e-006
-4.128596e-006
-3.890584e-006
-3.588413e-006
-3.239929e-006
-2.864366e-006
-2.480405e-006
-2.104597e-006
-1.750309e-006
-1.427201e-006
-1.141201e-006
-8.948689e-007
-6.880105e-007
-5.184006e-007
-3.824982e-007
-2.760661e-007
-1.946485e-007
-1.338988e-007
-8.977618e-008
-5.864852e-008
-3.733931e-008
-2.315048e-008
-1.387683e-008
-7.812998e-009
-3.743012e-009
-8.996425e-010
1.113924e-009
2.436103e-009
3.076272e-009
3.036435e-009
2.399003e-009
1.361985e-009
2.169971e-010
-7.180696e-010
-1.186566e-009
-1.069764e-009
-4.254939e-010
5.260462e-010
1.466961e-009
2.077910e-009
2.136512e-009
1.587235e-009
5.606949e-010
-6.640604e-010
-1.742929e-009
-2.370192e-009
-2.993515e-009
-2.803766e-009
-2.351253e-009
-1.552800e-009
-4.203796e-010
8.247256e-010
1.663725e-009
1.241548e-009
-1.619155e-009
-8.369880e-009
-2.068860e-008
-4.047098e-008
-6.988801e-008
-1.115146e-007
-1.685041e-007
-2.447566e-007
-3.450109e-007
-4.747868e-007
-6.401173e-007
-8.470327e-007
-1.100794e-006
-1.404903e-006
-1.759964e-006
-2.162488e-006
-2.603789e-006
-3.069139e-006
-3.537383e-006
-3.981227e-006
-4.368351e-006
-4.663477e-006
-4.831329e-006
-4.840303e-006
-4.666455e-006
-4.297302e-006
-3.734834e-006
-2.997216e-006
-2.118777e-006
-1.148152e-006
-1.447223e-007
8.262547e-007
1.699248e-006
2.414142e-006
2.921416e-006
3.186316e-006
3.191699e-006
2.939367e-006
2.449822e-006
1.760490e-006
9.225295e-007
-3.539799e-009
-9.530494e-007
-1.862753e-006
-2.676192e-006
-3.348256e-006
-3.848400e-006
-4.162165e-006
-4.290877e-006
-4.249682e-006
-4.064312e-006
-3.767136e-006
-3.393093e-006
-2.976058e-006
-2.546024e-006
-2.127300e-006
-1.737742e-006
-1.388851e-006
-1.086522e-006
-8.321495e-007
-6.238510e-007
-4.576144e-007
-3.282535e-007
-2.301275e-007
-1.576337e-007
-1.055196e-007
-6.906836e-008
-4.420563e-008
-2.755911e-008
-1.648120e-008
-9.032828e-009
-3.920926e-009
-3.875651e-010
1.940279e-009
3.218548e-009
3.541758e-009
3.056924e-009
2.015530e-009
7.594501e-010
-3.452979e-010
-9.988927e-010
-1.048288e-009
-5.286837e-010
3.499846e-010
1.269194e-009
1.901068e-009
2.010281e-009
1.527123e-009
5.691085e-010
-5.954067e-010
-1.630106e-009
-2.234167e-009
8.685998e-009
7.683076e-009
5.912675e-009
3.737701e-009
1.462377e-009
-8.820405e-010
-3.725372e-009
-8.079145e-009
-1.557415e-008
-2.842933e-008
-4.939018e-008
-8.168455e-008
-1.290340e-007
-1.957321e-007
-2.867633e-007
-4.078962e-007
-5.656548e-007
-7.670580e-007
-1.019026e-006
-1.327382e-006
-1.695430e-006
-2.122165e-006
-2.600255e-006
-3.114017e-006
-3.637744e-006
-4.134756e-006
-4.557621e-006
-4.849913e-006
-4.949735e-006
-4.794976e-006
-4.329944e-006
-3.512673e-006
-2.321922e-006
-7.627589e-007
1.130291e-006
3.293241e-006
5.635986e-006
8.048646e-006
1.041004e-005
1.259715e-005
1.449428e-005
1.600112e-005
1.703883e-005
1.755428e-005
1.752246e-005
1.694734e-005
1.586155e-005
1.432478e-005
1.242082e-005
1.025291e-005
7.937288e-006
5.595210e-006
3.343870e-006
1.287335e-006
-4.914105e-007
-1.936142e-006
-3.020035e-006
-3.744948e-006
-4.137656e-006
-4.243790e-006
-4.120581e-006
-3.829535e-006
-3.430037e-006
-2.974551e-006
-2.505701e-006
-2.055157e-006
-1.644011e-006
-1.284150e-006
-9.801577e-007
-7.313234e-007
-5.334711e-007
-3.804565e-007
-2.652870e-007
-1.809004e-007
-1.206704e-007
-7.871604e-008
-5.007321e-008
-3.076573e-008
-1.779461e-008
-9.054447e-009
-3.187095e-009
6.089472e-010
2.785617e-009
3.635319e-009
3.432917e-009
2.509735e-009
1.256588e-009
7.092172e-011
-7.232142e-010
-9.485348e-010
-6.123913e-010
1.063561e-010
9.194349e-010
1.521984e-009
1.687888e-009
1.338586e-009
5.647251e-010
-4.052079e-010
-1.278684e-009
-1.791808e-009
2.231677e-008
1.991164e-008
1.548579e-008
9.654653e-009
2.995876e-009
-4.269756e-009
-1.257555e-008
-2.322542e-008
-3.850062e-008
-6.166358e-008
-9.689582e-008
-1.492203e-007
-2.244489e-007
-3.291648e-007
-4.706981e-007
-6.570022e-007
-8.962903e-007
-1.196268e-006
-1.562812e-006
-1.997982e-006
-2.497391e-006
-3.047048e-006
-3.620048e-006
-4.173614e-006
-4.647229e-006
-4.962641e-006
-5.026503e-006
-4.736120e-006
-3.988377e-006
-2.691219e-006
-7.764673e-007
1.787891e-006
4.988034e-006
8.759261e-006
1.298694e-005
1.751380e-005
2.215270e-005
2.670291e-005
3.096701e-005
3.476586e-005
3.794924e-005
4.040131e-005
4.204122e-005
4.282052e-005
4.271955e-005
4.174487e-005
3.992891e-005
3.733190e-005
3.404475e-005
3.019099e-005
2.592534e-005
2.142781e-005
1.689269e-005
1.251368e-005
8.467445e-006
4.898204e-006
1.906218e-006
-4.581210e-007
-2.193833e-006
-3.343103e-006
-3.980781e-006
-4.201732e-006
-4.108178e-006
-3.798806e-006
-3.360776e-006
-2.865023e-006
-2.364632e-006
-1.895640e-006
-1.479405e-006
-1.125734e-006
-8.361071e-007
-6.065604e-007
-4.300173e-007
-2.980220e-007
-2.019372e-007
-1.337123e-007
-8.632744e-008
-5.400426e-008
-3.224493e-008
-1.774526e-008
-8.218303e-009
-2.164215e-009
1.375867e-009
3.044674e-009
3.341540e-009
2.725059e-009
1.644522e-009
5.154246e-010
-3.341130e-010
-7.155550e-010
-6.055300e-010
-1.314268e-010
4.814618e-010
9.864692e-010
1.193235e-009
1.023760e-009
5.310124e-010
-1.240145e-010
-7.282346e-010
-1.087018e-009
3.505727e-008
3.120302e-008
2.397012e-008
1.411669e-008
2.341114e-009
-1.113369e-008
-2.696358e-008
-4.700062e-008
-7.448171e-008
-1.140840e-007
-1.718736e-007
-2.551884e-007
-3.724815e-007
-5.331087e-007
-7.469835e-007
-1.023947e-006
-1.372642e-006
-1.798660e-006
-2.301755e-006
-2.872050e-006
-3.485383e-006
-4.098207e-006
-4.642896e-006
-5.024568e-006
-5.120844e-006
-4.785883e-006
-3.859715e-006
-2.183079e-006
3.830850e-007
3.935654e-006
8.508168e-006
1.405455e-005
2.044166e-005
2.745367e-005
3.480921e-005
4.218960e-005
4.927380e-005
5.577378e-005
6.146324e-005
6.619398e-005
6.989663e-005
7.256659e-005
7.423927e-005
7.496163e-005
7.476774e-005
7.366473e-005
7.163310e-005
6.864086e-005
6.466788e-005
5.973352e-005
5.392009e-005
4.738514e-005
4.035907e-005
3.312741e-005
2.600160e-005
1.928406e-005
1.323470e-005
8.044871e-006
3.822908e-006
5.924250e-007
-1.698053e-006
-3.157349e-006
-3.929956e-006
-4.174434e-006
-4.045037e-006
-3.678436e-006
-3.186081e-006
-2.651686e-006
-2.132615e-006
-1.663731e-006
-1.262351e-006
-9.332588e-007
-6.731257e-007
-4.740327e-007
-3.260460e-007
-2.189531e-007
-1.433262e-007
-9.108560e-008
-5.570890e-008
-3.220110e-008
-1.691529e-008
-7.293529e-009
-1.585037e-009
1.413879e-009
2.567206e-009
2.539000e-009
1.866567e-009
9.815052e-010
2.009898e-010
-2.871096e-010
-4.267954e-010
-2.749390e-010
3.831335e-011
3.605311e-010
5.660740e-010
5.906052e-010
4.430431e-010
1.937793e-010
-5.522279e-011
-2.080317e-010
4.362971e-008
3.842763e-008
2.848272e-008
1.449278e-008
-3.001409e-009
-2.410672e-008
-5.007081e-008
-8.369405e-008
-1.296040e-007
-1.943691e-007
-2.864546e-007
-4.160271e-007
-5.945882e-007
-8.343587e-007
-1.147249e-006
-1.543162e-006
-2.027326e-006
-2.596345e-006
-3.232813e-006
-3.898606e-006
-4.527438e-006
-5.017856e-006
-5.228448e-006
-4.977542e-006
-4.049728e-006
-2.211105e-006
7.660647e-007
5.070459e-006
1.081402e-005
1.799530e-005
2.647143e-005
3.594661e-005
4.598384e-005
5.604300e-005
6.554299e-005
7.393973e-005
8.080629e-005
8.589904e-005
8.919439e-005
9.088647e-005
9.134380e-005
9.103244e-005
9.042064e-005
8.988411e-005
8.963092e-005
8.966092e-005
8.976767e-005
8.958227e-005
8.865053e-005
8.652779e-005
8.287246e-005
7.751916e-005
7.051735e-005
6.212883e-005
5.278698e-005
4.302850e-005
3.341330e-005
2.444895e-005
1.653270e-005
9.918465e-006
4.710252e-006
8.777402e-007
-1.712941e-006
-3.261603e-006
-3.996944e-006
-4.145492e-006
-3.909484e-006
-3.454308e-006
-2.904366e-006
-2.345181e-006
-1.829310e-006
-1.383863e-006
-1.018015e-006
-7.295047e-007
-5.097215e-007
-3.473256e-007
-2.306026e-007
-1.488270e-007
-9.291569e-008
-5.560786e-008
-3.136106e-008
-1.609848e-008
-6.904920e-009
-1.733634e-009
8.405094e-010
1.808246e-009
1.856091e-009
1.451695e-009
8.998108e-010
3.823811e-010
-8.636112e-012
-2.424274e-010
-3.249571e-010
-2.808609e-010
-1.424628e-010
5.515215e-011
2.756939e-010
4.828643e-010
6.431542e-010
7.303637e-010
4.487749e-008
3.850165e-008
2.603636e-008
7.823335e-009
-1.615980e-008
-4.683150e-008
-8.655978e-008
-1.396487e-007
-2.126857e-007
-3.146955e-007
-4.570535e-007
-6.530932e-007
-9.172857e-007
-1.263783e-006
-1.704011e-006
-2.242906e-006
-2.873398e-006
-3.568871e-006
-4.273739e-006
-4.892912e-006
-5.281841e-006
-5.239845e-006
-4.510263e-006
-2.791360e-006
2.386372e-007
4.880676e-006
1.135942e-005
1.975843e-005
2.995560e-005
4.157255e-005
5.395357e-005
6.618890e-005
7.719145e-005
8.582595e-005
9.107665e-005
9.222635e-005
8.901092e-005
8.171338e-005
7.117125e-005
5.868879e-005
4.586641e-005
3.437689e-005
2.572735e-005
2.104565e-005
2.092294e-005
2.533291e-005
3.363750e-005
4.467767e-005
5.693827e-005
6.876470e-005
7.859955e-005
8.520059e-005
8.780220e-005
8.619192e-005
8.069170e-005
7.205426e-005
6.130272e-005
4.955057e-005
3.783808e-005
2.701104e-005
1.765409e-005
1.007739e-005
4.345740e-006
3.344381e-007
-2.204202e-006
-3.576925e-006
-4.097095e-006
-4.048000e-006
-3.662253e-006
-3.114827e-006
-2.525933e-006
-1.969660e-006
-1.484903e-006
-1.086122e-006
-7.724820e-007
-5.348214e-007
-3.604772e-007
-2.362965e-007
-1.502907e-007
-9.236208e-008
-5.445963e-008
-3.042564e-008
-1.570953e-008
-7.053550e-009
-2.203703e-009
3.362842e-010
1.508767e-009
1.871605e-009
1.739214e-009
1.295918e-009
6.778107e-010
1.880762e-011
-5.393028e-010
-8.657670e-010
-8.746134e-010
-5.555000e-010
1.411562e-011
6.838832e-010
1.270496e-009
1.610814e-009
3.622195e-008
2.878437e-008
1.382407e-008
-9.050510e-009
-4.094504e-008
-8.421023e-008
-1.430139e-007
-2.238629e-007
-3.359781e-007
-4.914141e-007
-7.047812e-007
-9.923657e-007
-1.370340e-006
-1.851630e-006
-2.440906e-006
-3.127135e-006
-3.873332e-006
-4.603665e-006
-5.188970e-006
-5.433103e-006
-5.064121e-006
-3.735760e-006
-1.045550e-006
3.424542e-006
1.004121e-005
1.902729e-005
3.035081e-005
4.361077e-005
5.794344e-005
7.197906e-005
8.388052e-005
9.148741e-005
9.257039e-005
8.517247e-005
6.798301e-005
4.066770e-005
4.075462e-006
-3.973640e-005
-8.767610e-005
-1.359611e-004
-1.805638e-004
-2.176761e-004
-2.441181e-004
-2.576447e-004
-2.571365e-004
-2.426826e-004
-2.155669e-004
-1.781614e-004
-1.337186e-004
-8.605652e-005
-3.915131e-005
3.318947e-006
3.840645e-005
6.421934e-005
8.007466e-005
8.645097e-005
8.476155e-005
7.701065e-005
6.541538e-005
5.207070e-005
3.871002e-005
2.658076e-005
1.642540e-005
8.540634e-006
2.881248e-006
-8.218097e-007
-2.951895e-006
-3.919328e-006
-4.101636e-006
-3.810389e-006
-3.279745e-006
-2.670021e-006
-2.079783e-006
-1.561063e-006
-1.134101e-006
-7.996128e-007
-5.478995e-007
-3.649642e-007
-2.361953e-007
-1.483035e-007
-9.012903e-008
-5.279792e-008
-2.955402e-008
-1.546283e-008
-7.086857e-009
-2.171728e-009
6.479988e-010
2.122249e-009
2.631762e-009
2.392997e-009
1.603586e-009
5.152417e-010
-5.659613e-010
-1.335285e-009
-1.570286e-009
-1.200700e-009
-3.366477e-010
7.596059e-010
1.752392e-009
2.337300e-009
1.586121e-008
7.230704e-009
-1.071664e-008
-3.954406e-008
-8.205038e-008
-1.427513e-007
-2.284134e-007
-3.485409e-007