# vtk DataFile Version 3.0
vtk output
ASCII
DATASET STRUCTURED_POINTS
DIMENSIONS 100 100 1
SPACING 1 1 1
ORIGIN 0 0 0
POINT_DATA 10000
SCALARS SFBox_profile double
LOOKUP_TABLE default 
0.000000e+000
0.000000e+000
0.000000e+000
0.000000e+000
0.000000e+000
0.000000e+000
0.000000e+000
0.000000e+000
0.000000e+000
0.000000e+000
0.000000e+000
0.000000e+000
0.000000e+000
0.000000e+000
0.000000e+000
0.000000e+000
0.000000e+000
0.000000e+000
0.000000e+000
0.000000e+000
0.000000e+000
0.000000e+000
0.000000e+000
0.000000e+000
0.000000e+000
0.000000e+000
0.000000e+000
0.000000e+000
0.000000e+000
0.000000e+000
0.000000e+000
0.000000e+000
0.000000e+000
0.000000e+000
0.000000e+000
0.000000e+000
0.000000e+000
0.000000e+000
0.000000e+000
0.000000e+000
0.000000e+000
0.000000e+000
0.000000e+000
0.000000e+000
0.000000e+000
0.000000e+000
0.000000e+000
0.000000e+000
0.000000e+000
0.000000e+000
0.000000e+000
0.000000e+000
0.000000e+000
0.000000e+000
0.000000e+000
0.000000e+000
0.000000e+000
0.000000e+000
0.000000e+000
0.000000e+000
0.000000e+000
0.000000e+000
0.000000e+000
0.000000e+000
0.000000e+000
0.000000e+000
0.000000e+000
0.000000e+000
0.000000e+000
0.000000e+000
0.000000e+000
0.000000e+000
0.000000e+000
0.000000e+000
0.000000e+000
0.000000e+000
0.000000e+000
0.000000e+000
0.000000e+000
0.000000e+000
0.000000e+000
0.000000e+000
0.000000e+000
0.000000e+000
0.000000e+000
0.000000e+000
0.000000e+000
0.000000e+000
0.000000e+000
0.000000e+000
0.000000e+000
0.000000e+000
0.000000e+000
0.000000e+000
0.000000e+000
0.000000e+000
0.000000e+000
0.000000e+000
0.000000e+000
0.000000e+000
9.756886e-011
6.766919e-011
2.056876e-011
-2.168296e-011
-3.597002e-011
-1.100407e-011
4.150675e-011
8.834212e-011
9.425303e-011
4.868403e-011
-2.289723e-011
-7.643872e-011
-8.246244e-011
-4.523048e-011
8.159536e-012
5.419801e-011
8.727563e-011
1.125200e-010
1.329865e-010
1.483017e-010
1.618049e-010
1.816963e-010
2.133132e-010
2.547293e-010
3.031313e-010
3.623825e-010
4.392712e-010
5.325559e-010
6.307938e-010
7.237726e-010
8.131595e-010
9.080929e-010
1.011385e-009
1.114497e-009
1.207554e-009
1.290826e-009
1.372879e-009
1.458575e-009
1.542754e-009
1.616910e-009
1.679176e-009
1.734909e-009
1.788310e-009
1.836629e-009
1.873808e-009
1.897805e-009
1.912041e-009
1.919983e-009
1.920498e-009
1.909570e-009
1.885292e-009
1.849502e-009
1.804631e-009
1.750477e-009
1.684930e-009
1.607105e-009
1.518631e-009
1.421858e-009
1.317821e-009
1.206588e-009
1.089204e-009
9.685225e-010
8.480242e-010
7.303816e-010
6.175319e-010
5.118084e-010
4.162959e-010
3.337539e-010
2.653650e-010
2.106763e-010
1.684291e-010
1.369171e-010
1.134789e-010
9.425251e-011
7.523786e-011
5.409183e-011
3.114302e-011
8.981294e-012
-8.706101e-012
-1.833339e-011
-1.774489e-011
-7.744991e-012
7.120774e-012
1.985209e-011
2.429823e-011
1.855937e-011
6.144629e-012
-6.052015e-012
-1.185561e-011
-9.551675e-012
-2.766135e-012
2.411470e-012
2.179049e-012
-2.171460e-012
-5.921939e-012
-5.524883e-012
-1.622737e-012
2.345179e-012
4.018543e-012
4.004628e-012
-5.462912e-011
-1.518025e-011
3.848483e-011
7.225187e-011
6.564059e-011
2.512898e-011
-2.187772e-011
-4.788356e-011
-4.364246e-011
-1.930060e-011
9.453405e-012
3.434517e-011
5.499028e-011
7.131856e-011
8.023271e-011
8.029990e-011
7.655330e-011
7.822929e-011
9.260389e-011
1.225511e-010
1.687665e-010
2.311787e-010
3.074077e-010
3.926251e-010
4.834926e-010
5.813237e-010
6.889121e-010
8.042438e-010
9.198932e-010
1.029971e-009
1.135890e-009
1.243097e-009
1.352754e-009
1.459155e-009
1.556124e-009
1.643900e-009
1.727719e-009
1.810294e-009
1.887995e-009
1.955172e-009
2.010594e-009
2.057906e-009
2.100172e-009
2.135861e-009
2.161046e-009
2.174392e-009
2.178461e-009
2.176164e-009
2.167349e-009
2.149681e-009
2.122095e-009
2.086081e-009
2.043446e-009
1.993873e-009
1.935415e-009
1.866938e-009
1.789205e-009
1.703521e-009
1.610131e-009
1.508518e-009
1.398966e-009
1.283228e-009
1.163555e-009
1.041555e-009
9.183279e-010
7.954572e-010
6.753930e-010
5.607362e-010
4.534593e-010
3.550778e-010
2.673919e-010
1.926195e-010
1.325708e-010
8.774812e-011
5.722337e-011
3.902474e-011
3.027515e-011
2.713934e-011
2.540682e-011
2.194282e-011
1.596432e-011
8.942464e-012
3.192549e-012
3.251247e-013
4.964365e-013
2.493081e-012
4.341437e-012
4.308409e-012
1.961606e-012
-1.509157e-012
-4.221470e-012
-5.086733e-012
-4.456881e-012
-3.384075e-012
-2.460161e-012
-1.502827e-012
-1.856570e-013
1.368971e-012
2.692971e-012
3.414981e-012
-1.104382e-010
-4.715953e-011
4.431999e-011
1.106987e-010
1.095940e-010
3.730955e-011
-6.447090e-011
-1.330721e-010
-1.263760e-010
-5.035715e-011
4.924056e-011
1.226452e-010
1.482771e-010
1.375690e-010
1.159971e-010
1.028209e-010
1.058679e-010
1.282786e-010
1.741480e-010
2.467560e-010
3.442750e-010
4.598494e-010
5.861617e-010
7.191751e-010
8.575908e-010
9.998841e-010
1.142821e-009
1.282675e-009
1.417024e-009
1.544881e-009
1.665371e-009
1.776820e-009
1.877247e-009
1.965368e-009
2.040920e-009
2.104207e-009
2.155582e-009
2.195239e-009
2.223194e-009
2.239493e-009
2.244779e-009
2.240694e-009
2.229386e-009
2.212445e-009
2.190592e-009
2.164677e-009
2.136668e-009
2.109159e-009
2.083931e-009
2.061459e-009
2.041828e-009
2.025506e-009
2.012666e-009
2.002021e-009
1.990866e-009
1.976340e-009
1.956225e-009
1.928444e-009
1.890342e-009
1.839035e-009
1.772521e-009
1.690220e-009
1.592506e-009
1.480130e-009
1.354354e-009
1.217463e-009
1.072797e-009
9.241573e-010
7.753146e-010
6.301126e-010
4.928620e-010
3.683296e-010
2.611631e-010
1.751602e-010
1.126526e-010
7.378944e-011
5.561943e-011
5.167765e-011
5.312141e-011
5.151553e-011
4.194095e-011
2.467202e-011
4.611168e-012
-1.117635e-011
-1.692943e-011
-1.143944e-011
6.564736e-013
1.106511e-011
1.296629e-011
5.701404e-012
-4.915410e-012
-1.132076e-011
-1.010409e-011
-4.018117e-012
1.351723e-012
2.738849e-012
1.302338e-012
2.670885e-013
1.152294e-012
2.602033e-012
7.347417e-011
4.784388e-011
1.757258e-011
2.442976e-012
1.121960e-012
-4.219346e-012
-2.370240e-011
-4.362377e-011
-3.826070e-011
1.819707e-012
5.635183e-011
9.321195e-011
9.964371e-011
9.436604e-011
1.094776e-010
1.632566e-010
2.513491e-010
3.600228e-010
4.817447e-010
6.165487e-010
7.636416e-010
9.178966e-010
1.074969e-009
1.235119e-009
1.398673e-009
1.559573e-009
1.707048e-009
1.833901e-009
1.940052e-009
2.026380e-009
2.087561e-009
2.114251e-009
2.102039e-009
2.055252e-009
1.980751e-009
1.880302e-009
1.751422e-009
1.594635e-009
1.416889e-009
1.227090e-009
1.030534e-009
8.295454e-010
6.284158e-010
4.353778e-010
2.594359e-010
1.069280e-010
-1.796016e-011
-1.105638e-010
-1.651956e-010
-1.772461e-010
-1.449938e-010
-6.938159e-011
4.696037e-011
1.997814e-010
3.826304e-010
5.867767e-010
8.018248e-010
1.016407e-009
1.218758e-009
1.397493e-009
1.542598e-009
1.646284e-009
1.703520e-009
1.712432e-009
1.674557e-009
1.594671e-009
1.480044e-009
1.339412e-009
1.182032e-009
1.016865e-009
8.518311e-010
6.933227e-010
5.462249e-010
4.144153e-010
3.012546e-010
2.095056e-010
1.405634e-010
9.348480e-011
6.458376e-011
4.803269e-011
3.732922e-011
2.715515e-011
1.508024e-011
2.387475e-012
-6.882869e-012
-8.924426e-012
-3.655306e-012
4.194181e-012
8.079176e-012
4.772102e-012
-2.915294e-012
-8.650661e-012
-8.219517e-012
-2.968704e-012
2.117071e-012
3.438305e-012
1.699521e-012
1.298755e-013
5.447739e-013
1.763308e-012
2.954434e-010
1.596601e-010
-2.477984e-011
-1.461022e-010
-1.451299e-010
-4.897051e-011
6.112252e-011
1.161377e-010
1.034399e-010
5.836507e-011
2.340273e-011
1.903973e-011
4.736449e-011
1.106572e-010
2.169069e-010
3.683268e-010
5.523447e-010
7.486946e-010
9.435038e-010
1.133647e-009
1.319615e-009
1.499129e-009
1.668165e-009
1.822561e-009
1.953672e-009
2.044083e-009
2.072955e-009
2.027398e-009
1.905671e-009
1.707489e-009
1.424627e-009
1.045612e-009
5.691545e-010
8.435645e-012
-6.198270e-010
-1.307240e-009
-2.051441e-009
-2.843917e-009
-3.664825e-009
-4.491113e-009
-5.306276e-009
-6.099215e-009
-6.855294e-009
-7.552367e-009
-8.166354e-009
-8.678193e-009
-9.073897e-009
-9.339884e-009
-9.461330e-009
-9.425854e-009
-9.227725e-009
-8.868322e-009
-8.354195e-009
-7.696371e-009
-6.911699e-009
-6.024043e-009
-5.063587e-009
-4.064702e-009
-3.063624e-009
-2.096545e-009
-1.197795e-009
-3.976941e-010
2.799469e-010
8.200739e-010
1.217488e-009
1.476439e-009
1.609229e-009
1.634480e-009
1.575063e-009
1.455308e-009
1.297833e-009
1.121119e-009
9.387294e-010
7.599701e-010
5.912333e-010
4.374284e-010
3.031675e-010
1.932018e-010
1.115749e-010
5.965432e-011
3.419400e-011
2.700814e-011
2.718597e-011
2.525425e-011
1.709522e-011
4.984696e-012
-5.274179e-012
-9.215570e-012
-6.912409e-012
-2.211323e-012
8.419819e-013
9.624550e-013
-3.633259e-013
-1.090311e-012
-5.316185e-013
5.808182e-013
1.286432e-012
1.303639e-012
9.649567e-013
6.911969e-013
2.226695e-010
1.104830e-010
-4.513420e-011
-1.487281e-010
-1.395128e-010
-3.267429e-011
9.244291e-011
1.529905e-010
1.251355e-010
5.677318e-011
2.321532e-011
6.996196e-011
1.924244e-010
3.598853e-010
5.492402e-010
7.554881e-010
9.794572e-010
1.215312e-009
1.450798e-009
1.673061e-009
1.869247e-009
2.022309e-009
2.108536e-009
2.098111e-009
1.955939e-009
1.643971e-009
1.128594e-009
3.896062e-010
-5.788710e-010
-1.777537e-009
-3.209464e-009
-4.874973e-009
-6.759737e-009
-8.832624e-009
-1.105789e-008
-1.340708e-008
-1.585609e-008
-1.837242e-008
-2.091041e-008
-2.342052e-008
-2.585988e-008
-2.819070e-008
-3.037034e-008
-3.234712e-008
-3.406720e-008
-3.548318e-008
-3.655492e-008
-3.724494e-008
-3.751724e-008
-3.734267e-008
-3.670511e-008
-3.560325e-008
-3.404915e-008
-3.206812e-008
-2.970096e-008
-2.700586e-008
-2.405731e-008
-2.094223e-008
-1.775522e-008
-1.459405e-008
-1.155504e-008
-8.727566e-009
-6.187560e-009
-3.991555e-009
-2.173013e-009
-7.416421e-010
3.152182e-010
1.030065e-009
1.451248e-009
1.636942e-009
1.647853e-009
1.540677e-009
1.363716e-009
1.154544e-009
9.392887e-010
7.337830e-010
5.467772e-010
3.839252e-010
2.503066e-010
1.502108e-010
8.493617e-011
5.059657e-011
3.777344e-011
3.391522e-011
2.800751e-011
1.530902e-011
-1.011050e-012
-1.314246e-011
-1.505225e-011
-7.398736e-012
2.951402e-012
8.383633e-012
6.322593e-012
4.647743e-013
-3.313316e-012
-2.359684e-012
1.025593e-012
2.756621e-012
1.402326e-012
-7.362897e-013
-1.768319e-010
-1.094896e-010
-2.393580e-011
2.882701e-011
3.862213e-011
3.147060e-011
3.173066e-011
4.032160e-011
5.194752e-011
8.277892e-011
1.681890e-010
3.300436e-010
5.524574e-010
7.952158e-010
1.029540e-009
1.256774e-009
1.492867e-009
1.739006e-009
1.967497e-009
2.128662e-009
2.162690e-009
2.003264e-009
1.575757e-009
7.991244e-010
-4.062479e-010
-2.109139e-009
-4.360340e-009
-7.189047e-009
-1.060372e-008
-1.459659e-008
-1.914693e-008
-2.421886e-008
-2.975691e-008
-3.568804e-008
-4.193168e-008
-4.840850e-008
-5.503871e-008
-6.173371e-008
-6.839334e-008
-7.491302e-008
-8.119150e-008
-8.712946e-008
-9.262192e-008
-9.755586e-008
-1.018168e-007
-1.052973e-007
-1.078991e-007
-1.095315e-007
-1.101129e-007
-1.095780e-007
-1.078865e-007
-1.050273e-007
-1.010204e-007
-9.591867e-008
-8.981205e-008
-8.282981e-008
-7.513911e-008
-6.693912e-008
-5.845246e-008
-4.991536e-008
-4.156647e-008
-3.363354e-008
-2.631861e-008
-1.978391e-008
-1.414172e-008
-9.449636e-009
-5.710640e-009
-2.876902e-009
-8.577156e-010
4.682549e-010
1.238219e-009
1.591159e-009
1.656402e-009
1.544807e-009
1.342537e-009
1.108699e-009
8.780611e-010
6.677068e-010
4.845548e-010
3.312209e-010
2.093624e-010
1.204299e-010
6.398896e-011
3.503490e-011
2.333535e-011
1.698697e-011
8.484840e-012
-1.742774e-012
-7.992655e-012
-6.186535e-012
1.301341e-012
7.472155e-012
7.246840e-012
2.008504e-012
-2.454483e-012
-2.230009e-012
1.014001e-012
2.666264e-012
7.602543e-013
-2.021586e-012
-5.232520e-010
-2.876608e-010
2.191584e-011
2.123737e-010
2.044025e-010
7.209859e-011
-4.057554e-011
-3.625164e-011
8.785744e-011
2.796301e-010
4.967574e-010
7.311137e-010
9.882110e-010
1.263397e-009
1.542549e-009
1.812754e-009
2.055677e-009
2.223237e-009
2.220444e-009
1.911532e-009
1.139007e-009
-2.632460e-010
-2.465794e-009
-5.637157e-009
-9.929045e-009
-1.546060e-008
-2.231052e-008
-3.051619e-008
-4.007350e-008
-5.093537e-008
-6.301267e-008
-7.617976e-008
-9.028272e-008
-1.051473e-007
-1.205863e-007
-1.364044e-007
-1.524012e-007
-1.683703e-007
-1.840991e-007
-1.993706e-007
-2.139657e-007
-2.276627e-007
-2.402343e-007
-2.514483e-007
-2.610724e-007
-2.688815e-007
-2.746633e-007
-2.782217e-007
-2.793842e-007
-2.780117e-007
-2.740115e-007
-2.673464e-007
-2.580437e-007
-2.462019e-007
-2.319986e-007
-2.156953e-007
-1.976361e-007
-1.782407e-007
-1.579903e-007
-1.374081e-007
-1.170355e-007
-9.740279e-008
-7.899655e-008
-6.222762e-008
-4.740495e-008
-3.471917e-008
-2.423662e-008
-1.590415e-008
-9.564497e-009
-4.981476e-009
-1.870541e-009
7.096884e-011
1.137950e-009
1.596877e-009
1.670593e-009
1.529982e-009
1.293720e-009
1.034837e-009
7.910927e-010
5.768292e-010
3.949709e-010
2.467823e-010
1.358573e-010
6.512169e-011
3.088532e-011
2.080415e-011
1.903463e-011
1.474868e-011
6.633874e-012
-2.548881e-013
-1.719167e-012
1.230156e-012
4.199561e-012
4.265818e-012
2.271765e-012
6.978249e-013
3.941986e-013
1.357918e-013
-1.072189e-012
-2.403029e-012
-4.110478e-010
-2.094623e-010
5.396381e-011
2.098876e-010
1.902263e-010
7.398190e-011
1.444122e-011
1.150453e-010
3.615497e-010
6.604919e-010
9.343745e-010
1.179730e-009
1.443416e-009
1.755000e-009
2.081371e-009
2.326654e-009
2.348475e-009
1.958909e-009
9.131023e-010
-1.091593e-009
-4.397991e-009
-9.365270e-009
-1.634898e-008
-2.568057e-008
-3.764092e-008
-5.243455e-008
-7.017478e-008
-9.087968e-008
-1.144701e-007
-1.407685e-007
-1.695063e-007
-2.003457e-007
-2.329056e-007
-2.667799e-007
-3.015454e-007
-3.367676e-007
-3.720094e-007
-4.068393e-007
-4.408317e-007
-4.735612e-007
-5.045979e-007
-5.335070e-007
-5.598515e-007
-5.831940e-007
-6.030996e-007
-6.191418e-007
-6.309122e-007
-6.380325e-007
-6.401683e-007
-6.370442e-007
-6.284629e-007
-6.143243e-007
-5.946452e-007
-5.695773e-007
-5.394236e-007
-5.046507e-007
-4.658941e-007
-4.239529e-007
-3.797720e-007
-3.344105e-007
-2.889976e-007
-2.446751e-007
-2.025305e-007
-1.635272e-007
-1.284400e-007
-9.780671e-008
-7.190102e-008
-5.072995e-008
-3.405808e-008
-2.145544e-008
-1.236053e-008
-6.146816e-009
-2.182870e-009
1.192766e-010
1.269889e-009
1.682691e-009
1.670682e-009
1.452821e-009
1.166930e-009
8.864530e-010
6.406748e-010
4.361388e-010
2.735454e-010
1.547190e-010
8.004261e-011
4.308168e-011
2.983279e-011
2.449053e-011
1.712426e-011
6.964928e-012
-9.606655e-013
-2.459171e-012
1.577120e-012
6.230022e-012
7.058297e-012
3.589127e-012
-1.067458e-012
-3.549789e-012
-3.163487e-012
-1.887084e-012
1.316891e-010
9.230815e-011
4.607249e-011
2.783441e-011
5.345939e-011
1.302541e-010
2.742569e-010
5.000073e-010
7.926809e-010
1.106853e-009
1.406123e-009
1.698094e-009
2.010837e-009
2.317112e-009
2.468634e-009
2.186883e-009
1.093431e-009
-1.269142e-009
-5.444286e-009
-1.207058e-008
-2.186279e-008
-3.556418e-008
-5.388860e-008
-7.746407e-008
-1.067792e-007
-1.421372e-007
-1.836266e-007
-2.311137e-007
-2.842490e-007
-3.424855e-007
-4.051138e-007
-4.713144e-007
-5.402122e-007
-6.109145e-007
-6.825290e-007
-7.541758e-007
-8.250036e-007
-8.942020e-007
-9.609989e-007
-1.024645e-006
-1.084401e-006
-1.139535e-006
-1.189325e-006
-1.233059e-006
-1.270035e-006
-1.299561e-006
-1.320971e-006
-1.333638e-006
-1.336999e-006
-1.330571e-006
-1.313976e-006
-1.286978e-006
-1.249510e-006
-1.201717e-006
-1.143990e-006
-1.076998e-006
-1.001717e-006
-9.194437e-007
-8.317911e-007
-7.406538e-007
-6.481471e-007
-5.565124e-007
-4.679942e-007
-3.846962e-007
-3.084354e-007
-2.406107e-007
-1.821088e-007
-1.332603e-007
-9.385676e-008
-6.322554e-008
-4.034927e-008
-2.400620e-008
-1.290794e-008
-5.816398e-009
-1.628583e-009
5.750299e-010
1.515616e-009
1.725416e-009
1.570319e-009
1.278334e-009
9.716855e-010
7.013534e-010
4.799666e-010
3.066202e-010
1.792634e-010
9.583728e-011
5.028899e-011
3.056726e-011
2.210254e-011
1.454965e-011
5.975815e-012
4.718019e-013
1.231760e-012
5.769170e-012
7.950475e-012
4.377006e-012
-2.107102e-012
-5.793124e-012
-4.498341e-012
-1.620642e-012
6.393727e-010
3.572425e-010
1.767613e-011
-1.232719e-010
2.251537e-011
3.481157e-010
6.905706e-010
9.766180e-010
1.244953e-009
1.563515e-009
1.948654e-009
2.343075e-009
2.614951e-009
2.524571e-009
1.666069e-009
-5.677981e-010
-4.980635e-009
-1.255689e-008
-2.446013e-008
-4.202454e-008
-6.669997e-008
-9.994144e-008
-1.430717e-007
-1.971503e-007
-2.628656e-007
-3.404567e-007
-4.296747e-007
-5.297928e-007
-6.396589e-007
-7.577798e-007
-8.824269e-007
-1.011752e-006
-1.143891e-006
-1.277042e-006
-1.409501e-006
-1.539688e-006
-1.666158e-006
-1.787612e-006
-1.902882e-006
-2.010897e-006
-2.110665e-006
-2.201254e-006
-2.281790e-006
-2.351440e-006
-2.409394e-006
-2.454862e-006
-2.487068e-006
-2.505265e-006
-2.508740e-006
-2.496829e-006
-2.468932e-006
-2.424547e-006
-2.363322e-006
-2.285104e-006
-2.190015e-006
-2.078530e-006
-1.951576e-006
-1.810616e-006
-1.657719e-006
-1.495591e-006
-1.327544e-006
-1.157401e-006
-9.893110e-007
-8.274960e-007
-6.759370e-007
-5.380520e-007
-4.164084e-007
-3.125227e-007
-2.267864e-007
-1.585323e-007
-1.062250e-007
-6.773227e-008
-4.062276e-008
-2.244060e-008
-1.091908e-008
-4.116188e-009
-4.727433e-010
1.190953e-009
1.716585e-009
1.666147e-009
1.383560e-009
1.053666e-009
7.564195e-010
5.137938e-010
3.251887e-010
1.871657e-010
9.746891e-011
4.997625e-011
3.101616e-011
2.352952e-011
1.604409e-011
7.405506e-012
2.320211e-012
2.777235e-012
4.805205e-012
3.381311e-012
-1.460319e-012
-5.175687e-012
-4.859255e-012
-2.763783e-012
6.717761e-010
3.728382e-010
4.217539e-011
-2.240916e-011
2.604244e-010
7.240911e-010
1.144345e-009
1.446774e-009
1.733675e-009
2.127459e-009
2.591727e-009
2.864501e-009
2.485422e-009
8.067828e-010
-3.070643e-009
-1.039446e-008
-2.281913e-008
-4.240280e-008
-7.155654e-008
-1.129437e-007
-1.693037e-007
-2.431966e-007
-3.367085e-007
-4.511832e-007
-5.870251e-007
-7.435972e-007
-9.192281e-007
-1.111330e-006
-1.316607e-006
-1.531321e-006
-1.751558e-006
-1.973478e-006
-2.193502e-006
-2.408440e-006
-2.615548e-006
-2.812530e-006
-2.997533e-006
-3.169110e-006
-3.326180e-006
-3.467971e-006
-3.593973e-006
-3.703899e-006
-3.797639e-006
-3.875212e-006
-3.936704e-006
-3.982203e-006
-4.011759e-006
-4.025329e-006
-4.022728e-006
-4.003574e-006
-3.967251e-006
-3.912886e-006
-3.839360e-006
-3.745363e-006
-3.629490e-006
-3.490421e-006
-3.327162e-006
-3.139335e-006
-2.927508e-006
-2.693488e-006
-2.440554e-006
-2.173541e-006
-1.898742e-006
-1.623568e-006
-1.355991e-006
-1.103818e-006
-8.738999e-007
-6.714357e-007
-4.994965e-007
-3.588725e-007
-2.482532e-007
-1.646796e-007
-1.041453e-007
-6.221384e-008
-3.454448e-008
-1.726257e-008
-7.161128e-009
-1.754920e-009
7.697715e-010
1.662240e-009
1.731257e-009
1.460781e-009
1.108113e-009
7.850818e-010
5.239903e-010
3.257328e-010
1.856668e-010
9.870705e-011
5.441279e-011
3.550781e-011
2.483484e-011
1.403234e-011
4.543933e-012
3.291393e-013
8.894468e-013
1.779681e-012
9.800043e-014
-2.888373e-012
-4.660013e-012
-4.922974e-012
2.403209e-010
1.965295e-010
2.078796e-010
3.802970e-010
7.272750e-010
1.159166e-009
1.575334e-009
1.963215e-009
2.382824e-009
2.815412e-009
2.981835e-009
2.248074e-009
-3.816986e-010
-6.290792e-009
-1.737267e-008
-3.620582e-008
-6.616020e-008
-1.113505e-007
-1.764284e-007
-2.662344e-007
-3.853187e-007
-5.373569e-007
-7.245433e-007
-9.470891e-007
-1.202944e-006
-1.487802e-006
-1.795392e-006
-2.118011e-006
-2.447197e-006
-2.774436e-006
-3.091770e-006
-3.392263e-006
-3.670278e-006
-3.921581e-006
-4.143305e-006
-4.333834e-006
-4.492644e-006
-4.620172e-006
-4.717687e-006
-4.787192e-006
-4.831333e-006
-4.853301e-006
-4.856724e-006
-4.845516e-006
-4.823709e-006
-4.795269e-006
-4.763903e-006
-4.732848e-006
-4.704647e-006
-4.680895e-006
-4.661995e-006
-4.646931e-006
-4.633083e-006
-4.616137e-006
-4.590136e-006
-4.547727e-006
-4.480637e-006
-4.380392e-006
-4.239246e-006
-4.051255e-006
-3.813369e-006
-3.526383e-006
-3.195520e-006
-2.830481e-006
-2.444792e-006
-2.054465e-006
-1.676133e-006
-1.324996e-006
-1.013004e-006
-7.476607e-007
-5.316692e-007
-3.634069e-007
-2.379942e-007
-1.486243e-007
-8.782786e-008
-4.845970e-008
-2.432216e-008
-1.044597e-008
-3.107776e-009
3.170181e-010
1.574527e-009
1.757936e-009
1.501397e-009
1.133060e-009
7.929217e-010
5.216627e-010
3.207361e-010
1.827891e-010
9.858537e-011
5.443508e-011
3.298874e-011
1.983702e-011
9.034982e-012
1.569815e-012
-9.310182e-013
-1.681181e-013
3.274530e-013
-1.291368e-012
-4.126898e-012
-6.191811e-012
-2.240678e-010
9.275540e-011
5.487865e-010
9.565173e-010
1.274914e-009
1.604912e-009
2.056568e-009
2.623273e-009
3.122316e-009
3.141314e-009
1.923353e-009
-1.797639e-009
-9.969639e-009
-2.540821e-008
-5.201740e-008
-9.499272e-008
-1.608622e-007
-2.572226e-007
-3.921134e-007
-5.730550e-007
-8.058310e-007
-1.093157e-006
-1.433488e-006
-1.820276e-006
-2.241940e-006
-2.682622e-006
-3.123613e-006
-3.545158e-006
-3.928323e-006
-4.256585e-006
-4.516957e-006
-4.700549e-006
-4.802616e-006
-4.822234e-006
-4.761728e-006
-4.626048e-006
-4.422204e-006
-4.158840e-006
-3.845967e-006
-3.494785e-006
-3.117552e-006
-2.727426e-006
-2.338253e-006
-1.964276e-006
-1.619785e-006
-1.318717e-006
-1.074214e-006
-8.981296e-007
-8.004685e-007
-7.887541e-007
-8.673314e-007
-1.036629e-006
-1.292431e-006
-1.625264e-006
-2.020008e-006
-2.455891e-006
-2.906989e-006
-3.343382e-006
-3.733022e-006
-4.044318e-006
-4.249290e-006
-4.326972e-006
-4.266551e-006
-4.069596e-006
-3.750729e-006
-3.336267e-006
-2.860824e-006
-2.362394e-006
-1.876919e-006
-1.433578e-006
-1.051825e-006
-7.406499e-007
-4.998558e-007
-3.226100e-007
-1.983718e-007
-1.154587e-007
-6.286930e-008
-3.130531e-008
-1.353476e-008
-4.312979e-009
-6.683294e-011
1.498339e-009
1.768043e-009
1.517753e-009
1.135763e-009
7.832345e-010
5.058147e-010
3.042746e-010
1.690084e-010
8.846388e-011
4.738110e-011
2.794059e-011
1.605052e-011
6.198700e-012
-4.758760e-013
-2.421728e-012
-1.482500e-012
-1.226464e-012
-3.084406e-012
-5.231959e-012
-2.588195e-010
2.898305e-010
1.014561e-009
1.540155e-009
1.830084e-009
2.148257e-009
2.702083e-009
3.315904e-009
3.350639e-009
1.743974e-009
-3.095344e-009
-1.363843e-008
-3.370868e-008
-6.890665e-008
-1.268976e-007
-2.174831e-007
-3.522785e-007
-5.437495e-007
-8.034366e-007
-1.139414e-006
-1.553304e-006
-2.037454e-006
-2.573068e-006
-3.130042e-006
-3.668893e-006
-4.144538e-006
-4.511186e-006
-4.727307e-006
-4.759743e-006
-4.586360e-006
-4.197018e-006
-3.593042e-006
-2.785593e-006
-1.793480e-006
-6.408702e-007
6.446877e-007
2.033749e-006
3.495885e-006
5.000139e-006
6.515182e-006
8.009371e-006
9.450840e-006
1.080769e-005
1.204831e-005
1.314178e-005
1.405833e-005
1.476989e-005
1.525071e-005
1.547809e-005
1.543329e-005
1.510272e-005
1.447941e-005
1.356466e-005
1.236991e-005
1.091863e-005
9.247908e-006
7.409430e-006
5.469374e-006
3.506681e-006
1.609241e-006
-1.322556e-007
-1.632586e-006
-2.821574e-006
-3.653488e-006
-4.114246e-006
-4.224408e-006
-4.036489e-006
-3.626518e-006
-3.081415e-006
-2.485138e-006
-1.907000e-006
-1.394758e-006
-9.733502e-007
-6.483223e-007
-4.118017e-007
-2.487757e-007
-1.421495e-007
-7.601003e-008
-3.723685e-008
-1.592843e-008
-5.134555e-009
-2.797303e-010
1.471398e-009
1.769440e-009
1.505041e-009
1.107682e-009
7.478626e-010
4.703657e-010
2.739941e-010
1.474387e-010
7.633846e-011
4.182370e-011
2.430000e-011
1.145817e-011
1.282697e-012
-3.540203e-012
-3.085666e-012
-1.375061e-012
-1.646333e-012
-3.049963e-012
3.117090e-010
8.327725e-010
1.529632e-009
2.070950e-009
2.451159e-009
2.894946e-009
3.422905e-009
3.455659e-009
1.684126e-009
-3.967656e-009
-1.663617e-008
-4.118983e-008
-8.505292e-008
-1.588352e-007
-2.765136e-007
-4.549454e-007
-7.123332e-007
-1.065129e-006
-1.523076e-006
-2.082789e-006
-2.721185e-006
-3.390853e-006
-4.019468e-006
-4.514530e-006
-4.773101e-006
-4.694612e-006
-4.193833e-006
-3.211232e-006
-1.718878e-006
2.785846e-007
2.747253e-006
5.630208e-006
8.855079e-006
1.234146e-005
1.600710e-005
1.977231e-005
2.356263e-005
2.730996e-005
3.095278e-005
3.443579e-005
3.770946e-005
4.072942e-005
4.345603e-005
4.585384e-005
4.789103e-005
4.953872e-005
5.077020e-005
5.156003e-005
5.188327e-005
5.171491e-005
5.102990e-005
4.980394e-005
4.801542e-005
4.564895e-005
4.270044e-005
3.918383e-005
3.513890e-005
3.063900e-005
2.579690e-005
2.076653e-005
1.573834e-005
1.092682e-005
6.549973e-006
2.803017e-006
-1.694126e-007
-2.296122e-006
-3.590966e-006
-4.148849e-006
-4.125894e-006
-3.708469e-006
-3.079488e-006
-2.390875e-006
-1.748406e-006
-1.210139e-006
-7.950600e-007
-4.963190e-007
-2.939803e-007
-1.644511e-007
-8.600579e-008
-4.118367e-008
-1.721016e-008
-5.412900e-009
-2.773226e-010
1.494482e-009
1.753113e-009
1.457840e-009
1.049306e-009
6.913315e-010
4.223633e-010
2.384929e-010
1.256187e-010
6.479519e-011
3.422023e-011
1.651564e-011
4.546545e-012
-1.488825e-012
-1.850446e-012
-3.646102e-013
-5.552635e-013
-1.893234e-012
1.364421e-009
1.638915e-009
2.090569e-009
2.626190e-009
3.210458e-009
3.727799e-009
3.664606e-009
1.753469e-009
-4.346719e-009
-1.846778e-008
-4.666481e-008
-9.828670e-008
-1.870737e-007
-3.317564e-007
-5.555486e-007
-8.837695e-007
-1.338559e-006
-1.929730e-006
-2.641900e-006
-3.420226e-006
-4.159475e-006
-4.702112e-006
-4.849378e-006
-4.385329e-006
-3.109117e-006
-8.677279e-007
2.418754e-006
6.744790e-006
1.202131e-005
1.808967e-005
2.474337e-005
3.175248e-005
3.888644e-005
4.593194e-005
5.270458e-005
5.905431e-005
6.486653e-005
7.006049e-005
7.458695e-005
7.842561e-005
8.158271e-005
8.408833e-005
8.599301e-005
8.736365e-005
8.827831e-005
8.882022e-005
8.907077e-005
8.910183e-005
8.896738e-005
8.869479e-005
8.827648e-005
8.766281e-005
8.675796e-005
8.542054e-005
8.347137e-005
8.071011e-005
7.694158e-005
7.201059e-005
6.584126e-005
5.847420e-005
5.009282e-005
4.102931e-005
3.174277e-005
2.276707e-005
1.463398e-005
7.786904e-006
2.506788e-006
-1.129192e-006
-3.244748e-006
-4.118759e-006
-4.111094e-006
-3.583263e-006
-2.836255e-006
-2.078930e-006
-1.427205e-006
-9.239165e-007
-5.659067e-007
-3.279786e-007
-1.791497e-007
-9.130855e-008
-4.249354e-008
-1.715678e-008
-5.101120e-009
-6.668909e-011
1.557157e-009
1.718780e-009
1.382858e-009
9.680482e-010
6.191509e-010
3.656941e-010
1.996164e-010
1.021810e-010
5.072969e-011
2.444274e-011
1.038841e-011
3.620704e-012
1.735725e-012
1.302375e-012
-2.660653e-013
-2.188897e-012
2.650329e-009
2.619410e-009
2.788219e-009
3.324694e-009
4.016329e-009
4.116171e-009
2.227585e-009
-4.053301e-009
-1.888995e-008
-4.931748e-008
-1.066089e-007
-2.077197e-007
-3.763639e-007
-6.427751e-007
-1.040556e-006
-1.598373e-006
-2.324170e-006
-3.181193e-006
-4.059387e-006
-4.751668e-006
-4.948532e-006
-4.262468e-006
-2.284516e-006
1.337247e-006
6.816901e-006
1.416961e-005
2.318623e-005
3.344870e-005
4.438112e-005
5.532308e-005
6.560830e-005
7.463362e-005
8.190867e-005
8.708246e-005
8.994831e-005
9.043307e-005
8.857888e-005
8.452481e-005
7.849273e-005
7.077765e-005
6.174035e-005
5.179944e-005
4.142095e-005
3.110461e-005
2.136737e-005
1.272469e-005
5.669824e-006
6.509644e-007
-1.954288e-006
-1.867722e-006
1.057554e-006
6.803431e-006
1.515457e-005
2.567308e-005
3.768777e-005
5.030702e-005
6.246408e-005
7.300070e-005
8.078930e-005
8.488486e-005
8.468640e-005
8.007535e-005
7.148924e-005
5.989365e-005
4.663793e-005
3.321685e-005
2.099415e-005
1.096399e-005
3.618065e-006
-1.055325e-006
-3.458644e-006
-4.206270e-006
-3.941461e-006
-3.201275e-006
-2.353796e-006
-1.600855e-006
-1.019249e-006
-6.112962e-007
-3.458790e-007
-1.839897e-007
-9.105733e-008
-4.094267e-008
-1.577948e-008
-4.261684e-009
3.047080e-010
1.637367e-009
1.659771e-009
1.278368e-009
8.636350e-010
5.331933e-010
3.040664e-010
1.610994e-010
8.074424e-011
3.943480e-011
1.906209e-011
9.163136e-012
4.567419e-012
2.114808e-012
2.054175e-015
-1.596167e-012
3.941058e-009
3.718236e-009
3.712545e-009
4.165294e-009
4.479050e-009
3.027513e-009
-2.891067e-009
-1.764952e-008
-4.874760e-008
-1.088317e-007
-2.177561e-007
-4.041573e-007
-7.055477e-007
-1.164610e-006
-1.817579e-006
-2.669551e-006
-3.653595e-006
-4.578023e-006
-5.078933e-006
-4.606917e-006
-2.477315e-006
2.003743e-006
9.355188e-006
1.972399e-005
3.273371e-005
4.742693e-005
6.232740e-005
7.561652e-005
8.537955e-005
8.985986e-005