# vtk DataFile Version 3.0
vtk output
ASCII
DATASET STRUCTURED_POINTS
DIMENSIONS 100 100 1
SPACING 1 1 1
ORIGIN 0 0 0
POINT_DATA 10000
SCALARS SFBox_profile double
LOOKUP_TABLE default 
0.000000e+000
0.000000e+000
0.000000e+000
0.000000e+000
0.000000e+000
0.000000e+000
0.000000e+000
0.000000e+000
0.000000e+000
0.000000e+000
0.000000e+000
0.000000e+000
0.000000e+000
0.000000e+000
0.000000e+000
0.000000e+000
0.000000e+000
0.000000e+000
0.000000e+000
0.000000e+000
0.000000e+000
0.000000e+000
0.000000e+000
0.000000e+000
0.000000e+000
0.000000e+000
0.000000e+000
0.000000e+000
0.000000e+000
0.000000e+000
0.000000e+000
0.000000e+000
0.000000e+000
0.000000e+000
0.000000e+000
0.000000e+000
0.000000e+000
0.000000e+000
0.000000e+000
0.000000e+000
0.000000e+000
0.000000e+000
0.000000e+000
0.000000e+000
0.000000e+000
0.000000e+000
0.000000e+000
0.000000e+000
0.000000e+000
0.000000e+000
0.000000e+000
0.000000e+000
0.000000e+000
0.000000e+000
0.000000e+000
0.000000e+000
0.000000e+000
0.000000e+000
0.000000e+000
0.000000e+000
0.000000e+000
0.000000e+000
0.000000e+000
0.000000e+000
0.000000e+000
0.000000e+000
0.000000e+000
0.000000e+000
0.000000e+000
0.000000e+000
0.000000e+000
0.000000e+000
0.000000e+000
0.000000e+000
0.000000e+000
0.000000e+000
0.000000e+000
0.000000e+000
0.000000e+000
0.000000e+000
0.000000e+000
0.000000e+000
0.000000e+000
0.000000e+000
0.000000e+000
0.000000e+000
0.000000e+000
0.000000e+000
0.000000e+000
0.000000e+000
0.000000e+000
0.000000e+000
0.000000e+000
0.000000e+000
0.000000e+000
0.000000e+000
0.000000e+000
0.000000e+000
0.000000e+000
0.000000e+000
5.226230e-017
-1.014708e-017
-3.140428e-018
4.545893e-017
-1.665230e-017
-2.355053e-017
1.095420e-017
-3.887844e-017
6.164065e-017
1.832678e-017
1.038297e-016
9.405830e-017
1.607774e-016
2.982949e-016
3.793254e-016
6.250734e-016
1.057589e-015
1.344333e-015
1.870212e-015
2.559859e-015
3.094154e-015
3.652003e-015
3.953262e-015
3.520923e-015
1.975610e-015
-1.719270e-015
-8.452884e-015
-1.968510e-014
-3.721548e-014
-6.307840e-014
-9.978080e-014
-1.494369e-013
-2.146383e-013
-2.978111e-013
-4.001296e-013
-5.234876e-013
-6.669214e-013
-8.305099e-013
-1.011723e-012
-1.207432e-012
-1.413823e-012
-1.625394e-012
-1.836919e-012
-2.042027e-012
-2.234697e-012
-2.409068e-012
-2.559638e-012
-2.681584e-012
-2.770940e-012
-2.824931e-012
-2.841915e-012
-2.821063e-012
-2.763030e-012
-2.669777e-012
-2.544144e-012
-2.390342e-012
-2.212952e-012
-2.017933e-012
-1.810537e-012
-1.598199e-012
-1.386171e-012
-1.180603e-012
-9.863700e-013
-8.074118e-013
-6.468350e-013
-5.065129e-013
-3.872485e-013
-2.879831e-013
-2.083438e-013
-1.459370e-013
-9.850276e-014
-6.391098e-014
-3.914894e-014
-2.248777e-014
-1.149875e-014
-4.938429e-015
-1.072150e-015
8.123287e-016
1.623203e-015
1.782866e-015
1.727558e-015
1.247609e-015
1.151941e-015
7.040033e-016
6.180939e-016
3.009783e-016
2.132528e-016
1.206077e-016
1.125304e-016
1.744586e-017
-3.657451e-017
9.912694e-017
6.250801e-017
-3.946120e-017
-4.129762e-018
-3.818054e-018
-1.064853e-017
-1.072984e-017
-1.078405e-017
-1.097379e-017
-7.242095e-017
8.022117e-017
-2.964245e-018
-5.149584e-017
3.181154e-017
4.524209e-017
-4.604101e-018
4.703103e-017
1.039855e-017
3.280087e-017
9.060240e-017
1.460051e-016
3.361064e-016
3.197350e-016
7.370173e-016
9.242590e-016
1.242134e-015
1.831370e-015
2.294663e-015
2.822019e-015
2.963345e-015
2.604813e-015
8.823139e-016
-3.025069e-015
-1.070607e-014
-2.386052e-014
-4.513951e-014
-7.822787e-014
-1.268010e-013
-1.959574e-013
-2.907368e-013
-4.166342e-013
-5.789843e-013
-7.826861e-013
-1.031100e-012
-1.326309e-012
-1.668345e-012
-2.054527e-012
-2.480186e-012
-2.937483e-012
-3.417334e-012
-3.907327e-012
-4.395164e-012
-4.866812e-012
-5.308791e-012
-5.707283e-012
-6.050375e-012
-6.327423e-012
-6.529776e-012
-6.651145e-012
-6.687231e-012
-6.637230e-012
-6.502449e-012
-6.286775e-012
-5.997274e-012
-5.642448e-012
-5.233537e-012
-4.783062e-012
-4.304972e-012
-3.813059e-012
-3.321325e-012
-2.842596e-012
-2.389068e-012
-1.969574e-012
-1.591439e-012
-1.259086e-012
-9.739855e-013
-7.359304e-013
-5.425548e-013
-3.892528e-013
-2.716841e-013
-1.834102e-013
-1.196554e-013
-7.485834e-014
-4.472545e-014
-2.492095e-014
-1.275977e-014
-5.495383e-015
-1.599859e-015
3.326641e-016
1.054472e-015
1.329358e-015
1.066940e-015
8.797254e-016
6.898138e-016
4.529021e-016
3.531420e-016
2.125074e-016
1.259881e-016
1.060523e-016
4.245700e-018
1.248564e-017
2.334793e-018
-1.375206e-017
-3.951541e-017
-1.105510e-017
-3.804501e-018
-2.451276e-017
-1.072984e-017
-1.091958e-017
4.593327e-017
-2.598327e-018
-2.344211e-017
3.189286e-017
3.554521e-018
-1.930859e-017
-1.028261e-017
-8.364980e-019
4.411723e-017
1.743706e-016
2.358313e-016
2.651996e-016
4.583367e-016
8.061894e-016
1.138172e-015
1.516843e-015
2.123834e-015
2.444365e-015
2.807234e-015
2.329073e-015
5.050793e-016
-3.958202e-015
-1.306455e-014
-2.954948e-014
-5.770701e-014
-1.032483e-013
-1.734585e-013
-2.783705e-013
-4.284754e-013
-6.374508e-013
-9.198390e-013
-1.290015e-012
-1.762670e-012
-2.349848e-012
-3.060864e-012
-3.900383e-012
-4.867034e-012
-5.953586e-012
-7.145476e-012
-8.422032e-012
-9.755196e-012
-1.111405e-011
-1.246217e-011
-1.376255e-011
-1.497756e-011
-1.607140e-011
-1.701087e-011
-1.776774e-011
-1.831855e-011
-1.864655e-011
-1.874097e-011
-1.859948e-011
-1.822474e-011
-1.762901e-011
-1.682925e-011
-1.585033e-011
-1.472146e-011
-1.347686e-011
-1.215384e-011
-1.079097e-011
-9.425969e-012
-8.094669e-012
-6.828905e-012
-5.655530e-012
-4.593724e-012
-3.656482e-012
-2.849813e-012
-2.172613e-012
-1.618374e-012
-1.176658e-012
-8.339013e-013
-5.751584e-013
-3.853568e-013
-2.501473e-013
-1.565527e-013
-9.428317e-014
-5.413023e-014
-2.920075e-014
-1.447293e-014
-6.055740e-015
-1.908626e-015
1.788022e-016
8.368723e-016
1.175076e-015
9.137422e-016
7.069171e-016
5.445443e-016
2.677746e-016
2.814355e-016
6.130184e-017
1.094946e-016
1.710705e-017
-5.348807e-017
7.674489e-018
7.573528e-017
-1.199023e-017
2.836237e-018
-1.072984e-017
-1.068919e-017
-1.074340e-017
-2.137541e-018
-2.302198e-017
-1.643546e-017
-3.465688e-018
-6.830098e-017
7.805276e-017
-4.728101e-017
1.300809e-016
1.915145e-016
2.251925e-016
4.070946e-016
5.679224e-016
9.587908e-016
1.226738e-015
1.848948e-015
2.413506e-015
2.756019e-015
2.689801e-015
1.322229e-015
-2.926773e-015
-1.201923e-014
-3.003416e-014
-6.259457e-014
-1.180563e-013
-2.085516e-013
-3.501089e-013
-5.639702e-013
-8.765346e-013
-1.319359e-012
-1.928871e-012
-2.744155e-012
-3.805577e-012
-5.151322e-012
-6.814309e-012
-8.817923e-012
-1.117323e-011
-1.387476e-011
-1.690087e-011
-2.020947e-011
-2.374149e-011
-2.742219e-011
-3.116267e-011
-3.486616e-011
-3.843086e-011
-4.175535e-011
-4.474263e-011
-4.730419e-011
-4.936374e-011
-5.085911e-011
-5.174517e-011
-5.199449e-011
-5.159802e-011
-5.056754e-011
-4.893169e-011
-4.673925e-011
-4.405464e-011
-4.095848e-011
-3.754218e-011
-3.390611e-011
-3.015490e-011
-2.639210e-011
-2.271585e-011
-1.921356e-011
-1.595818e-011
-1.300546e-011
-1.039222e-011
-8.135068e-012
-6.233721e-012
-4.671581e-012
-3.421234e-012
-2.445587e-012
-1.704743e-012
-1.157330e-012
-7.638281e-013
-4.893997e-013
-3.033248e-013
-1.812395e-013
-1.039545e-013
-5.657261e-014
-2.899987e-014
-1.330599e-014
-5.225742e-015
-1.140184e-015
3.281782e-016
1.010887e-015
9.950845e-016
7.622385e-016
6.450092e-016
3.632928e-016
2.698481e-016
1.901999e-016
6.849823e-017
1.262455e-016
-3.638478e-017
-1.047979e-016
8.230826e-017
-5.367780e-017
2.890447e-018
-1.071629e-017
-3.763844e-018
-1.562231e-017
1.175380e-017
4.528275e-017
7.389886e-018
1.108770e-016
2.431699e-017
1.047919e-016
1.309889e-016
2.522569e-016
3.092860e-016
6.853280e-016
1.117369e-015
1.603471e-015
2.294352e-015
2.795944e-015
3.127900e-015
2.234124e-015
-6.634331e-016
-8.587501e-015
-2.523224e-014
-5.767477e-014
-1.167624e-013
-2.183470e-013
-3.868994e-013
-6.549407e-013
-1.067464e-012
-1.682213e-012
-2.570929e-012
-3.819891e-012
-5.525890e-012
-7.794523e-012
-1.073198e-011
-1.443910e-011
-1.900055e-011
-2.447545e-011
-3.088769e-011
-3.822015e-011
-4.640612e-011
-5.533190e-011
-6.483548e-011
-7.471342e-011
-8.472967e-011
-9.462534e-011
-1.041316e-010
-1.129810e-010
-1.209193e-010
-1.277155e-010
-1.331703e-010
-1.371226e-010
-1.394551e-010
-1.400967e-010
-1.390262e-010
-1.362712e-010
-1.319095e-010
-1.260665e-010
-1.189116e-010
-1.106542e-010
-1.015349e-010
-9.181818e-011
-8.177933e-011
-7.169316e-011
-6.182114e-011
-5.239735e-011
-4.361963e-011
-3.563958e-011
-2.855845e-011
-2.242677e-011
-1.724637e-011
-1.297769e-011
-9.548112e-012
-6.863249e-012
-4.815516e-012
-3.294920e-012
-2.196362e-012
-1.424245e-012
-8.972038e-013
-5.478374e-013
-3.230437e-013
-1.835150e-013
-9.956532e-014
-5.103849e-014
-2.415637e-014
-1.021847e-014
-3.263309e-015
-2.360135e-016
8.233062e-016
9.085923e-016
9.044452e-016
6.550516e-016
3.998169e-016
2.844035e-016
1.606690e-016
4.983640e-017
6.299590e-017
1.270451e-016
-8.503835e-017
4.728853e-017
-5.173307e-018
-4.089104e-018
-1.772295e-017
-1.569007e-017
-2.384869e-017
7.159493e-018
1.904506e-017
6.817297e-017
2.415436e-017
2.370646e-016
3.550935e-016
5.479053e-016
8.523764e-016
1.239138e-015
1.891638e-015
2.573425e-015
3.171986e-015
3.187043e-015
1.551511e-015
-3.800247e-015
-1.697093e-014
-4.486287e-014
-9.947624e-014
-1.998068e-013
-3.755171e-013
-6.712566e-013
-1.150951e-012
-1.904320e-012
-3.050779e-012
-4.744807e-012
-7.177158e-012
-1.057312e-011
-1.518832e-011
-2.129627e-011
-2.917284e-011
-3.907372e-011
-5.121154e-011
-6.572957e-011
-8.267837e-011
-1.019973e-010
-1.235023e-010
-1.468826e-010
-1.717086e-010
-1.974472e-010
-2.234827e-010
-2.491476e-010
-2.737507e-010
-2.966103e-010
-3.170796e-010
-3.345745e-010
-3.485923e-010
-3.587285e-010
-3.646883e-010
-3.662949e-010
-3.634951e-010
-3.563597e-010
-3.450844e-010
-3.299848e-010
-3.114903e-010
-2.901291e-010
-2.665138e-010
-2.413169e-010
-2.152431e-010
-1.890002e-010
-1.632627e-010
-1.386423e-010
-1.156573e-010
-9.471079e-011
-7.607756e-011
-5.990000e-011
-4.619533e-011
-3.487039e-011
-2.574555e-011
-1.857884e-011
-1.309491e-011
-9.007775e-012
-6.042458e-012
-3.948819e-012
-2.511742e-012
-1.552436e-012
-9.309449e-013
-5.402668e-013
-3.022650e-013
-1.622040e-013
-8.274763e-014
-3.950866e-014
-1.712112e-014
-6.197919e-015
-1.362865e-015
5.573650e-016
9.788350e-016
8.867050e-016
7.153061e-016
5.215999e-016
3.005853e-016
1.509111e-016
1.178701e-016
6.410721e-017
-3.447387e-017
1.846230e-017
-8.344598e-018
-1.215286e-017
-1.113642e-017
1.001027e-016
-1.455166e-017
1.142651e-016
4.975509e-017
1.314091e-016
3.029027e-016
4.394309e-016
5.332821e-016
1.056545e-015
1.450653e-015
2.132657e-015
2.978619e-015
3.454272e-015
3.265241e-015
4.175842e-016
-8.251032e-015
-2.874819e-014
-7.241555e-014
-1.585076e-013
-3.192207e-013
-6.057927e-013
-1.097291e-012
-1.911986e-012
-3.218677e-012
-5.251383e-012
-8.322229e-012
-1.283086e-011
-1.926978e-011
-2.821860e-011
-4.032773e-011
-5.629018e-011
-7.679540e-011
-1.024770e-010
-1.338488e-010
-1.712417e-010
-2.147459e-010
-2.641668e-010
-3.189988e-010
-3.784225e-010
-4.413266e-010
-5.063492e-010
-5.719389e-010
-6.364248e-010
-6.980931e-010
-7.552619e-010
-8.063477e-010
-8.499257e-010
-8.847759e-010
-9.099204e-010
-9.246486e-010
-9.285368e-010
-9.214571e-010
-9.035833e-010
-8.753898e-010
-8.376435e-010
-7.913847e-010
-7.379032e-010
-6.786965e-010
-6.154173e-010
-5.498099e-010
-4.836313e-010
-4.185733e-010
-3.561805e-010
-2.977755e-010
-2.444032e-010
-1.967892e-010
-1.553308e-010
-1.201062e-010
-9.091265e-011
-6.731993e-011
-4.873474e-011
-3.446900e-011
-2.380366e-011
-1.603938e-011
-1.053815e-011
-6.745385e-012
-4.202854e-012
-2.546020e-012
-1.497131e-012
-8.528021e-013
-4.690222e-013
-2.479818e-013
-1.250636e-013
-5.935561e-014
-2.595474e-014
-9.844145e-015
-2.622383e-015
2.488620e-017
9.730074e-016
9.798921e-016
7.028107e-016
5.249880e-016
3.266061e-016
2.132528e-016
1.078141e-016
4.727497e-017
1.105788e-016
-8.570242e-017
1.924835e-017
1.209934e-018
-3.974580e-017
1.104840e-016
7.187281e-017
2.246640e-016
2.802971e-016
3.831201e-016
6.121172e-016
1.091091e-015
1.619165e-015
2.449352e-015
3.263371e-015
3.867448e-015
3.147538e-015
-1.177724e-015
-1.380136e-014
-4.366997e-014
-1.076794e-013
-2.361518e-013
-4.798043e-013
-9.228457e-013
-1.698803e-012
-3.012868e-012
-5.167704e-012
-8.597173e-012
-1.389773e-011
-2.186149e-011
-3.349834e-011
-5.004415e-011
-7.294518e-011
-1.038131e-010
-1.443450e-010
-1.962123e-010
-2.609201e-010
-3.396538e-010
-4.331239e-010
-5.414311e-010
-6.639682e-010
-7.993697e-010
-9.455215e-010
-1.099624e-009
-1.258312e-009
-1.417802e-009
-1.574070e-009
-1.723034e-009
-1.860722e-009
-1.983427e-009
-2.087837e-009
-2.171134e-009
-2.231070e-009
-2.266019e-009
-2.275016e-009
-2.257775e-009
-2.214702e-009
-2.146888e-009
-2.056102e-009
-1.944753e-009
-1.815834e-009
-1.672843e-009
-1.519664e-009
-1.360425e-009
-1.199327e-009
-1.040451e-009
-8.875669e-010
-7.439502e-010
-6.122335e-010
-4.943003e-010
-3.912385e-010
-3.033589e-010
-2.302694e-010
-1.709992e-010
-1.241535e-010
-8.807893e-011
-6.102190e-011
-4.126260e-011
-2.721711e-011
-1.750142e-011
-1.096401e-011
-6.686113e-012
-3.964992e-012
-2.283477e-012
-1.274888e-012
-6.877833e-013
-3.574663e-013
-1.776212e-013
-8.357416e-014
-3.644201e-014
-1.399897e-014
-4.289656e-015
-3.876527e-016
9.002710e-016
9.410641e-016
8.141989e-016
5.378629e-016
3.978789e-016
2.259515e-016
1.250936e-016
4.716655e-017
3.468468e-017
-9.374590e-018
1.794730e-017
1.384089e-017
1.718905e-016
1.902812e-016
3.061147e-016
5.258012e-016
7.468293e-016
1.149868e-015
1.839244e-015
2.732884e-015
3.671397e-015
4.154599e-015
2.935264e-015
-3.030992e-015
-2.001702e-014
-6.098741e-014
-1.500395e-013
-3.308826e-013
-6.814252e-013
-1.331894e-012
-2.496487e-012
-4.512565e-012
-7.895767e-012
-1.340568e-011
-2.212314e-011
-3.553006e-011
-5.558275e-011
-8.476196e-011
-1.260828e-010
-1.830444e-010
-2.595057e-010
-3.594758e-010
-4.868308e-010
-6.449656e-010
-8.364230e-010
-1.062534e-009
-1.323121e-009
-1.616302e-009
-1.938422e-009
-2.284128e-009
-2.646574e-009
-3.017729e-009
-3.388763e-009
-3.750455e-009
-4.093599e-009
-4.409373e-009
-4.689653e-009
-4.927259e-009
-5.116143e-009
-5.251521e-009
-5.329962e-009
-5.349441e-009
-5.309377e-009
-5.210648e-009
-5.055595e-009
-4.848002e-009
-4.593045e-009
-4.297202e-009
-3.968099e-009
-3.614300e-009
-3.245013e-009
-2.869738e-009
-2.497852e-009
-2.138173e-009
-1.798529e-009
-1.485376e-009
-1.203512e-009
-9.559190e-010
-7.437436e-010
-5.664350e-010
-4.220016e-010
-3.073611e-010
-2.187299e-010
-1.520068e-010
-1.031102e-010
-6.823635e-011
-4.403582e-011
-2.769836e-011
-1.697150e-011
-1.012274e-011
-5.872419e-012
-3.309556e-012
-1.808920e-012
-9.563203e-013
-4.873757e-013
-2.378597e-013
-1.102242e-013
-4.761837e-014
-1.839139e-014
-5.788877e-015
-7.724632e-016
8.017577e-016
9.740103e-016
7.904685e-016
5.740210e-016
4.016871e-016
2.184298e-016
1.210414e-016
9.800208e-017
4.909101e-017
7.807987e-017
2.004592e-016
2.818828e-016
3.118881e-016
4.757381e-016
8.056066e-016
1.379366e-015
2.018842e-015
2.908878e-015
4.000954e-015
4.487137e-015
2.899716e-015
-4.666606e-015
-2.648853e-014
-7.938050e-014
-1.962318e-013
-4.384141e-013
-9.175711e-013
-1.825803e-012
-3.488365e-012
-6.433211e-012
-1.149150e-011
-1.992559e-011
-3.358874e-011
-5.510586e-011
-8.805686e-011
-1.371388e-010
-2.082643e-010
-3.085524e-010
-4.461688e-010
-6.299782e-010
-8.689999e-010
-1.171684e-009
-1.545072e-009
-1.993927e-009
-2.519950e-009
-3.121194e-009
-3.791769e-009
-4.521883e-009
-5.298205e-009
-6.104526e-009
-6.922587e-009
-7.733009e-009
-8.516201e-009
-9.253181e-009
-9.926246e-009
-1.051950e-008
-1.101919e-008
-1.141397e-008
-1.169501e-008
-1.185608e-008
-1.189355e-008
-1.180647e-008
-1.159652e-008
-1.126809e-008
-1.082826e-008
-1.028677e-008
-9.655985e-009
-8.950675e-009
-8.187755e-009
-7.385834e-009
-6.564597e-009
-5.744041e-009
-4.943567e-009
-4.181024e-009
-3.471769e-009
-2.827876e-009
-2.257575e-009
-1.765015e-009
-1.350385e-009
-1.010358e-009
-7.388173e-010
-5.277239e-010
-3.680217e-010
-2.504662e-010
-1.662888e-010
-1.076601e-010
-6.794664e-011
-4.178604e-011
-2.502957e-011
-1.459459e-011
-8.277595e-012
-4.561924e-012
-2.439004e-012
-1.262382e-012
-6.302442e-013
-3.016388e-013
-1.373977e-013
-5.834138e-014
-2.236324e-014
-7.027768e-015
-1.332399e-015
7.690690e-016
1.004165e-015
8.480396e-016
5.573785e-016
3.050576e-016
2.456704e-016
8.767506e-017
1.003060e-016
-6.090130e-017
3.360658e-016
3.999253e-016
5.787373e-016
9.733598e-016
1.388230e-015
2.134635e-015
3.195622e-015
4.259983e-015
4.856742e-015
2.889579e-015
-6.146718e-015
-3.219194e-014
-9.687113e-014
-2.424269e-013
-5.507460e-013
-1.173055e-012
-2.379947e-012
-4.640016e-012
-8.737072e-012
-1.594175e-011
-2.824361e-011
-4.865525e-011
-8.157744e-011
-1.332077e-010
-2.119455e-010
-3.287181e-010
-4.971355e-010
-7.333568e-010
-1.055569e-009
-1.482999e-009
-2.034465e-009
-2.726543e-009
-3.571556e-009
-4.575638e-009
-5.737207e-009
-7.046104e-009
-8.483577e-009
-1.002314e-008
-1.163216e-008
-1.327394e-008
-1.490999e-008
-1.650210e-008
-1.801418e-008
-1.941349e-008
-2.067149e-008
-2.176413e-008
-2.267188e-008
-2.337951e-008
-2.387580e-008
-2.415324e-008
-2.420774e-008
-2.403856e-008
-2.364821e-008
-2.304260e-008
-2.223118e-008
-2.122724e-008
-2.004816e-008
-1.871569e-008
-1.725603e-008
-1.569968e-008
-1.408094e-008
-1.243690e-008
-1.080596e-008
-9.225948e-009
-7.731906e-009
-6.353876e-009
-5.114977e-009
-4.030080e-009
-3.105290e-009
-2.338334e-009
-1.719758e-009
-1.234713e-009
-8.650073e-010
-5.911193e-010
-3.939151e-010
-2.559113e-010
-1.620436e-010
-9.998270e-011
-6.009722e-011
-3.517800e-011
-2.004388e-011
-1.110957e-011
-5.984313e-012
-3.128097e-012
-1.583390e-012
-7.734989e-013
-3.626562e-013
-1.617073e-013
-6.765852e-014
-2.557826e-014
-7.968896e-015
-1.472004e-015
6.230947e-016
9.592516e-016
8.493135e-016
5.228874e-016
3.482766e-016
2.488688e-016
6.009566e-017
1.086815e-016
5.734925e-016
6.765730e-016
1.044917e-015
1.508237e-015
2.307227e-015
3.466483e-015
4.593985e-015
5.264225e-015
3.118494e-015
-6.763927e-015
-3.641447e-014
-1.113299e-013
-2.836978e-013
-6.567657e-013
-1.426526e-012
-2.953673e-012
-5.879758e-012
-1.131002e-011
-2.108845e-011
-3.818948e-011
-6.725411e-011
-1.152741e-010
-1.924057e-010
-3.128495e-010
-4.956695e-010
-7.653613e-010
-1.151919e-009
-1.690116e-009
-2.417757e-009
-3.372766e-009
-4.589205e-009
-6.092580e-009
-7.895123e-009
-9.991888e-009
-1.235854e-008
-1.495150e-008
-1.771052e-008
-2.056357e-008
-2.343299e-008
-2.624208e-008
-2.892087e-008
-3.141053e-008
-3.366573e-008
-3.565510e-008
-3.736011e-008
-3.877274e-008
-3.989272e-008
-4.072459e-008
-4.127511e-008
-4.155122e-008
-4.155848e-008
-4.130028e-008
-4.077753e-008
-3.998892e-008
-3.893182e-008
-3.760375e-008
-3.600440e-008
-3.413818e-008
-3.201703e-008
-2.966307e-008
-2.711068e-008
-2.440735e-008
-2.161288e-008
-1.879664e-008
-1.603292e-008
-1.339497e-008
-1.094851e-008
-8.745954e-009
-6.822211e-009
-5.192886e-009
-3.855023e-009
-2.790035e-009
-1.968049e-009
-1.352768e-009
-9.059750e-010
-5.911190e-010
-3.757240e-010
-2.326311e-010
-1.402918e-010
-8.239589e-011
-4.711861e-011
-2.622686e-011
-1.420101e-011
-7.473807e-012
-3.817793e-012
-1.888978e-012
-9.021579e-013
-4.137973e-013
-1.805428e-013
-7.382033e-014
-2.739978e-014
-8.368953e-015
-1.452529e-015
6.890956e-016
9.441406e-016
8.143751e-016
5.658082e-016
2.446404e-016
2.897568e-016
7.089703e-017
9.688875e-016
1.257028e-015
1.729171e-015
2.507506e-015
3.589241e-015
4.890393e-015
5.664635e-015
3.621551e-015
-6.645478e-015
-3.838780e-014
-1.208032e-013
-3.148518e-013
-7.445402e-013
-1.651463e-012
-3.492191e-012
-7.102044e-012
-1.396102e-011
-2.660859e-011
-4.926522e-011
-8.871244e-011
-1.554785e-010
-2.653275e-010
-4.409798e-010
-7.138665e-010
-1.125572e-009
-1.728428e-009
-2.584590e-009
-3.762852e-009
-5.332641e-009
-7.355044e-009
-9.871511e-009
-1.289179e-008
-1.638348e-008
-2.026604e-008
-2.441150e-008
-2.865301e-008
-3.280073e-008
-3.666238e-008
-4.006520e-008
-4.287525e-008
-4.501093e-008
-4.644903e-008
-4.722301e-008
-4.741470e-008
-4.714153e-008
-4.654160e-008
-4.575877e-008
-4.492922e-008
-4.417063e-008
-4.357402e-008
-4.319822e-008
-4.306676e-008
-4.316660e-008
-4.344888e-008
-4.383174e-008
-4.420553e-008
-4.444083e-008
-4.439947e-008
-4.394812e-008
-4.297358e-008
-4.139793e-008
-3.919138e-008
-3.638020e-008
-3.304773e-008
-2.932731e-008
-2.538766e-008
-2.141280e-008
-1.758002e-008
-1.404002e-008
-1.090266e-008
-8.230421e-009
-6.039840e-009
-4.309144e-009
-2.989555e-009
-2.017338e-009
-1.324394e-009
-8.461058e-010
-5.261236e-010
-3.184735e-010
-1.876824e-010
-1.076830e-010
-6.014607e-011
-3.269647e-011
-1.729095e-011
-8.888354e-012
-4.435331e-012
-2.144062e-012
-1.000721e-012
-4.483063e-013
-1.911563e-013
-7.622093e-014
-2.745864e-014
-8.166925e-015
-1.367378e-015
6.176060e-016
9.346538e-016
7.323146e-016
5.875194e-016
2.617573e-016
2.462803e-016
1.628462e-015
2.075478e-015
2.726447e-015
3.814688e-015
5.323613e-015
6.087596e-015
4.552298e-015
-5.521214e-015
-3.786095e-014
-1.240000e-013
-3.319407e-013
-8.032415e-013
-1.821271e-012
-3.936134e-012
-8.180890e-012
-1.643808e-011
-3.203013e-011
-6.064001e-011
-1.116689e-010
-2.001510e-010
-3.492753e-010
-5.934678e-010
-9.817567e-010
-1.580821e-009
-2.476675e-009
-3.773436e-009
-5.587248e-009
-8.033405e-009
-1.120549e-008
-1.514711e-008
-1.981966e-008
-2.507241e-008
-3.062353e-008
-3.606036e-008
-4.086432e-008
-4.446035e-008
-4.628461e-008
-4.585927e-008
-4.286070e-008
-3.716926e-008
-2.889253e-008
-1.835994e-008
-6.091964e-009
7.249205e-009
2.091859e-008
3.414866e-008
4.620426e-008
5.642811e-008
6.427532e-008
6.933762e-008
7.135876e-008
7.024336e-008
6.606051e-008
5.904269e-008
4.957913e-008
3.820180e-008
2.556170e-008
1.239361e-008
-5.312717e-010
-1.246296e-008
-2.273593e-008
-3.083064e-008
-3.642409e-008
-3.941996e-008
-3.995117e-008
-3.835224e-008
-3.510462e-008
-3.076466e-008
-2.588735e-008
-2.096022e-008
-1.635823e-008
-1.232475e-008
-8.977100e-009
-6.329613e-009
-4.325310e-009
-2.867551e-009
-1.846060e-009
-1.154888e-009
-7.025021e-010
-4.156848e-010
-2.393483e-010
-1.341320e-010
-7.316299e-011
-3.883743e-011
-2.005560e-011
-1.006753e-011
-4.906022e-012
-2.316030e-012
-1.055522e-012
-4.616959e-013
-1.921157e-013
-7.457400e-014
-2.602784e-014
-7.383399e-015
-9.774452e-016
8.029910e-016
9.232697e-016
6.842709e-016
4.975712e-016
4.014703e-016
2.721717e-015
3.237242e-015
4.301711e-015
5.639278e-015
6.690859e-015
5.581924e-015
-3.606026e-015
-3.480039e-014
-1.200818e-013
-3.324277e-013
-8.252852e-013
-1.914833e-012
-4.231241e-012
-8.989891e-012
-1.846631e-011
-3.679000e-011
-7.122573e-011
-1.341431e-010
-2.459064e-010
-4.388604e-010
-7.624400e-010
-1.289073e-009
-2.119904e-009
-3.388391e-009
-5.258454e-009
-7.912448e-009
-1.152327e-008
-1.620565e-008
-2.194535e-008
-2.851217e-008
-3.537240e-008
-4.162483e-008
-4.598788e-008
-4.685913e-008
-4.245415e-008
-3.101116e-008
-1.102981e-008
1.849841e-008
5.791019e-008
1.067718e-007
1.638753e-007
2.273236e-007
2.946846e-007
3.631857e-007
4.299199e-007
4.920373e-007
5.469078e-007
5.922460e-007
6.261979e-007
6.473975e-007
6.549989e-007
6.486944e-007
6.287228e-007
5.958708e-007
5.514634e-007
4.973374e-007
4.357876e-007
3.694778e-007
3.013088e-007
2.342456e-007
1.711116e-007
1.143695e-007
6.591645e-008
2.692675e-008
-2.229042e-009
-2.196684e-008
-3.337174e-008
-3.799845e-008
-3.762613e-008
-3.401411e-008
-2.870258e-008
-2.288798e-008
-1.738169e-008
-1.263959e-008
-8.836768e-009
-5.958549e-009
-3.884576e-009
-2.453209e-009
-1.502974e-009
-8.942879e-010
-5.172154e-010
-2.909326e-010
-1.592254e-010
-8.480350e-011
-4.395254e-011
-2.216038e-011
-1.086097e-011
-5.167670e-012
-2.381462e-012
-1.059122e-012
-4.519256e-013
-1.830364e-013
-6.898615e-014
-2.327717e-014
-6.211838e-015
-5.460953e-016
9.405762e-016
9.070337e-016
8.110005e-016
5.615527e-016
4.515055e-015
5.048876e-015
6.313056e-015
7.470184e-015
6.826154e-015
-9.879484e-016
-2.915048e-014
-1.102391e-013
-3.164835e-013
-8.077989e-013
-1.919888e-012
-4.339985e-012
-9.427856e-012
-1.979839e-011
-4.032920e-011
-7.983984e-011
-1.537819e-010
-2.883323e-010
-5.262884e-010
-9.349697e-010
-1.615803e-009
-2.714154e-009
-4.425960e-009
-6.994605e-009
-1.068735e-008
-1.573659e-008
-2.223012e-008
-2.994027e-008
-3.809844e-008
-4.514816e-008
-4.853884e-008
-4.464054e-008
-2.885357e-008
4.049132e-009
5.936574e-008
1.417744e-007
2.546272e-007
3.993595e-007
5.751196e-007
7.786753e-007
1.004599e-006
1.245677e-006
1.493470e-006
1.738925e-006
1.972968e-006
2.187008e-006
2.373341e-006
2.525419e-006
2.638025e-006
2.707366e-006
2.731113e-006
2.708421e-006
2.639945e-006
2.527857e-006
2.375850e-006
2.189118e-006
1.974276e-006
1.739180e-006
1.492641e-006
1.243987e-006
1.002516e-006
7.768555e-007
5.743013e-007
4.002338e-007
2.577036e-007
1.472743e-007
6.717057e-008
1.371687e-008
-1.800474e-008
-3.340348e-008
-3.767675e-008
-3.527705e-008
-2.961792e-008
-2.302046e-008
-1.684527e-008
-1.172514e-008
-7.816801e-009
-5.015531e-009
-3.108068e-009
-1.864816e-009
-1.085262e-009
-6.134017e-010
-3.370249e-010
-1.801144e-010
-9.365943e-011
-4.739069e-011
-2.332652e-011
-1.116084e-011
-5.183462e-012
-2.331233e-012
-1.011179e-012
-4.203109e-013
-1.652918e-013
-6.036116e-014
-1.930388e-014
-4.692843e-015
-1.294771e-016
1.020834e-015
1.011470e-015
9.690230e-016
6.692404e-015
7.479793e-015
8.518025e-015
8.320280e-015
2.085575e-015
-2.217728e-014
-9.513234e-014
-2.862378e-013
-7.535338e-013
-1.837000e-012
-4.249524e-012
-9.439531e-012
-2.026506e-011
-4.220089e-011
-8.542283e-011
-1.682585e-010
-3.226521e-010
-6.023454e-010
-1.094327e-009
-1.933368e-009
-3.317697e-009
-5.520215e-009
-8.883199e-009
-1.377454e-008
-2.047150e-008
-2.892904e-008
-3.839495e-008
-4.686588e-008
-5.044297e-008
-4.272897e-008
-1.447672e-008
4.629169e-008
1.535495e-007
3.219134e-007
5.648463e-007
8.927196e-007
1.311091e-006
1.819509e-006
2.411048e-006
3.072592e-006
3.785790e-006
4.528465e-006
5.276246e-006
6.004177e-006
6.688155e-006
7.306050e-006
7.838508e-006
8.269430e-006
8.586200e-006
8.779752e-006
8.844553e-006
8.778573e-006
8.583309e-006
8.263846e-006
7.828961e-006
7.291205e-006
6.666874e-006
5.975782e-006
5.240749e-006
4.486724e-006
3.739536e-006
3.024319e-006
2.363751e-006
1.776298e-006
1.274748e-006
8.652810e-007
5.472972e-007
3.140740e-007
1.541804e-007
5.339266e-008
-3.251879e-009
-2.964969e-008
-3.737143e-008
-3.508056e-008
-2.857471e-008
-2.125718e-008
-1.479677e-008
-9.771137e-009
-6.174385e-009
-3.754835e-009
-2.206033e-009
-1.255461e-009
-6.933521e-010
-3.720529e-010
-1.941392e-010
-9.855633e-011
-4.868236e-011
-2.339139e-011
-1.092446e-011
-4.951471e-012
-2.172287e-012
-9.183304e-013
-3.715896e-013
-1.416965e-013
-4.986530e-014
-1.496788e-014
-3.075932e-015
3.819411e-016
1.239179e-015
1.169329e-015
9.604693e-015
1.028755e-014
1.015845e-014
5.567612e-015
-1.443897e-014
-7.673672e-014
-2.459858e-013
-6.702528e-013
-1.678060e-012
-3.974178e-012
-9.027284e-012
-1.980991e-011
-4.216672e-011
-8.725521e-011
-1.757296e-010
-3.446078e-010
-6.579628e-010
-1.222508e-009
-2.208291e-009
-3.872149e-009
-6.575578e-009
-1.077678e-008
-1.695600e-008
-2.540373e-008
-3.577111e-008
-4.627413e-008
-5.249276e-008
-4.584210e-008
-1.199943e-008
7.022445e-008
2.289976e-007
4.981144e-007
9.140624e-007
1.511829e-006
2.320139e-006
3.357002e-006
4.626375e-006
6.116495e-006
7.800054e-006
9.636077e-006
1.157307e-005
1.355285e-005
1.551456e-005
1.739820e-005
1.914768e-005
2.071286e-005
2.205091e-005
2.312687e-005
2.391381e-005
2.439255e-005
2.455141e-005
2.438601e-005
2.389923e-005
2.310146e-005
2.201096e-005
2.065437e-005
1.906697e-005
1.729270e-005
1.538347e-005
1.339772e-005
1.139800e-005
9.447715e-006
7.607026e-006
5.928533e-006
4.453124e-006
3.206744e-006
2.198666e-006
1.421715e-006
8.545051e-007
4.653866e-007
2.173915e-007
7.324261e-008
-5.121644e-010
-3.088041e-008
-3.751420e-008
-3.323680e-008
-2.544627e-008
-1.778893e-008
-1.165080e-008
-7.251685e-009
-4.326772e-009
-2.488433e-009
-1.384481e-009
-7.469344e-010
-3.913829e-010
-1.993846e-010
-9.881123e-011
-4.764548e-011
-2.234653e-011
-1.018593e-011
-4.504234e-012
-1.926673e-012
-7.933271e-013
-3.116470e-013
-1.150617e-013
-3.862852e-014
-1.072320e-014
-1.528748e-015
9.695787e-016
1.661584e-015
1.322117e-014