# vtk DataFile Version 3.0
vtk output
ASCII
DATASET STRUCTURED_POINTS
DIMENSIONS 100 100 1
SPACING 1 1 1
ORIGIN 0 0 0
POINT_DATA 10000
SCALARS SFBox_profile double
LOOKUP_TABLE default 
0.000000e+000
0.000000e+000
0.000000e+000
0.000000e+000
0.000000e+000
0.000000e+000
0.000000e+000
0.000000e+000
0.000000e+000
0.000000e+000
0.000000e+000
0.000000e+000
0.000000e+000
0.000000e+000
0.000000e+000
0.000000e+000
0.000000e+000
0.000000e+000
0.000000e+000
0.000000e+000
0.000000e+000
0.000000e+000
0.000000e+000
0.000000e+000
0.000000e+000
0.000000e+000
0.000000e+000
0.000000e+000
0.000000e+000
0.000000e+000
0.000000e+000
0.000000e+000
0.000000e+000
0.000000e+000
0.000000e+000
0.000000e+000
0.000000e+000
0.000000e+000
0.000000e+000
0.000000e+000
0.000000e+000
0.000000e+000
0.000000e+000
0.000000e+000
0.000000e+000
0.000000e+000
0.000000e+000
0.000000e+000
0.000000e+000
0.000000e+000
0.000000e+000
0.000000e+000
0.000000e+000
0.000000e+000
0.000000e+000
0.000000e+000
0.000000e+000
0.000000e+000
0.000000e+000
0.000000e+000
0.000000e+000
0.000000e+000
0.000000e+000
0.000000e+000
0.000000e+000
0.000000e+000
0.000000e+000
0.000000e+000
0.000000e+000
0.000000e+000
0.000000e+000
0.000000e+000
0.000000e+000
0.000000e+000
0.000000e+000
0.000000e+000
0.000000e+000
0.000000e+000
0.000000e+000
0.000000e+000
0.000000e+000
0.000000e+000
0.000000e+000
0.000000e+000
0.000000e+000
0.000000e+000
0.000000e+000
0.000000e+000
0.000000e+000
0.000000e+000
0.000000e+000
0.000000e+000
0.000000e+000
0.000000e+000
0.000000e+000
0.000000e+000
0.000000e+000
0.000000e+000
0.000000e+000
0.000000e+000
-3.351604e-010
-1.823822e-010
3.137312e-011
1.898463e-010
2.204477e-010
1.332869e-010
7.951785e-012
-6.307895e-011
-3.701817e-011
5.275419e-011
1.243921e-010
1.097321e-010
4.815112e-012
-1.283674e-010
-2.091253e-010
-1.970087e-010
-1.168140e-010
-3.187917e-011
1.022294e-011
1.443988e-011
2.806850e-011
9.342616e-011
2.044195e-010
3.041193e-010
3.259060e-010
2.449159e-010
9.753318e-011
-4.702685e-011
-1.389040e-010
-1.799404e-010
-2.104921e-010
-2.653346e-010
-3.391796e-010
-3.920303e-010
-3.873298e-010
-3.259152e-010
-2.446812e-010
-1.835514e-010
-1.529041e-010
-1.313023e-010
-9.223564e-011
-3.159422e-011
3.035726e-011
7.137516e-011
8.861998e-011
9.779414e-011
1.139276e-010
1.356674e-010
1.495107e-010
1.475274e-010
1.371372e-010
1.316382e-010
1.329005e-010
1.271797e-010
9.982129e-011
5.343213e-011
8.381651e-012
-1.746035e-011
-2.897096e-011
-5.084479e-011
-1.017617e-010
-1.705616e-010
-2.202801e-010
-2.192431e-010
-1.700984e-010
-1.076918e-010
-6.628583e-011
-4.663074e-011
-1.551015e-011
5.945058e-011
1.715904e-010
2.704077e-010
2.969690e-010
2.298747e-010
1.025682e-010
-2.278042e-011
-1.013245e-010
-1.320727e-010
-1.447209e-010
-1.618791e-010
-1.725867e-010
-1.418830e-010
-4.805133e-011
8.530082e-011
1.928691e-010
2.087601e-010
1.152869e-010
-3.797959e-011
-1.618955e-010
-1.847255e-010
-9.853512e-011
3.734823e-011
1.373922e-010
1.462225e-010
7.150947e-011
-2.762517e-011
-8.502326e-011
-7.210785e-011
-1.302550e-011
3.783929e-011
-5.987637e-011
-4.212817e-011
-1.343044e-011
1.484686e-011
3.069456e-011
2.862911e-011
1.507376e-011
5.507948e-012
1.276576e-011
3.461409e-011
5.217499e-011
4.378654e-011
4.361630e-012
-4.644035e-011
-7.654244e-011
-6.616570e-011
-2.463741e-011
1.612323e-011
2.714223e-011
5.811304e-012
-2.294419e-011
-2.930069e-011
-5.249980e-012
2.803785e-011
3.878181e-011
1.326178e-011
-3.076093e-011
-5.822597e-011
-4.641211e-011
-4.022410e-012
3.716172e-011
5.019793e-011
3.538874e-011
1.729866e-011
2.013951e-011
4.528032e-011
7.156559e-011
7.646209e-011
5.702017e-011
3.077883e-011
1.759487e-011
2.136989e-011
2.921852e-011
2.697414e-011
1.351193e-011
-2.683343e-013
-4.584044e-012
-1.058732e-012
8.076392e-013
-3.931823e-012
-9.479246e-012
-6.605484e-012
5.308389e-012
1.610229e-011
1.569094e-011
6.572513e-012
3.251673e-012
1.716192e-011
4.249827e-011
5.912303e-011
5.138076e-011
2.468984e-011
2.127500e-012
2.535161e-012
2.114105e-011
3.264000e-011
1.514617e-011
-2.708372e-011
-6.440935e-011
-6.683408e-011
-3.059351e-011
1.826968e-011
4.664310e-011
4.262467e-011
2.405629e-011
1.972883e-011
4.096585e-011
6.955552e-011
7.275358e-011
3.232960e-011
-3.737146e-011
-9.779816e-011
-1.137849e-010
-7.855960e-011
-1.701034e-011
3.379446e-011
5.014813e-011
3.440796e-011
7.643214e-012
-9.030043e-012
-8.412988e-012
2.533991e-012
1.251325e-011
1.547649e-011
1.262180e-011
7.570633e-012
1.866465e-012
-4.857515e-012
-1.207125e-011
-1.705797e-011
2.456266e-010
1.141682e-010
-6.155484e-011
-1.760091e-010
-1.728011e-010
-7.527393e-011
3.751085e-011
8.950681e-011
5.828335e-011
-1.706076e-011
-7.204067e-011
-6.575571e-011
-5.657936e-012
6.650453e-011
1.104618e-010
1.138301e-010
9.083906e-011
6.096808e-011
2.983750e-011
-1.176317e-011
-7.329619e-011
-1.501375e-010
-2.221046e-010
-2.645913e-010
-2.621087e-010
-2.140761e-010
-1.312103e-010
-2.817477e-011
8.146704e-011
1.861508e-010
2.757363e-010
3.422721e-010
3.820562e-010
3.963197e-010
3.890562e-010
3.639050e-010
3.231983e-010
2.697331e-010
2.088531e-010
1.476800e-010
9.187204e-011
4.304289e-011
-4.060659e-013
-3.986219e-011
-7.435544e-011
-1.017630e-010
-1.214051e-010
-1.350754e-010
-1.449971e-010
-1.508601e-010
-1.498931e-010
-1.402261e-010
-1.235530e-010
-1.036673e-010
-8.231361e-011
-5.659146e-011
-2.133391e-011
2.504711e-011
7.719842e-011
1.257897e-010
1.640020e-010
1.912485e-010
2.103258e-010
2.208008e-010
2.156616e-010
1.854443e-010
1.264614e-010
4.576942e-011
-4.149629e-011
-1.197306e-010
-1.782957e-010
-2.108862e-010
-2.116989e-010
-1.746611e-010
-9.836770e-011
6.812732e-012
1.168522e-010
2.011077e-010
2.345360e-010
2.075163e-010
1.280758e-010
1.751278e-011
-9.549643e-011
-1.798329e-010
-2.076792e-010
-1.641757e-010
-5.927303e-011
6.758182e-011
1.595243e-010
1.706351e-010
9.558996e-011
-2.151852e-011
-1.108398e-010
-1.208797e-010
-5.305859e-011
3.934709e-011
8.952492e-011
6.547105e-011
-7.845313e-012
-6.922450e-011
3.173935e-010
1.570120e-010
-6.086609e-011
-2.077939e-010
-2.090171e-010
-8.728103e-011
5.679754e-011
1.160368e-010
5.162798e-011
-8.130836e-011
-1.765495e-010
-1.560411e-010
-2.582125e-011
1.327753e-010
2.264246e-010
2.156578e-010
1.329046e-010
4.468257e-011
-5.405259e-012
-2.548320e-011
-5.661117e-011
-1.278177e-010
-2.248746e-010
-2.974652e-010
-2.967057e-010
-2.114902e-010
-7.565974e-011
5.738931e-011
1.510109e-010
2.040357e-010
2.399027e-010
2.788381e-010
3.182798e-010
3.371112e-010
3.173082e-010
2.619683e-010
1.937479e-010
1.365690e-010
9.815889e-011
6.846542e-011
3.348861e-011
-9.958325e-012
-5.217698e-011
-8.135339e-011
-9.528731e-011
-1.024957e-010
-1.125550e-010
-1.266708e-010
-1.379046e-010
-1.396990e-010
-1.332350e-010
-1.257851e-010
-1.220469e-010
-1.183042e-010
-1.062162e-010
-8.192890e-011
-5.045313e-011
-2.031244e-011
6.142538e-012
3.595006e-011
7.758050e-011
1.293294e-010
1.764400e-010
2.012568e-010
1.973830e-010
1.740639e-010
1.456376e-010
1.158344e-010
7.296883e-011
2.499530e-012
-9.332168e-011
-1.875271e-010
-2.418175e-010
-2.319947e-010
-1.646146e-010
-7.115700e-011
1.516794e-011
7.996416e-011
1.283602e-010
1.671196e-010
1.865934e-010
1.618375e-010
7.565492e-011
-5.505235e-011
-1.748496e-010
-2.177891e-010
-1.521841e-010
-9.190513e-012
1.298865e-010
1.835274e-010
1.240757e-010
-3.356483e-012
-1.124588e-010
-1.355956e-010
-6.858369e-011
3.114366e-011
8.991830e-011
7.172861e-011
1.217584e-012
-5.919879e-011
1.124509e-010
7.123068e-011
7.553319e-012
-4.728869e-011
-6.238427e-011
-2.942161e-011
2.323303e-011
4.462919e-011
1.051659e-012
-8.899934e-011
-1.595155e-010
-1.456042e-010
-3.907269e-011
9.799880e-011
1.776102e-010
1.536319e-010
5.622350e-011
-3.564020e-011
-5.910947e-011
-1.476294e-011
4.177909e-011
5.288422e-011
9.091062e-012
-4.540131e-011
-5.409761e-011
8.939374e-013
8.196223e-011
1.264638e-010
9.789779e-011
1.417757e-011
-6.993239e-011
-1.094572e-010
-1.037256e-010
-8.989935e-011
-1.041702e-010
-1.477207e-010
-1.878879e-010
-1.907519e-010
-1.526742e-010
-1.016151e-010
-6.938040e-011
-6.336396e-011
-6.446482e-011
-5.030967e-011
-1.847831e-011
1.310699e-011
2.670766e-011
2.292404e-011
1.770979e-011
2.320556e-011
3.410854e-011
3.436132e-011
1.629386e-011
-9.701131e-012
-2.635209e-011
-2.929590e-011
-3.307485e-011
-5.532154e-011
-9.500091e-011
-1.287396e-010
-1.314884e-010
-1.016952e-010
-6.451069e-011
-4.765734e-011
-5.292839e-011
-5.240526e-011
-1.565455e-011
5.680691e-011
1.266968e-010
1.467992e-010
1.008255e-010
1.797879e-011
-5.160165e-011
-7.862260e-011
-7.588561e-011
-8.017629e-011
-1.116567e-010
-1.485159e-010
-1.416008e-010
-5.831313e-011
8.138517e-011
2.088987e-010
2.510347e-010
1.815430e-010
4.080445e-011
-9.131423e-011
-1.486437e-010
-1.185079e-010
-4.114364e-011
2.593619e-011
4.820783e-011
2.970471e-011
-1.803612e-012
-2.138696e-011
-2.219036e-011
-1.194684e-011
-5.519997e-013
7.588476e-012
1.261475e-011
1.521723e-011
-1.596703e-010
-3.990840e-011
1.036007e-010
1.661421e-010
1.138534e-010
6.345251e-013
-8.519457e-011
-9.398117e-011
-4.562772e-011
1.954192e-012
1.055026e-011
-1.006469e-011
-2.491094e-011
-1.783813e-011
-8.847961e-012
-2.771747e-011
-7.395825e-011
-1.069694e-010
-7.921179e-011
1.853319e-011
1.439146e-010
2.351492e-010
2.593119e-010
2.333162e-010
1.999373e-010
1.827505e-010
1.623240e-010
9.575257e-011
-3.832648e-011
-2.111810e-010
-3.595869e-010
-4.333128e-010
-4.323951e-010
-4.008524e-010
-3.835678e-010
-3.868399e-010
-3.784663e-010
-3.247503e-010
-2.269486e-010
-1.219900e-010
-4.861397e-011
-1.371288e-011
8.498708e-012
4.628044e-011
1.015532e-010
1.509892e-010
1.732031e-010
1.714470e-010
1.680083e-010
1.781694e-010
1.932395e-010
1.911918e-010
1.626159e-010
1.223434e-010
9.296958e-011
7.809096e-011
5.556880e-011
3.812197e-013
-8.585413e-011
-1.709126e-010
-2.202529e-010
-2.299506e-010
-2.296841e-010
-2.504523e-010
-2.883708e-010
-3.019030e-010
-2.484014e-010
-1.266581e-010
1.550243e-011
1.172037e-010
1.516737e-010
1.415150e-010
1.291031e-010
1.313257e-010
1.222318e-010
6.041650e-011
-6.357368e-011
-2.037222e-010
-2.824693e-010
-2.446827e-010
-9.882961e-011
8.629631e-011
2.251349e-010
2.651412e-010
2.081625e-010
9.525688e-011
-2.476711e-011
-1.165684e-010
-1.601184e-010
-1.455653e-010
-7.645567e-011
2.048342e-011
9.681871e-011
1.072350e-010
4.469836e-011
-4.601239e-011
-9.626149e-011
-6.653059e-011
1.953520e-011
9.214684e-011
-2.372377e-010
-6.441049e-011
1.471464e-010
2.419087e-010
1.552183e-010
-4.271151e-011
-2.021563e-010
-2.069607e-010
-5.954225e-011
1.270353e-010
2.203767e-010
1.669144e-010
1.923568e-011
-1.205179e-010
-1.833135e-010
-1.706435e-010
-1.262169e-010
-8.203796e-011
-3.372708e-011
3.844682e-011
1.340528e-010
2.224314e-010
2.665170e-010
2.535372e-010
2.011717e-010
1.354638e-010
6.529755e-011
-1.993468e-011
-1.279472e-010
-2.412934e-010
-3.210382e-010
-3.363000e-010
-2.919350e-010
-2.260024e-010
-1.773459e-010
-1.533272e-010
-1.285583e-010
-7.537976e-011
4.800252e-012
8.083479e-011
1.217671e-010
1.263294e-010
1.221056e-010
1.363610e-010
1.695059e-010
1.980669e-010
2.022864e-010
1.876931e-010
1.777800e-010
1.870570e-010
2.049660e-010
2.084093e-010
1.887484e-010
1.625307e-010
1.530441e-010
1.623276e-010
1.650515e-010
1.330368e-010
6.558861e-011
-7.146278e-012
-5.321533e-011
-7.124810e-011
-9.197672e-011
-1.453726e-010
-2.256226e-010
-2.897724e-010
-2.933424e-010
-2.294011e-010
-1.337404e-010
-5.187225e-011
-1.336130e-013
4.203149e-011
1.023417e-010
1.787117e-010
2.318222e-010
2.152801e-010
1.165890e-010
-2.723154e-011
-1.522465e-010
-2.083043e-010
-1.847804e-010
-1.054647e-010
-4.702226e-012
9.043064e-011
1.596152e-010
1.812794e-010
1.366518e-010
2.967229e-011
-9.693063e-011
-1.747950e-010
-1.538757e-010
-4.532733e-011
7.718049e-011
1.278422e-010
7.495354e-011
-3.242625e-011
-1.033393e-010
-7.972696e-011
1.562483e-011
9.939105e-011
-4.789640e-011
8.286491e-012
7.872855e-011
1.030944e-010
4.057866e-011
-8.951759e-011
-2.024549e-010
-2.010552e-010
-5.701590e-011
1.500583e-010
2.817881e-010
2.466123e-010
7.296590e-011
-1.150945e-010
-1.981406e-010
-1.492581e-010
-3.798658e-011
4.211882e-011
5.001839e-011
1.352456e-011
-1.494006e-011
-1.160047e-011
4.735320e-012
1.096734e-012
-3.406785e-011
-8.162738e-011
-1.115074e-010
-1.074130e-010
-7.334346e-011
-2.108234e-011
4.339184e-011
1.194282e-010
2.008862e-010
2.712677e-010
3.134767e-010
3.249187e-010
3.204667e-010
3.177714e-010
3.194961e-010
3.118786e-010
2.817843e-010
2.340131e-010
1.896001e-010
1.661506e-010
1.611019e-010
1.560713e-010
1.377047e-010
1.122444e-010
9.797203e-011
1.042006e-010
1.205337e-010
1.286354e-010
1.236452e-010
1.209414e-010
1.397824e-010
1.809375e-010
2.230265e-010
2.427695e-010
2.380816e-010
2.290777e-010
2.350928e-010
2.514847e-010
2.510067e-010
2.093761e-010
1.294628e-010
3.985655e-011
-3.031881e-011
-7.447348e-011
-1.067335e-010
-1.389726e-010
-1.619068e-010
-1.505276e-010
-8.907045e-011
9.454793e-012
1.084725e-010
1.722027e-010
1.861933e-010
1.571321e-010
9.727549e-011
1.356870e-011
-8.569117e-011
-1.759609e-010
-2.154942e-010
-1.692853e-010
-4.255091e-011
1.076315e-010
2.007795e-010
1.858252e-010
7.824605e-011
-5.005729e-011
-1.221211e-010
-1.084005e-010
-4.006963e-011
2.342760e-011
4.220187e-011
2.016277e-011
-8.865662e-012
-1.540129e-011
2.116194e-012
2.162104e-011
2.289758e-010
8.473220e-011
-8.016132e-011
-1.471363e-010
-1.043659e-010
-3.619866e-011
-2.218716e-011
-5.551835e-011
-6.254115e-011
5.005804e-012
1.083550e-010
1.576106e-010
1.063844e-010
4.013357e-012
-4.997235e-011
-2.777131e-012
1.002171e-010
1.579218e-010
1.047515e-010
-3.658570e-011
-1.829830e-010
-2.643250e-010
-2.722167e-010
-2.473404e-010
-2.285637e-010
-2.152164e-010
-1.731057e-010
-7.162849e-011
8.519174e-011
2.594837e-010
4.067492e-010
5.031161e-010
5.516581e-010
5.687567e-010
5.671836e-010
5.503871e-010
5.178908e-010
4.716813e-010
4.169609e-010
3.595755e-010
3.049260e-010
2.587019e-010
2.258488e-010
2.068362e-010
1.956671e-010
1.840228e-010
1.688975e-010
1.554674e-010
1.511161e-010
1.564621e-010
1.635680e-010
1.641615e-010
1.594110e-010
1.601392e-010
1.765914e-010
2.083248e-010
2.451982e-010
2.784702e-010
3.095398e-010
3.465292e-010
3.924700e-010
4.382590e-010
4.682268e-010
4.721298e-010
4.502630e-010
4.067146e-010
3.399044e-010
2.434495e-010
1.184813e-010
-1.612932e-011
-1.291806e-010
-1.957407e-010
-2.119954e-010
-1.915140e-010
-1.470875e-010
-7.856452e-011
1.828980e-011
1.294514e-010
2.120492e-010
2.136606e-010
1.123092e-010
-5.546645e-011
-2.066518e-010
-2.609115e-010
-1.919919e-010
-4.269235e-011
1.064101e-010
1.878343e-010
1.797647e-010
1.034845e-010
1.634730e-014
-8.964133e-011
-1.324989e-010
-1.102436e-010
-3.201030e-011
5.911327e-011
1.051013e-010
7.400221e-011
-1.003411e-011
-8.036646e-011
3.263651e-010
6.805921e-011
-2.222784e-010
-3.090800e-010
-1.420187e-010
1.167486e-010
2.452338e-010
1.522381e-010
-6.034633e-011
-2.060639e-010
-1.811931e-010
-3.645565e-011
9.749261e-011
1.401779e-010
1.173276e-010
1.032140e-010
1.263206e-010
1.403341e-010
8.169658e-011
-5.577630e-011
-2.072481e-010
-2.930368e-010
-2.842079e-010
-2.158687e-010
-1.434356e-010
-8.954407e-011
-3.093063e-011
6.807790e-011
2.116414e-010
3.598298e-010
4.575220e-010
4.771681e-010
4.376776e-010
3.854185e-010
3.566716e-010
3.546763e-010
3.578596e-010
3.467693e-010
3.234160e-010
3.077337e-010
3.179842e-010
3.547229e-010
4.016976e-010
4.403811e-010
4.637438e-010
4.780833e-010
4.935157e-010
5.130169e-010
5.298417e-010
5.345283e-010
5.239165e-010
5.034637e-010
4.811454e-010
4.594982e-010
4.344713e-010
4.024046e-010
3.676800e-010
3.421306e-010
3.352306e-010
3.447214e-010
3.584534e-010
3.671980e-010
3.754467e-010
3.970980e-010
4.375004e-010
4.791034e-010
4.875890e-010
4.369531e-010
3.319461e-010
2.056975e-010
9.268321e-011
1.926601e-012
-8.330958e-011
-1.775043e-010
-2.636071e-010
-2.942771e-010
-2.283956e-010
-7.352816e-011
1.047493e-010
2.195382e-010
2.189733e-010
1.180631e-010
-1.761645e-011
-1.196752e-010
-1.554619e-010
-1.307123e-010
-6.618927e-011
1.967603e-011
1.052175e-010
1.540958e-010
1.278088e-010
2.345400e-011
-1.016409e-010
-1.583473e-010
-9.780543e-011
3.628861e-011
1.341464e-010
1.126649e-010
-7.735860e-012
-1.178643e-010
1.235729e-010
-4.358738e-011
-2.239826e-010
-2.437603e-010
-5.020057e-011
2.334073e-010
3.927922e-010
2.929882e-010
-4.460198e-012
-2.850605e-010
-3.554795e-010
-1.959358e-010
4.245454e-011
1.819231e-010
1.622970e-010
5.913591e-011
-1.729807e-011
-2.650937e-011
-9.239485e-012
-1.752088e-011
-5.073561e-011
-6.152926e-011
-1.283041e-011
8.083181e-011
1.679001e-010
2.093918e-010
2.111372e-010
2.092305e-010
2.274127e-010
2.507181e-010
2.414126e-010
1.808770e-010
9.579308e-011
4.226894e-011
6.150281e-011
1.478050e-010
2.580115e-010
3.519189e-010
4.251734e-010
5.054195e-010
6.184522e-010
7.588334e-010
8.927943e-010
9.885103e-010
1.042809e-009
1.079162e-009
1.121125e-009
1.168759e-009
1.200891e-009
1.198903e-009
1.166258e-009
1.123589e-009
1.085340e-009
1.043248e-009
9.751173e-010
8.702597e-010
7.447727e-010
6.295249e-010
5.417643e-010
4.696629e-010
3.873601e-010
2.870940e-010
1.954893e-010
1.547683e-010
1.841805e-010
2.584197e-010
3.253750e-010
3.483161e-010
3.329740e-010
3.133363e-010
3.098097e-010
3.014021e-010
2.412389e-010
1.037599e-010
-7.981863e-011
-2.328437e-010
-2.848813e-010
-2.212025e-010
-8.939228e-011
3.944038e-011
1.188493e-010
1.443484e-010
1.323595e-010
9.063410e-011
1.509935e-011
-8.453626e-011
-1.644883e-010
-1.662716e-010
-6.869311e-011
7.683100e-011
1.724148e-010
1.499531e-010
3.163749e-011
-8.523021e-011
-1.114625e-010
-4.253742e-011
4.361661e-011
6.466101e-011
1.138718e-011
-4.989660e-011
-2.548418e-010
-1.571355e-010
-4.519809e-011
2.402711e-011
7.855453e-011
1.689816e-010
2.684009e-010
2.722907e-010
1.158740e-010
-1.245841e-010
-2.763151e-010
-2.291177e-010
-4.455809e-011
1.011743e-010
8.263318e-011
-6.754215e-011
-2.061324e-010
-2.180301e-010
-1.048475e-010
4.662551e-011
1.606577e-010
2.296630e-010
2.899343e-010
3.614267e-010
4.207334e-010
4.284231e-010
3.734442e-010
2.861926e-010
2.100592e-010
1.644125e-010
1.377900e-010
1.159233e-010
1.119301e-010
1.638763e-010
2.992335e-010
5.020702e-010
7.188706e-010
9.003951e-010
1.039694e-009
1.169304e-009
1.320945e-009
1.488604e-009
1.632101e-009
1.716586e-009
1.746841e-009
1.761562e-009
1.794236e-009
1.841172e-009
1.869041e-009
1.852753e-009
1.803020e-009
1.754464e-009
1.727180e-009
1.702822e-009
1.641647e-009
1.523360e-009
1.368959e-009
1.219925e-009
1.095563e-009
9.731721e-010
8.132044e-010
6.055391e-010
3.897688e-010
2.272916e-010
1.510492e-010
1.414920e-010
1.514942e-010
1.546523e-010
1.682926e-010
2.279107e-010
3.385446e-010
4.523049e-010
4.964659e-010
4.284919e-010
2.689914e-010
8.473083e-011
-6.032436e-011
-1.416816e-010
-1.704884e-010
-1.621768e-010
-1.154282e-010
-2.464229e-011
8.966599e-011
1.713044e-010
1.608952e-010
4.796145e-011
-1.060984e-010
-2.029247e-010
-1.774880e-010
-4.689814e-011
1.030113e-010
1.809667e-010
1.512029e-010
4.775442e-011
-5.974609e-011
-1.146070e-010
-1.005402e-010
-3.867771e-011
3.256005e-011
7.796992e-011
-5.451311e-010
-1.771016e-010
2.186676e-010
3.274025e-010
1.443857e-010
-6.849464e-011
-7.764465e-011
9.549970e-011
2.344981e-010
1.788473e-010
-1.489685e-011
-1.578193e-010
-1.414991e-010
-4.068952e-011
-1.062809e-011
-1.101323e-010
-2.431163e-010
-2.647567e-010
-1.250717e-010
9.560593e-011
2.753313e-010
3.571503e-010
3.726057e-010
3.815597e-010
4.058975e-010
4.216310e-010
4.028658e-010
3.618717e-010
3.440269e-010
3.883600e-010
4.978703e-010
6.481078e-010
8.192920e-010
1.013779e-009
1.239768e-009
1.482251e-009
1.698606e-009
1.848954e-009
1.930912e-009
1.980375e-009
2.034392e-009
2.093561e-009
2.123957e-009
2.097320e-009
2.026837e-009
1.959756e-009
1.933415e-009
1.940605e-009
1.941146e-009
1.907678e-009
1.857025e-009
1.833341e-009
1.860471e-009
1.913831e-009
1.942182e-009
1.916842e-009
1.856659e-009
1.802404e-009
1.767576e-009
1.717845e-009
1.601535e-009
1.400937e-009
1.152334e-009
9.149599e-010
7.212688e-010
5.587814e-010
3.997688e-010
2.456098e-010
1.379797e-010
1.236383e-010
2.073185e-010
3.390596e-010
4.477442e-010
4.882118e-010
4.593195e-010
3.826955e-010
2.715132e-010
1.249260e-010
-4.753286e-011
-2.030701e-010
-2.775346e-010
-2.304744e-010
-8.495771e-011
7.739536e-011
1.676985e-010
1.471119e-010
4.538867e-011
-6.824502e-011
-1.312899e-010
-1.161775e-010
-3.308250e-011
7.746064e-011
1.550647e-010
1.441827e-010
3.510485e-011
-1.098292e-010
-1.855661e-010
-1.254189e-010
3.258178e-011
1.653220e-010
-5.466413e-010
-9.485775e-011
3.838343e-010
4.721444e-010
1.310395e-010
-2.924275e-010
-4.067982e-010
-1.336812e-010
2.502367e-010
4.010366e-010
2.256039e-010
-7.262832e-011
-2.291082e-010
-1.695229e-010
-3.280882e-011
1.587334e-011
-4.184524e-011
-8.940919e-011
-2.517331e-011
1.281722e-010
2.594671e-010
2.890301e-010
2.394797e-010
1.985208e-010
2.311117e-010
3.343265e-010
4.670464e-010
6.079993e-010
7.779539e-010
1.009383e-009
1.302666e-009
1.615969e-009
1.895566e-009
2.111357e-009
2.261625e-009
2.348751e-009
2.360092e-009
2.278555e-009
2.109097e-009
1.886575e-009
1.650856e-009
1.414704e-009
1.161498e-009
8.776326e-010
5.841869e-010
3.309190e-010
1.559994e-010
5.408112e-011
-1.147559e-011
-6.369028e-011
-8.219333e-011
-2.161778e-011
1.403161e-010
3.755886e-010
6.285095e-010
8.641676e-010
1.091509e-009
1.337311e-009
1.600172e-009
1.834571e-009
1.982052e-009
2.016999e-009
1.959773e-009
1.846141e-009
1.688472e-009
1.471164e-009
1.184062e-009
8.561569e-010
5.514282e-010
3.289660e-010
2.068759e-010
1.638627e-010
1.714888e-010
2.187273e-010
3.019557e-010
3.949904e-010
4.395219e-010
3.774572e-010
2.015338e-010
-2.450551e-011
-2.012544e-010
-2.587900e-010
-1.978650e-010
-7.593937e-011
4.182342e-011
1.182001e-010
1.413797e-010
1.064013e-010
1.744134e-011
-8.911377e-011
-1.432672e-010
-9.106303e-011
4.146038e-011
1.471160e-010
1.259382e-010
-1.202579e-011
-1.413812e-010
-1.367617e-010
-2.028777e-013
1.347538e-010
-2.491817e-010
1.200336e-011
3.017725e-010
3.550239e-010
9.307616e-011
-2.886319e-010
-4.674983e-010
-2.794233e-010
1.172205e-010
3.771524e-010
2.886820e-010
-3.542103e-011
-2.840858e-010
-2.507537e-010
-2.717619e-012
2.294549e-010
2.918731e-010
2.219556e-010
1.545288e-010
1.607120e-010
1.974432e-010
1.929403e-010
1.482100e-010
1.436414e-010
2.597136e-010
5.059942e-010
8.259516e-010
1.157358e-009
1.477895e-009
1.793887e-009
2.095072e-009
2.329823e-009
2.427189e-009
2.340867e-009
2.070073e-009
1.640878e-009
1.074490e-009
3.779268e-010
-4.383460e-010
-1.343145e-009
-2.291833e-009
-3.249335e-009
-4.199129e-009
-5.125585e-009
-5.991078e-009
-6.738170e-009
-7.319190e-009
-7.721851e-009
-7.961125e-009
-8.044888e-009
-7.951455e-009
-7.645773e-009
-7.118442e-009
-6.405950e-009
-5.570172e-009
-4.659194e-009
-3.691107e-009
-2.676197e-009
-1.649824e-009
-6.770920e-010
1.769128e-010
8.793879e-010
1.430267e-009
1.833060e-009
2.071911e-009
2.123002e-009
1.988461e-009
1.714262e-009
1.370151e-009
1.011572e-009
6.638640e-010
3.438247e-010
9.014761e-011
-3.901598e-011
-9.218931e-012
1.455049e-010
3.250800e-010
4.209863e-010
3.843604e-010
2.478910e-010
8.697829e-011
-3.942421e-011
-1.145506e-010
-1.427923e-010
-1.195948e-010
-3.631739e-011
8.354072e-011
1.684425e-010
1.431598e-010
4.477418e-012
-1.521424e-010
-2.013273e-010
-1.000559e-010
6.676767e-011
1.614838e-010
1.208307e-010
7.469633e-012
-6.517196e-011
-5.125701e-011
-6.365026e-012
1.938789e-010
6.338370e-011
-2.622979e-011
1.470462e-011
7.110146e-011
-1.002941e-011
-1.899919e-010
-2.617059e-010
-1.101303e-010
1.202067e-010
1.732392e-010
-2.198610e-011
-2.566693e-010
-2.603887e-010
1.727979e-011
3.665797e-010
5.382606e-010
4.703020e-010
2.994426e-010
1.926404e-010
2.033946e-010
2.825072e-010
3.850798e-010
5.341779e-010
7.832428e-010
1.139305e-009
1.536335e-009
1.877845e-009
2.093590e-009
2.151863e-009
2.025639e-009
1.659639e-009
9.782078e-010
-7.391940e-011
-1.500793e-009
-3.264077e-009
-5.317717e-009
-7.630174e-009
-1.017470e-008
-1.290479e-008
-1.574506e-008
-1.860564e-008
-2.139996e-008
-2.404658e-008
-2.645891e-008
-2.854307e-008
-3.021311e-008
-3.140857e-008
-3.209486e-008
-3.224753e-008
-3.184223e-008
-3.086609e-008
-2.934036e-008
-2.732871e-008
-2.492064e-008
-2.220737e-008
-1.927565e-008
-1.622201e-008
-1.316404e-008
-1.022683e-008
-7.512885e-009
-5.084548e-009
-2.976360e-009
-1.220932e-009
1.446896e-010
1.102699e-009
1.681683e-009
1.952411e-009
1.990003e-009
1.839334e-009
1.521417e-009
1.076277e-009
5.958329e-010
2.048997e-010
-1.879412e-012
-1.404534e-011
9.750825e-011
2.361444e-010
3.371550e-010
3.811155e-010
3.660095e-010
2.826958e-010
1.279226e-010
-6.115388e-011
-2.012149e-010
-2.126815e-010
-9.016656e-011
7.595576e-011
1.600436e-010
9.975205e-011
-5.279511e-011
-1.741238e-010
-1.693364e-010
-4.313298e-011
1.129171e-010
1.962448e-010
1.637165e-010
4.642796e-011
-8.569805e-011
-1.687419e-010
5.868152e-010
5.574352e-011
-4.288359e-010
-3.960822e-010
3.853458e-011
3.631019e-010
2.557126e-010
-1.082706e-010
-3.220500e-010
-2.183167e-010
-1.838922e-012
5.082079e-011
-7.539098e-011
-1.484036e-010
1.103812e-011
3.180979e-010
5.273971e-010
5.013072e-010
3.383933e-010
2.537465e-010
3.755479e-010
6.691863e-010
1.023427e-009
1.366659e-009
1.690367e-009
1.984667e-009
2.177453e-009
2.140241e-009
1.740282e-009
8.771106e-010
-5.269599e-010
-2.556794e-009
-5.310471e-009
-8.868657e-009
-1.325681e-008
-1.843693e-008
-2.433223e-008
-3.085406e-008
-3.790239e-008
-4.534343e-008
-5.299328e-008
-6.062788e-008
-6.801136e-008
-7.491915e-008
-8.114357e-008
-8.648968e-008
-9.077599e-008
-9.384383e-008
-9.556839e-008
-9.586619e-008
-9.470087e-008
-9.208979e-008
-8.810767e-008
-8.288133e-008
-7.657835e-008
-6.940042e-008
-6.158685e-008
-5.341688e-008
-4.519303e-008
-3.720375e-008
-2.968737e-008
-2.282203e-008
-1.674175e-008
-1.155142e-008
-7.315155e-009
-4.025842e-009
-1.592928e-009
1.251867e-010
1.261544e-009
1.902652e-009
2.104273e-009
1.941683e-009
1.541093e-009
1.058217e-009
6.232147e-010
3.031328e-010
1.115776e-010
4.461551e-011
9.687537e-011
2.401216e-010
3.974623e-010
4.613440e-010
3.604483e-010
1.220769e-010
-1.331746e-010
-2.713484e-010
-2.372277e-010
-8.461280e-011
7.212258e-011
1.374513e-010
8.642365e-011
-3.238383e-011
-1.292824e-010
-1.246930e-010
-4.030758e-012
1.562654e-010
2.291706e-010
1.360017e-010
-7.354440e-011
-2.454477e-010
7.907578e-010
5.761971e-011
-6.597492e-010
-6.850634e-010
-6.147703e-011
5.529409e-010
5.797711e-010
6.790999e-011
-4.330493e-010
-4.718590e-010
-1.095637e-010
2.390169e-010
2.833981e-010
1.121973e-010
6.978655e-012
1.008732e-010
2.776866e-010
3.702160e-010
3.803140e-010
4.730836e-010
7.882416e-010
1.296010e-009
1.830353e-009
2.222501e-009
2.377350e-009
2.232317e-009
1.669212e-009
4.770580e-010
-1.609504e-009
-4.847684e-009
-9.457145e-009
-1.562955e-008
-2.353866e-008
-3.331831e-008
-4.501699e-008
-5.856673e-008
-7.378938e-008
-9.042609e-008
-1.081576e-007
-1.266016e-007
-1.453040e-007
-1.637521e-007
-1.814142e-007
-1.977831e-007
-2.124006e-007
-2.248562e-007
-2.347761e-007
-2.418257e-007
-2.457303e-007
-2.463057e-007
-2.434818e-007
-2.373071e-007
-2.279367e-007
-2.156168e-007
-2.006809e-007
-1.835601e-007
-1.647927e-007
-1.450105e-007
-1.248892e-007
-1.050833e-007
-8.617549e-008
-6.865840e-008
-5.293539e-008
-3.930836e-008
-2.794135e-008
-1.882519e-008
-1.178480e-008
-6.541714e-009
-2.797855e-009
-2.880831e-010
1.220417e-009
1.954102e-009
2.139142e-009
1.974037e-009
1.600672e-009
1.112550e-009
5.980853e-010
1.714533e-010
-5.311066e-011
-3.187935e-011
1.594720e-010
3.579893e-010
4.154455e-010
2.917621e-010
6.583110e-011
-1.360922e-010
-2.253095e-010
-1.854607e-010
-5.721909e-011
8.731216e-011
1.656912e-010
1.226802e-010
-1.711955e-011
-1.402035e-010
-1.279315e-010
2.194677e-011
1.691507e-010
1.584172e-010
-1.524146e-011
-1.872033e-010
7.437744e-010
1.282153e-010
-5.484770e-010
-7.036101e-010
-2.339224e-010
3.915282e-010
5.709726e-010
1.539759e-010
-4.118418e-010
-5.395770e-010
-9.571213e-011
4.934280e-010
7.059528e-010
4.340174e-010
1.828125e-011
-1.500198e-010
2.064964e-011
3.529653e-010
6.783260e-010
1.004873e-009
1.425798e-009
1.929773e-009
2.334654e-009
2.375437e-009
1.805351e-009
3.904738e-010
-2.179868e-009
-6.358044e-009
-1.270987e-008
-2.182071e-008
-3.421058e-008
-5.029907e-008
-7.039861e-008
-9.469048e-008
-1.231702e-007