# vtk DataFile Version 3.0
vtk output
ASCII
DATASET STRUCTURED_POINTS
DIMENSIONS 100 100 1
SPACING 1 1 1
ORIGIN 0 0 0
POINT_DATA 10000
SCALARS SFBox_profile double
LOOKUP_TABLE default 
0.000000e+000
0.000000e+000
0.000000e+000
0.000000e+000
0.000000e+000
0.000000e+000
0.000000e+000
0.000000e+000
0.000000e+000
0.000000e+000
0.000000e+000
0.000000e+000
0.000000e+000
0.000000e+000
0.000000e+000
0.000000e+000
0.000000e+000
0.000000e+000
0.000000e+000
0.000000e+000
0.000000e+000
0.000000e+000
0.000000e+000
0.000000e+000
0.000000e+000
0.000000e+000
0.000000e+000
0.000000e+000
0.000000e+000
0.000000e+000
0.000000e+000
0.000000e+000
0.000000e+000
0.000000e+000
0.000000e+000
0.000000e+000
0.000000e+000
0.000000e+000
0.000000e+000
0.000000e+000
0.000000e+000
0.000000e+000
0.000000e+000
0.000000e+000
0.000000e+000
0.000000e+000
0.000000e+000
0.000000e+000
0.000000e+000
0.000000e+000
0.000000e+000
0.000000e+000
0.000000e+000
0.000000e+000
0.000000e+000
0.000000e+000
0.000000e+000
0.000000e+000
0.000000e+000
0.000000e+000
0.000000e+000
0.000000e+000
0.000000e+000
0.000000e+000
0.000000e+000
0.000000e+000
0.000000e+000
0.000000e+000
0.000000e+000
0.000000e+000
0.000000e+000
0.000000e+000
0.000000e+000
0.000000e+000
0.000000e+000
0.000000e+000
0.000000e+000
0.000000e+000
0.000000e+000
0.000000e+000
0.000000e+000
0.000000e+000
0.000000e+000
0.000000e+000
0.000000e+000
0.000000e+000
0.000000e+000
0.000000e+000
0.000000e+000
0.000000e+000
0.000000e+000
0.000000e+000
0.000000e+000
0.000000e+000
0.000000e+000
0.000000e+000
0.000000e+000
0.000000e+000
0.000000e+000
0.000000e+000
-1.008996e-008
-6.817367e-009
-1.708358e-009
3.011111e-009
5.330722e-009
4.383679e-009
8.859589e-010
-3.159471e-009
-5.453574e-009
-4.668432e-009
-1.273825e-009
2.700537e-009
4.959605e-009
4.460518e-009
2.011618e-009
-5.408575e-010
-1.850623e-009
-1.989864e-009
-1.976072e-009
-2.467931e-009
-2.989091e-009
-2.466407e-009
-4.849664e-010
2.094252e-009
3.827868e-009
3.974175e-009
3.039145e-009
2.078299e-009
1.579007e-009
1.126981e-009
1.176690e-010
-1.388165e-009
-2.648353e-009
-3.025666e-009
-2.634017e-009
-2.128759e-009
-1.948493e-009
-1.908000e-009
-1.555306e-009
-7.881389e-010
2.099078e-011
4.845150e-010
6.318643e-010
7.948754e-010
1.143111e-009
1.481588e-009
1.546039e-009
1.379976e-009
1.290119e-009
1.442841e-009
1.638504e-009
1.569370e-009
1.231408e-009
9.456425e-010
9.398637e-010
1.021300e-009
7.832791e-010
1.184232e-010
-6.042094e-010
-9.536631e-010
-9.604019e-010
-1.092779e-009
-1.673078e-009
-2.418436e-009
-2.684404e-009
-2.166784e-009
-1.250094e-009
-5.757066e-010
-3.138443e-010
7.347859e-012
8.902043e-010
2.162640e-009
3.009630e-009
2.756040e-009
1.562461e-009
2.718882e-010
-4.289835e-010
-6.259181e-010
-9.198195e-010
-1.607901e-009
-2.224109e-009
-1.964145e-009
-5.661225e-010
1.273015e-009
2.395991e-009
2.135261e-009
8.284531e-010
-5.358541e-010
-1.154527e-009
-9.571921e-010
-4.532050e-010
-1.437542e-010
-9.843343e-011
-3.855514e-011
2.519602e-010
6.412108e-010
7.613756e-010
3.835165e-010
-3.185949e-010
-8.689667e-010
-1.074875e-009
-9.290329e-010
-6.212591e-010
-1.614982e-010
3.486331e-010
6.948792e-010
6.552770e-010
2.049687e-010
-3.654824e-010
-6.105328e-010
-3.137615e-010
2.506778e-010
5.049276e-010
1.138811e-010
-6.222706e-010
-9.800557e-010
-4.977294e-010
5.299114e-010
1.283500e-009
1.187915e-009
4.466836e-010
-2.114423e-010
-3.019056e-010
-4.811953e-011
-5.716442e-011
-5.908857e-010
-1.249650e-009
-1.406973e-009
-8.893370e-010
-1.410865e-010
2.805055e-010
2.824544e-010
2.458391e-010
5.102645e-010
9.645313e-010
1.202229e-009
1.013524e-009
6.133865e-010
3.627336e-010
3.531289e-010
3.540484e-010
1.470124e-010
-1.946714e-010
-4.170524e-010
-4.160766e-010
-3.553232e-010
-4.341757e-010
-6.223292e-010
-7.075412e-010
-5.873968e-010
-4.166415e-010
-4.101367e-010
-5.531354e-010
-6.013945e-010
-3.876864e-010
-4.991154e-011
1.226393e-010
5.065505e-011
-1.840930e-011
1.946966e-010
6.394820e-010
9.576985e-010
8.868463e-010
5.714770e-010
3.980041e-010
5.315753e-010
7.022126e-010
5.101211e-010
-8.996258e-011
-6.906659e-010
-8.508965e-010
-5.658174e-010
-2.550242e-010
-2.802535e-010
-5.372532e-010
-5.822517e-010
-1.515381e-010
5.061169e-010
8.551710e-010
6.156072e-010
4.357937e-011
-3.358167e-010
-2.483101e-010
9.569184e-011
2.649442e-010
6.309702e-011
-2.941607e-010
-4.294070e-010
-1.933837e-010
2.000396e-010
3.992556e-010
2.504717e-010
-8.068944e-011
-2.881014e-010
-2.081129e-010
5.500106e-011
2.488041e-010
2.044757e-010
-2.663477e-011
-2.332620e-010
9.348823e-009
6.084599e-009
1.077508e-009
-3.332504e-009
-5.127430e-009
-3.666347e-009
-4.977546e-011
3.511001e-009
5.002343e-009
3.765006e-009
7.338851e-010
-2.339685e-009
-4.040357e-009
-3.975641e-009
-2.641946e-009
-8.046534e-010
9.952890e-010
2.496186e-009
3.507330e-009
3.794373e-009
3.193124e-009
1.785203e-009
-7.997995e-011
-1.937950e-009
-3.387093e-009
-4.172322e-009
-4.192395e-009
-3.500798e-009
-2.301346e-009
-8.857233e-010
4.836096e-010
1.655617e-009
2.567978e-009
3.167373e-009
3.386219e-009
3.209516e-009
2.737666e-009
2.143229e-009
1.549682e-009
9.652511e-010
3.464898e-010
-2.887245e-010
-8.383400e-010
-1.210839e-009
-1.419554e-009
-1.560217e-009
-1.700175e-009
-1.814511e-009
-1.841772e-009
-1.781464e-009
-1.706099e-009
-1.671622e-009
-1.640065e-009
-1.514169e-009
-1.244546e-009
-8.799687e-010
-5.016596e-010
-1.245983e-010
3.124656e-010
8.566332e-010
1.459912e-009
2.002924e-009
2.390249e-009
2.601921e-009
2.646942e-009
2.489164e-009
2.048909e-009
1.288079e-009
2.833276e-010
-7.933026e-010
-1.758186e-009
-2.471188e-009
-2.823926e-009
-2.719954e-009
-2.115047e-009
-1.094094e-009
1.106402e-010
1.206524e-009
1.962879e-009
2.259949e-009
2.050127e-009
1.330122e-009
2.047961e-010
-1.020050e-009
-1.875045e-009
-1.960875e-009
-1.231953e-009
-7.914165e-011
8.987124e-010
1.274271e-009
1.024720e-009
4.542486e-010
-8.503113e-011
-4.156235e-010
-5.441073e-010
-5.261541e-010
-3.709129e-010
-7.772620e-011
2.738987e-010
5.192649e-010
1.199196e-008
8.256725e-009
2.334331e-009
-3.257337e-009
-6.098956e-009
-5.074971e-009
-1.070176e-009
3.416458e-009
5.701912e-009
4.559152e-009
9.373779e-010
-2.786579e-009
-4.486756e-009
-3.641534e-009
-1.391883e-009
5.988628e-010
1.446411e-009
1.453400e-009
1.442998e-009
1.783678e-009
2.046008e-009
1.539019e-009
1.155923e-010
-1.573727e-009
-2.608656e-009
-2.567105e-009
-1.795349e-009
-9.760496e-010
-4.810043e-010
-1.507775e-010
3.521885e-010
1.065229e-009
1.647406e-009
1.748411e-009
1.385043e-009
9.124707e-010
6.497310e-010
5.889120e-010
4.869010e-010
1.912380e-010
-1.881295e-010
-4.308886e-010
-4.652552e-010
-4.212841e-010
-4.445626e-010
-5.245807e-010
-5.444682e-010
-4.625142e-010
-3.769272e-010
-3.942005e-010
-4.847429e-010
-5.224196e-010
-4.558518e-010
-3.793624e-010
-4.009030e-010
-4.777957e-010
-4.474322e-010
-2.319559e-010
4.368192e-011
1.915579e-010
2.031403e-010
2.844829e-010
6.094210e-010
1.071843e-009
1.351120e-009
1.245280e-009
8.917216e-010
6.014320e-010
4.822039e-010
2.961856e-010
-2.509793e-010
-1.096172e-009
-1.765165e-009
-1.787258e-009
-1.157816e-009
-3.464008e-010
1.738855e-010
3.761699e-010
6.198370e-010
1.141983e-009
1.662870e-009
1.572766e-009
5.597490e-010
-9.504570e-010
-2.024603e-009
-1.958148e-009
-8.541171e-010
4.791622e-010
1.201752e-009
1.070087e-009
4.906871e-010
3.338361e-011
-8.514658e-011
-7.907340e-011
-2.352535e-010
-5.379397e-010
-6.667056e-010
-3.513492e-010
2.962030e-010
8.230000e-010
3.724594e-009
3.192198e-009
1.986773e-009
2.082853e-010
-1.514708e-009
-2.278651e-009
-1.610761e-009
-1.587955e-012
1.329718e-009
1.376582e-009
2.225292e-010
-9.748276e-010
-9.807958e-010
3.718962e-010
1.945698e-009
2.253711e-009
7.888208e-010
-1.488056e-009
-2.968870e-009
-2.774169e-009
-1.405855e-009
-1.080376e-010
3.743963e-010
3.946551e-010
8.192678e-010
1.948109e-009
3.105759e-009
3.315066e-009
2.301129e-009
7.516095e-010
-4.032862e-010
-8.742639e-010
-1.124083e-009
-1.672500e-009
-2.439378e-009
-2.854096e-009
-2.539484e-009
-1.743009e-009
-1.040479e-009
-7.080053e-010
-5.057530e-010
-7.445903e-011
5.874227e-010
1.141116e-009
1.346775e-009
1.344227e-009
1.437331e-009
1.690562e-009
1.866739e-009
1.770032e-009
1.526493e-009
1.423182e-009
1.514371e-009
1.521700e-009
1.181971e-009
6.046325e-010
1.612492e-010
1.801214e-011
-9.873238e-011
-5.737568e-010
-1.386445e-009
-2.053986e-009
-2.147737e-009
-1.783582e-009
-1.479152e-009
-1.515903e-009
-1.562092e-009
-1.040252e-009
1.516261e-010
1.406142e-009
1.972116e-009
1.713674e-009
1.210784e-009
1.077848e-009
1.262125e-009
1.119003e-009
1.970733e-010
-1.135482e-009
-1.939104e-009
-1.601073e-009
-4.544726e-010
5.269204e-010
6.466289e-010
9.147383e-011
-3.517855e-010
-1.351693e-010
5.178539e-010
8.885265e-010
5.215649e-010
-3.106038e-010
-8.774572e-010
-6.956221e-010
2.672229e-011
6.116274e-010
5.549658e-010
-2.702638e-011
-5.449855e-010
-5.067234e-010
3.332622e-011
5.487702e-010
-9.273548e-009
-5.498003e-009
-1.108243e-010
3.937325e-009
4.733331e-009
2.453998e-009
-1.007742e-009
-3.469793e-009
-3.839449e-009
-2.480768e-009
-4.982491e-010
1.257822e-009
2.564135e-009
3.417401e-009
3.514551e-009
2.349399e-009
-1.078313e-010
-2.942244e-009
-4.719962e-009
-4.558767e-009
-2.829414e-009
-7.575308e-010
6.992894e-010
1.566134e-009
2.463474e-009
3.617647e-009
4.413537e-009
4.005549e-009
2.296229e-009
1.658057e-010
-1.324310e-009
-1.881501e-009
-2.062855e-009
-2.468925e-009
-3.018408e-009
-3.112736e-009
-2.423796e-009
-1.331922e-009
-5.114223e-010
-1.972694e-010
-1.400722e-011
4.737897e-010
1.202013e-009
1.713615e-009
1.750948e-009
1.567108e-009
1.582417e-009
1.853255e-009
2.037871e-009
1.883242e-009
1.581899e-009
1.524309e-009
1.766746e-009
1.918168e-009
1.618900e-009
1.010607e-009
5.794001e-010
5.397239e-010
5.315066e-010
4.293871e-011
-9.330123e-010
-1.823438e-009
-2.108365e-009
-1.911973e-009
-1.821784e-009
-2.127319e-009
-2.391147e-009
-1.900619e-009
-5.094381e-010
1.105280e-009
2.088513e-009
2.236366e-009
2.079454e-009
2.149945e-009
2.293970e-009
1.830908e-009
3.911563e-010
-1.507380e-009
-2.800676e-009
-2.797973e-009
-1.738164e-009
-4.614720e-010
3.924073e-010
8.188468e-010
1.153029e-009
1.484281e-009
1.475054e-009
7.728953e-010
-4.657881e-010
-1.539421e-009
-1.735245e-009
-9.342157e-010
2.777367e-010
1.082367e-009
1.054452e-009
4.164328e-010
-2.364935e-010
-4.518874e-010
-2.372710e-010
4.116104e-011
-1.587234e-008
-1.052125e-008
-2.451726e-009
4.463256e-009
7.185957e-009
5.133720e-009
3.580430e-010
-3.874575e-009
-5.179945e-009
-3.390505e-009
-2.461106e-010
2.158339e-009
2.835793e-009
2.186325e-009
1.155302e-009
2.847033e-010
-4.609915e-010
-1.178336e-009
-1.614847e-009
-1.392560e-009
-5.411661e-010
3.824746e-010
8.001335e-010
6.716764e-010
4.446500e-010
4.554700e-010
5.116047e-010
1.713817e-010
-6.165252e-010
-1.313210e-009
-1.316730e-009
-6.199491e-010
1.795537e-010
5.381333e-010
5.219294e-010
6.216435e-010
1.084330e-009
1.588906e-009
1.647537e-009
1.216435e-009
7.555569e-010
6.740634e-010
8.580945e-010
8.576392e-010
4.770753e-010
2.039115e-011
-1.033958e-010
1.038309e-010
2.513324e-010
8.064224e-011
-1.924593e-010
-1.589901e-010
2.402532e-010
6.147987e-010
6.109850e-010
3.718727e-010
3.737189e-010
8.238168e-010
1.370287e-009
1.502089e-009
1.159168e-009
7.982464e-010
8.219650e-010
1.067159e-009
9.882126e-010
3.290201e-010
-5.224057e-010
-9.300296e-010
-6.967533e-010
-2.425443e-010
-8.386046e-011
-2.432277e-010
-2.767531e-010
1.378995e-010
7.613419e-010
1.013267e-009
5.906267e-010
-2.177869e-010
-8.416381e-010
-9.752182e-010
-7.569655e-010
-4.602439e-010
-1.382455e-010
3.400222e-010
9.481095e-010
1.329970e-009
1.073022e-009
1.638284e-010
-8.816257e-010
-1.395191e-009
-1.094700e-009
-2.779579e-010
4.755399e-010
7.741732e-010
6.298789e-010
3.049940e-010
2.787832e-011
-1.398128e-010
-2.355009e-010
-2.858489e-010
-9.215025e-009
-6.849370e-009
-2.901046e-009
1.147826e-009
3.600514e-009
3.477712e-009
1.291513e-009
-1.152515e-009
-2.034981e-009
-9.368109e-010
8.630771e-010
1.545946e-009
3.680973e-010
-1.716773e-009
-2.951734e-009
-2.302284e-009
-2.152701e-010
1.951000e-009
3.112681e-009
3.115706e-009
2.435998e-009
1.490799e-009
3.469791e-010
-1.018325e-009
-2.393248e-009
-3.381098e-009
-3.713035e-009
-3.404245e-009
-2.603538e-009
-1.405917e-009
1.005909e-010
1.663636e-009
2.892159e-009
3.535969e-009
3.693079e-009
3.656798e-009
3.560649e-009
3.256595e-009
2.583237e-009
1.679132e-009
9.204975e-010
5.330726e-010
3.561289e-010
6.488614e-011
-4.143667e-010
-8.120936e-010
-8.621843e-010
-6.506438e-010
-5.239631e-010
-6.688336e-010
-8.900624e-010
-8.640114e-010
-5.457707e-010
-2.169334e-010
-1.173052e-010
-1.289306e-010
8.748098e-011
6.742126e-010
1.397797e-009
1.925905e-009
2.206286e-009
2.476341e-009
2.902633e-009
3.309336e-009
3.333435e-009
2.811405e-009
1.930276e-009
9.884005e-010
9.317380e-011
-8.307124e-010
-1.770960e-009
-2.479077e-009
-2.655658e-009
-2.242663e-009
-1.461013e-009
-5.663851e-010
3.439224e-010
1.226911e-009
1.868618e-009
1.914200e-009
1.219437e-009
1.349638e-010
-6.782227e-010
-8.006365e-010
-4.194906e-010
-1.021070e-010
-1.964913e-010
-4.903346e-010
-4.885466e-010
-3.146817e-013
6.087003e-010
7.783113e-010
3.431407e-010
-2.824683e-010
-5.218102e-010
-2.139850e-010
2.505367e-010
3.639277e-010
3.332353e-011
-3.479448e-010
6.674780e-009
3.427990e-009
-8.129686e-010
-3.357297e-009
-3.091002e-009
-9.903016e-010
1.098482e-009
2.080859e-009
2.136217e-009
1.911303e-009
1.500693e-009
3.921528e-010
-1.630319e-009
-3.743764e-009
-4.472319e-009
-2.946750e-009
1.945211e-010
3.189875e-009
4.495262e-009
3.850311e-009
2.178005e-009
5.849634e-010
-4.995658e-010
-1.325276e-009
-2.186518e-009
-2.930454e-009
-3.079511e-009
-2.335448e-009
-8.997619e-010
6.702416e-010
1.864358e-009
2.498592e-009
2.695583e-009
2.678072e-009
2.582142e-009
2.406260e-009
2.087436e-009
1.622795e-009
1.132857e-009
7.993844e-010
7.171957e-010
8.023362e-010
8.696756e-010
8.198528e-010
7.381181e-010
7.868820e-010
1.005850e-009
1.249111e-009
1.335103e-009
1.235791e-009
1.087335e-009
1.021209e-009
1.025195e-009
9.915044e-010
8.709698e-010
7.332057e-010
6.727884e-010
7.029431e-010
7.759915e-010
8.822205e-010
1.072117e-009
1.366771e-009
1.692776e-009
1.949368e-009
2.117304e-009
2.236385e-009
2.256679e-009
1.980796e-009
1.243817e-009
1.635143e-010
-8.630434e-010
-1.482528e-009
-1.690071e-009
-1.742291e-009
-1.749452e-009
-1.441751e-009
-4.614011e-010
1.082389e-009
2.444956e-009
2.767875e-009
1.839477e-009
3.183055e-010
-8.429477e-010
-1.206746e-009
-1.084154e-009
-1.003848e-009
-1.043498e-009
-7.745754e-010
1.268652e-010
1.307338e-009
1.893335e-009
1.294985e-009
-1.457526e-010
-1.358283e-009
-1.458632e-009
-5.191346e-010
5.402655e-010
8.275293e-010
2.784842e-010
-3.694549e-010
1.921189e-008
1.205484e-008
1.964001e-009
-5.561186e-009
-7.360628e-009
-4.225995e-009
4.145747e-010
3.335384e-009
3.518438e-009
2.034282e-009
4.528722e-010
-5.165046e-010
-1.084730e-009
-1.531206e-009
-1.622922e-009
-9.438115e-010
3.675808e-010
1.445120e-009
1.400483e-009
2.060241e-010
-1.191993e-009
-1.693454e-009
-9.971780e-010
2.379092e-010
1.123328e-009
1.376354e-009
1.433957e-009
1.816483e-009
2.475940e-009
2.816476e-009
2.325632e-009
1.125364e-009
-1.211283e-010
-8.147554e-010
-8.986847e-010
-7.567431e-010
-7.117069e-010
-6.905486e-010
-3.842346e-010
3.319630e-010
1.211591e-009
1.878733e-009
2.202444e-009
2.380402e-009
2.663997e-009
3.065202e-009
3.377102e-009
3.448886e-009
3.362408e-009
3.305064e-009
3.322374e-009
3.274711e-009
3.046157e-009
2.718875e-009
2.468459e-009
2.308027e-009
2.029935e-009
1.457621e-009
7.072999e-010
1.068283e-010
-1.669312e-010
-2.904595e-010
-5.516109e-010
-9.278409e-010
-1.019177e-009
-4.826758e-010
5.075180e-010
1.345309e-009
1.587883e-009
1.402366e-009
1.327482e-009
1.594050e-009
1.794009e-009
1.327923e-009
1.642542e-010
-9.638466e-010
-1.212746e-009
-4.718064e-010
5.095723e-010
8.605699e-010
4.142262e-010
-2.356291e-010
-4.521018e-010
-2.278157e-010
-8.834873e-011
-3.837469e-010
-8.019767e-010
-6.765386e-010
2.304931e-010
1.330123e-009
1.667773e-009
8.253849e-010
-6.237965e-010
-1.571479e-009
-1.329403e-009
-2.056530e-010
8.074718e-010
9.241081e-010
2.221229e-010
-4.998305e-010
1.749641e-008
1.139538e-008
2.677426e-009
-4.011306e-009
-5.846240e-009
-3.372756e-009
3.690621e-010
2.320432e-009
1.532134e-009
-5.835236e-010
-1.819660e-009
-1.083439e-009
9.211123e-010
2.581151e-009
2.810554e-009
1.718881e-009
1.286123e-010
-1.313810e-009
-2.471143e-009
-3.323400e-009
-3.530178e-009
-2.600350e-009
-5.151295e-010
1.965901e-009
3.780610e-009
4.399831e-009
4.155129e-009
3.721381e-009
3.341813e-009
2.656565e-009
1.298114e-009
-4.643629e-010
-1.808292e-009
-2.109911e-009
-1.532944e-009
-7.994175e-010
-4.135005e-010
-2.142036e-010
2.746975e-010
1.160638e-009
1.989765e-009
2.255897e-009
1.978264e-009
1.652773e-009
1.654858e-009
1.830065e-009
1.755788e-009
1.321441e-009
8.927576e-010
8.630173e-010
1.168576e-009
1.385415e-009
1.280796e-009
1.109845e-009
1.266463e-009
1.726103e-009
2.004344e-009
1.717768e-009
1.059459e-009
5.756605e-010
4.919063e-010
4.241084e-010
-1.318398e-010
-1.099142e-009
-1.775775e-009
-1.554052e-009
-5.844710e-010
4.018603e-010
9.160033e-010
1.213107e-009
1.876248e-009
2.970583e-009
3.779958e-009
3.477501e-009
2.003630e-009
1.787877e-010
-1.063024e-009
-1.470536e-009
-1.473888e-009
-1.494995e-009
-1.427704e-009
-8.737158e-010
2.028523e-010
1.224751e-009
1.491012e-009
8.797859e-010
-1.129523e-011
-4.439996e-010
-2.255839e-010
1.910061e-010
2.409918e-010
-1.743586e-010
-6.344614e-010
-6.580600e-010
-1.725220e-010
4.420278e-010
7.107228e-010
4.549216e-010
-1.020200e-010
-5.367949e-010
1.956708e-009
1.396933e-009
5.600387e-010
-6.237241e-011
-5.045458e-011
5.267053e-010
9.696414e-010
4.356914e-010
-1.198478e-009
-2.918026e-009
-3.198949e-009
-1.316296e-009
1.833187e-009
4.261880e-009
4.412904e-009
2.339255e-009
-4.886087e-010
-2.471732e-009
-3.011393e-009
-2.534809e-009
-1.675529e-009
-6.371640e-010
6.519651e-010
2.002548e-009
2.858069e-009
2.805556e-009
2.060858e-009
1.285377e-009
9.126480e-010
7.814434e-010
5.069531e-010
1.076768e-010
7.485731e-011
7.574461e-010
1.811587e-009
2.434033e-009
2.161622e-009
1.307761e-009
5.159020e-010
-3.103893e-011
-7.890776e-010
-2.214919e-009
-4.113982e-009
-5.794082e-009
-6.840412e-009
-7.548369e-009
-8.473894e-009
-9.665413e-009
-1.054407e-008
-1.058736e-008
-9.959542e-009
-9.294753e-009
-8.904095e-009
-8.406114e-009
-7.249834e-009
-5.472772e-009
-3.733139e-009
-2.564079e-009
-1.780412e-009
-7.874614e-010
5.850297e-010
1.768187e-009
2.073417e-009
1.508709e-009
8.023642e-010
6.024014e-010
8.114206e-010
8.362579e-010
4.158491e-010
4.390997e-012
2.460993e-010
1.178915e-009
2.115692e-009
2.330547e-009
1.743710e-009
8.564908e-010
1.116487e-010
-5.033208e-010
-1.175550e-009
-1.755643e-009
-1.741797e-009
-8.413585e-010
5.594175e-010
1.620605e-009
1.771285e-009
1.158402e-009
3.735807e-010
-1.745946e-010
-5.284127e-010
-8.666186e-010
-1.091020e-009
-8.750436e-010
-1.238875e-010
7.449062e-010
1.106006e-009
7.287257e-010
1.160248e-011
-4.273719e-010
-3.644843e-010
-1.229820e-010
-1.549358e-008
-9.893068e-009
-2.092285e-009
3.676928e-009
5.266444e-009
3.521351e-009
8.116723e-010
-1.102312e-009
-1.934991e-009
-2.143642e-009
-1.883128e-009
-9.168474e-010
6.334316e-010
1.878240e-009
1.816558e-009
4.198490e-010
-1.126213e-009
-1.430072e-009
-1.758123e-010
1.629615e-009
2.653912e-009
2.403832e-009
1.411659e-009
4.461534e-010
-2.420099e-010
-8.563660e-010
-1.454458e-009
-1.678433e-009
-1.151885e-009
1.475699e-011
1.283074e-009
2.221528e-009
2.810154e-009
3.137487e-009
2.944132e-009
1.694762e-009
-8.399200e-010
-4.231687e-009
-7.783613e-009
-1.123367e-008
-1.490595e-008
-1.910743e-008
-2.353010e-008
-2.743950e-008
-3.044136e-008
-3.286056e-008
-3.522850e-008
-3.750394e-008
-3.901427e-008
-3.921380e-008
-3.832034e-008
-3.702974e-008
-3.566093e-008
-3.380060e-008
-3.088812e-008
-2.700147e-008
-2.286020e-008
-1.905324e-008
-1.546693e-008
-1.162021e-008
-7.466649e-009
-3.648854e-009
-8.914179e-010
7.118957e-010
1.660152e-009
2.356721e-009
2.658048e-009
2.199720e-009
1.041601e-009
-2.043342e-010
-9.186631e-010
-1.007951e-009
-8.017128e-010
-5.227697e-010
-5.787911e-011
6.929433e-010
1.414327e-009
1.546809e-009
9.089726e-010
7.757476e-012
-4.142268e-010
-1.302524e-010
3.784051e-010
5.109253e-010
2.184504e-010
-2.974253e-011
8.385133e-011
2.675601e-010
-2.239416e-011
-8.081630e-010
-1.362578e-009
-9.129472e-010
4.343992e-010
1.611591e-009
1.559644e-009
3.020409e-010
-1.016492e-009
-1.226175e-009
-2.744219e-010
7.518024e-010
-2.145877e-008
-1.327425e-008
-2.178881e-009
5.343785e-009
6.284553e-009
2.621331e-009
-1.182352e-009
-2.098265e-009
-4.462284e-010
1.370614e-009
1.524239e-009
1.690384e-010
-1.328982e-009
-2.015102e-009
-1.991476e-009
-1.708370e-009
-1.093626e-009
3.172885e-010
2.478292e-009
4.389521e-009
4.803555e-009
3.385294e-009
1.060658e-009
-8.182377e-010
-1.580602e-009
-1.502672e-009
-1.145314e-009
-6.743368e-010
7.975405e-011
1.056801e-009
1.700328e-009
1.316066e-009
-4.348113e-010
-3.504048e-009
-7.818314e-009
-1.346607e-008
-2.045463e-008
-2.843663e-008
-3.687382e-008
-4.548404e-008
-5.436884e-008
-6.360205e-008
-7.279619e-008
-8.124838e-008
-8.852903e-008
-9.476454e-008
-1.002204e-007
-1.046975e-007
-1.075328e-007
-1.082433e-007
-1.070197e-007
-1.044436e-007
-1.007801e-007
-9.573602e-008
-8.898082e-008
-8.075842e-008
-7.182000e-008
-6.277847e-008
-5.370250e-008
-4.442590e-008
-3.512509e-008
-2.641058e-008
-1.884505e-008
-1.253530e-008
-7.299829e-009
-3.127706e-009
-2.780176e-010
1.111325e-009
1.355895e-009
1.027454e-009
4.813037e-010
-2.545898e-010
-1.086530e-009
-1.539878e-009
-1.064348e-009
3.114512e-010
1.800044e-009
2.495223e-009
2.192461e-009
1.473325e-009
9.649710e-010
6.541232e-010
6.681086e-011
-9.277403e-010
-1.715091e-009
-1.513383e-009
-3.237631e-010
8.787078e-010
1.048976e-009
1.559631e-010
-7.472407e-010
-6.091065e-010
4.934087e-010
1.390039e-009
1.018267e-009
-4.343686e-010
-1.638584e-009
-1.409548e-009
1.027697e-010
1.513498e-009
-1.235529e-008
-6.562795e-009
7.482584e-010
4.545155e-009
3.034783e-009
-1.228194e-009
-3.888236e-009
-2.582351e-009
1.334118e-009
4.386444e-009
4.159290e-009
1.131945e-009
-2.198201e-009
-3.681488e-009
-3.037534e-009
-1.415714e-009
7.602612e-011
1.194812e-009
2.142386e-009
2.787680e-009
2.639855e-009
1.569037e-009
2.752066e-010
-1.963508e-010
5.710642e-010
1.966747e-009
2.932098e-009
2.824446e-009
1.632523e-009
-5.571952e-010
-4.092909e-009
-9.650945e-009
-1.768727e-008
-2.813343e-008
-4.063447e-008
-5.494733e-008
-7.101268e-008
-8.871798e-008
-1.077484e-007
-1.277059e-007
-1.482471e-007
-1.689885e-007
-1.893184e-007
-2.084484e-007
-2.257097e-007
-2.407235e-007
-2.532101e-007
-2.627010e-007
-2.685816e-007
-2.704632e-007
-2.684181e-007
-2.627678e-007
-2.537011e-007
-2.412260e-007
-2.255176e-007
-2.071907e-007
-1.871280e-007
-1.660813e-007
-1.445461e-007
-1.230063e-007
-1.021355e-007
-8.262673e-008
-6.487445e-008
-4.897083e-008
-3.503818e-008
-2.341781e-008
-1.439563e-008
-7.799162e-009
-3.051256e-009
2.981098e-010
2.218196e-009
2.535738e-009
1.606542e-009
4.509786e-010
5.406917e-011
5.527874e-010
1.245133e-009
1.436158e-009
1.158985e-009
9.620911e-010
1.077335e-009
1.031978e-009
2.301873e-010
-1.166113e-009
-2.152027e-009
-1.808927e-009
-2.875349e-010
1.239254e-009
1.651284e-009
8.899235e-010
-1.053872e-010
-4.059438e-010
2.070554e-011
4.119270e-010
1.070611e-010
-7.245431e-010
-1.246208e-009
-8.046074e-010
3.890392e-010
1.401533e-009
3.315526e-009
3.791814e-009
3.647801e-009
1.848698e-009
-1.315241e-009
-4.080205e-009
-4.475409e-009
-2.018122e-009
1.670486e-009
4.010653e-009
3.498652e-009
8.818350e-010
-1.571558e-009
-2.039699e-009
-5.709251e-010
1.241625e-009
1.852872e-009
1.032316e-009
-2.693582e-010
-1.031837e-009
-9.768889e-010
-3.876541e-010
5.456332e-010
1.909814e-009
3.580761e-009
4.767821e-009
4.256335e-009
1.131576e-009
-4.836335e-009
-1.355955e-008
-2.527338e-008
-4.068633e-008
-6.049935e-008
-8.489053e-008
-1.135357e-007
-1.460545e-007
-1.822995e-007
-2.221689e-007
-2.652095e-007
-3.104653e-007
-3.566791e-007
-4.025715e-007
-4.469396e-007
-4.886022e-007
-5.263596e-007
-5.590416e-007
-5.855922e-007
-6.051486e-007
-6.171082e-007
-6.211465e-007
-6.171442e-007
-6.050918e-007
-5.851213e-007
-5.576852e-007
-5.236734e-007
-4.842743e-007
-4.406996e-007
-3.941061e-007
-3.458033e-007
-2.974123e-007
-2.506208e-007
-2.066934e-007
-1.662817e-007
-1.297769e-007
-9.775152e-008
-7.087054e-008
-4.930929e-008
-3.241706e-008
-1.916239e-008
-8.950361e-009
-1.874815e-009
1.917596e-009
3.008833e-009
2.684096e-009
2.092630e-009
1.559010e-009
8.198310e-010
-1.630606e-010
-8.469044e-010
-6.559508e-010
2.563336e-010
1.013938e-009
8.723426e-010
-1.408864e-011
-7.645359e-010
-6.802766e-010
1.012371e-010
8.461454e-010
9.919748e-010
5.909735e-010
6.982633e-011
-2.711646e-010
-4.349837e-010
-5.139303e-010
-4.830352e-010
-2.744369e-010
3.862713e-011
2.588831e-010
2.814875e-010
2.112418e-010
1.344482e-008
9.144880e-009
3.032441e-009
-1.776128e-009
-3.618948e-009
-2.932645e-009
-1.276687e-009
4.686361e-011
5.823366e-010
4.451190e-010
-6.950983e-011
-5.286008e-010
-3.571838e-010
7.790518e-010
2.438523e-009
3.452181e-009
2.815525e-009
6.810101e-010
-1.594603e-009
-2.507678e-009
-1.585082e-009
4.097207e-010
2.275302e-009
3.196024e-009
2.760105e-009
3.790359e-010
-5.033918e-009
-1.472161e-008
-2.957070e-008
-5.011832e-008
-7.705864e-008
-1.115570e-007
-1.548949e-007
-2.077823e-007
-2.700624e-007
-3.410375e-007
-4.199121e-007
-5.057727e-007
-5.971515e-007
-6.917556e-007
-7.867614e-007
-8.794348e-007
-9.675059e-007
-1.049035e-006
-1.122064e-006
-1.184521e-006
-1.234528e-006
-1.270795e-006
-1.292691e-006
-1.299920e-006
-1.292160e-006
-1.269084e-006
-1.230784e-006
-1.178152e-006
-1.112785e-006
-1.036482e-006
-9.509355e-007
-8.579881e-007
-7.601590e-007
-6.607140e-007
-5.630141e-007
-4.697307e-007
-3.827076e-007
-3.034896e-007
-2.337087e-007
-1.746908e-007
-1.266585e-007
-8.851921e-008
-5.862197e-008
-3.573963e-008
-1.926611e-008
-8.560788e-009
-2.373841e-009
8.825501e-010
2.356511e-009
2.454555e-009
1.380429e-009
-1.993365e-010
-1.246480e-009
-1.130159e-009
-1.528979e-010
8.250829e-010
1.235068e-009
1.174547e-009
1.001502e-009
7.919846e-010
3.690036e-010
-2.307374e-010
-5.964719e-010
-4.057578e-010
7.409935e-011
1.889185e-010
-3.160153e-010
-8.721741e-010
-6.555434e-010
4.053199e-010
1.368043e-009
1.190184e-009
-1.105354e-010
-1.355038e-009
1.297133e-008
6.655923e-009
-1.158526e-009
-4.991312e-009
-3.175932e-009
1.290985e-009
3.926158e-009
2.703200e-009
-7.749418e-010
-3.396914e-009
-3.432333e-009
-1.492718e-009
7.415584e-010
2.187695e-009
2.764670e-009
2.695072e-009
2.003377e-009
8.378768e-010
-9.047569e-011
1.285800e-010
1.627014e-009
3.277666e-009
3.334380e-009
5.075717e-010
-5.721462e-009
-1.583907e-008
-3.118238e-008
-5.399269e-008
-8.671888e-008
-1.314676e-007
-1.901206e-007
-2.646552e-007
-3.569108e-007
-4.677823e-007
-5.966015e-007
-7.412955e-007
-8.990269e-007
-1.066556e-006
-1.240056e-006
-1.414915e-006
-1.586111e-006
-1.749063e-006
-1.900221e-006
-2.036893e-006
-2.156651e-006
-2.257045e-006
-2.335962e-006
-2.392162e-006
-2.425298e-006
-2.435317e-006
-2.421862e-006
-2.384352e-006
-2.322677e-006
-2.237724e-006
-2.131167e-006
-2.004811e-006
-1.860386e-006
-1.700160e-006
-1.527748e-006
-1.348144e-006
-1.166836e-006
-9.888581e-007
-8.186275e-007
-6.603771e-007
-5.182057e-007
-3.952740e-007
-2.928228e-007
-2.100616e-007
-1.450653e-007
-9.573914e-008
-5.999149e-008
-3.535387e-008
-1.896788e-008
-8.276522e-009
-1.701970e-009
1.518171e-009
2.154807e-009
1.461034e-009
7.276849e-010
5.201426e-010
5.929042e-010
5.921973e-010
6.343546e-010
1.027143e-009
1.570477e-009
1.503923e-009
3.720623e-010
-1.196753e-009
-1.898256e-009
-1.093942e-009
3.951635e-010
1.064217e-009
3.344101e-010
-7.855257e-010
-8.055995e-010
5.305996e-010
1.842245e-009
1.550527e-009
-3.559003e-010
-2.172085e-009
6.542872e-009
9.445287e-010
-5.133146e-009
-6.218871e-009
-1.481405e-009
4.713404e-009
7.001922e-009
3.824768e-009
-1.612838e-009
-4.723280e-009
-3.673248e-009
-4.110272e-010
1.845650e-009
1.707089e-009
3.184758e-010
-4.194437e-010
2.195699e-010
1.614150e-009
2.965965e-009
4.039069e-009
4.631461e-009
3.698396e-009
-6.152990e-010
-1.011170e-008