# vtk DataFile Version 3.0
vtk output
ASCII
DATASET STRUCTURED_POINTS
DIMENSIONS 100 100 1
SPACING 1 1 1
ORIGIN 0 0 0
POINT_DATA 10000
SCALARS SFBox_profile double
LOOKUP_TABLE default 
0.000000e+000
0.000000e+000
0.000000e+000
0.000000e+000
0.000000e+000
0.000000e+000
0.000000e+000
0.000000e+000
0.000000e+000
0.000000e+000
0.000000e+000
0.000000e+000
0.000000e+000
0.000000e+000
0.000000e+000
0.000000e+000
0.000000e+000
0.000000e+000
0.000000e+000
0.000000e+000
0.000000e+000
0.000000e+000
0.000000e+000
0.000000e+000
0.000000e+000
0.000000e+000
0.000000e+000
0.000000e+000
0.000000e+000
0.000000e+000
0.000000e+000
0.000000e+000
0.000000e+000
0.000000e+000
0.000000e+000
0.000000e+000
0.000000e+000
0.000000e+000
0.000000e+000
0.000000e+000
0.000000e+000
0.000000e+000
0.000000e+000
0.000000e+000
0.000000e+000
0.000000e+000
0.000000e+000
0.000000e+000
0.000000e+000
0.000000e+000
0.000000e+000
0.000000e+000
0.000000e+000
0.000000e+000
0.000000e+000
0.000000e+000
0.000000e+000
0.000000e+000
0.000000e+000
0.000000e+000
0.000000e+000
0.000000e+000
0.000000e+000
0.000000e+000
0.000000e+000
0.000000e+000
0.000000e+000
0.000000e+000
0.000000e+000
0.000000e+000
0.000000e+000
0.000000e+000
0.000000e+000
0.000000e+000
0.000000e+000
0.000000e+000
0.000000e+000
0.000000e+000
0.000000e+000
0.000000e+000
0.000000e+000
0.000000e+000
0.000000e+000
0.000000e+000
0.000000e+000
0.000000e+000
0.000000e+000
0.000000e+000
0.000000e+000
0.000000e+000
0.000000e+000
0.000000e+000
0.000000e+000
0.000000e+000
0.000000e+000
0.000000e+000
0.000000e+000
0.000000e+000
0.000000e+000
0.000000e+000
3.782463e-011
1.801067e-011
-1.395170e-011
-3.930829e-011
-3.584246e-011
-2.216884e-012
3.032010e-011
2.777049e-011
-1.165573e-012
-1.191388e-011
9.027392e-012
1.506819e-011
-2.549320e-011
-5.854672e-011
-1.687758e-011
5.743319e-011
6.112598e-011
-2.527046e-012
-2.716647e-011
9.972134e-012
1.339684e-011
-4.245882e-011
-5.986786e-011
-7.812493e-012
1.645500e-011
-1.995261e-011
-2.151640e-011
4.338044e-011
8.108042e-011
5.883124e-011
5.692113e-011
9.461916e-011
9.575909e-011
5.063634e-011
3.064669e-011
3.831962e-011
9.111278e-012
-5.313206e-011
-8.999046e-011
-1.055342e-010
-1.434784e-010
-1.914806e-010
-2.125052e-010
-2.210335e-010
-2.457843e-010
-2.698903e-010
-2.704875e-010
-2.652031e-010
-2.738704e-010
-2.828189e-010
-2.782892e-010
-2.715966e-010
-2.712480e-010
-2.676024e-010
-2.562830e-010
-2.456400e-010
-2.366051e-010
-2.205304e-010
-1.965559e-010
-1.712017e-010
-1.448458e-010
-1.138082e-010
-7.939254e-011
-4.431996e-011
-8.402821e-012
2.602904e-011
5.406592e-011
7.601894e-011
9.476894e-011
1.066865e-010
1.063447e-010
9.585405e-011
7.849316e-011
5.117852e-011
1.465779e-011
-1.943583e-011
-4.274022e-011
-5.873717e-011
-6.782851e-011
-6.007035e-011
-3.333600e-011
-2.199822e-012
2.132529e-011
3.904535e-011
4.966649e-011
4.022955e-011
7.974329e-012
-2.517854e-011
-3.546815e-011
-2.424466e-011
-9.015565e-012
2.724357e-012
1.515613e-011
2.502931e-011
1.900620e-011
-5.397918e-012
-2.829188e-011
-2.613094e-011
1.088670e-012
2.758631e-011
-3.250400e-011
-6.222111e-012
2.296096e-011
2.990532e-011
9.446105e-012
-1.729690e-011
-2.343821e-011
-6.618244e-012
8.736153e-012
5.233099e-012
-4.065140e-012
-1.387049e-013
9.046738e-012
5.254818e-012
-3.683936e-012
9.490661e-013
8.772937e-012
-1.769520e-012
-1.742157e-011
-1.134982e-011
5.200352e-012
6.944320e-012
6.499557e-012
2.274679e-011
3.126254e-011
9.435026e-012
-1.317089e-011
-1.100715e-011
-1.279431e-011
-3.927944e-011
-5.881939e-011
-5.372931e-011
-5.447187e-011
-7.014045e-011
-6.640257e-011
-3.740643e-011
-1.757820e-011
-1.089785e-011
1.261872e-011
5.204366e-011
7.974013e-011
9.752127e-011
1.253762e-010
1.552429e-010
1.688981e-010
1.759363e-010
1.919197e-010
2.070679e-010
2.085340e-010
2.052434e-010
2.074535e-010
2.084120e-010
2.018665e-010
1.937580e-010
1.870640e-010
1.756835e-010
1.580544e-010
1.397353e-010
1.215485e-010
9.905955e-011
7.227503e-011
4.520381e-011
1.907495e-011
-6.417533e-012
-2.951988e-011
-4.887800e-011
-6.476988e-011
-7.572671e-011
-7.908309e-011
-7.499339e-011
-6.515322e-011
-4.960681e-011
-2.927989e-011
-8.144991e-012
1.085573e-011
2.739334e-011
3.886545e-011
4.017322e-011
3.068166e-011
1.561482e-011
-2.137410e-013
-1.415488e-011
-2.212779e-011
-2.036139e-011
-1.097795e-011
-5.786487e-013
6.338302e-012
9.020224e-012
7.797662e-012
3.934000e-012
3.957064e-013
-9.959144e-013
-1.898421e-012
-4.017428e-012
-5.015260e-012
-1.495323e-012
4.530984e-012
6.320993e-012
1.011265e-012
-5.567757e-012
-6.632607e-011
-2.327593e-011
3.440807e-011
6.566434e-011
4.291409e-011
-1.711972e-011
-5.699898e-011
-3.659684e-011
1.275829e-011
2.428929e-011
-7.034504e-012
-1.309021e-011
3.337557e-011
5.847136e-011
3.910328e-012
-6.241628e-011
-4.859018e-011
8.295098e-012
1.257498e-011
-1.952300e-011
-1.945244e-012
5.275631e-011
6.003867e-011
2.210924e-011
9.056883e-012
1.713643e-011
-1.128473e-011
-6.450827e-011
-8.644786e-011
-8.251701e-011
-9.284960e-011
-1.073890e-010
-9.442095e-011
-6.396722e-011
-3.808840e-011
-7.197195e-012
4.033582e-011
9.100568e-011
1.342544e-010
1.777114e-010
2.233297e-010
2.612301e-010
2.886681e-010
3.107369e-010
3.275454e-010
3.373685e-010
3.436689e-010
3.487717e-010
3.502699e-010
3.482468e-010
3.464087e-010
3.451653e-010
3.419078e-010
3.365759e-010
3.303425e-010
3.216533e-010
3.085411e-010
2.915615e-010
2.710558e-010
2.449662e-010
2.119181e-010
1.736134e-010
1.322735e-010
8.813896e-011
4.149597e-011
-4.688414e-012
-4.669482e-011
-8.325170e-011
-1.135991e-010
-1.337834e-010
-1.393858e-010
-1.306364e-010
-1.097329e-010
-7.583055e-011
-2.987783e-011
1.868033e-011
5.822354e-011
8.413055e-011
9.384234e-011
8.057040e-011
4.371537e-011
-1.575512e-012
-3.746634e-011
-5.860943e-011
-6.383092e-011
-4.555701e-011
-4.422940e-012
3.577220e-011
4.767829e-011
3.103865e-011
7.957872e-012
-7.787671e-012
-1.946770e-011
-2.741763e-011
-2.029136e-011
5.554431e-012
3.059528e-011
2.897845e-011
-7.865851e-013
-3.043230e-011
-6.609678e-012
-1.129556e-011
-7.886396e-012
8.952217e-012
2.264564e-011
1.069802e-011
-1.914365e-011
-2.764261e-011
8.684118e-013
2.510334e-011
7.979835e-012
-1.389439e-011
1.099327e-011
4.259410e-011
3.953914e-012
-6.665118e-011
-5.535557e-011
2.695472e-011
5.073649e-011
-3.633750e-012
-1.820823e-011
3.014526e-011
2.977270e-011
-3.527840e-011
-4.940852e-011
4.006107e-012
1.461713e-011
-2.988800e-011
-2.627825e-011
3.280199e-011
5.412303e-011
3.398110e-011
4.837026e-011
8.941905e-011
9.085240e-011
6.514013e-011
6.615450e-011
7.769260e-011
5.749862e-011
2.425569e-011
1.146033e-011
2.541528e-012
-2.459232e-011
-5.185208e-011
-6.207588e-011
-6.992408e-011
-8.612760e-011
-9.789205e-011
-9.847733e-011
-9.840205e-011
-1.018178e-010
-1.010777e-010
-9.475765e-011
-8.887776e-011
-8.327529e-011
-7.309999e-011
-5.908157e-011
-4.458719e-011
-2.840370e-011
-8.900578e-012
1.113388e-011
2.964861e-011
4.812218e-011
6.543703e-011
7.718215e-011
8.318790e-011
8.654385e-011
8.485089e-011
7.309393e-011
5.379408e-011
3.286909e-011
9.467524e-012
-1.735238e-011
-3.858891e-011
-4.595131e-011
-4.382782e-011
-3.717344e-011
-2.013263e-011
8.402678e-012
3.264290e-011
3.900820e-011
3.236223e-011
1.980755e-011
-2.584880e-012
-3.127559e-011
-4.359744e-011
-2.458308e-011
8.720555e-012
2.741518e-011
2.407846e-011
1.125553e-011
-1.820236e-012
-1.392771e-011
-1.997392e-011
-1.194538e-011
6.941689e-012
2.048236e-011
1.596120e-011
-2.453682e-012
-1.841422e-011
7.738276e-011
1.433833e-011
-5.809768e-011
-7.787167e-011
-2.742749e-011
4.198284e-011
5.861395e-011
1.548933e-011
-2.053816e-011
-6.587531e-012
1.399114e-011
-6.591501e-012
-3.202159e-011
-1.235489e-011
1.542397e-011
-1.656256e-013
-1.587016e-011
2.086419e-011
5.254562e-011
1.435356e-011
-3.613371e-011
-3.306910e-011
-2.763766e-011
-6.031116e-011
-5.703972e-011
1.534530e-011
6.378631e-011
4.992776e-011
6.176129e-011
1.236906e-010
1.452334e-010
1.088978e-010
9.657912e-011
1.120555e-010
8.080205e-011
1.218664e-011
-2.293485e-011
-3.568066e-011
-8.156878e-011
-1.403340e-010
-1.634269e-010
-1.700323e-010
-1.950232e-010
-2.165808e-010
-2.096333e-010
-1.982344e-010
-2.037054e-010
-2.071075e-010
-1.952108e-010
-1.856694e-010
-1.884061e-010
-1.904304e-010
-1.869009e-010
-1.881371e-010
-1.948518e-010
-1.971614e-010
-1.944623e-010
-1.926719e-010
-1.886756e-010
-1.756329e-010
-1.550581e-010
-1.305006e-010
-9.955794e-011
-6.152737e-011
-2.159902e-011
1.836045e-011
6.081417e-011
1.018922e-010
1.328088e-010
1.512215e-010
1.582164e-010
1.487270e-010
1.187513e-010
7.513547e-011
2.615264e-011
-2.684135e-011
-7.727741e-011
-1.071020e-010
-1.043583e-010
-7.469332e-011
-2.930114e-011
2.256961e-011
6.472271e-011
7.667831e-011
5.373375e-011
1.292109e-011
-2.367785e-011
-4.213307e-011
-3.721121e-011
-1.435452e-011
9.265438e-012
1.796057e-011
1.290536e-011
6.418345e-012
3.299230e-012
-1.950932e-012
-1.012439e-011
-1.164295e-011
-1.004833e-012
1.163422e-011
8.674310e-011
2.118355e-011
-5.954212e-011
-9.332007e-011
-4.749202e-011
4.535776e-011
9.727983e-011
5.151913e-011
-3.593232e-011
-5.822858e-011
-1.037072e-011
8.411589e-012
-3.000949e-011
-3.203378e-011
3.554856e-011
6.686807e-011
9.044717e-012
-3.556609e-011
-2.144748e-012
2.292354e-011
-1.662366e-011
-4.354433e-011
-1.273382e-011
1.353228e-011
1.215325e-011
3.083761e-011
5.871944e-011
4.446175e-011
1.449762e-011
1.694293e-011
2.003287e-011
-6.890665e-012
-1.898900e-011
4.522444e-012
1.540186e-011
6.367678e-012
2.885048e-011
8.151043e-011
1.145804e-010
1.338195e-010
1.793332e-010
2.362417e-010
2.689825e-010
2.938773e-010
3.363064e-010
3.744406e-010
3.862454e-010
3.923143e-010
4.100343e-010
4.220964e-010
4.168341e-010
4.087437e-010
4.045366e-010
3.922632e-010
3.694890e-010
3.465125e-010
3.227980e-010
2.890065e-010
2.471635e-010
2.064374e-010
1.669152e-010
1.244588e-010
8.211188e-011
4.453603e-011
1.132103e-011
-1.652065e-011
-3.383581e-011
-3.896669e-011
-3.463044e-011
-2.152848e-011
1.210561e-013
2.579925e-011
5.004103e-011
6.889617e-011
7.576639e-011
6.368876e-011
3.398321e-011
-4.641371e-012
-4.251392e-011
-6.764018e-011
-6.712817e-011
-3.986812e-011
2.397968e-013
3.813481e-011
6.276989e-011
5.996956e-011
2.242332e-011
-2.885495e-011
-5.541020e-011
-4.183527e-011
-9.182563e-012
1.560472e-011
2.566670e-011
2.512274e-011
1.348410e-011
-8.127747e-012
-2.584661e-011
-2.256746e-011
1.254304e-012
2.409403e-011
1.962841e-012
1.201441e-013
-1.247436e-012
-6.729031e-012
-1.160759e-011
5.976383e-012
4.104071e-011
3.886996e-011
-2.447211e-011
-7.369888e-011
-3.579643e-011
2.985002e-011
2.616457e-011
-6.590422e-012
2.373281e-011
6.133255e-011
7.199032e-015
-8.659954e-011
-5.753064e-011
3.162297e-011
3.757249e-011
-1.768825e-012
2.896428e-011
8.046738e-011
5.211372e-011
-3.015731e-012
-2.259442e-012
5.296309e-012
-3.221595e-011
-5.634904e-011
-2.601830e-011
1.310694e-011
4.175546e-011
9.443898e-011
1.680428e-010
2.316693e-010
2.959093e-010
3.775302e-010
4.527695e-010
5.065965e-010
5.585922e-010
6.109892e-010
6.430216e-010
6.600459e-010
6.823827e-010
7.012972e-010
7.008859e-010
6.950661e-010
7.000756e-010
7.046194e-010
6.974978e-010
6.891493e-010
6.865352e-010
6.803587e-010
6.674556e-010
6.559879e-010
6.448989e-010
6.234742e-010
5.903737e-010
5.529678e-010
5.117773e-010
4.611652e-010
4.004844e-010
3.336412e-010
2.626953e-010
1.886685e-010
1.146514e-010
4.522660e-011
-1.484447e-011
-6.170007e-011
-9.242979e-011
-1.024232e-010
-8.688301e-011
-4.915072e-011
-1.075255e-012
4.764723e-011
8.976684e-011
1.104675e-010
9.549344e-011
5.124087e-011
-1.013395e-012
-4.747348e-011
-7.860138e-011
-7.531828e-011
-2.901846e-011
3.093939e-011
5.946685e-011
4.347968e-011
6.915583e-012
-2.307345e-011
-3.395936e-011
-2.256472e-011
3.839286e-012
2.442954e-011
2.131110e-011
-6.536402e-014
-1.707639e-011
-1.513417e-011
2.537711e-013
1.348412e-011
-1.157060e-010
-2.278317e-011
8.662001e-011
1.179012e-010
3.963822e-011
-6.717169e-011
-8.628797e-011
-1.523293e-011
3.032938e-011
-1.522612e-012
-2.040524e-011
2.954289e-011
5.713375e-011
3.199090e-012
-3.564465e-011
-6.260076e-013
9.060887e-012
-4.721547e-011
-4.962959e-011
3.401097e-011
6.725849e-011
1.603226e-011
4.574451e-012
4.483541e-011
2.498392e-011
-2.949203e-011
2.622042e-012
8.691798e-011
1.121642e-010
1.171196e-010
1.901349e-010
2.831210e-010
3.235047e-010
3.530714e-010
4.157797e-010
4.677634e-010
4.830998e-010
5.021022e-010
5.378859e-010
5.581737e-010
5.601800e-010
5.687592e-010
5.831645e-010
5.910010e-010
5.996811e-010
6.148532e-010
6.259597e-010
6.307964e-010
6.386517e-010
6.472394e-010
6.466546e-010
6.386675e-010
6.295621e-010
6.168045e-010
5.982842e-010
5.799181e-010
5.643601e-010
5.461455e-010
5.232261e-010
5.012229e-010
4.836080e-010
4.668935e-010
4.471234e-010
4.249702e-010
4.023600e-010
3.770942e-010
3.442725e-010
3.028105e-010
2.554101e-010
2.014549e-010
1.386262e-010
7.325791e-011
1.771208e-011
-2.319869e-011
-4.920748e-011
-5.152659e-011
-2.275257e-011
2.331707e-011
6.181817e-011
8.043294e-011
7.521726e-011
3.874138e-011
-2.295463e-011
-7.570633e-011
-8.419149e-011
-4.602220e-011
1.212578e-011
5.740732e-011
6.411951e-011
2.785709e-011
-2.219865e-011
-4.405301e-011
-2.596323e-011
4.488439e-012
1.737925e-011
1.080406e-011
8.084940e-013
-2.846894e-012
-2.084419e-012
-1.085256e-012
-1.696639e-010
-1.546587e-011
1.417762e-010
1.653559e-010
4.041265e-011
-1.227413e-010
-1.694071e-010
-4.894797e-011
1.009510e-010
1.110336e-010
1.478350e-011
-2.409781e-011
6.172478e-012
-1.726961e-011
-7.565137e-011
-3.750956e-011
5.689878e-011
5.500208e-011
-1.032910e-011
-1.410521e-012
4.305581e-011
1.591402e-011
-2.227743e-011
1.255876e-011
5.325189e-011
6.000931e-011
1.215628e-010
2.434514e-010
3.129456e-010
3.297500e-010
3.939873e-010
4.870216e-010
5.228586e-010
5.355169e-010
5.958023e-010
6.631750e-010
6.879685e-010
7.187496e-010
7.932794e-010
8.664641e-010
9.131812e-010
9.709544e-010
1.052258e-009
1.125008e-009
1.181211e-009
1.239605e-009
1.296202e-009
1.333579e-009
1.355460e-009
1.372087e-009
1.377140e-009
1.362888e-009
1.334371e-009
1.296301e-009
1.245770e-009
1.182975e-009
1.113626e-009
1.039481e-009
9.582699e-010
8.726435e-010
7.898135e-010
7.125740e-010
6.387596e-010
5.699910e-010
5.124693e-010
4.674198e-010
4.297168e-010
3.976294e-010
3.730797e-010
3.509231e-010
3.205993e-010
2.786028e-010
2.263522e-010
1.601765e-010
7.985777e-011
1.536945e-012
-5.357534e-011
-7.631882e-011
-6.580235e-011
-2.441547e-011
3.160674e-011
7.260716e-011
7.683945e-011
4.267983e-011
-1.491062e-011
-6.465363e-011
-6.949073e-011
-2.253479e-011
3.540816e-011
5.568441e-011
3.170142e-011
-5.444504e-012
-2.733279e-011
-2.726747e-011
-1.172341e-011
7.799266e-012
1.823220e-011
1.322662e-011
-1.158729e-012
-1.258660e-011
-7.319767e-011
1.971996e-011
8.127994e-011
5.273600e-011
-1.713670e-011
-7.556987e-011
-9.121228e-011
-2.314504e-011
9.861140e-011
1.311282e-010
1.533246e-011
-9.224163e-011
-6.308695e-011
-5.229533e-012
-2.494472e-011
-1.744305e-011
7.673097e-011
1.010005e-010
-5.986073e-012
-6.286222e-011
1.028865e-011
6.573504e-011
5.325395e-011
9.125679e-011
1.858397e-010
2.374194e-010
2.713216e-010
3.591242e-010
4.461355e-010
4.853444e-010
5.502774e-010
6.715360e-010
7.812227e-010
8.769772e-010
1.020228e-009
1.186786e-009
1.315910e-009
1.437604e-009
1.594299e-009
1.741922e-009
1.842111e-009
1.932693e-009
2.035548e-009
2.112906e-009
2.151123e-009
2.182588e-009
2.215037e-009
2.225621e-009
2.216925e-009
2.211586e-009
2.208417e-009
2.192485e-009
2.167316e-009
2.142872e-009
2.112894e-009
2.067787e-009
2.010981e-009
1.946656e-009
1.867899e-009
1.768447e-009
1.652188e-009
1.523164e-009
1.379177e-009
1.221678e-009
1.059873e-009
9.005882e-010
7.459418e-010
6.029303e-010
4.826245e-010
3.894714e-010
3.220770e-010
2.796686e-010
2.565350e-010
2.377018e-010
2.096355e-010
1.670211e-010
1.077555e-010
3.663366e-011
-2.698684e-011
-6.154001e-011
-5.953430e-011
-2.321399e-011
3.648185e-011
8.498688e-011
7.831643e-011
1.382938e-011
-5.599384e-011
-7.666443e-011
-4.086035e-011
1.816779e-011
5.786126e-011
5.039487e-011
2.604039e-012
-4.272793e-011
-4.453924e-011
-6.298722e-012
3.013331e-011
3.132526e-011
2.563202e-012
-2.476993e-011
1.649992e-010
3.820573e-011
-1.185909e-010
-1.671145e-010
-5.195633e-011
1.005064e-010
1.133664e-010
7.320226e-012
-3.795902e-011
9.362155e-012
1.900197e-012
-7.240827e-011
-5.608366e-011
4.603811e-011
6.140222e-011
1.706423e-013
1.641813e-011
6.280708e-011
2.928835e-012
-5.750712e-011
3.502378e-011
1.658666e-010
1.937443e-010
2.192254e-010
3.292343e-010
4.187054e-010
4.529284e-010
5.495505e-010
7.215627e-010
8.700101e-010
1.005168e-009
1.195837e-009
1.403599e-009
1.572292e-009
1.731381e-009
1.889751e-009
1.995955e-009
2.049283e-009
2.091438e-009
2.105950e-009
2.059669e-009
1.983080e-009
1.908749e-009
1.813510e-009
1.687283e-009
1.568425e-009
1.474741e-009
1.384550e-009
1.297987e-009
1.242548e-009
1.221507e-009
1.217140e-009
1.231894e-009
1.279396e-009
1.352101e-009
1.433166e-009
1.521952e-009
1.621705e-009
1.719637e-009
1.798468e-009
1.852201e-009
1.877789e-009
1.866504e-009
1.812923e-009
1.719641e-009
1.588965e-009
1.422378e-009
1.228549e-009
1.021320e-009
8.135918e-010
6.203611e-010
4.581175e-010
3.352936e-010
2.530492e-010
2.119261e-010
2.022564e-010
1.970523e-010
1.724836e-010
1.246116e-010
5.743495e-011
-1.976354e-011
-7.475933e-011
-6.865820e-011
-5.688365e-012
6.098658e-011
8.073991e-011
4.348081e-011
-2.274907e-011
-6.809348e-011
-5.307309e-011
8.128403e-012
5.241812e-011
3.691401e-011
-1.280745e-011
-3.877834e-011
-1.819573e-011
1.917933e-011
3.047194e-011
5.645051e-012
-2.459853e-011
3.708114e-010
-4.818071e-014
-3.252926e-010
-2.952312e-010
1.351878e-011
2.763868e-010
2.391079e-010
-3.425012e-011
-2.164322e-010
-1.222394e-010
4.879191e-011
5.963847e-011
3.301753e-012
3.937400e-011
6.324806e-011
-2.265575e-011
-5.829474e-011
4.012378e-011
1.003788e-010
7.200594e-011
1.254792e-010
2.676810e-010
3.387616e-010
3.722999e-010
5.070502e-010
6.850430e-010
8.161895e-010
9.948952e-010
1.272651e-009
1.519847e-009
1.677167e-009
1.827784e-009
1.969646e-009
2.008797e-009
1.944175e-009
1.826993e-009
1.632260e-009
1.330807e-009
9.643875e-010
5.614090e-010
1.054940e-010
-3.872103e-010
-8.736866e-010
-1.348423e-009
-1.814591e-009
-2.238455e-009
-2.593440e-009
-2.890586e-009
-3.130185e-009
-3.284112e-009
-3.341106e-009
-3.313832e-009
-3.200708e-009
-2.988586e-009
-2.685759e-009
-2.314696e-009
-1.884826e-009
-1.401514e-009
-8.873722e-010
-3.730574e-010
1.195911e-010
5.726255e-010
9.655940e-010
1.283331e-009
1.518887e-009
1.667278e-009
1.726990e-009
1.704421e-009
1.608914e-009
1.450752e-009
1.247151e-009
1.018373e-009
7.799026e-010
5.518680e-010
3.653557e-010
2.413993e-010
1.755814e-010
1.531594e-010
1.569288e-010
1.550333e-010
1.146332e-010
3.876126e-011
-3.348314e-011
-6.338960e-011
-3.643449e-011
2.844841e-011
7.683278e-011
5.785084e-011
-1.453610e-011
-6.861944e-011
-5.660185e-011
-1.777404e-012
4.032397e-011
3.981286e-011
8.740636e-012
-1.858600e-011
-1.919525e-011
-2.818664e-012
6.169033e-012
3.775573e-012
3.045917e-010
-6.716955e-011
-3.046151e-010
-1.614036e-010
1.205660e-010
2.384256e-010
1.284288e-010
-9.674297e-011
-2.308496e-010
-1.138801e-010
1.201653e-010
1.657192e-010
1.690729e-011
-5.334023e-011
-2.268266e-012
-1.153950e-011
-3.546221e-011
9.073712e-011
2.449047e-010
2.497516e-010
2.441392e-010
3.848994e-010
5.552791e-010
6.794519e-010
8.808532e-010
1.167078e-009
1.404834e-009
1.605890e-009
1.837819e-009
1.992633e-009
1.960640e-009
1.802523e-009
1.544586e-009
1.081149e-009
3.799341e-010
-4.854470e-010
-1.512506e-009
-2.747709e-009
-4.147425e-009
-5.633328e-009
-7.191354e-009
-8.807699e-009
-1.041489e-008
-1.195720e-008
-1.341258e-008
-1.473947e-008
-1.588308e-008
-1.681804e-008
-1.752804e-008
-1.797625e-008
-1.813291e-008
-1.799528e-008
-1.756292e-008
-1.683143e-008
-1.581757e-008
-1.455973e-008
-1.309630e-008
-1.146814e-008
-9.733881e-009
-7.963049e-009
-6.221304e-009
-4.570008e-009
-3.065865e-009
-1.752024e-009
-6.553529e-010
2.108700e-010
8.500200e-010
1.281801e-009
1.532701e-009
1.632321e-009
1.614599e-009
1.508187e-009
1.329738e-009
1.097798e-009
8.428559e-010
5.955546e-010
3.806134e-010
2.243084e-010
1.445903e-010
1.300881e-010
1.440876e-010
1.446474e-010
9.967833e-011
1.184935e-011
-6.425633e-011
-6.740380e-011
-3.580775e-012
5.639633e-011
5.593795e-011
3.143870e-012
-4.981116e-011
-5.390056e-011
-3.533220e-012
5.180402e-011
5.314438e-011
5.043571e-014
-4.808514e-011
-4.360979e-011
1.320990e-012
4.039280e-011
-9.272116e-011
-7.198081e-011
4.807449e-011
1.645905e-010
9.602632e-011
-7.656284e-011
-1.128875e-010
-2.375884e-011
2.291484e-013
-1.498235e-011
6.018215e-011
1.070179e-010
-6.778095e-012
-9.352043e-011
2.148045e-012
9.675314e-011
8.614404e-011
1.585014e-010
3.373072e-010
4.130792e-010
4.296558e-010
6.215089e-010
9.412671e-010
1.203451e-009
1.454660e-009
1.759649e-009
1.971888e-009
1.996777e-009
1.886571e-009
1.572187e-009
8.846164e-010
-2.057882e-010
-1.683709e-009
-3.653891e-009
-6.185630e-009
-9.208785e-009
-1.267943e-008
-1.661536e-008
-2.093879e-008
-2.549360e-008
-3.018490e-008
-3.494250e-008
-3.962694e-008
-4.408892e-008
-4.823565e-008
-5.197630e-008
-5.519133e-008
-5.778567e-008
-5.970131e-008
-6.087713e-008
-6.125214e-008
-6.079725e-008
-5.951003e-008
-5.739998e-008
-5.450238e-008
-5.088944e-008
-4.666020e-008
-4.193591e-008
-3.686452e-008
-3.161458e-008
-2.636200e-008
-2.128103e-008
-1.653333e-008
-1.225403e-008
-8.543589e-009
-5.461948e-009
-3.022501e-009
-1.195100e-009
8.326465e-011
9.010843e-010
1.361760e-009
1.563491e-009
1.586278e-009
1.492351e-009
1.323923e-009
1.102665e-009
8.464480e-010
5.842405e-010
3.505561e-010
1.796248e-010
1.003971e-010
1.062497e-010
1.334919e-010
1.097033e-010
2.813533e-011
-5.090043e-011
-6.694640e-011
-1.314024e-011
5.826517e-011
7.520379e-011
1.630718e-011
-5.528238e-011
-5.885789e-011
4.740202e-012
5.465827e-011
3.230527e-011
-2.971574e-011
-5.312412e-011
-1.010656e-011
4.553198e-011
-5.707344e-010
3.918302e-011
5.293400e-010
3.970854e-010
-1.311871e-010
-4.383980e-010
-2.130387e-010
2.071678e-010
2.777940e-010
-2.564253e-012
-1.578161e-010
-3.733618e-011
5.265154e-011
2.487161e-011
9.047071e-011
2.120819e-010
2.095293e-010
2.241296e-010
4.322268e-010
6.656244e-010
8.137301e-010
1.073158e-009
1.482746e-009
1.807936e-009
1.981188e-009
2.071429e-009
1.919412e-009
1.289091e-009
1.250002e-010
-1.672443e-009
-4.381039e-009
-8.190723e-009
-1.314023e-008
-1.931667e-008
-2.680213e-008
-3.551118e-008
-4.529473e-008
-5.604005e-008
-6.754821e-008
-7.950750e-008
-9.163988e-008
-1.037106e-007
-1.154264e-007
-1.264769e-007
-1.366270e-007
-1.456720e-007
-1.533811e-007
-1.595509e-007
-1.640446e-007
-1.667458e-007
-1.675395e-007
-1.663522e-007
-1.631680e-007
-1.580099e-007
-1.509446e-007
-1.421056e-007
-1.316986e-007
-1.199921e-007
-1.073111e-007
-9.402952e-008
-8.055298e-008
-6.729531e-008
-5.465139e-008
-4.297209e-008
-3.254166e-008
-2.355599e-008
-1.611090e-008
-1.020642e-008
-5.756052e-009
-2.597954e-009
-5.196734e-010
7.120192e-010
1.332642e-009
1.558754e-009
1.555829e-009
1.427696e-009
1.235601e-009
1.008991e-009
7.514170e-010
4.774798e-010
2.434777e-010
1.107682e-010
8.498170e-011
1.111990e-010
1.176009e-010
6.481045e-011
-1.832725e-011
-5.493082e-011
-9.953966e-012
5.604336e-011
5.871957e-011
-5.004709e-012
-5.969546e-011
-4.614411e-011
1.326178e-011
4.563023e-011
1.744912e-011
-2.358901e-011
-1.872215e-011
1.406524e-011
-7.349368e-010
1.877836e-010
7.327284e-010
3.111571e-010
-3.677037e-010
-4.923335e-010
-6.417433e-011
3.544864e-010
3.066519e-010
-9.557725e-011
-2.969867e-010
-6.064786e-011
2.056197e-010
1.873496e-010
1.341391e-010
2.436447e-010
3.361619e-010
4.080497e-010
6.951244e-010
1.117159e-009
1.420376e-009
1.678942e-009
2.007329e-009
2.170674e-009
1.923002e-009
1.197050e-009
-2.664225e-010
-2.932124e-009
-7.117021e-009
-1.308457e-008
-2.127959e-008
-3.209195e-008
-4.564352e-008
-6.197605e-008
-8.111266e-008
-1.028641e-007
-1.268478e-007
-1.526524e-007
-1.797915e-007
-2.076392e-007
-2.355589e-007
-2.629773e-007
-2.893059e-007
-3.139519e-007
-3.364146e-007
-3.562660e-007
-3.730819e-007
-3.864800e-007
-3.961704e-007
-4.019150e-007
-4.034957e-007
-4.007605e-007
-3.936574e-007
-3.822208e-007
-3.665738e-007
-3.469636e-007
-3.237826e-007
-2.975613e-007
-2.689572e-007
-2.387425e-007
-2.077755e-007
-1.769521e-007
-1.471501e-007
-1.191778e-007
-9.371904e-008
-7.127901e-008
-5.215618e-008
-3.644404e-008
-2.404256e-008
-1.468357e-008
-7.983365e-009
-3.495017e-009
-7.382869e-010
7.621584e-010
1.423015e-009
1.579013e-009
1.487398e-009
1.311680e-009
1.108754e-009
8.745417e-010
6.110962e-010
3.529665e-010
1.600516e-010
8.339474e-011
1.036997e-010
1.246556e-010
7.376076e-011
-1.456600e-011
-5.565405e-011
-2.240430e-011
3.502587e-011
4.987925e-011
4.829687e-012
-4.695554e-011
-4.053977e-011
1.369602e-011
4.393820e-011
2.168013e-011
-1.127251e-011
-2.312025e-011
-3.661270e-010
2.057916e-010
3.836379e-010
-2.834815e-011
-3.015086e-010
-1.143890e-010
1.288296e-010
1.529511e-010
5.240303e-011
-8.092053e-011
-1.284410e-010
4.960638e-011
2.633399e-010
2.307134e-010
1.458618e-010
3.228247e-010
6.088325e-010
8.198811e-010
1.159726e-009
1.677393e-009
2.048765e-009
2.151620e-009
2.059581e-009
1.472152e-009
-1.720392e-010
-3.308482e-009
-8.491106e-009
-1.657477e-008
-2.835102e-008
-4.444672e-008
-6.557246e-008
-9.236498e-008
-1.250582e-007
-1.635920e-007
-2.077631e-007
-2.570483e-007
-3.105559e-007
-3.672495e-007
-4.260133e-007
-4.855797e-007
-5.446408e-007
-6.019972e-007
-6.565259e-007
-7.071523e-007
-7.529334e-007
-7.930716e-007
-8.268422e-007
-8.535956e-007
-8.728037e-007
-8.840311e-007
-8.869014e-007
-8.811386e-007
-8.666157e-007
-8.433571e-007
-8.115508e-007
-7.715996e-007
-7.241630e-007
-6.701666e-007
-6.108015e-007
-5.475146e-007
-4.819676e-007
-4.159548e-007
-3.513039e-007
-2.897682e-007
-2.329034e-007
-1.819409e-007
-1.377052e-007
-1.005821e-007
-7.052256e-008
-4.709009e-008
-2.956686e-008
-1.707083e-008
-8.646791e-009
-3.353404e-009
-3.441443e-010
1.103250e-009
1.591896e-009
1.588496e-009
1.399769e-009
1.181105e-009
9.640314e-010
7.126482e-010
4.259340e-010
1.886698e-010
8.432712e-011
8.996765e-011
1.065992e-010
6.734628e-011
-1.166699e-011
-5.903793e-011
-2.375940e-011
5.189473e-011
6.644561e-011
-4.786352e-012
-6.672163e-011
-3.881874e-011
3.439805e-011
5.703233e-011
9.441242e-012
-4.527207e-011
3.859581e-010
-4.518333e-013
-3.911674e-010
-3.312066e-010
1.528737e-010
4.208508e-010
8.461405e-011
-3.219114e-010
-1.819735e-010
1.952992e-010
2.282282e-010
7.072386e-011
1.084749e-010
2.370723e-010
3.472221e-010
6.397796e-010
1.068357e-009
1.381568e-009
1.692828e-009
2.139474e-009
2.343732e-009
1.855723e-009
4.496610e-010
-2.457457e-009
-7.971309e-009
-1.723561e-008
-3.146229e-008
-5.222487e-008
-8.113946e-008
-1.195199e-007
-1.685173e-007
-2.290368e-007
-3.013203e-007
-3.849157e-007
-4.788964e-007
-5.817916e-007
-6.915467e-007
-8.058252e-007
-9.222321e-007
-1.038302e-006
-1.151611e-006
-1.259998e-006
-1.361575e-006
-1.454658e-006
-1.537805e-006
-1.609843e-006
-1.669784e-006
-1.716765e-006
-1.750069e-006
-1.769105e-006
-1.773358e-006
-1.762420e-006
-1.736033e-006
-1.694120e-006
-1.636823e-006
-1.564579e-006
-1.478201e-006
-1.378934e-006
-1.268505e-006
-1.149158e-006
-1.023634e-006
-8.950836e-007
-7.669247e-007
-6.426532e-007
-5.255924e-007
-4.186178e-007
-3.239220e-007
-2.428566e-007
-1.758581e-007
-1.224862e-007
-8.158378e-008
-5.150408e-008
-3.034839e-008
-1.619584e-008
-7.290382e-009
-2.136303e-009
4.813516e-010
1.509854e-009
1.668270e-009
1.476964e-009
1.232400e-009
1.002999e-009
7.458163e-010
4.595726e-010
2.180651e-010
9.376252e-011
8.486472e-011
1.073636e-010
7.011078e-011
-1.851821e-011
-5.733776e-011
6.498896e-014
6.519387e-011
3.852908e-011
-4.351738e-011
-6.240357e-011
8.403133e-012
6.512660e-011
2.550302e-011
-5.090362e-011
1.074280e-009
-3.303059e-010
-1.104141e-009
-3.531027e-010
6.938213e-010
6.668723e-010
-2.052642e-010
-6.451696e-010
-1.084128e-010
5.420983e-010
4.091818e-010
-7.968794e-011
-3.248980e-011
4.594856e-010
8.286538e-010
1.118874e-009
1.548795e-009
1.925313e-009
2.134253e-009
2.189794e-009
1.543884e-009
-7.877981e-010
-5.722261e-009
-1.454335e-008
-2.933740e-008
-5.254507e-008
-8.671724e-008
-1.347630e-007
-1.996368e-007
-2.836824e-007
-3.884975e-007
-5.148523e-007