# vtk DataFile Version 3.0
vtk output
ASCII
DATASET STRUCTURED_POINTS
DIMENSIONS 100 100 1
SPACING 1 1 1
ORIGIN 0 0 0
POINT_DATA 10000
SCALARS SFBox_profile double
LOOKUP_TABLE default 
0.000000e+000
0.000000e+000
0.000000e+000
0.000000e+000
0.000000e+000
0.000000e+000
0.000000e+000
0.000000e+000
0.000000e+000
0.000000e+000
0.000000e+000
0.000000e+000
0.000000e+000
0.000000e+000
0.000000e+000
0.000000e+000
0.000000e+000
0.000000e+000
0.000000e+000
0.000000e+000
0.000000e+000
0.000000e+000
0.000000e+000
0.000000e+000
0.000000e+000
0.000000e+000
0.000000e+000
0.000000e+000
0.000000e+000
0.000000e+000
0.000000e+000
0.000000e+000
0.000000e+000
0.000000e+000
0.000000e+000
0.000000e+000
0.000000e+000
0.000000e+000
0.000000e+000
0.000000e+000
0.000000e+000
0.000000e+000
0.000000e+000
0.000000e+000
0.000000e+000
0.000000e+000
0.000000e+000
0.000000e+000
0.000000e+000
0.000000e+000
0.000000e+000
0.000000e+000
0.000000e+000
0.000000e+000
0.000000e+000
0.000000e+000
0.000000e+000
0.000000e+000
0.000000e+000
0.000000e+000
0.000000e+000
0.000000e+000
0.000000e+000
0.000000e+000
0.000000e+000
0.000000e+000
0.000000e+000
0.000000e+000
0.000000e+000
0.000000e+000
0.000000e+000
0.000000e+000
0.000000e+000
0.000000e+000
0.000000e+000
0.000000e+000
0.000000e+000
0.000000e+000
0.000000e+000
0.000000e+000
0.000000e+000
0.000000e+000
0.000000e+000
0.000000e+000
0.000000e+000
0.000000e+000
0.000000e+000
0.000000e+000
0.000000e+000
0.000000e+000
0.000000e+000
0.000000e+000
0.000000e+000
0.000000e+000
0.000000e+000
0.000000e+000
0.000000e+000
0.000000e+000
0.000000e+000
0.000000e+000
-1.114048e-008
-7.729299e-009
-2.012914e-009
3.865389e-009
7.280211e-009
6.364534e-009
1.364376e-009
-4.998790e-009
-8.846829e-009
-7.584783e-009
-1.803272e-009
4.916351e-009
8.404513e-009
6.848721e-009
2.003638e-009
-2.360944e-009
-3.543127e-009
-1.929214e-009
-2.262864e-010
-6.772047e-010
-2.905462e-009
-4.434294e-009
-3.300038e-009
-8.749969e-011
2.680080e-009
3.112946e-009
1.763049e-009
7.997975e-010
1.539706e-009
3.063654e-009
3.379665e-009
1.732763e-009
-5.612833e-010
-1.628409e-009
-1.087145e-009
-3.021403e-010
-6.637943e-010
-1.984092e-009
-2.844518e-009
-2.357871e-009
-1.185737e-009
-6.610484e-010
-1.181466e-009
-1.839218e-009
-1.649693e-009
-7.846313e-010
-2.988472e-010
-7.695661e-010
-1.593871e-009
-1.796106e-009
-1.272902e-009
-8.852026e-010
-1.306744e-009
-2.121885e-009
-2.329635e-009
-1.606087e-009
-7.079855e-010
-4.945153e-010
-8.101693e-010
-6.652605e-010
4.851451e-010
1.970534e-009
2.642278e-009
2.234508e-009
1.655163e-009
1.815207e-009
2.426914e-009
2.285196e-009
7.503721e-010
-1.346793e-009
-2.514030e-009
-2.216046e-009
-1.404150e-009
-1.318828e-009
-1.963902e-009
-2.060010e-009
-5.764658e-010
1.901092e-009
3.557774e-009
3.118934e-009
1.093887e-009
-8.152363e-010
-1.434898e-009
-1.097576e-009
-9.150461e-010
-1.294319e-009
-1.424601e-009
-3.181153e-010
1.775484e-009
3.222246e-009
2.449222e-009
-3.909391e-010
-3.236626e-009
-3.744704e-009
-1.333759e-009
2.191730e-009
4.042547e-009
2.717353e-009
-7.525182e-010
-3.618245e-009
1.430367e-009
3.420948e-010
-9.259412e-010
-1.321551e-009
-5.337193e-010
7.494674e-010
1.430994e-009
9.483746e-010
-2.359627e-010
-1.040115e-009
-7.427339e-010
3.211351e-010
1.021718e-009
4.953656e-010
-9.446712e-010
-1.971776e-009
-1.452895e-009
3.979965e-010
2.099845e-009
2.256809e-009
9.017492e-010
-5.488740e-010
-7.401996e-010
2.482492e-010
1.053810e-009
5.514264e-010
-9.060121e-010
-1.886302e-009
-1.462234e-009
-2.053083e-010
5.102397e-010
6.880111e-011
-7.506249e-010
-7.535070e-010
2.615157e-010
1.307063e-009
1.399240e-009
6.855707e-010
1.924745e-010
5.613978e-010
1.322922e-009
1.541527e-009
9.801361e-010
3.499147e-010
3.914346e-010
9.714004e-010
1.304775e-009
9.734450e-010
4.368037e-010
4.131574e-010
9.495963e-010
1.368397e-009
1.140254e-009
5.554999e-010
3.366750e-010
6.953030e-010
1.045515e-009
7.481263e-010
-5.858064e-011
-6.058523e-010
-4.492715e-010
-2.949970e-011
-1.164417e-010
-8.153552e-010
-1.382271e-009
-1.108098e-009
-2.002956e-010
4.313985e-010
2.493613e-010
-2.727236e-010
-2.319251e-010
5.843597e-010
1.383227e-009
1.251835e-009
2.192956e-010
-7.426886e-010
-7.842405e-010
-8.638535e-011
4.066761e-010
9.458418e-011
-6.078937e-010
-7.797609e-010
-7.860780e-011
8.317960e-010
9.852549e-010
1.674965e-010
-8.246424e-010
-9.904588e-010
-1.452081e-010
8.916170e-010
1.104373e-009
2.608688e-010
-8.794525e-010
-1.283375e-009
-5.797738e-010
6.325448e-010
1.328868e-009
9.337937e-010
-2.185883e-010
-1.183889e-009
1.471561e-008
9.296470e-009
1.066080e-009
-6.010509e-009
-8.587929e-009
-5.709462e-009
6.243118e-010
6.561246e-009
8.664106e-009
5.959577e-009
3.870577e-010
-4.675818e-009
-6.715367e-009
-5.500588e-009
-2.680354e-009
-1.472843e-010
1.321171e-009
2.115019e-009
2.840743e-009
3.514867e-009
3.654259e-009
2.947405e-009
1.645149e-009
2.821897e-010
-8.385135e-010
-1.770479e-009
-2.597654e-009
-3.157775e-009
-3.186926e-009
-2.666943e-009
-1.891836e-009
-1.153794e-009
-4.573210e-010
3.688282e-010
1.321315e-009
2.112928e-009
2.470239e-009
2.462497e-009
2.426359e-009
2.562735e-009
2.709505e-009
2.579676e-009
2.163808e-009
1.782973e-009
1.720504e-009
1.896222e-009
1.992747e-009
1.869181e-009
1.735619e-009
1.871458e-009
2.252359e-009
2.561936e-009
2.568558e-009
2.383248e-009
2.273310e-009
2.278655e-009
2.128875e-009
1.571158e-009
6.928451e-010
-1.699090e-010
-8.182172e-010
-1.379560e-009
-2.062504e-009
-2.793346e-009
-3.202207e-009
-2.989049e-009
-2.229950e-009
-1.265806e-009
-3.332593e-010
6.020366e-010
1.627557e-009
2.587483e-009
3.100658e-009
2.883758e-009
1.999668e-009
7.650396e-010
-5.222301e-010
-1.686555e-009
-2.531772e-009
-2.733225e-009
-2.018099e-009
-5.009246e-010
1.214660e-009
2.350507e-009
2.433670e-009
1.532070e-009
1.144565e-010
-1.239199e-009
-2.021381e-009
-1.882916e-009
-7.835875e-010
8.151099e-010
2.004375e-009
1.935296e-009
5.157565e-010
-1.330636e-009
-2.237032e-009
-1.458475e-009
4.553575e-010
2.028017e-009
1.499145e-008
1.043234e-008
2.919827e-009
-4.593988e-009
-8.743930e-009
-7.432542e-009
-1.394600e-009
5.727589e-009
9.402471e-009
7.232559e-009
7.417229e-010
-5.656086e-009
-7.896622e-009
-5.195039e-009
-3.084290e-010
2.988639e-009
2.965072e-009
9.286148e-010
-4.722081e-010
1.606411e-010
1.911717e-009
2.783339e-009
1.774142e-009
-2.680103e-010
-1.674742e-009
-1.631411e-009
-7.873644e-010
-3.525285e-010
-7.849467e-010
-1.438044e-009
-1.392980e-009
-4.703042e-010
6.409616e-010
1.160661e-009
9.894802e-010
6.845453e-010
7.735400e-010
1.211423e-009
1.526187e-009
1.399259e-009
9.977467e-010
7.335539e-010
7.894973e-010
9.649678e-010
9.702868e-010
7.792566e-010
6.280350e-010
7.016065e-010
9.119382e-010
1.027960e-009
9.730737e-010
9.110972e-010
1.020275e-009
1.248694e-009
1.364036e-009
1.236366e-009
9.945599e-010
8.518523e-010
8.164515e-010
6.617902e-010
2.143523e-010
-3.924809e-010
-8.325294e-010
-9.529998e-010
-9.415512e-010
-1.061690e-009
-1.262845e-009
-1.168643e-009
-5.166409e-010
4.511096e-010
1.152244e-009
1.257017e-009
1.036652e-009
1.018707e-009
1.301691e-009
1.337913e-009
5.183831e-010
-1.032772e-009
-2.365418e-009
-2.509402e-009
-1.381909e-009
1.564913e-010
1.151167e-009
1.386875e-009
1.326921e-009
1.308937e-009
1.009756e-009
-1.116124e-010
-1.853168e-009
-2.978684e-009
-2.182101e-009
4.865982e-010
3.224196e-009
3.765675e-009
1.380846e-009
-2.251467e-009
-4.249519e-009
-2.910910e-009
7.756361e-010
3.862954e-009
-9.876797e-010
9.970788e-010
2.917744e-009
2.641242e-009
3.977201e-011
-2.779088e-009
-3.375668e-009
-1.273805e-009
1.530030e-009
2.405296e-009
6.053833e-010
-1.939584e-009
-2.410471e-009
1.408432e-010
3.697873e-009
5.001440e-009
2.553356e-009
-1.931059e-009
-5.035340e-009
-4.700653e-009
-1.925446e-009
4.513879e-010
5.791849e-010
-7.875419e-010
-1.378354e-009
8.060947e-011
2.575478e-009
3.974428e-009
3.282340e-009
1.557312e-009
6.228110e-010
1.098295e-009
1.896146e-009
1.607650e-009
1.217449e-010
-1.317833e-009
-1.562878e-009
-7.942349e-010
-1.800994e-010
-4.712448e-010
-1.209834e-009
-1.400027e-009
-7.415870e-010
5.781293e-011
1.868247e-010
-3.129099e-010
-6.855270e-010
-4.516138e-010
1.265782e-011
1.341149e-013
-6.025107e-010
-1.164908e-009
-1.106932e-009
-6.131515e-010
-3.616542e-010
-6.212418e-010
-8.758603e-010
-4.685775e-010
5.412373e-010
1.403545e-009
1.581106e-009
1.404253e-009
1.629291e-009
2.418340e-009
3.020511e-009
2.611378e-009
1.311157e-009
1.215013e-010
-2.060616e-010
-3.782315e-011
-3.839997e-010
-1.590268e-009
-2.748237e-009
-2.601337e-009
-9.786466e-010
8.876422e-010
1.583252e-009
9.444707e-010
1.112733e-010
1.571199e-010
8.609912e-010
1.024675e-009
-2.360622e-011
-1.472946e-009
-1.781191e-009
-3.875872e-010
1.493530e-009
1.966448e-009
3.958578e-010
-1.809202e-009
-2.459186e-009
-7.200162e-010
1.970229e-009
3.145834e-009
1.588918e-009
-1.483672e-009
-3.436692e-009
-2.533034e-009
5.186709e-010
3.153399e-009
-2.144546e-008
-1.235449e-008
3.518847e-010
9.390017e-009
1.039420e-008
4.398695e-009
-3.503318e-009
-8.068658e-009
-7.340398e-009
-3.189637e-009
9.941650e-010
3.177483e-009
3.681817e-009
3.837550e-009
4.036468e-009
3.299566e-009
7.129891e-010
-2.983322e-009
-5.577499e-009
-5.350178e-009
-2.810679e-009
-2.825832e-010
3.621510e-010
-5.001195e-010
-8.184641e-010
7.967422e-010
3.495951e-009
5.076884e-009
4.344634e-009
2.343056e-009
1.133864e-009
1.541406e-009
2.395366e-009
2.046443e-009
3.379440e-010
-1.234841e-009
-1.283360e-009
-9.337529e-011
8.029297e-010
4.583807e-010
-4.591357e-010
-5.982831e-010
3.951476e-010
1.491191e-009
1.576320e-009
7.845838e-010
2.427078e-010
6.189317e-010
1.316199e-009
1.282353e-009
3.674961e-010
-4.915017e-010
-4.625515e-010
1.494657e-010
3.388757e-010
-2.660093e-010
-8.817349e-010
-5.392675e-010
6.771676e-010
1.701513e-009
1.801440e-009
1.486805e-009
1.840031e-009
3.069660e-009
4.098115e-009
3.757230e-009
2.177233e-009
6.682740e-010
1.963824e-010
2.748364e-010
-3.721969e-010
-2.135061e-009
-3.834717e-009
-3.897150e-009
-2.074168e-009
2.573315e-010
1.550052e-009
1.619232e-009
1.528992e-009
2.047068e-009
2.544710e-009
1.690221e-009
-8.104549e-010
-3.437111e-009
-4.056900e-009
-1.968390e-009
1.299239e-009
3.273381e-009
2.669649e-009
3.606512e-010
-1.599714e-009
-1.824489e-009
-5.922681e-010
7.225166e-010
1.019115e-009
3.238033e-010
-4.883353e-010
-6.347640e-010
-1.012470e-010
4.721045e-010
-2.783357e-008
-1.783900e-008
-3.049360e-009
9.048126e-009
1.289383e-008
7.938997e-009
-1.315965e-009
-8.425779e-009
-9.227495e-009
-4.279684e-009
2.161157e-009
5.677028e-009
4.852926e-009
1.646620e-009
-9.429244e-010
-1.517378e-009
-8.798531e-010
-4.746264e-010
-6.509267e-010
-5.975466e-010
2.760823e-010
1.362647e-009
1.516166e-009
5.211243e-010
-4.877600e-010
-2.713233e-010
1.034656e-009
2.008627e-009
1.577893e-009
2.982630e-010
-2.642516e-010
6.438814e-010
2.089861e-009
2.576303e-009
1.820288e-009
1.057386e-009
1.516488e-009
2.921505e-009
3.831771e-009
3.386899e-009
2.320126e-009
2.024590e-009
2.851319e-009
3.732543e-009
3.553268e-009
2.535232e-009
1.925474e-009
2.422948e-009
3.332524e-009
3.479895e-009
2.694841e-009
1.985058e-009
2.211376e-009
2.973146e-009
3.121805e-009
2.235947e-009
1.170820e-009
9.794162e-010
1.576778e-009
1.850699e-009
1.092332e-009
-5.767901e-011
-3.596002e-010
4.903649e-010
1.449076e-009
1.369550e-009
3.839977e-010
-2.685707e-010
2.346606e-010
1.276339e-009
1.512714e-009
4.639831e-010
-9.161485e-010
-1.341607e-009
-6.284544e-010
2.195534e-010
3.033583e-010
-1.006617e-010
2.730390e-011
1.061369e-009
2.072281e-009
1.733554e-009
-1.861091e-010
-2.393487e-009
-3.183554e-009
-1.944875e-009
4.007630e-010
2.286670e-009
2.709628e-009
1.702920e-009
-1.977844e-011
-1.606476e-009
-2.342898e-009
-1.806574e-009
-1.467993e-010
1.728363e-009
2.536458e-009
1.564636e-009
-5.969630e-010
-2.354047e-009
-1.058402e-008
-8.374589e-009
-4.194899e-009
8.131167e-010
4.467234e-009
4.782621e-009
1.789726e-009
-1.969378e-009
-3.255449e-009
-9.551352e-010
2.729535e-009
4.117561e-009
1.427719e-009
-3.450563e-009
-6.556871e-009
-5.367253e-009
-8.943984e-010
3.503196e-009
5.232064e-009
4.393822e-009
2.918168e-009
2.241734e-009
2.114595e-009
1.504713e-009
1.573393e-010
-1.105262e-009
-1.489587e-009
-1.180713e-009
-9.491823e-010
-1.039384e-009
-8.525813e-010
1.704262e-010
1.666644e-009
2.674459e-009
2.781064e-009
2.604461e-009
2.954731e-009
3.736037e-009
4.021785e-009
3.244344e-009
1.985559e-009
1.326890e-009
1.549671e-009
1.828610e-009
1.319274e-009
2.677680e-010
-2.668307e-010
2.724149e-010
1.254747e-009
1.667513e-009
1.376935e-009
1.239980e-009
1.942325e-009
3.062314e-009
3.558483e-009
3.050996e-009
2.259512e-009
2.048654e-009
2.310416e-009
2.111362e-009
9.158054e-010
-6.664466e-010
-1.549609e-009
-1.416067e-009
-9.927912e-010
-1.053460e-009
-1.422916e-009
-1.215936e-009
2.074482e-011
1.690138e-009
2.777476e-009
2.908223e-009
2.549910e-009
2.215239e-009
1.764629e-009
7.064693e-010
-9.273591e-010
-2.298009e-009
-2.494579e-009
-1.452564e-009
-5.446191e-012
9.363579e-010
1.109300e-009
8.064100e-010
3.163727e-010
-2.815878e-010
-7.942607e-010
-7.358707e-010
1.843849e-010
1.400241e-009
1.665337e-009
2.551164e-010
-1.967422e-009
-2.985838e-009
-1.482445e-009
1.633012e-009
3.731494e-009
2.794760e-009
-5.857580e-010
-3.565723e-009
2.056130e-008
1.092624e-008
-1.759341e-009
-9.464703e-009
-8.651724e-009
-2.172046e-009
4.021599e-009
6.007344e-009
4.302034e-009
1.949419e-009
8.462254e-010
1.792756e-010
-1.763823e-009
-4.820407e-009
-6.519130e-009
-4.574604e-009
4.171255e-010
5.113143e-009
6.398483e-009
4.170221e-009
1.128456e-009
-4.481450e-011
8.963763e-010
2.077456e-009
1.836004e-009
3.865128e-010
-7.717872e-010
-6.675121e-010
2.605782e-010
9.601948e-010
1.006350e-009
8.107130e-010
8.133051e-010
8.612716e-010
5.017175e-010
-3.737243e-010
-1.453112e-009
-2.514099e-009
-3.719724e-009
-5.271395e-009
-6.953643e-009
-8.277940e-009
-9.075260e-009
-9.710850e-009
-1.057128e-008
-1.147925e-008
-1.184162e-008
-1.138123e-008
-1.050316e-008
-9.793874e-009
-9.286769e-009
-8.451243e-009
-6.929102e-009
-5.065096e-009
-3.541775e-009
-2.590719e-009
-1.794460e-009
-7.169179e-010
4.697270e-010
1.167751e-009
1.091689e-009
6.092499e-010
2.816040e-010
2.340562e-010
1.545651e-010
-1.499600e-010
-4.247143e-010
-2.876665e-010
2.768716e-010
9.336397e-010
1.464470e-009
1.992199e-009
2.616388e-009
2.984461e-009
2.492353e-009
9.888430e-010
-8.836180e-010
-2.208105e-009
-2.598259e-009
-2.330642e-009
-1.705354e-009
-5.681369e-010
1.252460e-009
3.109144e-009
3.573350e-009
1.735855e-009
-1.481682e-009
-3.660153e-009
-2.941131e-009
9.217074e-011
2.739262e-009
2.635653e-009
1.910891e-011
-2.477409e-009
-2.387235e-009
1.723149e-010
2.628863e-009
2.513437e-009
-9.030484e-011
-2.634739e-009
4.190458e-008
2.514137e-008
1.992082e-009
-1.416597e-008
-1.606813e-008
-6.617150e-009
4.714249e-009
9.661748e-009
6.716597e-009
5.065585e-010
-3.418090e-009
-3.235896e-009
-1.121602e-009
1.061421e-010
-3.317059e-011
3.054210e-011
1.317454e-009
2.715416e-009
2.255148e-009
-3.583835e-010
-3.009604e-009
-3.191051e-009
-5.804274e-010
2.648795e-009
4.070706e-009
3.324073e-009
2.094611e-009
2.021770e-009
2.954093e-009
3.326982e-009
1.960774e-009
-8.283356e-010
-3.855416e-009
-6.456124e-009
-9.022051e-009
-1.228672e-008
-1.638786e-008
-2.075586e-008
-2.475708e-008
-2.823164e-008
-3.140156e-008
-3.443773e-008
-3.723947e-008
-3.956491e-008
-4.123651e-008
-4.219724e-008
-4.246474e-008
-4.209883e-008
-4.117071e-008
-3.969516e-008
-3.760293e-008
-3.484066e-008
-3.150687e-008
-2.783367e-008
-2.400922e-008
-2.007190e-008
-1.602973e-008
-1.203775e-008
-8.362169e-009
-5.160962e-009
-2.401432e-009
-6.053724e-011
1.681471e-009
2.596590e-009
2.768375e-009
2.634037e-009
2.534770e-009
2.303495e-009
1.505227e-009
1.504243e-010
-1.015162e-009
-1.154155e-009
-2.681585e-010
7.192472e-010
9.345999e-010
4.809783e-010
1.833040e-010
4.313324e-010
5.825233e-010
-2.059193e-010
-1.636072e-009
-2.165726e-009
-5.880773e-010
2.318852e-009
4.070494e-009
2.737827e-009
-9.901053e-010
-4.151869e-009
-4.117045e-009
-9.825837e-010
2.547933e-009
3.648760e-009
1.815706e-009
-9.641029e-010
-2.264498e-009
-1.391735e-009
3.158466e-010
1.088653e-009
4.756423e-010
-4.490828e-010
3.434762e-008
2.140680e-008
3.254213e-009
-9.846657e-009
-1.188277e-008
-4.702879e-009
4.076306e-009
7.180615e-009
3.030541e-009
-3.795203e-009
-7.041850e-009
-4.138659e-009
2.144369e-009
6.754938e-009
6.870496e-009
3.669154e-009
2.601588e-010
-1.534830e-009
-2.209690e-009
-2.898889e-009
-3.453647e-009
-2.618474e-009
9.950920e-011
3.326100e-009
4.946166e-009
4.201490e-009
2.318196e-009
9.351698e-010
1.425525e-010
-1.663119e-009
-6.026342e-009
-1.281962e-008
-2.052177e-008
-2.792350e-008
-3.526891e-008
-4.364999e-008
-5.350847e-008
-6.399022e-008
-7.377328e-008
-8.230642e-008
-9.006499e-008
-9.766222e-008
-1.049203e-007
-1.109232e-007
-1.148915e-007
-1.168458e-007
-1.173651e-007
-1.168021e-007
-1.148740e-007
-1.110520e-007
-1.052544e-007
-9.803456e-008
-9.007028e-008
-8.157070e-008
-7.230656e-008
-6.222213e-008
-5.187359e-008
-4.211596e-008
-3.336871e-008
-2.535535e-008
-1.769135e-008
-1.064029e-008
-5.061822e-009
-1.507470e-009
4.781363e-010
1.923369e-009
3.276474e-009
3.912376e-009
2.991891e-009
7.297400e-010
-1.476314e-009
-2.323032e-009
-1.844891e-009
-1.146077e-009
-9.316619e-010
-6.409590e-010
6.901265e-010
2.840146e-009
4.114433e-009
2.967706e-009
-1.476031e-010
-2.857108e-009
-3.001599e-009
-6.989034e-010
1.792540e-009
2.248062e-009
4.805549e-010
-1.713639e-009
-2.383025e-009
-1.107741e-009
9.215734e-010
2.158796e-009
1.917642e-009
6.017466e-010
-8.703049e-010
-1.714813e-009
-1.590115e-009
-6.313805e-010
6.349933e-010
1.515303e-009
1.274086e-010
5.851934e-010
8.857338e-010
7.395872e-010
6.848559e-010
1.272266e-009
1.892251e-009
9.942116e-010
-2.067080e-009
-5.530883e-009
-6.183011e-009
-2.358768e-009
3.939127e-009
8.280944e-009
7.568342e-009
2.746499e-009
-2.188692e-009
-3.840834e-009
-2.084790e-009
6.297783e-010
2.132104e-009
2.335583e-009
2.387578e-009
2.662024e-009
2.123980e-009
-3.821548e-010
-4.764624e-009
-1.002895e-008
-1.586905e-008
-2.344815e-008
-3.432040e-008
-4.874802e-008
-6.542576e-008
-8.293565e-008
-1.011933e-007
-1.211894e-007
-1.433820e-007
-1.666717e-007
-1.891564e-007
-2.097424e-007
-2.287232e-007
-2.467153e-007
-2.632763e-007
-2.768555e-007
-2.861055e-007
-2.909911e-007
-2.924234e-007
-2.909197e-007
-2.859120e-007
-2.765079e-007
-2.627523e-007
-2.458654e-007
-2.271838e-007
-2.070972e-007
-1.852615e-007
-1.618034e-007
-1.379985e-007
-1.155282e-007
-9.515814e-008
-7.643329e-008
-5.878330e-008
-4.269720e-008
-2.948585e-008
-1.985049e-008
-1.298280e-008
-7.355223e-009
-2.330593e-009
1.320675e-009
2.633749e-009
1.935407e-009
7.860971e-010
4.253921e-010
6.077742e-010
2.604078e-010
-8.415771e-010
-1.482628e-009
-3.351175e-010
2.290378e-009
4.374871e-009
4.028627e-009
1.309868e-009
-1.856902e-009
-3.448798e-009
-2.907793e-009
-1.130411e-009
6.497009e-010
1.702444e-009
1.795167e-009
9.513570e-010
-4.260329e-010
-1.418643e-009
-1.130122e-009
3.369357e-010
1.640217e-009
1.347687e-009
-5.017744e-010
-2.185030e-009
-1.921550e-009
2.352736e-010
2.302521e-009
-3.738303e-008
-2.223719e-008
-1.958359e-009
1.135106e-008
1.238216e-008
5.076777e-009
-2.476404e-009
-5.163274e-009
-3.592396e-009
-1.216051e-009
-1.640879e-011
6.606475e-010
1.847992e-009
2.823109e-009
1.906780e-009
-9.515601e-010
-3.263199e-009
-2.236759e-009
2.184578e-009
6.926916e-009
8.563498e-009
6.285500e-009
1.983264e-009
-2.349728e-009
-6.860945e-009
-1.346540e-008
-2.375328e-008
-3.782625e-008
-5.520223e-008
-7.628370e-008
-1.023676e-007
-1.342130e-007
-1.710578e-007
-2.113533e-007
-2.542553e-007
-2.999536e-007
-3.484177e-007
-3.981729e-007
-4.467117e-007
-4.921114e-007
-5.339127e-007
-5.722178e-007
-6.061674e-007
-6.337242e-007
-6.530747e-007
-6.639515e-007
-6.672710e-007
-6.635510e-007
-6.520750e-007
-6.318412e-007
-6.031301e-007
-5.677590e-007
-5.277060e-007
-4.837920e-007
-4.360229e-007
-3.851321e-007
-3.333602e-007
-2.834243e-007
-2.368501e-007
-1.936312e-007
-1.535638e-007
-1.175552e-007
-8.724500e-008
-6.337187e-008
-4.489197e-008
-2.996488e-008
-1.765816e-008
-8.370184e-009
-2.573120e-009
4.596715e-010
2.310925e-009
3.894938e-009
4.692300e-009
3.755887e-009
1.299191e-009
-1.063163e-009
-1.740989e-009
-6.231516e-010
1.017287e-009
1.871455e-009
1.588294e-009
5.499055e-010
-8.159448e-010
-2.107269e-009
-2.572743e-009
-1.371445e-009
1.320713e-009
3.707470e-009
3.573196e-009
5.400477e-010
-3.053234e-009
-4.050473e-009
-1.555531e-009
2.023355e-009
3.284555e-009
1.244891e-009
-1.727227e-009
-2.480790e-009
-4.167689e-010
1.987821e-009
-5.172284e-008
-2.991127e-008
-1.167444e-009
1.651003e-008
1.550262e-008
2.707825e-009
-8.199539e-009
-8.655335e-009
-8.388631e-010
6.646188e-009
7.547842e-009
2.686580e-009
-2.676354e-009
-4.688006e-009
-3.673130e-009
-1.969912e-009
-4.720159e-010
1.868559e-009
5.536944e-009
8.582347e-009
7.950442e-009
2.451865e-009
-6.280867e-009
-1.610190e-008
-2.732820e-008
-4.307789e-008
-6.678458e-008
-9.981582e-008
-1.416521e-007
-1.918840e-007
-2.513264e-007
-3.209880e-007
-4.003999e-007
-4.874398e-007
-5.797275e-007
-6.757015e-007
-7.740774e-007
-8.726068e-007
-9.679645e-007
-1.057066e-006
-1.138198e-006
-1.210556e-006
-1.272844e-006
-1.322810e-006
-1.358376e-006
-1.378938e-006
-1.385140e-006
-1.377381e-006
-1.354961e-006
-1.316991e-006
-1.263968e-006
-1.198033e-006
-1.121599e-006
-1.036070e-006
-9.422488e-007
-8.419137e-007
-7.385379e-007
-6.361669e-007
-5.377265e-007
-4.446760e-007
-3.582154e-007
-2.803385e-007
-2.132910e-007
-1.580484e-007
-1.136840e-007
-7.839393e-008
-5.092625e-008
-3.076697e-008
-1.710385e-008
-8.149046e-009
-1.870643e-009
2.706483e-009
5.261077e-009
5.317935e-009
3.392758e-009
8.413386e-010
-1.202388e-009
-2.373413e-009
-2.597862e-009
-1.608459e-009
5.670668e-010
2.785463e-009
3.187374e-009
1.018386e-009
-2.055411e-009
-3.090013e-009
-7.961487e-010
2.790347e-009
4.040235e-009
1.400194e-009
-2.820560e-009
-4.618061e-009
-2.308493e-009
1.787082e-009
3.763321e-009
2.089083e-009
-1.051068e-009
-2.318554e-009
-7.949794e-010
1.285385e-009
-3.397127e-008
-1.750370e-008
3.279238e-009
1.395865e-008
9.263296e-009
-3.526365e-009
-1.170648e-008
-8.234616e-009
2.953899e-009
1.156733e-008
1.061790e-008
2.077185e-009
-6.074704e-009
-7.638567e-009
-3.045031e-009
2.644978e-009
5.338910e-009
4.953917e-009
3.511958e-009
1.504418e-009
-3.065834e-009
-1.246316e-008
-2.721506e-008
-4.706507e-008
-7.363410e-008
-1.113102e-007
-1.650387e-007
-2.374007e-007
-3.280969e-007
-4.359821e-007
-5.608864e-007
-7.030434e-007
-8.610460e-007
-1.030960e-006
-1.207628e-006
-1.386528e-006
-1.564136e-006
-1.736864e-006
-1.900399e-006
-2.050518e-006
-2.184345e-006
-2.300419e-006
-2.397547e-006
-2.474000e-006
-2.528083e-006
-2.559178e-006
-2.567733e-006
-2.554095e-006
-2.517710e-006
-2.457794e-006
-2.374645e-006
-2.269948e-006
-2.145746e-006
-2.003522e-006
-1.844691e-006
-1.671973e-006
-1.489952e-006
-1.304099e-006
-1.119416e-006
-9.401293e-007
-7.704258e-007
-6.148055e-007
-4.772267e-007
-3.598435e-007
-2.627395e-007
-1.848427e-007
-1.248083e-007
-8.089663e-008
-5.037461e-008
-2.968778e-008
-1.561474e-008
-6.220940e-009
-5.892909e-010
2.154394e-009
3.155914e-009
3.159928e-009
2.056357e-009
-3.130581e-010
-2.889423e-009
-3.544515e-009
-1.070106e-009
3.035646e-009
5.369130e-009
3.731148e-009
-5.443163e-010
-3.683670e-009
-3.097572e-009
1.494544e-010
2.577939e-009
1.892519e-009
-8.383699e-010
-2.568956e-009
-1.559255e-009
9.657725e-010
2.353126e-009
1.383482e-009
-6.328917e-010
-1.507402e-009
-5.837025e-010
7.272335e-010
1.853175e-009
4.348708e-009
6.406302e-009
4.759977e-009
-9.578018e-010
-7.140399e-009
-8.739468e-009
-3.754684e-009
4.335556e-009
9.030198e-009
6.506288e-009
-6.801245e-010
-5.745267e-009
-3.919732e-009
3.202431e-009
9.383832e-009
9.557804e-009
3.757818e-009
-4.476039e-009
-1.294342e-008
-2.366469e-008
-4.145898e-008
-7.080727e-008
-1.148672e-007
-1.771702e-007
-2.630401e-007
-3.783073e-007
-5.264384e-007
-7.071758e-007
-9.178626e-007
-1.155414e-006
-1.416406e-006
-1.695416e-006
-1.984087e-006
-2.272536e-006
-2.551938e-006
-2.815841e-006
-3.059465e-006
-3.278594e-006
-3.469701e-006
-3.631023e-006
-3.762923e-006
-3.866881e-006
-3.944224e-006
-3.995874e-006
-4.022913e-006
-4.026696e-006
-4.008063e-006
-3.966614e-006
-3.900977e-006
-3.809724e-006
-3.691774e-006
-3.546039e-006
-3.371250e-006
-3.166727e-006
-2.933618e-006
-2.675432e-006
-2.397611e-006
-2.106924e-006
-1.811377e-006
-1.520202e-006
-1.243076e-006
-9.885678e-007
-7.628712e-007
-5.696436e-007
-4.104988e-007
-2.851381e-007
-1.909748e-007
-1.232192e-007
-7.610556e-008
-4.450428e-008
-2.449938e-008
-1.269078e-008
-5.595137e-009
-3.765410e-010
3.793368e-009
5.722991e-009
4.235224e-009
3.886513e-010
-2.656191e-009
-2.308652e-009
9.457208e-010
3.944266e-009
3.867157e-009
8.283593e-010
-2.481675e-009
-3.492170e-009
-1.941841e-009
3.875319e-010
1.651210e-009
1.433381e-009
5.551663e-010
-8.677507e-011
-2.634415e-010
-2.375900e-010
-2.348930e-010
-2.332853e-010
-1.311493e-010
5.831365e-011
2.089492e-010
3.226147e-008
1.975742e-008
3.219762e-009
-7.523295e-009
-8.694289e-009
-3.779289e-009
1.278014e-009
3.218388e-009
2.409034e-009
4.669400e-010
-1.543331e-009
-2.675261e-009
-1.443486e-009
2.932008e-009
8.535517e-009
1.105624e-008
6.988615e-009
-3.527901e-009
-1.775511e-008
-3.473703e-008
-5.872241e-008
-9.835366e-008
-1.629048e-007
-2.596209e-007
-3.942008e-007
-5.724302e-007
-7.997945e-007
-1.078686e-006
-1.405877e-006
-1.772588e-006
-2.166523e-006
-2.573468e-006
-2.977480e-006
-3.361149e-006
-3.707629e-006
-4.003839e-006
-4.242546e-006
-4.421993e-006
-4.544197e-006
-4.613927e-006
-4.638829e-006
-4.629373e-006
-4.597514e-006
-4.554671e-006
-4.510425e-006
-4.472312e-006
-4.445821e-006
-4.433838e-006
-4.435912e-006
-4.448079e-006
-4.463286e-006
-4.471935e-006
-4.462420e-006
-4.422095e-006
-4.338853e-006
-4.202796e-006
-4.007496e-006
-3.750967e-006
-3.436700e-006
-3.074385e-006
-2.679364e-006
-2.270423e-006
-1.866860e-006
-1.486215e-006
-1.143022e-006
-8.478427e-007
-6.060433e-007
-4.170836e-007
-2.755380e-007
-1.737104e-007
-1.040301e-007
-5.959987e-008
-3.337565e-008
-1.803038e-008
-7.580506e-009
6.332094e-010
5.975183e-009
6.998950e-009
4.149907e-009
1.378220e-010
-2.124194e-009
-1.701289e-009
1.536634e-010
1.560632e-009
1.540401e-009
3.203134e-010
-1.213992e-009
-2.063416e-009
-1.512871e-009
3.529918e-010
2.339961e-009
2.797742e-009
1.112410e-009
-1.420919e-009
-2.606646e-009
-1.496600e-009
6.083123e-010
1.547866e-009
6.342176e-010
-7.044803e-010
4.301995e-008
2.119080e-008
-5.411072e-009
-1.778209e-008
-1.080626e-008
4.533039e-009
1.308345e-008
9.002286e-009
-1.465323e-009
-8.261321e-009
-6.959618e-009
-6.527965e-010
5.164529e-009
7.679147e-009
7.017653e-009
3.392347e-009
-4.483023e-009
-1.854261e-008
-4.079184e-008
-7.514299e-008
-1.300149e-007
-2.183370e-007
-3.542450e-007
-5.493218e-007
-8.112321e-007
-1.144170e-006
-1.548131e-006
-2.015647e-006
-2.528250e-006
-3.056105e-006
-3.561756e-006
-4.005684e-006
-4.351026e-006
-4.566994e-006
-4.632091e-006
-4.537357e-006
-4.288083e-006
-3.902566e-006
-3.408567e-006
-2.839722e-006
-2.233226e-006
-1.628134e-006
-1.063000e-006
-5.728841e-007
-1.869993e-007
7.228675e-008
1.897072e-007
1.575538e-007
-2.351434e-008
-3.437855e-007
-7.842657e-007
-1.317004e-006
-1.906213e-006
-2.510388e-006
-3.085171e-006
-3.586458e-006
-3.973829e-006
-4.214806e-006
-4.289686e-006
-4.195283e-006
-3.945633e-006
-3.569291e-006
-3.104631e-006
-2.594753e-006
-2.082361e-006
-1.604317e-006
-1.186681e-006
-8.422795e-007
-5.722628e-007
-3.704794e-007
-2.276223e-007
-1.330381e-007
-7.489979e-008
-4.096095e-008
-2.075778e-008
-7.746711e-009
5.912041e-010
4.702537e-009
5.084830e-009
3.005142e-009
5.384730e-011
-2.314846e-009
-2.933571e-009
-1.350135e-009
1.465144e-009
3.282912e-009
2.358544e-009
-6.146978e-010
-2.742593e-009
-1.746801e-009
1.423450e-009
3.322222e-009
1.688047e-009
-1.911455e-009
-3.645455e-009
-1.653763e-009
1.828972e-009
2.983929e-009
7.399706e-010
-2.070149e-009
3.617927e-008
1.344189e-008
-1.260568e-008
-2.106776e-008
-8.112698e-009
1.128470e-008
1.882279e-008
9.636237e-009
-5.344914e-009
-1.179223e-008
-5.498668e-009
5.696793e-009
1.124158e-008
7.453044e-009
-1.789515e-009
-1.198943e-008
-2.441385e-008
-4.652695e-008