# vtk DataFile Version 3.0
vtk output
ASCII
DATASET STRUCTURED_POINTS
DIMENSIONS 100 100 1
SPACING 1 1 1
ORIGIN 0 0 0
POINT_DATA 10000
SCALARS SFBox_profile double
LOOKUP_TABLE default 
0.000000e+000
0.000000e+000
0.000000e+000
0.000000e+000
0.000000e+000
0.000000e+000
0.000000e+000
0.000000e+000
0.000000e+000
0.000000e+000
0.000000e+000
0.000000e+000
0.000000e+000
0.000000e+000
0.000000e+000
0.000000e+000
0.000000e+000
0.000000e+000
0.000000e+000
0.000000e+000
0.000000e+000
0.000000e+000
0.000000e+000
0.000000e+000
0.000000e+000
0.000000e+000
0.000000e+000
0.000000e+000
0.000000e+000
0.000000e+000
0.000000e+000
0.000000e+000
0.000000e+000
0.000000e+000
0.000000e+000
0.000000e+000
0.000000e+000
0.000000e+000
0.000000e+000
0.000000e+000
0.000000e+000
0.000000e+000
0.000000e+000
0.000000e+000
0.000000e+000
0.000000e+000
0.000000e+000
0.000000e+000
0.000000e+000
0.000000e+000
0.000000e+000
0.000000e+000
0.000000e+000
0.000000e+000
0.000000e+000
0.000000e+000
0.000000e+000
0.000000e+000
0.000000e+000
0.000000e+000
0.000000e+000
0.000000e+000
0.000000e+000
0.000000e+000
0.000000e+000
0.000000e+000
0.000000e+000
0.000000e+000
0.000000e+000
0.000000e+000
0.000000e+000
0.000000e+000
0.000000e+000
0.000000e+000
0.000000e+000
0.000000e+000
0.000000e+000
0.000000e+000
0.000000e+000
0.000000e+000
0.000000e+000
0.000000e+000
0.000000e+000
0.000000e+000
0.000000e+000
0.000000e+000
0.000000e+000
0.000000e+000
0.000000e+000
0.000000e+000
0.000000e+000
0.000000e+000
0.000000e+000
0.000000e+000
0.000000e+000
0.000000e+000
0.000000e+000
0.000000e+000
0.000000e+000
0.000000e+000
3.096221e-009
1.470098e-009
-7.664300e-010
-2.325317e-009
-2.427820e-009
-1.225233e-009
3.826150e-010
1.379265e-009
1.277068e-009
3.528966e-010
-6.461586e-010
-1.070549e-009
-7.781333e-010
-1.104656e-010
4.818164e-010
8.122762e-010
1.016785e-009
1.286946e-009
1.566772e-009
1.524520e-009
8.428574e-010
-4.400512e-010
-1.866471e-009
-2.850860e-009
-3.080813e-009
-2.684663e-009
-2.043758e-009
-1.449019e-009
-9.187267e-010
-3.091549e-010
4.403959e-010
1.194090e-009
1.739120e-009
1.990831e-009
2.060621e-009
2.124805e-009
2.245015e-009
2.329291e-009
2.260380e-009
2.039908e-009
1.793339e-009
1.641922e-009
1.589310e-009
1.542000e-009
1.428202e-009
1.276828e-009
1.175276e-009
1.166290e-009
1.206530e-009
1.228588e-009
1.225528e-009
1.256013e-009
1.367774e-009
1.535740e-009
1.691529e-009
1.808364e-009
1.935400e-009
2.133644e-009
2.385373e-009
2.587471e-009
2.645913e-009
2.567984e-009
2.443083e-009
2.325651e-009
2.148905e-009
1.771852e-009
1.118102e-009
2.624816e-010
-6.231109e-010
-1.399980e-009
-2.025715e-009
-2.492123e-009
-2.731991e-009
-2.629824e-009
-2.147643e-009
-1.425000e-009
-7.132968e-010
-1.763442e-010
2.466550e-010
7.524376e-010
1.416440e-009
2.016388e-009
2.142731e-009
1.541335e-009
3.962143e-010
-7.205231e-010
-1.228821e-009
-9.576182e-010
-2.600575e-010
2.686868e-010
2.445359e-010
-2.382471e-010
-7.215955e-010
-7.682986e-010
-3.037260e-010
3.441624e-010
7.171420e-010
5.843031e-010
1.080803e-010
-2.977815e-010
9.990002e-010
6.166611e-010
4.963023e-011
-4.385053e-010
-6.601569e-010
-5.969162e-010
-3.866484e-010
-2.100683e-010
-1.536049e-010
-1.513781e-010
-5.680817e-011
2.087099e-010
5.555361e-010
7.710261e-010
6.872594e-010
3.334909e-010
-6.638703e-011
-2.643596e-010
-1.884621e-010
2.331165e-012
6.145970e-011
-1.278488e-010
-4.545215e-010
-6.859758e-010
-6.761967e-010
-4.825571e-010
-2.912354e-010
-2.352734e-010
-2.846121e-010
-3.043472e-010
-2.059130e-010
-3.119676e-011
1.080308e-010
1.577148e-010
1.751094e-010
2.564197e-010
4.250066e-010
6.040867e-010
6.996057e-010
6.982454e-010
6.743910e-010
7.045783e-010
7.879379e-010
8.574460e-010
8.613364e-010
8.189313e-010
7.916559e-010
8.098630e-010
8.426975e-010
8.419629e-010
8.026209e-010
7.664346e-010
7.670136e-010
7.859109e-010
7.749205e-010
7.177397e-010
6.541849e-010
6.336800e-010
6.512795e-010
6.451160e-010
5.648855e-010
4.354387e-010
3.390334e-010
3.293458e-010
3.695813e-010
3.642297e-010
2.523145e-010
6.305214e-011
-1.222573e-010
-2.545990e-010
-3.533530e-010
-4.607808e-010
-5.778732e-010
-6.631458e-010
-6.947020e-010
-7.109869e-010
-7.620366e-010
-8.111324e-010
-7.061372e-010
-2.899990e-010
4.232812e-010
1.173270e-009
1.580057e-009
1.400445e-009
7.145143e-010
-1.126585e-010
-6.705356e-010
-7.616892e-010
-4.917350e-010
-1.453453e-010
3.428306e-011
-7.549464e-012
-1.512625e-010
-2.336974e-010
-1.768101e-010
-2.375251e-011
1.213260e-010
1.838338e-010
1.670244e-010
1.311201e-010
-1.632455e-009
-5.060796e-010
9.594875e-010
1.795264e-009
1.479312e-009
2.370070e-010
-1.155381e-009
-1.892227e-009
-1.617971e-009
-5.679257e-010
6.633825e-010
1.511300e-009
1.712322e-009
1.325583e-009
5.781543e-010
-2.933666e-010
-1.096013e-009
-1.655621e-009
-1.812042e-009
-1.482392e-009
-7.390774e-010
1.893822e-010
1.022062e-009
1.562372e-009
1.765188e-009
1.697382e-009
1.447701e-009
1.071192e-009
5.999349e-010
8.072776e-011
-4.153980e-010
-8.221481e-010
-1.109342e-009
-1.283126e-009
-1.361465e-009
-1.356946e-009
-1.282576e-009
-1.163710e-009
-1.032968e-009
-9.104556e-010
-7.937433e-010
-6.715758e-010
-5.456973e-010
-4.345771e-010
-3.550264e-010
-3.049382e-010
-2.685663e-010
-2.374692e-010
-2.210365e-010
-2.341904e-010
-2.787077e-010
-3.421177e-010
-4.151576e-010
-5.046997e-010
-6.246798e-010
-7.758255e-010
-9.399446e-010
-1.096649e-009
-1.241575e-009
-1.381940e-009
-1.512636e-009
-1.601085e-009
-1.600703e-009
-1.480700e-009
-1.242196e-009
-9.075327e-010
-4.996757e-010
-3.605960e-011
4.598378e-010
9.467616e-010
1.366893e-009
1.653829e-009
1.737002e-009
1.550041e-009
1.061858e-009
3.272911e-010
-4.842307e-010
-1.129682e-009
-1.401462e-009
-1.237174e-009
-7.487334e-010
-1.495836e-010
3.596096e-010
6.620100e-010
7.218214e-010
5.507294e-010
2.019196e-010
-2.060263e-010
-4.933447e-010
-4.988134e-010
-2.008777e-010
2.244299e-010
4.896266e-010
3.922024e-010
-2.121455e-011
-4.637379e-010
-6.050124e-010
-3.177685e-010
2.155513e-010
6.262043e-010
-2.907486e-009
-1.172675e-009
1.136524e-009
2.580370e-009
2.359168e-009
7.669653e-010
-1.085366e-009
-2.047690e-009
-1.659227e-009
-3.493198e-010
9.686981e-010
1.559140e-009
1.286269e-009
5.384887e-010
-1.947540e-010
-6.964580e-010
-1.053966e-009
-1.395921e-009
-1.640630e-009
-1.517384e-009
-8.348813e-010
2.762834e-010
1.394348e-009
2.094144e-009
2.234932e-009
2.001030e-009
1.686002e-009
1.439082e-009
1.197720e-009
8.292279e-010
3.091084e-010
-2.418090e-010
-6.746283e-010
-9.447803e-010
-1.126946e-009
-1.316109e-009
-1.530167e-009
-1.709248e-009
-1.794868e-009
-1.794978e-009
-1.770992e-009
-1.772683e-009
-1.795612e-009
-1.800613e-009
-1.765007e-009
-1.707639e-009
-1.666011e-009
-1.656856e-009
-1.664184e-009
-1.663877e-009
-1.653703e-009
-1.654990e-009
-1.686193e-009
-1.739951e-009
-1.790348e-009
-1.822154e-009
-1.847824e-009
-1.890430e-009
-1.949410e-009
-1.988328e-009
-1.962153e-009
-1.856711e-009
-1.695329e-009
-1.501682e-009
-1.259438e-009
-9.186699e-010
-4.491184e-010
1.161320e-010
6.982062e-010
1.234149e-009
1.709067e-009
2.113107e-009
2.369937e-009
2.335670e-009
1.905589e-009
1.141548e-009
2.819806e-010
-4.064226e-010
-8.144878e-010
-1.035840e-009
-1.218826e-009
-1.368066e-009
-1.305192e-009
-8.520765e-010
-7.174057e-011
6.812000e-010
9.897323e-010
7.086347e-010
1.086990e-010
-3.172203e-010
-2.430675e-010
2.274601e-010
6.479998e-010
6.004833e-010
4.713752e-011
-6.246123e-010
-9.024988e-010
-5.556357e-010
1.753919e-010
7.542909e-010
-2.068558e-009
-1.052181e-009
3.477038e-010
1.333488e-009
1.438824e-009
7.924503e-010
-1.891395e-011
-3.925345e-010
-1.439226e-010
3.846928e-010
6.245466e-010
2.552316e-010
-5.275777e-010
-1.173433e-009
-1.234147e-009
-7.286785e-010
-1.037437e-010
1.690939e-010
-1.992567e-012
-2.810655e-010
-2.419251e-010
2.314954e-010
8.507486e-010
1.205102e-009
1.137315e-009
8.582664e-010
7.134860e-010
8.489357e-010
1.098601e-009
1.176384e-009
9.558986e-010
5.608985e-010
2.051596e-010
-2.656389e-011
-2.310073e-010
-5.430941e-010
-9.706700e-010
-1.382817e-009
-1.647757e-009
-1.760777e-009
-1.830129e-009
-1.951251e-009
-2.112692e-009
-2.227417e-009
-2.240467e-009
-2.188843e-009
-2.154700e-009
-2.174448e-009
-2.207878e-009
-2.195396e-009
-2.130839e-009
-2.065197e-009
-2.040851e-009
-2.036809e-009
-1.990970e-009
-1.873877e-009
-1.726107e-009
-1.611584e-009
-1.537705e-009
-1.436925e-009
-1.238598e-009
-9.548650e-010
-6.807310e-010
-4.999225e-010
-3.963647e-010
-2.714381e-010
-5.175590e-011
2.321671e-010
4.869341e-010
6.706515e-010
8.440877e-010
1.089255e-009
1.383471e-009
1.583554e-009
1.560146e-009
1.342486e-009
1.096441e-009
9.286516e-010
7.185456e-010
1.918296e-010
-7.808409e-010
-1.930987e-009
-2.665841e-009
-2.472011e-009
-1.336559e-009
1.793240e-010
1.301856e-009
1.564966e-009
1.083802e-009
3.887055e-010
-1.403033e-011
8.575795e-012
2.081175e-010
2.416746e-010
-1.564177e-011
-3.839537e-010
-5.578610e-010
-3.779720e-010
3.187548e-011
3.622534e-010
2.663928e-012
-4.128134e-010
-8.589592e-010
-8.975644e-010
-3.624191e-010
5.392189e-010
1.386889e-009
1.805383e-009
1.627185e-009
8.993193e-010
-1.822125e-010
-1.316597e-009
-2.130930e-009
-2.283096e-009
-1.649798e-009
-4.721686e-010
7.124853e-010
1.376111e-009
1.339393e-009
8.668080e-010
4.232791e-010
2.946678e-010
4.006227e-010
4.497060e-010
2.657611e-010
-3.742459e-011
-1.906205e-010
-5.709750e-011
2.255708e-010
3.851983e-010
2.789279e-010
8.466583e-012
-2.155741e-010
-2.982137e-010
-3.343427e-010
-4.715606e-010
-7.287434e-010
-9.706138e-010
-1.055297e-009
-9.837696e-010
-8.897755e-010
-8.919504e-010
-9.763752e-010
-1.031761e-009
-9.848528e-010
-8.796857e-010
-8.193320e-010
-8.470891e-010
-9.051300e-010
-9.111408e-010
-8.566544e-010
-8.114792e-010
-8.332516e-010
-8.929620e-010
-9.066527e-010
-8.362815e-010
-7.385199e-010
-6.990431e-010
-7.254504e-010
-7.263707e-010
-6.097398e-010
-3.941344e-010
-2.043178e-010
-1.479593e-010
-2.058317e-010
-2.570337e-010
-2.114598e-010
-1.012764e-010
-3.028495e-011
-4.306305e-011
-6.747176e-011
3.555633e-012
1.916970e-010
4.232567e-010
6.436628e-010
9.063276e-010
1.294121e-009
1.726102e-009
1.873397e-009
1.346422e-009
5.084373e-011
-1.598772e-009
-2.843325e-009
-3.043865e-009
-2.101847e-009
-5.161803e-010
9.495795e-010
1.722697e-009
1.680401e-009
1.091798e-009
3.662185e-010
-1.792880e-010
-4.129043e-010
-3.625677e-010
-1.516551e-010
6.121191e-011
1.434362e-010
5.100368e-011
-1.438639e-010
-2.978088e-010
1.604855e-009
1.594696e-010
-1.605198e-009
-2.364049e-009
-1.530382e-009
3.852735e-010
2.196642e-009
2.871323e-009
2.149819e-009
5.684519e-010
-1.016846e-009
-1.976942e-009
-2.148290e-009
-1.712060e-009
-9.437095e-010
-7.463955e-011
6.966259e-010
1.179991e-009
1.262582e-009
1.011563e-009
6.635634e-010
4.565401e-010
4.412227e-010
4.570134e-010
3.025138e-010
-6.711656e-011
-5.099133e-010
-8.506111e-010
-1.044845e-009
-1.182953e-009
-1.347418e-009
-1.496877e-009
-1.508263e-009
-1.321678e-009
-1.016302e-009
-7.295217e-010
-5.138572e-010
-2.958808e-010
1.880044e-011
4.183774e-010
7.819875e-010
1.002713e-009
1.095121e-009
1.167677e-009
1.296694e-009
1.447168e-009
1.525497e-009
1.495114e-009
1.418293e-009
1.379676e-009
1.386804e-009
1.366154e-009
1.256482e-009
1.085118e-009
9.345383e-010
8.392792e-010
7.387239e-010
5.469678e-010
2.610585e-010
-2.120915e-011
-2.010502e-010
-2.855478e-010
-3.784322e-010
-5.613603e-010
-7.967235e-010
-9.592694e-010
-9.598077e-010
-8.255579e-010
-6.584303e-010
-5.324902e-010
-4.493040e-010
-3.832131e-010
-3.317959e-010
-2.887427e-010
-1.763296e-010
1.417805e-010
7.213066e-010
1.390116e-009
1.772599e-009
1.526493e-009
6.188666e-010
-5.983231e-010
-1.590384e-009
-1.959463e-009
-1.637287e-009
-8.439883e-010
8.930675e-011
8.657695e-010
1.270604e-009
1.187117e-009
6.523798e-010
-8.821019e-011
-6.436490e-010
-6.953688e-010
-2.370627e-010
3.777170e-010
6.694245e-010
3.952851e-010
-2.496306e-010
-7.737506e-010
1.628340e-009
2.778701e-010
-1.359453e-009
-2.042620e-009
-1.257004e-009
4.436450e-010
1.878589e-009
2.108254e-009
1.074988e-009
-4.369721e-010
-1.439957e-009
-1.450893e-009
-7.324050e-010
5.235085e-011
4.140299e-010
3.487084e-010
1.869625e-010
2.051745e-010
3.903930e-010
5.379966e-010
5.148566e-010
3.880603e-010
3.045433e-010
2.862594e-010
1.807899e-010
-1.804709e-010
-7.929962e-010
-1.458006e-009
-1.939767e-009
-2.130829e-009
-2.072196e-009
-1.847788e-009
-1.494188e-009
-1.014357e-009
-4.437998e-010
1.358287e-010
6.566286e-010
1.116527e-009
1.552280e-009
1.966341e-009
2.302342e-009
2.503978e-009
2.586022e-009
2.627631e-009
2.691658e-009
2.764383e-009
2.786260e-009
2.734591e-009
2.657300e-009
2.617820e-009
2.619748e-009
2.603695e-009
2.519563e-009
2.384853e-009
2.256940e-009
2.153360e-009
2.019256e-009
1.785055e-009
1.447606e-009
1.077492e-009
7.420627e-010
4.339386e-010
8.887505e-011
-3.273146e-010
-7.612670e-010
-1.105093e-009
-1.278413e-009
-1.273541e-009
-1.135956e-009
-9.286686e-010
-7.257248e-010
-6.118206e-010
-6.380746e-010
-7.499137e-010
-7.787397e-010
-5.558862e-010
-7.302229e-011
4.717755e-010
8.161274e-010
8.461184e-010
6.723027e-010
4.895544e-010
3.671183e-010
1.961695e-010
-1.419124e-010
-5.681801e-010
-8.030014e-010
-6.087203e-010
-5.312861e-011
4.835974e-010
6.044787e-010
2.425064e-010
-2.635792e-010
-4.523448e-010
-1.426883e-010
3.989226e-010
6.807007e-010
4.100575e-010
-2.449056e-010
-7.834375e-010
3.634496e-010
5.451273e-011
-2.877034e-010
-3.477877e-010
-3.149029e-011
4.222458e-010
5.906288e-010
2.038409e-010
-5.815999e-010
-1.225710e-009
-1.187781e-009
-3.708336e-010
7.513749e-010
1.469524e-009
1.382794e-009
6.948030e-010
6.250882e-012
-2.068566e-010
3.690854e-011
3.183419e-010
2.485482e-010
-1.889120e-010
-6.883214e-010
-9.654517e-010
-1.023725e-009
-1.089659e-009
-1.322092e-009
-1.616940e-009
-1.699479e-009
-1.386016e-009
-7.411428e-010
4.593210e-012
6.585792e-010
1.179439e-009
1.621614e-009
2.016492e-009
2.329331e-009
2.512709e-009
2.567142e-009
2.536251e-009
2.458836e-009
2.345725e-009
2.201743e-009
2.050185e-009
1.921872e-009
1.826598e-009
1.750230e-009
1.683108e-009
1.640291e-009
1.644736e-009
1.695724e-009
1.766102e-009
1.833491e-009
1.904164e-009
1.996812e-009
2.106717e-009
2.197980e-009
2.235343e-009
2.214689e-009
2.152162e-009
2.046072e-009
1.862194e-009
1.563620e-009
1.149592e-009
6.589101e-010
1.425096e-010
-3.525947e-010
-7.730865e-010
-1.060029e-009
-1.191355e-009
-1.226736e-009
-1.277310e-009
-1.393607e-009
-1.481452e-009
-1.365748e-009
-9.748941e-010
-4.589569e-010
-8.257842e-011
3.880753e-011
9.185229e-011
4.077477e-010
1.100464e-009
1.848836e-009
2.078328e-009
1.430387e-009
1.143317e-010
-1.186053e-009
-1.792146e-009
-1.500830e-009
-6.704787e-010
1.102247e-010
4.629714e-010
4.160798e-010
2.532548e-010
2.068444e-010
2.751268e-010
2.871977e-010
1.113945e-010
-1.983961e-010
-4.407889e-010
-9.184076e-010
-7.595632e-011
9.391942e-010
1.374204e-009
9.413670e-010
-5.194388e-011
-1.020737e-009
-1.530629e-009
-1.485546e-009
-1.018368e-009
-3.034109e-010
4.983632e-010
1.181029e-009
1.502595e-009
1.343126e-009
8.616898e-010
4.294689e-010
3.255687e-010
4.625738e-010
4.362727e-010
-1.034423e-010
-1.096711e-009
-2.080849e-009
-2.563601e-009
-2.408140e-009
-1.873095e-009
-1.303353e-009
-8.058387e-010
-2.256516e-010
5.957854e-010
1.581981e-009
2.450008e-009
2.952859e-009
3.070057e-009
2.967304e-009
2.803037e-009
2.598576e-009
2.283782e-009
1.830106e-009
1.311742e-009
8.433997e-010
4.828685e-010
2.052370e-010
-4.075068e-011
-2.694506e-010
-4.517827e-010
-5.558922e-010
-5.815185e-010
-5.558327e-010
-5.043816e-010
-4.296202e-010
-3.138807e-010
-1.397392e-010
9.109916e-011
3.567977e-010
6.348366e-010
9.246079e-010
1.246633e-009
1.611005e-009
1.984062e-009
2.294026e-009
2.478162e-009
2.522403e-009
2.445444e-009
2.244704e-009
1.876422e-009
1.308905e-009
5.932735e-010
-1.428858e-010
-7.905003e-010
-1.335957e-009
-1.813900e-009
-2.176465e-009
-2.249135e-009
-1.877903e-009
-1.148037e-009
-4.195020e-010
-6.828769e-011
-1.354718e-010
-2.369743e-010
1.207931e-010
1.066389e-009
2.162774e-009
2.689211e-009
2.183469e-009
7.948412e-010
-8.218779e-010
-1.946215e-009
-2.201666e-009
-1.669366e-009
-7.227414e-010
2.165868e-010
8.397342e-010
1.009603e-009
7.701412e-010
3.190452e-010
-8.485711e-011
-2.656950e-010
-2.319792e-010
-1.406393e-010
-1.149179e-009
1.698001e-010
1.642815e-009
2.000615e-009
8.831323e-010
-9.342448e-010
-2.217175e-009
-2.229763e-009
-1.189220e-009
6.660827e-011
8.085891e-010
8.944164e-010
6.743552e-010
5.471431e-010
6.319983e-010
7.964363e-010
8.832467e-010
8.344171e-010
6.179707e-010
1.376482e-010
-6.842985e-010
-1.711808e-009
-2.542249e-009
-2.735261e-009
-2.149124e-009
-1.058142e-009
7.626094e-011
9.607211e-010
1.611943e-009
2.182010e-009
2.692893e-009
2.974154e-009
2.849669e-009
2.344691e-009
1.681486e-009
1.079654e-009
5.851467e-010
9.903505e-011
-4.529845e-010
-1.010093e-009
-1.435573e-009
-1.660867e-009
-1.749520e-009
-1.821350e-009
-1.931685e-009
-2.034955e-009
-2.057503e-009
-1.988733e-009
-1.893106e-009
-1.839203e-009
-1.828186e-009
-1.796994e-009
-1.688540e-009
-1.511472e-009
-1.324985e-009
-1.164455e-009
-9.890063e-010
-7.130419e-010
-2.950495e-010
2.100112e-010
6.961177e-010
1.104774e-009
1.466986e-009
1.835864e-009
2.182415e-009
2.377807e-009
2.292560e-009
1.906422e-009
1.306279e-009
5.839193e-010
-2.267671e-010
-1.079294e-009
-1.799044e-009
-2.107799e-009
-1.837758e-009
-1.143284e-009
-4.562015e-010
-1.599270e-010
-2.608482e-010
-3.794937e-010
-9.383175e-011
6.728441e-010
1.568146e-009
2.084410e-009
1.921034e-009
1.133749e-009
1.978262e-011
-1.073533e-009
-1.841864e-009
-2.038398e-009
-1.539777e-009
-4.833341e-010
6.833650e-010
1.396007e-009
1.335830e-009
6.675072e-010
-8.674720e-011
-4.607549e-010
-3.915489e-010
-1.928589e-010
-3.233396e-010
6.161479e-010
1.528232e-009
1.400082e-009
6.397926e-011
-1.629212e-009
-2.483169e-009
-1.905520e-009
-3.504997e-010
1.085908e-009
1.545278e-009
1.014541e-009
1.937543e-010
-1.841487e-010
5.376729e-011
4.977003e-010
6.232846e-010
2.535561e-010
-3.849942e-010
-9.584633e-010
-1.301014e-009
-1.410939e-009
-1.270329e-009
-7.748116e-010
1.191728e-010
1.220630e-009
2.148733e-009
2.590843e-009
2.516069e-009
2.128940e-009
1.632112e-009
1.062813e-009
3.590739e-010
-4.600763e-010
-1.232804e-009
-1.784170e-009
-2.088315e-009
-2.271488e-009
-2.456066e-009
-2.627683e-009
-2.671974e-009
-2.528063e-009
-2.278085e-009
-2.074211e-009
-1.990991e-009
-1.967976e-009
-1.898707e-009
-1.759582e-009
-1.636067e-009
-1.624352e-009
-1.723498e-009
-1.837919e-009
-1.884169e-009
-1.880624e-009
-1.918849e-009
-2.047340e-009
-2.197511e-009
-2.238020e-009
-2.101820e-009
-1.846156e-009
-1.576192e-009
-1.315177e-009
-9.681575e-010
-4.251374e-010
3.064664e-010
1.082842e-009
1.730900e-009
2.153761e-009
2.324148e-009
2.207819e-009
1.753740e-009
9.958598e-010
1.399055e-010
-5.170917e-010
-8.049453e-010
-8.190859e-010
-8.101655e-010
-9.156041e-010
-1.012017e-009
-8.530724e-010
-3.494961e-010
3.113303e-010
8.325884e-010
1.069722e-009
1.094728e-009
1.007615e-009
7.431768e-010
1.376270e-010
-7.847916e-010
-1.634415e-009
-1.852990e-009
-1.171014e-009
9.243116e-011
1.203636e-009
1.548518e-009
1.071736e-009
2.471245e-010
-3.655548e-010
-5.575844e-010
-5.210867e-010
6.809067e-010
7.964220e-010
7.491807e-010
2.660527e-010
-6.141752e-010
-1.460555e-009
-1.706047e-009
-1.082888e-009
1.102521e-010
1.172328e-009
1.510336e-009
1.082824e-009
3.822086e-010
-3.866827e-011
-6.224919e-011
-5.913351e-011
-4.562588e-010
-1.252182e-009
-1.958893e-009
-2.019412e-009
-1.282615e-009
-8.684193e-011
1.077930e-009
1.949096e-009
2.549549e-009
2.948810e-009
3.058058e-009
2.697683e-009
1.831023e-009
6.716944e-010
-4.619798e-010
-1.376689e-009
-2.073219e-009
-2.617635e-009
-3.000704e-009
-3.152068e-009
-3.063664e-009
-2.844159e-009
-2.625622e-009
-2.436434e-009
-2.198388e-009
-1.852609e-009
-1.461362e-009
-1.161817e-009
-1.024944e-009
-9.849003e-010
-9.211270e-010
-7.979533e-010
-7.020564e-010
-7.379201e-010
-9.043410e-010
-1.094328e-009
-1.217250e-009
-1.301528e-009
-1.458582e-009
-1.747808e-009
-2.096527e-009
-2.367367e-009
-2.497543e-009
-2.551304e-009
-2.624736e-009
-2.709970e-009
-2.671507e-009
-2.359662e-009
-1.735284e-009
-8.803319e-010
8.836120e-011
1.079016e-009
1.994527e-009
2.687158e-009
3.003459e-009
2.896558e-009
2.465267e-009
1.845992e-009
1.074837e-009
1.081464e-010
-9.861323e-010
-1.892722e-009
-2.193203e-009
-1.720423e-009
-7.757834e-010
5.996212e-011
3.929586e-010
3.212686e-010
2.717331e-010
5.241004e-010
8.988040e-010
9.263365e-010
3.353344e-010
-6.204115e-010
-1.318171e-009
-1.265896e-009
-4.953014e-010
4.815350e-010
1.079475e-009
1.044228e-009
5.427979e-010
-6.170495e-011
-4.990250e-010
-7.005588e-010
1.031804e-009
4.375362e-010
-2.757820e-010
-6.385552e-010
-5.734304e-010
-3.561946e-010
-2.483335e-010
-2.212065e-010
-4.929451e-011
3.724000e-010
8.609555e-010
1.104016e-009
9.436213e-010
4.649090e-010
-1.724190e-010
-9.075012e-010
-1.715727e-009
-2.394263e-009
-2.518914e-009
-1.734506e-009
-1.383202e-010
1.659121e-009
2.923324e-009
3.301044e-009
2.978157e-009
2.379047e-009
1.749401e-009
1.035739e-009
1.161519e-010
-9.338463e-010
-1.843347e-009
-2.382278e-009
-2.545538e-009
-2.496455e-009
-2.372138e-009
-2.184371e-009
-1.896455e-009
-1.538146e-009
-1.202437e-009
-9.428427e-010
-7.194590e-010
-4.688984e-010
-2.056583e-010
-2.004938e-011
2.908522e-011
-7.513760e-012
-2.186330e-011
2.787361e-011
7.149673e-011
1.471826e-011
-1.441972e-010
-3.094402e-010
-4.010074e-010
-4.510665e-010
-5.675310e-010
-8.069370e-010
-1.106733e-009
-1.356753e-009
-1.524872e-009
-1.688528e-009
-1.935739e-009
-2.250969e-009
-2.512833e-009
-2.594549e-009
-2.444693e-009
-2.069836e-009
-1.474731e-009
-6.610910e-010
3.133212e-010
1.315027e-009
2.206715e-009
2.920392e-009
3.409914e-009
3.521067e-009
2.981534e-009
1.634337e-009
-2.563224e-010
-1.978535e-009
-2.776848e-009
-2.404120e-009
-1.324143e-009
-3.448105e-010
1.311145e-011
-1.420616e-010
-2.927492e-010
-4.249793e-011
5.427681e-010
1.046794e-009
1.094500e-009
6.443816e-010
-2.805395e-011
-5.621564e-010
-7.326058e-010
-5.284040e-010
-1.114714e-010
2.764824e-010
4.264099e-010
2.723979e-010
-5.890534e-011
-3.215267e-010
6.772530e-010
-2.270299e-010
-1.097754e-009
-1.045966e-009
-7.795988e-011
9.477216e-010
1.165553e-009
5.071579e-010
-2.912033e-010
-4.324536e-010
1.953573e-010
9.601513e-010
1.097979e-009
3.660005e-010
-8.377180e-010
-1.876273e-009
-2.322359e-009
-2.073221e-009
-1.201049e-009
1.430781e-010
1.649940e-009
2.807387e-009
3.114524e-009
2.445369e-009
1.192275e-009
-1.383416e-011
-7.738984e-010
-1.139695e-009
-1.402456e-009
-1.716160e-009
-1.955469e-009
-1.910370e-009
-1.550701e-009
-1.061337e-009
-6.453223e-010
-3.460562e-010
-7.488277e-011
2.315456e-010
5.303574e-010
7.442618e-010
8.657897e-010
9.553674e-010
1.050580e-009
1.117524e-009
1.107394e-009
1.036197e-009
9.767951e-010
9.717507e-010
9.815491e-010
9.372812e-010
8.310051e-010
7.273962e-010
6.806519e-010
6.621830e-010
5.919170e-010
4.349086e-010
2.417505e-010
8.161445e-011
-4.830403e-011
-2.241118e-010
-5.069700e-010
-8.748747e-010
-1.252582e-009
-1.589551e-009
-1.879976e-009
-2.106764e-009
-2.200028e-009
-2.077950e-009
-1.712604e-009
-1.117380e-009
-2.709758e-010
8.771491e-010
2.242358e-009
3.436375e-009
3.859741e-009
3.105333e-009
1.361270e-009
-5.970989e-010
-1.899242e-009
-2.164514e-009
-1.682711e-009
-1.068834e-009
-7.455250e-010
-7.051280e-010
-6.710299e-010
-4.053248e-010
1.311342e-010
8.122732e-010
1.425999e-009
1.712954e-009
1.439227e-009
5.681443e-010
-5.908540e-010
-1.473363e-009
-1.619841e-009
-1.026797e-009
-1.490536e-010
4.811482e-010
6.708731e-010
6.266321e-010
2.175909e-010
-6.492795e-010
-1.407182e-009
-1.130158e-009
1.537668e-010
1.477544e-009
1.829178e-009
1.065210e-009
-9.377162e-012
-4.404475e-010
-2.049980e-011
5.649029e-010
4.444233e-010
-5.837102e-010
-1.852326e-009
-2.416244e-009
-1.827862e-009
-4.010475e-010
1.158087e-009
2.283971e-009
2.757693e-009
2.562235e-009
1.729096e-009
3.994962e-010
-1.054465e-009
-2.130122e-009
-2.516601e-009
-2.319621e-009
-1.927345e-009
-1.639944e-009
-1.441984e-009
-1.126267e-009
-5.882280e-010
4.754436e-011
5.772225e-010
9.333605e-010
1.215633e-009
1.533694e-009
1.872369e-009
2.128706e-009
2.247000e-009
2.276895e-009
2.300687e-009
2.340246e-009
2.357895e-009
2.330048e-009
2.286018e-009
2.267496e-009
2.274780e-009
2.274445e-009
2.250637e-009
2.223232e-009
2.208634e-009
2.183449e-009
2.107257e-009
1.974570e-009
1.820351e-009
1.665805e-009
1.477570e-009
1.201517e-009
8.316219e-010
4.209786e-010
1.512689e-011
-4.055315e-010
-8.942318e-010
-1.455702e-009
-2.021843e-009
-2.510999e-009
-2.869232e-009
-3.009708e-009
-2.733141e-009
-1.804895e-009
-2.113965e-010
1.639602e-009
3.046845e-009
3.448084e-009
2.798838e-009
1.552616e-009
2.786245e-010
-7.040674e-010
-1.365213e-009
-1.747723e-009
-1.817836e-009
-1.544046e-009
-1.034391e-009
-4.852409e-010
2.969808e-011
6.379307e-010
1.440130e-009
2.197291e-009
2.345976e-009
1.454392e-009
-2.736962e-010
-1.982214e-009
-2.737507e-009
-2.212502e-009
-8.697218e-010
4.900650e-010
1.348900e-009
1.687270e-009
1.564018e-010
-4.912876e-010
-1.132647e-009
-1.084240e-009
-2.289455e-010
8.878140e-010
1.531368e-009
1.391389e-009
7.824942e-010
2.624722e-010
5.622784e-011
-1.301428e-010
-7.069159e-010
-1.623214e-009
-2.241120e-009
-1.852062e-009
-3.627392e-010
1.523904e-009
2.821489e-009
2.981435e-009
2.171911e-009
9.513013e-010
-2.376663e-010
-1.252707e-009
-2.063521e-009
-2.548703e-009
-2.560894e-009
-2.141692e-009
-1.563660e-009
-1.103519e-009
-7.975280e-010
-4.593786e-010
7.118652e-011
7.420957e-010
1.361479e-009
1.812115e-009
2.146149e-009
2.472216e-009
2.799498e-009
3.029691e-009
3.086981e-009
3.014609e-009
2.928740e-009
2.900890e-009
2.909844e-009
2.900264e-009
2.859421e-009
2.825240e-009
2.837474e-009
2.901686e-009
2.996579e-009
3.095759e-009
3.175513e-009
3.217943e-009
3.222848e-009
3.209648e-009
3.187483e-009
3.119394e-009
2.935730e-009
2.601297e-009
2.162890e-009
1.709822e-009
1.282172e-009
8.336672e-010
2.940362e-010
-3.505496e-010
-1.061235e-009
-1.812961e-009
-2.598778e-009
-3.324671e-009
-3.727348e-009
-3.481941e-009
-2.463549e-009
-9.102720e-010
7.053938e-010
1.982762e-009
2.762998e-009
3.017443e-009
2.660862e-009
1.594790e-009
-2.047585e-011
-1.619330e-009
-2.501465e-009
-2.348623e-009
-1.476214e-009
-5.248013e-010
1.218771e-010
5.966817e-010
1.222206e-009
1.966252e-009
2.297691e-009
1.646165e-009
2.604081e-011
-1.809469e-009
-2.866898e-009
-2.621807e-009
-1.323998e-009
2.996377e-010
1.590457e-009
2.253266e-009
3.617828e-010
3.896672e-011
-4.670793e-010
-8.690505e-010
-8.283234e-010
-2.090327e-010
7.281031e-010
1.439746e-009
1.480916e-009
8.188961e-010
-1.981272e-010
-1.137334e-009
-1.713816e-009
-1.777608e-009
-1.216235e-009
-2.723343e-011
1.470762e-009
2.613078e-009
2.754113e-009
1.773018e-009
2.190027e-010
-1.102579e-009
-1.737065e-009
-1.813729e-009
-1.737195e-009
-1.721539e-009
-1.652141e-009
-1.338218e-009
-7.915749e-010
-2.075095e-010
2.769165e-010
7.206152e-010
1.255375e-009
1.880889e-009
2.437333e-009
2.773312e-009
2.890930e-009
2.902352e-009
2.876390e-009
2.773333e-009
2.533623e-009
2.191673e-009
1.870090e-009
1.667674e-009
1.577235e-009
1.519424e-009
1.440490e-009
1.364438e-009
1.358625e-009
1.464559e-009
1.663266e-009
1.895543e-009
2.110570e-009
2.304434e-009
2.519810e-009
2.800106e-009
3.128970e-009
3.414195e-009
3.547453e-009
3.492448e-009
3.309092e-009
3.080836e-009
2.823068e-009
2.476751e-009
1.988052e-009
1.366514e-009
6.473503e-010
-1.766673e-010
-1.132234e-009
-2.152615e-009
-3.024801e-009
-3.503230e-009
-3.483504e-009
-3.023058e-009
-2.175406e-009
-8.754817e-010
8.951424e-010
2.786145e-009
4.019525e-009
3.837240e-009
2.153375e-009
-2.159641e-010
-2.053537e-009
-2.588972e-009
-1.957583e-009
-9.031353e-010
-7.244030e-011
4.183792e-010
8.167570e-010
1.256672e-009
1.512833e-009
1.214384e-009
2.594763e-010
-9.933328e-010
-1.924933e-009
-2.053151e-009
-1.309321e-009
-3.433132e-011
1.233347e-009
2.004593e-009
2.795901e-010
3.840037e-010
2.215967e-010
-3.603276e-010
-9.230390e-010
-7.953077e-010
1.683814e-010
1.269214e-009
1.504845e-009
4.877472e-010
-1.153748e-009
-2.274777e-009
-2.118787e-009
-8.059083e-010
9.176128e-010
2.275331e-009
2.829738e-009
2.475604e-009
1.332308e-009
-2.477708e-010
-1.684889e-009
-2.414394e-009
-2.271237e-009
-1.627616e-009
-1.067326e-009