# vtk DataFile Version 3.0
vtk output
ASCII
DATASET STRUCTURED_POINTS
DIMENSIONS 100 100 1
SPACING 1 1 1
ORIGIN 0 0 0
POINT_DATA 10000
SCALARS SFBox_profile double
LOOKUP_TABLE default 
9.439922e-003
9.439922e-003
9.439922e-003
9.439922e-003
9.439922e-003
9.439921e-003
9.439921e-003
9.439921e-003
9.439921e-003
9.439921e-003
9.439921e-003
9.439921e-003
9.439921e-003
9.439920e-003
9.439920e-003
9.439920e-003
9.439920e-003
9.439920e-003
9.439920e-003
9.439920e-003
9.439920e-003
9.439919e-003
9.439919e-003
9.439919e-003
9.439919e-003
9.439919e-003
9.439919e-003
9.439919e-003
9.439919e-003
9.439919e-003
9.439919e-003
9.439919e-003
9.439919e-003
9.439920e-003
9.439920e-003
9.439920e-003
9.439920e-003
9.439921e-003
9.439921e-003
9.439921e-003
9.439922e-003
9.439922e-003
9.439922e-003
9.439923e-003
9.439923e-003
9.439923e-003
9.439923e-003
9.439923e-003
9.439924e-003
9.439924e-003
9.439924e-003
9.439924e-003
9.439924e-003
9.439924e-003
9.439924e-003
9.439924e-003
9.439924e-003
9.439924e-003
9.439924e-003
9.439923e-003
9.439923e-003
9.439923e-003
9.439923e-003
9.439922e-003
9.439922e-003
9.439922e-003
9.439921e-003
9.439921e-003
9.439921e-003
9.439920e-003
9.439920e-003
9.439919e-003
9.439919e-003
9.439918e-003
9.439918e-003
9.439918e-003
9.439918e-003
9.439918e-003
9.439917e-003
9.439917e-003
9.439918e-003
9.439918e-003
9.439918e-003
9.439919e-003
9.439919e-003
9.439920e-003
9.439920e-003
9.439920e-003
9.439920e-003
9.439920e-003
9.439920e-003
9.439919e-003
9.439919e-003
9.439919e-003
9.439919e-003
9.439919e-003
9.439919e-003
9.439920e-003
9.439920e-003
9.439920e-003
9.439922e-003
9.439922e-003
9.439922e-003
9.439922e-003
9.439922e-003
9.439921e-003
9.439921e-003
9.439921e-003
9.439921e-003
9.439921e-003
9.439921e-003
9.439921e-003
9.439921e-003
9.439920e-003
9.439920e-003
9.439920e-003
9.439920e-003
9.439920e-003
9.439920e-003
9.439920e-003
9.439920e-003
9.439919e-003
9.439919e-003
9.439919e-003
9.439919e-003
9.439919e-003
9.439919e-003
9.439919e-003
9.439919e-003
9.439919e-003
9.439919e-003
9.439919e-003
9.439919e-003
9.439920e-003
9.439920e-003
9.439920e-003
9.439920e-003
9.439921e-003
9.439921e-003
9.439921e-003
9.439922e-003
9.439922e-003
9.439922e-003
9.439923e-003
9.439923e-003
9.439923e-003
9.439923e-003
9.439923e-003
9.439924e-003
9.439924e-003
9.439924e-003
9.439924e-003
9.439924e-003
9.439924e-003
9.439924e-003
9.439924e-003
9.439924e-003
9.439924e-003
9.439924e-003
9.439923e-003
9.439923e-003
9.439923e-003
9.439923e-003
9.439922e-003
9.439922e-003
9.439922e-003
9.439921e-003
9.439921e-003
9.439921e-003
9.439920e-003
9.439920e-003
9.439919e-003
9.439919e-003
9.439918e-003
9.439918e-003
9.439918e-003
9.439918e-003
9.439918e-003
9.439917e-003
9.439917e-003
9.439918e-003
9.439918e-003
9.439918e-003
9.439919e-003
9.439919e-003
9.439920e-003
9.439920e-003
9.439920e-003
9.439920e-003
9.439920e-003
9.439920e-003
9.439919e-003
9.439919e-003
9.439919e-003
9.439919e-003
9.439919e-003
9.439919e-003
9.439920e-003
9.439920e-003
9.439920e-003
9.439922e-003
9.439922e-003
9.439922e-003
9.439922e-003
9.439921e-003
9.439921e-003
9.439921e-003
9.439921e-003
9.439921e-003
9.439921e-003
9.439921e-003
9.439921e-003
9.439921e-003
9.439920e-003
9.439920e-003
9.439920e-003
9.439920e-003
9.439920e-003
9.439920e-003
9.439920e-003
9.439919e-003
9.439919e-003
9.439919e-003
9.439919e-003
9.439919e-003
9.439919e-003
9.439919e-003
9.439919e-003
9.439919e-003
9.439919e-003
9.439919e-003
9.439919e-003
9.439920e-003
9.439920e-003
9.439920e-003
9.439920e-003
9.439921e-003
9.439921e-003
9.439921e-003
9.439921e-003
9.439922e-003
9.439922e-003
9.439922e-003
9.439922e-003
9.439923e-003
9.439923e-003
9.439923e-003
9.439923e-003
9.439923e-003
9.439923e-003
9.439924e-003
9.439924e-003
9.439924e-003
9.439924e-003
9.439924e-003
9.439923e-003
9.439923e-003
9.439923e-003
9.439923e-003
9.439923e-003
9.439923e-003
9.439923e-003
9.439922e-003
9.439922e-003
9.439922e-003
9.439922e-003
9.439921e-003
9.439921e-003
9.439921e-003
9.439920e-003
9.439920e-003
9.439920e-003
9.439919e-003
9.439919e-003
9.439919e-003
9.439918e-003
9.439918e-003
9.439918e-003
9.439918e-003
9.439918e-003
9.439918e-003
9.439918e-003
9.439918e-003
9.439919e-003
9.439919e-003
9.439919e-003
9.439919e-003
9.439920e-003
9.439920e-003
9.439920e-003
9.439919e-003
9.439919e-003
9.439919e-003
9.439919e-003
9.439919e-003
9.439919e-003
9.439920e-003
9.439920e-003
9.439920e-003
9.439920e-003
9.439922e-003
9.439922e-003
9.439921e-003
9.439921e-003
9.439921e-003
9.439921e-003
9.439921e-003
9.439921e-003
9.439921e-003
9.439921e-003
9.439921e-003
9.439921e-003
9.439921e-003
9.439920e-003
9.439920e-003
9.439920e-003
9.439920e-003
9.439920e-003
9.439920e-003
9.439920e-003
9.439919e-003
9.439919e-003
9.439919e-003
9.439919e-003
9.439919e-003
9.439919e-003
9.439919e-003
9.439919e-003
9.439920e-003
9.439920e-003
9.439920e-003
9.439920e-003
9.439920e-003
9.439920e-003
9.439921e-003
9.439921e-003
9.439921e-003
9.439921e-003
9.439921e-003
9.439922e-003
9.439922e-003
9.439922e-003
9.439922e-003
9.439923e-003
9.439923e-003
9.439923e-003
9.439923e-003
9.439923e-003
9.439923e-003
9.439923e-003
9.439924e-003
9.439924e-003
9.439924e-003
9.439924e-003
9.439923e-003
9.439923e-003
9.439923e-003
9.439923e-003
9.439923e-003
9.439923e-003
9.439923e-003
9.439923e-003
9.439922e-003
9.439922e-003
9.439922e-003
9.439922e-003
9.439921e-003
9.439921e-003
9.439921e-003
9.439921e-003
9.439920e-003
9.439920e-003
9.439920e-003
9.439920e-003
9.439920e-003
9.439919e-003
9.439919e-003
9.439919e-003
9.439919e-003
9.439919e-003
9.439919e-003
9.439919e-003
9.439919e-003
9.439919e-003
9.439919e-003
9.439919e-003
9.439919e-003
9.439919e-003
9.439919e-003
9.439919e-003
9.439919e-003
9.439919e-003
9.439919e-003
9.439919e-003
9.439920e-003
9.439920e-003
9.439920e-003
9.439920e-003
9.439920e-003
9.439920e-003
9.439921e-003
9.439921e-003
9.439921e-003
9.439921e-003
9.439921e-003
9.439921e-003
9.439921e-003
9.439921e-003
9.439921e-003
9.439921e-003
9.439921e-003
9.439920e-003
9.439920e-003
9.439920e-003
9.439920e-003
9.439920e-003
9.439920e-003
9.439920e-003
9.439920e-003
9.439920e-003
9.439919e-003
9.439919e-003
9.439919e-003
9.439919e-003
9.439919e-003
9.439920e-003
9.439920e-003
9.439920e-003
9.439920e-003
9.439920e-003
9.439921e-003
9.439921e-003
9.439921e-003
9.439921e-003
9.439922e-003
9.439922e-003
9.439922e-003
9.439922e-003
9.439923e-003
9.439923e-003
9.439923e-003
9.439924e-003
9.439924e-003
9.439924e-003
9.439924e-003
9.439924e-003
9.439925e-003
9.439925e-003
9.439925e-003
9.439925e-003
9.439925e-003
9.439925e-003
9.439925e-003
9.439925e-003
9.439925e-003
9.439925e-003
9.439925e-003
9.439924e-003
9.439924e-003
9.439924e-003
9.439924e-003
9.439923e-003
9.439923e-003
9.439923e-003
9.439922e-003
9.439922e-003
9.439922e-003
9.439922e-003
9.439921e-003
9.439921e-003
9.439921e-003
9.439921e-003
9.439921e-003
9.439921e-003
9.439921e-003
9.439920e-003
9.439920e-003
9.439920e-003
9.439920e-003
9.439920e-003
9.439920e-003
9.439919e-003
9.439919e-003
9.439919e-003
9.439919e-003
9.439919e-003
9.439918e-003
9.439918e-003
9.439919e-003
9.439919e-003
9.439919e-003
9.439919e-003
9.439920e-003
9.439920e-003
9.439920e-003
9.439920e-003
9.439920e-003
9.439920e-003
9.439920e-003
9.439920e-003
9.439920e-003
9.439920e-003
9.439920e-003
9.439921e-003
9.439921e-003
9.439921e-003
9.439921e-003
9.439921e-003
9.439921e-003
9.439921e-003
9.439920e-003
9.439920e-003
9.439920e-003
9.439920e-003
9.439920e-003
9.439920e-003
9.439920e-003
9.439920e-003
9.439920e-003
9.439920e-003
9.439919e-003
9.439919e-003
9.439919e-003
9.439920e-003
9.439920e-003
9.439920e-003
9.439920e-003
9.439921e-003
9.439921e-003
9.439921e-003
9.439922e-003
9.439922e-003
9.439923e-003
9.439923e-003
9.439924e-003
9.439924e-003
9.439925e-003
9.439925e-003
9.439926e-003
9.439926e-003
9.439927e-003
9.439927e-003
9.439927e-003
9.439928e-003
9.439928e-003
9.439929e-003
9.439929e-003
9.439929e-003
9.439929e-003
9.439929e-003
9.439929e-003
9.439929e-003
9.439929e-003
9.439929e-003
9.439929e-003
9.439929e-003
9.439929e-003
9.439928e-003
9.439928e-003
9.439927e-003
9.439927e-003
9.439926e-003
9.439926e-003
9.439925e-003
9.439925e-003
9.439924e-003
9.439924e-003
9.439923e-003
9.439923e-003
9.439922e-003
9.439922e-003
9.439922e-003
9.439922e-003
9.439921e-003
9.439921e-003
9.439921e-003
9.439921e-003
9.439921e-003
9.439921e-003
9.439920e-003
9.439920e-003
9.439920e-003
9.439919e-003
9.439919e-003
9.439919e-003
9.439918e-003
9.439918e-003
9.439918e-003
9.439918e-003
9.439919e-003
9.439919e-003
9.439919e-003
9.439920e-003
9.439920e-003
9.439920e-003
9.439920e-003
9.439920e-003
9.439920e-003
9.439919e-003
9.439919e-003
9.439919e-003
9.439920e-003
9.439920e-003
9.439920e-003
9.439920e-003
9.439920e-003
9.439921e-003
9.439921e-003
9.439920e-003
9.439920e-003
9.439920e-003
9.439920e-003
9.439920e-003
9.439920e-003
9.439920e-003
9.439920e-003
9.439920e-003
9.439920e-003
9.439920e-003
9.439920e-003
9.439920e-003
9.439920e-003
9.439920e-003
9.439920e-003
9.439920e-003
9.439921e-003
9.439921e-003
9.439922e-003
9.439922e-003
9.439923e-003
9.439924e-003
9.439925e-003
9.439926e-003
9.439926e-003
9.439927e-003
9.439928e-003
9.439929e-003
9.439930e-003
9.439931e-003
9.439932e-003
9.439933e-003
9.439933e-003
9.439934e-003
9.439935e-003
9.439935e-003
9.439936e-003
9.439936e-003
9.439937e-003
9.439937e-003
9.439937e-003
9.439937e-003
9.439937e-003
9.439937e-003
9.439937e-003
9.439936e-003
9.439936e-003
9.439936e-003
9.439935e-003
9.439934e-003
9.439934e-003
9.439933e-003
9.439932e-003
9.439931e-003
9.439930e-003
9.439929e-003
9.439928e-003
9.439927e-003
9.439926e-003
9.439925e-003
9.439924e-003
9.439924e-003
9.439923e-003
9.439923e-003
9.439922e-003
9.439922e-003
9.439922e-003
9.439921e-003
9.439921e-003
9.439921e-003
9.439921e-003
9.439920e-003
9.439920e-003
9.439920e-003
9.439919e-003
9.439919e-003
9.439919e-003
9.439918e-003
9.439918e-003
9.439918e-003
9.439919e-003
9.439919e-003
9.439919e-003
9.439920e-003
9.439920e-003
9.439920e-003
9.439920e-003
9.439920e-003
9.439920e-003
9.439919e-003
9.439919e-003
9.439919e-003
9.439919e-003
9.439919e-003
9.439920e-003
9.439920e-003
9.439920e-003
9.439920e-003
9.439920e-003
9.439920e-003
9.439920e-003
9.439920e-003
9.439920e-003
9.439920e-003
9.439920e-003
9.439920e-003
9.439920e-003
9.439920e-003
9.439920e-003
9.439920e-003
9.439920e-003
9.439920e-003
9.439920e-003
9.439920e-003
9.439921e-003
9.439921e-003
9.439922e-003
9.439923e-003
9.439924e-003
9.439925e-003
9.439926e-003
9.439927e-003
9.439929e-003
9.439930e-003
9.439932e-003
9.439933e-003
9.439934e-003
9.439936e-003
9.439937e-003
9.439938e-003
9.439940e-003
9.439941e-003
9.439942e-003
9.439943e-003
9.439944e-003
9.439944e-003
9.439945e-003
9.439945e-003
9.439945e-003
9.439946e-003
9.439946e-003
9.439946e-003
9.439945e-003
9.439945e-003
9.439945e-003
9.439945e-003
9.439944e-003
9.439944e-003
9.439943e-003
9.439943e-003
9.439942e-003
9.439941e-003
9.439940e-003
9.439938e-003
9.439937e-003
9.439936e-003
9.439934e-003
9.439932e-003
9.439931e-003
9.439929e-003
9.439928e-003
9.439927e-003
9.439925e-003
9.439924e-003
9.439923e-003
9.439923e-003
9.439922e-003
9.439921e-003
9.439921e-003
9.439921e-003
9.439921e-003
9.439920e-003
9.439920e-003
9.439920e-003
9.439920e-003
9.439919e-003
9.439919e-003
9.439919e-003
9.439919e-003
9.439919e-003
9.439919e-003
9.439919e-003
9.439920e-003
9.439920e-003
9.439920e-003
9.439920e-003
9.439920e-003
9.439920e-003
9.439920e-003
9.439919e-003
9.439919e-003
9.439918e-003
9.439919e-003
9.439919e-003
9.439919e-003
9.439919e-003
9.439919e-003
9.439920e-003
9.439920e-003
9.439920e-003
9.439920e-003
9.439920e-003
9.439920e-003
9.439920e-003
9.439920e-003
9.439920e-003
9.439920e-003
9.439920e-003
9.439920e-003
9.439920e-003
9.439920e-003
9.439921e-003
9.439921e-003
9.439921e-003
9.439922e-003
9.439923e-003
9.439924e-003
9.439926e-003
9.439927e-003
9.439929e-003
9.439931e-003
9.439933e-003
9.439935e-003
9.439937e-003
9.439939e-003
9.439940e-003
9.439942e-003
9.439944e-003
9.439945e-003
9.439946e-003
9.439947e-003
9.439947e-003
9.439948e-003
9.439948e-003
9.439948e-003
9.439948e-003
9.439947e-003
9.439947e-003
9.439946e-003
9.439946e-003
9.439946e-003
9.439945e-003
9.439945e-003
9.439945e-003
9.439945e-003
9.439945e-003
9.439945e-003
9.439945e-003
9.439945e-003
9.439946e-003
9.439946e-003
9.439945e-003
9.439945e-003
9.439945e-003
9.439944e-003
9.439943e-003
9.439941e-003
9.439939e-003
9.439937e-003
9.439935e-003
9.439933e-003
9.439931e-003
9.439929e-003
9.439927e-003
9.439926e-003
9.439924e-003
9.439923e-003
9.439922e-003
9.439921e-003
9.439921e-003
9.439921e-003
9.439920e-003
9.439920e-003
9.439920e-003
9.439920e-003
9.439920e-003
9.439920e-003
9.439920e-003
9.439919e-003
9.439919e-003
9.439919e-003
9.439919e-003
9.439920e-003
9.439920e-003
9.439920e-003
9.439920e-003
9.439920e-003
9.439920e-003
9.439920e-003
9.439919e-003
9.439919e-003
9.439918e-003
9.439918e-003
9.439918e-003
9.439918e-003
9.439918e-003
9.439919e-003
9.439919e-003
9.439919e-003
9.439919e-003
9.439919e-003
9.439919e-003
9.439919e-003
9.439919e-003
9.439919e-003
9.439920e-003
9.439920e-003
9.439920e-003
9.439920e-003
9.439921e-003
9.439921e-003
9.439922e-003
9.439923e-003
9.439923e-003
9.439925e-003
9.439926e-003
9.439928e-003
9.439930e-003
9.439933e-003
9.439935e-003
9.439938e-003
9.439940e-003
9.439942e-003
9.439944e-003
9.439945e-003
9.439946e-003
9.439946e-003
9.439945e-003
9.439944e-003
9.439942e-003
9.439940e-003
9.439937e-003
9.439934e-003
9.439930e-003
9.439926e-003
9.439923e-003
9.439919e-003
9.439915e-003
9.439912e-003
9.439910e-003
9.439908e-003
9.439906e-003
9.439906e-003
9.439906e-003
9.439907e-003
9.439909e-003
9.439911e-003
9.439914e-003
9.439918e-003
9.439922e-003
9.439926e-003
9.439931e-003
9.439934e-003
9.439938e-003
9.439941e-003
9.439943e-003
9.439944e-003
9.439944e-003
9.439943e-003
9.439942e-003
9.439940e-003
9.439937e-003
9.439935e-003
9.439932e-003
9.439930e-003
9.439928e-003
9.439926e-003
9.439924e-003
9.439923e-003
9.439922e-003
9.439921e-003
9.439921e-003
9.439921e-003
9.439921e-003
9.439921e-003
9.439921e-003
9.439921e-003
9.439920e-003
9.439920e-003
9.439920e-003
9.439920e-003
9.439920e-003
9.439920e-003
9.439919e-003
9.439919e-003
9.439919e-003
9.439919e-003
9.439919e-003
9.439920e-003
9.439920e-003
9.439920e-003
9.439918e-003
9.439918e-003
9.439918e-003
9.439918e-003
9.439918e-003
9.439918e-003
9.439918e-003
9.439918e-003
9.439919e-003
9.439919e-003
9.439919e-003
9.439919e-003
9.439919e-003
9.439919e-003
9.439920e-003
9.439920e-003
9.439920e-003
9.439921e-003
9.439922e-003
9.439923e-003
9.439924e-003
9.439925e-003
9.439927e-003
9.439929e-003
9.439932e-003
9.439934e-003
9.439937e-003
9.439940e-003
9.439943e-003
9.439945e-003
9.439946e-003
9.439945e-003
9.439944e-003
9.439941e-003
9.439935e-003
9.439928e-003
9.439919e-003
9.439909e-003
9.439896e-003
9.439883e-003
9.439868e-003
9.439853e-003
9.439837e-003
9.439822e-003
9.439807e-003
9.439793e-003
9.439781e-003
9.439770e-003
9.439761e-003
9.439754e-003
9.439750e-003
9.439749e-003
9.439750e-003
9.439755e-003
9.439762e-003
9.439772e-003
9.439784e-003
9.439799e-003
9.439815e-003
9.439832e-003
9.439850e-003
9.439868e-003
9.439884e-003
9.439900e-003
9.439913e-003
9.439924e-003
9.439932e-003
9.439938e-003
9.439941e-003
9.439943e-003
9.439943e-003
9.439941e-003
9.439939e-003
9.439936e-003
9.439933e-003
9.439930e-003
9.439927e-003
9.439925e-003
9.439924e-003
9.439923e-003
9.439922e-003
9.439921e-003
9.439921e-003
9.439921e-003
9.439921e-003
9.439921e-003
9.439921e-003
9.439921e-003
9.439921e-003
9.439920e-003
9.439920e-003
9.439920e-003
9.439919e-003
9.439919e-003
9.439919e-003
9.439919e-003
9.439919e-003
9.439919e-003
9.439920e-003
9.439920e-003
9.439917e-003
9.439917e-003
9.439917e-003
9.439917e-003
9.439917e-003
9.439917e-003
9.439917e-003
9.439918e-003
9.439918e-003
9.439919e-003
9.439919e-003
9.439919e-003
9.439919e-003
9.439920e-003
9.439920e-003
9.439920e-003
9.439921e-003
9.439922e-003
9.439923e-003
9.439925e-003
9.439927e-003
9.439930e-003
9.439933e-003
9.439936e-003
9.439939e-003
9.439942e-003
9.439945e-003
9.439946e-003
9.439946e-003
9.439943e-003
9.439937e-003
9.439927e-003
9.439913e-003
9.439894e-003
9.439869e-003
9.439840e-003
9.439806e-003
9.439767e-003
9.439725e-003
9.439679e-003
9.439632e-003
9.439584e-003
9.439537e-003
9.439491e-003
9.439447e-003
9.439407e-003
9.439371e-003
9.439341e-003
9.439316e-003
9.439297e-003
9.439286e-003
9.439283e-003
9.439288e-003
9.439301e-003
9.439323e-003
9.439352e-003
9.439389e-003
9.439432e-003
9.439481e-003
9.439534e-003
9.439588e-003
9.439643e-003
9.439697e-003
9.439747e-003
9.439793e-003
9.439833e-003
9.439867e-003
9.439893e-003
9.439914e-003
9.439928e-003
9.439937e-003
9.439941e-003
9.439943e-003
9.439942e-003
9.439940e-003
9.439936e-003
9.439933e-003
9.439930e-003
9.439928e-003
9.439925e-003
9.439924e-003
9.439923e-003
9.439922e-003
9.439922e-003
9.439921e-003
9.439921e-003
9.439921e-003
9.439921e-003
9.439921e-003
9.439921e-003
9.439920e-003
9.439920e-003
9.439919e-003
9.439919e-003
9.439919e-003
9.439919e-003
9.439919e-003
9.439919e-003
9.439920e-003
9.439920e-003
9.439917e-003
9.439917e-003
9.439917e-003
9.439916e-003
9.439916e-003
9.439916e-003
9.439917e-003
9.439917e-003
9.439918e-003
9.439918e-003
9.439919e-003
9.439919e-003
9.439920e-003
9.439920e-003
9.439921e-003
9.439921e-003
9.439923e-003
9.439924e-003
9.439926e-003
9.439929e-003
9.439932e-003
9.439936e-003
9.439940e-003
9.439944e-003
9.439947e-003
9.439948e-003
9.439946e-003
9.439940e-003
9.439928e-003
9.439909e-003
9.439880e-003
9.439840e-003
9.439789e-003
9.439724e-003
9.439647e-003
9.439558e-003
9.439457e-003
9.439346e-003
9.439227e-003
9.439103e-003
9.438976e-003
9.438848e-003
9.438722e-003
9.438602e-003
9.438489e-003
9.438385e-003
9.438294e-003
9.438216e-003
9.438153e-003
9.438108e-003
9.438081e-003
9.438074e-003
9.438088e-003
9.438123e-003
9.438179e-003
9.438256e-003
9.438351e-003
9.438464e-003
9.438592e-003
9.438730e-003
9.438875e-003
9.439023e-003
9.439169e-003
9.439309e-003
9.439438e-003
9.439554e-003
9.439654e-003
9.439738e-003
9.439804e-003
9.439856e-003
9.439893e-003
9.439918e-003
9.439933e-003
9.439941e-003
9.439944e-003
9.439943e-003
9.439940e-003
9.439937e-003
9.439933e-003
9.439930e-003
9.439927e-003
9.439925e-003
9.439924e-003
9.439923e-003
9.439922e-003
9.439922e-003
9.439921e-003
9.439921e-003
9.439921e-003
9.439921e-003
9.439920e-003
9.439920e-003
9.439919e-003
9.439919e-003
9.439919e-003
9.439919e-003
9.439919e-003
9.439919e-003
9.439920e-003
9.439920e-003
9.439916e-003
9.439916e-003
9.439916e-003
9.439916e-003
9.439916e-003
9.439916e-003
9.439916e-003
9.439917e-003
9.439917e-003
9.439918e-003
9.439919e-003
9.439919e-003
9.439920e-003
9.439921e-003
9.439922e-003
9.439923e-003
9.439925e-003
9.439928e-003
9.439931e-003
9.439935e-003
9.439940e-003
9.439944e-003
9.439948e-003
9.439949e-003
9.439947e-003
9.439938e-003
9.439921e-003
9.439890e-003
9.439844e-003
9.439777e-003
9.439686e-003
9.439567e-003
9.439420e-003
9.439242e-003
9.439035e-003
9.438799e-003
9.438538e-003
9.438256e-003
9.437958e-003
9.437649e-003
9.437336e-003
9.437025e-003
9.436722e-003
9.436433e-003
9.436164e-003
9.435919e-003
9.435703e-003
9.435520e-003
9.435375e-003
9.435270e-003
9.435209e-003
9.435195e-003
9.435229e-003
9.435313e-003
9.435447e-003
9.435629e-003
9.435857e-003
9.436128e-003
9.436433e-003
9.436767e-003
9.437120e-003
9.437482e-003
9.437842e-003
9.438191e-003
9.438517e-003
9.438815e-003
9.439077e-003
9.439301e-003
9.439485e-003
9.439631e-003
9.439742e-003
9.439823e-003
9.439877e-003
9.439912e-003
9.439932e-003
9.439942e-003
9.439945e-003
9.439943e-003
9.439940e-003
9.439936e-003
9.439932e-003
9.439929e-003
9.439926e-003
9.439924e-003
9.439923e-003
9.439922e-003
9.439922e-003
9.439921e-003
9.439921e-003
9.439921e-003
9.439921e-003
9.439920e-003
9.439920e-003
9.439919e-003
9.439919e-003
9.439919e-003
9.439919e-003
9.439919e-003
9.439920e-003
9.439920e-003
9.439916e-003
9.439916e-003
9.439916e-003
9.439915e-003
9.439915e-003
9.439916e-003
9.439916e-003
9.439916e-003
9.439917e-003
9.439918e-003
9.439919e-003
9.439920e-003
9.439921e-003
9.439922e-003
9.439924e-003
9.439926e-003
9.439929e-003
9.439933e-003
9.439938e-003
9.439943e-003
9.439948e-003
9.439950e-003
9.439949e-003
9.439940e-003
9.439919e-003
9.439881e-003
9.439817e-003
9.439721e-003
9.439584e-003
9.439397e-003
9.439153e-003
9.438846e-003
9.438472e-003
9.438030e-003
9.437522e-003
9.436954e-003
9.436333e-003
9.435669e-003
9.434976e-003
9.434265e-003
9.433551e-003
9.432846e-003
9.432165e-003
9.431520e-003
9.430921e-003
9.430379e-003
9.429904e-003
9.429505e-003
9.429188e-003
9.428961e-003
9.428831e-003
9.428802e-003
9.428880e-003
9.429067e-003
9.429364e-003
9.429769e-003
9.430276e-003
9.430877e-003
9.431561e-003
9.432312e-003
9.433109e-003
9.433933e-003
9.434760e-003
9.435567e-003
9.436332e-003
9.437037e-003
9.437667e-003
9.438213e-003
9.438670e-003
9.439041e-003
9.439330e-003
9.439546e-003
9.439702e-003
9.439807e-003
9.439875e-003
9.439915e-003
9.439936e-003
9.439944e-003
9.439945e-003
9.439943e-003
9.439938e-003
9.439934e-003
9.439930e-003
9.439927e-003
9.439924e-003
9.439923e-003
9.439922e-003
9.439921e-003
9.439921e-003
9.439921e-003
9.439921e-003
9.439920e-003
9.439920e-003
9.439919e-003
9.439919e-003
9.439919e-003
9.439919e-003
9.439919e-003
9.439919e-003
9.439919e-003
9.439915e-003
9.439915e-003
9.439915e-003
9.439915e-003
9.439915e-003
9.439915e-003
9.439916e-003
9.439916e-003
9.439917e-003
9.439918e-003
9.439919e-003
9.439921e-003
9.439922e-003
9.439924e-003
9.439927e-003
9.439930e-003
9.439935e-003
9.439940e-003
9.439946e-003
9.439950e-003
9.439951e-003
9.439945e-003
9.439926e-003
9.439885e-003
9.439813e-003
9.439696e-003
9.439518e-003
9.439262e-003
9.438909e-003
9.438444e-003
9.437850e-003
9.437117e-003
9.436240e-003
9.435219e-003
9.434063e-003
9.432786e-003
9.431406e-003
9.429948e-003
9.428439e-003
9.426909e-003
9.425384e-003
9.423894e-003
9.422463e-003
9.421117e-003
9.419877e-003
9.418762e-003
9.417789e-003
9.416975e-003
9.416333e-003
9.415876e-003
9.415617e-003
9.415566e-003
9.415732e-003
9.416119e-003
9.416731e-003
9.417565e-003
9.418613e-003
9.419860e-003
9.421285e-003
9.422857e-003
9.424541e-003
9.426293e-003
9.428068e-003
9.429817e-003
9.431493e-003
9.433055e-003
9.434468e-003
9.435708e-003
9.436764e-003
9.437632e-003
9.438322e-003
9.438851e-003
9.439241e-003
9.439515e-003
9.439700e-003
9.439817e-003
9.439887e-003
9.439924e-003
9.439941e-003
9.439946e-003
9.439944e-003
9.439940e-003
9.439935e-003
9.439931e-003
9.439927e-003
9.439925e-003
9.439923e-003
9.439922e-003
9.439921e-003
9.439921e-003
9.439921e-003
9.439920e-003
9.439920e-003
9.439920e-003
9.439920e-003
9.439919e-003
9.439919e-003
9.439919e-003
9.439919e-003
9.439919e-003
9.439914e-003
9.439914e-003
9.439915e-003
9.439915e-003
9.439915e-003
9.439916e-003
9.439916e-003
9.439917e-003
9.439917e-003
9.439918e-003
9.439920e-003
9.439922e-003
9.439924e-003
9.439927e-003
9.439931e-003
9.439937e-003
9.439942e-003
9.439948e-003
9.439952e-003
9.439950e-003
9.439937e-003
9.439903e-003
9.439834e-003
9.439713e-003
9.439515e-003
9.439211e-003
9.438768e-003
9.438151e-003
9.437321e-003
9.436247e-003
9.434901e-003
9.433268e-003
9.431342e-003
9.429134e-003
9.426667e-003
9.423977e-003
9.421110e-003
9.418121e-003
9.415066e-003
9.412003e-003
9.408988e-003
9.406074e-003
9.403306e-003
9.400726e-003
9.398371e-003
9.396271e-003
9.394454e-003
9.392945e-003
9.391764e-003
9.390934e-003
9.390472e-003
9.390396e-003
9.390721e-003
9.391456e-003
9.392610e-003
9.394180e-003
9.396158e-003
9.398523e-003
9.401243e-003
9.404269e-003
9.407542e-003
9.410987e-003
9.414518e-003
9.418042e-003
9.421466e-003
9.424701e-003
9.427670e-003
9.430315e-003
9.432599e-003
9.434507e-003
9.436048e-003
9.437249e-003
9.438152e-003
9.438803e-003
9.439255e-003
9.439553e-003
9.439739e-003
9.439849e-003
9.439908e-003
9.439935e-003
9.439945e-003
9.439945e-003
9.439941e-003
9.439936e-003
9.439931e-003
9.439927e-003
9.439925e-003
9.439923e-003
9.439922e-003
9.439921e-003
9.439921e-003
9.439921e-003
9.439920e-003
9.439920e-003
9.439920e-003
9.439919e-003
9.439919e-003
9.439919e-003
9.439919e-003
9.439919e-003
9.439914e-003
9.439914e-003
9.439914e-003
9.439915e-003
9.439915e-003
9.439916e-003
9.439916e-003
9.439917e-003
9.439918e-003
9.439919e-003
9.439921e-003
9.439924e-003
9.439927e-003
9.439932e-003
9.439938e-003
9.439944e-003
9.439950e-003
9.439953e-003
9.439948e-003
9.439925e-003
9.439872e-003
9.439767e-003
9.439579e-003
9.439270e-003
9.438788e-003
9.438073e-003
9.437058e-003
9.435670e-003
9.433843e-003
9.431518e-003
9.428653e-003
9.425234e-003
9.421271e-003
9.416804e-003
9.411903e-003
9.406656e-003
9.401169e-003
9.395554e-003
9.389926e-003
9.384390e-003
9.379044e-003
9.373969e-003
9.369237e-003
9.364901e-003
9.361009e-003
9.357594e-003
9.354685e-003
9.352307e-003
9.350480e-003
9.349225e-003
9.348560e-003
9.348505e-003
9.349079e-003
9.350299e-003
9.352181e-003
9.354734e-003
9.357959e-003
9.361846e-003
9.366367e-003
9.371473e-003
9.377090e-003
9.383116e-003
9.389421e-003
9.395853e-003
9.402239e-003
9.408405e-003
9.414186e-003
9.419441e-003
9.424065e-003
9.428000e-003
9.431236e-003
9.433802e-003
9.435764e-003
9.437208e-003
9.438229e-003
9.438921e-003
9.439369e-003
9.439645e-003
9.439804e-003
9.439889e-003
9.439928e-003
9.439943e-003
9.439945e-003
9.439942e-003
9.439937e-003
9.439932e-003
9.439928e-003
9.439925e-003
9.439923e-003
9.439922e-003
9.439921e-003
9.439921e-003
9.439920e-003
9.439920e-003
9.439920e-003
9.439920e-003
9.439919e-003
9.439919e-003
9.439919e-003
9.439919e-003
9.439913e-003
9.439913e-003
9.439914e-003
9.439915e-003
9.439916e-003
9.439916e-003
9.439917e-003
9.439918e-003
9.439919e-003
9.439920e-003
9.439923e-003
9.439927e-003
9.439932e-003
9.439938e-003
9.439946e-003
9.439952e-003
9.439954e-003
9.439945e-003
9.439913e-003
9.439837e-003
9.439688e-003
9.439419e-003
9.438968e-003
9.438251e-003
9.437168e-003
9.435598e-003
9.433411e-003
9.430480e-003
9.426690e-003
9.421957e-003
9.416246e-003
9.409576e-003
9.402030e-003
9.393748e-003
9.384919e-003
9.375761e-003
9.366504e-003
9.357372e-003
9.348564e-003
9.340245e-003
9.332544e-003
9.325547e-003
9.319308e-003
9.313850e-003
9.309174e-003
9.305267e-003
9.302106e-003
9.299665e-003
9.297915e-003
9.296834e-003
9.296403e-003
9.296612e-003
9.297464e-003
9.298974e-003
9.301171e-003
9.304100e-003
9.307818e-003
9.312389e-003
9.317874e-003
9.324319e-003
9.331737e-003
9.340087e-003
9.349267e-003
9.359096e-003
9.369321e-003
9.379632e-003
9.389691e-003
9.399169e-003
9.407780e-003
9.415319e-003
9.421673e-003
9.426826e-003
9.430845e-003
9.433860e-003
9.436033e-003
9.437537e-003
9.438533e-003
9.439163e-003
9.439542e-003
9.439757e-003
9.439869e-003
9.439922e-003
9.439942e-003
9.439945e-003
9.439942e-003
9.439937e-003
9.439932e-003
9.439928e-003
9.439925e-003
9.439923e-003
9.439922e-003
9.439921e-003
9.439921e-003
9.439920e-003
9.439920e-003
9.439920e-003
9.439919e-003
9.439919e-003
9.439919e-003
9.439919e-003
9.439913e-003
9.439913e-003
9.439914e-003
9.439915e-003
9.439916e-003
9.439917e-003
9.439918e-003
9.439919e-003
9.439920e-003
9.439922e-003
9.439926e-003
9.439931e-003
9.439938e-003
9.439946e-003
9.439953e-003
9.439955e-003
9.439943e-003
9.439901e-003
9.439803e-003
9.439606e-003
9.439246e-003
9.438628e-003
9.437627e-003
9.436080e-003
9.433790e-003
9.430538e-003
9.426097e-003
9.420265e-003
9.412895e-003
9.403934e-003
9.393451e-003
9.381650e-003
9.368870e-003
9.355555e-003
9.342210e-003
9.329351e-003
9.317450e-003
9.306896e-003
9.297962e-003
9.290800e-003
9.285439e-003
9.281802e-003
9.279732e-003
9.279015e-003
9.279406e-003
9.280643e-003
9.282466e-003
9.284623e-003
9.286877e-003
9.289009e-003
9.290829e-003
9.292183e-003
9.292968e-003
9.293144e-003
9.292753e-003
9.291931e-003
9.290921e-003
9.290067e-003
9.289804e-003
9.290621e-003
9.293007e-003
9.297386e-003
9.304040e-003
9.313041e-003
9.324213e-003
9.337130e-003
9.351166e-003
9.365574e-003
9.379595e-003
9.392564e-003
9.403990e-003
9.413595e-003
9.421310e-003
9.427241e-003
9.431608e-003
9.434690e-003
9.436774e-003
9.438122e-003
9.438955e-003
9.439444e-003
9.439715e-003
9.439853e-003
9.439917e-003
9.439941e-003
9.439946e-003
9.439942e-003