# vtk DataFile Version 3.0
vtk output
ASCII
DATASET STRUCTURED_POINTS
DIMENSIONS 100 100 1
SPACING 1 1 1
ORIGIN 0 0 0
POINT_DATA 10000
SCALARS SFBox_profile double
LOOKUP_TABLE default 
0.000000e+000
0.000000e+000
0.000000e+000
0.000000e+000
0.000000e+000
0.000000e+000
0.000000e+000
0.000000e+000
0.000000e+000
0.000000e+000
0.000000e+000
0.000000e+000
0.000000e+000
0.000000e+000
0.000000e+000
0.000000e+000
0.000000e+000
0.000000e+000
0.000000e+000
0.000000e+000
0.000000e+000
0.000000e+000
0.000000e+000
0.000000e+000
0.000000e+000
0.000000e+000
0.000000e+000
0.000000e+000
0.000000e+000
0.000000e+000
0.000000e+000
0.000000e+000
0.000000e+000
0.000000e+000
0.000000e+000
0.000000e+000
0.000000e+000
0.000000e+000
0.000000e+000
0.000000e+000
0.000000e+000
0.000000e+000
0.000000e+000
0.000000e+000
0.000000e+000
0.000000e+000
0.000000e+000
0.000000e+000
0.000000e+000
0.000000e+000
0.000000e+000
0.000000e+000
0.000000e+000
0.000000e+000
0.000000e+000
0.000000e+000
0.000000e+000
0.000000e+000
0.000000e+000
0.000000e+000
0.000000e+000
0.000000e+000
0.000000e+000
0.000000e+000
0.000000e+000
0.000000e+000
0.000000e+000
0.000000e+000
0.000000e+000
0.000000e+000
0.000000e+000
0.000000e+000
0.000000e+000
0.000000e+000
0.000000e+000
0.000000e+000
0.000000e+000
0.000000e+000
0.000000e+000
0.000000e+000
0.000000e+000
0.000000e+000
0.000000e+000
0.000000e+000
0.000000e+000
0.000000e+000
0.000000e+000
0.000000e+000
0.000000e+000
0.000000e+000
0.000000e+000
0.000000e+000
0.000000e+000
0.000000e+000
0.000000e+000
0.000000e+000
0.000000e+000
0.000000e+000
0.000000e+000
0.000000e+000
6.168969e-011
2.409394e-011
-2.904209e-011
-6.719317e-011
-6.719774e-011
-2.612626e-011
3.567861e-011
8.423186e-011
9.030457e-011
4.674901e-011
-2.588239e-011
-8.990615e-011
-1.117238e-010
-8.084311e-011
-1.480649e-011
5.271092e-011
9.221459e-011
9.354530e-011
6.687299e-011
3.114175e-011
8.009791e-014
-2.394909e-011
-4.553902e-011
-6.716987e-011
-8.414661e-011
-8.755997e-011
-7.189780e-011
-4.024990e-011
-2.752375e-012
3.001119e-011
5.299497e-011
6.764169e-011
7.807186e-011
8.652146e-011
9.183295e-011
9.151180e-011
8.476028e-011
7.360580e-011
6.145580e-011
5.075683e-011
4.187270e-011
3.383257e-011
2.588032e-011
1.833425e-011
1.221718e-011
8.311811e-012
6.625021e-012
6.633612e-012
7.886127e-012
1.032697e-011
1.413686e-011
1.939247e-011
2.593237e-011
3.348333e-011
4.178415e-011
5.048942e-011
5.896299e-011
6.626320e-011
7.143746e-011
7.385623e-011
7.319874e-011
6.904802e-011
6.057610e-011
4.688526e-011
2.798813e-011
5.656557e-012
-1.677400e-011
-3.573902e-011
-4.891172e-011
-5.552747e-011
-5.533726e-011
-4.744693e-011
-3.070542e-011
-5.906801e-012
2.202550e-011
4.444708e-011
5.282533e-011
4.381097e-011
2.174379e-011
-3.638093e-012
-2.281724e-011
-3.127137e-011
-3.004033e-011
-2.244329e-011
-1.060047e-011
4.770543e-012
2.140975e-011
3.315977e-011
3.197445e-011
1.408219e-011
-1.449601e-011
-3.871969e-011
-4.292780e-011
-2.185342e-011
1.390206e-011
4.300045e-011
4.669607e-011
2.158265e-011
-1.729100e-011
-4.564369e-011
1.160780e-011
6.961652e-012
-1.210121e-012
-1.010072e-011
-1.523264e-011
-1.258155e-011
-1.856037e-012
1.183914e-011
2.019569e-011
1.706868e-011
3.339576e-012
-1.276632e-011
-2.087237e-011
-1.576053e-011
-1.323579e-012
1.210867e-011
1.528746e-011
6.750155e-012
-6.422406e-012
-1.425466e-011
-1.136205e-011
-4.332287e-013
1.066176e-011
1.530967e-011
1.273595e-011
7.370813e-012
4.216770e-012
4.561818e-012
5.531441e-012
3.302918e-012
-3.259322e-012
-1.171087e-011
-1.826713e-011
-2.085251e-011
-2.029697e-011
-1.900385e-011
-1.865927e-011
-1.907434e-011
-1.888842e-011
-1.713562e-011
-1.413521e-011
-1.108241e-011
-8.962819e-012
-7.879263e-012
-7.266037e-012
-6.594850e-012
-5.837997e-012
-5.354792e-012
-5.468255e-012
-6.199521e-012
-7.351589e-012
-8.741015e-012
-1.029529e-011
-1.195974e-011
-1.359867e-011
-1.504435e-011
-1.622462e-011
-1.715954e-011
-1.776549e-011
-1.768325e-011
-1.640874e-011
-1.371788e-011
-1.000221e-011
-6.105239e-012
-2.699026e-012
2.315612e-013
3.201990e-012
6.402872e-012
9.027037e-012
9.594789e-012
7.237330e-012
2.842878e-012
-1.168511e-012
-2.552125e-012
-1.082038e-012
1.188882e-012
1.695393e-012
-3.049136e-013
-2.981402e-012
-3.616175e-012
-1.289995e-012
1.971493e-012
2.882202e-012
7.395634e-014
-4.167175e-012
-5.496753e-012
-1.377245e-012
6.097279e-012
1.116050e-011
8.770448e-012
-9.473536e-013
-1.196361e-011
-1.630029e-011
-9.930925e-012
3.819148e-012
1.610273e-011
1.850843e-011
8.967856e-012
-6.597576e-012
-1.812257e-011
-5.083063e-011
-1.613192e-011
3.022063e-011
5.851002e-011
5.025073e-011
9.074436e-012
-4.157579e-011
-7.234315e-011
-6.502668e-011
-2.267716e-011
3.292940e-011
7.421650e-011
8.274648e-011
5.733696e-011
1.172431e-011
-3.493792e-011
-6.772184e-011
-8.026899e-011
-7.328926e-011
-5.070685e-011
-1.725607e-011
2.145529e-011
5.824793e-011
8.523235e-011
9.643107e-011
9.025029e-011
6.977804e-011
4.069014e-011
8.459626e-012
-2.317746e-011
-5.196403e-011
-7.609672e-011
-9.380196e-011
-1.038781e-010
-1.064537e-010
-1.030365e-010
-9.570584e-011
-8.614737e-011
-7.528014e-011
-6.359904e-011
-5.170843e-011
-4.048091e-011
-3.076582e-011
-2.301900e-011
-1.723432e-011
-1.320046e-011
-1.080298e-011
-1.011624e-011
-1.127251e-011
-1.430510e-011
-1.910222e-011
-2.546534e-011
-3.315854e-011
-4.189572e-011
-5.130385e-011
-6.091036e-011
-7.013536e-011
-7.824388e-011
-8.428092e-011
-8.710731e-011
-8.561678e-011
-7.905190e-011
-6.722125e-011
-5.049463e-011
-2.969064e-011
-6.103603e-012
1.825256e-011
4.045657e-011
5.697310e-011
6.457139e-011
6.147810e-011
4.810081e-011
2.694421e-011
1.953376e-012
-2.217869e-011
-4.052101e-011
-4.858614e-011
-4.363885e-011
-2.638063e-011
-1.862211e-012
2.161559e-011
3.569364e-011
3.572223e-011
2.287781e-011
3.348644e-012
-1.479619e-011
-2.509946e-011
-2.480308e-011
-1.509015e-011
-1.675898e-013
1.407928e-011
2.177545e-011
1.925446e-011
7.204185e-012
-8.717342e-012
-2.008852e-011
-2.027994e-011
-8.765431e-012
7.938543e-012
1.989669e-011
-7.709888e-011
-2.932873e-011
3.705330e-011
8.275026e-011
7.994306e-011
2.806605e-011
-4.501172e-011
-9.793966e-011
-9.935330e-011
-4.638568e-011
3.323271e-011
9.726678e-011
1.134412e-010
7.695335e-011
1.049160e-011
-5.186073e-011
-8.497877e-011
-8.390512e-011
-6.047256e-011
-3.074899e-011
-4.062923e-012
1.906678e-011
4.115017e-011
6.111540e-011
7.307318e-011
7.083640e-011
5.340251e-011
2.636550e-011
-1.662950e-012
-2.424138e-011
-3.972961e-011
-4.999795e-011
-5.722000e-011
-6.178943e-011
-6.269252e-011
-5.925934e-011
-5.232845e-011
-4.386517e-011
-3.567530e-011
-2.849911e-011
-2.213531e-011
-1.620828e-011
-1.075023e-011
-6.174399e-012
-2.859080e-012
-8.406142e-013
1.254069e-013
2.840053e-013
-3.216426e-013
-1.817223e-012
-4.320216e-012
-7.809480e-012
-1.214152e-011
-1.716163e-011
-2.277352e-011
-2.888012e-011
-3.523530e-011
-4.133611e-011
-4.647172e-011
-4.990733e-011
-5.104897e-011
-4.943712e-011
-4.460522e-011
-3.604849e-011
-2.352694e-011
-7.616489e-012
9.934190e-012
2.646746e-011
3.925985e-011
4.634248e-011
4.669029e-011
3.982796e-011
2.563779e-011
5.091116e-012
-1.843745e-011
-3.872969e-011
-4.850774e-011
-4.311338e-011
-2.378410e-011
2.126173e-012
2.465002e-011
3.623551e-011
3.485905e-011
2.340844e-011
6.656642e-012
-1.111029e-011
-2.603348e-011
-3.347934e-011
-2.861573e-011
-9.963861e-012
1.663629e-011
3.818878e-011
4.101966e-011
2.034660e-011
-1.416438e-011
-4.237393e-011
-4.600150e-011
-2.131988e-011
1.712781e-011
4.527834e-011
-4.344170e-011
-2.211645e-011
1.088813e-011
4.005303e-011
4.967003e-011
3.213239e-011
-5.579582e-012
-4.316574e-011
-5.788783e-011
-3.939457e-011
1.968007e-012
4.066922e-011
5.280111e-011
3.252800e-011
-4.102115e-012
-3.109978e-011
-3.130493e-011
-7.850444e-012
1.985832e-011
3.159590e-011
2.066355e-011
-3.465482e-012
-2.465729e-011
-3.277031e-011
-2.924201e-011
-2.257226e-011
-1.926494e-011
-1.854013e-011
-1.453874e-011
-2.792375e-012
1.534824e-011
3.383916e-011
4.680865e-011
5.251271e-011
5.334242e-011
5.272888e-011
5.217582e-011
5.080473e-011
4.711999e-011
4.089519e-011
3.349813e-011
2.673293e-011
2.154886e-011
1.774783e-011
1.467940e-011
1.206455e-011
1.021028e-011
9.602487e-012
1.042301e-011
1.245009e-011
1.533499e-011
1.888934e-011
2.308957e-011
2.784069e-011
3.279002e-011
3.739954e-011
4.119701e-011
4.391167e-011
4.532562e-011
4.499362e-011
4.221135e-011
3.642601e-011
2.782200e-011
1.751073e-011
7.015308e-012
-2.572620e-012
-1.094711e-011
-1.800437e-011
-2.287973e-011
-2.379260e-011
-1.933586e-011
-1.034044e-011
-4.487393e-013
5.736735e-012
5.886211e-012
1.856609e-012
-1.710143e-012
-1.259587e-012
2.643521e-012
6.017691e-012
5.450983e-012
1.657754e-012
-1.051948e-012
7.385718e-013
5.324329e-012
6.505363e-012
-6.151439e-013
-1.359947e-011
-2.253460e-011
-1.730198e-011
3.023460e-012
2.684647e-011
3.689839e-011
2.310238e-011
-8.349964e-012
-3.750894e-011
-4.399578e-011
-2.181323e-011
1.544641e-011
4.333804e-011
2.984314e-011
2.682035e-012
-2.921032e-011
-4.022991e-011
-2.086554e-011
1.592473e-011
4.516581e-011
4.823766e-011
2.496658e-011
-8.816485e-012
-3.459381e-011
-4.367897e-011
-3.939725e-011
-2.921049e-011
-1.572395e-011
4.520446e-012
3.376316e-011
6.516135e-011
8.316017e-011
7.334686e-011
3.397042e-011
-2.082428e-011
-6.923411e-011
-9.509645e-011
-9.598078e-011
-8.071754e-011
-5.996946e-011
-3.841427e-011
-1.434203e-011
1.476054e-011
4.691382e-011
7.554873e-011
9.407906e-011
1.004973e-010
9.799425e-011
9.165641e-011
8.462413e-011
7.690138e-011
6.710882e-011
5.492319e-011
4.189096e-011
3.027276e-011
2.138994e-011
1.504487e-011
1.028155e-011
6.511390e-012
3.951584e-012
3.191169e-012
4.528582e-012
7.753048e-012
1.245653e-011
1.842106e-011
2.565456e-011
3.409142e-011
4.333581e-011
5.273657e-011
6.167352e-011
6.967024e-011
7.613134e-011
7.997338e-011
7.966300e-011
7.386507e-011
6.225416e-011
4.575560e-011
2.593289e-011
4.137902e-012
-1.857545e-011
-4.048082e-011
-5.813402e-011
-6.678118e-011
-6.268358e-011
-4.591358e-011
-2.121940e-011
4.160081e-012
2.423586e-011
3.654824e-011
4.126024e-011
3.846956e-011
2.705527e-011
6.892877e-012
-1.753618e-011
-3.648761e-011
-3.968992e-011
-2.389746e-011
2.925475e-012
2.532394e-011
3.033925e-011
1.656175e-011
-4.909770e-012
-1.866875e-011
-1.620929e-011
-1.609425e-012
1.242769e-011
1.474487e-011
4.101996e-012
-1.047219e-011
-1.714294e-011
-1.049092e-011
4.514132e-012
1.652539e-011
9.031487e-011
2.894432e-011
-5.138932e-011
-9.783415e-011
-8.097130e-011
-1.232165e-011
6.485262e-011
1.042160e-010
8.498278e-011
2.212092e-011
-4.673841e-011
-8.658593e-011
-8.441261e-011
-5.109018e-011
-8.203463e-012
2.749893e-011
5.046712e-011
6.190560e-011
6.223043e-011
4.894214e-011
2.126785e-011
-1.454651e-011
-4.598786e-011
-6.149106e-011
-5.795119e-011
-4.192791e-011
-2.374014e-011
-9.910450e-012
-2.685260e-013
8.801511e-012
1.903084e-011
2.805780e-011
3.185208e-011
2.876748e-011
2.116558e-011
1.336862e-011
8.243252e-012
5.584127e-012
3.346552e-012
7.682709e-014
-3.830930e-012
-6.877014e-012
-8.072369e-012
-7.766541e-012
-7.112142e-012
-6.950596e-012
-7.246892e-012
-7.434447e-012
-7.115180e-012
-6.368014e-012
-5.484691e-012
-4.558206e-012
-3.393274e-012
-1.770145e-012
3.205898e-013
2.759434e-012
5.569722e-012
8.967762e-012
1.301526e-011
1.718981e-011
2.040484e-011
2.160771e-011
2.044112e-011
1.725444e-011
1.237480e-011
5.423199e-012
-4.356664e-012
-1.671632e-011
-2.920192e-011
-3.759105e-011
-3.812878e-011
-2.993579e-011
-1.552665e-011
1.024533e-012
1.650541e-011
2.922299e-011
3.746867e-011
3.798037e-011
2.708387e-011
4.582677e-012
-2.294657e-011
-4.344839e-011
-4.588368e-011
-2.775608e-011
2.196866e-012
2.875171e-011
3.926659e-011
3.068043e-011
9.942359e-012
-1.144563e-011
-2.415957e-011
-2.471467e-011
-1.511779e-011
-5.121362e-013
1.300449e-011
1.998185e-011
1.733482e-011
6.098846e-012
-8.240414e-012
-1.811303e-011
9.003479e-011
3.718357e-011
-3.606778e-011
-8.664209e-011
-8.541493e-011
-3.405050e-011
3.600771e-011
8.275304e-011
7.977465e-011
3.247366e-011
-2.681477e-011
-6.147999e-011
-5.492520e-011
-1.928136e-011
1.659623e-011
2.930639e-011
1.596891e-011
-7.867259e-012
-2.312700e-011
-2.135358e-011
-7.502335e-012
8.098572e-012
1.936194e-011
2.712941e-011
3.443889e-011
4.076796e-011
4.136039e-011
3.173534e-011
1.231234e-011
-1.143515e-011
-3.307404e-011
-4.938791e-011
-6.102499e-011
-6.984122e-011
-7.612844e-011
-7.836485e-011
-7.519907e-011
-6.726379e-011
-5.699777e-011
-4.688198e-011
-3.793654e-011
-2.976709e-011
-2.177062e-011
-1.413701e-011
-7.777533e-012
-3.508414e-012
-1.447124e-012
-1.142546e-012
-2.146331e-012
-4.371179e-012
-7.961326e-012
-1.294763e-011
-1.910737e-011
-2.610153e-011
-3.361447e-011
-4.126056e-011
-4.837646e-011
-5.403030e-011
-5.735476e-011
-5.789871e-011
-5.559829e-011
-5.037197e-011
-4.186295e-011
-2.982166e-011
-1.495438e-011
6.107915e-013
1.395134e-011
2.278562e-011
2.653166e-011
2.602885e-011
2.228364e-011
1.567511e-011
6.617882e-012
-3.031201e-012
-9.745524e-012
-1.033997e-011
-4.882370e-012
2.356182e-012
5.506205e-012
1.587088e-012
-6.920718e-012
-1.387499e-011
-1.422307e-011
-7.587066e-012
2.239586e-012
1.083672e-011
1.596126e-011
1.714816e-011
1.356714e-011
3.742005e-012
-1.150495e-011
-2.599536e-011
-2.976734e-011
-1.621878e-011
1.041992e-011
3.477283e-011
3.970555e-011
1.935281e-011
-1.473097e-011
-4.038650e-011
2.180582e-011
1.886073e-011
8.601307e-012
-9.843530e-012
-2.825704e-011
-3.386451e-011
-2.082576e-011
2.677783e-012
1.996694e-011
2.016192e-011
8.161961e-012
2.274557e-013
8.269985e-012
2.706988e-011
3.685262e-011
2.004656e-011
-2.205644e-011
-6.750740e-011
-8.878849e-011
-7.239508e-011
-2.721540e-011
2.380970e-011
6.032992e-011
7.570759e-011
7.553925e-011
6.799580e-011
5.605911e-011
3.768048e-011
1.145184e-011
-1.909935e-011
-4.675150e-011
-6.548924e-011
-7.405689e-011
-7.527020e-011
-7.256674e-011
-6.739807e-011
-5.943190e-011
-4.848525e-011
-3.579119e-011
-2.345668e-011
-1.300861e-011
-4.626659e-012
2.352343e-012
8.410848e-012
1.337013e-011
1.673374e-011
1.827736e-011
1.823864e-011
1.702385e-011
1.484900e-011
1.166622e-011
7.345017e-012
1.834346e-012
-4.814669e-012
-1.246126e-011
-2.080796e-011
-2.931881e-011
-3.728665e-011
-4.403308e-011
-4.900252e-011
-5.157744e-011
-5.081599e-011
-4.556232e-011
-3.510426e-011
-1.994005e-011
-1.930391e-012
1.639412e-011
3.273020e-011
4.520931e-011
5.183458e-011
5.018508e-011
3.849034e-011
1.775560e-011
-6.990975e-012
-2.815296e-011
-3.934173e-011
-3.871829e-011
-2.915836e-011
-1.529386e-011
-4.388819e-013
1.362794e-011
2.438813e-011
2.736649e-011
1.883524e-011
8.039917e-013
-1.713846e-011
-2.299352e-011
-1.187920e-011
8.222493e-012
2.102199e-011
1.474308e-011
-7.045131e-012
-2.666958e-011
-2.613802e-011
-2.726826e-012
2.706344e-011
3.961348e-011
2.321918e-011
-1.156632e-011
-3.930355e-011
-7.199702e-011
-1.551061e-011
5.256342e-011
8.128292e-011
5.159060e-011
-1.249969e-011
-6.558141e-011
-7.563905e-011
-4.407551e-011
2.066177e-012
3.504709e-011
4.573054e-011
4.282651e-011
3.727294e-011
2.934791e-011
1.089389e-011
-2.131349e-011
-5.617832e-011
-7.363262e-011
-6.059439e-011
-2.280317e-011
1.850258e-011
4.220112e-011
4.164172e-011
2.628044e-011
1.108225e-011
4.296369e-012
3.774523e-012
2.870752e-012
-1.446755e-012
-5.990032e-012
-5.399874e-012
2.262444e-012
1.386502e-011
2.428717e-011
3.057260e-011
3.332800e-011
3.484628e-011
3.646554e-011
3.768975e-011
3.733861e-011
3.507551e-011
3.177284e-011
2.866859e-011
2.640747e-011
2.485545e-011
2.362636e-011
2.262530e-011
2.211919e-011
2.242616e-011
2.361349e-011
2.544729e-011
2.754457e-011
2.955247e-011
3.124990e-011
3.253509e-011
3.330732e-011
3.330508e-011
3.207604e-011
2.921964e-011
2.480001e-011
1.954704e-011
1.453745e-011
1.055281e-011
7.742608e-012
6.013620e-012
5.734497e-012
7.766156e-012
1.234746e-011
1.771699e-011
2.014974e-011
1.611265e-011
5.121505e-012
-9.304312e-012
-2.180805e-011
-2.874161e-011
-2.978548e-011
-2.616883e-011
-1.774287e-011
-2.837427e-012
1.793702e-011
3.769867e-011
4.467649e-011
3.029182e-011
-1.827148e-012
-3.462400e-011
-4.764921e-011
-3.199752e-011
1.834677e-012
3.060823e-011
3.529727e-011
1.517544e-011
-1.230675e-011
-2.574807e-011
-1.654358e-011
5.285731e-012
2.042185e-011
1.654508e-011
-1.928000e-012
-1.834638e-011
-1.266493e-010
-4.216543e-011
6.561769e-011
1.238481e-010
9.825878e-011
1.328389e-011
-7.003215e-011
-9.946037e-011
-6.592395e-011
-3.181918e-012
4.287683e-011
4.866874e-011
2.469944e-011
-5.998072e-013
-7.329080e-012
2.394715e-012
1.253668e-011
1.145433e-011
1.930456e-012
-4.953474e-012
-3.544448e-012
-9.841793e-014
-5.915122e-012
-2.482527e-011
-4.781878e-011
-5.987878e-011
-5.213824e-011
-2.811383e-011
7.297800e-013
2.476767e-011
4.216728e-011
5.681333e-011
7.189763e-011
8.595037e-011
9.445142e-011
9.437761e-011
8.687715e-011
7.595051e-011
6.508585e-011
5.521147e-011
4.536961e-011
3.476534e-011
2.397836e-011
1.448293e-011
7.377881e-012
2.706797e-012
-1.702418e-013
-1.753833e-012
-1.973079e-012
-4.058970e-013
3.219022e-012
8.742907e-012
1.569974e-011
2.364804e-011
3.237639e-011
4.179307e-011
5.157348e-011
6.086747e-011
6.838305e-011
7.287395e-011
7.365896e-011
7.067836e-011
6.400494e-011
5.337857e-011
3.850816e-011
2.016498e-011
1.042512e-012
-1.485186e-011
-2.429508e-011
-2.682661e-011
-2.469088e-011
-2.059501e-011
-1.543126e-011
-8.426208e-012
2.770207e-013
7.569685e-012
8.911591e-012
2.921588e-012
-5.452836e-012
-7.490404e-012
1.822783e-012
1.773916e-011
2.758816e-011
2.047426e-011
-2.785978e-012
-2.842256e-011
-3.918967e-011
-2.730058e-011
-3.326548e-013
2.453846e-011
3.297820e-011
2.267069e-011
2.905018e-012
-1.358122e-011
-1.921040e-011
-1.458967e-011
-5.443983e-012
2.599624e-012
7.162600e-012
8.821100e-012
-1.004129e-010
-4.110066e-011
3.809179e-011
8.765176e-011
7.971421e-011
2.519670e-011
-3.522713e-011
-6.061295e-011
-3.889474e-011
5.997155e-012
3.459798e-011
2.376974e-011
-1.564016e-011
-4.920149e-011
-4.774892e-011
-1.013347e-011
3.814177e-011
6.689993e-011
6.358682e-011
3.791334e-011
8.451672e-012
-1.377513e-011
-2.996489e-011
-4.528692e-011
-5.885462e-011
-6.273829e-011
-5.005340e-011
-2.286615e-011
8.274218e-012
3.233173e-011
4.532182e-011
5.080485e-011
5.417557e-011
5.707084e-011
5.689253e-011
5.072537e-011
3.898422e-011
2.531728e-011
1.350533e-011
4.755894e-012
-2.256587e-012
-9.260218e-012
-1.656305e-011
-2.307234e-011
-2.764800e-011
-3.019641e-011
-3.155727e-011
-3.257018e-011
-3.336515e-011
-3.345658e-011
-3.236220e-011
-3.005805e-011
-2.687737e-011
-2.304097e-011
-1.833766e-011
-1.229139e-011
-4.683470e-012
4.057530e-012
1.300292e-011
2.129796e-011
2.857202e-011
3.466283e-011
3.884099e-011
3.943243e-011
3.459999e-011
2.394350e-011
9.504585e-012
-5.019328e-012
-1.641358e-011
-2.349472e-011
-2.652571e-011
-2.520891e-011
-1.783649e-011
-3.307079e-012
1.551583e-011
3.097260e-011
3.460171e-011
2.358616e-011
3.998723e-012
-1.283006e-011
-1.844948e-011
-1.311435e-011
-4.304006e-012
3.832740e-013
-7.695673e-013
-3.858970e-012
-4.538727e-012
-2.183699e-012
9.378048e-013
3.444716e-012
6.351628e-012
1.029633e-011
1.229899e-011
7.219337e-012
-6.181151e-012
-2.092443e-011
-2.534788e-011
-1.299987e-011
1.000229e-011
2.804353e-011
-5.289221e-012
-1.170223e-011
-1.408006e-011
-4.974555e-012
1.043114e-011
1.936058e-011
1.558585e-011
6.531681e-012
4.697194e-012
1.229693e-011
1.648563e-011
2.075350e-012
-3.022223e-011
-5.934882e-011
-5.993086e-011
-2.503727e-011
2.569428e-011
6.074399e-011
6.127562e-011
3.401437e-011
2.490357e-012
-1.349144e-011
-1.130865e-011
-2.047650e-012
3.235381e-012
3.064602e-012
3.278715e-012
7.949865e-012
1.401589e-011
1.449604e-011
5.758030e-012
-9.043286e-012
-2.326235e-011
-3.268311e-011
-3.810509e-011
-4.286475e-011
-4.868146e-011
-5.412373e-011
-5.660086e-011
-5.522534e-011
-5.159135e-011
-4.811621e-011
-4.598240e-011
-4.466035e-011
-4.308622e-011
-4.100919e-011
-3.921336e-011
-3.867356e-011
-3.968977e-011
-4.182770e-011
-4.454572e-011
-4.775056e-011
-5.172370e-011
-5.656853e-011
-6.179045e-011
-6.645149e-011
-6.972983e-011
-7.128504e-011
-7.101794e-011
-6.847939e-011
-6.267104e-011
-5.270197e-011
-3.886807e-011
-2.307580e-011
-7.971499e-012
4.588886e-012
1.426366e-011
2.136262e-011
2.538524e-011
2.487104e-011
1.926516e-011
1.104547e-011
5.358272e-012
6.459901e-012
1.372626e-011
2.123129e-011
2.199846e-011
1.348056e-011
-6.810948e-013
-1.408431e-011
-2.249865e-011
-2.536441e-011
-2.310349e-011
-1.458035e-011
1.036382e-012
1.953285e-011
3.057140e-011
2.444077e-011
2.140286e-012
-2.161902e-011
-2.827821e-011
-1.151927e-011
1.517962e-011
2.846963e-011
1.550512e-011
-1.345206e-011
-3.286893e-011
-2.442714e-011
5.951411e-012
3.258597e-011
9.987843e-011
2.589486e-011
-6.133807e-011
-9.646843e-011
-6.102730e-011
8.306736e-012
5.681042e-011
5.753345e-011
2.619906e-011
-2.320453e-012
-8.670473e-012
-1.823263e-012
-2.324236e-012
-1.729951e-011
-3.344218e-011
-3.296465e-011
-1.371163e-011
7.994983e-012
1.397675e-011
2.513120e-012
-1.013079e-011
-5.713933e-012
1.878580e-011
4.894762e-011
6.619120e-011
6.275564e-011
4.500808e-011
2.447142e-011
7.151939e-012
-8.919425e-012
-2.780263e-011
-4.918427e-011
-6.793984e-011
-7.902098e-011
-8.183400e-011
-7.988504e-011
-7.690828e-011
-7.383888e-011
-6.926475e-011
-6.206110e-011
-5.309564e-011
-4.451387e-011
-3.781343e-011
-3.286090e-011
-2.861173e-011
-2.448221e-011
-2.091334e-011
-1.877952e-011
-1.849965e-011
-1.980501e-011
-2.226561e-011
-2.587504e-011
-3.104825e-011
-3.809178e-011
-4.676651e-011
-5.640146e-011
-6.637721e-011
-7.634596e-011
-8.583863e-011
-9.364080e-011
-9.772236e-011
-9.605879e-011
-8.772958e-011
-7.326236e-011
-5.390020e-011
-3.069442e-011
-4.668316e-012
2.188895e-011
4.455701e-011
5.804126e-011
5.926151e-011
4.972993e-011
3.473672e-011
1.973481e-011
7.204172e-012
-3.081821e-012
-1.115353e-011
-1.516896e-011
-1.351764e-011
-8.440556e-012
-6.001252e-012
-1.048493e-011
-1.814985e-011
-1.809761e-011
-2.150005e-012
2.439562e-011
4.285818e-011
3.530610e-011
1.855727e-012
-3.542006e-011
-4.831199e-011
-2.612413e-011
1.380596e-011
3.955411e-011
3.146882e-011
-1.095624e-012
-2.845936e-011
-2.721797e-011
-8.145473e-013
2.452210e-011
1.492670e-010
4.566410e-011
-7.891258e-011
-1.334455e-010
-8.878993e-011
6.718354e-012
7.418059e-011
6.978586e-011
1.397316e-011
-3.548982e-011
-3.719932e-011
1.916466e-012
4.039811e-011
4.336525e-011
1.125059e-011
-2.690425e-011
-4.366150e-011
-3.576024e-011
-2.007609e-011
-1.195484e-011
-1.007288e-011
-1.663189e-012
2.032226e-011
4.738199e-011
6.253117e-011
5.584923e-011
3.264886e-011
7.395771e-012
-9.102517e-012
-1.665661e-011
-2.186275e-011
-2.944578e-011
-3.789701e-011
-4.244250e-011
-4.072070e-011
-3.499287e-011
-2.945449e-011
-2.628748e-011
-2.449948e-011
-2.197735e-011
-1.799579e-011
-1.364833e-011
-1.032914e-011
-8.260414e-012
-6.531697e-012
-4.250825e-012
-1.393952e-012
1.415374e-012
3.704116e-012
5.551287e-012
7.259336e-012
8.807443e-012
9.738754e-012
9.532294e-012
7.943511e-012
4.893975e-012
1.022885e-013
-6.969020e-012
-1.660465e-011
-2.821634e-011
-4.031151e-011
-5.116764e-011
-5.949835e-011
-6.432778e-011
-6.424397e-011
-5.720482e-011
-4.178168e-011
-1.914878e-011
6.171528e-012
2.806492e-011
4.195281e-011
4.655680e-011
4.283043e-011
3.172701e-011
1.396300e-011
-7.436032e-012
-2.512048e-011
-3.012769e-011
-1.898634e-011
1.047903e-012
1.533921e-011
1.322181e-011
-2.010493e-012
-1.469117e-011
-1.042217e-011
9.769330e-012
2.847690e-011
2.663452e-011
1.435258e-012
-2.921237e-011
-4.086361e-011
-2.344019e-011
9.725598e-012
3.299120e-011
2.993414e-011
6.400293e-012
-1.599958e-011
-1.947727e-011
-5.003467e-012
1.033142e-011
1.137120e-010
3.525638e-011
-5.898667e-011
-9.898672e-011
-6.152649e-011
1.491846e-011
6.479882e-011
4.997690e-011
-1.097136e-011
-6.178944e-011
-5.794959e-011
-3.351118e-012
5.614972e-011
7.407930e-011
4.155021e-011
-1.006491e-011
-4.041526e-011
-3.423671e-011
-8.433074e-012
9.517841e-012
7.604292e-012
-4.424748e-012
-1.025321e-011
-4.976251e-012
2.104265e-012
-1.210298e-013
-1.195641e-011
-2.290660e-011
-2.263719e-011
-1.063722e-011
4.548691e-012
1.413432e-011
1.632208e-011
1.564448e-011
1.681649e-011
2.012138e-011
2.229613e-011
2.071678e-011
1.604435e-011
1.112806e-011
8.101079e-012
6.869675e-012
6.055478e-012
4.826995e-012
3.624502e-012
3.404515e-012
4.590067e-012
6.857503e-012
9.735593e-012
1.315638e-011
1.739620e-011
2.264706e-011
2.878366e-011
3.550257e-011
4.247916e-011
4.923269e-011
5.486314e-011
5.810170e-011
5.777746e-011
5.324772e-011
4.431018e-011
3.078213e-011
1.251466e-011
-9.722247e-012
-3.319383e-011
-5.335327e-011
-6.568167e-011
-6.793595e-011
-6.080433e-011
-4.644567e-011
-2.675710e-011
-3.673555e-012
1.869376e-011
3.327290e-011
3.343352e-011
1.901646e-011
-7.960257e-013
-1.232749e-011
-7.634578e-012
8.474657e-012
2.178784e-011
2.051765e-011
5.383210e-012
-1.132610e-011
-1.689935e-011
-9.185104e-012
2.590290e-012
7.215205e-012
1.629508e-012
-7.499542e-012
-1.110464e-011
-6.035857e-012
3.235034e-012
9.746864e-012
1.004488e-011
5.725170e-012
5.750644e-013
-2.842113e-012
-4.237313e-012
-4.539129e-012
1.706120e-011
4.549129e-012
-1.129728e-011
-1.737118e-011
-5.758998e-012
1.709478e-011
3.125829e-011
1.861817e-011
-1.830055e-011
-5.321157e-011
-5.605391e-011
-2.028673e-011
2.874493e-011
5.462381e-011
4.174538e-011
8.264189e-012
-1.215583e-011
-1.914027e-012
2.573597e-011
4.133396e-011
2.727830e-011
-7.874021e-012
-4.022489e-011
-5.300597e-011
-4.836993e-011
-3.980831e-011
-3.624905e-011
-3.469533e-011
-2.675211e-011
-9.723274e-012
9.858057e-012
2.270499e-011
2.528796e-011
2.176120e-011
1.863530e-011
1.863200e-011
1.961421e-011
1.835501e-011
1.436182e-011
1.005103e-011
7.982066e-012
8.519259e-012
1.006182e-011
1.097441e-011
1.097147e-011
1.084170e-011
1.129484e-011
1.231283e-011
1.345867e-011
1.452441e-011
1.578024e-011
1.774005e-011
2.086361e-011
2.545941e-011
3.166544e-011
3.932394e-011
4.785830e-011
5.638415e-011
6.397808e-011
6.969350e-011
7.215043e-011
6.919653e-011
5.844651e-011
3.875799e-011
1.154731e-011
-1.938275e-011
-4.950950e-011
-7.511878e-011
-9.313440e-011
-9.980931e-011
-9.080258e-011
-6.426280e-011
-2.494239e-011
1.520403e-011
4.245856e-011
4.969180e-011
4.073842e-011
2.660409e-011
1.661545e-011
1.237682e-011
9.457081e-012
3.917441e-012
-3.597080e-012
-9.840669e-012
-1.335355e-011
-1.523449e-011
-1.560089e-011
-1.136283e-011
1.436554e-013
1.503428e-011
2.272819e-011
1.488801e-011
-4.533820e-012
-1.995453e-011
-1.755286e-011
7.969544e-013
1.792614e-011
1.736834e-011
-3.263990e-013
-1.774834e-011
-8.399612e-011
-2.339411e-011
4.429657e-011
6.688676e-011
3.869204e-011
-2.799927e-012
-1.962628e-011
-8.775175e-012
3.266839e-012
-4.996751e-012
-2.646732e-011
-3.620303e-011
-2.086208e-011
7.092377e-012
2.449514e-011
2.284909e-011
1.536353e-011
1.931678e-011
3.482814e-011
4.374437e-011
2.921132e-011
-5.714107e-012
-3.988651e-011
-5.350003e-011
-4.478126e-011
-2.835491e-011
-1.939119e-011
-2.067547e-011
-2.406574e-011
-2.187413e-011
-1.498552e-011
-1.036666e-011
-1.260777e-011
-1.919284e-011
-2.361425e-011
-2.185441e-011
-1.529673e-011
-8.032409e-012
-2.395575e-012
2.591385e-012
9.094279e-012
1.764516e-011
2.655308e-011
3.359876e-011
3.784850e-011
3.987463e-011
4.063527e-011
4.044298e-011
3.892986e-011
3.570909e-011
3.090776e-011
2.517848e-011
1.939170e-011
1.435251e-011
1.065885e-011
8.672360e-012
8.631338e-012
1.087260e-011
1.588664e-011
2.386544e-011
3.387422e-011
4.341094e-011
4.908297e-011
4.813103e-011
3.952354e-011
2.362802e-011
1.087431e-012
-2.726603e-011
-5.860253e-011
-8.614088e-011
-1.001452e-010
-9.284128e-011
-6.409233e-011
-2.284342e-011
1.751029e-011
4.622228e-011
5.901261e-011
5.662095e-011
4.167650e-011
1.836899e-011
-5.628673e-012
-2.016115e-011
-1.916483e-011
-7.485029e-012
1.060542e-012
-4.007521e-012
-1.792211e-011
-2.299108e-011
-6.179861e-012
2.436557e-011
4.266635e-011
2.854534e-011
-1.034596e-011
-4.184745e-011
-3.798225e-011
-2.303080e-012
3.205739e-011
3.358595e-011
2.864536e-012
-2.821017e-011
-1.385160e-010
-3.082107e-011
8.661629e-011
1.167926e-010
4.882721e-011
-4.223727e-011
-7.303980e-011
-2.772050e-011
3.758809e-011
5.695797e-011
1.710424e-011
-3.813038e-011
-5.702608e-011
-2.863052e-011
1.472024e-011
3.536568e-011
2.541061e-011
6.097312e-012
-5.332261e-013
6.110695e-012
1.023619e-011
1.373312e-012
-1.341711e-011
-1.872940e-011
-8.746115e-012
6.391050e-012
1.136360e-011