# vtk DataFile Version 3.0
vtk output
ASCII
DATASET STRUCTURED_POINTS
DIMENSIONS 100 100 1
SPACING 1 1 1
ORIGIN 0 0 0
POINT_DATA 10000
SCALARS SFBox_profile double
LOOKUP_TABLE default 
0.000000e+000
0.000000e+000
0.000000e+000
0.000000e+000
0.000000e+000
0.000000e+000
0.000000e+000
0.000000e+000
0.000000e+000
0.000000e+000
0.000000e+000
0.000000e+000
0.000000e+000
0.000000e+000
0.000000e+000
0.000000e+000
0.000000e+000
0.000000e+000
0.000000e+000
0.000000e+000
0.000000e+000
0.000000e+000
0.000000e+000
0.000000e+000
0.000000e+000
0.000000e+000
0.000000e+000
0.000000e+000
0.000000e+000
0.000000e+000
0.000000e+000
0.000000e+000
0.000000e+000
0.000000e+000
0.000000e+000
0.000000e+000
0.000000e+000
0.000000e+000
0.000000e+000
0.000000e+000
0.000000e+000
0.000000e+000
0.000000e+000
0.000000e+000
0.000000e+000
0.000000e+000
0.000000e+000
0.000000e+000
0.000000e+000
0.000000e+000
0.000000e+000
0.000000e+000
0.000000e+000
0.000000e+000
0.000000e+000
0.000000e+000
0.000000e+000
0.000000e+000
0.000000e+000
0.000000e+000
0.000000e+000
0.000000e+000
0.000000e+000
0.000000e+000
0.000000e+000
0.000000e+000
0.000000e+000
0.000000e+000
0.000000e+000
0.000000e+000
0.000000e+000
0.000000e+000
0.000000e+000
0.000000e+000
0.000000e+000
0.000000e+000
0.000000e+000
0.000000e+000
0.000000e+000
0.000000e+000
0.000000e+000
0.000000e+000
0.000000e+000
0.000000e+000
0.000000e+000
0.000000e+000
0.000000e+000
0.000000e+000
0.000000e+000
0.000000e+000
0.000000e+000
0.000000e+000
0.000000e+000
0.000000e+000
0.000000e+000
0.000000e+000
0.000000e+000
0.000000e+000
0.000000e+000
0.000000e+000
-6.745864e-009
-1.683547e-009
3.673157e-009
5.107834e-009
2.528613e-009
-7.312564e-010
-1.736308e-009
-7.617853e-010
-2.939004e-010
-1.622608e-009
-3.045239e-009
-1.841352e-009
2.193359e-009
5.849376e-009
5.590015e-009
1.347302e-009
-3.283972e-009
-4.777195e-009
-3.144049e-009
-1.284696e-009
-1.233315e-009
-1.904880e-009
-9.068422e-010
2.109777e-009
4.852617e-009
5.165697e-009
3.513844e-009
2.082697e-009
1.899304e-009
1.795908e-009
3.488455e-010
-2.045221e-009
-3.723283e-009
-3.968426e-009
-3.772073e-009
-4.266860e-009
-5.182800e-009
-5.415859e-009
-4.689151e-009
-3.880526e-009
-3.701844e-009
-3.767967e-009
-3.332052e-009
-2.448275e-009
-1.830271e-009
-1.748871e-009
-1.700892e-009
-1.276736e-009
-8.043227e-010
-7.874591e-010
-1.087201e-009
-1.161279e-009
-9.574696e-010
-1.006524e-009
-1.545418e-009
-2.080481e-009
-2.136870e-009
-2.034318e-009
-2.409609e-009
-3.162232e-009
-3.497545e-009
-3.107923e-009
-2.698343e-009
-2.945225e-009
-3.387363e-009
-2.998596e-009
-1.717430e-009
-6.536733e-010
-5.346728e-010
-6.136024e-010
2.618073e-010
1.854912e-009
2.657442e-009
1.912296e-009
7.290999e-010
6.148042e-010
1.367081e-009
1.293569e-009
-4.214901e-010
-2.393953e-009
-2.636396e-009
-1.036976e-009
5.354865e-010
6.315527e-010
-3.091023e-011
2.599120e-010
1.691288e-009
2.408432e-009
7.962091e-010
-2.219539e-009
-3.768543e-009
-2.038673e-009
1.633842e-009
3.918470e-009
2.710152e-009
-8.605997e-010
-3.537435e-009
-2.967012e-009
2.297859e-010
3.121483e-009
-2.107955e-010
4.227252e-010
8.161613e-010
2.686330e-010
-9.440617e-010
-1.699545e-009
-1.062843e-009
7.036572e-010
2.203395e-009
2.129994e-009
5.168325e-010
-1.286417e-009
-1.943664e-009
-1.371228e-009
-5.515397e-010
-2.127861e-010
-3.694696e-012
8.288907e-010
2.164932e-009
2.861821e-009
2.042005e-009
2.194579e-010
-1.224580e-009
-1.609449e-009
-1.583197e-009
-2.042158e-009
-2.819609e-009
-2.896057e-009
-1.803938e-009
-2.912091e-010
6.385636e-010
9.588281e-010
1.458827e-009
2.507687e-009
3.518137e-009
3.802086e-009
3.521865e-009
3.392657e-009
3.648477e-009
3.791876e-009
3.412425e-009
2.800889e-009
2.485938e-009
2.465658e-009
2.293837e-009
1.818452e-009
1.405500e-009
1.345541e-009
1.414930e-009
1.270073e-009
1.014163e-009
1.022661e-009
1.319013e-009
1.518492e-009
1.444396e-009
1.424329e-009
1.762546e-009
2.211416e-009
2.312486e-009
2.112310e-009
2.114946e-009
2.486759e-009
2.733328e-009
2.404775e-009
1.795395e-009
1.538442e-009
1.647678e-009
1.452112e-009
5.873069e-010
-3.963515e-010
-7.487564e-010
-5.640386e-010
-6.296038e-010
-1.259033e-009
-1.774270e-009
-1.405538e-009
-3.652548e-010
4.041776e-010
4.543280e-010
3.326126e-010
6.967465e-010
1.296374e-009
1.237032e-009
1.852735e-010
-1.077472e-009
-1.470559e-009
-7.734711e-010
2.412275e-010
7.263668e-010
5.565150e-010
1.863380e-010
-1.894515e-011
-8.891429e-011
-1.727375e-010
-2.303056e-010
-1.270956e-010
8.877674e-011
1.883790e-010
5.946329e-011
-1.263183e-010
6.092055e-009
1.890322e-009
-2.714238e-009
-4.402295e-009
-3.020902e-009
-8.155162e-010
4.387465e-010
1.042987e-009
2.152082e-009
3.566502e-009
3.471110e-009
6.089449e-010
-3.696421e-009
-6.274303e-009
-5.051997e-009
-1.039904e-009
2.785466e-009
4.360482e-009
4.013015e-009
3.252322e-009
2.715207e-009
1.740163e-009
-2.885491e-010
-2.820113e-009
-4.625621e-009
-5.075864e-009
-4.553669e-009
-3.700667e-009
-2.669300e-009
-1.262336e-009
4.896751e-010
2.205412e-009
3.549500e-009
4.502327e-009
5.190648e-009
5.639385e-009
5.798526e-009
5.695557e-009
5.424943e-009
5.030747e-009
4.510876e-009
3.918047e-009
3.351025e-009
2.839401e-009
2.332508e-009
1.827217e-009
1.416426e-009
1.163485e-009
1.009210e-009
8.758852e-010
8.022968e-010
8.822782e-010
1.103200e-009
1.352664e-009
1.586376e-009
1.881008e-009
2.284077e-009
2.708691e-009
3.045124e-009
3.301084e-009
3.540416e-009
3.732224e-009
3.768526e-009
3.614101e-009
3.325587e-009
2.912115e-009
2.299495e-009
1.484490e-009
6.113540e-010
-1.926746e-010
-9.543978e-010
-1.692616e-009
-2.201992e-009
-2.212490e-009
-1.781728e-009
-1.296312e-009
-9.509542e-010
-4.319011e-010
6.113007e-010
1.856612e-009
2.422703e-009
1.832030e-009
6.034940e-010
-3.703542e-010
-8.667757e-010
-1.356675e-009
-1.950182e-009
-1.813193e-009
-1.383204e-010
2.374612e-009
3.587854e-009
1.957106e-009
-1.542557e-009
-3.918663e-009
-2.916271e-009
6.787710e-010
3.614259e-009
3.190940e-009
-1.743344e-010
-3.324295e-009
6.223983e-009
8.354594e-010
-4.333869e-009
-4.645843e-009
-7.487751e-010
2.732765e-009
2.360570e-009
-6.797569e-010
-2.357348e-009
-5.712664e-010
2.495759e-009
3.037299e-009
1.507175e-010
-3.054763e-009
-3.060373e-009
-3.646892e-012
2.570793e-009
1.898316e-009
-9.155158e-010
-2.472647e-009
-1.188098e-009
1.107902e-009
1.747276e-009
4.812817e-010
-5.850942e-010
8.300434e-011
1.606831e-009
2.081796e-009
1.054277e-009
-1.544211e-010
-3.761234e-010
-7.130089e-012
-1.931765e-010
-1.188268e-009
-2.138353e-009
-2.341339e-009
-2.103331e-009
-2.142997e-009
-2.573565e-009
-2.873956e-009
-2.709670e-009
-2.357314e-009
-2.232274e-009
-2.314106e-009
-2.270091e-009
-1.989631e-009
-1.718174e-009
-1.660558e-009
-1.695403e-009
-1.604799e-009
-1.426069e-009
-1.381114e-009
-1.511468e-009
-1.600833e-009
-1.516550e-009
-1.434891e-009
-1.568408e-009
-1.794162e-009
-1.792184e-009
-1.542153e-009
-1.408643e-009
-1.599812e-009
-1.782823e-009
-1.520408e-009
-9.662880e-010
-7.336660e-010
-9.981782e-010
-1.141545e-009
-6.007914e-010
2.203928e-010
4.092349e-010
-1.199438e-010
-3.518693e-010
4.436308e-010
1.522653e-009
1.499489e-009
2.469314e-010
-7.768143e-010
-4.093938e-010
6.085488e-010
5.966124e-010
-7.064325e-010
-1.615302e-009
-6.912169e-010
1.175030e-009
1.670681e-009
-1.095939e-011
-1.940233e-009
-1.634285e-009
8.949677e-010
2.935531e-009
2.058429e-009
-1.108967e-009
-3.438890e-009
-2.541155e-009
8.002691e-010
3.431478e-009
2.898334e-009
-2.822842e-010
-3.185366e-009
1.098514e-009
-1.273442e-009
-2.868835e-009
-1.216471e-009
2.703883e-009
5.147706e-009
3.241482e-009
-1.927486e-009
-6.013346e-009
-5.476926e-009
-9.803212e-010
3.448038e-009
4.578226e-009
2.909907e-009
1.264022e-009
1.019639e-009
6.806353e-010
-1.594931e-009
-4.942311e-009
-6.324499e-009
-4.104827e-009
-1.033490e-010
2.521309e-009
2.858055e-009
2.780752e-009
3.994791e-009
5.645594e-009
5.550349e-009
3.176035e-009
3.207906e-010
-1.230012e-009
-1.765388e-009
-2.790194e-009
-4.720497e-009
-6.361905e-009
-6.655591e-009
-6.069867e-009
-5.792138e-009
-6.076901e-009
-6.095983e-009
-5.295659e-009
-4.188584e-009
-3.549079e-009
-3.341817e-009
-2.933172e-009
-2.128488e-009
-1.438885e-009
-1.267038e-009
-1.325316e-009
-1.146588e-009
-8.352149e-010
-8.799055e-010
-1.348161e-009
-1.751688e-009
-1.812680e-009
-1.919976e-009
-2.510016e-009
-3.305505e-009
-3.649472e-009
-3.501454e-009
-3.542606e-009
-4.114369e-009
-4.569926e-009
-4.138807e-009
-3.113071e-009
-2.509597e-009
-2.558505e-009
-2.258433e-009
-8.284040e-010
9.715057e-010
1.704660e-009
1.240926e-009
9.941890e-010
1.906956e-009
2.977725e-009
2.533317e-009
5.883965e-010
-1.030835e-009
-1.076887e-009
-5.002696e-010
-9.959932e-010
-2.433765e-009
-2.761556e-009
-6.752664e-010
2.410300e-009
3.716444e-009
2.155494e-009
-6.000809e-010
-2.110729e-009
-1.638035e-009
-3.491583e-010
4.296652e-010
5.034174e-010
3.997908e-010
3.514770e-010
1.509002e-010
-2.282771e-010
-4.083935e-010
-1.479570e-010
2.306945e-010
-3.759719e-009
-1.549622e-009
9.009148e-010
2.132989e-009
2.319566e-009
2.178783e-009
1.526088e-009
-3.443254e-010
-2.974738e-009
-4.344181e-009
-2.816787e-009
7.517844e-010
3.541109e-009
3.590425e-009
1.644402e-009
-1.045588e-010
-6.366023e-010
-7.893622e-010
-1.464301e-009
-2.104814e-009
-1.578179e-009
-5.017866e-011
9.846367e-010
6.586292e-010
-1.120426e-010
3.291728e-011
9.425159e-010
1.178162e-009
1.044424e-010
-1.140809e-009
-1.177297e-009
-2.273814e-010
3.101234e-010
-1.351454e-010
-6.000844e-010
-8.246489e-011
1.018119e-009
1.544479e-009
1.246509e-009
1.025354e-009
1.526474e-009
2.235102e-009
2.331672e-009
1.912955e-009
1.762816e-009
2.130822e-009
2.413514e-009
2.150422e-009
1.734706e-009
1.760977e-009
2.081687e-009
2.062535e-009
1.613912e-009
1.348334e-009
1.596212e-009
1.839287e-009
1.501828e-009
8.905224e-010
7.671865e-010
1.149219e-009
1.216990e-009
5.670186e-010
-8.545266e-011
7.813730e-011
7.099246e-010
7.486235e-010
2.210657e-011
-4.052880e-010
2.277765e-010
1.174400e-009
1.151520e-009
1.506514e-010
-5.466802e-010
-1.986397e-010
3.733437e-010
4.695223e-011
-9.100894e-010
-1.191266e-009
-3.350449e-010
5.739023e-010
3.761622e-010
-6.058165e-010
-1.042294e-009
-3.272892e-010
8.045584e-010
1.369381e-009
1.192329e-009
6.065539e-010
-3.125956e-010
-1.534724e-009
-2.293195e-009
-1.406170e-009
1.123256e-009
3.299577e-009
2.767692e-009
-4.896205e-010
-3.578485e-009
-3.388067e-009
9.438089e-011
3.527660e-009
-4.862483e-009
4.413790e-010
4.707250e-009
3.323034e-009
-1.757057e-009
-4.665451e-009
-2.308976e-009
2.496253e-009
4.590849e-009
2.240756e-009
-1.489453e-009
-2.819641e-009
-1.511506e-009
-3.501060e-010
-1.080729e-009
-2.203374e-009
-1.214105e-009
1.926469e-009
4.607197e-009
4.651005e-009
2.562275e-009
3.585813e-010
-9.865253e-010
-2.092998e-009
-3.538937e-009
-4.755857e-009
-4.893260e-009
-4.040072e-009
-2.931010e-009
-1.792677e-009
-2.171955e-010
1.843263e-009
3.674817e-009
4.696852e-009
5.239050e-009
5.950190e-009
6.749056e-009
6.953839e-009
6.379328e-009
5.680921e-009
5.409001e-009
5.244766e-009
4.586803e-009
3.548707e-009
2.815683e-009
2.614852e-009
2.423669e-009
1.849384e-009
1.270155e-009
1.232171e-009
1.578966e-009
1.704511e-009
1.524056e-009
1.606483e-009
2.243386e-009
2.936435e-009
3.141758e-009
3.108429e-009
3.465072e-009
4.177874e-009
4.529620e-009
4.191130e-009
3.720474e-009
3.684945e-009
3.753978e-009
3.186513e-009
1.981481e-009
9.235524e-010
4.596975e-010
1.323717e-010
-6.032140e-010
-1.498271e-009
-1.921678e-009
-1.842769e-009
-1.792257e-009
-1.895081e-009
-1.586492e-009
-5.244986e-010
7.478947e-010
1.484409e-009
1.694273e-009
1.816841e-009
1.643389e-009
4.181299e-010
-1.684254e-009
-2.943679e-009
-1.812571e-009
9.019682e-010
2.458315e-009
1.198558e-009
-1.371223e-009
-2.167936e-009
-1.106518e-010
2.513852e-009
2.578108e-009
-3.179449e-010
-3.269367e-009
-3.122452e-009
1.604885e-010
3.394110e-009
-3.223753e-009
2.013075e-009
5.758512e-009
2.978784e-009
-4.120570e-009
-8.341248e-009
-5.046049e-009
2.947230e-009
8.270748e-009
6.526892e-009
3.337478e-010
-4.186072e-009
-4.078280e-009
-1.786768e-009
-1.032438e-009
-2.007110e-009
-1.790229e-009
1.127084e-009
4.446911e-009
4.856597e-009
2.137462e-009
-7.616620e-010
-1.478606e-009
-7.529993e-010
-7.592835e-010
-1.997230e-009
-2.916207e-009
-2.275377e-009
-7.018594e-010
4.132892e-010
7.086451e-010
8.731385e-010
1.332419e-009
1.718836e-009
1.631076e-009
1.242782e-009
9.008495e-010
5.788641e-010
8.437075e-011
-4.797714e-010
-8.555360e-010
-1.086304e-009
-1.441535e-009
-1.917139e-009
-2.191163e-009
-2.150265e-009
-2.103787e-009
-2.292759e-009
-2.488746e-009
-2.362006e-009
-2.032658e-009
-1.894266e-009
-1.981584e-009
-1.911576e-009
-1.500726e-009
-1.058064e-009
-8.831200e-010
-7.943538e-010
-4.515266e-010
7.200907e-011
4.051314e-010
4.675870e-010
5.459395e-010
7.568935e-010
8.308495e-010
5.792283e-010
2.161996e-010
-4.058608e-011
-3.651092e-010
-9.282609e-010
-1.347390e-009
-1.081150e-009
-3.418139e-010
6.248122e-012
-3.241992e-010
-5.190768e-010
1.322549e-010
9.868100e-010
8.318653e-010
-1.892636e-010
-4.471742e-010
8.933322e-010
2.262613e-009
1.368064e-009
-1.671581e-009
-3.929244e-009
-2.884882e-009
5.989408e-010
3.202127e-009
2.780180e-009
3.604735e-010
-1.485806e-009
-1.484030e-009
-4.275920e-010
3.397510e-010
3.972219e-010
1.640279e-010
2.472874e-011
-1.104476e-011
-2.979641e-011
-8.294908e-010
8.959094e-010
2.396630e-009
1.689810e-009
-1.246664e-009
-3.929349e-009
-3.484809e-009
1.594038e-010
3.639140e-009
3.491200e-009
7.580472e-011
-2.672172e-009
-1.751916e-009
1.425754e-009
2.889169e-009
9.788459e-010
-1.889759e-009
-2.617835e-009
-1.310701e-009
-5.969483e-010
-1.644939e-009
-2.507432e-009
-9.615460e-010
2.264335e-009
4.343330e-009
3.958360e-009
2.678409e-009
2.481835e-009
3.104097e-009
2.730547e-009
6.743446e-010
-1.787550e-009
-3.247857e-009
-3.828851e-009
-4.549453e-009
-5.711196e-009
-6.637726e-009
-6.788171e-009
-6.430446e-009
-6.096900e-009
-5.874762e-009
-5.506882e-009
-4.899016e-009
-4.219394e-009
-3.618262e-009
-3.102935e-009
-2.659332e-009
-2.310545e-009
-2.052840e-009
-1.866786e-009
-1.791182e-009
-1.877634e-009
-2.085582e-009
-2.330240e-009
-2.610722e-009
-2.965516e-009
-3.327578e-009
-3.584224e-009
-3.771738e-009
-4.006624e-009
-4.193364e-009
-4.059075e-009
-3.596981e-009
-3.184678e-009
-3.009714e-009
-2.655540e-009
-1.695185e-009
-5.401702e-010
-8.392756e-011
-3.877645e-010
-3.847380e-010
6.615010e-010
1.945735e-009
2.127846e-009
1.294481e-009
9.157407e-010
1.609395e-009
1.954202e-009
3.825088e-010
-2.303109e-009
-3.483388e-009
-1.910657e-009
6.723484e-010
1.662276e-009
6.251370e-010
-6.354620e-010
-6.440456e-010
1.917598e-010
7.303929e-010
7.384675e-010
6.422468e-010
3.067782e-010
-7.785695e-010
-2.070624e-009
-1.886729e-009
4.676720e-010
3.076300e-009
3.034555e-009
-1.063866e-010
-3.350399e-009
2.379117e-009
-1.657642e-009
-3.971496e-009
-1.162121e-009
3.712732e-009
5.111858e-009
1.607122e-009
-2.956686e-009
-4.438217e-009
-2.783422e-009
-7.665877e-010
2.172950e-010
1.319741e-009
3.359434e-009
4.683907e-009
3.137724e-009
-7.012035e-010
-3.793720e-009
-4.188358e-009
-2.985319e-009
-2.219087e-009
-1.949962e-009
-6.872428e-010
1.817629e-009
3.760395e-009
3.666073e-009
2.382759e-009
1.762473e-009
2.032892e-009
1.679607e-009
-1.420311e-010
-2.266462e-009
-3.088630e-009
-2.640066e-009
-2.270726e-009
-2.647480e-009
-3.000446e-009
-2.443630e-009
-1.247808e-009
-3.447824e-010
-2.982973e-011
2.534066e-010
9.611401e-010
1.826275e-009
2.328790e-009
2.419345e-009
2.487611e-009
2.758280e-009
3.013831e-009
2.959617e-009
2.655466e-009
2.416455e-009
2.346450e-009
2.175402e-009
1.659255e-009
9.873648e-010
5.577057e-010
3.755727e-010
-7.752836e-012
-7.994027e-010
-1.513701e-009
-1.582162e-009
-1.236654e-009
-1.244140e-009
-1.696710e-009
-1.685057e-009
-5.832696e-010
8.400819e-010
1.299938e-009
7.745587e-010
5.334438e-010
1.213896e-009
1.776163e-009
1.039416e-009
-3.872237e-010
-7.598553e-010
3.282878e-010
1.233248e-009
4.365694e-010
-1.429792e-009
-2.484423e-009
-1.961088e-009
-7.074689e-010
4.343127e-010
1.527324e-009
2.463397e-009
2.164594e-009
-4.275166e-012
-2.508404e-009
-2.740259e-009
-2.453005e-010
2.203243e-009
1.692659e-009
-1.137956e-009
-2.645319e-009
-6.335689e-010
2.737601e-009
3.363533e-009
1.567554e-010
-3.464304e-009
6.315351e-009
-2.416210e-009
-8.741687e-009
-4.917095e-009
4.933719e-009
1.010220e-008
5.426051e-009
-3.645480e-009
-7.963028e-009
-4.693216e-009
9.575466e-010
2.977529e-009
1.122088e-009
-5.332846e-010
2.877381e-010
1.680948e-009
1.161124e-009
-6.094865e-010
-1.068010e-009
4.058174e-010
1.722240e-009
1.132182e-009
-5.585815e-010
-1.529880e-009
-1.536711e-009
-1.760078e-009
-2.607349e-009
-3.048463e-009
-2.320357e-009
-1.125576e-009
-4.698135e-010
-8.141670e-011
1.084889e-009
3.096809e-009
4.785723e-009
5.356948e-009
5.417692e-009
5.950654e-009
6.856622e-009
7.193989e-009
6.621022e-009
5.865044e-009
5.637277e-009
5.682252e-009
5.293806e-009
4.419953e-009
3.728644e-009
3.628710e-009
3.728055e-009
3.480497e-009
3.019489e-009
2.948020e-009
3.412378e-009
3.847594e-009
3.798581e-009
3.603854e-009
3.874591e-009
4.496633e-009
4.692473e-009
4.154237e-009
3.559109e-009
3.578003e-009
3.794731e-009
3.253994e-009
1.947080e-009
9.826976e-010
1.051332e-009
1.430182e-009
1.075427e-009
1.833701e-010
-1.809381e-010
1.641911e-010
1.270075e-010
-9.995048e-010
-2.340370e-009
-2.551461e-009
-1.563460e-009
-3.945166e-010
4.287395e-010
1.209236e-009
1.811285e-009
1.292468e-009
-4.712291e-010
-1.720246e-009
-6.610365e-010
1.815834e-009
2.623432e-009
2.256115e-010
-3.076877e-009
-3.598491e-009
-6.321781e-010
2.689327e-009
3.043671e-009
5.531490e-010
-1.776319e-009
-1.693105e-009
5.999500e-011
1.145569e-009
5.204907e-010
-6.223963e-010
7.608853e-009
-3.890128e-010
-7.318357e-009
-6.095033e-009
1.243407e-009
6.386169e-009
4.121824e-009
-2.148452e-009
-4.775721e-009
-9.028621e-010
4.407509e-009
4.480701e-009
-1.019099e-009
-6.041942e-009
-5.575554e-009
-1.063446e-009
2.410720e-009
2.632054e-009
1.915074e-009
2.720186e-009
4.015501e-009
3.172525e-009
1.584458e-011
-2.880909e-009
-3.646528e-009
-3.142903e-009
-3.079522e-009
-3.469952e-009
-3.032780e-009
-1.380963e-009
4.754664e-010
1.720281e-009
2.680839e-009
3.838111e-009
4.783571e-009
4.844279e-009
4.231733e-009
3.773358e-009
3.660402e-009
3.226964e-009
2.095211e-009
8.612380e-010
2.512160e-010
7.328083e-011
-4.221563e-010
-1.351486e-009
-2.005373e-009
-1.926782e-009
-1.599428e-009
-1.703398e-009
-2.080153e-009
-1.983939e-009
-1.237007e-009
-5.230531e-010
-3.548382e-010
-2.879202e-010
3.880442e-010
1.508361e-009
2.210135e-009
2.202316e-009
2.182725e-009
2.718587e-009
3.295149e-009
3.030127e-009
1.981125e-009
1.032151e-009
5.673720e-010
4.522723e-011
-8.861072e-010
-1.607649e-009
-1.425900e-009
-7.144679e-010
-3.999127e-010
-5.945244e-010
-6.255469e-010
-3.773416e-010
-5.399401e-010
-1.118972e-009
-7.683814e-010
1.352083e-009
3.649188e-009
3.434775e-009
3.633451e-010
-2.693333e-009
-2.896376e-009
-7.156315e-010
9.834470e-010
5.981964e-010
-6.715538e-010
-9.313600e-010
1.122350e-011
9.702053e-010
1.193194e-009
8.518422e-010
1.411766e-010
-9.572101e-010
-1.881342e-009
-1.510152e-009
3.675719e-010
2.217074e-009
2.241882e-009
1.940340e-009
4.409349e-010
-1.830346e-009
-2.990532e-009
-2.179990e-009
-7.216208e-010
3.127383e-011
7.757543e-010
2.708008e-009
4.560279e-009
3.315847e-009
-1.467158e-009
-5.803287e-009
-5.406768e-009
-9.425887e-010
2.673618e-009
2.262536e-009
-1.709432e-010
-8.060208e-010
8.230782e-010
1.859948e-009
6.618910e-010
-9.415369e-010
-5.575815e-010
1.341398e-009
2.346269e-009
1.597964e-009
6.540828e-010
8.996530e-010
1.627773e-009
1.354871e-009
-2.172888e-011
-1.385094e-009
-2.170942e-009
-2.884953e-009
-3.912559e-009
-4.807086e-009
-5.098846e-009
-5.082703e-009
-5.260521e-009
-5.463573e-009
-5.162656e-009
-4.429334e-009
-3.917916e-009
-3.864988e-009
-3.736636e-009
-3.122302e-009
-2.453073e-009
-2.375407e-009
-2.750462e-009
-2.866577e-009
-2.546736e-009
-2.408994e-009
-2.862205e-009
-3.418607e-009
-3.413400e-009
-2.998388e-009
-2.844266e-009
-3.042913e-009
-2.967657e-009
-2.291979e-009
-1.502478e-009
-1.103339e-009
-8.790203e-010
-4.516919e-010
-1.263294e-010
-4.576952e-010
-1.172690e-009
-1.356962e-009
-7.926727e-010
-2.448869e-010
-7.000881e-011
5.377055e-010
2.089684e-009
3.298092e-009
2.345883e-009
-3.836514e-010
-2.201642e-009
-1.321539e-009
8.648923e-010
1.640581e-009
3.594269e-010
-1.217040e-009
-1.614996e-009
-1.183754e-009
-6.734659e-010
1.830811e-010
1.591933e-009
2.277733e-009
8.325032e-010
-1.707521e-009
-2.400421e-009
-2.028092e-010
2.162461e-009
1.495672e-009
-1.480589e-009
-2.791787e-009
-4.464460e-010
2.744852e-009
-7.919233e-009
2.006542e-009
9.155992e-009
5.410185e-009
-3.992348e-009
-8.219288e-009
-3.882936e-009
2.614334e-009
4.305695e-009
1.425660e-009
-1.077013e-009
-7.646586e-010
4.489746e-010
6.167980e-010
5.754454e-010
1.472128e-009
1.944664e-009
-2.749809e-011
-3.477567e-009
-5.020570e-009
-3.210291e-009
-3.517243e-010
8.415370e-010
7.673993e-010
1.661550e-009
3.837664e-009
5.161563e-009
4.255588e-009
2.406265e-009
1.491741e-009
1.324187e-009
3.157300e-010
-1.886733e-009
-3.853181e-009
-4.433863e-009
-4.129030e-009
-3.965530e-009
-3.955708e-009
-3.416758e-009
-2.258673e-009
-1.089579e-009
-2.114952e-010
6.997008e-010
1.826181e-009
2.792365e-009
3.292074e-009
3.606300e-009
4.093833e-009
4.539028e-009
4.491681e-009
4.034927e-009
3.674278e-009
3.515278e-009
3.102903e-009
2.197171e-009
1.193702e-009
4.970501e-010
-8.454001e-011
-9.062699e-010
-1.783406e-009
-2.250670e-009
-2.327318e-009
-2.398051e-009
-2.367573e-009
-1.660296e-009
-2.850519e-010
8.228900e-010
1.022363e-009
9.097031e-010
1.292343e-009
1.699921e-009
1.025388e-009
-4.097577e-010
-7.350171e-010
9.319685e-010
2.876194e-009
2.750109e-009
5.410003e-010
-1.614268e-009
-2.283032e-009
-2.000778e-009
-1.539619e-009
-5.379701e-010
1.156704e-009
2.076235e-009
8.083111e-010
-1.351432e-009
-1.401532e-009
1.193624e-009
3.084825e-009
1.183297e-009
-2.842654e-009
-4.183468e-009
-9.951070e-010
3.042242e-009
3.299572e-009
-1.668397e-011
-2.426917e-009
-1.170818e-009
1.405761e-009
-1.413962e-008
4.435847e-010
1.208848e-008
8.936357e-009
-2.788520e-009
-8.347797e-009
-2.583789e-009
5.459880e-009
5.223830e-009
-2.492705e-009
-7.860358e-009
-4.795292e-009
2.570748e-009
6.423607e-009
4.637734e-009
1.252866e-009
-2.758158e-010
-7.266465e-010
-1.908307e-009
-3.047376e-009
-2.308118e-009
-2.041388e-010
8.923824e-010
2.374654e-010
-4.032810e-010
3.079846e-010
1.282584e-009
9.135640e-010
-3.557797e-010
-7.943217e-010
-3.164477e-011
6.171338e-010
4.330643e-010
4.435290e-010
1.758215e-009
3.846692e-009
5.347802e-009
5.952719e-009
6.504994e-009
7.480948e-009
8.342257e-009
8.522138e-009
8.255690e-009
8.060060e-009
7.947071e-009
7.621118e-009
7.111357e-009
6.717315e-009
6.500885e-009
6.280678e-009
6.055957e-009
6.019749e-009
6.154744e-009
6.209858e-009
6.127108e-009
6.101140e-009
6.115431e-009
5.841834e-009
5.200406e-009
4.581451e-009
4.177055e-009
3.526128e-009
2.262832e-009
9.900224e-010
6.618009e-010
1.190854e-009
1.528616e-009
1.298465e-009
1.390222e-009
2.342283e-009
2.997056e-009
1.848153e-009
-6.643369e-010
-2.426794e-009
-2.267441e-009
-1.125393e-009
-2.889561e-010
2.516764e-010
8.425223e-010
7.412452e-010
-7.613053e-010
-2.298563e-009
-1.457582e-009
1.685416e-009
3.775009e-009
2.166034e-009
-1.402183e-009
-2.790817e-009
-7.436089e-010
1.635216e-009
1.139388e-009
-1.395060e-009
-2.469180e-009
-6.092286e-010
1.933701e-009
2.295795e-009
4.816986e-010
-1.096690e-009
-8.902701e-010
1.047682e-010
-9.159071e-009
-2.839677e-010
6.806817e-009
4.873601e-009
-2.035760e-009
-4.407749e-009
7.345420e-010
6.305520e-009
4.321683e-009
-3.762494e-009
-8.626023e-009
-4.612964e-009
3.414674e-009
6.397047e-009
2.080699e-009
-3.237307e-009
-3.393775e-009
5.819634e-010
3.406001e-009
2.854849e-009
1.316444e-009
1.042565e-009
1.069122e-009
-3.181924e-010
-2.437231e-009
-3.314402e-009
-2.714882e-009
-2.152641e-009
-2.250055e-009
-1.868650e-009
-1.384995e-010
2.129721e-009
3.779949e-009
4.969810e-009
6.501651e-009
8.156754e-009
8.833397e-009
8.176604e-009
7.046072e-009
6.193084e-009
5.306593e-009
3.765816e-009
1.718760e-009
-1.354826e-010
-1.493273e-009
-2.629337e-009
-3.767460e-009
-4.739618e-009
-5.285615e-009
-5.346894e-009
-5.006091e-009
-4.376323e-009
-3.576047e-009
-2.612901e-009
-1.327636e-009
3.061093e-010
1.899260e-009
3.016879e-009
3.804612e-009
4.769674e-009
5.824502e-009
6.122297e-009
5.207555e-009
3.798956e-009
2.830175e-009
2.130508e-009
9.120954e-010
-6.022811e-010
-1.114295e-009
-1.121506e-010
1.173872e-009
1.311056e-009
3.834299e-010
-6.424817e-010
-1.535390e-009
-2.526570e-009
-2.817951e-009
-1.083328e-009
2.086916e-009
3.826560e-009
2.289316e-009
-6.761679e-010
-1.639955e-009
6.134898e-011
1.708714e-009
1.025613e-009
-1.025622e-009
-2.016734e-009
-1.276026e-009
-7.596311e-011
5.841268e-010
8.562137e-010
9.013959e-010
3.783400e-010
-5.433823e-010
-8.651116e-010
-1.587444e-010
5.863494e-010
3.434109e-010
-3.881601e-010
4.090208e-009
2.439895e-010
-3.094875e-009
-3.161151e-009
-1.088790e-009
8.799128e-010
2.043946e-009
2.367215e-009
1.237676e-009
-1.059160e-009
-2.100922e-009
-4.805346e-011
2.830477e-009
2.063664e-009
-2.859255e-009
-6.668477e-009
-4.467920e-009
1.889418e-009
5.972219e-009
4.650725e-009
1.145228e-009
-1.459546e-010
8.303479e-010
1.105666e-009
-3.405671e-010
-1.521034e-009
-9.245598e-010
3.954790e-010
8.977740e-010
9.144231e-010
1.689631e-009
3.127530e-009
3.911174e-009
3.445502e-009
2.388471e-009
1.250496e-009
-3.920080e-010
-2.928085e-009
-5.835704e-009
-8.366070e-009
-1.057282e-008
-1.303165e-008
-1.580737e-008
-1.830197e-008
-2.008166e-008
-2.135437e-008
-2.251481e-008
-2.355904e-008
-2.413052e-008
-2.397472e-008
-2.320275e-008
-2.214786e-008
-2.099162e-008
-1.952762e-008
-1.740882e-008
-1.470772e-008
-1.201750e-008
-9.757005e-009
-7.589834e-009
-4.958969e-009
-2.091233e-009
1.083167e-010
1.252834e-009
1.911595e-009
2.521889e-009
2.532389e-009
1.307179e-009
-5.700971e-010
-1.771126e-009
-1.816659e-009
-1.267966e-009
-3.924611e-010
1.140843e-009
2.833044e-009
2.959355e-009
7.644989e-010
-1.771068e-009
-1.875790e-009
4.947269e-010
2.549454e-009
2.245936e-009
5.071085e-010
-7.104296e-010
-1.046033e-009
-1.222118e-009
-1.114058e-009
-1.552169e-010
8.510826e-010
4.011485e-010
-1.002871e-009
-8.984327e-010
1.397039e-009
2.970534e-009
1.081594e-009
-2.486152e-009
-3.329087e-009
-4.651994e-010
2.211251e-009
1.434011e-009
-9.206522e-010
1.455933e-008
-1.572265e-010
-1.133753e-008
-7.826569e-009
2.715747e-009
6.317400e-009
4.762824e-010
-5.306190e-009
-3.592161e-009
2.555541e-009
5.765211e-009
3.874384e-009
2.743505e-010
-2.149479e-009
-3.355232e-009
-3.385815e-009
-1.345773e-009
1.891323e-009
3.027617e-009
4.238745e-010
-2.977587e-009
-3.042010e-009
2.288872e-010
3.035985e-009
3.095550e-009
2.179701e-009
2.792257e-009
4.510137e-009
5.139630e-009
4.128685e-009
2.893687e-009
2.182140e-009
9.441124e-010
-1.841936e-009
-5.614418e-009
-9.220761e-009
-1.254462e-008
-1.627833e-008
-2.059480e-008
-2.494895e-008
-2.905980e-008
-3.329261e-008
-3.790378e-008
-4.247245e-008
-4.638288e-008
-4.953170e-008
-5.222047e-008
-5.449394e-008
-5.590725e-008
-5.600517e-008
-5.484856e-008
-5.291097e-008
-5.047414e-008
-4.730419e-008
-4.309167e-008
-3.811406e-008
-3.314071e-008
-2.858872e-008
-2.412468e-008
-1.937137e-008
-1.466599e-008
-1.062922e-008
-7.205285e-009
-3.818275e-009
-5.079271e-010
1.851182e-009
2.747835e-009
2.712133e-009
2.313496e-009
1.285559e-009
-4.417857e-010
-1.483742e-009
-2.175355e-010
2.706743e-009
4.501611e-009
3.463867e-009
9.123803e-010
-8.440504e-010
-1.305207e-009
-1.351037e-009
-1.080239e-009
8.657873e-012
1.048420e-009
3.080692e-010
-1.750613e-009
-2.117899e-009
5.719319e-010
3.259571e-009
2.199407e-009
-1.463181e-009
-2.784497e-009
2.933978e-011
2.812195e-009
1.315185e-009
-2.519074e-009
-3.206279e-009
3.389173e-010
3.164083e-009
1.436016e-009
-2.046220e-009
1.430301e-008
-2.540096e-009
-1.349522e-008
-5.844557e-009
8.356899e-009
1.013816e-008
-1.738872e-009
-1.114423e-008
-6.726831e-009
4.628065e-009
8.794896e-009
2.618214e-009
-4.426901e-009
-4.142137e-009
1.203315e-009
4.471285e-009
3.209465e-009
3.176304e-010
-1.767228e-009
-3.258739e-009
-4.112217e-009
-2.880854e-009
4.447674e-010
3.176304e-009
3.234205e-009
2.040742e-009