# vtk DataFile Version 3.0
vtk output
ASCII
DATASET STRUCTURED_POINTS
DIMENSIONS 100 100 1
SPACING 1 1 1
ORIGIN 0 0 0
POINT_DATA 10000
SCALARS SFBox_profile double
LOOKUP_TABLE default 
0.000000e+000
0.000000e+000
0.000000e+000
0.000000e+000
0.000000e+000
0.000000e+000
0.000000e+000
0.000000e+000
0.000000e+000
0.000000e+000
0.000000e+000
0.000000e+000
0.000000e+000
0.000000e+000
0.000000e+000
0.000000e+000
0.000000e+000
0.000000e+000
0.000000e+000
0.000000e+000
0.000000e+000
0.000000e+000
0.000000e+000
0.000000e+000
0.000000e+000
0.000000e+000
0.000000e+000
0.000000e+000
0.000000e+000
0.000000e+000
0.000000e+000
0.000000e+000
0.000000e+000
0.000000e+000
0.000000e+000
0.000000e+000
0.000000e+000
0.000000e+000
0.000000e+000
0.000000e+000
0.000000e+000
0.000000e+000
0.000000e+000
0.000000e+000
0.000000e+000
0.000000e+000
0.000000e+000
0.000000e+000
0.000000e+000
0.000000e+000
0.000000e+000
0.000000e+000
0.000000e+000
0.000000e+000
0.000000e+000
0.000000e+000
0.000000e+000
0.000000e+000
0.000000e+000
0.000000e+000
0.000000e+000
0.000000e+000
0.000000e+000
0.000000e+000
0.000000e+000
0.000000e+000
0.000000e+000
0.000000e+000
0.000000e+000
0.000000e+000
0.000000e+000
0.000000e+000
0.000000e+000
0.000000e+000
0.000000e+000
0.000000e+000
0.000000e+000
0.000000e+000
0.000000e+000
0.000000e+000
0.000000e+000
0.000000e+000
0.000000e+000
0.000000e+000
0.000000e+000
0.000000e+000
0.000000e+000
0.000000e+000
0.000000e+000
0.000000e+000
0.000000e+000
0.000000e+000
0.000000e+000
0.000000e+000
0.000000e+000
0.000000e+000
0.000000e+000
0.000000e+000
0.000000e+000
0.000000e+000
1.558397e-008
5.195861e-009
-6.957729e-009
-1.246211e-008
-8.978454e-009
-7.839624e-010
5.699670e-009
7.105332e-009
4.720163e-009
1.837114e-009
9.523975e-011
-1.468951e-009
-4.129492e-009
-6.919529e-009
-6.973651e-009
-2.595951e-009
4.316192e-009
9.374610e-009
9.456627e-009
5.317143e-009
4.405775e-010
-2.468736e-009
-3.578886e-009
-4.670495e-009
-6.415438e-009
-7.479475e-009
-6.280264e-009
-3.044114e-009
3.421185e-010
2.361328e-009
3.254887e-009
4.247323e-009
5.803442e-009
7.114662e-009
7.256001e-009
6.371365e-009
5.418736e-009
4.968286e-009
4.656591e-009
3.874204e-009
2.643996e-009
1.551460e-009
9.528731e-010
5.864550e-010
3.845925e-011
-6.664934e-010
-1.156091e-009
-1.272695e-009
-1.272805e-009
-1.414189e-009
-1.571687e-009
-1.445698e-009
-1.036370e-009
-6.620510e-010
-4.775092e-010
-2.098585e-010
4.561553e-010
1.373451e-009
2.076039e-009
2.432692e-009
2.876913e-009
3.799041e-009
4.892575e-009
5.424688e-009
5.164612e-009
4.701972e-009
4.613165e-009
4.538521e-009
3.504076e-009
1.217259e-009
-1.344572e-009
-2.944686e-009
-3.481669e-009
-3.921207e-009
-4.759346e-009
-5.023286e-009
-3.287585e-009
3.770537e-010
3.959067e-009
5.304751e-009
4.165189e-009
2.136180e-009
6.557645e-010
-4.565002e-010
-2.168038e-009
-4.250439e-009
-4.801344e-009
-2.190080e-009
2.629116e-009
6.214885e-009
5.482126e-009
6.569226e-010
-4.598217e-009
-6.166132e-009
-2.921454e-009
2.379675e-009
5.447603e-009
3.960583e-009
-6.699798e-010
-4.572423e-009
9.306474e-010
-2.585440e-010
-1.272495e-009
-9.328172e-010
6.337898e-010
2.027605e-009
1.783180e-009
-2.426206e-010
-2.559973e-009
-3.214302e-009
-1.485403e-009
1.426990e-009
3.417375e-009
3.264512e-009
1.503036e-009
-3.843514e-010
-1.489416e-009
-2.075174e-009
-2.737258e-009
-3.286197e-009
-2.783836e-009
-7.244801e-010
2.090487e-009
4.120323e-009
4.512284e-009
3.766830e-009
2.932140e-009
2.362366e-009
1.512880e-009
-1.084541e-010
-2.125610e-009
-3.635526e-009
-4.211317e-009
-4.280837e-009
-4.469034e-009
-4.814453e-009
-4.836739e-009
-4.262677e-009
-3.408007e-009
-2.762775e-009
-2.401634e-009
-1.997766e-009
-1.346164e-009
-6.462856e-010
-2.002054e-010
-4.443025e-012
1.943244e-010
5.059695e-010
7.518979e-010
7.544662e-010
6.083395e-010
5.295599e-010
5.178761e-010
3.492579e-010
-7.755881e-011
-5.594606e-010
-8.689583e-010
-1.102994e-009
-1.564578e-009
-2.302281e-009
-2.968461e-009
-3.250515e-009
-3.297998e-009
-3.507905e-009
-3.908096e-009
-3.999203e-009
-3.347498e-009
-2.172779e-009
-1.107691e-009
-3.993963e-010
3.718102e-010
1.620519e-009
2.990047e-009
3.558749e-009
2.852744e-009
1.414536e-009
1.954551e-010
-4.716657e-010
-1.031462e-009
-1.835386e-009
-2.418801e-009
-1.931006e-009
-2.527131e-010
1.580066e-009
2.246758e-009
1.393859e-009
-8.205243e-011
-9.677691e-010
-8.341519e-010
-2.081920e-010
1.728477e-010
9.861072e-011
-1.025549e-010
-9.002494e-011
1.152577e-010
2.575031e-010
1.930234e-010
1.396930e-011
-1.221475e-010
-1.703532e-010
-1.410632e-008
-5.253167e-009
5.411840e-009
1.095234e-008
9.127116e-009
2.773939e-009
-3.473764e-009
-6.747613e-009
-6.910680e-009
-5.026583e-009
-1.714286e-009
2.765984e-009
7.279563e-009
9.493480e-009
7.413577e-009
1.395580e-009
-5.590324e-009
-9.976532e-009
-1.008398e-008
-6.843054e-009
-2.403728e-009
1.681249e-009
4.990449e-009
7.485790e-009
8.799475e-009
8.435427e-009
6.426013e-009
3.483933e-009
4.616739e-010
-2.197418e-009
-4.447243e-009
-6.272546e-009
-7.524016e-009
-8.092266e-009
-8.073506e-009
-7.673175e-009
-7.014688e-009
-6.124112e-009
-5.061453e-009
-3.963500e-009
-2.936666e-009
-1.981045e-009
-1.064695e-009
-2.249965e-010
4.606324e-010
9.793847e-010
1.391730e-009
1.730381e-009
1.950379e-009
2.007516e-009
1.936903e-009
1.803090e-009
1.599008e-009
1.256840e-009
7.593720e-010
1.770354e-010
-4.335810e-010
-1.113906e-009
-1.931462e-009
-2.853004e-009
-3.757047e-009
-4.570065e-009
-5.313901e-009
-5.981791e-009
-6.430326e-009
-6.464179e-009
-5.998996e-009
-5.063531e-009
-3.657096e-009
-1.728719e-009
6.255579e-010
3.017586e-009
4.932224e-009
6.027782e-009
6.177754e-009
5.243809e-009
3.038321e-009
-2.664286e-010
-3.736449e-009
-5.962293e-009
-5.986221e-009
-3.982413e-009
-9.864885e-010
1.950611e-009
4.189322e-009
5.188684e-009
4.242800e-009
1.071179e-009
-3.186753e-009
-5.988882e-009
-5.083505e-009
-6.469293e-010
4.294265e-009
6.000239e-009
3.108908e-009
-2.061840e-009
-5.316662e-009
-4.057891e-009
5.365993e-010
4.520219e-009
-1.551212e-008
-4.513367e-009
7.790371e-009
1.231712e-008
7.359233e-009
-1.372105e-009
-6.616717e-009
-5.675826e-009
-1.532022e-009
1.205429e-009
9.639588e-010
-8.147750e-011
6.495146e-010
2.832106e-009
3.646059e-009
1.249784e-009
-2.771812e-009
-4.833472e-009
-3.075388e-009
7.454799e-010
3.191727e-009
2.625852e-009
4.407061e-010
-9.651694e-010
-8.357825e-010
-3.819302e-010
-8.500499e-010
-1.930803e-009
-2.299600e-009
-1.322226e-009
2.613523e-010
1.326694e-009
1.611796e-009
1.740553e-009
2.238845e-009
2.900333e-009
3.177527e-009
2.916704e-009
2.480972e-009
2.236516e-009
2.149673e-009
1.952344e-009
1.549644e-009
1.120938e-009
8.570876e-010
7.344698e-010
5.993360e-010
3.978639e-010
2.347093e-010
2.115844e-010
2.869306e-010
3.442874e-010
3.642629e-010
4.556115e-010
6.946451e-010
9.950074e-010
1.208173e-009
1.336945e-009
1.551036e-009
1.936401e-009
2.308618e-009
2.398111e-009
2.210015e-009
2.043227e-009
2.059414e-009
1.965367e-009
1.334928e-009
2.433741e-010
-6.641343e-010
-8.983566e-010
-7.492919e-010
-8.898499e-010
-1.365987e-009
-1.352385e-009
-1.992228e-010
1.467659e-009
2.144947e-009
1.103308e-009
-6.765817e-010
-1.553051e-009
-1.081231e-009
-3.864532e-010
-5.431722e-010
-1.012952e-009
-2.602371e-010
2.028326e-009
3.891551e-009
2.853283e-009
-1.168230e-009
-5.095003e-009
-5.282459e-009
-1.081567e-009
4.221339e-009
6.169386e-009
3.079591e-009
-2.457413e-009
-5.821644e-009
-4.289564e-009
7.494306e-010
5.046607e-009
-3.130023e-009
8.440688e-010
4.190129e-009
3.048490e-009
-1.994516e-009
-6.305192e-009
-5.391320e-009
8.058708e-010
7.481911e-009
9.007353e-009
3.871690e-009
-4.032764e-009
-8.955520e-009
-8.192484e-009
-3.689994e-009
7.691092e-010
3.382640e-009
5.088525e-009
7.012741e-009
8.152331e-009
6.267091e-009
8.510366e-010
-5.560006e-009
-9.488063e-009
-9.668046e-009
-7.717117e-009
-5.821003e-009
-4.370977e-009
-2.195514e-009
1.330017e-009
5.138328e-009
7.598473e-009
8.293064e-009
8.218658e-009
8.371271e-009
8.632182e-009
8.223285e-009
6.901302e-009
5.293864e-009
4.096400e-009
3.305248e-009
2.429563e-009
1.253401e-009
1.011215e-010
-6.448339e-010
-1.033617e-009
-1.404434e-009
-1.886294e-009
-2.250047e-009
-2.273215e-009
-2.066366e-009
-1.901790e-009
-1.806351e-009
-1.514624e-009
-8.636830e-010
-6.380268e-011
5.761110e-010
1.110556e-009
1.922322e-009
3.164613e-009
4.443617e-009
5.262566e-009
5.683166e-009
6.239298e-009
7.096318e-009
7.582355e-009
6.868539e-009
5.020154e-009
2.978053e-009
1.363123e-009
-3.218140e-010
-2.871695e-009
-5.878999e-009
-7.617739e-009
-6.749296e-009
-3.856806e-009
-8.377120e-010
1.157831e-009
2.645472e-009
4.421469e-009
5.763038e-009
4.794926e-009
8.843502e-010
-3.838815e-009
-5.985093e-009
-4.078607e-009
4.545638e-012
2.883651e-009
2.799005e-009
8.196066e-010
-7.603521e-010
-7.857113e-010
6.261944e-011
4.993265e-010
8.377232e-011
-5.939223e-010
-7.920586e-010
-3.617460e-010
3.056107e-010
7.550539e-010
1.051470e-008
4.771758e-009
-2.581007e-009
-7.434984e-009
-8.049582e-009
-5.058842e-009
-1.025399e-010
5.030621e-009
8.331483e-009
7.827932e-009
2.976472e-009
-4.036060e-009
-9.083764e-009
-9.043116e-009
-4.313196e-009
1.666398e-009
5.473326e-009
6.213638e-009
5.158291e-009
3.524978e-009
1.304468e-009
-1.715220e-009
-4.556564e-009
-5.494775e-009
-3.934594e-009
-1.263481e-009
5.493619e-010
9.526284e-010
1.007044e-009
1.699480e-009
2.625689e-009
2.640759e-009
1.456169e-009
4.785349e-011
-5.603358e-010
-4.642805e-010
-5.432369e-010
-1.215675e-009
-1.962138e-009
-2.115747e-009
-1.744163e-009
-1.477616e-009
-1.639085e-009
-1.892145e-009
-1.797384e-009
-1.428632e-009
-1.220215e-009
-1.337420e-009
-1.480489e-009
-1.358571e-009
-1.119219e-009
-1.118299e-009
-1.380343e-009
-1.546809e-009
-1.403829e-009
-1.223183e-009
-1.384112e-009
-1.783527e-009
-1.909363e-009
-1.545310e-009
-1.119732e-009
-1.124574e-009
-1.352094e-009
-1.071138e-009
-2.104180e-011
1.119731e-009
1.534387e-009
1.328566e-009
1.356376e-009
1.938576e-009
2.208681e-009
1.115508e-009
-1.118247e-009
-3.023044e-009
-3.456576e-009
-2.730085e-009
-1.865390e-009
-1.063854e-009
4.607939e-010
2.988325e-009
5.171878e-009
4.998484e-009
1.913013e-009
-2.348648e-009
-5.181475e-009
-5.187642e-009
-2.831365e-009
4.818140e-010
3.405445e-009
4.811964e-009
3.796572e-009
3.957712e-010
-3.605324e-009
-5.319214e-009
-3.066054e-009
1.686194e-009
5.075010e-009
4.123349e-009
-4.094717e-010
-4.511330e-009
1.365204e-008
3.185182e-009
-7.745201e-009
-1.043431e-008
-4.497179e-009
3.281241e-009
6.115532e-009
3.068531e-009
-1.505788e-009
-3.207173e-009
-1.598095e-009
6.526324e-010
1.481019e-009
1.364428e-009
1.706417e-009
2.338015e-009
1.524703e-009
-1.612992e-009
-5.461497e-009
-7.197709e-009
-5.486750e-009
-1.499435e-009
2.607134e-009
5.629629e-009
7.537884e-009
8.358732e-009
7.645962e-009
5.206754e-009
1.797872e-009
-1.389696e-009
-3.821387e-009
-5.819252e-009
-7.687066e-009
-9.057324e-009
-9.355127e-009
-8.651625e-009
-7.664091e-009
-6.906172e-009
-6.170903e-009
-5.011861e-009
-3.488372e-009
-2.138570e-009
-1.279767e-009
-6.501489e-010
1.412138e-010
1.039862e-009
1.652293e-009
1.830177e-009
1.869066e-009
2.055346e-009
2.245168e-009
2.092416e-009
1.580601e-009
1.063477e-009
7.400242e-010
3.373212e-010
-5.021540e-010
-1.667188e-009
-2.684475e-009
-3.376728e-009
-4.122186e-009
-5.281754e-009
-6.567953e-009
-7.285482e-009
-7.164990e-009
-6.624983e-009
-6.061350e-009
-5.166098e-009
-3.300775e-009
-4.789405e-010
2.394328e-009
4.385085e-009
5.330872e-009
5.538536e-009
4.953612e-009
3.147494e-009
2.409554e-010
-2.596148e-009
-3.974285e-009
-3.524521e-009
-2.020251e-009
-3.581249e-010
1.125923e-009
2.191547e-009
2.127516e-009
4.055514e-010
-2.038398e-009
-2.927957e-009
-8.188437e-010
2.845296e-009
4.514711e-009
1.968250e-009
-3.026019e-009
-5.919909e-009
-3.662273e-009
2.116336e-009
6.323792e-009
5.055489e-009
-7.073716e-010
-5.885074e-009
5.920704e-009
-1.618434e-009
-7.782296e-009
-5.483072e-009
3.601692e-009
1.074799e-008
8.634201e-009
-1.615174e-009
-1.142495e-008
-1.266031e-008
-4.738133e-009
5.607179e-009
1.098369e-008
9.426558e-009
4.358377e-009
-2.128409e-010
-3.335056e-009
-6.116017e-009
-8.507667e-009
-8.483150e-009
-4.575928e-009
1.708116e-009
6.819695e-009
8.377966e-009
6.933921e-009
4.598474e-009
2.622919e-009
7.686520e-010
-1.398167e-009
-3.440072e-009
-4.527133e-009
-4.485544e-009
-3.895553e-009
-3.278110e-009
-2.608625e-009
-1.698606e-009
-6.906995e-010
8.574330e-011
5.778429e-010
1.032875e-009
1.575109e-009
2.015085e-009
2.169022e-009
2.167649e-009
2.272959e-009
2.494300e-009
2.596421e-009
2.480382e-009
2.348239e-009
2.400115e-009
2.530703e-009
2.493631e-009
2.285267e-009
2.157266e-009
2.228272e-009
2.284549e-009
2.085890e-009
1.722170e-009
1.469420e-009
1.346488e-009
1.046287e-009
3.666452e-010
-4.988562e-010
-1.252679e-009
-1.916302e-009
-2.709628e-009
-3.548880e-009
-3.957982e-009
-3.590609e-009
-2.595491e-009
-1.257382e-009
4.952396e-010
2.806823e-009
5.115064e-009
6.141202e-009
5.030325e-009
2.312501e-009
-6.440777e-010
-3.026784e-009
-4.907762e-009
-6.073165e-009
-5.254288e-009
-1.428653e-009
4.054388e-009
7.530509e-009
6.090283e-009
6.843325e-010
-4.343854e-009
-5.187857e-009
-1.996989e-009
1.677778e-009
2.596465e-009
7.322823e-010
-1.337529e-009
-1.396665e-009
3.455073e-010
1.874087e-009
1.576047e-009
-2.814476e-010
-1.974804e-009
-4.012433e-009
-3.950263e-009
-2.324302e-009
1.711890e-009
6.512624e-009
8.375831e-009
4.576250e-009
-3.394333e-009
-9.912786e-009
-9.586389e-009
-2.309795e-009
6.133646e-009
9.102202e-009
5.052078e-009
-1.533537e-009
-4.977899e-009
-3.683954e-009
-4.798255e-010
1.462388e-009
1.880569e-009
2.385432e-009
3.299971e-009
2.854415e-009
-3.239315e-010
-4.912972e-009
-7.892869e-009
-7.593749e-009
-5.066357e-009
-2.402186e-009
-4.057595e-010
1.619572e-009
4.241447e-009
6.853314e-009
8.410652e-009
8.670237e-009
8.278184e-009
7.837428e-009
7.324120e-009
6.452652e-009
5.246322e-009
4.020796e-009
2.977274e-009
2.060576e-009
1.186763e-009
4.057200e-010
-2.090214e-010
-6.825412e-010
-1.062959e-009
-1.316148e-009
-1.389988e-009
-1.324190e-009
-1.195485e-009
-9.850516e-010
-6.063176e-010
-5.824973e-011
5.625786e-010
1.226672e-009
2.026435e-009
2.996026e-009
3.989267e-009
4.857509e-009
5.654633e-009
6.470929e-009
7.087248e-009
7.049294e-009
6.198412e-009
4.898121e-009
3.502494e-009
1.789139e-009
-6.534476e-010
-3.427018e-009
-5.194066e-009
-4.946397e-009
-3.187107e-009
-1.367427e-009
-1.843680e-010
9.578377e-010
2.496146e-009
3.333102e-009
1.822000e-009
-1.758955e-009
-4.543209e-009
-3.664634e-009
5.651514e-010
4.636233e-009
5.186801e-009
2.074509e-009
-1.957358e-009
-4.142720e-009
-3.743770e-009
-1.655102e-009
9.709294e-010
3.142667e-009
3.719670e-009
1.882653e-009
-1.586252e-009
-4.104650e-009
-3.312777e-009
3.999357e-010
3.815624e-009
-8.808323e-009
-1.423909e-009
5.600090e-009
6.223712e-009
1.365222e-009
-3.365784e-009
-3.904104e-009
-9.793167e-010
2.109401e-009
3.372273e-009
3.039031e-009
1.599392e-009
-1.301692e-009
-5.353338e-009
-8.057891e-009
-6.295859e-009
1.571856e-010
7.491884e-009
1.100146e-008
9.208937e-009
4.457524e-009
-2.339564e-010
-3.937805e-009
-7.194664e-009
-9.677238e-009
-9.771141e-009
-6.644053e-009
-1.793671e-009
2.192347e-009
4.140984e-009
4.955154e-009
5.879002e-009
6.830133e-009
6.809670e-009
5.483191e-009
3.701703e-009
2.450228e-009
1.793209e-009
1.114293e-009
8.898783e-011
-9.580512e-010
-1.595818e-009
-1.838114e-009
-2.023509e-009
-2.342549e-009
-2.672692e-009
-2.826176e-009
-2.800626e-009
-2.747235e-009
-2.773960e-009
-2.836288e-009
-2.808896e-009
-2.643497e-009
-2.440249e-009
-2.328376e-009
-2.268074e-009
-2.046788e-009
-1.546781e-009
-9.444916e-010
-4.849189e-010
-6.133061e-011
7.552847e-010
2.124126e-009
3.560649e-009
4.435497e-009
4.771688e-009
5.146676e-009
5.651711e-009
5.356114e-009
3.282527e-009
-1.937714e-010
-3.452921e-009
-5.288575e-009
-5.959966e-009
-6.191014e-009
-5.568567e-009
-2.835464e-009
1.980285e-009
6.463978e-009
7.631877e-009
4.831954e-009
3.454203e-010
-2.920697e-009
-3.822861e-009
-2.977966e-009
-1.240066e-009
8.687818e-010
2.409696e-009
1.992651e-009
-5.742177e-010
-3.060170e-009
-2.487925e-009
1.387091e-009
4.932524e-009
3.990751e-009
-1.398717e-009
-6.298894e-009
-5.599493e-009
5.351506e-010
6.426639e-009
-8.157075e-009
2.546377e-009
1.086777e-008
7.129486e-009
-5.210565e-009
-1.377823e-008
-1.010233e-008
2.385214e-009
1.257407e-008
1.264366e-008
4.309466e-009
-4.758527e-009
-8.851148e-009
-7.869945e-009
-4.602777e-009
-7.705087e-010
3.310073e-009
6.568353e-009
6.819550e-009
3.207399e-009
-2.031222e-009
-5.290027e-009
-4.939198e-009
-2.314567e-009
4.476081e-010
2.613497e-009
4.515140e-009
5.872524e-009
5.563009e-009
3.148301e-009
-1.989396e-010
-2.820201e-009
-4.262716e-009
-5.331989e-009
-6.631635e-009
-7.676316e-009
-7.652453e-009
-6.594671e-009
-5.358171e-009
-4.558961e-009
-3.970728e-009
-3.061556e-009
-1.798755e-009
-6.643601e-010
-4.572418e-012
3.533258e-010
7.831756e-010
1.348992e-009
1.760351e-009
1.783741e-009
1.545535e-009
1.352202e-009
1.275478e-009
1.045175e-009
4.105172e-010
-4.872279e-010
-1.260053e-009
-1.803486e-009
-2.485818e-009
-3.636590e-009
-4.964139e-009
-5.772950e-009
-5.807041e-009
-5.557323e-009
-5.481841e-009
-5.163157e-009
-3.711109e-009
-1.049278e-009
1.666286e-009
3.212730e-009
3.552397e-009
3.455046e-009
3.067992e-009
1.610317e-009
-1.183736e-009
-3.893787e-009
-4.423217e-009
-2.171956e-009
1.322782e-009
3.977802e-009
4.820822e-009
3.853352e-009
1.127095e-009
-2.932227e-009
-6.366266e-009
-6.245310e-009
-1.594179e-009
4.499151e-009
6.948302e-009
3.597966e-009
-2.269314e-009
-5.041835e-009
-2.472954e-009
2.158725e-009
3.741108e-009
7.921537e-010
-3.179580e-009
-3.675909e-009
-8.694409e-011
3.751543e-009
-5.110766e-009
3.154811e-009
9.182360e-009
5.214387e-009
-5.616898e-009
-1.255166e-008
-8.283571e-009
3.484765e-009
1.171306e-008
9.074068e-009
-1.046037e-009
-8.572815e-009
-7.046554e-009
7.469702e-010
6.919224e-009
6.739345e-009
1.958262e-009
-2.954034e-009
-5.776067e-009
-7.027022e-009
-7.053503e-009
-4.723545e-009
5.533841e-010
6.830659e-009
1.082722e-008
1.092017e-008
8.188680e-009
4.590450e-009
9.916316e-010
-2.654741e-009
-5.978157e-009
-8.002052e-009
-8.279299e-009
-7.493727e-009
-6.587712e-009
-5.688098e-009
-4.301498e-009
-2.345565e-009
-4.675362e-010
7.439938e-010
1.464856e-009
2.288456e-009
3.381326e-009
4.311158e-009
4.698618e-009
4.738119e-009
4.908413e-009
5.329125e-009
5.642762e-009
5.540945e-009
5.197356e-009
5.027742e-009
5.111563e-009
5.067886e-009
4.573982e-009
3.828204e-009
3.288223e-009
2.996655e-009
2.439365e-009
1.210074e-009
-4.009020e-010
-1.765135e-009
-2.778450e-009
-3.975050e-009
-5.627070e-009
-7.069616e-009
-7.293671e-009
-6.067697e-009
-4.033403e-009
-1.687479e-009
1.160431e-009
4.545548e-009
7.387427e-009
8.074422e-009
6.085595e-009
2.529565e-009
-1.068216e-009
-3.930432e-009
-5.608585e-009
-5.139943e-009
-1.858398e-009
2.735858e-009
5.097609e-009
2.852486e-009
-2.177902e-009
-5.176686e-009
-3.115472e-009
2.047184e-009
5.398500e-009
4.057024e-009
-3.160488e-010
-3.735396e-009
-3.844045e-009
-1.437649e-009
1.164589e-009
2.370911e-009
2.015659e-009
7.275890e-010
-7.288264e-010
-1.675831e-009
-4.509836e-010
-5.868621e-011
4.894084e-010
6.197251e-010
5.231444e-011
-3.957305e-010
4.081730e-010
1.885950e-009
1.477099e-009
-2.329917e-009
-6.862455e-009
-6.763536e-009
2.065304e-010
9.453492e-009
1.305798e-008
7.485687e-009
-2.864710e-009
-1.016808e-008
-1.050791e-008
-6.129725e-009
-1.330741e-009
2.081806e-009
4.724106e-009
6.636616e-009
6.303235e-009
2.881455e-009
-1.931344e-009
-5.225906e-009
-5.668064e-009
-4.228438e-009
-2.378615e-009
-4.674492e-010
1.862349e-009
4.419387e-009
6.381288e-009
7.307325e-009
7.594024e-009
7.767906e-009
7.770909e-009
7.250880e-009
6.285458e-009
5.400088e-009
4.888291e-009
4.472466e-009
3.787026e-009
2.953010e-009
2.419872e-009
2.331059e-009
2.334276e-009
2.097872e-009
1.789970e-009
1.839147e-009
2.316341e-009
2.820116e-009
3.043335e-009
3.221451e-009
3.800952e-009
4.772461e-009
5.627721e-009
6.029185e-009
6.224635e-009
6.568517e-009
6.832876e-009
6.364509e-009
4.922016e-009
2.976572e-009
1.035522e-009
-9.337135e-010
-3.010131e-009
-4.511937e-009
-4.330221e-009
-2.229682e-009
6.808520e-010
3.080614e-009
4.574187e-009
5.178745e-009
4.151194e-009
5.143394e-010
-4.807831e-009
-8.360418e-009
-6.935954e-009
-1.130221e-009
4.690732e-009
6.421469e-009
3.838625e-009
1.635281e-012
-2.233688e-009
-2.328452e-009
-1.191434e-009
3.432590e-010
1.536961e-009
1.312457e-009
-7.525592e-010
-2.994815e-009
-2.604240e-009
1.072496e-009
4.819441e-009
4.425650e-009
-4.705248e-010
-5.345016e-009
6.588148e-009
-3.056178e-009
-9.954640e-009
-5.749563e-009
5.268953e-009
1.193804e-008
8.353431e-009
-1.254053e-009
-8.500728e-009
-9.162693e-009
-4.964904e-009
5.151722e-010
5.072158e-009
7.269240e-009
5.497961e-009
-2.006840e-010
-6.164006e-009
-7.266220e-009
-2.029707e-009
5.345456e-009
8.957743e-009
6.766083e-009
1.509823e-009
-3.238147e-009
-6.440682e-009
-8.755822e-009
-9.878451e-009
-8.305174e-009
-3.628180e-009
2.236240e-009
6.744684e-009
9.062297e-009
1.012474e-008
1.081255e-008
1.090364e-008
9.884424e-009
8.031452e-009
6.175700e-009
4.712053e-009
3.365756e-009
1.887764e-009
5.096422e-010
-4.536216e-010
-1.112082e-009
-1.811207e-009
-2.584048e-009
-3.113150e-009
-3.243273e-009
-3.240029e-009
-3.396548e-009
-3.590384e-009
-3.467916e-009
-2.983633e-009
-2.479529e-009
-2.174439e-009
-1.827096e-009
-1.088105e-009
-1.279393e-011
1.053761e-009
2.047995e-009
3.307114e-009
4.999548e-009
6.734891e-009
8.000928e-009
8.760524e-009
9.199019e-009
8.956888e-009
7.192566e-009
3.705401e-009
-4.151242e-010
-3.729337e-009
-5.780908e-009
-6.885111e-009
-6.728094e-009
-4.209577e-009
6.458795e-010
5.274115e-009
6.285202e-009
2.913779e-009
-1.928002e-009
-4.460149e-009
-3.427063e-009
-3.700397e-010
2.640181e-009
4.406710e-009
4.075842e-009
1.008611e-009
-3.661711e-009
-6.364903e-009
-3.979336e-009
2.090150e-009
6.155825e-009
3.973199e-009
-2.159559e-009
-5.462274e-009
-2.255027e-009
3.662084e-009
5.300088e-009
6.540606e-010
-4.896053e-009
1.327344e-008
-2.524140e-009
-1.481687e-008
-1.017535e-008
5.358082e-009
1.465853e-008
8.742689e-009
-4.706857e-009
-1.133203e-008
-5.727422e-009
4.520812e-009
8.728695e-009
4.092711e-009
-3.708956e-009
-8.152797e-009
-7.477264e-009
-3.448185e-009
2.160977e-009
7.959936e-009
1.137774e-008
9.541776e-009
2.566625e-009
-5.414022e-009
-9.679434e-009
-8.997480e-009
-5.637143e-009
-1.993552e-009
1.507811e-009
5.128019e-009
7.924215e-009
8.317017e-009
6.148300e-009
3.094513e-009
8.243353e-010
-5.571770e-010
-1.901751e-009
-3.466377e-009
-4.621185e-009
-4.906428e-009
-4.699920e-009
-4.639397e-009
-4.825188e-009
-4.926221e-009
-4.827749e-009
-4.777364e-009
-4.929254e-009
-5.100084e-009
-5.091790e-009
-5.000802e-009
-5.015978e-009
-5.073946e-009
-4.955433e-009
-4.660264e-009
-4.432946e-009
-4.385890e-009
-4.342986e-009
-4.176929e-009
-4.075448e-009
-4.238043e-009
-4.452026e-009
-4.288677e-009
-3.692228e-009
-2.994370e-009
-2.216316e-009
-7.790635e-010
1.677670e-009
4.414539e-009
6.085721e-009
6.138071e-009
5.152675e-009
3.592790e-009
9.315229e-010
-3.189421e-009
-7.238067e-009
-8.348652e-009
-5.138904e-009
5.629085e-010
5.325568e-009
7.054322e-009
5.839542e-009
2.599451e-009
-1.667658e-009
-5.072110e-009
-4.992497e-009
-7.691136e-010
4.147406e-009
4.679540e-009
-2.534138e-010
-5.647346e-009
-5.402571e-009
7.126466e-010
6.407075e-009
5.731703e-009
-3.409522e-010
-5.224848e-009
-4.227483e-009
5.512233e-010
3.309452e-009
1.502932e-009
-1.637290e-009
1.298858e-008
3.100662e-010
-1.025395e-008
-8.251158e-009
1.952170e-009
7.507034e-009
2.228163e-009
-6.655245e-009
-7.413572e-009
2.208452e-009
1.211371e-008
1.117410e-008
-4.721311e-010
-1.191644e-008
-1.329541e-008
-5.077341e-009
4.459633e-009
8.536398e-009
6.824218e-009
2.585660e-009
-1.838145e-009
-5.478045e-009
-6.817309e-009
-4.116542e-009
2.059379e-009
8.277000e-009
1.114770e-008
1.019114e-008
7.239195e-009
3.757871e-009
-1.687495e-010
-4.449785e-009
-7.921875e-009
-9.370994e-009
-9.019880e-009
-8.232337e-009
-7.896581e-009
-7.738047e-009
-7.258320e-009
-6.711477e-009
-6.780635e-009
-7.646654e-009
-8.842963e-009
-9.940541e-009
-1.096934e-008
-1.209634e-008
-1.321882e-008
-1.407101e-008
-1.454247e-008
-1.467903e-008
-1.447363e-008
-1.386941e-008
-1.292974e-008
-1.180071e-008
-1.050632e-008
-8.998256e-009
-7.459230e-009
-6.309063e-009
-5.749310e-009
-5.517117e-009
-5.346462e-009
-5.491687e-009
-6.364328e-009
-7.632450e-009
-8.170412e-009
-7.190133e-009
-5.058844e-009
-2.581993e-009
1.880684e-010
3.672659e-009
7.247879e-009
8.890555e-009
7.047993e-009
2.543570e-009
-2.017410e-009
-4.562879e-009
-4.635552e-009
-2.486475e-009
1.485977e-009
5.657681e-009
6.800940e-009
2.756845e-009
-4.193376e-009
-8.218067e-009
-5.545672e-009
1.239687e-009
5.658467e-009
4.127009e-009
-6.499399e-010
-3.284029e-009
-1.645111e-009
1.616597e-009
2.800715e-009
1.096136e-009
-1.390866e-009
-2.440720e-009
-1.689930e-009
-1.985169e-010
9.918847e-010
1.548720e-009
2.300385e-009
1.857020e-009
1.024065e-009
8.010447e-011
-9.177622e-010
-2.453082e-009
-4.366191e-009
-4.574517e-009
-7.479367e-010
5.764468e-009
9.202019e-009
4.891734e-009
-4.402455e-009
-9.782078e-009
-5.357341e-009
4.847232e-009
1.071813e-008
6.576448e-009
-3.516046e-009
-1.093283e-008
-1.108517e-008
-5.865152e-009
6.883196e-010
6.471955e-009
1.084181e-008
1.253462e-008
1.019452e-008
4.596971e-009
-1.276265e-009
-4.874449e-009
-6.021912e-009
-5.963716e-009
-5.396409e-009
-4.242455e-009
-2.880963e-009
-2.512943e-009
-4.035091e-009
-7.173212e-009
-1.111319e-008
-1.559798e-008
-2.094982e-008
-2.720830e-008
-3.375697e-008
-3.988092e-008
-4.533891e-008
-5.021174e-008
-5.442482e-008
-5.765180e-008
-5.958819e-008
-6.012600e-008
-5.929913e-008
-5.721460e-008
-5.401875e-008
-4.979582e-008
-4.453098e-008
-3.833813e-008
-3.170289e-008
-2.526609e-008
-1.930355e-008
-1.368336e-008
-8.508532e-009
-4.517288e-009
-2.457434e-009
-2.163302e-009
-2.694420e-009
-3.418867e-009
-4.415647e-009
-5.515558e-009
-5.515948e-009
-3.124253e-009
1.359236e-009
5.957168e-009
8.743112e-009
9.060675e-009
6.925761e-009
2.344231e-009
-3.669169e-009
-7.995799e-009
-7.215113e-009
-1.445141e-009
4.594585e-009
5.716940e-009
1.472035e-009
-3.595674e-009
-4.858985e-009
-1.894225e-009
2.178324e-009
4.307902e-009
3.579705e-009
7.414489e-010
-2.573703e-009
-4.127921e-009
-2.354939e-009
1.547241e-009
3.814402e-009
1.903886e-009
-2.142011e-009
-3.591812e-009
-6.560946e-010
3.121664e-009
-1.285580e-008
1.033602e-009
1.199114e-008
8.977284e-009
-2.464795e-009
-9.117204e-009
-5.517108e-009
2.205971e-009
5.559040e-009
2.654588e-009
-2.377273e-009
-5.289324e-009
-4.548194e-009
-2.761475e-010
6.041864e-009
1.045880e-008
8.282078e-009
-8.170233e-010
-1.049765e-008
-1.283355e-008
-6.063679e-009
3.886865e-009
9.701749e-009
9.159281e-009
5.042731e-009
5.175248e-010
-3.430877e-009
-6.511631e-009
-7.483150e-009
-5.312351e-009
-1.110190e-009
2.364360e-009
3.075931e-009
8.257984e-010
-3.897832e-009
-1.120063e-008
-2.144707e-008
-3.426258e-008
-4.859401e-008
-6.366927e-008
-7.937227e-008
-9.560403e-008
-1.117067e-007
-1.267519e-007
-1.401558e-007
-1.517537e-007
-1.613765e-007
-1.685937e-007
-1.728911e-007
-1.739728e-007
-1.718683e-007
-1.668296e-007
-1.591242e-007
-1.488814e-007
-1.361953e-007
-1.214616e-007
-1.055122e-007
-8.921507e-008
-7.297117e-008
-5.686280e-008
-4.134632e-008
-2.746217e-008
-1.611480e-008
-7.412181e-009
-1.094955e-009
2.594379e-009
3.114228e-009
8.535005e-010
-2.420770e-009
-4.772118e-009
-5.384123e-009
-4.250583e-009
-1.224688e-009
3.456878e-009
7.686783e-009
8.033936e-009
3.090660e-009
-4.099027e-009
-8.196367e-009
-6.486727e-009
-1.069365e-009
3.788214e-009
5.453831e-009
3.882001e-009
3.769229e-010
-3.022314e-009
-3.726415e-009
-5.277408e-010
3.929536e-009
4.561742e-009
-4.306911e-010
-6.189962e-009
-5.897576e-009
8.782705e-010
6.795030e-009
5.176315e-009
-1.752374e-009
-5.529061e-009
-2.034030e-009
3.491446e-009
-2.085830e-008
2.582275e-010
1.655032e-008
1.160215e-008
-4.713932e-009
-1.138541e-008
-1.968703e-009
1.002722e-008
9.505608e-009
-2.605259e-009
-1.250959e-008
-1.044674e-008
-1.306654e-011
8.460939e-009
9.234292e-009
4.151714e-009
-2.189622e-009
-6.416435e-009
-6.340620e-009
-1.015925e-009
7.165993e-009
1.238648e-008
1.000302e-008