# vtk DataFile Version 3.0
vtk output
ASCII
DATASET STRUCTURED_POINTS
DIMENSIONS 100 100 1
SPACING 1 1 1
ORIGIN 0 0 0
POINT_DATA 10000
SCALARS SFBox_profile double
LOOKUP_TABLE default 
9.439931e-003
9.439927e-003
9.439921e-003
9.439917e-003
9.439916e-003
9.439918e-003
9.439920e-003
9.439922e-003
9.439921e-003
9.439920e-003
9.439919e-003
9.439920e-003
9.439921e-003
9.439921e-003
9.439920e-003
9.439919e-003
9.439918e-003
9.439919e-003
9.439920e-003
9.439921e-003
9.439921e-003
9.439920e-003
9.439920e-003
9.439921e-003
9.439921e-003
9.439922e-003
9.439921e-003
9.439921e-003
9.439921e-003
9.439922e-003
9.439923e-003
9.439923e-003
9.439924e-003
9.439924e-003
9.439925e-003
9.439926e-003
9.439927e-003
9.439928e-003
9.439929e-003
9.439929e-003
9.439930e-003
9.439931e-003
9.439932e-003
9.439932e-003
9.439933e-003
9.439933e-003
9.439934e-003
9.439934e-003
9.439934e-003
9.439934e-003
9.439935e-003
9.439935e-003
9.439934e-003
9.439934e-003
9.439934e-003
9.439934e-003
9.439933e-003
9.439933e-003
9.439932e-003
9.439931e-003
9.439930e-003
9.439930e-003
9.439929e-003
9.439928e-003
9.439927e-003
9.439926e-003
9.439925e-003
9.439924e-003
9.439924e-003
9.439923e-003
9.439923e-003
9.439922e-003
9.439921e-003
9.439921e-003
9.439921e-003
9.439921e-003
9.439921e-003
9.439921e-003
9.439920e-003
9.439920e-003
9.439920e-003
9.439920e-003
9.439920e-003
9.439920e-003
9.439919e-003
9.439919e-003
9.439920e-003
9.439920e-003
9.439920e-003
9.439920e-003
9.439920e-003
9.439920e-003
9.439920e-003
9.439920e-003
9.439920e-003
9.439920e-003
9.439919e-003
9.439920e-003
9.439920e-003
9.439921e-003
9.439931e-003
9.439927e-003
9.439921e-003
9.439917e-003
9.439916e-003
9.439918e-003
9.439920e-003
9.439922e-003
9.439921e-003
9.439920e-003
9.439919e-003
9.439920e-003
9.439921e-003
9.439921e-003
9.439920e-003
9.439919e-003
9.439918e-003
9.439919e-003
9.439920e-003
9.439921e-003
9.439921e-003
9.439920e-003
9.439920e-003
9.439921e-003
9.439921e-003
9.439922e-003
9.439921e-003
9.439921e-003
9.439921e-003
9.439922e-003
9.439923e-003
9.439923e-003
9.439924e-003
9.439924e-003
9.439925e-003
9.439926e-003
9.439927e-003
9.439928e-003
9.439929e-003
9.439929e-003
9.439930e-003
9.439931e-003
9.439932e-003
9.439932e-003
9.439933e-003
9.439933e-003
9.439934e-003
9.439934e-003
9.439934e-003
9.439934e-003
9.439935e-003
9.439935e-003
9.439934e-003
9.439934e-003
9.439934e-003
9.439934e-003
9.439933e-003
9.439933e-003
9.439932e-003
9.439931e-003
9.439930e-003
9.439930e-003
9.439929e-003
9.439928e-003
9.439927e-003
9.439926e-003
9.439925e-003
9.439924e-003
9.439924e-003
9.439923e-003
9.439923e-003
9.439922e-003
9.439921e-003
9.439921e-003
9.439921e-003
9.439921e-003
9.439921e-003
9.439921e-003
9.439920e-003
9.439920e-003
9.439920e-003
9.439920e-003
9.439920e-003
9.439920e-003
9.439919e-003
9.439919e-003
9.439920e-003
9.439920e-003
9.439920e-003
9.439920e-003
9.439920e-003
9.439920e-003
9.439920e-003
9.439920e-003
9.439920e-003
9.439920e-003
9.439919e-003
9.439920e-003
9.439920e-003
9.439921e-003
9.439923e-003
9.439921e-003
9.439920e-003
9.439919e-003
9.439919e-003
9.439920e-003
9.439921e-003
9.439921e-003
9.439920e-003
9.439920e-003
9.439919e-003
9.439919e-003
9.439920e-003
9.439921e-003
9.439920e-003
9.439920e-003
9.439920e-003
9.439920e-003
9.439920e-003
9.439921e-003
9.439920e-003
9.439920e-003
9.439920e-003
9.439921e-003
9.439921e-003
9.439922e-003
9.439922e-003
9.439922e-003
9.439923e-003
9.439924e-003
9.439925e-003
9.439925e-003
9.439926e-003
9.439927e-003
9.439927e-003
9.439929e-003
9.439929e-003
9.439930e-003
9.439931e-003
9.439932e-003
9.439933e-003
9.439934e-003
9.439934e-003
9.439935e-003
9.439935e-003
9.439936e-003
9.439936e-003
9.439937e-003
9.439937e-003
9.439937e-003
9.439937e-003
9.439937e-003
9.439937e-003
9.439937e-003
9.439937e-003
9.439936e-003
9.439936e-003
9.439935e-003
9.439935e-003
9.439934e-003
9.439933e-003
9.439932e-003
9.439931e-003
9.439930e-003
9.439930e-003
9.439929e-003
9.439928e-003
9.439927e-003
9.439926e-003
9.439925e-003
9.439924e-003
9.439923e-003
9.439923e-003
9.439922e-003
9.439922e-003
9.439921e-003
9.439921e-003
9.439920e-003
9.439920e-003
9.439920e-003
9.439920e-003
9.439920e-003
9.439920e-003
9.439920e-003
9.439920e-003
9.439920e-003
9.439920e-003
9.439920e-003
9.439920e-003
9.439920e-003
9.439920e-003
9.439920e-003
9.439920e-003
9.439920e-003
9.439920e-003
9.439920e-003
9.439920e-003
9.439920e-003
9.439920e-003
9.439920e-003
9.439913e-003
9.439915e-003
9.439919e-003
9.439921e-003
9.439922e-003
9.439922e-003
9.439921e-003
9.439920e-003
9.439920e-003
9.439920e-003
9.439920e-003
9.439919e-003
9.439919e-003
9.439920e-003
9.439920e-003
9.439921e-003
9.439921e-003
9.439921e-003
9.439921e-003
9.439921e-003
9.439920e-003
9.439920e-003
9.439921e-003
9.439921e-003
9.439922e-003
9.439922e-003
9.439923e-003
9.439924e-003
9.439926e-003
9.439927e-003
9.439928e-003
9.439929e-003
9.439930e-003
9.439931e-003
9.439932e-003
9.439934e-003
9.439935e-003
9.439936e-003
9.439937e-003
9.439938e-003
9.439939e-003
9.439940e-003
9.439940e-003
9.439941e-003
9.439942e-003
9.439942e-003
9.439943e-003
9.439943e-003
9.439943e-003
9.439943e-003
9.439943e-003
9.439943e-003
9.439943e-003
9.439943e-003
9.439943e-003
9.439942e-003
9.439942e-003
9.439941e-003
9.439941e-003
9.439940e-003
9.439939e-003
9.439938e-003
9.439937e-003
9.439936e-003
9.439935e-003
9.439934e-003
9.439932e-003
9.439931e-003
9.439930e-003
9.439928e-003
9.439927e-003
9.439926e-003
9.439925e-003
9.439924e-003
9.439923e-003
9.439922e-003
9.439922e-003
9.439921e-003
9.439921e-003
9.439920e-003
9.439920e-003
9.439920e-003
9.439920e-003
9.439920e-003
9.439921e-003
9.439920e-003
9.439920e-003
9.439920e-003
9.439920e-003
9.439920e-003
9.439920e-003
9.439920e-003
9.439920e-003
9.439920e-003
9.439920e-003
9.439920e-003
9.439920e-003
9.439920e-003
9.439920e-003
9.439920e-003
9.439909e-003
9.439913e-003
9.439919e-003
9.439923e-003
9.439924e-003
9.439922e-003
9.439919e-003
9.439918e-003
9.439919e-003
9.439920e-003
9.439921e-003
9.439920e-003
9.439919e-003
9.439919e-003
9.439920e-003
9.439921e-003
9.439922e-003
9.439921e-003
9.439921e-003
9.439920e-003
9.439921e-003
9.439922e-003
9.439923e-003
9.439923e-003
9.439924e-003
9.439925e-003
9.439927e-003
9.439928e-003
9.439930e-003
9.439932e-003
9.439933e-003
9.439935e-003
9.439937e-003
9.439938e-003
9.439940e-003
9.439941e-003
9.439943e-003
9.439944e-003
9.439945e-003
9.439946e-003
9.439946e-003
9.439947e-003
9.439947e-003
9.439947e-003
9.439948e-003
9.439948e-003
9.439947e-003
9.439947e-003
9.439947e-003
9.439947e-003
9.439947e-003
9.439947e-003
9.439946e-003
9.439946e-003
9.439946e-003
9.439946e-003
9.439946e-003
9.439946e-003
9.439945e-003
9.439945e-003
9.439945e-003
9.439944e-003
9.439944e-003
9.439943e-003
9.439941e-003
9.439940e-003
9.439939e-003
9.439937e-003
9.439935e-003
9.439934e-003
9.439932e-003
9.439930e-003
9.439929e-003
9.439927e-003
9.439926e-003
9.439924e-003
9.439923e-003
9.439922e-003
9.439922e-003
9.439921e-003
9.439921e-003
9.439920e-003
9.439920e-003
9.439921e-003
9.439921e-003
9.439920e-003
9.439920e-003
9.439920e-003
9.439920e-003
9.439920e-003
9.439920e-003
9.439920e-003
9.439920e-003
9.439920e-003
9.439920e-003
9.439920e-003
9.439921e-003
9.439920e-003
9.439920e-003
9.439919e-003
9.439913e-003
9.439916e-003
9.439920e-003
9.439923e-003
9.439923e-003
9.439920e-003
9.439918e-003
9.439918e-003
9.439919e-003
9.439921e-003
9.439922e-003
9.439921e-003
9.439920e-003
9.439919e-003
9.439919e-003
9.439921e-003
9.439921e-003
9.439921e-003
9.439920e-003
9.439921e-003
9.439922e-003
9.439924e-003
9.439926e-003
9.439927e-003
9.439928e-003
9.439929e-003
9.439932e-003
9.439934e-003
9.439937e-003
9.439938e-003
9.439940e-003
9.439942e-003
9.439944e-003
9.439946e-003
9.439947e-003
9.439947e-003
9.439947e-003
9.439947e-003
9.439947e-003
9.439945e-003
9.439944e-003
9.439942e-003
9.439940e-003
9.439938e-003
9.439935e-003
9.439933e-003
9.439931e-003
9.439929e-003
9.439927e-003
9.439926e-003
9.439925e-003
9.439924e-003
9.439924e-003
9.439925e-003
9.439925e-003
9.439927e-003
9.439928e-003
9.439930e-003
9.439932e-003
9.439934e-003
9.439937e-003
9.439939e-003
9.439941e-003
9.439942e-003
9.439943e-003
9.439943e-003
9.439943e-003
9.439943e-003
9.439942e-003
9.439940e-003
9.439938e-003
9.439936e-003
9.439934e-003
9.439932e-003
9.439930e-003
9.439928e-003
9.439926e-003
9.439925e-003
9.439924e-003
9.439923e-003
9.439922e-003
9.439921e-003
9.439920e-003
9.439920e-003
9.439920e-003
9.439920e-003
9.439920e-003
9.439920e-003
9.439920e-003
9.439920e-003
9.439921e-003
9.439920e-003
9.439920e-003
9.439920e-003
9.439920e-003
9.439920e-003
9.439920e-003
9.439920e-003
9.439920e-003
9.439920e-003
9.439922e-003
9.439922e-003
9.439922e-003
9.439921e-003
9.439920e-003
9.439919e-003
9.439918e-003
9.439918e-003
9.439920e-003
9.439921e-003
9.439922e-003
9.439921e-003
9.439920e-003
9.439920e-003
9.439920e-003
9.439921e-003
9.439921e-003
9.439921e-003
9.439922e-003
9.439923e-003
9.439925e-003
9.439928e-003
9.439930e-003
9.439932e-003
9.439934e-003
9.439936e-003
9.439939e-003
9.439942e-003
9.439944e-003
9.439946e-003
9.439946e-003
9.439947e-003
9.439946e-003
9.439945e-003
9.439941e-003
9.439936e-003
9.439930e-003
9.439923e-003
9.439915e-003
9.439906e-003
9.439896e-003
9.439886e-003
9.439876e-003
9.439866e-003
9.439856e-003
9.439846e-003
9.439838e-003
9.439830e-003
9.439824e-003
9.439820e-003
9.439817e-003
9.439815e-003
9.439816e-003
9.439818e-003
9.439822e-003
9.439828e-003
9.439835e-003
9.439844e-003
9.439854e-003
9.439865e-003
9.439876e-003
9.439888e-003
9.439899e-003
9.439909e-003
9.439918e-003
9.439926e-003
9.439933e-003
9.439938e-003
9.439941e-003
9.439942e-003
9.439942e-003
9.439942e-003
9.439940e-003
9.439938e-003
9.439936e-003
9.439933e-003
9.439931e-003
9.439929e-003
9.439927e-003
9.439925e-003
9.439924e-003
9.439922e-003
9.439921e-003
9.439921e-003
9.439920e-003
9.439920e-003
9.439920e-003
9.439920e-003
9.439920e-003
9.439921e-003
9.439921e-003
9.439920e-003
9.439920e-003
9.439920e-003
9.439920e-003
9.439920e-003
9.439920e-003
9.439920e-003
9.439920e-003
9.439920e-003
9.439928e-003
9.439925e-003
9.439921e-003
9.439918e-003
9.439918e-003
9.439919e-003
9.439920e-003
9.439920e-003
9.439921e-003
9.439920e-003
9.439920e-003
9.439920e-003
9.439920e-003
9.439921e-003
9.439921e-003
9.439921e-003
9.439922e-003
9.439923e-003
9.439925e-003
9.439927e-003
9.439929e-003
9.439932e-003
9.439935e-003
9.439938e-003
9.439941e-003
9.439944e-003
9.439947e-003
9.439948e-003
9.439948e-003
9.439945e-003
9.439940e-003
9.439932e-003
9.439921e-003
9.439907e-003
9.439888e-003
9.439866e-003
9.439841e-003
9.439814e-003
9.439784e-003
9.439752e-003
9.439718e-003
9.439685e-003
9.439652e-003
9.439620e-003
9.439589e-003
9.439561e-003
9.439535e-003
9.439513e-003
9.439496e-003
9.439482e-003
9.439474e-003
9.439471e-003
9.439473e-003
9.439481e-003
9.439494e-003
9.439512e-003
9.439536e-003
9.439564e-003
9.439595e-003
9.439630e-003
9.439666e-003
9.439704e-003
9.439741e-003
9.439777e-003
9.439811e-003
9.439841e-003
9.439869e-003
9.439891e-003
9.439910e-003
9.439923e-003
9.439933e-003
9.439939e-003
9.439942e-003
9.439943e-003
9.439942e-003
9.439939e-003
9.439936e-003
9.439934e-003
9.439931e-003
9.439929e-003
9.439926e-003
9.439924e-003
9.439923e-003
9.439922e-003
9.439921e-003
9.439921e-003
9.439920e-003
9.439920e-003
9.439920e-003
9.439920e-003
9.439920e-003
9.439920e-003
9.439920e-003
9.439920e-003
9.439920e-003
9.439920e-003
9.439920e-003
9.439920e-003
9.439920e-003
9.439920e-003
9.439928e-003
9.439924e-003
9.439919e-003
9.439917e-003
9.439917e-003
9.439920e-003
9.439922e-003
9.439922e-003
9.439921e-003
9.439919e-003
9.439918e-003
9.439919e-003
9.439921e-003
9.439922e-003
9.439922e-003
9.439923e-003
9.439925e-003
9.439927e-003
9.439929e-003
9.439932e-003
9.439935e-003
9.439939e-003
9.439942e-003
9.439945e-003
9.439948e-003
9.439949e-003
9.439946e-003
9.439940e-003
9.439928e-003
9.439911e-003
9.439885e-003
9.439852e-003
9.439810e-003
9.439759e-003
9.439699e-003
9.439631e-003
9.439556e-003
9.439474e-003
9.439387e-003
9.439297e-003
9.439205e-003
9.439113e-003
9.439023e-003
9.438936e-003
9.438855e-003
9.438780e-003
9.438713e-003
9.438657e-003
9.438611e-003
9.438577e-003
9.438556e-003
9.438549e-003
9.438555e-003
9.438576e-003
9.438612e-003
9.438661e-003
9.438723e-003
9.438798e-003
9.438883e-003
9.438976e-003
9.439076e-003
9.439179e-003
9.439283e-003
9.439385e-003
9.439483e-003
9.439573e-003
9.439655e-003
9.439727e-003
9.439787e-003
9.439836e-003
9.439874e-003
9.439903e-003
9.439922e-003
9.439934e-003
9.439941e-003
9.439943e-003
9.439942e-003
9.439940e-003
9.439936e-003
9.439933e-003
9.439930e-003
9.439928e-003
9.439926e-003
9.439924e-003
9.439923e-003
9.439922e-003
9.439921e-003
9.439921e-003
9.439920e-003
9.439920e-003
9.439920e-003
9.439920e-003
9.439920e-003
9.439920e-003
9.439920e-003
9.439920e-003
9.439920e-003
9.439920e-003
9.439920e-003
9.439920e-003
9.439924e-003
9.439921e-003
9.439918e-003
9.439917e-003
9.439918e-003
9.439921e-003
9.439923e-003
9.439923e-003
9.439920e-003
9.439918e-003
9.439918e-003
9.439920e-003
9.439922e-003
9.439924e-003
9.439924e-003
9.439925e-003
9.439928e-003
9.439931e-003
9.439936e-003
9.439940e-003
9.439943e-003
9.439946e-003
9.439949e-003
9.439949e-003
9.439945e-003
9.439934e-003
9.439915e-003
9.439883e-003
9.439838e-003
9.439776e-003
9.439695e-003
9.439594e-003
9.439472e-003
9.439328e-003
9.439164e-003
9.438981e-003
9.438782e-003
9.438570e-003
9.438348e-003
9.438120e-003
9.437889e-003
9.437661e-003
9.437439e-003
9.437228e-003
9.437030e-003
9.436850e-003
9.436690e-003
9.436555e-003
9.436446e-003
9.436366e-003
9.436316e-003
9.436300e-003
9.436317e-003
9.436369e-003
9.436454e-003
9.436574e-003
9.436726e-003
9.436907e-003
9.437114e-003
9.437343e-003
9.437589e-003
9.437846e-003
9.438107e-003
9.438366e-003
9.438616e-003
9.438852e-003
9.439068e-003
9.439261e-003
9.439428e-003
9.439568e-003
9.439682e-003
9.439770e-003
9.439835e-003
9.439882e-003
9.439912e-003
9.439931e-003
9.439940e-003
9.439943e-003
9.439942e-003
9.439939e-003
9.439936e-003
9.439933e-003
9.439930e-003
9.439927e-003
9.439925e-003
9.439923e-003
9.439922e-003
9.439921e-003
9.439921e-003
9.439920e-003
9.439919e-003
9.439920e-003
9.439920e-003
9.439921e-003
9.439921e-003
9.439920e-003
9.439920e-003
9.439920e-003
9.439920e-003
9.439920e-003
9.439919e-003
9.439919e-003
9.439919e-003
9.439919e-003
9.439920e-003
9.439921e-003
9.439922e-003
9.439921e-003
9.439920e-003
9.439919e-003
9.439920e-003
9.439922e-003
9.439924e-003
9.439926e-003
9.439927e-003
9.439929e-003
9.439932e-003
9.439938e-003
9.439943e-003
9.439948e-003
9.439951e-003
9.439950e-003
9.439945e-003
9.439932e-003
9.439905e-003
9.439860e-003
9.439791e-003
9.439692e-003
9.439558e-003
9.439384e-003
9.439165e-003
9.438899e-003
9.438584e-003
9.438222e-003
9.437815e-003
9.437369e-003
9.436889e-003
9.436382e-003
9.435857e-003
9.435323e-003
9.434789e-003
9.434264e-003
9.433756e-003
9.433275e-003
9.432828e-003
9.432422e-003
9.432065e-003
9.431763e-003
9.431521e-003
9.431344e-003
9.431236e-003
9.431201e-003
9.431241e-003
9.431358e-003
9.431552e-003
9.431822e-003
9.432164e-003
9.432574e-003
9.433045e-003
9.433567e-003
9.434131e-003
9.434723e-003
9.435330e-003
9.435937e-003
9.436530e-003
9.437094e-003
9.437618e-003
9.438092e-003
9.438508e-003
9.438864e-003
9.439159e-003
9.439394e-003
9.439576e-003
9.439711e-003
9.439806e-003
9.439869e-003
9.439909e-003
9.439931e-003
9.439940e-003
9.439943e-003
9.439942e-003
9.439939e-003
9.439935e-003
9.439931e-003
9.439927e-003
9.439925e-003
9.439924e-003
9.439922e-003
9.439922e-003
9.439921e-003
9.439920e-003
9.439920e-003
9.439920e-003
9.439920e-003
9.439920e-003
9.439920e-003
9.439920e-003
9.439920e-003
9.439920e-003
9.439920e-003
9.439916e-003
9.439918e-003
9.439921e-003
9.439922e-003
9.439921e-003
9.439920e-003
9.439919e-003
9.439919e-003
9.439920e-003
9.439921e-003
9.439923e-003
9.439924e-003
9.439926e-003
9.439928e-003
9.439931e-003
9.439935e-003
9.439940e-003
9.439946e-003
9.439951e-003
9.439953e-003
9.439949e-003
9.439934e-003
9.439904e-003
9.439850e-003
9.439761e-003
9.439627e-003
9.439434e-003
9.439171e-003
9.438827e-003
9.438390e-003
9.437853e-003
9.437212e-003
9.436467e-003
9.435622e-003
9.434685e-003
9.433669e-003
9.432588e-003
9.431458e-003
9.430300e-003
9.429132e-003
9.427973e-003
9.426843e-003
9.425758e-003
9.424736e-003
9.423792e-003
9.422940e-003
9.422193e-003
9.421564e-003
9.421062e-003
9.420697e-003
9.420476e-003
9.420407e-003
9.420495e-003
9.420742e-003
9.421149e-003
9.421716e-003
9.422435e-003
9.423300e-003
9.424298e-003
9.425411e-003
9.426618e-003
9.427895e-003
9.429213e-003
9.430543e-003
9.431853e-003
9.433114e-003
9.434297e-003
9.435379e-003
9.436344e-003
9.437180e-003
9.437883e-003
9.438457e-003
9.438909e-003
9.439253e-003
9.439505e-003
9.439681e-003
9.439798e-003
9.439871e-003
9.439913e-003
9.439934e-003
9.439942e-003
9.439943e-003
9.439941e-003
9.439936e-003
9.439932e-003
9.439928e-003
9.439926e-003
9.439924e-003
9.439923e-003
9.439922e-003
9.439921e-003
9.439920e-003
9.439920e-003
9.439920e-003
9.439920e-003
9.439920e-003
9.439920e-003
9.439920e-003
9.439920e-003
9.439920e-003
9.439915e-003
9.439918e-003
9.439922e-003
9.439924e-003
9.439922e-003
9.439919e-003
9.439917e-003
9.439918e-003
9.439921e-003
9.439924e-003
9.439926e-003
9.439927e-003
9.439929e-003
9.439932e-003
9.439937e-003
9.439943e-003
9.439949e-003
9.439954e-003
9.439953e-003
9.439942e-003
9.439915e-003
9.439859e-003
9.439761e-003
9.439604e-003
9.439365e-003
9.439019e-003
9.438542e-003
9.437907e-003
9.437093e-003
9.436080e-003
9.434855e-003
9.433415e-003
9.431764e-003
9.429918e-003
9.427897e-003
9.425731e-003
9.423454e-003
9.421104e-003
9.418720e-003
9.416341e-003
9.414004e-003
9.411745e-003
9.409596e-003
9.407588e-003
9.405748e-003
9.404100e-003
9.402665e-003
9.401462e-003
9.400508e-003
9.399819e-003
9.399408e-003
9.399285e-003
9.399461e-003
9.399941e-003
9.400729e-003
9.401823e-003
9.403216e-003
9.404897e-003
9.406845e-003
9.409033e-003
9.411425e-003
9.413977e-003
9.416637e-003
9.419349e-003
9.422052e-003
9.424682e-003
9.427182e-003
9.429500e-003
9.431592e-003
9.433431e-003
9.435001e-003
9.436301e-003
9.437344e-003
9.438153e-003
9.438759e-003
9.439195e-003
9.439496e-003
9.439693e-003
9.439816e-003
9.439887e-003
9.439924e-003
9.439940e-003
9.439944e-003
9.439942e-003
9.439938e-003
9.439933e-003
9.439929e-003
9.439926e-003
9.439924e-003
9.439923e-003
9.439922e-003
9.439921e-003
9.439920e-003
9.439920e-003
9.439919e-003
9.439920e-003
9.439920e-003
9.439920e-003
9.439920e-003
9.439920e-003
9.439914e-003
9.439918e-003
9.439922e-003
9.439924e-003
9.439922e-003
9.439919e-003
9.439918e-003
9.439920e-003
9.439923e-003
9.439926e-003
9.439928e-003
9.439929e-003
9.439933e-003
9.439938e-003
9.439946e-003
9.439953e-003
9.439957e-003
9.439952e-003
9.439932e-003
9.439885e-003
9.439795e-003
9.439636e-003
9.439378e-003
9.438982e-003
9.438404e-003
9.437593e-003
9.436498e-003
9.435070e-003
9.433269e-003
9.431064e-003
9.428442e-003
9.425406e-003
9.421982e-003
9.418211e-003
9.414148e-003
9.409863e-003
9.405429e-003
9.400925e-003
9.396427e-003
9.392008e-003
9.387733e-003
9.383661e-003
9.379844e-003
9.376325e-003
9.373142e-003
9.370325e-003
9.367900e-003
9.365890e-003
9.364314e-003
9.363191e-003
9.362536e-003
9.362363e-003
9.362686e-003
9.363515e-003
9.364859e-003
9.366722e-003
9.369101e-003
9.371988e-003
9.375363e-003
9.379195e-003
9.383436e-003
9.388026e-003
9.392885e-003
9.397920e-003
9.403023e-003
9.408079e-003
9.412969e-003
9.417581e-003
9.421819e-003
9.425607e-003
9.428895e-003
9.431664e-003
9.433922e-003
9.435704e-003
9.437062e-003
9.438060e-003
9.438766e-003
9.439245e-003
9.439554e-003
9.439744e-003
9.439853e-003
9.439910e-003
9.439935e-003
9.439944e-003
9.439943e-003
9.439939e-003
9.439934e-003
9.439930e-003
9.439926e-003
9.439924e-003
9.439923e-003
9.439922e-003
9.439921e-003
9.439920e-003
9.439920e-003
9.439920e-003
9.439920e-003
9.439920e-003
9.439920e-003
9.439920e-003
9.439915e-003
9.439918e-003
9.439920e-003
9.439922e-003
9.439921e-003
9.439920e-003
9.439920e-003
9.439922e-003
9.439925e-003
9.439928e-003
9.439930e-003
9.439933e-003
9.439939e-003
9.439947e-003
9.439955e-003
9.439958e-003
9.439949e-003
9.439918e-003
9.439848e-003
9.439713e-003
9.439475e-003
9.439083e-003
9.438471e-003
9.437561e-003
9.436264e-003
9.434482e-003
9.432122e-003
9.429100e-003
9.425353e-003
9.420851e-003
9.415598e-003
9.409642e-003
9.403068e-003
9.395992e-003
9.388556e-003
9.380912e-003
9.373216e-003
9.365617e-003
9.358248e-003
9.351223e-003
9.344635e-003
9.338556e-003
9.333035e-003
9.328105e-003
9.323784e-003
9.320078e-003
9.316984e-003
9.314500e-003
9.312617e-003
9.311333e-003
9.310645e-003
9.310556e-003
9.311072e-003
9.312209e-003
9.313984e-003
9.316422e-003
9.319550e-003
9.323395e-003
9.327980e-003
9.333315e-003
9.339395e-003
9.346184e-003
9.353614e-003
9.361579e-003
9.369930e-003
9.378482e-003
9.387023e-003
9.395327e-003
9.403177e-003
9.410379e-003
9.416784e-003
9.422298e-003
9.426890e-003
9.430584e-003
9.433452e-003
9.435600e-003
9.437148e-003
9.438221e-003
9.438935e-003
9.439388e-003
9.439660e-003
9.439814e-003
9.439894e-003
9.439930e-003
9.439943e-003
9.439944e-003
9.439940e-003
9.439934e-003
9.439930e-003
9.439926e-003
9.439924e-003
9.439923e-003
9.439922e-003
9.439921e-003
9.439920e-003
9.439920e-003
9.439920e-003
9.439920e-003
9.439920e-003
9.439920e-003
9.439919e-003
9.439919e-003
9.439919e-003
9.439920e-003
9.439920e-003
9.439922e-003
9.439923e-003
9.439925e-003
9.439928e-003
9.439931e-003
9.439935e-003
9.439941e-003
9.439949e-003
9.439957e-003
9.439959e-003
9.439946e-003
9.439903e-003
9.439807e-003
9.439620e-003
9.439287e-003
9.438728e-003
9.437840e-003
9.436493e-003
9.434534e-003
9.431795e-003
9.428107e-003
9.423314e-003
9.417303e-003
9.410022e-003
9.401496e-003
9.391841e-003
9.381256e-003
9.370014e-003
9.358432e-003
9.346853e-003
9.335606e-003
9.324988e-003
9.315245e-003
9.306558e-003
9.299043e-003
9.292749e-003
9.287666e-003
9.283734e-003
9.280850e-003
9.278886e-003
9.277694e-003
9.277121e-003
9.277019e-003
9.277252e-003
9.277699e-003
9.278262e-003
9.278870e-003
9.279483e-003
9.280099e-003
9.280753e-003
9.281530e-003
9.282558e-003
9.284011e-003
9.286100e-003
9.289058e-003
9.293117e-003
9.298479e-003
9.305288e-003
9.313595e-003
9.323340e-003
9.334333e-003
9.346267e-003
9.358731e-003
9.371258e-003
9.383369e-003
9.394631e-003
9.404702e-003
9.413363e-003
9.420524e-003
9.426220e-003
9.430576e-003
9.433781e-003
9.436046e-003
9.437584e-003
9.438585e-003
9.439206e-003
9.439572e-003
9.439775e-003
9.439878e-003
9.439926e-003
9.439942e-003
9.439944e-003
9.439940e-003
9.439934e-003
9.439930e-003
9.439926e-003
9.439924e-003
9.439923e-003
9.439921e-003
9.439921e-003
9.439920e-003
9.439920e-003
9.439920e-003
9.439920e-003
9.439920e-003
9.439925e-003
9.439922e-003
9.439919e-003
9.439918e-003
9.439920e-003
9.439923e-003
9.439926e-003
9.439928e-003
9.439930e-003
9.439935e-003
9.439942e-003
9.439951e-003
9.439959e-003
9.439960e-003
9.439943e-003
9.439890e-003
9.439768e-003
9.439527e-003
9.439089e-003
9.438340e-003
9.437125e-003
9.435242e-003
9.432446e-003
9.428463e-003
9.423006e-003
9.415819e-003
9.406718e-003
9.395651e-003
9.382739e-003
9.368308e-003
9.352883e-003
9.337161e-003
9.321947e-003
9.308074e-003
9.296323e-003
9.287347e-003
9.281619e-003
9.279411e-003
9.280780e-003
9.285589e-003
9.293526e-003
9.304136e-003
9.316852e-003
9.331031e-003
9.345989e-003
9.361032e-003
9.375486e-003
9.388718e-003
9.400152e-003
9.409285e-003
9.415690e-003
9.419036e-003
9.419099e-003
9.415780e-003
9.409129e-003
9.399366e-003
9.386905e-003
9.372360e-003
9.356542e-003
9.340428e-003
9.325108e-003
9.311704e-003
9.301268e-003
9.294677e-003
9.292522e-003
9.295030e-003
9.302019e-003
9.312906e-003
9.326776e-003
9.342498e-003
9.358879e-003
9.374819e-003
9.389434e-003
9.402134e-003
9.412634e-003
9.420920e-003
9.427172e-003
9.431692e-003
9.434824e-003
9.436905e-003
9.438227e-003
9.439029e-003
9.439491e-003
9.439741e-003
9.439866e-003
9.439922e-003
9.439942e-003
9.439944e-003
9.439940e-003
9.439935e-003
9.439930e-003
9.439926e-003
9.439924e-003
9.439922e-003
9.439921e-003
9.439921e-003
9.439920e-003
9.439920e-003
9.439920e-003
9.439920e-003
9.439929e-003
9.439925e-003
9.439920e-003
9.439918e-003
9.439921e-003
9.439925e-003
9.439928e-003
9.439931e-003
9.439935e-003
9.439942e-003
9.439952e-003
9.439961e-003
9.439962e-003
9.439942e-003
9.439880e-003
9.439737e-003
9.439447e-003
9.438906e-003
9.437960e-003
9.436389e-003
9.433899e-003
9.430124e-003
9.424637e-003
9.416990e-003
9.406787e-003
9.393784e-003
9.378009e-003
9.359890e-003
9.340338e-003
9.320770e-003
9.303037e-003
9.289270e-003
9.281658e-003
9.282207e-003
9.292525e-003
9.313657e-003
9.346006e-003
9.389335e-003
9.442816e-003
9.505124e-003
9.574543e-003
9.649070e-003
9.726515e-003
9.804592e-003
9.881005e-003
9.953527e-003
1.002006e-002
1.007865e-002
1.012758e-002
1.016531e-002
1.019053e-002
1.020219e-002
1.019951e-002
1.018206e-002
1.014983e-002
1.010326e-002
1.004342e-002
9.971969e-003
9.891270e-003
9.804302e-003
9.714576e-003
9.625944e-003
9.542332e-003
9.467426e-003
9.404329e-003
9.355240e-003
9.321209e-003
9.302019e-003
9.296238e-003
9.301446e-003
9.314618e-003
9.332571e-003
9.352395e-003
9.371767e-003
9.389110e-003
9.403587e-003
9.414971e-003
9.423463e-003
9.429497e-003
9.433594e-003
9.436254e-003
9.437904e-003
9.438881e-003
9.439429e-003
9.439719e-003
9.439860e-003
9.439921e-003
9.439942e-003
9.439944e-003
9.439940e-003
9.439934e-003
9.439929e-003
9.439926e-003
9.439923e-003
9.439922e-003
9.439921e-003
9.439920e-003
9.439920e-003
9.439920e-003
9.439921e-003
9.439929e-003
9.439925e-003
9.439921e-003
9.439920e-003
9.439923e-003
9.439927e-003
9.439931e-003
9.439935e-003
9.439941e-003
9.439951e-003
9.439960e-003
9.439963e-003
9.439944e-003
9.439878e-003
9.439720e-003
9.439392e-003
9.438764e-003
9.437636e-003
9.435716e-003
9.432601e-003
9.427771e-003
9.420603e-003
9.410441e-003
9.396718e-003
9.379171e-003
9.358114e-003
9.334747e-003
9.311423e-003
9.291760e-003
9.280530e-003
9.283297e-003
9.305840e-003
9.353470e-003
9.430387e-003
9.539190e-003
9.680619e-003
9.853533e-003
1.005510e-002
1.028113e-002
1.052639e-002
1.078499e-002
1.105066e-002
1.131697e-002
1.157758e-002
1.182636e-002
1.205757e-002
1.226592e-002
1.244663e-002
1.259543e-002
1.270858e-002
1.278285e-002
1.281553e-002
1.280452e-002
1.274844e-002
1.264681e-002
1.250031e-002
1.231099e-002
1.208257e-002
1.182055e-002
1.153229e-002
1.122689e-002
1.091483e-002
1.060746e-002
1.031617e-002
1.005154e-002
9.822355e-003
9.634695e-003
9.491291e-003
9.391275e-003
9.330449e-003
9.302061e-003
9.297943e-003
9.309764e-003
9.330119e-003
9.353241e-003
9.375258e-003
9.394051e-003
9.408854e-003
9.419784e-003
9.427420e-003
9.432496e-003
9.435714e-003
9.437661e-003
9.438784e-003
9.439397e-003
9.439711e-003
9.439860e-003
9.439922e-003
9.439942e-003
9.439944e-003
9.439939e-003
9.439933e-003
9.439928e-003
9.439925e-003
9.439923e-003
9.439922e-003
9.439920e-003
9.439920e-003
9.439920e-003
9.439921e-003
9.439924e-003
9.439923e-003
9.439921e-003
9.439922e-003
9.439926e-003
9.439931e-003
9.439936e-003
9.439942e-003
9.439950e-003
9.439960e-003
9.439964e-003
9.439948e-003
9.439883e-003
9.439720e-003
9.439370e-003
9.438682e-003
9.437413e-003
9.435196e-003
9.431506e-003
9.425646e-003
9.416760e-003
9.403935e-003
9.386414e-003
9.364004e-003
9.337658e-003
9.310212e-003
9.287096e-003
9.276786e-003
9.290738e-003
9.342641e-003
9.447034e-003
9.617518e-003
9.864949e-003
1.019599e-002
1.061230e-002
1.111043e-002
1.168235e-002
1.231642e-002
1.299850e-002
1.371308e-002
1.444409e-002
1.517562e-002
1.589236e-002
1.657989e-002
1.722491e-002
1.781538e-002
1.834055e-002
1.879091e-002
1.915809e-002
1.943472e-002
1.961431e-002
1.969120e-002
1.966066e-002
1.951910e-002
1.926447e-002
1.889676e-002
1.841868e-002
1.783633e-002
1.715980e-002
1.640363e-002
1.558692e-002
1.473306e-002
1.386883e-002
1.302309e-002
1.222476e-002
1.150042e-002
1.087174e-002
1.035308e-002
9.949905e-003
9.658362e-003
9.466360e-003
9.355923e-003
9.306333e-003
9.297305e-003
9.311487e-003
9.335841e-003
9.361860e-003
9.384916e-003
9.403183e-003
9.416543e-003
9.425713e-003
9.431674e-003
9.435361e-003
9.437534e-003
9.438753e-003
9.439399e-003