# vtk DataFile Version 3.0
vtk output
ASCII
DATASET STRUCTURED_POINTS
DIMENSIONS 100 100 1
SPACING 1 1 1
ORIGIN 0 0 0
POINT_DATA 10000
SCALARS SFBox_profile double
LOOKUP_TABLE default 
0.000000e+000
0.000000e+000
0.000000e+000
0.000000e+000
0.000000e+000
0.000000e+000
0.000000e+000
0.000000e+000
0.000000e+000
0.000000e+000
0.000000e+000
0.000000e+000
0.000000e+000
0.000000e+000
0.000000e+000
0.000000e+000
0.000000e+000
0.000000e+000
0.000000e+000
0.000000e+000
0.000000e+000
0.000000e+000
0.000000e+000
0.000000e+000
0.000000e+000
0.000000e+000
0.000000e+000
0.000000e+000
0.000000e+000
0.000000e+000
0.000000e+000
0.000000e+000
0.000000e+000
0.000000e+000
0.000000e+000
0.000000e+000
0.000000e+000
0.000000e+000
0.000000e+000
0.000000e+000
0.000000e+000
0.000000e+000
0.000000e+000
0.000000e+000
0.000000e+000
0.000000e+000
0.000000e+000
0.000000e+000
0.000000e+000
0.000000e+000
0.000000e+000
0.000000e+000
0.000000e+000
0.000000e+000
0.000000e+000
0.000000e+000
0.000000e+000
0.000000e+000
0.000000e+000
0.000000e+000
0.000000e+000
0.000000e+000
0.000000e+000
0.000000e+000
0.000000e+000
0.000000e+000
0.000000e+000
0.000000e+000
0.000000e+000
0.000000e+000
0.000000e+000
0.000000e+000
0.000000e+000
0.000000e+000
0.000000e+000
0.000000e+000
0.000000e+000
0.000000e+000
0.000000e+000
0.000000e+000
0.000000e+000
0.000000e+000
0.000000e+000
0.000000e+000
0.000000e+000
0.000000e+000
0.000000e+000
0.000000e+000
0.000000e+000
0.000000e+000
0.000000e+000
0.000000e+000
0.000000e+000
0.000000e+000
0.000000e+000
0.000000e+000
0.000000e+000
0.000000e+000
0.000000e+000
0.000000e+000
1.325542e-008
8.567905e-009
1.826729e-009
-3.401586e-009
-4.861454e-009
-2.868547e-009
2.394489e-010
1.984631e-009
1.516847e-009
-5.414860e-011
-9.129909e-010
-2.306182e-010
1.181263e-009
1.765088e-009
7.596404e-010
-1.078546e-009
-2.221145e-009
-1.807499e-009
-3.709271e-010
7.927751e-010
8.991632e-010
3.012188e-010
-7.128342e-011
2.383102e-010
7.968586e-010
8.567891e-010
2.164527e-010
-5.720586e-010
-8.107656e-010
-3.682296e-010
2.565938e-010
5.164528e-010
3.656309e-010
2.114387e-010
3.992740e-010
8.409936e-010
1.167531e-009
1.174383e-009
1.035703e-009
1.073593e-009
1.382105e-009
1.737238e-009
1.866613e-009
1.747431e-009
1.602501e-009
1.631385e-009
1.802312e-009
1.925756e-009
1.890515e-009
1.775963e-009
1.730275e-009
1.785093e-009
1.829470e-009
1.755836e-009
1.590016e-009
1.455647e-009
1.428413e-009
1.453757e-009
1.412177e-009
1.247332e-009
1.018386e-009
8.347683e-010
7.517976e-010
7.286746e-010
6.787151e-010
5.577728e-010
4.075032e-010
3.097883e-010
2.902285e-010
2.700786e-010
1.365993e-010
-1.197826e-010
-3.514716e-010
-3.736393e-010
-1.572731e-010
1.198098e-010
2.486711e-010
2.130769e-010
1.962017e-010
3.369823e-010
5.119787e-010
4.272865e-010
-3.975135e-011
-6.269483e-010
-8.795610e-010
-5.853304e-010
2.357758e-012
4.034153e-010
3.719399e-010
1.021051e-010
-2.152108e-011
1.515702e-010
3.861520e-010
3.246673e-010
-1.211806e-010
-6.467317e-010
-8.098684e-010
-4.179142e-010
2.963720e-010
8.439768e-010
3.026441e-009
1.764994e-009
1.477558e-011
-1.181847e-009
-1.198398e-009
-2.351632e-010
8.464787e-010
1.174882e-009
5.312605e-010
-5.024753e-010
-1.053568e-009
-7.098054e-010
1.442985e-010
7.138438e-010
5.433870e-010
-8.286971e-011
-4.691725e-010
-2.230482e-010
3.676199e-010
6.634186e-010
3.452920e-010
-2.737777e-010
-5.995771e-010
-3.711806e-010
1.106484e-010
3.471998e-010
1.715927e-010
-1.212122e-010
-1.424996e-010
1.597276e-010
4.712084e-010
4.784926e-010
2.049865e-010
-4.171899e-011
-2.132370e-011
1.924148e-010
3.259488e-010
2.251767e-010
1.382390e-011
-6.862224e-011
5.665735e-011
2.336171e-010
2.662146e-010
1.422697e-010
3.127052e-011
7.623937e-011
2.329488e-010
3.364759e-010
2.999631e-010
2.056025e-010
1.923210e-010
2.885441e-010
3.890965e-010
3.894966e-010
3.069037e-010
2.496439e-010
2.862229e-010
3.734736e-010
4.166166e-010
3.771877e-010
3.054016e-010
2.752938e-010
3.062419e-010
3.510954e-010
3.496329e-010
2.874721e-010
2.093184e-010
1.796011e-010
2.224562e-010
2.914573e-010
3.048468e-010
2.261437e-010
1.112793e-010
5.765665e-011
9.335723e-011
1.313180e-010
6.117995e-011
-1.090476e-010
-2.320714e-010
-1.711333e-010
3.544381e-011
1.931346e-010
1.536183e-010
-1.967592e-011
-1.179322e-010
-2.073804e-011
1.643073e-010
2.172283e-010
5.001300e-011
-1.912795e-010
-2.764949e-010
-1.265494e-010
1.145803e-010
2.314539e-010
1.410124e-010
-5.137191e-011
-1.709324e-010
-1.296879e-010
1.856562e-011
1.428779e-010
-9.152108e-009
-6.149600e-009
-1.774153e-009
1.788530e-009
3.156533e-009
2.436735e-009
8.334617e-010
-3.918435e-010
-7.538973e-010
-5.987484e-010
-5.117588e-010
-7.028287e-010
-8.901641e-010
-6.768145e-010
1.390808e-011
8.485107e-010
1.364244e-009
1.319997e-009
8.196228e-010
1.663412e-010
-3.681337e-010
-6.669727e-010
-7.423167e-010
-6.493461e-010
-4.355750e-010
-1.433457e-010
1.742315e-010
4.555659e-010
6.458230e-010
7.081356e-010
6.315618e-010
4.447424e-010
2.233574e-010
6.260053e-011
1.396096e-011
3.901087e-011
3.947831e-011
-4.918201e-011
-1.930373e-010
-2.989106e-010
-3.190638e-010
-3.010011e-010
-3.212317e-010
-3.827826e-010
-4.063711e-010
-3.322199e-010
-2.071804e-010
-1.422154e-010
-1.843745e-010
-2.583760e-010
-2.520446e-010
-1.441834e-010
-2.259231e-011
2.350467e-011
1.748773e-012
-7.758913e-012
4.405279e-011
1.258041e-010
1.811091e-010
2.044929e-010
2.394653e-010
3.114804e-010
3.896128e-010
4.227269e-010
3.966660e-010
3.420261e-010
2.961774e-010
2.771394e-010
2.933655e-010
3.545521e-010
4.538058e-010
5.471968e-010
5.730477e-010
5.004618e-010
3.502362e-010
1.625205e-010
-4.396800e-011
-2.640752e-010
-4.596059e-010
-5.429923e-010
-4.315208e-010
-1.281613e-010
2.526959e-010
5.450272e-010
6.281989e-010
4.886014e-010
2.124941e-010
-7.288794e-011
-2.698591e-010
-3.525111e-010
-3.545024e-010
-3.107177e-010
-2.068708e-010
6.758732e-013
2.976477e-010
5.491315e-010
5.599259e-010
2.413823e-010
-2.639771e-010
-6.441186e-010
-1.380068e-008
-8.804636e-009
-1.716059e-009
3.611768e-009
4.880404e-009
2.626305e-009
-5.587809e-010
-2.150055e-009
-1.467402e-009
2.022874e-010
1.042784e-009
3.548415e-010
-9.913612e-010
-1.549590e-009
-7.016985e-010
8.322594e-010
1.754360e-009
1.400496e-009
2.481506e-010
-6.647957e-010
-7.383359e-010
-2.430259e-010
1.325549e-010
4.479841e-011
-2.283330e-010
-1.965842e-010
2.702013e-010
8.251066e-010
1.045251e-009
8.641557e-010
5.828442e-010
5.137375e-010
6.858957e-010
8.999956e-010
9.978081e-010
1.011941e-009
1.065932e-009
1.199606e-009
1.336975e-009
1.399001e-009
1.394925e-009
1.391845e-009
1.431215e-009
1.503309e-009
1.584869e-009
1.664126e-009
1.724296e-009
1.735874e-009
1.691098e-009
1.633123e-009
1.622246e-009
1.668728e-009
1.719618e-009
1.722183e-009
1.683036e-009
1.646670e-009
1.627979e-009
1.595908e-009
1.529958e-009
1.463530e-009
1.443529e-009
1.457123e-009
1.432409e-009
1.323477e-009
1.169660e-009
1.044949e-009
9.610517e-010
8.572889e-010
6.986172e-010
5.510472e-010
5.193843e-010
6.094235e-010
6.898406e-010
6.205609e-010
4.072432e-010
1.950284e-010
9.933864e-011
7.141226e-011
-3.386107e-011
-2.561922e-010
-4.320215e-010
-3.374218e-010
5.983575e-011
5.099969e-010
6.731227e-010
4.236487e-010
-2.873750e-011
-3.276583e-010
-2.928956e-010
-6.924575e-011
4.030074e-011
-1.069253e-010
-3.368910e-010
-3.260428e-010
5.946271e-011
5.808002e-010
7.952899e-010
4.459608e-010
-2.774300e-010
-8.563300e-010
-8.039885e-009
-4.576963e-009
1.339750e-010
3.198449e-009
3.034354e-009
3.969584e-010
-2.313315e-009
-2.936993e-009
-1.173048e-009
1.345860e-009
2.539919e-009
1.637543e-009
-3.066840e-010
-1.514851e-009
-1.129000e-009
1.319984e-010
8.373436e-010
3.006725e-010
-8.145175e-010
-1.266660e-009
-5.225048e-010
7.590577e-010
1.467369e-009
1.160661e-009
4.059125e-010
7.573097e-011
4.356703e-010
9.849270e-010
1.119434e-009
8.102755e-010
5.694648e-010
8.294924e-010
1.482829e-009
2.060269e-009
2.268236e-009
2.252512e-009
2.348278e-009
2.676235e-009
3.052378e-009
3.249696e-009
3.253466e-009
3.229831e-009
3.304883e-009
3.441379e-009
3.524119e-009
3.504504e-009
3.429706e-009
3.362580e-009
3.318540e-009
3.280214e-009
3.236238e-009
3.186361e-009
3.128835e-009
3.066162e-009
3.014327e-009
2.982207e-009
2.942969e-009
2.853356e-009
2.714207e-009
2.588117e-009
2.528492e-009
2.499971e-009
2.406352e-009
2.211332e-009
1.999014e-009
1.876363e-009
1.824542e-009
1.696256e-009
1.389308e-009
9.938279e-010
7.168082e-010
6.523791e-010
6.713713e-010
5.784633e-010
3.607444e-010
2.217979e-010
3.374346e-010
6.095500e-010
7.229119e-010
4.720518e-010
3.109316e-012
-3.123577e-010
-2.543442e-010
1.927835e-011
1.455666e-010
-5.087624e-011
-3.630547e-010
-4.147432e-010
-6.277634e-011
4.281910e-010
6.219607e-010
3.267098e-010
-2.156669e-010
-5.461064e-010
-4.010434e-010
6.196826e-011
4.205905e-010
3.692114e-010
-2.023772e-011
-3.791230e-010
2.684399e-009
2.431894e-009
1.846250e-009
8.370992e-010
-5.256586e-010
-1.839857e-009
-2.438315e-009
-1.816917e-009
-1.541516e-010
1.604549e-009
2.348536e-009
1.677110e-009
2.500082e-010
-7.889090e-010
-8.295273e-010
-2.827758e-010
-5.109834e-011
-5.236375e-010
-1.144770e-009
-1.016829e-009
9.953450e-011
1.461059e-009
2.052881e-009
1.585419e-009
7.288835e-010
3.718339e-010
7.333351e-010
1.266027e-009
1.375025e-009
1.094413e-009
9.828678e-010
1.427642e-009
2.190674e-009
2.689071e-009
2.636207e-009
2.300891e-009
2.142420e-009
2.297959e-009
2.500321e-009
2.446801e-009
2.137487e-009
1.815240e-009
1.648602e-009
1.562157e-009
1.377128e-009
1.043095e-009
6.823353e-010
4.360105e-010
3.229365e-010
2.564638e-010
1.578555e-010
2.548836e-011
-8.545210e-011
-1.166827e-010
-4.265010e-011
1.150651e-010
2.957056e-010
4.434980e-010
5.643459e-010
7.253393e-010
9.719267e-010
1.250417e-009
1.448077e-009
1.527100e-009
1.587432e-009
1.752403e-009
1.992825e-009
2.113616e-009
1.953087e-009
1.576918e-009
1.226339e-009
1.061550e-009
9.980590e-010
8.388289e-010
5.514692e-010
3.499408e-010
4.584687e-010
8.173659e-010
1.082059e-009
9.456435e-010
4.452277e-010
-7.948218e-011
-3.270056e-010
-3.043460e-010
-2.498239e-010
-3.218837e-010
-4.129444e-010
-2.879926e-010
1.189908e-010
5.820521e-010
7.659941e-010
5.240609e-010
1.889656e-011
-4.268046e-010
-5.836655e-010
-4.461111e-010
-1.688056e-010
8.447014e-011
2.383330e-010
3.006456e-010
9.971151e-009
6.473235e-009
1.566217e-009
-2.096312e-009
-3.093879e-009
-1.916990e-009
-1.703038e-010
8.243518e-010
8.221664e-010
3.889078e-010
1.091952e-010
1.057276e-010
1.735210e-010
1.571324e-010
8.561362e-011
1.680321e-011
-8.300955e-011
-2.254182e-010
-2.490382e-010
7.233685e-011
7.190612e-010
1.310774e-009
1.423970e-009
1.051298e-009
6.672424e-010
7.635872e-010
1.336410e-009
1.901420e-009
2.030098e-009
1.799433e-009
1.646340e-009
1.811144e-009
2.027673e-009
1.815047e-009
1.017096e-009
-3.779647e-011
-9.178987e-010
-1.545545e-009
-2.215626e-009
-3.202966e-009
-4.446526e-009
-5.653392e-009
-6.646207e-009
-7.525242e-009
-8.487912e-009
-9.561714e-009
-1.056656e-008
-1.131440e-008
-1.178902e-008
-1.211805e-008
-1.240952e-008
-1.264766e-008
-1.272974e-008
-1.256558e-008
-1.213623e-008
-1.148838e-008
-1.069552e-008
-9.811248e-009
-8.835994e-009
-7.731669e-009
-6.491157e-009
-5.196444e-009
-3.980680e-009
-2.910840e-009
-1.924523e-009
-9.190570e-010
8.951790e-011
9.297594e-010
1.429403e-009
1.598340e-009
1.622442e-009
1.662392e-009
1.687661e-009
1.544784e-009
1.184436e-009
7.772705e-010
5.707105e-010
6.385767e-010
8.019810e-010
8.083777e-010
5.726407e-010
2.312285e-010
-1.979643e-011
-1.062459e-010
-9.503351e-011
-7.476247e-011
-6.074456e-011
-1.790720e-011
6.371399e-011
1.497195e-010
2.053400e-010
2.207341e-010
1.805706e-010
4.405049e-011
-1.978584e-010
-4.408259e-010
-4.911864e-010
-2.290773e-010
2.353403e-010
5.984362e-010
9.546930e-009
5.198383e-009
-5.205733e-010
-3.920063e-009
-3.312839e-009
-4.477748e-011
2.858810e-009
3.181769e-009
1.068445e-009
-1.487633e-009
-2.532134e-009
-1.672239e-009
-4.049141e-011
9.809402e-010
9.446441e-010
4.336465e-010
2.418787e-010
5.962464e-010
1.110291e-009
1.310047e-009
1.087258e-009
6.964663e-010
4.606727e-010
5.498665e-010
9.600241e-010
1.564662e-009
2.140740e-009
2.430098e-009
2.283702e-009
1.763953e-009
1.046357e-009
1.840612e-010
-9.955890e-010
-2.712215e-009
-4.961411e-009
-7.479681e-009
-1.000747e-008
-1.255056e-008
-1.533098e-008
-1.848448e-008
-2.186032e-008
-2.515029e-008
-2.818225e-008
-3.103410e-008
-3.385565e-008
-3.662931e-008
-3.914644e-008
-4.120148e-008
-4.276244e-008
-4.393582e-008
-4.479725e-008
-4.529033e-008
-4.528308e-008
-4.468866e-008
-4.351804e-008
-4.183990e-008
-3.971829e-008
-3.718826e-008
-3.426915e-008
-3.099257e-008
-2.743235e-008
-2.372088e-008
-2.002489e-008
-1.648066e-008
-1.314356e-008
-1.001260e-008
-7.113529e-009
-4.546995e-009
-2.436420e-009
-8.257646e-010
3.558952e-010
1.216509e-009
1.793993e-009
2.040917e-009
1.920588e-009
1.511479e-009
1.009004e-009
6.203476e-010
4.476780e-010
4.522493e-010
5.118466e-010
5.165486e-010
4.386086e-010
3.386766e-010
3.037245e-010
3.528301e-010
3.879694e-010
2.590345e-010
-8.054140e-011
-4.667852e-010
-6.088868e-010
-3.404679e-010
1.816380e-010
5.564236e-010
4.749017e-010
1.561577e-011
-4.040154e-010
-4.072178e-010
-1.510459e-011
3.739905e-010
3.690820e-009
9.885926e-010
-2.274842e-009
-3.507625e-009
-1.726732e-009
1.650523e-009
3.943796e-009
3.373834e-009
4.686525e-010
-2.463545e-009
-3.310595e-009
-1.836001e-009
3.728805e-010
1.505758e-009
1.105482e-009
1.996220e-010
5.288686e-011
9.006437e-010
1.877002e-009
2.037815e-009
1.322591e-009
5.216729e-010
4.279193e-010
1.114942e-009
1.990249e-009
2.401260e-009
2.104233e-009
1.218147e-009
-1.198433e-010
-1.969975e-009
-4.521443e-009
-7.913885e-009
-1.215566e-008
-1.716230e-008
-2.282170e-008
-2.903582e-008
-3.575120e-008
-4.296799e-008
-5.068550e-008
-5.880184e-008
-6.707289e-008
-7.520575e-008
-8.301235e-008
-9.046000e-008
-9.755821e-008
-1.042082e-007
-1.101868e-007
-1.152770e-007
-1.193893e-007
-1.225348e-007
-1.246955e-007
-1.257534e-007
-1.255583e-007
-1.240443e-007
-1.212602e-007
-1.172920e-007
-1.121859e-007
-1.059615e-007
-9.868713e-008
-9.052087e-008
-8.168144e-008
-7.240039e-008
-6.291599e-008
-5.349436e-008
-4.441830e-008
-3.592864e-008
-2.817524e-008
-2.123558e-008
-1.517965e-008
-1.009880e-008
-6.054272e-009
-3.001691e-009
-7.908038e-010
7.373340e-010
1.652912e-009
1.957941e-009
1.722447e-009
1.191313e-009
7.178248e-010
5.486670e-010
6.562913e-010
7.963089e-010
7.546732e-010
5.504619e-010
3.903139e-010
4.181209e-010
5.229861e-010
4.249730e-010
-2.261747e-011
-6.167312e-010
-9.212786e-010
-6.459933e-010
5.964675e-011
6.933019e-010
8.131399e-010
4.057565e-010
-1.317816e-010
-3.732752e-010
-2.401114e-010
-1.791152e-011
-2.326920e-009
-2.178737e-009
-1.768640e-009
-9.440454e-010
2.730800e-010
1.460936e-009
1.900149e-009
1.136179e-009
-4.355496e-010
-1.658690e-009
-1.526025e-009
-1.394634e-010
1.291339e-009
1.546943e-009
5.644356e-010
-5.185199e-010
-5.147803e-010
6.423107e-010
1.906993e-009
2.252146e-009
1.696920e-009
1.169969e-009
1.424630e-009
2.193442e-009
2.422051e-009
1.228816e-009
-1.464454e-009
-5.206959e-009
-9.762284e-009
-1.547350e-008
-2.293868e-008
-3.245535e-008
-4.384464e-008
-5.674985e-008
-7.099318e-008
-8.660965e-008
-1.036050e-007
-1.217607e-007
-1.406725e-007
-1.599168e-007
-1.791459e-007
-1.980640e-007
-2.163840e-007
-2.338314e-007
-2.501595e-007
-2.651279e-007
-2.784744e-007
-2.899377e-007
-2.993098e-007
-3.064403e-007
-3.111750e-007
-3.133164e-007
-3.126802e-007
-3.091950e-007
-3.029181e-007
-2.939398e-007
-2.822995e-007
-2.680352e-007
-2.513201e-007
-2.325207e-007
-2.121040e-007
-1.905112e-007
-1.681595e-007
-1.455629e-007
-1.233877e-007
-1.023224e-007
-8.286770e-008
-6.527079e-008
-4.966965e-008
-3.625806e-008
-2.524896e-008
-1.666033e-008
-1.018678e-008
-5.350627e-009
-1.806295e-009
5.269757e-010
1.655480e-009
1.810130e-009
1.501096e-009
1.236258e-009
1.188914e-009
1.168830e-009
9.292998e-010
4.855243e-010
1.160571e-010
6.449003e-011
2.726540e-010
4.298417e-010
2.832618e-010
-1.101042e-010
-4.374423e-010
-4.252246e-010
-8.536825e-011
3.088284e-010
4.707700e-010
3.306452e-010
5.107848e-011
-1.528057e-010
-2.000436e-010
-1.697794e-010
-5.366187e-009
-2.677190e-009
6.682377e-010
2.362240e-009
1.670399e-009
-2.665640e-010
-1.713753e-009
-1.795295e-009
-8.360497e-010
3.584206e-010
1.260173e-009
1.711815e-009
1.628949e-009
9.596154e-010
-2.332440e-011
-6.489133e-010
-3.379821e-010
7.882300e-010
1.933082e-009
2.373073e-009
2.137067e-009
1.819058e-009
1.683160e-009
1.047047e-009
-1.353540e-009
-6.409022e-009
-1.413095e-008
-2.411367e-008
-3.639543e-008
-5.174631e-008
-7.109947e-008
-9.479099e-008
-1.224130e-007
-1.533346e-007
-1.872242e-007
-2.240095e-007
-2.634232e-007
-3.047255e-007
-3.469141e-007
-3.891387e-007
-4.308584e-007
-4.716453e-007
-5.109467e-007
-5.480871e-007
-5.824484e-007
-6.135745e-007
-6.411016e-007
-6.646504e-007
-6.838220e-007
-6.982554e-007
-7.076390e-007
-7.116748e-007
-7.100957e-007
-7.027480e-007
-6.896269e-007
-6.707969e-007
-6.463068e-007
-6.162562e-007
-5.809797e-007
-5.411359e-007
-4.975744e-007
-4.511355e-007
-4.026380e-007
-3.530736e-007
-3.037397e-007
-2.560699e-007
-2.112759e-007
-1.701547e-007
-1.332316e-007
-1.010090e-007
-7.395963e-008
-5.222383e-008
-3.536736e-008
-2.253657e-008
-1.291375e-008
-6.028034e-009
-1.631711e-009
6.647353e-010
1.551023e-009
1.778500e-009
1.792519e-009
1.636841e-009
1.211920e-009
5.861556e-010
3.788679e-011
-1.713939e-010
-1.662638e-011
2.986789e-010
5.297201e-010
5.520443e-010
3.815571e-010
1.085512e-010
-1.545457e-010
-2.985916e-010
-2.616778e-010
-8.495755e-011
9.382109e-011
1.432667e-010
5.495579e-011
-5.119061e-011
-5.951550e-009
-1.965428e-009
2.717225e-009
4.413215e-009
2.155595e-009
-1.752078e-009
-4.008348e-009
-3.125043e-009
-2.852247e-010
2.150599e-009
2.752364e-009
1.826765e-009
6.032413e-010
-1.011100e-011
9.756774e-011
6.120139e-010
1.269846e-009
1.921997e-009
2.369450e-009
2.363981e-009
1.747827e-009
3.793152e-010
-2.230834e-009
-7.151302e-009
-1.573379e-008
-2.900492e-008
-4.740907e-008
-7.121952e-008
-1.011456e-007
-1.383782e-007
-1.839229e-007
-2.378912e-007
-2.994783e-007
-3.675932e-007
-4.414004e-007
-5.202120e-007
-6.029716e-007
-6.880380e-007
-7.735723e-007
-8.581047e-007
-9.406722e-007
-1.020461e-006
-1.096446e-006
-1.167439e-006
-1.232416e-006
-1.290688e-006
-1.341752e-006
-1.385062e-006
-1.419995e-006
-1.445983e-006
-1.462579e-006
-1.469382e-006
-1.465989e-006
-1.452066e-006
-1.427447e-006
-1.392103e-006
-1.346059e-006
-1.289439e-006
-1.222692e-006
-1.146732e-006
-1.062833e-006
-9.723978e-007
-8.769135e-007
-7.781746e-007
-6.784678e-007
-5.804035e-007
-4.864600e-007
-3.986403e-007
-3.185047e-007
-2.473844e-007
-1.863696e-007
-1.359736e-007
-9.582179e-008
-6.476282e-008
-4.136656e-008
-2.437449e-008
-1.275552e-008
-5.473994e-009
-1.356142e-009
7.467333e-010
1.683092e-009
1.914963e-009
1.677864e-009
1.178577e-009
6.428291e-010
2.459315e-010
7.150604e-011
1.368205e-010
3.983024e-010
7.043287e-010
8.044743e-010
5.118946e-010
-8.817824e-011
-6.283691e-010
-7.368656e-010
-3.722983e-010
1.280567e-010
3.636917e-010
2.431192e-010
3.181753e-011
-5.649419e-009
-1.910723e-009
2.443099e-009
3.946810e-009
1.782887e-009
-1.718803e-009
-3.375828e-009
-1.984278e-009
8.892358e-010
2.646143e-009
2.068914e-009
1.642002e-010
-1.079513e-009
-5.665560e-010
1.176158e-009
2.812945e-009
3.465225e-009
3.174112e-009
2.351312e-009
9.850836e-010
-1.657511e-009
-6.811183e-009
-1.592829e-008
-3.059753e-008
-5.253689e-008
-8.348793e-008
-1.250935e-007
-1.789142e-007
-2.464775e-007
-3.290607e-007
-4.271679e-007
-5.401104e-007
-6.661378e-007
-8.030372e-007
-9.486168e-007
-1.100649e-006
-1.256517e-006
-1.413172e-006
-1.567630e-006
-1.717545e-006
-1.861278e-006
-1.997457e-006
-2.124598e-006
-2.241201e-006
-2.346136e-006
-2.438773e-006
-2.518717e-006
-2.585474e-006
-2.638431e-006
-2.677055e-006
-2.700974e-006
-2.709833e-006
-2.703146e-006
-2.680372e-006
-2.641086e-006
-2.585005e-006
-2.511893e-006
-2.421569e-006
-2.314137e-006
-2.190241e-006
-2.051084e-006
-1.898277e-006
-1.733820e-006
-1.560336e-006
-1.381303e-006
-1.200944e-006
-1.023751e-006
-8.540008e-007
-6.955344e-007
-5.517227e-007
-4.253029e-007
-3.179817e-007
-2.300797e-007
-1.605590e-007
-1.074530e-007
-6.838482e-008
-4.088443e-008
-2.250510e-008
-1.092423e-008
-4.108914e-009
-4.454171e-010
1.263690e-009
1.875125e-009
1.939237e-009
1.709105e-009
1.246721e-009
6.377154e-010
1.248379e-010
-1.747919e-011
2.365324e-010
5.618032e-010
5.461136e-010
9.799808e-011
-4.327403e-010
-5.852357e-010
-2.487276e-010
2.271656e-010
3.950195e-010
1.635331e-010
-1.367518e-010
-4.274388e-009
-2.227592e-009
2.541123e-010
1.379841e-009
7.301810e-010
-4.941885e-010
-7.290963e-010
4.055189e-010
1.758477e-009
1.834853e-009
3.515516e-010
-1.379579e-009
-1.634417e-009
1.232092e-010
2.761039e-009
4.508121e-009
4.390945e-009
2.647750e-009
-2.011551e-010
-4.632210e-009
-1.256434e-008
-2.678084e-008
-5.013549e-008
-8.534053e-008
-1.353096e-007
-2.034086e-007
-2.931577e-007
-4.075380e-007
-5.483504e-007
-7.158562e-007
-9.086436e-007
-1.123673e-006
-1.356582e-006
-1.602235e-006
-1.855268e-006
-2.110356e-006
-2.362278e-006
-2.606105e-006
-2.837660e-006
-3.053929e-006
-3.253023e-006
-3.433732e-006
-3.595155e-006
-3.736770e-006
-3.858695e-006
-3.961664e-006
-4.046600e-006
-4.114216e-006
-4.165002e-006
-4.199456e-006
-4.218136e-006
-4.221407e-006
-4.209186e-006
-4.180985e-006
-4.136108e-006
-4.073690e-006
-3.992535e-006
-3.891047e-006
-3.767449e-006
-3.620175e-006
-3.448159e-006
-3.250970e-006
-3.029038e-006
-2.784061e-006
-2.519448e-006
-2.240453e-006
-1.953892e-006
-1.667594e-006
-1.389791e-006
-1.128507e-006
-8.908435e-007
-6.822232e-007
-5.057853e-007
-3.621818e-007
-2.498121e-007
-1.653551e-007
-1.044364e-007
-6.232162e-008
-3.452586e-008
-1.718838e-008
-7.143765e-009
-1.823265e-009
7.767754e-010
1.987491e-009
2.418665e-009
2.195972e-009
1.413583e-009
4.371573e-010
-2.172918e-010
-2.784451e-010
5.705830e-011
3.372468e-010
2.947193e-010
6.132710e-011
-4.466103e-011
9.870569e-011
2.865297e-010
2.350311e-010
-8.260766e-011
-3.879531e-010
-4.755620e-010
-1.083357e-009
-1.661785e-009
-1.540375e-009
-6.023680e-010
6.820032e-010
1.680676e-009
1.988750e-009
1.522205e-009
4.892349e-010
-5.800949e-010
-9.178612e-010
3.558121e-011
2.038263e-009
3.938708e-009
4.350327e-009
2.518194e-009
-1.615763e-009
-8.439318e-009
-1.993371e-008
-4.002063e-008
-7.377110e-008
-1.263899e-007
-2.029505e-007
-3.088103e-007
-4.497193e-007
-6.308836e-007
-8.553289e-007
-1.122605e-006
-1.428505e-006
-1.765626e-006
-2.124182e-006
-2.492807e-006
-2.859457e-006
-3.212481e-006
-3.541623e-006
-3.838672e-006
-4.097764e-006
-4.315484e-006
-4.490825e-006
-4.624877e-006
-4.720276e-006
-4.780708e-006
-4.810708e-006
-4.815597e-006
-4.801177e-006
-4.773155e-006
-4.736682e-006
-4.696327e-006
-4.656276e-006
-4.620318e-006
-4.591459e-006
-4.571550e-006
-4.561204e-006
-4.559863e-006
-4.565676e-006
-4.575128e-006
-4.582764e-006
-4.581282e-006
-4.562005e-006
-4.515510e-006
-4.432358e-006
-4.303998e-006
-4.123910e-006
-3.888863e-006
-3.599963e-006
-3.263235e-006
-2.889507e-006
-2.493550e-006
-2.092521e-006
-1.703978e-006
-1.343797e-006
-1.024410e-006
-7.536153e-007
-5.341459e-007
-3.640545e-007
-2.378563e-007
-1.481418e-007
-8.714021e-008
-4.774521e-008
-2.386718e-008
-1.041614e-008
-3.327218e-009
2.653354e-010
1.967440e-009
2.442919e-009
2.006705e-009
1.081596e-009
2.212446e-010
-1.806417e-010
-1.094283e-010
1.619158e-010
3.583604e-010
3.953403e-010
3.416356e-010
2.667455e-010
1.621563e-010
-6.369536e-012
-2.120783e-010
-3.586198e-010
5.318420e-009
2.051534e-009
-1.754602e-009
-3.162103e-009
-1.569896e-009
1.094133e-009
2.449892e-009
1.777825e-009
2.464598e-010
-5.378501e-010
6.045512e-011
1.551266e-009
3.070935e-009
3.958872e-009
3.701871e-009
1.646130e-009
-3.146422e-009
-1.213445e-008
-2.798528e-008
-5.542852e-008
-1.014912e-007
-1.747875e-007
-2.844569e-007
-4.395261e-007
-6.485765e-007
-9.187494e-007
-1.253486e-006
-1.649754e-006
-2.096375e-006
-2.574473e-006
-3.059666e-006
-3.524829e-006
-3.942694e-006
-4.288269e-006
-4.541199e-006
-4.687686e-006
-4.721337e-006
-4.642765e-006
-4.458457e-006
-4.179505e-006
-3.820452e-006
-3.398182e-006
-2.930894e-006
-2.437333e-006
-1.936240e-006
-1.445806e-006
-9.830647e-007
-5.634686e-007
-2.008963e-007
9.214356e-008
3.045541e-007
4.270685e-007
4.527458e-007
3.773014e-007
1.994354e-007
-7.852951e-008
-4.497116e-007
-9.017861e-007
-1.416511e-006
-1.969807e-006
-2.532428e-006
-3.071288e-006
-3.551509e-006
-3.939192e-006
-4.204781e-006
-4.326744e-006
-4.294964e-006
-4.113009e-006
-3.798440e-006
-3.380831e-006
-2.897794e-006
-2.389802e-006
-1.894770e-006
-1.443359e-006
-1.055860e-006
-7.413059e-007
-4.988757e-007
-3.209244e-007
-1.964047e-007
-1.135622e-007
-6.146944e-008
-3.069394e-008
-1.362302e-008
-4.672857e-009
-2.518424e-010
1.653104e-009
2.114239e-009
1.794090e-009
1.181036e-009
6.116128e-010
2.594774e-010
1.605215e-010
2.400876e-010
3.413023e-010
3.079958e-010
1.092622e-010
-1.180621e-010
-1.945926e-010
-8.644123e-011
5.363532e-011
9.747011e-009
5.001749e-009
-6.500997e-010
-3.117430e-009
-1.635425e-009
1.091517e-009
1.984297e-009
5.600533e-010
-1.072963e-009
-7.376175e-010
1.642768e-009
4.257424e-009
5.280441e-009
4.154942e-009
1.083663e-009
-4.483676e-009
-1.492699e-008
-3.468426e-008
-7.030198e-008
-1.308120e-007
-2.280243e-007
-3.759955e-007
-5.894953e-007
-8.817893e-007
-1.261783e-006
-1.730189e-006
-2.274952e-006
-2.867547e-006
-3.462453e-006
-4.000971e-006
-4.418422e-006
-4.652371e-006
-4.649901e-006
-4.373126e-006
-3.802759e-006
-2.939328e-006
-1.801679e-006
-4.231371e-007
1.153260e-006
2.879019e-006
4.703393e-006
6.575778e-006
8.447618e-006
1.027371e-005
1.201286e-005
1.362801e-005
1.508631e-005
1.635889e-005
1.742031e-005
1.824793e-005
1.882152e-005
1.912328e-005
1.913816e-005
1.885436e-005
1.826414e-005
1.736534e-005
1.616347e-005
1.467395e-005
1.292448e-005
1.095693e-005
8.828521e-006
6.611601e-006
4.391564e-006
2.262604e-006
3.210521e-007
-1.343653e-006
-2.659474e-006
-3.581820e-006
-4.100654e-006
-4.242582e-006
-4.066986e-006
-3.656616e-006
-3.104362e-006
-2.498948e-006
-1.912849e-006
-1.395202e-006
-9.708721e-007
-6.446298e-007
-4.078666e-007
-2.451910e-007
-1.393500e-007
-7.424172e-008
-3.646807e-008
-1.588539e-008
-5.439726e-009
-5.731648e-010
1.455965e-009
2.120906e-009
2.069454e-009
1.565251e-009
8.582738e-010
2.835248e-010
6.303849e-011
1.023402e-010
9.679780e-011
-1.124154e-010
-3.385816e-010
-2.694393e-010
1.298013e-010
5.158689e-010
9.224519e-009
4.912853e-009
-1.258148e-010
-2.186009e-009
-8.013095e-010
1.335384e-009
1.532409e-009
-1.421907e-010
-1.282096e-009
1.809706e-011
3.090846e-009
5.413573e-009
4.957798e-009
1.383009e-009
-5.250050e-009
-1.696608e-008
-3.943219e-008
-8.193379e-008
-1.568626e-007
-2.797970e-007
-4.697353e-007
-7.478754e-007
-1.133636e-006
-1.637784e-006
-2.253522e-006
-2.947147e-006
-3.650906e-006
-4.261619e-006
-4.647977e-006
-4.666601e-006
-4.183165e-006
-3.092808e-006
-1.334918e-006
1.099988e-006
4.171181e-006
7.795155e-006
1.185777e-005
1.622850e-005
2.077360e-005
2.536607e-005
2.989175e-005
3.425273e-005
3.836882e-005
4.217749e-005
4.563219e-005
4.869964e-005
5.135692e-005
5.358863e-005
5.538411e-005
5.673470e-005
5.763150e-005
5.806366e-005
5.801719e-005
5.747417e-005
5.641286e-005
5.480917e-005
5.263944e-005
4.988486e-005
4.653768e-005
4.260944e-005
3.814014e-005
3.320698e-005
2.793048e-005
2.247598e-005
1.704815e-005
1.187659e-005
7.192588e-006
3.199938e-006
4.554585e-008
-2.203503e-006
-3.570244e-006
-4.161846e-006
-4.147550e-006
-3.725559e-006
-3.087676e-006
-2.391065e-006
-1.743514e-006
-1.203048e-006
-7.878034e-007
-4.900165e-007
-2.890505e-007
-1.608771e-007
-8.361466e-008
-3.983722e-008
-1.677928e-008
-5.598904e-009
-5.598370e-010
1.598980e-009
2.321668e-009
2.099932e-009
1.294200e-009
4.519492e-010
3.684810e-011
5.354220e-011
1.174441e-010
-5.523793e-011
-3.070641e-010
-2.611912e-010
1.653229e-010
5.954975e-010
3.754039e-009
1.499789e-009
-8.338442e-010
-1.171334e-009
3.763903e-010
1.831346e-009
1.638204e-009
3.633925e-010
-3.325218e-011
1.514802e-009
3.853859e-009
4.557695e-009
1.822406e-009
-5.141112e-009
-1.810383e-008
-4.268565e-008
-8.996282e-008
-1.763042e-007
-3.226482e-007
-5.541109e-007
-8.986649e-007
-1.381861e-006
-2.015040e-006