# vtk DataFile Version 3.0
vtk output
ASCII
DATASET STRUCTURED_POINTS
DIMENSIONS 100 100 1
SPACING 1 1 1
ORIGIN 0 0 0
POINT_DATA 10000
SCALARS SFBox_profile double
LOOKUP_TABLE default 
9.439904e-003
9.439909e-003
9.439916e-003
9.439922e-003
9.439925e-003
9.439924e-003
9.439922e-003
9.439920e-003
9.439920e-003
9.439920e-003
9.439919e-003
9.439916e-003
9.439915e-003
9.439917e-003
9.439922e-003
9.439927e-003
9.439928e-003
9.439924e-003
9.439918e-003
9.439915e-003
9.439916e-003
9.439918e-003
9.439920e-003
9.439919e-003
9.439919e-003
9.439920e-003
9.439922e-003
9.439924e-003
9.439925e-003
9.439923e-003
9.439922e-003
9.439921e-003
9.439921e-003
9.439921e-003
9.439920e-003
9.439919e-003
9.439918e-003
9.439918e-003
9.439918e-003
9.439919e-003
9.439918e-003
9.439918e-003
9.439919e-003
9.439919e-003
9.439919e-003
9.439919e-003
9.439919e-003
9.439920e-003
9.439920e-003
9.439920e-003
9.439920e-003
9.439920e-003
9.439920e-003
9.439920e-003
9.439919e-003
9.439919e-003
9.439919e-003
9.439919e-003
9.439919e-003
9.439919e-003
9.439918e-003
9.439918e-003
9.439919e-003
9.439920e-003
9.439921e-003
9.439920e-003
9.439921e-003
9.439921e-003
9.439923e-003
9.439923e-003
9.439923e-003
9.439921e-003
9.439920e-003
9.439920e-003
9.439920e-003
9.439920e-003
9.439918e-003
9.439917e-003
9.439917e-003
9.439920e-003
9.439922e-003
9.439923e-003
9.439922e-003
9.439921e-003
9.439919e-003
9.439919e-003
9.439919e-003
9.439919e-003
9.439919e-003
9.439918e-003
9.439920e-003
9.439922e-003
9.439923e-003
9.439923e-003
9.439920e-003
9.439917e-003
9.439916e-003
9.439918e-003
9.439921e-003
9.439923e-003
9.439904e-003
9.439909e-003
9.439916e-003
9.439922e-003
9.439925e-003
9.439924e-003
9.439922e-003
9.439920e-003
9.439920e-003
9.439920e-003
9.439919e-003
9.439916e-003
9.439915e-003
9.439917e-003
9.439922e-003
9.439927e-003
9.439928e-003
9.439924e-003
9.439918e-003
9.439915e-003
9.439916e-003
9.439918e-003
9.439920e-003
9.439919e-003
9.439919e-003
9.439920e-003
9.439922e-003
9.439924e-003
9.439925e-003
9.439923e-003
9.439922e-003
9.439921e-003
9.439921e-003
9.439921e-003
9.439920e-003
9.439919e-003
9.439918e-003
9.439918e-003
9.439918e-003
9.439919e-003
9.439918e-003
9.439918e-003
9.439919e-003
9.439919e-003
9.439919e-003
9.439919e-003
9.439919e-003
9.439920e-003
9.439920e-003
9.439920e-003
9.439920e-003
9.439920e-003
9.439920e-003
9.439920e-003
9.439919e-003
9.439919e-003
9.439919e-003
9.439919e-003
9.439919e-003
9.439919e-003
9.439918e-003
9.439918e-003
9.439919e-003
9.439920e-003
9.439921e-003
9.439920e-003
9.439921e-003
9.439921e-003
9.439923e-003
9.439923e-003
9.439923e-003
9.439921e-003
9.439920e-003
9.439920e-003
9.439920e-003
9.439920e-003
9.439918e-003
9.439917e-003
9.439917e-003
9.439920e-003
9.439922e-003
9.439923e-003
9.439922e-003
9.439921e-003
9.439919e-003
9.439919e-003
9.439919e-003
9.439919e-003
9.439919e-003
9.439918e-003
9.439920e-003
9.439922e-003
9.439923e-003
9.439923e-003
9.439920e-003
9.439917e-003
9.439916e-003
9.439918e-003
9.439921e-003
9.439923e-003
9.439918e-003
9.439919e-003
9.439920e-003
9.439921e-003
9.439921e-003
9.439920e-003
9.439919e-003
9.439918e-003
9.439919e-003
9.439921e-003
9.439922e-003
9.439921e-003
9.439919e-003
9.439918e-003
9.439919e-003
9.439920e-003
9.439921e-003
9.439920e-003
9.439919e-003
9.439919e-003
9.439920e-003
9.439922e-003
9.439922e-003
9.439921e-003
9.439919e-003
9.439919e-003
9.439919e-003
9.439920e-003
9.439920e-003
9.439919e-003
9.439919e-003
9.439920e-003
9.439921e-003
9.439922e-003
9.439922e-003
9.439922e-003
9.439923e-003
9.439923e-003
9.439924e-003
9.439924e-003
9.439924e-003
9.439924e-003
9.439925e-003
9.439925e-003
9.439925e-003
9.439925e-003
9.439925e-003
9.439925e-003
9.439925e-003
9.439925e-003
9.439925e-003
9.439925e-003
9.439925e-003
9.439925e-003
9.439925e-003
9.439924e-003
9.439924e-003
9.439924e-003
9.439924e-003
9.439924e-003
9.439923e-003
9.439922e-003
9.439922e-003
9.439922e-003
9.439922e-003
9.439921e-003
9.439920e-003
9.439920e-003
9.439920e-003
9.439920e-003
9.439920e-003
9.439919e-003
9.439919e-003
9.439920e-003
9.439921e-003
9.439921e-003
9.439921e-003
9.439920e-003
9.439919e-003
9.439920e-003
9.439920e-003
9.439920e-003
9.439920e-003
9.439919e-003
9.439919e-003
9.439920e-003
9.439921e-003
9.439921e-003
9.439920e-003
9.439919e-003
9.439919e-003
9.439920e-003
9.439921e-003
9.439921e-003
9.439920e-003
9.439920e-003
9.439919e-003
9.439920e-003
9.439920e-003
9.439921e-003
9.439932e-003
9.439929e-003
9.439924e-003
9.439920e-003
9.439917e-003
9.439916e-003
9.439916e-003
9.439917e-003
9.439918e-003
9.439921e-003
9.439924e-003
9.439926e-003
9.439924e-003
9.439921e-003
9.439917e-003
9.439914e-003
9.439914e-003
9.439917e-003
9.439920e-003
9.439923e-003
9.439924e-003
9.439924e-003
9.439923e-003
9.439922e-003
9.439920e-003
9.439919e-003
9.439918e-003
9.439917e-003
9.439917e-003
9.439917e-003
9.439919e-003
9.439920e-003
9.439922e-003
9.439923e-003
9.439924e-003
9.439925e-003
9.439927e-003
9.439928e-003
9.439928e-003
9.439929e-003
9.439929e-003
9.439930e-003
9.439930e-003
9.439930e-003
9.439930e-003
9.439930e-003
9.439931e-003
9.439931e-003
9.439931e-003
9.439931e-003
9.439930e-003
9.439930e-003
9.439930e-003
9.439930e-003
9.439930e-003
9.439929e-003
9.439929e-003
9.439929e-003
9.439929e-003
9.439928e-003
9.439927e-003
9.439926e-003
9.439925e-003
9.439924e-003
9.439923e-003
9.439922e-003
9.439921e-003
9.439919e-003
9.439919e-003
9.439918e-003
9.439918e-003
9.439918e-003
9.439919e-003
9.439920e-003
9.439921e-003
9.439922e-003
9.439923e-003
9.439923e-003
9.439922e-003
9.439920e-003
9.439919e-003
9.439917e-003
9.439917e-003
9.439918e-003
9.439920e-003
9.439921e-003
9.439922e-003
9.439922e-003
9.439921e-003
9.439921e-003
9.439919e-003
9.439918e-003
9.439918e-003
9.439918e-003
9.439920e-003
9.439922e-003
9.439923e-003
9.439921e-003
9.439919e-003
9.439918e-003
9.439936e-003
9.439931e-003
9.439923e-003
9.439917e-003
9.439916e-003
9.439917e-003
9.439919e-003
9.439919e-003
9.439919e-003
9.439919e-003
9.439921e-003
9.439924e-003
9.439925e-003
9.439922e-003
9.439918e-003
9.439914e-003
9.439914e-003
9.439918e-003
9.439922e-003
9.439924e-003
9.439924e-003
9.439922e-003
9.439920e-003
9.439920e-003
9.439921e-003
9.439921e-003
9.439920e-003
9.439919e-003
9.439920e-003
9.439921e-003
9.439923e-003
9.439924e-003
9.439925e-003
9.439925e-003
9.439926e-003
9.439927e-003
9.439928e-003
9.439929e-003
9.439929e-003
9.439930e-003
9.439930e-003
9.439931e-003
9.439932e-003
9.439932e-003
9.439932e-003
9.439933e-003
9.439933e-003
9.439933e-003
9.439933e-003
9.439933e-003
9.439933e-003
9.439933e-003
9.439932e-003
9.439932e-003
9.439932e-003
9.439932e-003
9.439931e-003
9.439930e-003
9.439930e-003
9.439929e-003
9.439929e-003
9.439928e-003
9.439927e-003
9.439926e-003
9.439925e-003
9.439924e-003
9.439924e-003
9.439923e-003
9.439921e-003
9.439920e-003
9.439920e-003
9.439921e-003
9.439921e-003
9.439921e-003
9.439920e-003
9.439920e-003
9.439921e-003
9.439922e-003
9.439922e-003
9.439921e-003
9.439918e-003
9.439917e-003
9.439918e-003
9.439919e-003
9.439921e-003
9.439921e-003
9.439921e-003
9.439921e-003
9.439921e-003
9.439921e-003
9.439920e-003
9.439918e-003
9.439917e-003
9.439917e-003
9.439920e-003
9.439923e-003
9.439924e-003
9.439922e-003
9.439919e-003
9.439916e-003
9.439928e-003
9.439924e-003
9.439919e-003
9.439915e-003
9.439917e-003
9.439921e-003
9.439924e-003
9.439924e-003
9.439921e-003
9.439917e-003
9.439916e-003
9.439918e-003
9.439922e-003
9.439923e-003
9.439922e-003
9.439919e-003
9.439919e-003
9.439921e-003
9.439923e-003
9.439923e-003
9.439920e-003
9.439917e-003
9.439916e-003
9.439919e-003
9.439922e-003
9.439925e-003
9.439925e-003
9.439925e-003
9.439926e-003
9.439928e-003
9.439930e-003
9.439930e-003
9.439929e-003
9.439928e-003
9.439929e-003
9.439930e-003
9.439931e-003
9.439931e-003
9.439931e-003
9.439932e-003
9.439933e-003
9.439934e-003
9.439935e-003
9.439935e-003
9.439936e-003
9.439936e-003
9.439937e-003
9.439937e-003
9.439937e-003
9.439937e-003
9.439937e-003
9.439937e-003
9.439936e-003
9.439936e-003
9.439936e-003
9.439935e-003
9.439934e-003
9.439933e-003
9.439932e-003
9.439931e-003
9.439931e-003
9.439931e-003
9.439929e-003
9.439928e-003
9.439928e-003
9.439928e-003
9.439928e-003
9.439928e-003
9.439926e-003
9.439925e-003
9.439924e-003
9.439924e-003
9.439924e-003
9.439922e-003
9.439919e-003
9.439918e-003
9.439919e-003
9.439920e-003
9.439921e-003
9.439921e-003
9.439920e-003
9.439920e-003
9.439921e-003
9.439922e-003
9.439921e-003
9.439920e-003
9.439918e-003
9.439918e-003
9.439920e-003
9.439921e-003
9.439922e-003
9.439921e-003
9.439919e-003
9.439918e-003
9.439919e-003
9.439921e-003
9.439922e-003
9.439921e-003
9.439920e-003
9.439918e-003
9.439917e-003
9.439916e-003
9.439916e-003
9.439916e-003
9.439919e-003
9.439923e-003
9.439927e-003
9.439927e-003
9.439922e-003
9.439917e-003
9.439913e-003
9.439913e-003
9.439918e-003
9.439922e-003
9.439924e-003
9.439924e-003
9.439923e-003
9.439923e-003
9.439922e-003
9.439920e-003
9.439917e-003
9.439915e-003
9.439917e-003
9.439920e-003
9.439925e-003
9.439927e-003
9.439928e-003
9.439928e-003
9.439930e-003
9.439932e-003
9.439934e-003
9.439935e-003
9.439934e-003
9.439934e-003
9.439936e-003
9.439938e-003
9.439939e-003
9.439939e-003
9.439940e-003
9.439941e-003
9.439942e-003
9.439943e-003
9.439943e-003
9.439944e-003
9.439944e-003
9.439944e-003
9.439944e-003
9.439944e-003
9.439944e-003
9.439944e-003
9.439944e-003
9.439944e-003
9.439944e-003
9.439943e-003
9.439943e-003
9.439943e-003
9.439942e-003
9.439941e-003
9.439940e-003
9.439939e-003
9.439939e-003
9.439938e-003
9.439936e-003
9.439935e-003
9.439933e-003
9.439933e-003
9.439933e-003
9.439932e-003
9.439930e-003
9.439928e-003
9.439927e-003
9.439927e-003
9.439926e-003
9.439923e-003
9.439920e-003
9.439918e-003
9.439918e-003
9.439919e-003
9.439920e-003
9.439920e-003
9.439921e-003
9.439921e-003
9.439922e-003
9.439923e-003
9.439921e-003
9.439919e-003
9.439917e-003
9.439917e-003
9.439918e-003
9.439921e-003
9.439922e-003
9.439922e-003
9.439921e-003
9.439920e-003
9.439919e-003
9.439919e-003
9.439919e-003
9.439920e-003
9.439920e-003
9.439921e-003
9.439911e-003
9.439914e-003
9.439918e-003
9.439920e-003
9.439921e-003
9.439921e-003
9.439922e-003
9.439923e-003
9.439923e-003
9.439920e-003
9.439916e-003
9.439915e-003
9.439917e-003
9.439920e-003
9.439923e-003
9.439924e-003
9.439923e-003
9.439921e-003
9.439920e-003
9.439920e-003
9.439920e-003
9.439921e-003
9.439923e-003
9.439926e-003
9.439928e-003
9.439929e-003
9.439929e-003
9.439930e-003
9.439932e-003
9.439935e-003
9.439938e-003
9.439939e-003
9.439941e-003
9.439943e-003
9.439945e-003
9.439947e-003
9.439948e-003
9.439948e-003
9.439948e-003
9.439948e-003
9.439948e-003
9.439947e-003
9.439946e-003
9.439944e-003
9.439943e-003
9.439942e-003
9.439941e-003
9.439939e-003
9.439939e-003
9.439938e-003
9.439939e-003
9.439939e-003
9.439939e-003
9.439940e-003
9.439941e-003
9.439942e-003
9.439943e-003
9.439944e-003
9.439944e-003
9.439945e-003
9.439945e-003
9.439945e-003
9.439944e-003
9.439943e-003
9.439941e-003
9.439939e-003
9.439938e-003
9.439936e-003
9.439933e-003
9.439931e-003
9.439929e-003
9.439928e-003
9.439927e-003
9.439926e-003
9.439924e-003
9.439922e-003
9.439921e-003
9.439921e-003
9.439920e-003
9.439920e-003
9.439920e-003
9.439921e-003
9.439921e-003
9.439921e-003
9.439921e-003
9.439919e-003
9.439918e-003
9.439918e-003
9.439919e-003
9.439920e-003
9.439921e-003
9.439922e-003
9.439922e-003
9.439921e-003
9.439920e-003
9.439918e-003
9.439917e-003
9.439918e-003
9.439921e-003
9.439923e-003
9.439911e-003
9.439917e-003
9.439923e-003
9.439926e-003
9.439922e-003
9.439917e-003
9.439915e-003
9.439917e-003
9.439921e-003
9.439924e-003
9.439923e-003
9.439921e-003
9.439919e-003
9.439919e-003
9.439920e-003
9.439920e-003
9.439919e-003
9.439918e-003
9.439919e-003
9.439922e-003
9.439926e-003
9.439929e-003
9.439931e-003
9.439932e-003
9.439932e-003
9.439932e-003
9.439933e-003
9.439935e-003
9.439938e-003
9.439941e-003
9.439943e-003
9.439944e-003
9.439946e-003
9.439947e-003
9.439947e-003
9.439945e-003
9.439942e-003
9.439937e-003
9.439932e-003
9.439926e-003
9.439920e-003
9.439913e-003
9.439905e-003
9.439898e-003
9.439892e-003
9.439886e-003
9.439881e-003
9.439877e-003
9.439874e-003
9.439873e-003
9.439873e-003
9.439875e-003
9.439878e-003
9.439882e-003
9.439887e-003
9.439894e-003
9.439901e-003
9.439908e-003
9.439915e-003
9.439922e-003
9.439929e-003
9.439934e-003
9.439938e-003
9.439941e-003
9.439942e-003
9.439942e-003
9.439942e-003
9.439940e-003
9.439938e-003
9.439936e-003
9.439933e-003
9.439931e-003
9.439930e-003
9.439929e-003
9.439929e-003
9.439928e-003
9.439926e-003
9.439924e-003
9.439922e-003
9.439921e-003
9.439920e-003
9.439919e-003
9.439919e-003
9.439919e-003
9.439920e-003
9.439921e-003
9.439922e-003
9.439922e-003
9.439920e-003
9.439919e-003
9.439918e-003
9.439919e-003
9.439921e-003
9.439922e-003
9.439921e-003
9.439919e-003
9.439917e-003
9.439918e-003
9.439921e-003
9.439923e-003
9.439912e-003
9.439918e-003
9.439926e-003
9.439929e-003
9.439924e-003
9.439915e-003
9.439910e-003
9.439912e-003
9.439919e-003
9.439926e-003
9.439928e-003
9.439925e-003
9.439921e-003
9.439918e-003
9.439918e-003
9.439918e-003
9.439919e-003
9.439919e-003
9.439921e-003
9.439925e-003
9.439930e-003
9.439935e-003
9.439937e-003
9.439937e-003
9.439937e-003
9.439938e-003
9.439942e-003
9.439945e-003
9.439947e-003
9.439947e-003
9.439945e-003
9.439941e-003
9.439935e-003
9.439926e-003
9.439914e-003
9.439898e-003
9.439880e-003
9.439859e-003
9.439837e-003
9.439814e-003
9.439789e-003
9.439764e-003
9.439739e-003
9.439717e-003
9.439696e-003
9.439678e-003
9.439663e-003
9.439651e-003
9.439643e-003
9.439640e-003
9.439642e-003
9.439647e-003
9.439658e-003
9.439672e-003
9.439690e-003
9.439712e-003
9.439736e-003
9.439761e-003
9.439788e-003
9.439813e-003
9.439838e-003
9.439862e-003
9.439883e-003
9.439901e-003
9.439916e-003
9.439926e-003
9.439934e-003
9.439939e-003
9.439942e-003
9.439942e-003
9.439941e-003
9.439938e-003
9.439935e-003
9.439934e-003
9.439933e-003
9.439932e-003
9.439929e-003
9.439926e-003
9.439924e-003
9.439922e-003
9.439921e-003
9.439920e-003
9.439918e-003
9.439918e-003
9.439919e-003
9.439921e-003
9.439923e-003
9.439924e-003
9.439922e-003
9.439919e-003
9.439917e-003
9.439917e-003
9.439919e-003
9.439922e-003
9.439922e-003
9.439921e-003
9.439919e-003
9.439919e-003
9.439920e-003
9.439921e-003
9.439911e-003
9.439917e-003
9.439923e-003
9.439927e-003
9.439924e-003
9.439919e-003
9.439914e-003
9.439914e-003
9.439918e-003
9.439923e-003
9.439926e-003
9.439924e-003
9.439921e-003
9.439919e-003
9.439919e-003
9.439921e-003
9.439924e-003
9.439925e-003
9.439927e-003
9.439929e-003
9.439933e-003
9.439937e-003
9.439939e-003
9.439941e-003
9.439943e-003
9.439947e-003
9.439950e-003
9.439950e-003
9.439945e-003
9.439933e-003
9.439915e-003
9.439892e-003
9.439863e-003
9.439826e-003
9.439781e-003
9.439728e-003
9.439669e-003
9.439606e-003
9.439540e-003
9.439470e-003
9.439399e-003
9.439329e-003
9.439262e-003
9.439199e-003
9.439142e-003
9.439093e-003
9.439052e-003
9.439021e-003
9.439002e-003
9.438994e-003
9.438998e-003
9.439015e-003
9.439044e-003
9.439084e-003
9.439134e-003
9.439194e-003
9.439260e-003
9.439332e-003
9.439408e-003
9.439483e-003
9.439557e-003
9.439628e-003
9.439694e-003
9.439753e-003
9.439804e-003
9.439846e-003
9.439879e-003
9.439905e-003
9.439924e-003
9.439936e-003
9.439942e-003
9.439943e-003
9.439941e-003
9.439939e-003
9.439937e-003
9.439935e-003
9.439932e-003
9.439928e-003
9.439926e-003
9.439925e-003
9.439924e-003
9.439923e-003
9.439921e-003
9.439919e-003
9.439919e-003
9.439920e-003
9.439922e-003
9.439923e-003
9.439922e-003
9.439919e-003
9.439918e-003
9.439917e-003
9.439919e-003
9.439921e-003
9.439922e-003
9.439922e-003
9.439921e-003
9.439920e-003
9.439919e-003
9.439919e-003
9.439915e-003
9.439915e-003
9.439917e-003
9.439920e-003
9.439922e-003
9.439923e-003
9.439922e-003
9.439920e-003
9.439919e-003
9.439919e-003
9.439919e-003
9.439920e-003
9.439919e-003
9.439920e-003
9.439922e-003
9.439926e-003
9.439930e-003
9.439932e-003
9.439933e-003
9.439934e-003
9.439937e-003
9.439940e-003
9.439944e-003
9.439946e-003
9.439947e-003
9.439945e-003
9.439937e-003
9.439920e-003
9.439890e-003
9.439846e-003
9.439787e-003
9.439714e-003
9.439623e-003
9.439514e-003
9.439387e-003
9.439243e-003
9.439087e-003
9.438920e-003
9.438745e-003
9.438565e-003
9.438384e-003
9.438207e-003
9.438038e-003
9.437881e-003
9.437739e-003
9.437617e-003
9.437516e-003
9.437441e-003
9.437394e-003
9.437376e-003
9.437388e-003
9.437430e-003
9.437503e-003
9.437604e-003
9.437730e-003
9.437878e-003
9.438046e-003
9.438228e-003
9.438420e-003
9.438615e-003
9.438808e-003
9.438994e-003
9.439169e-003
9.439330e-003
9.439472e-003
9.439593e-003
9.439693e-003
9.439774e-003
9.439836e-003
9.439882e-003
9.439912e-003
9.439930e-003
9.439938e-003
9.439941e-003
9.439941e-003
9.439939e-003
9.439935e-003
9.439932e-003
9.439929e-003
9.439928e-003
9.439928e-003
9.439926e-003
9.439924e-003
9.439922e-003
9.439920e-003
9.439919e-003
9.439919e-003
9.439920e-003
9.439920e-003
9.439921e-003
9.439921e-003
9.439920e-003
9.439919e-003
9.439919e-003
9.439920e-003
9.439921e-003
9.439922e-003
9.439921e-003
9.439919e-003
9.439918e-003
9.439926e-003
9.439920e-003
9.439914e-003
9.439912e-003
9.439918e-003
9.439925e-003
9.439929e-003
9.439926e-003
9.439920e-003
9.439916e-003
9.439915e-003
9.439917e-003
9.439920e-003
9.439923e-003
9.439926e-003
9.439930e-003
9.439934e-003
9.439938e-003
9.439940e-003
9.439942e-003
9.439944e-003
9.439947e-003
9.439948e-003
9.439944e-003
9.439931e-003
9.439905e-003
9.439861e-003
9.439794e-003
9.439699e-003
9.439572e-003
9.439410e-003
9.439210e-003
9.438970e-003
9.438689e-003
9.438369e-003
9.438013e-003
9.437629e-003
9.437223e-003
9.436801e-003
9.436371e-003
9.435943e-003
9.435527e-003
9.435133e-003
9.434768e-003
9.434441e-003
9.434159e-003
9.433929e-003
9.433759e-003
9.433653e-003
9.433613e-003
9.433642e-003
9.433740e-003
9.433908e-003
9.434140e-003
9.434433e-003
9.434779e-003
9.435170e-003
9.435598e-003
9.436050e-003
9.436514e-003
9.436978e-003
9.437429e-003
9.437858e-003
9.438254e-003
9.438611e-003
9.438921e-003
9.439183e-003
9.439398e-003
9.439569e-003
9.439700e-003
9.439795e-003
9.439860e-003
9.439901e-003
9.439926e-003
9.439938e-003
9.439942e-003
9.439941e-003
9.439938e-003
9.439935e-003
9.439932e-003
9.439930e-003
9.439928e-003
9.439926e-003
9.439924e-003
9.439922e-003
9.439920e-003
9.439918e-003
9.439917e-003
9.439919e-003
9.439921e-003
9.439923e-003
9.439923e-003
9.439920e-003
9.439918e-003
9.439918e-003
9.439919e-003
9.439921e-003
9.439922e-003
9.439920e-003
9.439919e-003
9.439941e-003
9.439930e-003
9.439916e-003
9.439909e-003
9.439913e-003
9.439922e-003
9.439928e-003
9.439927e-003
9.439921e-003
9.439916e-003
9.439916e-003
9.439920e-003
9.439925e-003
9.439928e-003
9.439929e-003
9.439932e-003
9.439936e-003
9.439941e-003
9.439947e-003
9.439950e-003
9.439952e-003
9.439948e-003
9.439934e-003
9.439903e-003
9.439847e-003
9.439757e-003
9.439623e-003
9.439435e-003
9.439184e-003
9.438859e-003
9.438453e-003
9.437960e-003
9.437377e-003
9.436706e-003
9.435954e-003
9.435130e-003
9.434248e-003
9.433323e-003
9.432372e-003
9.431413e-003
9.430468e-003
9.429556e-003
9.428696e-003
9.427904e-003
9.427199e-003
9.426594e-003
9.426105e-003
9.425743e-003
9.425518e-003
9.425436e-003
9.425500e-003
9.425713e-003
9.426073e-003
9.426575e-003
9.427208e-003
9.427959e-003
9.428812e-003
9.429749e-003
9.430746e-003
9.431777e-003
9.432816e-003
9.433837e-003
9.434816e-003
9.435731e-003
9.436563e-003
9.437299e-003
9.437931e-003
9.438458e-003
9.438884e-003
9.439217e-003
9.439468e-003
9.439649e-003
9.439774e-003
9.439855e-003
9.439904e-003
9.439930e-003
9.439941e-003
9.439944e-003
9.439942e-003
9.439938e-003
9.439933e-003
9.439929e-003
9.439927e-003
9.439926e-003
9.439925e-003
9.439922e-003
9.439919e-003
9.439918e-003
9.439918e-003
9.439921e-003
9.439923e-003
9.439923e-003
9.439921e-003
9.439918e-003
9.439917e-003
9.439918e-003
9.439920e-003
9.439921e-003
9.439921e-003
9.439920e-003
9.439946e-003
9.439935e-003
9.439921e-003
9.439912e-003
9.439912e-003
9.439918e-003
9.439923e-003
9.439923e-003
9.439921e-003
9.439919e-003
9.439921e-003
9.439927e-003
9.439931e-003
9.439933e-003
9.439933e-003
9.439935e-003
9.439940e-003
9.439947e-003
9.439953e-003
9.439952e-003
9.439941e-003
9.439912e-003
9.439854e-003
9.439753e-003
9.439591e-003
9.439350e-003
9.439008e-003
9.438545e-003
9.437938e-003
9.437168e-003
9.436220e-003
9.435086e-003
9.433767e-003
9.432270e-003
9.430614e-003
9.428822e-003
9.426926e-003
9.424958e-003
9.422957e-003
9.420963e-003
9.419014e-003
9.417149e-003
9.415404e-003
9.413811e-003
9.412401e-003
9.411201e-003
9.410236e-003
9.409525e-003
9.409086e-003
9.408929e-003
9.409063e-003
9.409490e-003
9.410209e-003
9.411210e-003
9.412477e-003
9.413988e-003
9.415715e-003
9.417623e-003
9.419668e-003
9.421803e-003
9.423977e-003
9.426135e-003
9.428228e-003
9.430205e-003
9.432026e-003
9.433659e-003
9.435082e-003
9.436287e-003
9.437275e-003
9.438060e-003
9.438663e-003
9.439110e-003
9.439428e-003
9.439645e-003
9.439784e-003
9.439868e-003
9.439914e-003
9.439937e-003
9.439944e-003
9.439943e-003
9.439937e-003
9.439932e-003
9.439929e-003
9.439928e-003
9.439928e-003
9.439926e-003
9.439923e-003
9.439920e-003
9.439919e-003
9.439920e-003
9.439921e-003
9.439921e-003
9.439920e-003
9.439919e-003
9.439918e-003
9.439919e-003
9.439920e-003
9.439921e-003
9.439921e-003
9.439920e-003
9.439932e-003
9.439929e-003
9.439924e-003
9.439919e-003
9.439917e-003
9.439917e-003
9.439918e-003
9.439919e-003
9.439920e-003
9.439922e-003
9.439926e-003
9.439931e-003
9.439935e-003
9.439938e-003
9.439940e-003
9.439943e-003
9.439949e-003
9.439953e-003
9.439949e-003
9.439928e-003
9.439876e-003
9.439778e-003
9.439611e-003
9.439344e-003
9.438943e-003
9.438364e-003
9.437565e-003
9.436500e-003
9.435129e-003
9.433418e-003
9.431344e-003
9.428901e-003
9.426103e-003
9.422977e-003
9.419570e-003
9.415938e-003
9.412149e-003
9.408275e-003
9.404392e-003
9.400576e-003
9.396898e-003
9.393422e-003
9.390209e-003
9.387311e-003
9.384773e-003
9.382636e-003
9.380934e-003
9.379694e-003
9.378937e-003
9.378681e-003
9.378936e-003
9.379709e-003
9.380998e-003
9.382793e-003
9.385076e-003
9.387818e-003
9.390979e-003
9.394505e-003
9.398332e-003
9.402380e-003
9.406559e-003
9.410771e-003
9.414915e-003
9.418893e-003
9.422614e-003
9.426003e-003
9.429004e-003
9.431584e-003
9.433735e-003
9.435472e-003
9.436829e-003
9.437853e-003
9.438597e-003
9.439117e-003
9.439464e-003
9.439685e-003
9.439817e-003
9.439892e-003
9.439929e-003
9.439942e-003
9.439943e-003
9.439938e-003
9.439934e-003
9.439931e-003
9.439930e-003
9.439928e-003
9.439926e-003
9.439923e-003
9.439921e-003
9.439919e-003
9.439918e-003
9.439919e-003
9.439920e-003
9.439921e-003
9.439921e-003
9.439921e-003
9.439920e-003
9.439920e-003
9.439920e-003
9.439920e-003
9.439907e-003
9.439914e-003
9.439922e-003
9.439927e-003
9.439925e-003
9.439920e-003
9.439917e-003
9.439917e-003
9.439921e-003
9.439926e-003
9.439930e-003
9.439933e-003
9.439937e-003
9.439942e-003
9.439949e-003
9.439955e-003
9.439956e-003
9.439945e-003
9.439910e-003
9.439831e-003
9.439682e-003
9.439425e-003
9.439012e-003
9.438382e-003
9.437460e-003
9.436162e-003
9.434403e-003
9.432100e-003
9.429184e-003
9.425608e-003
9.421354e-003
9.416437e-003
9.410914e-003
9.404871e-003
9.398423e-003
9.391703e-003
9.384854e-003
9.378020e-003
9.371339e-003
9.364936e-003
9.358918e-003
9.353375e-003
9.348377e-003
9.343979e-003
9.340223e-003
9.337135e-003
9.334732e-003
9.333027e-003
9.332028e-003
9.331742e-003
9.332175e-003
9.333338e-003
9.335236e-003
9.337878e-003
9.341266e-003
9.345392e-003
9.350237e-003
9.355758e-003
9.361891e-003
9.368545e-003
9.375597e-003
9.382896e-003
9.390270e-003
9.397532e-003
9.404495e-003
9.410988e-003
9.416869e-003
9.422032e-003
9.426423e-003
9.430035e-003
9.432909e-003
9.435116e-003
9.436751e-003
9.437916e-003
9.438713e-003
9.439235e-003
9.439563e-003
9.439758e-003
9.439866e-003
9.439919e-003
9.439940e-003
9.439944e-003
9.439941e-003
9.439936e-003
9.439932e-003
9.439929e-003
9.439927e-003
9.439925e-003
9.439923e-003
9.439920e-003
9.439918e-003
9.439918e-003
9.439920e-003
9.439922e-003
9.439923e-003
9.439922e-003
9.439920e-003
9.439919e-003
9.439919e-003
9.439920e-003
9.439887e-003
9.439901e-003
9.439919e-003
9.439930e-003
9.439930e-003
9.439923e-003
9.439918e-003
9.439919e-003
9.439925e-003
9.439930e-003
9.439933e-003
9.439935e-003
9.439939e-003
9.439948e-003
9.439957e-003
9.439959e-003
9.439942e-003
9.439891e-003
9.439780e-003
9.439571e-003
9.439206e-003
9.438608e-003
9.437676e-003
9.436288e-003
9.434297e-003
9.431551e-003
9.427896e-003
9.423204e-003
9.417385e-003
9.410410e-003
9.402320e-003
9.393235e-003
9.383348e-003
9.372910e-003
9.362210e-003
9.351545e-003
9.341204e-003
9.331440e-003
9.322460e-003
9.314415e-003
9.307397e-003
9.301444e-003
9.296546e-003
9.292654e-003
9.289688e-003
9.287547e-003
9.286124e-003
9.285311e-003
9.285020e-003
9.285186e-003
9.285776e-003
9.286795e-003
9.288289e-003
9.290339e-003
9.293060e-003
9.296585e-003
9.301047e-003
9.306566e-003
9.313225e-003
9.321054e-003
9.330006e-003
9.339948e-003
9.350658e-003
9.361837e-003
9.373128e-003
9.384153e-003
9.394549e-003
9.404007e-003
9.412304e-003
9.419317e-003
9.425031e-003
9.429514e-003
9.432901e-003
9.435362e-003
9.437082e-003
9.438235e-003
9.438977e-003
9.439431e-003
9.439695e-003
9.439839e-003
9.439909e-003
9.439939e-003
9.439946e-003
9.439942e-003
9.439935e-003
9.439930e-003
9.439928e-003
9.439927e-003
9.439925e-003
9.439922e-003
9.439919e-003
9.439918e-003
9.439920e-003
9.439922e-003
9.439923e-003
9.439921e-003
9.439919e-003
9.439918e-003
9.439919e-003
9.439921e-003
9.439890e-003
9.439902e-003
9.439919e-003
9.439929e-003
9.439928e-003
9.439922e-003
9.439919e-003
9.439923e-003
9.439931e-003
9.439937e-003
9.439939e-003
9.439941e-003
9.439946e-003
9.439955e-003
9.439957e-003
9.439937e-003
9.439872e-003
9.439728e-003
9.439454e-003
9.438968e-003
9.438155e-003
9.436859e-003
9.434884e-003
9.431996e-003
9.427938e-003
9.422452e-003
9.415317e-003
9.406390e-003
9.395655e-003
9.383251e-003
9.369496e-003
9.354875e-003
9.340008e-003
9.325589e-003
9.312318e-003
9.300830e-003
9.291634e-003
9.285074e-003
9.281310e-003
9.280314e-003
9.281890e-003
9.285696e-003
9.291280e-003
9.298106e-003
9.305583e-003
9.313103e-003
9.320071e-003
9.325946e-003
9.330272e-003
9.332713e-003
9.333075e-003
9.331332e-003
9.327634e-003
9.322311e-003
9.315857e-003
9.308905e-003
9.302185e-003
9.296474e-003
9.292529e-003
9.291017e-003
9.292441e-003
9.297070e-003
9.304895e-003
9.315610e-003
9.328638e-003
9.343196e-003
9.358397e-003
9.373359e-003
9.387322e-003
9.399721e-003
9.410226e-003
9.418735e-003
9.425337e-003
9.430247e-003
9.433750e-003
9.436148e-003
9.437722e-003
9.438710e-003
9.439300e-003
9.439635e-003
9.439814e-003
9.439901e-003
9.439937e-003
9.439944e-003
9.439940e-003
9.439934e-003
9.439930e-003
9.439929e-003
9.439928e-003
9.439925e-003
9.439922e-003
9.439920e-003
9.439920e-003
9.439921e-003
9.439921e-003
9.439919e-003
9.439918e-003
9.439919e-003
9.439920e-003
9.439922e-003
9.439911e-003
9.439916e-003
9.439922e-003
9.439924e-003
9.439922e-003
9.439919e-003
9.439921e-003
9.439927e-003
9.439936e-003
9.439943e-003
9.439947e-003
9.439951e-003
9.439956e-003
9.439956e-003
9.439932e-003
9.439856e-003
9.439683e-003
9.439345e-003
9.438734e-003
9.437691e-003
9.435989e-003
9.433334e-003
9.429369e-003
9.423691e-003
9.415892e-003
9.405631e-003
9.392726e-003
9.377264e-003
9.359694e-003
9.340889e-003
9.322138e-003
9.305069e-003
9.291494e-003
9.283212e-003
9.281804e-003
9.288452e-003
9.303814e-003
9.327964e-003
9.360402e-003
9.400111e-003
9.445651e-003
9.495260e-003
9.546953e-003
9.598615e-003
9.648075e-003
9.693199e-003
9.731970e-003
9.762579e-003
9.783511e-003
9.793636e-003
9.792274e-003
9.779263e-003
9.754996e-003
9.720443e-003
9.677137e-003
9.627121e-003
9.572873e-003
9.517172e-003
9.462942e-003
9.413047e-003
9.370061e-003
9.336021e-003
9.312216e-003
9.299037e-003
9.295938e-003
9.301526e-003
9.313781e-003
9.330368e-003
9.348972e-003
9.367588e-003
9.384722e-003
9.399452e-003
9.411394e-003
9.420581e-003
9.427316e-003
9.432034e-003
9.435195e-003
9.437221e-003
9.438462e-003
9.439186e-003
9.439588e-003
9.439797e-003
9.439896e-003
9.439935e-003
9.439944e-003
9.439941e-003