# vtk DataFile Version 3.0
vtk output
ASCII
DATASET STRUCTURED_POINTS
DIMENSIONS 100 100 1
SPACING 1 1 1
ORIGIN 0 0 0
POINT_DATA 10000
SCALARS SFBox_profile double
LOOKUP_TABLE default 
9.439962e-003
9.439967e-003
9.439978e-003
9.439992e-003
9.440008e-003
9.440020e-003
9.440012e-003
9.439958e-003
9.439808e-003
9.439479e-003
9.438836e-003
9.437676e-003
9.435700e-003
9.432504e-003
9.427561e-003
9.420236e-003
9.409824e-003
9.395635e-003
9.377117e-003
9.354016e-003
9.326553e-003
9.295554e-003
9.262508e-003
9.229507e-003
9.199065e-003
9.173848e-003
9.156372e-003
9.148730e-003
9.152392e-003
9.168126e-003
9.196006e-003
9.235520e-003
9.285707e-003
9.345312e-003
9.412925e-003
9.487083e-003
9.566359e-003
9.649425e-003
9.735111e-003
9.822450e-003
9.910716e-003
9.999448e-003
1.008845e-002
1.017776e-002
1.026764e-002
1.035850e-002
1.045083e-002
1.054514e-002
1.064191e-002
1.074146e-002
1.084392e-002
1.094916e-002
1.105673e-002
1.116579e-002
1.127511e-002
1.138302e-002
1.148744e-002
1.158585e-002
1.167537e-002
1.175282e-002
1.181477e-002
1.185770e-002
1.187811e-002
1.187272e-002
1.183863e-002
1.177356e-002
1.167610e-002
1.154594e-002
1.138408e-002
1.119311e-002
1.097730e-002
1.074268e-002
1.049698e-002
1.024932e-002
1.000970e-002
9.788208e-003
9.594088e-003
9.434628e-003
9.314252e-003
9.233920e-003
9.191056e-003
9.180056e-003
9.193293e-003
9.222388e-003
9.259468e-003
9.298109e-003
9.333831e-003
9.364112e-003
9.388062e-003
9.405918e-003
9.418550e-003
9.427066e-003
9.432545e-003
9.435912e-003
9.437884e-003
9.438980e-003
9.439556e-003
9.439837e-003
9.439963e-003
9.440009e-003
9.439962e-003
9.439967e-003
9.439978e-003
9.439992e-003
9.440008e-003
9.440020e-003
9.440012e-003
9.439958e-003
9.439808e-003
9.439479e-003
9.438836e-003
9.437676e-003
9.435700e-003
9.432504e-003
9.427561e-003
9.420236e-003
9.409824e-003
9.395635e-003
9.377117e-003
9.354016e-003
9.326553e-003
9.295554e-003
9.262508e-003
9.229507e-003
9.199065e-003
9.173848e-003
9.156372e-003
9.148730e-003
9.152392e-003
9.168126e-003
9.196006e-003
9.235520e-003
9.285707e-003
9.345312e-003
9.412925e-003
9.487083e-003
9.566359e-003
9.649425e-003
9.735111e-003
9.822450e-003
9.910716e-003
9.999448e-003
1.008845e-002
1.017776e-002
1.026764e-002
1.035850e-002
1.045083e-002
1.054514e-002
1.064191e-002
1.074146e-002
1.084392e-002
1.094916e-002
1.105673e-002
1.116579e-002
1.127511e-002
1.138302e-002
1.148744e-002
1.158585e-002
1.167537e-002
1.175282e-002
1.181477e-002
1.185770e-002
1.187811e-002
1.187272e-002
1.183863e-002
1.177356e-002
1.167610e-002
1.154594e-002
1.138408e-002
1.119311e-002
1.097730e-002
1.074268e-002
1.049698e-002
1.024932e-002
1.000970e-002
9.788208e-003
9.594088e-003
9.434628e-003
9.314252e-003
9.233920e-003
9.191056e-003
9.180056e-003
9.193293e-003
9.222388e-003
9.259468e-003
9.298109e-003
9.333831e-003
9.364112e-003
9.388062e-003
9.405918e-003
9.418550e-003
9.427066e-003
9.432545e-003
9.435912e-003
9.437884e-003
9.438980e-003
9.439556e-003
9.439837e-003
9.439963e-003
9.440009e-003
9.439968e-003
9.439974e-003
9.439983e-003
9.439996e-003
9.440006e-003
9.440002e-003
9.439962e-003
9.439844e-003
9.439574e-003
9.439028e-003
9.438014e-003
9.436239e-003
9.433293e-003
9.428623e-003
9.421543e-003
9.411279e-003
9.397077e-003
9.378390e-003
9.355152e-003
9.328090e-003
9.299014e-003
9.270973e-003
9.248192e-003
9.235737e-003
9.238963e-003
9.262847e-003
9.311364e-003
9.387033e-003
9.490708e-003
9.621633e-003
9.777694e-003
9.955807e-003
1.015232e-002
1.036340e-002
1.058528e-002
1.081446e-002
1.104781e-002
1.128266e-002
1.151683e-002
1.174871e-002
1.197722e-002
1.220189e-002
1.242277e-002
1.264041e-002
1.285571e-002
1.306985e-002
1.328411e-002
1.349974e-002
1.371781e-002
1.393906e-002
1.416377e-002
1.439165e-002
1.462177e-002
1.485242e-002
1.508110e-002
1.530450e-002
1.551853e-002
1.571829e-002
1.589822e-002
1.605220e-002
1.617365e-002
1.625575e-002
1.629166e-002
1.627479e-002
1.619906e-002
1.605934e-002
1.585179e-002
1.557429e-002
1.522695e-002
1.481256e-002
1.433702e-002
1.380971e-002
1.324365e-002
1.265537e-002
1.206433e-002
1.149176e-002
1.095899e-002
1.048524e-002
1.008547e-002
9.768418e-003
9.535605e-003
9.381382e-003
9.294234e-003
9.259004e-003
9.259516e-003
9.280965e-003
9.311552e-003
9.343148e-003
9.371091e-003
9.393428e-003
9.409979e-003
9.421504e-003
9.429108e-003
9.433881e-003
9.436735e-003
9.438360e-003
9.439237e-003
9.439682e-003
9.439891e-003
9.439971e-003
9.439981e-003
9.439986e-003
9.439994e-003
9.440000e-003
9.439994e-003
9.439953e-003
9.439835e-003
9.439564e-003
9.439009e-003
9.437958e-003
9.436083e-003
9.432902e-003
9.427754e-003
9.419794e-003
9.408059e-003
9.391636e-003
9.369998e-003
9.343539e-003
9.314264e-003
9.286518e-003
9.267503e-003
9.267302e-003
9.298237e-003
9.373550e-003
9.505676e-003
9.704483e-003
9.975917e-003
1.032132e-002
1.073751e-002
1.121747e-002
1.175149e-002
1.232839e-002
1.293669e-002
1.356547e-002
1.420491e-002
1.484661e-002
1.548362e-002
1.611044e-002
1.672305e-002
1.731880e-002
1.789640e-002
1.845587e-002
1.899836e-002
1.952599e-002
2.004157e-002
2.054835e-002
2.104965e-002
2.154857e-002
2.204767e-002
2.254871e-002
2.305238e-002
2.355808e-002
2.406381e-002
2.456598e-002
2.505941e-002
2.553733e-002
2.599137e-002
2.641176e-002
2.678740e-002
2.710611e-002
2.735485e-002
2.752002e-002
2.758775e-002
2.754437e-002
2.737679e-002
2.707312e-002
2.662329e-002
2.601981e-002
2.525870e-002
2.434055e-002
2.327163e-002
2.206515e-002
2.074234e-002
1.933311e-002
1.787600e-002
1.641685e-002
1.500598e-002
1.369387e-002
1.252570e-002
1.153582e-002
1.074324e-002
1.014936e-002
9.738766e-003
9.482994e-003
9.346330e-003
9.292131e-003
9.288073e-003
9.309271e-003
9.339052e-003
9.367932e-003
9.391680e-003
9.409300e-003
9.421427e-003
9.429282e-003
9.434106e-003
9.436924e-003
9.438490e-003
9.439313e-003
9.439713e-003
9.439872e-003
9.439998e-003
9.440002e-003
9.440004e-003
9.439996e-003
9.439955e-003
9.439839e-003
9.439567e-003
9.439001e-003
9.437906e-003
9.435908e-003
9.432440e-003
9.426696e-003
9.417618e-003
9.403967e-003
9.384583e-003
9.358945e-003
9.328159e-003
9.296405e-003
9.272664e-003
9.272231e-003
9.317331e-003
9.436155e-003
9.660090e-003
1.001950e-002
1.053903e-002
1.123369e-002
1.210655e-002
1.314860e-002
1.434048e-002
1.565557e-002
1.706343e-002
1.853313e-002
2.003583e-002
2.154637e-002
2.304401e-002
2.451249e-002
2.593966e-002
2.731707e-002
2.863950e-002
2.990467e-002
3.111291e-002
3.226690e-002
3.337123e-002
3.443203e-002
3.545640e-002
3.645183e-002
3.742565e-002
3.838444e-002
3.933349e-002
4.027638e-002
4.121460e-002
4.214726e-002
4.307087e-002
4.397928e-002
4.486367e-002
4.571258e-002
4.651217e-002
4.724632e-002
4.789699e-002
4.844445e-002
4.886758e-002
4.914417e-002
4.925123e-002
4.916540e-002
4.886331e-002
4.832216e-002
4.752043e-002
4.643880e-002
4.506150e-002
4.337802e-002
4.138543e-002
3.909129e-002
3.651695e-002
3.370089e-002
3.070135e-002
2.759713e-002
2.448532e-002
2.147517e-002
1.867779e-002
1.619295e-002
1.409540e-002
1.242409e-002
1.117737e-002
1.031619e-002
9.774351e-003
9.472889e-003
9.334439e-003
9.293815e-003
9.303104e-003
9.331632e-003
9.362622e-003
9.388726e-003
9.408003e-003
9.421050e-003
9.429316e-003
9.434268e-003
9.437085e-003
9.438603e-003
9.439360e-003
9.439667e-003
9.440019e-003
9.440018e-003
9.440008e-003
9.439970e-003
9.439862e-003
9.439604e-003
9.439054e-003
9.437962e-003
9.435921e-003
9.432287e-003
9.426116e-003
9.416122e-003
9.400750e-003
9.378520e-003
9.348867e-003
9.313800e-003
9.280597e-003
9.265427e-003
9.297137e-003
9.419697e-003
9.691522e-003
1.018042e-002
1.095438e-002
1.207008e-002
1.356236e-002
1.543738e-002
1.767145e-002
2.021522e-002
2.300162e-002
2.595527e-002
2.900120e-002
3.207152e-002
3.510948e-002
3.807098e-002
4.092419e-002
4.364800e-002
4.623011e-002
4.866517e-002
5.095332e-002
5.309905e-002
5.511037e-002
5.699808e-002
5.877504e-002
6.045541e-002
6.205386e-002
6.358472e-002
6.506122e-002
6.649474e-002
6.789421e-002
6.926565e-002
7.061180e-002
7.193194e-002
7.322181e-002
7.447369e-002
7.567659e-002
7.681650e-002
7.787670e-002
7.883819e-002
7.967991e-002
8.037902e-002
8.091105e-002
8.124992e-002
8.136791e-002
8.123556e-002
8.082145e-002
8.009215e-002
7.901219e-002
7.754432e-002
7.565039e-002
7.329292e-002
7.043797e-002
6.705966e-002
6.314655e-002
5.870995e-002
5.379335e-002
4.848139e-002
4.290574e-002
3.724429e-002
3.171061e-002
2.653225e-002
2.191984e-002
1.803368e-002
1.495718e-002
1.268603e-002
1.113716e-002
1.017427e-002
9.640773e-003
9.389729e-003
9.303092e-003
9.298418e-003
9.325645e-003
9.358810e-003
9.387086e-003
9.407692e-003
9.421331e-003
9.429749e-003
9.434649e-003
9.437343e-003
9.438711e-003
9.439275e-003
9.440038e-003
9.440029e-003
9.439994e-003
9.439899e-003
9.439668e-003
9.439162e-003
9.438132e-003
9.436153e-003
9.432538e-003
9.426235e-003
9.415755e-003
9.399225e-003
9.374780e-003
9.341688e-003
9.302809e-003
9.269032e-003
9.265950e-003
9.341881e-003
9.574668e-003
1.007319e-002
1.096976e-002
1.240201e-002
1.448729e-002
1.729663e-002
2.083656e-002
2.504473e-002
2.980023e-002
3.494434e-002
4.030505e-002
4.571891e-002
5.104639e-002
5.617967e-002
6.104391e-002
6.559395e-002
6.980881e-002
7.368548e-002
7.723345e-002
8.047031e-002
8.341855e-002
8.610348e-002
8.855175e-002
9.079038e-002
9.284592e-002
9.474380e-002
9.650764e-002
9.815868e-002
9.971522e-002
1.011923e-001
1.026013e-001
1.039501e-001
1.052428e-001
1.064802e-001
1.076601e-001
1.087772e-001
1.098242e-001
1.107917e-001
1.116692e-001
1.124446e-001
1.131052e-001
1.136371e-001
1.140253e-001
1.142531e-001
1.143013e-001
1.141476e-001
1.137650e-001
1.131209e-001
1.121754e-001
1.108796e-001
1.091742e-001
1.069884e-001
1.042405e-001
1.008400e-001
9.669372e-002
9.171629e-002
8.584683e-002
7.907162e-002
7.145060e-002
6.314228e-002
5.441711e-002
4.564809e-002
3.727062e-002
2.971394e-002
2.332054e-002
1.827992e-002
1.460172e-002
1.213723e-002
1.063778e-002
9.824828e-003
9.447372e-003
9.313475e-003
9.296204e-003
9.322844e-003
9.357935e-003
9.387667e-003
9.408849e-003
9.422485e-003
9.430646e-003
9.435225e-003
9.437589e-003
9.438574e-003
9.440050e-003
9.440023e-003
9.439944e-003
9.439747e-003
9.439307e-003
9.438386e-003
9.436570e-003
9.433161e-003
9.427053e-003
9.416617e-003
9.399698e-003
9.374005e-003
9.338426e-003
9.296243e-003
9.261559e-003
9.270048e-003
9.393620e-003
9.755431e-003
1.053778e-002
1.197349e-002
1.431424e-002
1.777840e-002
2.249198e-002
2.844408e-002
3.547487e-002
4.330171e-002
5.157292e-002
5.992974e-002
6.805769e-002
7.571717e-002
8.275253e-002
8.908492e-002
9.469627e-002
9.961120e-002
1.038807e-001
1.075694e-001
1.107465e-001
1.134803e-001
1.158341e-001
1.178653e-001
1.196242e-001
1.211542e-001
1.224926e-001
1.236705e-001
1.247140e-001
1.256441e-001
1.264778e-001
1.272282e-001
1.279053e-001
1.285165e-001
1.290671e-001
1.295606e-001
1.299999e-001
1.303867e-001
1.307226e-001
1.310088e-001
1.312465e-001
1.314369e-001
1.315807e-001
1.316782e-001
1.317288e-001
1.317306e-001
1.316797e-001
1.315693e-001
1.313892e-001
1.311238e-001
1.307506e-001
1.302374e-001
1.295385e-001
1.285902e-001
1.273050e-001
1.255654e-001
1.232183e-001
1.200731e-001
1.159067e-001
1.104828e-001
1.035914e-001
9.511301e-002
8.509683e-002
7.383091e-002
6.186523e-002
4.995645e-002
3.892780e-002
2.948207e-002
2.204038e-002
1.667482e-002
1.315515e-002
1.107303e-002
9.980222e-003
9.489448e-003
9.319743e-003
9.295903e-003
9.323736e-003
9.360400e-003
9.390594e-003
9.411419e-003
9.424376e-003
9.431828e-003
9.435741e-003
9.437390e-003
9.440044e-003
9.439987e-003
9.439830e-003
9.439466e-003
9.438685e-003
9.437104e-003
9.434056e-003
9.428443e-003
9.418579e-003
9.402113e-003
9.376336e-003
9.339517e-003
9.294592e-003
9.257339e-003
9.271525e-003
9.432153e-003
9.913249e-003
1.098893e-002
1.302913e-002
1.645142e-002
2.162452e-002
2.874566e-002
3.773939e-002
4.822878e-002
5.960083e-002
7.114168e-002
8.218598e-002
9.222729e-002
1.009650e-001
1.082941e-001
1.142593e-001
1.189984e-001
1.226918e-001
1.255272e-001
1.276788e-001
1.292982e-001
1.305110e-001
1.314179e-001
1.320970e-001
1.326070e-001
1.329917e-001
1.332827e-001
1.335029e-001
1.336688e-001
1.337926e-001
1.338832e-001
1.339474e-001
1.339905e-001
1.340168e-001
1.340304e-001
1.340347e-001
1.340330e-001
1.340285e-001
1.340237e-001
1.340208e-001
1.340214e-001
1.340265e-001
1.340362e-001
1.340503e-001
1.340679e-001
1.340876e-001
1.341077e-001
1.341257e-001
1.341385e-001
1.341422e-001
1.341316e-001
1.340999e-001
1.340381e-001
1.339340e-001
1.337706e-001
1.335228e-001
1.331522e-001
1.325968e-001
1.317544e-001
1.304571e-001
1.284376e-001
1.253019e-001
1.205371e-001
1.135981e-001
1.040890e-001
9.199932e-002
7.788357e-002
6.285535e-002
4.833713e-002
3.565026e-002
2.564120e-002
1.852316e-002
1.397173e-002
1.137068e-002
1.006109e-002
9.500716e-003
9.318474e-003
9.297335e-003
9.328445e-003
9.366054e-003
9.395534e-003
9.415025e-003
9.426621e-003
9.432835e-003
9.435486e-003
9.440004e-003
9.439899e-003
9.439617e-003
9.438989e-003
9.437682e-003
9.435095e-003
9.430200e-003
9.421350e-003
9.406122e-003
9.381475e-003
9.344909e-003
9.298153e-003
9.256282e-003
9.266427e-003
9.439834e-003
9.995911e-003
1.130477e-002
1.389811e-002
1.840837e-002
2.541019e-002
3.518860e-002
4.752665e-002
6.163914e-002
7.632589e-002
9.029437e-002
1.025004e-001
1.123589e-001
1.197679e-001
1.249878e-001
1.284658e-001
1.306804e-001
1.320437e-001
1.328658e-001
1.333593e-001
1.336607e-001
1.338531e-001
1.339833e-001
1.340751e-001
1.341386e-001
1.341768e-001
1.341899e-001
1.341779e-001
1.341415e-001
1.340823e-001
1.340024e-001
1.339042e-001
1.337900e-001
1.336614e-001
1.335198e-001
1.333665e-001
1.332023e-001
1.330282e-001
1.328456e-001
1.326564e-001
1.324634e-001
1.322708e-001
1.320838e-001
1.319097e-001
1.317573e-001
1.316368e-001
1.315599e-001
1.315390e-001
1.315864e-001
1.317136e-001
1.319301e-001
1.322415e-001
1.326478e-001
1.331408e-001
1.337003e-001
1.342906e-001
1.348563e-001
1.353201e-001
1.355862e-001
1.355542e-001
1.351442e-001
1.343188e-001
1.330621e-001
1.312702e-001
1.285624e-001
1.241402e-001
1.169043e-001
1.059551e-001
9.127587e-002
7.408770e-002
5.652495e-002
4.080121e-002
2.840070e-002
1.974482e-002
1.438437e-002
1.144711e-002
1.004165e-002
9.477056e-003
9.310712e-003
9.301364e-003
9.336905e-003
9.374329e-003
9.401807e-003
9.418997e-003
9.428464e-003
9.432562e-003
9.439911e-003
9.439731e-003
9.439260e-003
9.438235e-003
9.436149e-003
9.432095e-003
9.424555e-003
9.411179e-003
9.388762e-003
9.354062e-003
9.306999e-003
9.259540e-003
9.255931e-003
9.411329e-003
9.972115e-003
1.138651e-002
1.434617e-002
1.972948e-002
2.837697e-002
4.070035e-002
5.627293e-002
7.367596e-002
9.081887e-002
1.056582e-001
1.169271e-001
1.244543e-001
1.289418e-001
1.314301e-001
1.328261e-001
1.336937e-001
1.342758e-001
1.346224e-001
1.347178e-001
1.345545e-001
1.341529e-001
1.335532e-001
1.328014e-001
1.319399e-001
1.310041e-001
1.300218e-001
1.290140e-001
1.279961e-001
1.269782e-001
1.259665e-001
1.249637e-001
1.239700e-001
1.229836e-001
1.220021e-001
1.210230e-001
1.200444e-001
1.190662e-001
1.180899e-001
1.171196e-001
1.161621e-001
1.152271e-001
1.143274e-001
1.134787e-001
1.126994e-001
1.120109e-001
1.114369e-001
1.110033e-001
1.107382e-001
1.106711e-001
1.108332e-001
1.112568e-001
1.119749e-001
1.130199e-001
1.144220e-001
1.162058e-001
1.183840e-001
1.209485e-001
1.238547e-001
1.270009e-001
1.302036e-001
1.331760e-001
1.355293e-001
1.368312e-001
1.367563e-001
1.352933e-001
1.327577e-001
1.292627e-001
1.239139e-001
1.148633e-001
1.007631e-001
8.232804e-002
6.232310e-002
4.404941e-002
2.975735e-002
2.005320e-002
1.428438e-002
1.128038e-002
9.928674e-003
9.427879e-003
9.301557e-003
9.309348e-003
9.348664e-003
9.384240e-003
9.408360e-003
9.422166e-003
9.428255e-003
9.439742e-003
9.439451e-003
9.438704e-003
9.437109e-003
9.433918e-003
9.427816e-003
9.416658e-003
9.397293e-003
9.365972e-003
9.320697e-003
9.268768e-003
9.245928e-003
9.357044e-003
9.847837e-003
1.120400e-002
1.423815e-002
2.006891e-002
2.985844e-002
4.423880e-002
6.259854e-002
8.272851e-002
1.013825e-001
1.157372e-001
1.248236e-001
1.297241e-001
1.323553e-001
1.340503e-001
1.351269e-001
1.353701e-001
1.346049e-001
1.328911e-001
1.304473e-001
1.275326e-001
1.243761e-001
1.211517e-001
1.179780e-001
1.149280e-001
1.120414e-001
1.093359e-001
1.068142e-001
1.044698e-001
1.022904e-001
1.002598e-001
9.836040e-002
9.657351e-002
9.488114e-002
9.326665e-002
9.171557e-002
9.021623e-002
8.876024e-002
8.734276e-002
8.596270e-002
8.462267e-002
8.332885e-002
8.209079e-002
8.092115e-002
7.983538e-002
7.885147e-002
7.798972e-002
7.727270e-002
7.672522e-002
7.637457e-002
7.625100e-002
7.638835e-002
7.682498e-002
7.760493e-002
7.877924e-002
8.040732e-002
8.255804e-002
8.530991e-002
8.874888e-002
9.296161e-002
9.802009e-002
1.039521e-001
1.106904e-001
1.179945e-001
1.253514e-001
1.318986e-001
1.364865e-001
1.380731e-001
1.364746e-001
1.327183e-001
1.276460e-001
1.197874e-001
1.063694e-001
8.702887e-002
6.503244e-002
4.485107e-002
2.943064e-002
1.937582e-002
1.370006e-002
1.091989e-002
9.758278e-003
9.371355e-003
9.297280e-003
9.322011e-003
9.362603e-003
9.394276e-003
9.413478e-003
9.422168e-003
9.439468e-003
9.439021e-003
9.437890e-003
9.435510e-003
9.430816e-003
9.421976e-003
9.406103e-003
9.379303e-003
9.338066e-003
9.284792e-003
9.243601e-003
9.297787e-003
9.664042e-003
1.081150e-002
1.359849e-002
1.932343e-002
2.949268e-002
4.511132e-002
6.559126e-002
8.799044e-002
1.077447e-001
1.212657e-001
1.284849e-001
1.322153e-001
1.347169e-001
1.359473e-001
1.349728e-001
1.315484e-001
1.262344e-001
1.198648e-001
1.131613e-001
1.066108e-001
1.004855e-001
9.490671e-002
8.990281e-002
8.545146e-002
8.150637e-002
7.801267e-002
7.491506e-002
7.216136e-002
6.970377e-002
6.749908e-002
6.550845e-002
6.369723e-002
6.203488e-002
6.049488e-002
5.905476e-002
5.769615e-002
5.640467e-002
5.516993e-002
5.398532e-002
5.284782e-002
5.175767e-002
5.071805e-002
4.973469e-002
4.881553e-002
4.797040e-002
4.721077e-002
4.654959e-002
4.600134e-002
4.558219e-002
4.531031e-002
4.520657e-002
4.529538e-002
4.560599e-002
4.617412e-002
4.704427e-002
4.827263e-002
4.993087e-002
5.211084e-002
5.492996e-002
5.853639e-002
6.311195e-002
6.886830e-002
7.602748e-002
8.477124e-002
9.513546e-002
1.068245e-001
1.189486e-001
1.297987e-001
1.370164e-001
1.387349e-001
1.354686e-001
1.298474e-001
1.221226e-001
1.086918e-001
8.812875e-002
6.438714e-002
4.308139e-002
2.749405e-002
1.787847e-002
1.278488e-002
1.046458e-002
9.579297e-003
9.325700e-003
9.301982e-003
9.338535e-003
9.376693e-003
9.402014e-003
9.413898e-003
9.439060e-003
9.438405e-003
9.436760e-003
9.433341e-003
9.426687e-003
9.414343e-003
9.392641e-003
9.357275e-003
9.306694e-003
9.253437e-003
9.254229e-003
9.476887e-003
1.032330e-002
1.260355e-002
1.767767e-002
2.734009e-002
4.311422e-002
6.483372e-002
8.923398e-002
1.104383e-001
1.238052e-001
1.302103e-001
1.339309e-001
1.361726e-001
1.348737e-001
1.290121e-001
1.197380e-001
1.089471e-001
9.815712e-002
8.823571e-002
7.953643e-002
7.210590e-002
6.584133e-002
6.058501e-002
5.617295e-002
5.245643e-002
4.930905e-002
4.662692e-002
4.432586e-002
4.233776e-002
4.060720e-002
3.908860e-002
3.774412e-002
3.654220e-002
3.545646e-002
3.446506e-002
3.355012e-002
3.269738e-002
3.189588e-002
3.113765e-002
3.041740e-002
2.973228e-002
2.908150e-002
2.846610e-002
2.788857e-002
2.735266e-002
2.686310e-002
2.642549e-002
2.604622e-002
2.573246e-002
2.549239e-002
2.533540e-002
2.527260e-002
2.531748e-002
2.548686e-002
2.580220e-002
2.629144e-002
2.699169e-002
2.795284e-002
2.924290e-002
3.095520e-002
3.321839e-002
3.620919e-002
4.016765e-002
4.541132e-002
5.233927e-002
6.140416e-002
7.301036e-002
8.727424e-002
1.035880e-001
1.200473e-001
1.331889e-001
1.391574e-001
1.370910e-001
1.308709e-001
1.226248e-001
1.081416e-001
8.565742e-002
6.046143e-002
3.904183e-002
2.435395e-002
1.590688e-002
1.175700e-002
1.002227e-002
9.433146e-003
9.301744e-003
9.315689e-003
9.356215e-003
9.387578e-003
9.403099e-003
9.438493e-003
9.437568e-003
9.435263e-003
9.430524e-003
9.421416e-003
9.404788e-003
9.376276e-003
9.331940e-003
9.275213e-003
9.237933e-003
9.332867e-003
9.863375e-003
1.150806e-002
1.553881e-002
2.387779e-002
3.858255e-002
6.034342e-002
8.636575e-002
1.098638e-001
1.244116e-001
1.308823e-001
1.348198e-001
1.361152e-001
1.310158e-001
1.194360e-001
1.044992e-001
8.934053e-002
7.578402e-002
6.447885e-002
5.539737e-002
4.822873e-002
4.259847e-002
3.816462e-002
3.464742e-002
3.182971e-002
2.954732e-002
2.767745e-002
2.612847e-002
2.483166e-002
2.373486e-002
2.279790e-002
2.198932e-002
2.128410e-002
2.066212e-002
2.010712e-002
1.960598e-002
1.914821e-002
1.872557e-002
1.833179e-002
1.796231e-002
1.761402e-002
1.728511e-002
1.697482e-002
1.668328e-002
1.641132e-002
1.616034e-002
1.593215e-002
1.572898e-002
1.555334e-002
1.540814e-002
1.529672e-002
1.522300e-002
1.519180e-002
1.520910e-002
1.528266e-002
1.542271e-002
1.564310e-002
1.596284e-002
1.640862e-002
1.701841e-002
1.784709e-002
1.897493e-002
2.052054e-002
2.265996e-002
2.565393e-002
2.988270e-002
3.588110e-002
4.434782e-002
5.606760e-002
7.163400e-002
9.083305e-002
1.116781e-001
1.296540e-001
1.389365e-001
1.374900e-001
1.306341e-001
1.214444e-001
1.046343e-001
7.961642e-002
5.368982e-002
3.342483e-002
2.063744e-002
1.386816e-002
1.082010e-002
9.671637e-003
9.340751e-003
9.300246e-003
9.334351e-003
9.370277e-003
9.389537e-003
9.437748e-003
9.436486e-003
9.433366e-003
9.427014e-003
9.414955e-003
9.393327e-003
9.357342e-003
9.304784e-003
9.248689e-003
9.253170e-003
9.518055e-003
1.054443e-002
1.338471e-002
1.985934e-002
3.236406e-002
5.264422e-002
7.930287e-002
1.057652e-001
1.233151e-001
1.306985e-001
1.347849e-001
1.354662e-001
1.272331e-001
1.107643e-001
9.122437e-002
7.295842e-002
5.794674e-002
4.645953e-002
3.798611e-002
3.182487e-002
2.734438e-002
2.405640e-002
2.160908e-002
1.975691e-002
1.833048e-002
1.721291e-002
1.632295e-002
1.560349e-002
1.501378e-002
1.452423e-002
1.411289e-002
1.376314e-002
1.346218e-002
1.319997e-002
1.296860e-002
1.276179e-002
1.257463e-002
1.240330e-002
1.224493e-002
1.209741e-002
1.195930e-002
1.182971e-002
1.170819e-002
1.159466e-002
1.148930e-002
1.139251e-002
1.130486e-002
1.122702e-002
1.115979e-002
1.110409e-002
1.106102e-002
1.103188e-002
1.101834e-002
1.102253e-002
1.104733e-002
1.109668e-002
1.117606e-002
1.129333e-002
1.145989e-002
1.169266e-002
1.201725e-002
1.247317e-002
1.312255e-002
1.406467e-002
1.546006e-002
1.756881e-002
2.080712e-002
2.581804e-002
3.352701e-002
4.509558e-002
6.159406e-002
8.314574e-002
1.074746e-001
1.286872e-001
1.390687e-001
1.367014e-001
1.291529e-001
1.182436e-001
9.766353e-002
7.022142e-002
4.495548e-002
2.718919e-002
1.700913e-002
1.210100e-002
1.010289e-002
9.444174e-003
9.301029e-003
9.313677e-003
9.350622e-003
9.373163e-003
9.436812e-003
9.435149e-003
9.431060e-003
9.422811e-003
9.407349e-003
9.380154e-003
9.336521e-003
9.277965e-003
9.233359e-003
9.315494e-003
9.847832e-003
1.159535e-002
1.606689e-002
2.564078e-002
4.289059e-002
6.836238e-002
9.733894e-002
1.198062e-001
1.297963e-001
1.339667e-001
1.351859e-001
1.260354e-001
1.063186e-001
8.305683e-002
6.219770e-002
4.611365e-002
3.473729e-002
2.705237e-002
2.195551e-002
1.857212e-002
1.629537e-002
1.473063e-002
1.362846e-002
1.283216e-002
1.224253e-002
1.179581e-002
1.145021e-002
1.117780e-002
1.095944e-002
1.078177e-002
1.063518e-002
1.051260e-002
1.040874e-002
1.031952e-002
1.024183e-002
1.017322e-002
1.011180e-002
1.005615e-002
1.000518e-002
9.958097e-003
9.914366e-003
9.873634e-003
9.835703e-003
9.800491e-003
9.768003e-003
9.738304e-003
9.711501e-003
9.687731e-003
9.667155e-003
9.649965e-003
9.636393e-003
9.626735e-003
9.621387e-003
9.620894e-003
9.626033e-003
9.637925e-003
9.658223e-003
9.689400e-003
9.735234e-003
9.801626e-003
9.898017e-003
1.003991e-002
1.025345e-002
1.058388e-002
1.111115e-002
1.197842e-002
1.344198e-002
1.595188e-002
2.026398e-002
2.754709e-002
3.935770e-002
5.720144e-002
8.129610e-002
1.084914e-001
1.308458e-001
1.392969e-001
1.346515e-001
1.264415e-001
1.120437e-001
8.677886e-002
5.829589e-002
3.553973e-002
2.131671e-002
1.397957e-002
1.079071e-002
9.640717e-003
9.329047e-003
9.297813e-003
9.329579e-003
9.354158e-003
9.435692e-003
9.433565e-003
9.428366e-003
9.417970e-003
9.398737e-003
9.365636e-003
9.314779e-003
9.254004e-003
9.235522e-003
9.439307e-003
1.035053e-002
1.305781e-002
1.957291e-002
3.273331e-002
5.479618e-002
8.411705e-002
1.120914e-001
1.277954e-001
1.326781e-001
1.350170e-001
1.280281e-001
1.075369e-001
8.127924e-002
5.756505e-002
3.990473e-002
2.818712e-002
2.092250e-002
1.656907e-002
1.398147e-002
1.242605e-002
1.146778e-002
1.085809e-002
1.045637e-002
1.018245e-002
9.989598e-003
9.849871e-003
9.746026e-003
9.667118e-003
9.605988e-003
9.557822e-003
9.519287e-003
9.488009e-003
9.462256e-003
9.440742e-003
9.422493e-003
9.406774e-003
9.393026e-003
9.380830e-003
9.369876e-003
9.359940e-003
9.350866e-003
9.342548e-003
9.334917e-003
9.327932e-003
9.321567e-003
9.315805e-003
9.310630e-003
9.306027e-003
9.301979e-003
9.298467e-003
9.295469e-003
9.292972e-003
9.290973e-003
9.289490e-003
9.288580e-003
9.288364e-003
9.289069e-003
9.291102e-003
9.295184e-003
9.302602e-003
9.315686e-003
9.338761e-003
9.380070e-003
9.455753e-003
9.598108e-003
9.872640e-003
1.041218e-002
1.148158e-002
1.358916e-002
1.764885e-002
2.513860e-002
3.805208e-002
5.820451e-002
8.536547e-002
1.144706e-001
1.348954e-001
1.383549e-001
1.315662e-001
1.217760e-001
1.014719e-001
7.238838e-002
4.539122e-002
2.680906e-002
1.653268e-002
1.179079e-002
9.959008e-003
9.396414e-003
9.291162e-003
9.308538e-003
9.332958e-003
9.434404e-003
9.431763e-003
9.425339e-003
9.412603e-003
9.389354e-003
9.350278e-003
9.293228e-003
9.235313e-003
9.260105e-003
9.633228e-003
1.103588e-002
1.492300e-002
2.380420e-002
4.077007e-002
6.716058e-002
9.835814e-002
1.224346e-001
1.314190e-001
1.340725e-001
1.315632e-001
1.140687e-001
8.625458e-002
5.913698e-002
3.873322e-002
2.563699e-002
1.805053e-002
1.392941e-002
1.176681e-002
1.064297e-002
1.005246e-002
9.733711e-003
9.555226e-003
9.451191e-003
9.388184e-003
9.348731e-003
9.323358e-003
9.306718e-003
9.295675e-003
9.288327e-003
9.283478e-003
9.280352e-003
9.278431e-003
9.277359e-003
9.276887e-003
9.276838e-003
9.277087e-003
9.277545e-003
9.278149e-003
9.278856e-003
9.279636e-003
9.280467e-003
9.281333e-003
9.282218e-003
9.283105e-003
9.283976e-003
9.284804e-003
9.285561e-003
9.286209e-003
9.286703e-003
9.286990e-003
9.287009e-003
9.286689e-003
9.285947e-003
9.284686e-003
9.282794e-003
9.280136e-003
9.276550e-003
9.271846e-003
9.265804e-003
9.258202e-003
9.248887e-003
9.238000e-003
9.226549e-003
9.217880e-003
9.221298e-003
9.260735e-003
9.394691e-003
9.759626e-003
1.065709e-002
1.270870e-002
1.707967e-002
2.567011e-002
4.092897e-002
6.462457e-002
9.502906e-002
1.237694e-001
1.381140e-001
1.354139e-001
1.276881e-001
1.130386e-001
8.603651e-002
5.621145e-002
3.336685e-002
1.978049e-002
1.314050e-002
1.042326e-002
9.514795e-003
9.298446e-003
9.289198e-003
9.310227e-003
9.432985e-003
9.429791e-003
9.422064e-003
9.406870e-003
9.379507e-003
9.334663e-003
9.272935e-003
9.223667e-003
9.309311e-003
9.897051e-003
1.188952e-002
1.712585e-002
2.855501e-002
4.924412e-002
7.905130e-002
1.100665e-001
1.286522e-001
1.328518e-001
1.336313e-001
1.233907e-001
9.751000e-002
6.722029e-002
4.263689e-002
2.660209e-002
1.757171e-002
1.299229e-002
1.084289e-002
9.891545e-003
9.490118e-003
9.328740e-003
9.268586e-003
9.250066e-003
9.248243e-003
9.252817e-003
9.259555e-003
9.266732e-003
9.273664e-003
9.280107e-003
9.286000e-003
9.291359e-003
9.296229e-003
9.300664e-003
9.304717e-003
9.308438e-003
9.311874e-003
9.315064e-003
9.318042e-003
9.320840e-003
9.323481e-003
9.325984e-003
9.328362e-003
9.330621e-003
9.332763e-003
9.334783e-003
9.336670e-003
9.338408e-003
9.339975e-003
9.341343e-003
9.342479e-003
9.343342e-003
9.343884e-003
9.344046e-003
9.343759e-003
9.342936e-003
9.341464e-003
9.339199e-003
9.335948e-003
9.331446e-003
9.325324e-003
9.317063e-003
9.305936e-003
9.290949e-003
9.270864e-003
9.244496e-003
9.211925e-003
9.178242e-003
9.163886e-003
9.230722e-003
9.542106e-003
1.048662e-002
1.289576e-002
1.833381e-002
2.924995e-002
4.839999e-002
7.663808e-002
1.090301e-001