# vtk DataFile Version 3.0
vtk output
ASCII
DATASET STRUCTURED_POINTS
DIMENSIONS 100 100 1
SPACING 1 1 1
ORIGIN 0 0 0
POINT_DATA 10000
SCALARS SFBox_profile double
LOOKUP_TABLE default 
0.000000e+000
0.000000e+000
0.000000e+000
0.000000e+000
0.000000e+000
0.000000e+000
0.000000e+000
0.000000e+000
0.000000e+000
0.000000e+000
0.000000e+000
0.000000e+000
0.000000e+000
0.000000e+000
0.000000e+000
0.000000e+000
0.000000e+000
0.000000e+000
0.000000e+000
0.000000e+000
0.000000e+000
0.000000e+000
0.000000e+000
0.000000e+000
0.000000e+000
0.000000e+000
0.000000e+000
0.000000e+000
0.000000e+000
0.000000e+000
0.000000e+000
0.000000e+000
0.000000e+000
0.000000e+000
0.000000e+000
0.000000e+000
0.000000e+000
0.000000e+000
0.000000e+000
0.000000e+000
0.000000e+000
0.000000e+000
0.000000e+000
0.000000e+000
0.000000e+000
0.000000e+000
0.000000e+000
0.000000e+000
0.000000e+000
0.000000e+000
0.000000e+000
0.000000e+000
0.000000e+000
0.000000e+000
0.000000e+000
0.000000e+000
0.000000e+000
0.000000e+000
0.000000e+000
0.000000e+000
0.000000e+000
0.000000e+000
0.000000e+000
0.000000e+000
0.000000e+000
0.000000e+000
0.000000e+000
0.000000e+000
0.000000e+000
0.000000e+000
0.000000e+000
0.000000e+000
0.000000e+000
0.000000e+000
0.000000e+000
0.000000e+000
0.000000e+000
0.000000e+000
0.000000e+000
0.000000e+000
0.000000e+000
0.000000e+000
0.000000e+000
0.000000e+000
0.000000e+000
0.000000e+000
0.000000e+000
0.000000e+000
0.000000e+000
0.000000e+000
0.000000e+000
0.000000e+000
0.000000e+000
0.000000e+000
0.000000e+000
0.000000e+000
0.000000e+000
0.000000e+000
0.000000e+000
0.000000e+000
7.762813e-011
8.651533e-011
9.751218e-011
8.511611e-011
9.310791e-012
-1.466615e-010
-3.306283e-010
-4.202430e-010
-2.935663e-010
6.532128e-011
5.102920e-010
7.914369e-010
7.082838e-010
2.547696e-010
-3.563971e-010
-8.189923e-010
-9.228901e-010
-6.713836e-010
-2.464285e-010
1.384971e-010
3.757729e-010
4.908554e-010
5.605865e-010
6.132499e-010
6.022730e-010
4.660636e-010
2.054149e-010
-9.919821e-011
-3.442440e-010
-4.771965e-010
-5.208375e-010
-5.331648e-010
-5.480895e-010
-5.526080e-010
-5.138628e-010
-4.211990e-010
-3.001726e-010
-1.892418e-010
-1.070549e-010
-4.286876e-011
2.467738e-011
1.031522e-010
1.805292e-010
2.401412e-010
2.779870e-010
3.047617e-010
3.329324e-010
3.640928e-010
3.894036e-010
4.008974e-010
4.004377e-010
3.968355e-010
3.949819e-010
3.893577e-010
3.692764e-010
3.302051e-010
2.784761e-010
2.235100e-010
1.656583e-010
9.387014e-011
-2.144290e-012
-1.168444e-010
-2.277827e-010
-3.120566e-010
-3.642920e-010
-3.959875e-010
-4.145667e-010
-4.041240e-010
-3.322313e-010
-1.819227e-010
2.090034e-011
2.150233e-010
3.442367e-010
3.935975e-010
3.857782e-010
3.413621e-010
2.467127e-010
6.945291e-011
-1.867825e-010
-4.433724e-010
-5.735935e-010
-4.873010e-010
-2.068087e-010
1.338035e-010
3.720458e-010
4.190586e-010
3.016308e-010
1.189439e-010
-3.942851e-011
-1.423365e-010
-2.010281e-010
-2.206424e-010
-1.781505e-010
-5.223113e-011
1.276186e-010
2.706056e-010
2.775386e-010
1.205521e-010
-1.190639e-010
-2.949684e-010
9.575953e-011
1.982872e-011
-6.683170e-011
-9.420603e-011
-4.435114e-011
3.674099e-011
8.035551e-011
5.349135e-011
-1.502528e-011
-6.232222e-011
-4.818454e-011
9.626933e-012
5.309627e-011
3.891401e-011
-1.952786e-011
-6.275843e-011
-4.048172e-011
3.852320e-011
1.087930e-010
1.029475e-010
1.074638e-011
-1.102880e-010
-1.816721e-010
-1.657510e-010
-8.856942e-011
-7.823405e-012
4.001915e-011
6.413632e-011
9.743057e-011
1.553078e-010
2.171271e-010
2.458944e-010
2.233365e-010
1.651243e-010
1.038996e-010
5.984797e-011
2.783679e-011
-9.648742e-012
-6.047307e-011
-1.145561e-010
-1.552186e-010
-1.759162e-010
-1.849208e-010
-1.950279e-010
-2.106546e-010
-2.254991e-010
-2.314287e-010
-2.278021e-010
-2.214131e-010
-2.181997e-010
-2.164643e-010
-2.089287e-010
-1.908906e-010
-1.651355e-010
-1.380725e-010
-1.114827e-010
-7.948443e-011
-3.486762e-011
2.162317e-011
7.960733e-011
1.279048e-010
1.649231e-010
1.986492e-010
2.348040e-010
2.654617e-010
2.719502e-010
2.416309e-010
1.821825e-010
1.172710e-010
6.593710e-011
2.632189e-011
-1.808356e-011
-7.449957e-011
-1.245237e-010
-1.356392e-010
-9.279230e-011
-1.922981e-011
3.701001e-011
4.183520e-011
3.718670e-012
-3.547340e-011
-3.950069e-011
-9.749248e-012
1.992690e-011
1.942508e-011
-6.643762e-012
-2.405929e-011
-5.178651e-012
3.975827e-011
6.819398e-011
4.447659e-011
-2.332004e-011
-8.447342e-011
-8.638341e-011
-2.070939e-011
6.561173e-011
1.056672e-010
6.614128e-011
-2.472372e-011
-9.809379e-011
7.926479e-011
-5.122787e-011
-2.040358e-010
-2.423804e-010
-9.287975e-011
1.943723e-010
4.589002e-010
5.187956e-010
2.881597e-010
-1.522824e-010
-5.854027e-010
-7.783291e-010
-6.189117e-010
-1.789775e-010
3.346998e-010
7.029186e-010
8.050992e-010
6.528674e-010
3.440222e-010
-1.108004e-011
-3.346701e-010
-5.818928e-010
-7.214116e-010
-7.287155e-010
-5.993571e-010
-3.628310e-010
-7.672439e-011
1.979117e-010
4.202651e-010
5.754885e-010
6.638938e-010
6.887344e-010
6.539687e-010
5.694192e-010
4.529212e-010
3.244515e-010
1.976453e-010
7.714770e-011
-3.656008e-011
-1.411853e-010
-2.319765e-010
-3.059918e-010
-3.653617e-010
-4.154132e-010
-4.598285e-010
-4.982382e-010
-5.284923e-010
-5.504300e-010
-5.665881e-010
-5.792081e-010
-5.872763e-010
-5.871019e-010
-5.756177e-010
-5.523733e-010
-5.178503e-010
-4.702660e-010
-4.050547e-010
-3.182069e-010
-2.100659e-010
-8.545861e-011
4.971342e-011
1.909632e-010
3.332013e-010
4.661274e-010
5.727790e-010
6.342878e-010
6.373066e-010
5.776478e-010
4.581962e-010
2.860771e-010
7.486351e-011
-1.494768e-010
-3.472659e-010
-4.747601e-010
-5.007932e-010
-4.188614e-010
-2.471736e-010
-2.087583e-011
2.135942e-010
3.996429e-010
4.769934e-010
4.036763e-010
1.872308e-010
-9.939541e-011
-3.399674e-010
-4.314970e-010
-3.413487e-010
-1.251434e-010
1.077839e-010
2.567316e-010
2.776066e-010
1.901533e-010
5.082640e-011
-8.154303e-011
-1.655072e-010
-1.806465e-010
-1.265404e-010
-2.401091e-011
8.650803e-011
1.577742e-010
-2.643329e-011
-6.938787e-011
-1.273386e-010
-1.452456e-010
-6.193723e-011
1.369722e-010
3.716819e-010
4.846421e-010
3.383871e-010
-6.416252e-011
-5.374089e-010
-8.055619e-010
-6.816013e-010
-2.042594e-010
3.758049e-010
7.572708e-010
7.786835e-010
4.993033e-010
1.222060e-010
-1.642253e-010
-2.973183e-010
-3.312191e-010
-3.435016e-010
-3.545486e-010
-3.260358e-010
-2.216962e-010
-5.981177e-011
9.350400e-011
1.775738e-010
1.822625e-010
1.454653e-010
1.128409e-010
1.016875e-010
9.883615e-011
8.559238e-011
6.001333e-011
3.646692e-011
2.853259e-011
3.566263e-011
4.570266e-011
4.745235e-011
3.931021e-011
2.710622e-011
1.604864e-011
5.828543e-012
-7.523904e-012
-2.673612e-011
-5.079389e-011
-7.654922e-011
-1.019331e-010
-1.275091e-010
-1.552987e-010
-1.862612e-010
-2.186755e-010
-2.487993e-010
-2.732825e-010
-2.910736e-010
-3.025966e-010
-3.064893e-010
-2.973465e-010
-2.680203e-010
-2.156740e-010
-1.458512e-010
-6.938986e-011
5.679365e-012
7.834291e-011
1.485644e-010
2.061835e-010
2.284916e-010
1.941721e-010
1.038356e-010
-1.333233e-011
-1.168354e-010
-1.818763e-010
-2.093063e-010
-2.075641e-010
-1.669974e-010
-6.021734e-011
1.218814e-010
3.302925e-010
4.616317e-010
4.195422e-010
1.918820e-010
-1.228224e-010
-3.702289e-010
-4.385942e-010
-3.244620e-010
-1.173722e-010
7.524433e-011
1.950318e-010
2.409177e-010
2.290077e-010
1.584392e-010
2.264295e-011
-1.499308e-010
-2.793832e-010
-2.760993e-010
-1.148072e-010
1.254958e-010
3.011631e-010
-2.059957e-010
-3.967765e-011
1.427851e-010
1.875566e-010
6.949623e-011
-9.370562e-011
-1.529424e-010
-6.191876e-011
8.594554e-011
1.485738e-010
6.872960e-011
-7.375342e-011
-1.395205e-010
-6.475962e-011
7.356284e-011
1.263857e-010
1.451715e-011
-1.871769e-010
-3.037351e-010
-2.068796e-010
7.482143e-011
3.772668e-010
5.296826e-010
4.756524e-010
2.880905e-010
8.216183e-011
-8.263748e-011
-2.252858e-010
-3.868272e-010
-5.639032e-010
-6.992261e-010
-7.311782e-010
-6.475099e-010
-4.917000e-010
-3.223968e-010
-1.697223e-010
-2.730076e-011
1.214623e-010
2.755742e-010
4.140983e-010
5.161498e-010
5.792250e-010
6.182291e-010
6.495213e-010
6.776611e-010
6.963550e-010
6.993587e-010
6.886170e-010
6.721450e-010
6.553999e-010
6.356049e-010
6.044136e-010
5.556642e-010
4.902393e-010
4.132195e-010
3.264381e-010
2.246376e-010
1.004096e-010
-4.595089e-011
-2.018375e-010
-3.491755e-010
-4.769680e-010
-5.860376e-010
-6.789638e-010
-7.447145e-010
-7.565261e-010
-6.905481e-010
-5.499771e-010
-3.692359e-010
-1.899405e-010
-3.053064e-011
1.180267e-010
2.630579e-010
3.782233e-010
4.090026e-010
3.205950e-010
1.451276e-010
-2.414531e-011
-9.779146e-011
-6.045826e-011
1.952551e-011
5.362456e-011
1.205311e-011
-5.600963e-011
-7.887575e-011
-3.803607e-011
1.361629e-011
1.002375e-011
-5.259919e-011
-1.026350e-010
-6.164088e-011
6.901326e-011
1.910523e-010
1.877893e-010
3.294758e-011
-1.703424e-010
-2.635121e-010
-1.626926e-010
6.535618e-011
2.497499e-010
-3.413133e-010
-1.181222e-011
3.704745e-010
4.885255e-010
2.230658e-010
-2.597041e-010
-6.294701e-010
-6.283242e-010
-2.477539e-010
2.781140e-010
6.454725e-010
6.808522e-010
4.224236e-010
4.459058e-011
-2.858823e-010
-4.965264e-010
-5.876559e-010
-5.598113e-010
-3.849073e-010
-5.366838e-011
3.598332e-010
7.007193e-010
8.204316e-010
6.773697e-010
3.608437e-010
1.782520e-011
-2.497987e-010
-4.293757e-010
-5.578237e-010
-6.522061e-010
-6.830399e-010
-6.096143e-010
-4.320887e-010
-2.037448e-010
7.057615e-012
1.648567e-010
2.798551e-010
3.800446e-010
4.762724e-010
5.543058e-010
5.956238e-010
6.004805e-010
5.894025e-010
5.847205e-010
5.931214e-010
6.057322e-010
6.124643e-010
6.140684e-010
6.203169e-010
6.381745e-010
6.633008e-010
6.834262e-010
6.893497e-010
6.816687e-010
6.661067e-010
6.424318e-010
5.992567e-010
5.215844e-010
4.045028e-010
2.586785e-010
1.006354e-010
-6.264323e-011
-2.370138e-010
-4.257650e-010
-6.101581e-010
-7.488701e-010
-8.023506e-010
-7.609336e-010
-6.479195e-010
-4.929603e-010
-3.041171e-010
-7.199610e-011
1.939133e-010
4.357456e-010
5.645989e-010
5.203853e-010
3.230732e-010
6.560316e-011
-1.483713e-010
-2.662201e-010
-2.944399e-010
-2.564454e-010
-1.548775e-010
1.557186e-011
2.200292e-010
3.632104e-010
3.399996e-010
1.263420e-010
-1.730771e-010
-3.782245e-010
-3.590274e-010
-1.343136e-010
1.392046e-010
2.827179e-010
2.246149e-010
4.229432e-011
-1.114204e-010
-1.325464e-010
-3.996358e-011
5.564137e-011
-2.730558e-010
-1.176963e-011
3.111041e-010
4.450344e-010
2.559078e-010
-1.726561e-010
-5.764801e-010
-6.772801e-010
-3.752565e-010
1.693598e-010
6.345144e-010
7.509313e-010
4.772531e-010
8.615116e-012
-3.770831e-010
-5.067886e-010
-3.931209e-010
-1.709114e-010
2.819396e-011
1.499855e-010
2.002082e-010
1.877075e-010
1.029754e-010
-5.085979e-011
-2.235053e-010
-3.311849e-010
-3.131771e-010
-1.760284e-010
1.809350e-011
2.049302e-010
3.597636e-010
4.914102e-010
6.050102e-010
6.790870e-010
6.808849e-010
6.000458e-010
4.626585e-010
3.114486e-010
1.739960e-010
5.052963e-011
-7.063399e-011
-1.903893e-010
-2.931522e-010
-3.613298e-010
-3.919604e-010
-3.977371e-010
-3.929460e-010
-3.802129e-010
-3.512479e-010
-2.989818e-010
-2.270729e-010
-1.468270e-010
-6.565697e-011
1.978901e-011
1.179176e-010
2.297359e-010
3.432499e-010
4.414760e-010
5.159912e-010
5.709416e-010
6.119751e-010
6.317111e-010
6.093028e-010
5.278672e-010
3.932323e-010
2.333658e-010
7.710393e-011
-6.586580e-011
-2.011658e-010
-3.252342e-010
-4.087668e-010
-4.117509e-010
-3.203073e-010
-1.687582e-010
-2.157522e-011
7.004912e-011
9.596186e-011
7.555401e-011
2.650571e-011
-4.635198e-011
-1.291075e-010
-1.756548e-010
-1.249583e-010
4.201489e-011
2.581229e-010
3.933706e-010
3.426728e-010
1.105543e-010
-1.807722e-010
-3.713276e-010
-3.689630e-010
-2.001302e-010
2.438530e-011
1.903522e-010
2.424898e-010
1.929795e-010
8.955506e-011
-2.029365e-011
-1.057255e-010
-1.513698e-010
5.688430e-011
-7.844867e-012
-5.122818e-011
-9.336587e-012
7.914789e-011
1.069910e-010
1.454949e-011
-1.347332e-010
-2.049947e-010
-1.212735e-010
4.784288e-011
1.478337e-010
8.769508e-011
-6.304676e-011
-1.296502e-010
5.078118e-012
2.804193e-010
4.925689e-010
4.547696e-010
1.417651e-010
-2.999349e-010
-6.685175e-010
-8.378074e-010
-7.993528e-010
-6.100453e-010
-3.215358e-010
3.924151e-011
4.400705e-010
8.176194e-010
1.093767e-009
1.217951e-009
1.190881e-009
1.048601e-009
8.285784e-010
5.529335e-010
2.385359e-010
-8.713270e-011
-3.875487e-010
-6.351494e-010
-8.249085e-010
-9.687299e-010
-1.077985e-009
-1.153304e-009
-1.190476e-009
-1.192738e-009
-1.173973e-009
-1.149205e-009
-1.123392e-009
-1.090695e-009
-1.044141e-009
-9.841987e-010
-9.168593e-010
-8.440803e-010
-7.581857e-010
-6.472268e-010
-5.058174e-010
-3.394920e-010
-1.577824e-010
3.574762e-011
2.441319e-010
4.661989e-010
6.860289e-010
8.755637e-010
1.009246e-009
1.075559e-009
1.073254e-009
9.980698e-010
8.383873e-010
5.892029e-010
2.715610e-010
-6.505038e-011
-3.633816e-010
-5.828859e-010
-7.045740e-010
-7.170412e-010
-6.091747e-010
-3.881313e-010
-1.062390e-010
1.419533e-010
2.686514e-010
2.536856e-010
1.597796e-010
8.074090e-011
6.566428e-011
8.848862e-011
8.892589e-011
3.983608e-011
-2.847935e-011
-6.821547e-011
-6.946991e-011
-6.678329e-011
-8.900827e-011
-1.118043e-010
-7.418593e-011
4.891868e-011
1.943101e-010
2.448059e-010
1.318113e-010
-8.800292e-011
-2.622139e-010
4.924537e-010
4.353175e-011
-4.568098e-010
-5.838535e-010
-2.309332e-010
3.223516e-010
6.544885e-010
5.375751e-010
8.742865e-011
-3.695267e-010
-5.672400e-010
-4.696970e-010
-2.225043e-010
2.267292e-011
2.239651e-010
4.104201e-010
5.646309e-010
5.778353e-010
3.394540e-010
-1.282404e-010
-6.344255e-010
-9.323310e-010
-8.856900e-010
-5.463273e-010
-8.847419e-011
3.250607e-010
6.250562e-010
8.167337e-010
9.107215e-010
8.869843e-010
7.200209e-010
4.235792e-010
6.012022e-011
-2.939505e-010
-5.896512e-010
-8.159392e-010
-9.794453e-010
-1.082510e-009
-1.121457e-009
-1.099386e-009
-1.033288e-009
-9.464079e-010
-8.556401e-010
-7.678452e-010
-6.864780e-010
-6.181358e-010
-5.709052e-010
-5.478182e-010
-5.445373e-010
-5.543133e-010
-5.739226e-010
-6.033246e-010
-6.399295e-010
-6.751296e-010
-6.978174e-010
-7.007113e-010
-6.816298e-010
-6.382275e-010
-5.633906e-010
-4.483724e-010
-2.912223e-010
-1.007158e-010
1.091948e-010
3.272807e-010
5.440746e-010
7.417331e-010
8.882554e-010
9.479792e-010
9.019343e-010
7.574449e-010
5.361909e-010
2.558775e-010
-6.839432e-011
-3.993234e-010
-6.598823e-010
-7.578954e-010
-6.473586e-010
-3.748478e-010
-6.103442e-011
1.752973e-010
2.858118e-010
2.945265e-010
2.419093e-010
1.394230e-010
-1.342431e-011
-1.751732e-010
-2.501394e-010
-1.581770e-010
6.974751e-011
2.767759e-010
2.901265e-010
7.443082e-011
-2.150078e-010
-3.465642e-010
-2.080667e-010
8.871794e-011
2.965437e-010
2.442545e-010
-1.384482e-011
-2.455867e-010
7.130200e-010
1.248115e-010
-5.691197e-010
-8.251022e-010
-4.507404e-010
2.657270e-010
7.935779e-010
7.672913e-010
2.445555e-010
-3.725996e-010
-6.664081e-010
-5.048675e-010
-8.701065e-011
2.656491e-010
3.640348e-010
2.413940e-010
4.562518e-011
-1.199704e-010
-2.478893e-010
-3.511466e-010
-3.793887e-010
-2.380503e-010
1.050808e-010
5.447858e-010
8.842151e-010
9.666837e-010
7.737942e-010
4.087357e-010
-3.176114e-012
-3.958568e-010
-7.616057e-010
-1.094681e-009
-1.353182e-009
-1.478160e-009
-1.441735e-009
-1.270043e-009
-1.020716e-009
-7.427020e-010
-4.573975e-010
-1.705901e-010
1.070195e-010
3.546913e-010
5.531740e-010
6.962870e-010
7.901267e-010
8.435182e-010
8.612106e-010
8.448527e-010
7.970390e-010
7.223467e-010
6.252879e-010
5.090368e-010
3.763646e-010
2.304122e-010
7.380137e-011
-9.166478e-011
-2.623116e-010
-4.292455e-010
-5.794710e-010
-7.019190e-010
-7.914228e-010
-8.442297e-010
-8.491987e-010
-7.872577e-010
-6.450067e-010
-4.309727e-010
-1.756290e-010
8.814633e-011
3.434090e-010
5.825532e-010
7.798126e-010
8.772368e-010
8.128501e-010
5.757646e-010
2.356262e-010
-9.065705e-011
-3.117551e-010
-4.084469e-010
-4.132296e-010
-3.533824e-010
-2.270900e-010
-4.150739e-011
1.378324e-010
2.032269e-010
9.661135e-011
-1.082825e-010
-2.339906e-010
-1.408506e-010
1.358430e-010
3.888949e-010
4.006142e-010
1.312642e-010
-2.337199e-010
-4.279135e-010
-3.203372e-010
-1.879852e-011
2.275025e-010
2.396453e-010
5.197898e-011
-1.330537e-010
4.629892e-010
1.509875e-010
-2.550086e-010
-4.812853e-010
-3.793647e-010
-3.129726e-011
3.046035e-010
3.867997e-010
1.827104e-010
-1.023512e-010
-1.992592e-010
-1.296806e-011
2.848027e-010
3.971592e-010
1.573235e-010
-3.262190e-010
-7.556697e-010
-8.725405e-010
-6.254215e-010
-1.533916e-010
3.577443e-010
7.911305e-010
1.097714e-009
1.228904e-009
1.112539e-009
7.105178e-010
8.944136e-011
-5.850561e-010
-1.137735e-009
-1.476539e-009
-1.609088e-009
-1.584169e-009
-1.428963e-009
-1.141776e-009
-7.316585e-010
-2.493058e-010
2.276060e-010
6.375106e-010
9.618983e-010
1.214255e-009
1.409723e-009
1.548165e-009
1.622115e-009
1.633770e-009
1.600373e-009
1.544272e-009
1.480101e-009
1.411071e-009
1.334645e-009
1.249600e-009
1.158256e-009
1.063842e-009
9.664389e-010
8.606899e-010
7.372395e-010
5.880200e-010
4.121331e-010
2.166489e-010
1.002009e-011
-2.057401e-010
-4.338198e-010
-6.700861e-010
-8.914009e-010
-1.060292e-009
-1.145746e-009
-1.139859e-009
-1.050776e-009
-8.783774e-010
-6.035015e-010
-2.122967e-010
2.619330e-010
7.245568e-010
1.058019e-009
1.185092e-009
1.100932e-009
8.493575e-010
4.788188e-010
3.339234e-011
-4.135146e-010
-7.381359e-010
-8.137264e-010
-6.074310e-010
-2.357046e-010
9.475881e-011
2.296635e-010
1.740039e-010
6.679983e-011
4.665239e-011
1.313924e-010
2.177326e-010
1.910662e-010
3.638147e-011
-1.492839e-010
-2.435581e-010
-1.982089e-010
-6.642694e-011
5.279463e-011
9.472207e-011
6.750413e-011
2.872933e-011
-2.004908e-010
5.360963e-011
2.921717e-010
2.636192e-010
-2.733017e-011
-3.382062e-010
-4.228215e-010
-2.388374e-010
5.809222e-011
2.890626e-010
3.939250e-010
4.086393e-010
3.452543e-010
1.441233e-010
-2.323134e-010
-6.748990e-010
-9.360572e-010
-7.995746e-010
-2.643753e-010
4.317185e-010
9.720269e-010
1.160298e-009
9.965559e-010
6.016248e-010
9.932175e-011
-4.291526e-010
-9.109298e-010
-1.247939e-009
-1.345034e-009
-1.173383e-009
-7.958743e-010
-3.233283e-010
1.550191e-010
6.017202e-010
1.005837e-009
1.344282e-009
1.576586e-009
1.674497e-009
1.648572e-009
1.541520e-009
1.396940e-009
1.235986e-009
1.061111e-009
8.758534e-010
6.966171e-010
5.459452e-010
4.375950e-010
3.696251e-010
3.307009e-010
3.116278e-010
3.112364e-010
3.328001e-010
3.756284e-010
4.298163e-010
4.791330e-010
5.101380e-010
5.194270e-010
5.111769e-010
4.859163e-010
4.318777e-010
3.304160e-010
1.731615e-010
-2.625101e-011
-2.404187e-010
-4.495165e-010
-6.511285e-010
-8.433528e-010
-9.969433e-010
-1.050661e-009
-9.444055e-010
-6.639928e-010
-2.553684e-010
2.033322e-010
6.383027e-010
9.857300e-010
1.171346e-009
1.111152e-009
7.641533e-010
2.014878e-010
-3.853534e-010
-7.732583e-010
-8.369317e-010
-6.151937e-010
-2.630082e-010
5.977060e-011
2.654596e-010
3.366111e-010
2.864318e-010
1.449247e-010
-2.439129e-011
-1.299132e-010
-1.103705e-010
1.244777e-012
8.934488e-011
5.661711e-011
-7.578243e-011
-1.771500e-010
-1.309409e-010
4.412068e-011
2.011926e-010
-8.724813e-010
-1.292743e-010
6.901374e-010
8.975002e-010
3.608882e-010
-4.311585e-010
-8.294787e-010
-5.682016e-010
7.314164e-011
5.730216e-010
6.121062e-010
2.657990e-010
-1.591532e-010
-4.183630e-010
-4.671451e-010
-3.731388e-010
-1.720896e-010
1.504169e-010
5.531075e-010
8.675587e-010
8.781524e-010
4.931223e-010
-1.617533e-010
-8.199924e-010
-1.247409e-009
-1.357187e-009
-1.191158e-009
-8.269952e-010
-3.200639e-010
2.805629e-010
8.940267e-010
1.412696e-009
1.751829e-009
1.889866e-009
1.858821e-009
1.701376e-009
1.442320e-009
1.097077e-009
6.954549e-010
2.863297e-010
-8.341553e-011
-3.916510e-010
-6.417750e-010
-8.437492e-010
-9.973213e-010
-1.093169e-009
-1.126679e-009
-1.107257e-009
-1.053449e-009
-9.797704e-010
-8.885285e-010
-7.737555e-010
-6.324678e-010
-4.720155e-010
-3.064029e-010
-1.452407e-010
1.319628e-011
1.764130e-010
3.438240e-010
4.988992e-010
6.172310e-010
6.834785e-010
6.984249e-010
6.665026e-010
5.771554e-010
4.043644e-010
1.314113e-010
-2.212727e-010
-5.943393e-010
-9.162119e-010
-1.129416e-009
-1.191112e-009
-1.059712e-009
-7.048111e-010
-1.528004e-010
4.729433e-010
9.756818e-010
1.179728e-009
1.029470e-009
6.131306e-010
9.848364e-011
-3.543845e-010
-6.345999e-010
-6.774533e-010
-4.715324e-010
-9.749127e-011
2.592062e-010
3.922112e-010
2.285081e-010
-8.357726e-011
-2.699366e-010
-1.617388e-010
1.415414e-010
3.483219e-010
2.429405e-010
-1.005978e-010
-3.734459e-010
-3.179918e-010
2.314156e-011
3.388770e-010
-1.062136e-009
-2.634152e-010
6.509045e-010
9.609169e-010
5.001900e-010
-2.541972e-010
-6.363449e-010
-3.709857e-010
2.243255e-010
5.610623e-010
3.100431e-010
-3.322050e-010
-8.443816e-010
-8.279646e-010
-2.954336e-010
4.110006e-010
9.276916e-010
1.098021e-009
9.602642e-010
5.971765e-010
5.175970e-011
-6.170643e-010
-1.249752e-009
-1.612903e-009
-1.539098e-009
-1.046140e-009
-3.197172e-010
4.174036e-010
1.024402e-009
1.458924e-009
1.715543e-009
1.776051e-009
1.621177e-009
1.271798e-009
7.997554e-010
2.926777e-010
-1.888866e-010
-6.211551e-010
-9.947264e-010
-1.293648e-009
-1.499079e-009
-1.607327e-009
-1.636885e-009
-1.615317e-009
-1.560941e-009
-1.478263e-009
-1.368855e-009
-1.242852e-009
-1.117743e-009
-1.006539e-009
-9.087517e-010
-8.138400e-010
-7.132761e-010
-6.085210e-010
-5.067991e-010
-4.096242e-010
-3.071794e-010
-1.858419e-010
-4.162058e-011
1.154052e-010
2.714555e-010
4.225800e-010
5.739419e-010
7.225890e-010
8.420710e-010
8.883355e-010
8.234879e-010
6.331221e-010
3.213963e-010
-1.012898e-010
-6.092446e-010
-1.129281e-009
-1.524743e-009
-1.636973e-009
-1.373041e-009
-7.735679e-010
-2.154291e-012
7.322511e-010
1.251659e-009
1.436380e-009
1.227422e-009
6.567421e-010
-1.016939e-010
-7.443140e-010
-9.780418e-010
-7.219688e-010
-1.956481e-010
2.240839e-010
2.913560e-010
7.937459e-011
-1.108749e-010
-4.670912e-011
2.119246e-010
3.773251e-010
2.286743e-010
-1.511581e-010
-4.345832e-010
-3.559426e-010
2.743375e-011
3.754958e-010
-5.738567e-010
-2.356062e-010
1.842780e-010
3.986937e-010
3.130953e-010
8.845925e-011
-1.683266e-011
9.968378e-011
2.668711e-010
1.904313e-010
-2.428613e-010
-7.921379e-010
-1.012338e-009
-6.223149e-010
2.327837e-010
1.065750e-009
1.404954e-009
1.112431e-009
4.116726e-010
-3.421234e-010
-9.039158e-010
-1.198151e-009
-1.222197e-009
-9.623053e-010
-4.239055e-010
2.868446e-010
9.584014e-010
1.379698e-009
1.460697e-009
1.256014e-009
8.840621e-010
4.335452e-010
-5.908283e-011
-5.671311e-010
-1.035654e-009
-1.394421e-009
-1.601057e-009
-1.662803e-009
-1.616684e-009
-1.495111e-009
-1.312900e-009
-1.080713e-009
-8.206424e-010
-5.634298e-010
-3.324862e-010
-1.346708e-010
3.274088e-011
1.690896e-010
2.668621e-010
3.202886e-010
3.342663e-010
3.223403e-010
2.958943e-010
2.570061e-010
2.030318e-010
1.371279e-010
7.170253e-011
1.996730e-011
-1.451920e-011
-3.672045e-011
-4.704603e-011
-3.164213e-011
3.026283e-011
1.477242e-010
3.085999e-010
4.893832e-010
6.690250e-010
8.234291e-010
9.026691e-010
8.248893e-010
5.159045e-010
-2.368082e-011
-6.824154e-010
-1.273619e-009
-1.618330e-009
-1.609694e-009
-1.223995e-009
-5.101459e-010
3.947460e-010
1.239365e-009
1.701377e-009
1.543724e-009
8.003321e-010
-1.776736e-010
-9.060104e-010
-1.073578e-009
-7.324147e-010
-2.147890e-010
1.452067e-010
2.423618e-010
2.006206e-010
1.830833e-010
2.176565e-010
2.007451e-010
4.863737e-011
-1.771545e-010
-3.049601e-010
-2.141095e-010
3.832128e-011
2.519378e-010
3.076192e-010
-6.546868e-011
-4.222238e-010
-4.002475e-010
-1.070954e-012
4.432051e-010
5.934576e-010
3.735961e-010
-3.999457e-011
-4.186898e-010
-6.266511e-010
-6.072756e-010
-3.267570e-010
1.874540e-010
7.531972e-010
1.053326e-009
8.349981e-010
1.342431e-010
-7.008485e-010
-1.237486e-009
-1.243572e-009
-7.915798e-010
-1.298064e-010
5.168760e-010
1.032895e-009
1.360790e-009
1.433988e-009
1.195081e-009
6.704518e-010
-3.424819e-012
-6.481993e-010
-1.143324e-009
-1.463766e-009
-1.635556e-009
-1.672820e-009
-1.563494e-009
-1.304141e-009
-9.311064e-010
-5.096925e-010
-9.626614e-011
2.848626e-010
6.312274e-010
9.384413e-010
1.191637e-009
1.377040e-009
1.494912e-009
1.557625e-009
1.577036e-009
1.557136e-009
1.498956e-009
1.408959e-009
1.299160e-009
1.179111e-009
1.050642e-009
9.124251e-010
7.682476e-010
6.273844e-010
4.954093e-010
3.672137e-010
2.332203e-010
9.384265e-011
-3.468054e-011
-1.309062e-010
-1.818824e-010
-1.804487e-010
-1.080074e-010
6.992271e-011
3.738520e-010
7.637720e-010
1.123610e-009
1.304550e-009
1.199378e-009
7.895096e-010
1.388465e-010
-6.331637e-010
-1.356787e-009
-1.808861e-009
-1.764207e-009
-1.126966e-009
-6.106767e-011
1.016939e-009
1.635555e-009
1.542371e-009
8.525328e-010
-4.049952e-011
-7.146278e-010
-9.401381e-010
-7.403465e-010
-3.068927e-010
1.279855e-010
3.865260e-010
3.980591e-010
2.166391e-010
-1.192613e-011
-1.409795e-010
-1.216655e-010
-2.558979e-011
3.572279e-011
1.880147e-011
-2.474122e-011
1.004840e-009
1.071037e-010
-8.063885e-010
-8.994428e-010
-1.533543e-010
6.792031e-010
8.258547e-010
1.899196e-010
-6.366533e-010
-9.626147e-010
-5.748931e-010
1.902228e-010
8.242267e-010
1.033700e-009
8.192520e-010
3.149490e-010
-3.419389e-010
-9.886178e-010
-1.386953e-009
-1.305251e-009
-6.982726e-010
2.059971e-010
1.029933e-009
1.481340e-009
1.493910e-009
1.178350e-009
6.791126e-010
9.192744e-011
-5.108997e-010
-1.029727e-009
-1.350349e-009
-1.410822e-009
-1.241086e-009
-9.283350e-010
-5.472202e-010
-1.265963e-010
3.255665e-010
7.824932e-010
1.193811e-009
1.516442e-009
1.741563e-009
1.888756e-009
1.978913e-009
2.017488e-009
2.001587e-009
1.935721e-009
1.835629e-009
1.718231e-009
1.592170e-009
1.459327e-009
1.322219e-009
1.186316e-009
1.055607e-009
9.298299e-010
8.087978e-010
6.977973e-010
6.047953e-010
5.307785e-010
4.654187e-010
3.953655e-010
3.159258e-010
2.304251e-010
1.370280e-010
2.316861e-011
-1.156462e-010
-2.457409e-010
-2.899315e-010
-1.662276e-010
1.547768e-010
6.219163e-010
1.123910e-009
1.528475e-009
1.702166e-009
1.518182e-009
8.974303e-010
-1.038369e-010
-1.227022e-009
-2.063230e-009
-2.242885e-009
-1.652040e-009
-5.178576e-010
7.009125e-010
1.537315e-009
1.712272e-009
1.222136e-009
3.224133e-010
-5.681778e-010
-1.039794e-009
-9.047288e-010
-3.292176e-010
2.571043e-010
4.662340e-010
2.478112e-010
-9.298579e-011
-1.945492e-010
1.694748e-011
2.744889e-010
2.628208e-010
-4.372861e-011
-3.503951e-010
1.072256e-009
1.552162e-010
-7.530691e-010
-8.024067e-010
-4.028123e-011
6.810190e-010
5.766414e-010
-2.997216e-010
-1.119659e-009
-1.072541e-009
-1.025968e-010
1.075335e-009
1.620511e-009
1.227128e-009
2.450538e-010
-7.197820e-010
-1.263781e-009
-1.320688e-009
-9.998724e-010
-4.160596e-010
3.112026e-010
9.799272e-010
1.332982e-009
1.213882e-009
6.923175e-010
1.859981e-011
-5.516439e-010
-8.954765e-010
-1.018470e-009
-9.607330e-010
-7.359785e-010
-3.533241e-010
1.359163e-010
6.406244e-010
1.081930e-009
1.433663e-009
1.709628e-009
1.921058e-009
2.055918e-009
2.097434e-009
2.051853e-009
1.950500e-009
1.826457e-009
1.694397e-009
1.553227e-009
1.402530e-009
1.251407e-009
1.112365e-009
9.913670e-010
8.860942e-010
7.913839e-010
7.029805e-010
6.166960e-010
5.283703e-010
4.379900e-010
3.526980e-010
2.824230e-010
2.317558e-010
1.987235e-010
1.828523e-010
1.900184e-010
2.215904e-010
2.555865e-010
2.448982e-010
1.461433e-010
-4.054951e-011
-2.576037e-010
-4.154792e-010
-4.319177e-010
-2.521149e-010
1.477917e-010
7.412293e-010
1.406722e-009
1.907833e-009
1.962671e-009
1.398873e-009
2.946541e-010
-1.009253e-009
-2.048523e-009
-2.434980e-009
-2.006379e-009
-8.852104e-010
5.381760e-010
1.703618e-009
2.093976e-009
1.523188e-009
3.170164e-010
-8.224966e-010
-1.263879e-009
-8.918654e-010
-1.636409e-010
3.052444e-010
2.667319e-010
-7.213006e-012
-7.647231e-011
1.815067e-010
4.541807e-010
3.569688e-010
-1.201645e-010
-5.677907e-010
5.155079e-010
8.831012e-011
-2.931164e-010
-2.328597e-010
1.532999e-010
3.492594e-010
-6.747195e-012
-6.876735e-010
-1.027343e-009
-5.454276e-010
5.457941e-010
1.455908e-009
1.468326e-009
5.376145e-010
-6.955654e-010
-1.444355e-009
-1.355975e-009
-6.536740e-010
1.756584e-010
7.729906e-010
1.039044e-009
1.008484e-009
7.098959e-010
1.772327e-010
-4.589536e-010
-9.698742e-010
-1.157265e-009
-9.840210e-010