# vtk DataFile Version 3.0
vtk output
ASCII
DATASET STRUCTURED_POINTS
DIMENSIONS 100 100 1
SPACING 1 1 1
ORIGIN 0 0 0
POINT_DATA 10000
SCALARS SFBox_profile double
LOOKUP_TABLE default 
9.439920e-003
9.439920e-003
9.439920e-003
9.439920e-003
9.439920e-003
9.439920e-003
9.439920e-003
9.439920e-003
9.439920e-003
9.439920e-003
9.439920e-003
9.439920e-003
9.439920e-003
9.439920e-003
9.439920e-003
9.439920e-003
9.439920e-003
9.439920e-003
9.439920e-003
9.439920e-003
9.439920e-003
9.439920e-003
9.439920e-003
9.439920e-003
9.439920e-003
9.439920e-003
9.439920e-003
9.439920e-003
9.439921e-003
9.439921e-003
9.439921e-003
9.439921e-003
9.439921e-003
9.439921e-003
9.439921e-003
9.439921e-003
9.439922e-003
9.439922e-003
9.439922e-003
9.439922e-003
9.439922e-003
9.439922e-003
9.439922e-003
9.439923e-003
9.439923e-003
9.439923e-003
9.439923e-003
9.439923e-003
9.439923e-003
9.439923e-003
9.439923e-003
9.439923e-003
9.439923e-003
9.439923e-003
9.439923e-003
9.439923e-003
9.439923e-003
9.439923e-003
9.439923e-003
9.439922e-003
9.439922e-003
9.439922e-003
9.439922e-003
9.439922e-003
9.439922e-003
9.439921e-003
9.439921e-003
9.439921e-003
9.439921e-003
9.439921e-003
9.439921e-003
9.439921e-003
9.439921e-003
9.439920e-003
9.439920e-003
9.439920e-003
9.439920e-003
9.439920e-003
9.439920e-003
9.439920e-003
9.439920e-003
9.439920e-003
9.439920e-003
9.439920e-003
9.439920e-003
9.439920e-003
9.439920e-003
9.439920e-003
9.439920e-003
9.439920e-003
9.439920e-003
9.439920e-003
9.439920e-003
9.439920e-003
9.439920e-003
9.439920e-003
9.439920e-003
9.439920e-003
9.439920e-003
9.439920e-003
9.439920e-003
9.439920e-003
9.439920e-003
9.439920e-003
9.439920e-003
9.439920e-003
9.439920e-003
9.439920e-003
9.439920e-003
9.439920e-003
9.439920e-003
9.439920e-003
9.439920e-003
9.439920e-003
9.439920e-003
9.439920e-003
9.439920e-003
9.439920e-003
9.439920e-003
9.439920e-003
9.439920e-003
9.439920e-003
9.439920e-003
9.439920e-003
9.439920e-003
9.439920e-003
9.439920e-003
9.439920e-003
9.439921e-003
9.439921e-003
9.439921e-003
9.439921e-003
9.439921e-003
9.439921e-003
9.439921e-003
9.439921e-003
9.439922e-003
9.439922e-003
9.439922e-003
9.439922e-003
9.439922e-003
9.439922e-003
9.439922e-003
9.439923e-003
9.439923e-003
9.439923e-003
9.439923e-003
9.439923e-003
9.439923e-003
9.439923e-003
9.439923e-003
9.439923e-003
9.439923e-003
9.439923e-003
9.439923e-003
9.439923e-003
9.439923e-003
9.439923e-003
9.439923e-003
9.439922e-003
9.439922e-003
9.439922e-003
9.439922e-003
9.439922e-003
9.439922e-003
9.439921e-003
9.439921e-003
9.439921e-003
9.439921e-003
9.439921e-003
9.439921e-003
9.439921e-003
9.439921e-003
9.439920e-003
9.439920e-003
9.439920e-003
9.439920e-003
9.439920e-003
9.439920e-003
9.439920e-003
9.439920e-003
9.439920e-003
9.439920e-003
9.439920e-003
9.439920e-003
9.439920e-003
9.439920e-003
9.439920e-003
9.439920e-003
9.439920e-003
9.439920e-003
9.439920e-003
9.439920e-003
9.439920e-003
9.439920e-003
9.439920e-003
9.439920e-003
9.439920e-003
9.439920e-003
9.439920e-003
9.439920e-003
9.439920e-003
9.439920e-003
9.439920e-003
9.439920e-003
9.439920e-003
9.439920e-003
9.439920e-003
9.439920e-003
9.439920e-003
9.439920e-003
9.439920e-003
9.439920e-003
9.439920e-003
9.439920e-003
9.439920e-003
9.439920e-003
9.439920e-003
9.439920e-003
9.439920e-003
9.439920e-003
9.439920e-003
9.439920e-003
9.439920e-003
9.439920e-003
9.439920e-003
9.439920e-003
9.439920e-003
9.439920e-003
9.439921e-003
9.439921e-003
9.439921e-003
9.439921e-003
9.439921e-003
9.439922e-003
9.439922e-003
9.439922e-003
9.439923e-003
9.439923e-003
9.439923e-003
9.439923e-003
9.439924e-003
9.439924e-003
9.439924e-003
9.439925e-003
9.439925e-003
9.439925e-003
9.439925e-003
9.439925e-003
9.439925e-003
9.439925e-003
9.439926e-003
9.439925e-003
9.439925e-003
9.439925e-003
9.439925e-003
9.439925e-003
9.439925e-003
9.439925e-003
9.439924e-003
9.439924e-003
9.439924e-003
9.439923e-003
9.439923e-003
9.439923e-003
9.439922e-003
9.439922e-003
9.439922e-003
9.439921e-003
9.439921e-003
9.439921e-003
9.439921e-003
9.439920e-003
9.439920e-003
9.439920e-003
9.439920e-003
9.439920e-003
9.439920e-003
9.439920e-003
9.439920e-003
9.439920e-003
9.439920e-003
9.439920e-003
9.439920e-003
9.439920e-003
9.439920e-003
9.439920e-003
9.439920e-003
9.439920e-003
9.439920e-003
9.439920e-003
9.439920e-003
9.439920e-003
9.439920e-003
9.439920e-003
9.439920e-003
9.439920e-003
9.439920e-003
9.439920e-003
9.439920e-003
9.439920e-003
9.439920e-003
9.439920e-003
9.439920e-003
9.439920e-003
9.439920e-003
9.439920e-003
9.439920e-003
9.439920e-003
9.439920e-003
9.439920e-003
9.439920e-003
9.439920e-003
9.439920e-003
9.439920e-003
9.439920e-003
9.439920e-003
9.439920e-003
9.439920e-003
9.439920e-003
9.439920e-003
9.439921e-003
9.439921e-003
9.439921e-003
9.439921e-003
9.439921e-003
9.439921e-003
9.439921e-003
9.439921e-003
9.439921e-003
9.439921e-003
9.439922e-003
9.439922e-003
9.439923e-003
9.439923e-003
9.439924e-003
9.439924e-003
9.439925e-003
9.439925e-003
9.439926e-003
9.439927e-003
9.439927e-003
9.439928e-003
9.439928e-003
9.439928e-003
9.439929e-003
9.439929e-003
9.439929e-003
9.439930e-003
9.439930e-003
9.439930e-003
9.439930e-003
9.439930e-003
9.439930e-003
9.439929e-003
9.439929e-003
9.439929e-003
9.439929e-003
9.439928e-003
9.439928e-003
9.439927e-003
9.439927e-003
9.439926e-003
9.439925e-003
9.439925e-003
9.439924e-003
9.439923e-003
9.439923e-003
9.439922e-003
9.439922e-003
9.439921e-003
9.439921e-003
9.439921e-003
9.439921e-003
9.439920e-003
9.439920e-003
9.439920e-003
9.439920e-003
9.439920e-003
9.439920e-003
9.439920e-003
9.439920e-003
9.439920e-003
9.439920e-003
9.439920e-003
9.439920e-003
9.439920e-003
9.439920e-003
9.439920e-003
9.439920e-003
9.439920e-003
9.439920e-003
9.439920e-003
9.439920e-003
9.439920e-003
9.439920e-003
9.439920e-003
9.439920e-003
9.439920e-003
9.439920e-003
9.439920e-003
9.439920e-003
9.439920e-003
9.439920e-003
9.439920e-003
9.439920e-003
9.439920e-003
9.439920e-003
9.439920e-003
9.439920e-003
9.439920e-003
9.439920e-003
9.439920e-003
9.439920e-003
9.439920e-003
9.439920e-003
9.439920e-003
9.439920e-003
9.439920e-003
9.439920e-003
9.439920e-003
9.439920e-003
9.439921e-003
9.439921e-003
9.439921e-003
9.439921e-003
9.439921e-003
9.439922e-003
9.439922e-003
9.439923e-003
9.439924e-003
9.439924e-003
9.439925e-003
9.439926e-003
9.439927e-003
9.439927e-003
9.439928e-003
9.439929e-003
9.439930e-003
9.439931e-003
9.439932e-003
9.439932e-003
9.439933e-003
9.439934e-003
9.439934e-003
9.439935e-003
9.439935e-003
9.439935e-003
9.439936e-003
9.439936e-003
9.439936e-003
9.439936e-003
9.439936e-003
9.439936e-003
9.439935e-003
9.439935e-003
9.439935e-003
9.439934e-003
9.439934e-003
9.439933e-003
9.439932e-003
9.439931e-003
9.439931e-003
9.439930e-003
9.439929e-003
9.439928e-003
9.439927e-003
9.439926e-003
9.439925e-003
9.439924e-003
9.439923e-003
9.439923e-003
9.439922e-003
9.439922e-003
9.439921e-003
9.439921e-003
9.439921e-003
9.439921e-003
9.439920e-003
9.439920e-003
9.439920e-003
9.439920e-003
9.439920e-003
9.439920e-003
9.439920e-003
9.439920e-003
9.439920e-003
9.439920e-003
9.439920e-003
9.439920e-003
9.439920e-003
9.439920e-003
9.439920e-003
9.439920e-003
9.439920e-003
9.439920e-003
9.439920e-003
9.439920e-003
9.439920e-003
9.439920e-003
9.439920e-003
9.439920e-003
9.439920e-003
9.439920e-003
9.439920e-003
9.439920e-003
9.439920e-003
9.439920e-003
9.439920e-003
9.439920e-003
9.439920e-003
9.439920e-003
9.439920e-003
9.439920e-003
9.439920e-003
9.439920e-003
9.439920e-003
9.439920e-003
9.439920e-003
9.439920e-003
9.439920e-003
9.439920e-003
9.439921e-003
9.439921e-003
9.439922e-003
9.439922e-003
9.439923e-003
9.439924e-003
9.439925e-003
9.439926e-003
9.439927e-003
9.439929e-003
9.439930e-003
9.439931e-003
9.439932e-003
9.439933e-003
9.439935e-003
9.439936e-003
9.439937e-003
9.439938e-003
9.439939e-003
9.439940e-003
9.439941e-003
9.439941e-003
9.439942e-003
9.439942e-003
9.439943e-003
9.439943e-003
9.439943e-003
9.439943e-003
9.439943e-003
9.439943e-003
9.439943e-003
9.439943e-003
9.439943e-003
9.439942e-003
9.439942e-003
9.439941e-003
9.439940e-003
9.439940e-003
9.439939e-003
9.439938e-003
9.439937e-003
9.439936e-003
9.439935e-003
9.439933e-003
9.439932e-003
9.439931e-003
9.439929e-003
9.439928e-003
9.439927e-003
9.439926e-003
9.439925e-003
9.439924e-003
9.439923e-003
9.439922e-003
9.439921e-003
9.439921e-003
9.439920e-003
9.439920e-003
9.439920e-003
9.439920e-003
9.439920e-003
9.439920e-003
9.439920e-003
9.439920e-003
9.439920e-003
9.439920e-003
9.439920e-003
9.439920e-003
9.439920e-003
9.439920e-003
9.439920e-003
9.439920e-003
9.439920e-003
9.439920e-003
9.439920e-003
9.439920e-003
9.439920e-003
9.439920e-003
9.439920e-003
9.439920e-003
9.439920e-003
9.439920e-003
9.439920e-003
9.439920e-003
9.439920e-003
9.439920e-003
9.439920e-003
9.439920e-003
9.439920e-003
9.439920e-003
9.439920e-003
9.439920e-003
9.439920e-003
9.439920e-003
9.439920e-003
9.439920e-003
9.439920e-003
9.439921e-003
9.439921e-003
9.439921e-003
9.439922e-003
9.439923e-003
9.439924e-003
9.439925e-003
9.439926e-003
9.439928e-003
9.439929e-003
9.439931e-003
9.439933e-003
9.439934e-003
9.439936e-003
9.439938e-003
9.439939e-003
9.439941e-003
9.439942e-003
9.439944e-003
9.439945e-003
9.439945e-003
9.439946e-003
9.439947e-003
9.439947e-003
9.439947e-003
9.439947e-003
9.439947e-003
9.439947e-003
9.439947e-003
9.439946e-003
9.439946e-003
9.439946e-003
9.439946e-003
9.439945e-003
9.439945e-003
9.439945e-003
9.439945e-003
9.439945e-003
9.439945e-003
9.439944e-003
9.439944e-003
9.439944e-003
9.439943e-003
9.439943e-003
9.439942e-003
9.439941e-003
9.439940e-003
9.439938e-003
9.439937e-003
9.439935e-003
9.439933e-003
9.439932e-003
9.439930e-003
9.439928e-003
9.439927e-003
9.439925e-003
9.439924e-003
9.439923e-003
9.439922e-003
9.439921e-003
9.439921e-003
9.439920e-003
9.439920e-003
9.439920e-003
9.439920e-003
9.439920e-003
9.439920e-003
9.439920e-003
9.439920e-003
9.439920e-003
9.439920e-003
9.439920e-003
9.439920e-003
9.439920e-003
9.439920e-003
9.439920e-003
9.439920e-003
9.439920e-003
9.439920e-003
9.439920e-003
9.439920e-003
9.439920e-003
9.439920e-003
9.439920e-003
9.439920e-003
9.439920e-003
9.439920e-003
9.439920e-003
9.439920e-003
9.439920e-003
9.439920e-003
9.439920e-003
9.439920e-003
9.439920e-003
9.439920e-003
9.439920e-003
9.439920e-003
9.439920e-003
9.439921e-003
9.439921e-003
9.439921e-003
9.439922e-003
9.439923e-003
9.439924e-003
9.439926e-003
9.439927e-003
9.439929e-003
9.439931e-003
9.439933e-003
9.439935e-003
9.439937e-003
9.439939e-003
9.439941e-003
9.439943e-003
9.439945e-003
9.439946e-003
9.439946e-003
9.439947e-003
9.439946e-003
9.439945e-003
9.439944e-003
9.439943e-003
9.439941e-003
9.439938e-003
9.439936e-003
9.439933e-003
9.439931e-003
9.439928e-003
9.439926e-003
9.439924e-003
9.439922e-003
9.439921e-003
9.439920e-003
9.439920e-003
9.439920e-003
9.439921e-003
9.439922e-003
9.439924e-003
9.439926e-003
9.439928e-003
9.439931e-003
9.439933e-003
9.439936e-003
9.439938e-003
9.439940e-003
9.439942e-003
9.439942e-003
9.439943e-003
9.439942e-003
9.439941e-003
9.439939e-003
9.439938e-003
9.439935e-003
9.439933e-003
9.439931e-003
9.439929e-003
9.439927e-003
9.439926e-003
9.439924e-003
9.439923e-003
9.439922e-003
9.439921e-003
9.439921e-003
9.439921e-003
9.439920e-003
9.439920e-003
9.439920e-003
9.439920e-003
9.439920e-003
9.439920e-003
9.439920e-003
9.439920e-003
9.439920e-003
9.439920e-003
9.439920e-003
9.439920e-003
9.439920e-003
9.439920e-003
9.439920e-003
9.439920e-003
9.439920e-003
9.439920e-003
9.439920e-003
9.439920e-003
9.439920e-003
9.439920e-003
9.439920e-003
9.439920e-003
9.439920e-003
9.439920e-003
9.439920e-003
9.439920e-003
9.439920e-003
9.439920e-003
9.439920e-003
9.439920e-003
9.439920e-003
9.439921e-003
9.439921e-003
9.439922e-003
9.439923e-003
9.439924e-003
9.439926e-003
9.439928e-003
9.439930e-003
9.439932e-003
9.439935e-003
9.439937e-003
9.439940e-003
9.439943e-003
9.439945e-003
9.439946e-003
9.439946e-003
9.439946e-003
9.439944e-003
9.439941e-003
9.439937e-003
9.439931e-003
9.439924e-003
9.439915e-003
9.439906e-003
9.439896e-003
9.439885e-003
9.439874e-003
9.439863e-003
9.439852e-003
9.439842e-003
9.439832e-003
9.439824e-003
9.439816e-003
9.439810e-003
9.439806e-003
9.439803e-003
9.439803e-003
9.439804e-003
9.439808e-003
9.439814e-003
9.439822e-003
9.439831e-003
9.439842e-003
9.439854e-003
9.439867e-003
9.439880e-003
9.439892e-003
9.439904e-003
9.439915e-003
9.439924e-003
9.439931e-003
9.439936e-003
9.439940e-003
9.439942e-003
9.439942e-003
9.439941e-003
9.439939e-003
9.439937e-003
9.439934e-003
9.439932e-003
9.439930e-003
9.439928e-003
9.439926e-003
9.439924e-003
9.439923e-003
9.439922e-003
9.439921e-003
9.439921e-003
9.439920e-003
9.439920e-003
9.439920e-003
9.439920e-003
9.439920e-003
9.439920e-003
9.439920e-003
9.439920e-003
9.439920e-003
9.439920e-003
9.439920e-003
9.439920e-003
9.439920e-003
9.439920e-003
9.439920e-003
9.439920e-003
9.439920e-003
9.439920e-003
9.439920e-003
9.439920e-003
9.439920e-003
9.439920e-003
9.439919e-003
9.439920e-003
9.439920e-003
9.439920e-003
9.439920e-003
9.439920e-003
9.439920e-003
9.439920e-003
9.439920e-003
9.439921e-003
9.439922e-003
9.439923e-003
9.439924e-003
9.439926e-003
9.439928e-003
9.439930e-003
9.439933e-003
9.439936e-003
9.439939e-003
9.439942e-003
9.439945e-003
9.439947e-003
9.439947e-003
9.439946e-003
9.439942e-003
9.439935e-003
9.439924e-003
9.439910e-003
9.439893e-003
9.439871e-003
9.439846e-003
9.439818e-003
9.439788e-003
9.439755e-003
9.439720e-003
9.439685e-003
9.439649e-003
9.439615e-003
9.439581e-003
9.439550e-003
9.439521e-003
9.439496e-003
9.439474e-003
9.439457e-003
9.439446e-003
9.439439e-003
9.439439e-003
9.439444e-003
9.439456e-003
9.439474e-003
9.439498e-003
9.439528e-003
9.439562e-003
9.439600e-003
9.439640e-003
9.439682e-003
9.439724e-003
9.439764e-003
9.439802e-003
9.439836e-003
9.439866e-003
9.439890e-003
9.439910e-003
9.439924e-003
9.439934e-003
9.439939e-003
9.439942e-003
9.439942e-003
9.439941e-003
9.439938e-003
9.439935e-003
9.439932e-003
9.439930e-003
9.439927e-003
9.439925e-003
9.439924e-003
9.439922e-003
9.439921e-003
9.439921e-003
9.439920e-003
9.439920e-003
9.439920e-003
9.439920e-003
9.439920e-003
9.439920e-003
9.439920e-003
9.439920e-003
9.439920e-003
9.439920e-003
9.439920e-003
9.439920e-003
9.439920e-003
9.439920e-003
9.439920e-003
9.439920e-003
9.439920e-003
9.439920e-003
9.439920e-003
9.439920e-003
9.439920e-003
9.439920e-003
9.439920e-003
9.439920e-003
9.439920e-003
9.439920e-003
9.439920e-003
9.439920e-003
9.439921e-003
9.439921e-003
9.439922e-003
9.439924e-003
9.439925e-003
9.439927e-003
9.439930e-003
9.439933e-003
9.439936e-003
9.439940e-003
9.439944e-003
9.439947e-003
9.439948e-003
9.439947e-003
9.439943e-003
9.439933e-003
9.439918e-003
9.439895e-003
9.439864e-003
9.439824e-003
9.439775e-003
9.439716e-003
9.439648e-003
9.439572e-003
9.439489e-003
9.439399e-003
9.439306e-003
9.439209e-003
9.439112e-003
9.439016e-003
9.438923e-003
9.438834e-003
9.438751e-003
9.438676e-003
9.438610e-003
9.438555e-003
9.438512e-003
9.438483e-003
9.438467e-003
9.438468e-003
9.438484e-003
9.438516e-003
9.438564e-003
9.438628e-003
9.438706e-003
9.438798e-003
9.438900e-003
9.439009e-003
9.439124e-003
9.439239e-003
9.439353e-003
9.439461e-003
9.439561e-003
9.439650e-003
9.439727e-003
9.439791e-003
9.439842e-003
9.439880e-003
9.439908e-003
9.439926e-003
9.439937e-003
9.439941e-003
9.439942e-003
9.439941e-003
9.439938e-003
9.439935e-003
9.439932e-003
9.439929e-003
9.439926e-003
9.439924e-003
9.439923e-003
9.439922e-003
9.439921e-003
9.439921e-003
9.439920e-003
9.439920e-003
9.439920e-003
9.439920e-003
9.439920e-003
9.439920e-003
9.439920e-003
9.439920e-003
9.439920e-003
9.439920e-003
9.439920e-003
9.439920e-003
9.439920e-003
9.439920e-003
9.439920e-003
9.439920e-003
9.439920e-003
9.439920e-003
9.439920e-003
9.439920e-003
9.439920e-003
9.439920e-003
9.439920e-003
9.439920e-003
9.439920e-003
9.439921e-003
9.439922e-003
9.439923e-003
9.439925e-003
9.439927e-003
9.439929e-003
9.439932e-003
9.439936e-003
9.439940e-003
9.439944e-003
9.439948e-003
9.439949e-003
9.439947e-003
9.439940e-003
9.439924e-003
9.439898e-003
9.439858e-003
9.439802e-003
9.439727e-003
9.439631e-003
9.439514e-003
9.439373e-003
9.439211e-003
9.439027e-003
9.438826e-003
9.438609e-003
9.438379e-003
9.438142e-003
9.437901e-003
9.437660e-003
9.437423e-003
9.437195e-003
9.436979e-003
9.436779e-003
9.436599e-003
9.436443e-003
9.436312e-003
9.436211e-003
9.436142e-003
9.436108e-003
9.436110e-003
9.436150e-003
9.436229e-003
9.436346e-003
9.436501e-003
9.436692e-003
9.436914e-003
9.437163e-003
9.437433e-003
9.437716e-003
9.438005e-003
9.438292e-003
9.438568e-003
9.438826e-003
9.439061e-003
9.439267e-003
9.439443e-003
9.439588e-003
9.439702e-003
9.439789e-003
9.439852e-003
9.439894e-003
9.439920e-003
9.439935e-003
9.439941e-003
9.439943e-003
9.439941e-003
9.439937e-003
9.439934e-003
9.439930e-003
9.439927e-003
9.439925e-003
9.439924e-003
9.439922e-003
9.439921e-003
9.439921e-003
9.439920e-003
9.439920e-003
9.439920e-003
9.439920e-003
9.439920e-003
9.439920e-003
9.439920e-003
9.439920e-003
9.439920e-003
9.439920e-003
9.439920e-003
9.439920e-003
9.439920e-003
9.439920e-003
9.439920e-003
9.439920e-003
9.439920e-003
9.439920e-003
9.439921e-003
9.439920e-003
9.439920e-003
9.439920e-003
9.439920e-003
9.439921e-003
9.439922e-003
9.439923e-003
9.439925e-003
9.439928e-003
9.439931e-003
9.439935e-003
9.439939e-003
9.439944e-003
9.439948e-003
9.439950e-003
9.439948e-003
9.439939e-003
9.439919e-003
9.439883e-003
9.439825e-003
9.439739e-003
9.439619e-003
9.439459e-003
9.439254e-003
9.439000e-003
9.438695e-003
9.438339e-003
9.437934e-003
9.437485e-003
9.436997e-003
9.436478e-003
9.435936e-003
9.435379e-003
9.434819e-003
9.434263e-003
9.433722e-003
9.433203e-003
9.432716e-003
9.432268e-003
9.431866e-003
9.431517e-003
9.431228e-003
9.431006e-003
9.430855e-003
9.430781e-003
9.430788e-003
9.430880e-003
9.431058e-003
9.431323e-003
9.431673e-003
9.432103e-003
9.432606e-003
9.433173e-003
9.433789e-003
9.434441e-003
9.435110e-003
9.435779e-003
9.436430e-003
9.437045e-003
9.437611e-003
9.438117e-003
9.438555e-003
9.438922e-003
9.439220e-003
9.439452e-003
9.439626e-003
9.439751e-003
9.439836e-003
9.439889e-003
9.439921e-003
9.439937e-003
9.439943e-003
9.439943e-003
9.439940e-003
9.439936e-003
9.439932e-003
9.439929e-003
9.439926e-003
9.439924e-003
9.439922e-003
9.439921e-003
9.439921e-003
9.439920e-003
9.439920e-003
9.439920e-003
9.439920e-003
9.439920e-003
9.439920e-003
9.439920e-003
9.439920e-003
9.439920e-003
9.439920e-003
9.439920e-003
9.439921e-003
9.439920e-003
9.439919e-003
9.439919e-003
9.439920e-003
9.439920e-003
9.439921e-003
9.439920e-003
9.439920e-003
9.439920e-003
9.439921e-003
9.439922e-003
9.439924e-003
9.439926e-003
9.439928e-003
9.439932e-003
9.439937e-003
9.439942e-003
9.439947e-003
9.439951e-003
9.439951e-003
9.439943e-003
9.439922e-003
9.439881e-003
9.439810e-003
9.439698e-003
9.439533e-003
9.439301e-003
9.438989e-003
9.438584e-003
9.438078e-003
9.437462e-003
9.436737e-003
9.435903e-003
9.434967e-003
9.433942e-003
9.432841e-003
9.431681e-003
9.430483e-003
9.429265e-003
9.428049e-003
9.426852e-003
9.425695e-003
9.424594e-003
9.423565e-003
9.422625e-003
9.421786e-003
9.421063e-003
9.420466e-003
9.420009e-003
9.419701e-003
9.419553e-003
9.419574e-003
9.419769e-003
9.420144e-003
9.420700e-003
9.421434e-003
9.422339e-003
9.423402e-003
9.424603e-003
9.425918e-003
9.427318e-003
9.428766e-003
9.430227e-003
9.431661e-003
9.433033e-003
9.434308e-003
9.435461e-003
9.436474e-003
9.437335e-003
9.438045e-003
9.438610e-003
9.439044e-003
9.439365e-003
9.439591e-003
9.439743e-003
9.439840e-003
9.439897e-003
9.439927e-003
9.439940e-003
9.439943e-003
9.439942e-003
9.439938e-003
9.439933e-003
9.439929e-003
9.439926e-003
9.439924e-003
9.439923e-003
9.439922e-003
9.439921e-003
9.439920e-003
9.439920e-003
9.439920e-003
9.439920e-003
9.439920e-003
9.439920e-003
9.439920e-003
9.439920e-003
9.439920e-003
9.439920e-003
9.439921e-003
9.439920e-003
9.439920e-003
9.439920e-003
9.439920e-003
9.439920e-003
9.439920e-003
9.439920e-003
9.439921e-003
9.439921e-003
9.439922e-003
9.439924e-003
9.439927e-003
9.439929e-003
9.439933e-003
9.439939e-003
9.439945e-003
9.439950e-003
9.439953e-003
9.439949e-003
9.439932e-003
9.439893e-003
9.439820e-003
9.439696e-003
9.439500e-003
9.439208e-003
9.438793e-003
9.438227e-003
9.437483e-003
9.436539e-003
9.435377e-003
9.433989e-003
9.432375e-003
9.430546e-003
9.428521e-003
9.426329e-003
9.424005e-003
9.421586e-003
9.419114e-003
9.416630e-003
9.414173e-003
9.411781e-003
9.409489e-003
9.407328e-003
9.405325e-003
9.403508e-003
9.401899e-003
9.400520e-003
9.399392e-003
9.398533e-003
9.397962e-003
9.397695e-003
9.397747e-003
9.398132e-003
9.398859e-003
9.399932e-003
9.401348e-003
9.403099e-003
9.405165e-003
9.407515e-003
9.410108e-003
9.412891e-003
9.415802e-003
9.418769e-003
9.421717e-003
9.424571e-003
9.427260e-003
9.429724e-003
9.431917e-003
9.433811e-003
9.435395e-003
9.436677e-003
9.437679e-003
9.438434e-003
9.438981e-003
9.439361e-003
9.439613e-003
9.439771e-003
9.439863e-003
9.439913e-003
9.439936e-003
9.439943e-003
9.439943e-003
9.439939e-003
9.439934e-003
9.439930e-003
9.439927e-003
9.439925e-003
9.439923e-003
9.439922e-003
9.439921e-003
9.439920e-003
9.439920e-003
9.439920e-003
9.439920e-003
9.439920e-003
9.439920e-003
9.439920e-003
9.439920e-003
9.439920e-003
9.439920e-003
9.439920e-003
9.439920e-003
9.439920e-003
9.439920e-003
9.439920e-003
9.439920e-003
9.439921e-003
9.439921e-003
9.439922e-003
9.439924e-003
9.439927e-003
9.439930e-003
9.439935e-003
9.439941e-003
9.439947e-003
9.439952e-003
9.439953e-003
9.439944e-003
9.439916e-003
9.439853e-003
9.439736e-003
9.439537e-003
9.439219e-003
9.438739e-003
9.438046e-003
9.437085e-003
9.435801e-003
9.434147e-003
9.432081e-003
9.429580e-003
9.426640e-003
9.423274e-003
9.419520e-003
9.415432e-003
9.411077e-003
9.406533e-003
9.401882e-003
9.397205e-003
9.392579e-003
9.388077e-003
9.383761e-003
9.379686e-003
9.375900e-003
9.372440e-003
9.369342e-003
9.366634e-003
9.364343e-003
9.362492e-003
9.361104e-003
9.360202e-003
9.359808e-003
9.359942e-003
9.360625e-003
9.361872e-003
9.363696e-003
9.366102e-003
9.369087e-003
9.372634e-003
9.376711e-003
9.381267e-003
9.386230e-003
9.391507e-003
9.396981e-003
9.402521e-003
9.407986e-003
9.413233e-003
9.418131e-003
9.422570e-003
9.426471e-003
9.429790e-003
9.432522e-003
9.434693e-003
9.436359e-003
9.437589e-003
9.438463e-003
9.439058e-003
9.439445e-003
9.439683e-003
9.439821e-003
9.439895e-003
9.439930e-003
9.439942e-003
9.439943e-003
9.439940e-003
9.439935e-003
9.439931e-003
9.439927e-003
9.439925e-003
9.439923e-003
9.439922e-003
9.439921e-003
9.439920e-003
9.439920e-003
9.439920e-003
9.439920e-003
9.439920e-003
9.439920e-003
9.439920e-003
9.439920e-003
9.439919e-003
9.439920e-003
9.439920e-003
9.439921e-003
9.439920e-003
9.439920e-003
9.439920e-003
9.439921e-003
9.439923e-003
9.439924e-003
9.439927e-003
9.439931e-003
9.439936e-003
9.439942e-003
9.439949e-003
9.439954e-003
9.439953e-003
9.439938e-003
9.439896e-003
9.439804e-003
9.439632e-003
9.439336e-003
9.438855e-003
9.438115e-003
9.437028e-003
9.435492e-003
9.433406e-003
9.430671e-003
9.427206e-003
9.422960e-003
9.417917e-003
9.412105e-003
9.405596e-003
9.398501e-003
9.390963e-003
9.383140e-003
9.375200e-003
9.367303e-003
9.359597e-003
9.352210e-003
9.345245e-003
9.338782e-003
9.332880e-003
9.327577e-003
9.322893e-003
9.318838e-003
9.315416e-003
9.312624e-003
9.310458e-003
9.308917e-003
9.307999e-003
9.307710e-003
9.308059e-003
9.309062e-003
9.310740e-003
9.313123e-003
9.316244e-003
9.320141e-003
9.324849e-003
9.330391e-003
9.336771e-003
9.343961e-003
9.351888e-003
9.360429e-003
9.369405e-003
9.378591e-003
9.387724e-003
9.396534e-003
9.404762e-003
9.412193e-003
9.418676e-003
9.424132e-003
9.428559e-003
9.432019e-003
9.434624e-003
9.436509e-003
9.437820e-003
9.438693e-003
9.439249e-003
9.439585e-003
9.439776e-003
9.439876e-003
9.439923e-003
9.439941e-003
9.439944e-003
9.439940e-003
9.439936e-003
9.439931e-003
9.439927e-003
9.439924e-003
9.439923e-003
9.439922e-003
9.439921e-003
9.439920e-003
9.439920e-003
9.439920e-003
9.439920e-003
9.439920e-003
9.439920e-003
9.439920e-003
9.439919e-003
9.439920e-003
9.439921e-003
9.439921e-003
9.439920e-003
9.439920e-003
9.439921e-003
9.439922e-003
9.439925e-003
9.439927e-003
9.439931e-003
9.439936e-003
9.439943e-003
9.439950e-003
9.439956e-003
9.439953e-003
9.439932e-003
9.439875e-003
9.439752e-003
9.439517e-003
9.439104e-003
9.438422e-003
9.437351e-003
9.435744e-003
9.433430e-003
9.430227e-003
9.425957e-003
9.420472e-003
9.413677e-003
9.405552e-003
9.396173e-003
9.385711e-003
9.374426e-003
9.362642e-003
9.350721e-003
9.339025e-003
9.327888e-003
9.317593e-003
9.308356e-003
9.300321e-003
9.293560e-003
9.288081e-003
9.283835e-003
9.280729e-003
9.278639e-003
9.277421e-003
9.276921e-003
9.276984e-003
9.277462e-003
9.278216e-003
9.279122e-003
9.280076e-003
9.281000e-003
9.281849e-003
9.282625e-003
9.283383e-003
9.284241e-003
9.285383e-003
9.287056e-003
9.289553e-003
9.293187e-003
9.298246e-003
9.304949e-003
9.313398e-003
9.323538e-003
9.335140e-003
9.347811e-003
9.361032e-003
9.374220e-003
9.386800e-003
9.398286e-003
9.408325e-003
9.416731e-003
9.423479e-003
9.428676e-003
9.432515e-003
9.435238e-003
9.437089e-003
9.438294e-003
9.439044e-003
9.439486e-003
9.439733e-003
9.439859e-003
9.439918e-003
9.439940e-003
9.439944e-003
9.439941e-003
9.439935e-003
9.439930e-003
9.439927e-003
9.439924e-003
9.439923e-003
9.439921e-003
9.439921e-003
9.439920e-003
9.439920e-003
9.439920e-003
9.439920e-003
9.439920e-003
9.439920e-003
9.439919e-003
9.439920e-003
9.439921e-003
9.439921e-003
9.439921e-003
9.439921e-003
9.439922e-003
9.439924e-003
9.439927e-003
9.439931e-003
9.439936e-003
9.439943e-003
9.439951e-003
9.439956e-003
9.439953e-003
9.439927e-003
9.439857e-003
9.439702e-003
9.439402e-003
9.438864e-003
9.437954e-003
9.436493e-003
9.434252e-003
9.430957e-003
9.426307e-003
9.420005e-003
9.411804e-003
9.401563e-003
9.389307e-003
9.375270e-003
9.359913e-003
9.343908e-003
9.328083e-003
9.313337e-003
9.300547e-003
9.290477e-003
9.283714e-003
9.280624e-003
9.281343e-003
9.285788e-003
9.293684e-003
9.304599e-003
9.317981e-003
9.333195e-003
9.349556e-003
9.366366e-003
9.382928e-003
9.398571e-003
9.412656e-003
9.424584e-003
9.433806e-003
9.439832e-003
9.442256e-003
9.440785e-003
9.435281e-003
9.425805e-003
9.412670e-003
9.396471e-003
9.378105e-003
9.358748e-003
9.339787e-003
9.322710e-003
9.308952e-003
9.299719e-003
9.295826e-003
9.297563e-003
9.304648e-003
9.316258e-003
9.331153e-003
9.347876e-003
9.364972e-003
9.381193e-003
9.395630e-003
9.407768e-003
9.417452e-003
9.424814e-003
9.430158e-003
9.433869e-003
9.436335e-003
9.437903e-003
9.438854e-003
9.439401e-003
9.439698e-003
9.439847e-003
9.439915e-003
9.439939e-003
9.439944e-003
9.439940e-003
9.439935e-003
9.439930e-003
9.439927e-003
9.439924e-003
9.439922e-003
9.439921e-003
9.439920e-003
9.439920e-003
9.439920e-003
9.439920e-003
9.439920e-003
9.439920e-003
9.439920e-003
9.439920e-003
9.439920e-003
9.439921e-003
9.439921e-003
9.439922e-003
9.439924e-003
9.439927e-003
9.439931e-003
9.439936e-003
9.439943e-003
9.439951e-003
9.439957e-003
9.439953e-003
9.439925e-003
9.439845e-003
9.439664e-003
9.439305e-003
9.438645e-003
9.437501e-003
9.435621e-003
9.432667e-003
9.428228e-003
9.421839e-003
9.413036e-003
9.401449e-003
9.386926e-003
9.369675e-003
9.350391e-003
9.330323e-003
9.311258e-003
9.295391e-003
9.285104e-003
9.282695e-003
9.290110e-003
9.308732e-003
9.339254e-003
9.381652e-003
9.435235e-003
9.498752e-003
9.570512e-003
9.648510e-003
9.730543e-003
9.814311e-003
9.897496e-003
9.977827e-003
1.005313e-002
1.012133e-002
1.018050e-002
1.022879e-002
1.026451e-002
1.028609e-002
1.029219e-002
1.028172e-002
1.025403e-002
1.020902e-002
1.014733e-002
1.007047e-002
9.980942e-003
9.882229e-003
9.778709e-003
9.675380e-003
9.577462e-003
9.489888e-003
9.416758e-003
9.360847e-003
9.323261e-003
9.303335e-003
9.298813e-003
9.306286e-003
9.321802e-003
9.341501e-003
9.362128e-003
9.381342e-003
9.397767e-003
9.410872e-003
9.420728e-003
9.427761e-003
9.432542e-003
9.435646e-003
9.437569e-003
9.438705e-003
9.439342e-003
9.439678e-003
9.439843e-003
9.439914e-003