# vtk DataFile Version 3.0
vtk output
ASCII
DATASET STRUCTURED_POINTS
DIMENSIONS 100 100 1
SPACING 1 1 1
ORIGIN 0 0 0
POINT_DATA 10000
SCALARS SFBox_profile double
LOOKUP_TABLE default 
9.439916e-003
9.439925e-003
9.439938e-003
9.439952e-003
9.439961e-003
9.439969e-003
9.439978e-003
9.439988e-003
9.439998e-003
9.439995e-003
9.439961e-003
9.439870e-003
9.439688e-003
9.439371e-003
9.438856e-003
9.438064e-003
9.436898e-003
9.435250e-003
9.433011e-003
9.430078e-003
9.426367e-003
9.421816e-003
9.416395e-003
9.410110e-003
9.403006e-003
9.395167e-003
9.386708e-003
9.377764e-003
9.368478e-003
9.358991e-003
9.349428e-003
9.339906e-003
9.330522e-003
9.321357e-003
9.312476e-003
9.303923e-003
9.295727e-003
9.287904e-003
9.280463e-003
9.273406e-003
9.266734e-003
9.260441e-003
9.254516e-003
9.248942e-003
9.243703e-003
9.238786e-003
9.234182e-003
9.229886e-003
9.225892e-003
9.222193e-003
9.218782e-003
9.215663e-003
9.212848e-003
9.210361e-003
9.208230e-003
9.206487e-003
9.205166e-003
9.204310e-003
9.203973e-003
9.204218e-003
9.205117e-003
9.206743e-003
9.209171e-003
9.212477e-003
9.216747e-003
9.222069e-003
9.228531e-003
9.236209e-003
9.245163e-003
9.255421e-003
9.266977e-003
9.279766e-003
9.293655e-003
9.308424e-003
9.323768e-003
9.339307e-003
9.354619e-003
9.369271e-003
9.382864e-003
9.395073e-003
9.405670e-003
9.414549e-003
9.421722e-003
9.427309e-003
9.431500e-003
9.434526e-003
9.436626e-003
9.438019e-003
9.438899e-003
9.439424e-003
9.439717e-003
9.439867e-003
9.439936e-003
9.439962e-003
9.439965e-003
9.439959e-003
9.439949e-003
9.439941e-003
9.439935e-003
9.439932e-003
9.439916e-003
9.439925e-003
9.439938e-003
9.439952e-003
9.439961e-003
9.439969e-003
9.439978e-003
9.439988e-003
9.439998e-003
9.439995e-003
9.439961e-003
9.439870e-003
9.439688e-003
9.439371e-003
9.438856e-003
9.438064e-003
9.436898e-003
9.435250e-003
9.433011e-003
9.430078e-003
9.426367e-003
9.421816e-003
9.416395e-003
9.410110e-003
9.403006e-003
9.395167e-003
9.386708e-003
9.377764e-003
9.368478e-003
9.358991e-003
9.349428e-003
9.339906e-003
9.330522e-003
9.321357e-003
9.312476e-003
9.303923e-003
9.295727e-003
9.287904e-003
9.280463e-003
9.273406e-003
9.266734e-003
9.260441e-003
9.254516e-003
9.248942e-003
9.243703e-003
9.238786e-003
9.234182e-003
9.229886e-003
9.225892e-003
9.222193e-003
9.218782e-003
9.215663e-003
9.212848e-003
9.210361e-003
9.208230e-003
9.206487e-003
9.205166e-003
9.204310e-003
9.203973e-003
9.204218e-003
9.205117e-003
9.206743e-003
9.209171e-003
9.212477e-003
9.216747e-003
9.222069e-003
9.228531e-003
9.236209e-003
9.245163e-003
9.255421e-003
9.266977e-003
9.279766e-003
9.293655e-003
9.308424e-003
9.323768e-003
9.339307e-003
9.354619e-003
9.369271e-003
9.382864e-003
9.395073e-003
9.405670e-003
9.414549e-003
9.421722e-003
9.427309e-003
9.431500e-003
9.434526e-003
9.436626e-003
9.438019e-003
9.438899e-003
9.439424e-003
9.439717e-003
9.439867e-003
9.439936e-003
9.439962e-003
9.439965e-003
9.439959e-003
9.439949e-003
9.439941e-003
9.439935e-003
9.439932e-003
9.439923e-003
9.439931e-003
9.439943e-003
9.439956e-003
9.439965e-003
9.439973e-003
9.439979e-003
9.439983e-003
9.439975e-003
9.439938e-003
9.439844e-003
9.439652e-003
9.439308e-003
9.438737e-003
9.437844e-003
9.436509e-003
9.434590e-003
9.431938e-003
9.428406e-003
9.423868e-003
9.418235e-003
9.411467e-003
9.403583e-003
9.394666e-003
9.384857e-003
9.374345e-003
9.363352e-003
9.352112e-003
9.340849e-003
9.329765e-003
9.319029e-003
9.308772e-003
9.299095e-003
9.290066e-003
9.281727e-003
9.274096e-003
9.267173e-003
9.260939e-003
9.255371e-003
9.250435e-003
9.246093e-003
9.242305e-003
9.239022e-003
9.236196e-003
9.233780e-003
9.231734e-003
9.230028e-003
9.228636e-003
9.227541e-003
9.226722e-003
9.226164e-003
9.225857e-003
9.225796e-003
9.225978e-003
9.226399e-003
9.227046e-003
9.227896e-003
9.228924e-003
9.230098e-003
9.231389e-003
9.232762e-003
9.234186e-003
9.235636e-003
9.237109e-003
9.238636e-003
9.240298e-003
9.242234e-003
9.244644e-003
9.247787e-003
9.251966e-003
9.257508e-003
9.264717e-003
9.273821e-003
9.284914e-003
9.297910e-003
9.312525e-003
9.328285e-003
9.344578e-003
9.360718e-003
9.376038e-003
9.389968e-003
9.402103e-003
9.412234e-003
9.420344e-003
9.426574e-003
9.431168e-003
9.434418e-003
9.436621e-003
9.438048e-003
9.438928e-003
9.439442e-003
9.439724e-003
9.439867e-003
9.439932e-003
9.439955e-003
9.439957e-003
9.439951e-003
9.439943e-003
9.439937e-003
9.439934e-003
9.439937e-003
9.439943e-003
9.439953e-003
9.439963e-003
9.439972e-003
9.439978e-003
9.439976e-003
9.439957e-003
9.439903e-003
9.439778e-003
9.439531e-003
9.439085e-003
9.438334e-003
9.437140e-003
9.435324e-003
9.432676e-003
9.428963e-003
9.423951e-003
9.417439e-003
9.409293e-003
9.399478e-003
9.388089e-003
9.375354e-003
9.361632e-003
9.347378e-003
9.333103e-003
9.319323e-003
9.306514e-003
9.295076e-003
9.285308e-003
9.277403e-003
9.271460e-003
9.267495e-003
9.265463e-003
9.265280e-003
9.266834e-003
9.269997e-003
9.274628e-003
9.280579e-003
9.287695e-003
9.295818e-003
9.304787e-003
9.314442e-003
9.324633e-003
9.335223e-003
9.346093e-003
9.357149e-003
9.368320e-003
9.379549e-003
9.390788e-003
9.401990e-003
9.413105e-003
9.424067e-003
9.434786e-003
9.445136e-003
9.454942e-003
9.463974e-003
9.471944e-003
9.478513e-003
9.483291e-003
9.485854e-003
9.485763e-003
9.482599e-003
9.476007e-003
9.465759e-003
9.451816e-003
9.434387e-003
9.413984e-003
9.391451e-003
9.367957e-003
9.344944e-003
9.324011e-003
9.306746e-003
9.294521e-003
9.288295e-003
9.288457e-003
9.294751e-003
9.306306e-003
9.321764e-003
9.339504e-003
9.357883e-003
9.375473e-003
9.391222e-003
9.404517e-003
9.415158e-003
9.423264e-003
9.429158e-003
9.433254e-003
9.435977e-003
9.437706e-003
9.438754e-003
9.439358e-003
9.439685e-003
9.439849e-003
9.439921e-003
9.439947e-003
9.439950e-003
9.439946e-003
9.439941e-003
9.439939e-003
9.439955e-003
9.439959e-003
9.439966e-003
9.439974e-003
9.439979e-003
9.439976e-003
9.439950e-003
9.439879e-003
9.439721e-003
9.439408e-003
9.438839e-003
9.437865e-003
9.436284e-003
9.433832e-003
9.430185e-003
9.424980e-003
9.417848e-003
9.408476e-003
9.396681e-003
9.382500e-003
9.366256e-003
9.348602e-003
9.330505e-003
9.313175e-003
9.297950e-003
9.286150e-003
9.278941e-003
9.277233e-003
9.281617e-003
9.292353e-003
9.309400e-003
9.332472e-003
9.361116e-003
9.394783e-003
9.432893e-003
9.474875e-003
9.520183e-003
9.568300e-003
9.618726e-003
9.670972e-003
9.724556e-003
9.779012e-003
9.833895e-003
9.888801e-003
9.943376e-003
9.997324e-003
1.005042e-002
1.010249e-002
1.015342e-002
1.020310e-002
1.025142e-002
1.029824e-002
1.034333e-002
1.038637e-002
1.042689e-002
1.046424e-002
1.049760e-002
1.052591e-002
1.054794e-002
1.056224e-002
1.056723e-002
1.056122e-002
1.054258e-002
1.050981e-002
1.046172e-002
1.039769e-002
1.031782e-002
1.022316e-002
1.011586e-002
9.999245e-003
9.877706e-003
9.756486e-003
9.641230e-003
9.537411e-003
9.449692e-003
9.381331e-003
9.333754e-003
9.306400e-003
9.296888e-003
9.301490e-003
9.315803e-003
9.335467e-003
9.356761e-003
9.376962e-003
9.394428e-003
9.408469e-003
9.419085e-003
9.426690e-003
9.431876e-003
9.435250e-003
9.437347e-003
9.438589e-003
9.439288e-003
9.439657e-003
9.439836e-003
9.439914e-003
9.439942e-003
9.439948e-003
9.439948e-003
9.439947e-003
9.439976e-003
9.439978e-003
9.439982e-003
9.439984e-003
9.439979e-003
9.439951e-003
9.439870e-003
9.439685e-003
9.439314e-003
9.438625e-003
9.437425e-003
9.435434e-003
9.432278e-003
9.427483e-003
9.420503e-003
9.410779e-003
9.397854e-003
9.381537e-003
9.362105e-003
9.340499e-003
9.318462e-003
9.298548e-003
9.283972e-003
9.278309e-003
9.285087e-003
9.307385e-003
9.347494e-003
9.406721e-003
9.485347e-003
9.582716e-003
9.697423e-003
9.827555e-003
9.970939e-003
1.012536e-002
1.028873e-002
1.045916e-002
1.063500e-002
1.081477e-002
1.099715e-002
1.118088e-002
1.136478e-002
1.154772e-002
1.172868e-002
1.190672e-002
1.208108e-002
1.225116e-002
1.241650e-002
1.257684e-002
1.273197e-002
1.288176e-002
1.302602e-002
1.316444e-002
1.329646e-002
1.342124e-002
1.353752e-002
1.364358e-002
1.373712e-002
1.381530e-002
1.387468e-002
1.391125e-002
1.392058e-002
1.389790e-002
1.383838e-002
1.373743e-002
1.359116e-002
1.339686e-002
1.315359e-002
1.286276e-002
1.252869e-002
1.215892e-002
1.176427e-002
1.135847e-002
1.095724e-002
1.057698e-002
1.023306e-002
9.938065e-003
9.700235e-003
9.522483e-003
9.402244e-003
9.332241e-003
9.302021e-003
9.299893e-003
9.314782e-003
9.337599e-003
9.361889e-003
9.383799e-003
9.401588e-003
9.414951e-003
9.424375e-003
9.430671e-003
9.434672e-003
9.437096e-003
9.438493e-003
9.439256e-003
9.439648e-003
9.439834e-003
9.439915e-003
9.439945e-003
9.439954e-003
9.439956e-003
9.439999e-003
9.439999e-003
9.439997e-003
9.439987e-003
9.439956e-003
9.439870e-003
9.439671e-003
9.439260e-003
9.438477e-003
9.437079e-003
9.434706e-003
9.430857e-003
9.424879e-003
9.415995e-003
9.403402e-003
9.386478e-003
9.365111e-003
9.340158e-003
9.313953e-003
9.290727e-003
9.276772e-003
9.280190e-003
9.310184e-003
9.376014e-003
9.485817e-003
9.645589e-003
9.858518e-003
1.012478e-002
1.044178e-002
1.080471e-002
1.120724e-002
1.164232e-002
1.210282e-002
1.258210e-002
1.307431e-002
1.357453e-002
1.407872e-002
1.458352e-002
1.508604e-002
1.558374e-002
1.607424e-002
1.655538e-002
1.702523e-002
1.748215e-002
1.792483e-002
1.835236e-002
1.876419e-002
1.916009e-002
1.954001e-002
1.990399e-002
2.025190e-002
2.058328e-002
2.089713e-002
2.119169e-002
2.146427e-002
2.171108e-002
2.192709e-002
2.210592e-002
2.223983e-002
2.231977e-002
2.233552e-002
2.227596e-002
2.212949e-002
2.188471e-002
2.153114e-002
2.106039e-002
2.046737e-002
1.975170e-002
1.891917e-002
1.798294e-002
1.696421e-002
1.589222e-002
1.480295e-002
1.373679e-002
1.273488e-002
1.183473e-002
1.106578e-002
1.044563e-002
9.978040e-003
9.653202e-003
9.450458e-003
9.342708e-003
9.301403e-003
9.300855e-003
9.320942e-003
9.347964e-003
9.374005e-003
9.395471e-003
9.411490e-003
9.422599e-003
9.429855e-003
9.434350e-003
9.436999e-003
9.438483e-003
9.439270e-003
9.439664e-003
9.439848e-003
9.439926e-003
9.439956e-003
9.439965e-003
9.440023e-003
9.440018e-003
9.440004e-003
9.439969e-003
9.439881e-003
9.439678e-003
9.439250e-003
9.438413e-003
9.436876e-003
9.434201e-003
9.429755e-003
9.422686e-003
9.411954e-003
9.396463e-003
9.375408e-003
9.348886e-003
9.318846e-003
9.290273e-003
9.272358e-003
9.279201e-003
9.329594e-003
9.445603e-003
9.650054e-003
9.963439e-003
1.040098e-002
1.097052e-002
1.167176e-002
1.249673e-002
1.343130e-002
1.445724e-002
1.555442e-002
1.670269e-002
1.788346e-002
1.908064e-002
2.028110e-002
2.147464e-002
2.265357e-002
2.381206e-002
2.494558e-002
2.605038e-002
2.712321e-002
2.816120e-002
2.916197e-002
3.012370e-002
3.104521e-002
3.192602e-002
3.276627e-002
3.356662e-002
3.432805e-002
3.505149e-002
3.573755e-002
3.638607e-002
3.699578e-002
3.756396e-002
3.808611e-002
3.855562e-002
3.896356e-002
3.929850e-002
3.954639e-002
3.969060e-002
3.971205e-002
3.958955e-002
3.930037e-002
3.882102e-002
3.812849e-002
3.720188e-002
3.602454e-002
3.458675e-002
3.288872e-002
3.094376e-002
2.878114e-002
2.644789e-002
2.400898e-002
2.154484e-002
1.914601e-002
1.690465e-002
1.490399e-002
1.320739e-002
1.184957e-002
1.083254e-002
1.012767e-002
9.683505e-003
9.437191e-003
9.326052e-003
9.296512e-003
9.308667e-003
9.336650e-003
9.366160e-003
9.390886e-003
9.409180e-003
9.421623e-003
9.429553e-003
9.434334e-003
9.437072e-003
9.438563e-003
9.439332e-003
9.439706e-003
9.439875e-003
9.439944e-003
9.439968e-003
9.440044e-003
9.440030e-003
9.439993e-003
9.439905e-003
9.439705e-003
9.439281e-003
9.438435e-003
9.436839e-003
9.433987e-003
9.429122e-003
9.421194e-003
9.408877e-003
9.390745e-003
9.365777e-003
9.334393e-003
9.300201e-003
9.272479e-003
9.268964e-003
9.318077e-003
9.459362e-003
9.741125e-003
1.021505e-002
1.092875e-002
1.191793e-002
1.320051e-002
1.477378e-002
1.661542e-002
1.868743e-002
2.094181e-002
2.332658e-002
2.579088e-002
2.828889e-002
3.078213e-002
3.324048e-002
3.564197e-002
3.797173e-002
4.022052e-002
4.238298e-002
4.445622e-002
4.643868e-002
4.832953e-002
5.012842e-002
5.183559e-002
5.345196e-002
5.497923e-002
5.641992e-002
5.777726e-002
5.905497e-002
6.025694e-002
6.138673e-002
6.244712e-002
6.343952e-002
6.436355e-002
6.521655e-002
6.599319e-002
6.668504e-002
6.728031e-002
6.776355e-002
6.811549e-002
6.831287e-002
6.832844e-002
6.813108e-002
6.768598e-002
6.695522e-002
6.589859e-002
6.447509e-002
6.264525e-002
6.037447e-002
5.763761e-002
5.442480e-002
5.074844e-002
4.665034e-002
4.220802e-002
3.753799e-002
3.279367e-002
2.815584e-002
2.381459e-002
1.994471e-002
1.667913e-002
1.408782e-002
1.216904e-002
1.085611e-002
1.003756e-002
9.583752e-003
9.371575e-003
9.300962e-003
9.301193e-003
9.328824e-003
9.361083e-003
9.388399e-003
9.408334e-003
9.421586e-003
9.429809e-003
9.434627e-003
9.437308e-003
9.438724e-003
9.439432e-003
9.439764e-003
9.439906e-003
9.439957e-003
9.440057e-003
9.440026e-003
9.439942e-003
9.439754e-003
9.439352e-003
9.438536e-003
9.436966e-003
9.434085e-003
9.429041e-003
9.420606e-003
9.407172e-003
9.386949e-003
9.358636e-003
9.322958e-003
9.285560e-003
9.261551e-003
9.281324e-003
9.396164e-003
9.681040e-003
1.023170e-002
1.115447e-002
1.254978e-002
1.449333e-002
1.702028e-002
2.011731e-002
2.372439e-002
2.774519e-002
3.206228e-002
3.655303e-002
4.110271e-002
4.561331e-002
5.000779e-002
5.423085e-002
5.824704e-002
6.203749e-002
6.559591e-002
6.892467e-002
7.203134e-002
7.492610e-002
7.761994e-002
8.012376e-002
8.244807e-002
8.460308e-002
8.659890e-002
8.844561e-002
9.015328e-002
9.173189e-002
9.319109e-002
9.453990e-002
9.578631e-002
9.693680e-002
9.799596e-002
9.896611e-002
9.984706e-002
1.006357e-001
1.013259e-001
1.019081e-001
1.023691e-001
1.026920e-001
1.028555e-001
1.028340e-001
1.025963e-001
1.021059e-001
1.013193e-001
1.001860e-001
9.864748e-002
9.663765e-002
9.408397e-002
9.091061e-002
8.704427e-002
8.242390e-002
7.701477e-002
7.082667e-002
6.393407e-002
5.649342e-002
4.875040e-002
4.102885e-002
3.369626e-002
2.710822e-002
2.154448e-002
1.715700e-002
1.394901e-002
1.179246e-002
1.047522e-002
9.758694e-003
9.426046e-003
9.309721e-003
9.297639e-003
9.324835e-003
9.359263e-003
9.388314e-003
9.409067e-003
9.422494e-003
9.430586e-003
9.435188e-003
9.437670e-003
9.438939e-003
9.439550e-003
9.439821e-003
9.439921e-003
9.440047e-003
9.439984e-003
9.439818e-003
9.439454e-003
9.438705e-003
9.437234e-003
9.434471e-003
9.429509e-003
9.420992e-003
9.407064e-003
9.385561e-003
9.354789e-003
9.315555e-003
9.275388e-003
9.255879e-003
9.303238e-003
9.500163e-003
9.974364e-003
1.089716e-002
1.246656e-002
1.487432e-002
1.826375e-002
2.269143e-002
2.810642e-002
3.435462e-002
4.120599e-002
4.839470e-002
5.565930e-002
6.277331e-002
6.956218e-002
7.590759e-002
8.174278e-002
8.704285e-002
9.181364e-002
9.608116e-002
9.988296e-002
1.032616e-001
1.062605e-001
1.089209e-001
1.112810e-001
1.133750e-001
1.152333e-001
1.168832e-001
1.183487e-001
1.196514e-001
1.208102e-001
1.218419e-001
1.227611e-001
1.235804e-001
1.243104e-001
1.249597e-001
1.255350e-001
1.260413e-001
1.264818e-001
1.268579e-001
1.271695e-001
1.274148e-001
1.275900e-001
1.276898e-001
1.277060e-001
1.276276e-001
1.274396e-001
1.271218e-001
1.266468e-001
1.259780e-001
1.250658e-001
1.238449e-001
1.222291e-001
1.201081e-001
1.173441e-001
1.137729e-001
1.092125e-001
1.034836e-001
9.644614e-002
8.805153e-002
7.840184e-002
6.779617e-002
5.673883e-002
4.588636e-002
3.593084e-002
2.745000e-002
2.078045e-002
1.596599e-002
1.279701e-002
1.091325e-002
9.919299e-003
9.471146e-003
9.316638e-003
9.296697e-003
9.324734e-003
9.360861e-003
9.390637e-003
9.411276e-003
9.424216e-003
9.431770e-003
9.435931e-003
9.438102e-003
9.439171e-003
9.439659e-003
9.439843e-003
9.439992e-003
9.439873e-003
9.439568e-003
9.438915e-003
9.437603e-003
9.435083e-003
9.430445e-003
9.422274e-003
9.408545e-003
9.386749e-003
9.354681e-003
9.312801e-003
9.269652e-003
9.252295e-003
9.323028e-003
9.600882e-003
1.028115e-002
1.164044e-002
1.401308e-002
1.773149e-002
2.303968e-002
3.000723e-002
3.847995e-002
4.809175e-002
5.833561e-002
6.866549e-002
7.859226e-002
8.774666e-002
9.590157e-002
1.029618e-001
1.089352e-001
1.138987e-001
1.179663e-001
1.212649e-001
1.239184e-001
1.260393e-001
1.277257e-001
1.290609e-001
1.301145e-001
1.309444e-001
1.315975e-001
1.321116e-001
1.325168e-001
1.328367e-001
1.330898e-001
1.332901e-001
1.334484e-001
1.335729e-001
1.336701e-001
1.337448e-001
1.338008e-001
1.338411e-001
1.338682e-001
1.338842e-001
1.338909e-001
1.338896e-001
1.338813e-001
1.338665e-001
1.338453e-001
1.338171e-001
1.337800e-001
1.337308e-001
1.336643e-001
1.335727e-001
1.334444e-001
1.332623e-001
1.330013e-001
1.326246e-001
1.320767e-001
1.312729e-001
1.300836e-001
1.283131e-001
1.256792e-001
1.218083e-001
1.162673e-001
1.086535e-001
9.874416e-002
8.666805e-002
7.301973e-002
5.882454e-002
4.531937e-002
3.361856e-002
2.441678e-002
1.786658e-002
1.366160e-002
1.124412e-002
1.001827e-002
9.489919e-003
9.317210e-003
9.297704e-003
9.328500e-003
9.365719e-003
9.395075e-003
9.414657e-003
9.426506e-003
9.433193e-003
9.436752e-003
9.438541e-003
9.439376e-003
9.439698e-003
9.439860e-003
9.439651e-003
9.439124e-003
9.438015e-003
9.435830e-003
9.431708e-003
9.424256e-003
9.411385e-003
9.390331e-003
9.358328e-003
9.314987e-003
9.268430e-003
9.248299e-003
9.328942e-003
9.663117e-003
1.051872e-002
1.229903e-002
1.551738e-002
2.070196e-002
2.823427e-002
3.817136e-002
5.013622e-002
6.334870e-002
7.680116e-002
8.950517e-002
1.007041e-001
1.099802e-001
1.172472e-001
1.226658e-001
1.265348e-001
1.291966e-001
1.309721e-001
1.321265e-001
1.328610e-001
1.333191e-001
1.335997e-001
1.337701e-001
1.338749e-001
1.339428e-001
1.339913e-001
1.340296e-001
1.340613e-001
1.340865e-001
1.341042e-001
1.341127e-001
1.341109e-001
1.340985e-001
1.340759e-001
1.340443e-001
1.340054e-001
1.339613e-001
1.339144e-001
1.338671e-001
1.338225e-001
1.337835e-001
1.337537e-001
1.337367e-001
1.337368e-001
1.337586e-001
1.338068e-001
1.338859e-001
1.339991e-001
1.341480e-001
1.343303e-001
1.345379e-001
1.347546e-001
1.349532e-001
1.350945e-001
1.351283e-001
1.349989e-001
1.346536e-001
1.340497e-001
1.331406e-001
1.318249e-001
1.298485e-001
1.266956e-001
1.215609e-001
1.135325e-001
1.020294e-001
8.729658e-002
7.059360e-002
5.386528e-002
3.904363e-002
2.739303e-002
1.924650e-002
1.417528e-002
1.137563e-002
1.002381e-002
9.475046e-003
9.311176e-003
9.301162e-003
9.336057e-003
9.373358e-003
9.401082e-003
9.418771e-003
9.429069e-003
9.434675e-003
9.437548e-003
9.438913e-003
9.439447e-003
9.439608e-003
9.439262e-003
9.438396e-003
9.436602e-003
9.433120e-003
9.426658e-003
9.415180e-003
9.395817e-003
9.365303e-003
9.322055e-003
9.272234e-003
9.244003e-003
9.315679e-003
9.661744e-003
1.061149e-002
1.269577e-002
1.663358e-002
2.320179e-002
3.296682e-002
4.594865e-002
6.139121e-002
7.782731e-002
9.348195e-002
1.068346e-001
1.170512e-001
1.240905e-001
1.284968e-001
1.310513e-001
1.324774e-001
1.332958e-001
1.338098e-001
1.341553e-001
1.343700e-001
1.344509e-001
1.343910e-001
1.341932e-001
1.338707e-001
1.334422e-001
1.329271e-001
1.323432e-001
1.317059e-001
1.310283e-001
1.303217e-001
1.295964e-001
1.288616e-001
1.281255e-001
1.273952e-001
1.266767e-001
1.259750e-001
1.252947e-001
1.246394e-001
1.240133e-001
1.234210e-001
1.228679e-001
1.223614e-001
1.219104e-001
1.215266e-001
1.212242e-001
1.210208e-001
1.209371e-001
1.209968e-001
1.212265e-001
1.216547e-001
1.223103e-001
1.232200e-001
1.244036e-001
1.258678e-001
1.275967e-001
1.295386e-001
1.315911e-001
1.335863e-001
1.352837e-001
1.363880e-001
1.366148e-001
1.358123e-001
1.340574e-001
1.315071e-001
1.278906e-001
1.220585e-001
1.123550e-001
9.789610e-002
7.966414e-002
6.030066e-002
4.278368e-002
2.910538e-002
1.978374e-002
1.420294e-002
1.126944e-002
9.934386e-003
9.432578e-003
9.302642e-003
9.308309e-003
9.347074e-003
9.382997e-003
9.407956e-003
9.423132e-003
9.431616e-003
9.436050e-003
9.438192e-003
9.439041e-003
9.439190e-003
9.438640e-003
9.437279e-003
9.434495e-003
9.429169e-003
9.419438e-003
9.402498e-003
9.374779e-003
9.333466e-003
9.281710e-003
9.242323e-003
9.287742e-003
9.594860e-003
1.052559e-002
1.270987e-002
1.706637e-002
2.465917e-002
3.631062e-002
5.203184e-002
7.056855e-002
8.949352e-002
1.060400e-001
1.182958e-001
1.259645e-001
1.301434e-001
1.323679e-001
1.337350e-001
1.346430e-001
1.350468e-001
1.348192e-001
1.339353e-001
1.324786e-001
1.305848e-001
1.283946e-001
1.260299e-001
1.235860e-001
1.211324e-001
1.187162e-001
1.163680e-001
1.141066e-001
1.119432e-001
1.098840e-001
1.079322e-001
1.060887e-001
1.043526e-001
1.027215e-001
1.011918e-001
9.975916e-002
9.841876e-002
9.716597e-002
9.599686e-002
9.490885e-002
9.390124e-002
9.297583e-002
9.213730e-002
9.139375e-002
9.075711e-002
9.024366e-002
8.987446e-002
8.967580e-002
8.967979e-002
8.992497e-002
9.045695e-002
9.132899e-002
9.260221e-002
9.434518e-002
9.663202e-002
9.953773e-002
1.031288e-001
1.074461e-001
1.124755e-001
1.181017e-001
1.240435e-001
1.297832e-001
1.345388e-001
1.373838e-001
1.376382e-001
1.354266e-001
1.316447e-001
1.265304e-001
1.182849e-001
1.045111e-001
8.527803e-002
6.379480e-002
4.419897e-002
2.919684e-002
1.934993e-002
1.373853e-002
1.095773e-002
9.779287e-003
9.378739e-003
9.297668e-003
9.320089e-003
9.360759e-003
9.393639e-003
9.414960e-003
9.427296e-003
9.433887e-003
9.437120e-003
9.438416e-003
9.438548e-003
9.437712e-003
9.435655e-003
9.431501e-003
9.423661e-003
9.409575e-003
9.385647e-003
9.348118e-003
9.296928e-003
9.247196e-003
9.257173e-003
9.485342e-003
1.028619e-002
1.233128e-002
1.668738e-002
2.470757e-002
3.756311e-002
5.539792e-002
7.650034e-002
9.731975e-002
1.139524e-001
1.244447e-001
1.298622e-001
1.327570e-001
1.347019e-001
1.356220e-001
1.349089e-001
1.323883e-001
1.283961e-001
1.234729e-001
1.181235e-001
1.127203e-001
1.074991e-001
1.025887e-001
9.804560e-002
9.388141e-002
9.008272e-002
8.662380e-002
8.347470e-002
8.060577e-002
7.798980e-002
7.560263e-002
7.342295e-002
7.143182e-002
6.961205e-002
6.794778e-002
6.642432e-002
6.502808e-002
6.374680e-002
6.256972e-002
6.148790e-002
6.049446e-002
5.958497e-002
5.875764e-002
5.801364e-002
5.735730e-002
5.679644e-002
5.634268e-002
5.601183e-002
5.582445e-002
5.580658e-002
5.599080e-002
5.641758e-002
5.713712e-002
5.821164e-002
5.971830e-002
6.175244e-002
6.443087e-002
6.789418e-002
7.230593e-002
7.784438e-002
8.467870e-002
9.291550e-002
1.024967e-001
1.130322e-001
1.235870e-001
1.325457e-001
1.378900e-001
1.383074e-001
1.346463e-001
1.290975e-001
1.212499e-001
1.076470e-001
8.727139e-002
6.397774e-002
4.305990e-002
2.765360e-002
1.805401e-002
1.290685e-002
1.052866e-002
9.604831e-003
9.331909e-003
9.300973e-003
9.336279e-003
9.375841e-003
9.404226e-003
9.421440e-003
9.430882e-003
9.435594e-003
9.437503e-003
9.437625e-003
9.436399e-003
9.433407e-003
9.427432e-003
9.416310e-003
9.396709e-003
9.364439e-003
9.316830e-003
9.261095e-003
9.237134e-003
9.369516e-003
9.966274e-003
1.166743e-002
1.559095e-002
2.331575e-002
3.643342e-002
5.548228e-002
7.860883e-002
1.012119e-001
1.180765e-001
1.273419e-001
1.318048e-001
1.347107e-001
1.360029e-001
1.340897e-001
1.286157e-001
1.206057e-001
1.114409e-001
1.022063e-001
9.354741e-002
8.575990e-002
7.891971e-002
7.298543e-002
6.786347e-002
6.344461e-002
5.962239e-002
5.630145e-002
5.340040e-002
5.085191e-002
4.860134e-002
4.660473e-002
4.482666e-002
4.323828e-002
4.181567e-002
4.053853e-002
3.938935e-002
3.835278e-002
3.741541e-002
3.656556e-002
3.579332e-002
3.509050e-002
3.445071e-002
3.386944e-002
3.334412e-002
3.287420e-002
3.246126e-002
3.210913e-002
3.182404e-002
3.161487e-002
3.149360e-002
3.147581e-002
3.158162e-002
3.183686e-002
3.227483e-002
3.293876e-002
3.388527e-002
3.518907e-002
3.694942e-002
3.929852e-002
4.241200e-002
4.652061e-002
5.191924e-002
5.896373e-002
6.803452e-002
7.942910e-002
9.312984e-002
1.084079e-001
1.233465e-001
1.347257e-001
1.392583e-001
1.366146e-001
1.304351e-001
1.222010e-001
1.077963e-001
8.566930e-002
6.084554e-002
3.956726e-002
2.480605e-002
1.620285e-002
1.191335e-002
1.008909e-002
9.454488e-003
9.304754e-003
9.313814e-003
9.355340e-003
9.390821e-003
9.413822e-003
9.426869e-003
9.433508e-003
9.436226e-003
9.436362e-003
9.434627e-003
9.430427e-003
9.422128e-003
9.406910e-003
9.380697e-003
9.339285e-003
9.283535e-003
9.235583e-003
9.280190e-003
9.653293e-003
1.089704e-002
1.406003e-002
2.080727e-002
3.312297e-002
5.221464e-002
7.668312e-002
1.013499e-001
1.194345e-001
1.285325e-001
1.328940e-001
1.357856e-001
1.349666e-001
1.282511e-001
1.168155e-001
1.033501e-001
9.007067e-002
7.818183e-002
6.809674e-002
5.978443e-002
5.302374e-002
4.754487e-002
4.309413e-002
3.945653e-002
3.645879e-002
3.396475e-002
3.186891e-002
3.009016e-002
2.856644e-002
2.725034e-002
2.610550e-002
2.510376e-002
2.422298e-002
2.344541e-002
2.275647e-002
2.214396e-002
2.159751e-002
2.110829e-002
2.066879e-002
2.027271e-002
1.991491e-002
1.959134e-002
1.929904e-002
1.903614e-002
1.880184e-002
1.859646e-002
1.842147e-002
1.827953e-002
1.817465e-002
1.811238e-002
1.810016e-002
1.814783e-002
1.826837e-002
1.847904e-002
1.880301e-002
1.927189e-002
1.992933e-002
2.083656e-002
2.208053e-002
2.378607e-002
2.613361e-002
2.938351e-002
3.390577e-002
4.020624e-002
4.892384e-002
6.074130e-002
7.610962e-002
9.467074e-002
1.143959e-001
1.309875e-001
1.391574e-001
1.373228e-001
1.305134e-001
1.214276e-001
1.050039e-001
8.048089e-002
5.474692e-002
3.432661e-002
2.123676e-002
1.419421e-002
1.096717e-002
9.724881e-003
9.353918e-003
9.300614e-003
9.333986e-003
9.374982e-003
9.404320e-003
9.421707e-003
9.430759e-003
9.434512e-003
9.434709e-003
9.432337e-003
9.426637e-003
9.415494e-003
9.395396e-003
9.361719e-003
9.311367e-003
9.252705e-003
9.234230e-003
9.413617e-003
1.019639e-002
1.245584e-002
1.775650e-002
2.829798e-002
4.605525e-002
7.075163e-002
9.762449e-002
1.184052e-001
1.286319e-001
1.331484e-001
1.358865e-001
1.327441e-001
1.212484e-001
1.044556e-001
8.672488e-002
7.086013e-002
5.790513e-002
4.783898e-002
4.020232e-002
3.445192e-002
3.010936e-002
2.679996e-002
2.424611e-002
2.224714e-002
2.065916e-002
1.937891e-002
1.833193e-002
1.746415e-002
1.673611e-002
1.611875e-002
1.559050e-002
1.513508e-002
1.474003e-002
1.439556e-002
1.409382e-002
1.382837e-002
1.359384e-002
1.338574e-002
1.320031e-002
1.303442e-002
1.288555e-002
1.275169e-002
1.263135e-002
1.252350e-002
1.242762e-002
1.234365e-002
1.227200e-002
1.221358e-002
1.216984e-002
1.214287e-002
1.213553e-002
1.215174e-002
1.219676e-002
1.227783e-002
1.240495e-002
1.259223e-002
1.286000e-002
1.323810e-002
1.377120e-002
1.452763e-002
1.561366e-002
1.719681e-002
1.954182e-002
2.306204e-002
2.838055e-002
3.637146e-002
4.810006e-002
6.449938e-002
8.556672e-002
1.090366e-001
1.293096e-001
1.391714e-001
1.368102e-001
1.293175e-001
1.187149e-001
9.885461e-002
7.185911e-002
4.646348e-002
2.824617e-002
1.761034e-002
1.238596e-002
1.021456e-002
9.477927e-003
9.307140e-003
9.314909e-003
9.357412e-003
9.392973e-003
9.415306e-003
9.427264e-003
9.432292e-003
9.432635e-003
9.429497e-003
9.422006e-003
9.407525e-003
9.381880e-003
9.340323e-003
9.282645e-003
9.230390e-003
9.273676e-003
9.678050e-003
1.108476e-002
1.479052e-002
2.292453e-002
3.802104e-002
6.128329e-002
8.963302e-002
1.144461e-001
1.277219e-001
1.326344e-001
1.354970e-001
1.314425e-001
1.166580e-001
9.563905e-002
7.456263e-002
5.693910e-002
4.363655e-002
3.414509e-002
2.754903e-002
2.299312e-002
1.982350e-002
1.758418e-002
1.597070e-002
1.478315e-002
1.389025e-002
1.320497e-002
1.266874e-002
1.224150e-002
1.189544e-002
1.161100e-002
1.137420e-002
1.117493e-002
1.100575e-002
1.086107e-002
1.073658e-002
1.062889e-002
1.053528e-002
1.045348e-002
1.038165e-002
1.031824e-002
1.026199e-002
1.021189e-002
1.016712e-002
1.012706e-002
1.009128e-002
1.005948e-002
1.003158e-002
1.000763e-002
9.987832e-003
9.972580e-003
9.962455e-003
9.958298e-003
9.961304e-003
9.973145e-003
9.996184e-003
1.003382e-002
1.009103e-002
1.017535e-002
1.029838e-002
1.047853e-002
1.074582e-002
1.115054e-002
1.177896e-002
1.278115e-002
1.441856e-002
1.713913e-002
2.167852e-002
2.915202e-002
4.101836e-002
5.866013e-002
8.223351e-002
1.087454e-001
1.307039e-001
1.393777e-001
1.350281e-001
1.268902e-001
1.132402e-001