# vtk DataFile Version 3.0
vtk output
ASCII
DATASET STRUCTURED_POINTS
DIMENSIONS 100 100 1
SPACING 1 1 1
ORIGIN 0 0 0
POINT_DATA 10000
SCALARS SFBox_profile double
LOOKUP_TABLE default 
9.439917e-003
9.439918e-003
9.439919e-003
9.439921e-003
9.439922e-003
9.439921e-003
9.439920e-003
9.439919e-003
9.439918e-003
9.439919e-003
9.439920e-003
9.439921e-003
9.439921e-003
9.439921e-003
9.439920e-003
9.439919e-003
9.439919e-003
9.439920e-003
9.439920e-003
9.439920e-003
9.439920e-003
9.439919e-003
9.439920e-003
9.439920e-003
9.439921e-003
9.439920e-003
9.439920e-003
9.439920e-003
9.439920e-003
9.439921e-003
9.439921e-003
9.439921e-003
9.439921e-003
9.439921e-003
9.439921e-003
9.439922e-003
9.439922e-003
9.439922e-003
9.439922e-003
9.439922e-003
9.439923e-003
9.439923e-003
9.439923e-003
9.439923e-003
9.439923e-003
9.439923e-003
9.439923e-003
9.439923e-003
9.439923e-003
9.439923e-003
9.439923e-003
9.439923e-003
9.439922e-003
9.439922e-003
9.439922e-003
9.439922e-003
9.439922e-003
9.439922e-003
9.439921e-003
9.439921e-003
9.439921e-003
9.439921e-003
9.439921e-003
9.439921e-003
9.439920e-003
9.439920e-003
9.439920e-003
9.439920e-003
9.439920e-003
9.439920e-003
9.439920e-003
9.439920e-003
9.439920e-003
9.439920e-003
9.439920e-003
9.439920e-003
9.439920e-003
9.439920e-003
9.439920e-003
9.439920e-003
9.439920e-003
9.439920e-003
9.439920e-003
9.439920e-003
9.439920e-003
9.439920e-003
9.439920e-003
9.439920e-003
9.439920e-003
9.439920e-003
9.439920e-003
9.439920e-003
9.439920e-003
9.439919e-003
9.439920e-003
9.439920e-003
9.439921e-003
9.439920e-003
9.439920e-003
9.439919e-003
9.439917e-003
9.439918e-003
9.439919e-003
9.439921e-003
9.439922e-003
9.439921e-003
9.439920e-003
9.439919e-003
9.439918e-003
9.439919e-003
9.439920e-003
9.439921e-003
9.439921e-003
9.439921e-003
9.439920e-003
9.439919e-003
9.439919e-003
9.439920e-003
9.439920e-003
9.439920e-003
9.439920e-003
9.439919e-003
9.439920e-003
9.439920e-003
9.439921e-003
9.439920e-003
9.439920e-003
9.439920e-003
9.439920e-003
9.439921e-003
9.439921e-003
9.439921e-003
9.439921e-003
9.439921e-003
9.439921e-003
9.439922e-003
9.439922e-003
9.439922e-003
9.439922e-003
9.439922e-003
9.439923e-003
9.439923e-003
9.439923e-003
9.439923e-003
9.439923e-003
9.439923e-003
9.439923e-003
9.439923e-003
9.439923e-003
9.439923e-003
9.439923e-003
9.439923e-003
9.439922e-003
9.439922e-003
9.439922e-003
9.439922e-003
9.439922e-003
9.439922e-003
9.439921e-003
9.439921e-003
9.439921e-003
9.439921e-003
9.439921e-003
9.439921e-003
9.439920e-003
9.439920e-003
9.439920e-003
9.439920e-003
9.439920e-003
9.439920e-003
9.439920e-003
9.439920e-003
9.439920e-003
9.439920e-003
9.439920e-003
9.439920e-003
9.439920e-003
9.439920e-003
9.439920e-003
9.439920e-003
9.439920e-003
9.439920e-003
9.439920e-003
9.439920e-003
9.439920e-003
9.439920e-003
9.439920e-003
9.439920e-003
9.439920e-003
9.439920e-003
9.439920e-003
9.439920e-003
9.439920e-003
9.439919e-003
9.439920e-003
9.439920e-003
9.439921e-003
9.439920e-003
9.439920e-003
9.439919e-003
9.439920e-003
9.439920e-003
9.439920e-003
9.439920e-003
9.439920e-003
9.439920e-003
9.439920e-003
9.439920e-003
9.439920e-003
9.439920e-003
9.439920e-003
9.439920e-003
9.439920e-003
9.439920e-003
9.439920e-003
9.439920e-003
9.439920e-003
9.439920e-003
9.439920e-003
9.439920e-003
9.439920e-003
9.439920e-003
9.439920e-003
9.439920e-003
9.439920e-003
9.439921e-003
9.439920e-003
9.439920e-003
9.439921e-003
9.439921e-003
9.439921e-003
9.439921e-003
9.439922e-003
9.439922e-003
9.439922e-003
9.439923e-003
9.439923e-003
9.439923e-003
9.439923e-003
9.439924e-003
9.439924e-003
9.439924e-003
9.439924e-003
9.439924e-003
9.439924e-003
9.439925e-003
9.439925e-003
9.439925e-003
9.439924e-003
9.439924e-003
9.439924e-003
9.439924e-003
9.439924e-003
9.439923e-003
9.439923e-003
9.439923e-003
9.439923e-003
9.439922e-003
9.439922e-003
9.439922e-003
9.439921e-003
9.439921e-003
9.439921e-003
9.439921e-003
9.439920e-003
9.439920e-003
9.439920e-003
9.439920e-003
9.439920e-003
9.439920e-003
9.439920e-003
9.439920e-003
9.439920e-003
9.439920e-003
9.439920e-003
9.439920e-003
9.439920e-003
9.439920e-003
9.439920e-003
9.439920e-003
9.439920e-003
9.439920e-003
9.439920e-003
9.439920e-003
9.439920e-003
9.439920e-003
9.439920e-003
9.439920e-003
9.439920e-003
9.439920e-003
9.439920e-003
9.439920e-003
9.439920e-003
9.439920e-003
9.439920e-003
9.439920e-003
9.439920e-003
9.439920e-003
9.439920e-003
9.439920e-003
9.439923e-003
9.439922e-003
9.439920e-003
9.439919e-003
9.439919e-003
9.439919e-003
9.439920e-003
9.439921e-003
9.439921e-003
9.439921e-003
9.439920e-003
9.439919e-003
9.439919e-003
9.439919e-003
9.439920e-003
9.439920e-003
9.439920e-003
9.439920e-003
9.439920e-003
9.439920e-003
9.439920e-003
9.439920e-003
9.439920e-003
9.439920e-003
9.439921e-003
9.439921e-003
9.439921e-003
9.439921e-003
9.439921e-003
9.439922e-003
9.439922e-003
9.439923e-003
9.439923e-003
9.439924e-003
9.439924e-003
9.439925e-003
9.439925e-003
9.439926e-003
9.439926e-003
9.439927e-003
9.439927e-003
9.439928e-003
9.439928e-003
9.439928e-003
9.439928e-003
9.439928e-003
9.439928e-003
9.439928e-003
9.439928e-003
9.439928e-003
9.439928e-003
9.439927e-003
9.439927e-003
9.439926e-003
9.439926e-003
9.439926e-003
9.439925e-003
9.439925e-003
9.439924e-003
9.439923e-003
9.439923e-003
9.439922e-003
9.439922e-003
9.439922e-003
9.439921e-003
9.439921e-003
9.439921e-003
9.439921e-003
9.439920e-003
9.439920e-003
9.439920e-003
9.439920e-003
9.439920e-003
9.439920e-003
9.439920e-003
9.439920e-003
9.439920e-003
9.439920e-003
9.439920e-003
9.439920e-003
9.439920e-003
9.439920e-003
9.439920e-003
9.439920e-003
9.439920e-003
9.439920e-003
9.439920e-003
9.439920e-003
9.439920e-003
9.439920e-003
9.439920e-003
9.439920e-003
9.439920e-003
9.439920e-003
9.439920e-003
9.439920e-003
9.439920e-003
9.439920e-003
9.439920e-003
9.439920e-003
9.439923e-003
9.439922e-003
9.439921e-003
9.439919e-003
9.439918e-003
9.439919e-003
9.439920e-003
9.439921e-003
9.439922e-003
9.439921e-003
9.439920e-003
9.439919e-003
9.439919e-003
9.439919e-003
9.439920e-003
9.439921e-003
9.439921e-003
9.439920e-003
9.439920e-003
9.439920e-003
9.439921e-003
9.439921e-003
9.439921e-003
9.439921e-003
9.439921e-003
9.439922e-003
9.439922e-003
9.439923e-003
9.439923e-003
9.439924e-003
9.439925e-003
9.439925e-003
9.439926e-003
9.439927e-003
9.439928e-003
9.439929e-003
9.439930e-003
9.439931e-003
9.439931e-003
9.439932e-003
9.439932e-003
9.439933e-003
9.439933e-003
9.439934e-003
9.439934e-003
9.439934e-003
9.439934e-003
9.439934e-003
9.439934e-003
9.439933e-003
9.439933e-003
9.439933e-003
9.439932e-003
9.439931e-003
9.439931e-003
9.439930e-003
9.439929e-003
9.439928e-003
9.439927e-003
9.439927e-003
9.439926e-003
9.439925e-003
9.439924e-003
9.439923e-003
9.439923e-003
9.439922e-003
9.439922e-003
9.439921e-003
9.439921e-003
9.439921e-003
9.439921e-003
9.439920e-003
9.439920e-003
9.439920e-003
9.439920e-003
9.439920e-003
9.439920e-003
9.439920e-003
9.439920e-003
9.439920e-003
9.439920e-003
9.439920e-003
9.439920e-003
9.439920e-003
9.439920e-003
9.439920e-003
9.439920e-003
9.439920e-003
9.439920e-003
9.439920e-003
9.439920e-003
9.439920e-003
9.439920e-003
9.439921e-003
9.439920e-003
9.439920e-003
9.439919e-003
9.439920e-003
9.439920e-003
9.439921e-003
9.439921e-003
9.439921e-003
9.439921e-003
9.439920e-003
9.439920e-003
9.439919e-003
9.439920e-003
9.439920e-003
9.439921e-003
9.439920e-003
9.439920e-003
9.439919e-003
9.439919e-003
9.439920e-003
9.439921e-003
9.439921e-003
9.439921e-003
9.439920e-003
9.439920e-003
9.439920e-003
9.439921e-003
9.439921e-003
9.439922e-003
9.439922e-003
9.439922e-003
9.439923e-003
9.439925e-003
9.439926e-003
9.439927e-003
9.439928e-003
9.439929e-003
9.439930e-003
9.439932e-003
9.439933e-003
9.439934e-003
9.439935e-003
9.439936e-003
9.439937e-003
9.439938e-003
9.439939e-003
9.439940e-003
9.439940e-003
9.439941e-003
9.439941e-003
9.439941e-003
9.439941e-003
9.439941e-003
9.439941e-003
9.439941e-003
9.439941e-003
9.439940e-003
9.439939e-003
9.439939e-003
9.439938e-003
9.439937e-003
9.439936e-003
9.439935e-003
9.439934e-003
9.439933e-003
9.439932e-003
9.439930e-003
9.439929e-003
9.439928e-003
9.439927e-003
9.439926e-003
9.439925e-003
9.439923e-003
9.439923e-003
9.439922e-003
9.439921e-003
9.439921e-003
9.439921e-003
9.439920e-003
9.439920e-003
9.439920e-003
9.439920e-003
9.439920e-003
9.439920e-003
9.439920e-003
9.439920e-003
9.439920e-003
9.439920e-003
9.439920e-003
9.439920e-003
9.439920e-003
9.439920e-003
9.439920e-003
9.439920e-003
9.439920e-003
9.439920e-003
9.439920e-003
9.439920e-003
9.439920e-003
9.439920e-003
9.439920e-003
9.439920e-003
9.439920e-003
9.439920e-003
9.439920e-003
9.439920e-003
9.439917e-003
9.439918e-003
9.439920e-003
9.439921e-003
9.439921e-003
9.439921e-003
9.439920e-003
9.439919e-003
9.439919e-003
9.439920e-003
9.439920e-003
9.439920e-003
9.439920e-003
9.439921e-003
9.439921e-003
9.439921e-003
9.439920e-003
9.439920e-003
9.439920e-003
9.439921e-003
9.439922e-003
9.439923e-003
9.439923e-003
9.439924e-003
9.439925e-003
9.439926e-003
9.439928e-003
9.439930e-003
9.439932e-003
9.439933e-003
9.439935e-003
9.439937e-003
9.439939e-003
9.439941e-003
9.439942e-003
9.439943e-003
9.439944e-003
9.439945e-003
9.439945e-003
9.439945e-003
9.439945e-003
9.439945e-003
9.439946e-003
9.439946e-003
9.439945e-003
9.439945e-003
9.439945e-003
9.439945e-003
9.439945e-003
9.439945e-003
9.439944e-003
9.439944e-003
9.439944e-003
9.439944e-003
9.439943e-003
9.439942e-003
9.439941e-003
9.439940e-003
9.439939e-003
9.439938e-003
9.439937e-003
9.439935e-003
9.439933e-003
9.439931e-003
9.439930e-003
9.439928e-003
9.439926e-003
9.439925e-003
9.439924e-003
9.439923e-003
9.439922e-003
9.439921e-003
9.439921e-003
9.439920e-003
9.439920e-003
9.439920e-003
9.439920e-003
9.439920e-003
9.439920e-003
9.439920e-003
9.439920e-003
9.439920e-003
9.439920e-003
9.439920e-003
9.439919e-003
9.439920e-003
9.439920e-003
9.439920e-003
9.439920e-003
9.439920e-003
9.439920e-003
9.439920e-003
9.439920e-003
9.439920e-003
9.439920e-003
9.439920e-003
9.439920e-003
9.439920e-003
9.439920e-003
9.439920e-003
9.439915e-003
9.439917e-003
9.439919e-003
9.439921e-003
9.439922e-003
9.439921e-003
9.439920e-003
9.439919e-003
9.439919e-003
9.439919e-003
9.439920e-003
9.439921e-003
9.439921e-003
9.439920e-003
9.439920e-003
9.439920e-003
9.439921e-003
9.439921e-003
9.439922e-003
9.439922e-003
9.439923e-003
9.439925e-003
9.439926e-003
9.439928e-003
9.439929e-003
9.439932e-003
9.439934e-003
9.439937e-003
9.439939e-003
9.439941e-003
9.439943e-003
9.439944e-003
9.439946e-003
9.439946e-003
9.439946e-003
9.439945e-003
9.439944e-003
9.439943e-003
9.439941e-003
9.439939e-003
9.439936e-003
9.439934e-003
9.439932e-003
9.439930e-003
9.439928e-003
9.439927e-003
9.439926e-003
9.439926e-003
9.439927e-003
9.439928e-003
9.439929e-003
9.439931e-003
9.439933e-003
9.439935e-003
9.439938e-003
9.439939e-003
9.439941e-003
9.439942e-003
9.439943e-003
9.439943e-003
9.439942e-003
9.439941e-003
9.439939e-003
9.439937e-003
9.439935e-003
9.439933e-003
9.439931e-003
9.439929e-003
9.439927e-003
9.439926e-003
9.439924e-003
9.439923e-003
9.439922e-003
9.439921e-003
9.439921e-003
9.439921e-003
9.439920e-003
9.439920e-003
9.439920e-003
9.439920e-003
9.439920e-003
9.439920e-003
9.439920e-003
9.439920e-003
9.439920e-003
9.439920e-003
9.439920e-003
9.439920e-003
9.439920e-003
9.439920e-003
9.439920e-003
9.439920e-003
9.439920e-003
9.439920e-003
9.439920e-003
9.439920e-003
9.439920e-003
9.439920e-003
9.439920e-003
9.439920e-003
9.439917e-003
9.439918e-003
9.439919e-003
9.439920e-003
9.439921e-003
9.439921e-003
9.439920e-003
9.439919e-003
9.439919e-003
9.439920e-003
9.439921e-003
9.439921e-003
9.439921e-003
9.439920e-003
9.439920e-003
9.439920e-003
9.439921e-003
9.439923e-003
9.439924e-003
9.439925e-003
9.439926e-003
9.439928e-003
9.439931e-003
9.439933e-003
9.439936e-003
9.439939e-003
9.439942e-003
9.439944e-003
9.439946e-003
9.439947e-003
9.439946e-003
9.439945e-003
9.439942e-003
9.439937e-003
9.439931e-003
9.439923e-003
9.439914e-003
9.439905e-003
9.439894e-003
9.439883e-003
9.439872e-003
9.439862e-003
9.439853e-003
9.439846e-003
9.439840e-003
9.439835e-003
9.439833e-003
9.439834e-003
9.439837e-003
9.439842e-003
9.439848e-003
9.439857e-003
9.439866e-003
9.439877e-003
9.439888e-003
9.439899e-003
9.439909e-003
9.439918e-003
9.439926e-003
9.439933e-003
9.439938e-003
9.439940e-003
9.439942e-003
9.439942e-003
9.439941e-003
9.439939e-003
9.439937e-003
9.439934e-003
9.439932e-003
9.439930e-003
9.439928e-003
9.439926e-003
9.439924e-003
9.439923e-003
9.439922e-003
9.439921e-003
9.439921e-003
9.439920e-003
9.439920e-003
9.439920e-003
9.439920e-003
9.439920e-003
9.439920e-003
9.439920e-003
9.439920e-003
9.439920e-003
9.439920e-003
9.439920e-003
9.439920e-003
9.439920e-003
9.439920e-003
9.439920e-003
9.439920e-003
9.439920e-003
9.439920e-003
9.439920e-003
9.439921e-003
9.439920e-003
9.439920e-003
9.439920e-003
9.439922e-003
9.439921e-003
9.439920e-003
9.439919e-003
9.439919e-003
9.439920e-003
9.439920e-003
9.439920e-003
9.439920e-003
9.439920e-003
9.439920e-003
9.439921e-003
9.439920e-003
9.439920e-003
9.439920e-003
9.439921e-003
9.439923e-003
9.439925e-003
9.439927e-003
9.439929e-003
9.439931e-003
9.439934e-003
9.439938e-003
9.439941e-003
9.439944e-003
9.439946e-003
9.439948e-003
9.439947e-003
9.439944e-003
9.439938e-003
9.439928e-003
9.439915e-003
9.439897e-003
9.439875e-003
9.439850e-003
9.439820e-003
9.439788e-003
9.439754e-003
9.439719e-003
9.439684e-003
9.439651e-003
9.439619e-003
9.439592e-003
9.439569e-003
9.439551e-003
9.439539e-003
9.439534e-003
9.439536e-003
9.439545e-003
9.439561e-003
9.439582e-003
9.439609e-003
9.439640e-003
9.439674e-003
9.439711e-003
9.439747e-003
9.439782e-003
9.439816e-003
9.439846e-003
9.439873e-003
9.439895e-003
9.439912e-003
9.439925e-003
9.439934e-003
9.439940e-003
9.439942e-003
9.439942e-003
9.439940e-003
9.439938e-003
9.439935e-003
9.439932e-003
9.439930e-003
9.439927e-003
9.439926e-003
9.439924e-003
9.439923e-003
9.439922e-003
9.439921e-003
9.439920e-003
9.439920e-003
9.439920e-003
9.439920e-003
9.439920e-003
9.439920e-003
9.439920e-003
9.439920e-003
9.439920e-003
9.439920e-003
9.439920e-003
9.439920e-003
9.439920e-003
9.439920e-003
9.439920e-003
9.439920e-003
9.439920e-003
9.439920e-003
9.439920e-003
9.439920e-003
9.439920e-003
9.439920e-003
9.439926e-003
9.439924e-003
9.439920e-003
9.439918e-003
9.439918e-003
9.439919e-003
9.439920e-003
9.439921e-003
9.439921e-003
9.439920e-003
9.439920e-003
9.439920e-003
9.439921e-003
9.439921e-003
9.439922e-003
9.439924e-003
9.439926e-003
9.439929e-003
9.439931e-003
9.439934e-003
9.439937e-003
9.439941e-003
9.439945e-003
9.439949e-003
9.439949e-003
9.439946e-003
9.439939e-003
9.439927e-003
9.439907e-003
9.439879e-003
9.439840e-003
9.439792e-003
9.439733e-003
9.439664e-003
9.439585e-003
9.439499e-003
9.439407e-003
9.439310e-003
9.439213e-003
9.439118e-003
9.439027e-003
9.438944e-003
9.438870e-003
9.438810e-003
9.438763e-003
9.438734e-003
9.438722e-003
9.438728e-003
9.438752e-003
9.438793e-003
9.438851e-003
9.438924e-003
9.439008e-003
9.439102e-003
9.439201e-003
9.439303e-003
9.439404e-003
9.439501e-003
9.439591e-003
9.439672e-003
9.439742e-003
9.439801e-003
9.439848e-003
9.439884e-003
9.439909e-003
9.439926e-003
9.439936e-003
9.439941e-003
9.439942e-003
9.439941e-003
9.439938e-003
9.439935e-003
9.439932e-003
9.439929e-003
9.439927e-003
9.439925e-003
9.439923e-003
9.439922e-003
9.439921e-003
9.439921e-003
9.439920e-003
9.439920e-003
9.439920e-003
9.439920e-003
9.439921e-003
9.439920e-003
9.439920e-003
9.439919e-003
9.439919e-003
9.439920e-003
9.439920e-003
9.439921e-003
9.439920e-003
9.439920e-003
9.439920e-003
9.439920e-003
9.439920e-003
9.439920e-003
9.439920e-003
9.439920e-003
9.439926e-003
9.439924e-003
9.439921e-003
9.439918e-003
9.439918e-003
9.439919e-003
9.439921e-003
9.439921e-003
9.439921e-003
9.439920e-003
9.439920e-003
9.439921e-003
9.439922e-003
9.439924e-003
9.439925e-003
9.439927e-003
9.439930e-003
9.439933e-003
9.439937e-003
9.439942e-003
9.439946e-003
9.439949e-003
9.439950e-003
9.439947e-003
9.439936e-003
9.439916e-003
9.439883e-003
9.439834e-003
9.439766e-003
9.439677e-003
9.439563e-003
9.439425e-003
9.439261e-003
9.439075e-003
9.438867e-003
9.438642e-003
9.438405e-003
9.438162e-003
9.437918e-003
9.437682e-003
9.437458e-003
9.437254e-003
9.437076e-003
9.436930e-003
9.436819e-003
9.436749e-003
9.436721e-003
9.436736e-003
9.436796e-003
9.436898e-003
9.437040e-003
9.437218e-003
9.437427e-003
9.437658e-003
9.437906e-003
9.438163e-003
9.438420e-003
9.438669e-003
9.438903e-003
9.439118e-003
9.439308e-003
9.439470e-003
9.439605e-003
9.439712e-003
9.439794e-003
9.439853e-003
9.439894e-003
9.439920e-003
9.439935e-003
9.439941e-003
9.439942e-003
9.439941e-003
9.439938e-003
9.439934e-003
9.439931e-003
9.439928e-003
9.439925e-003
9.439924e-003
9.439923e-003
9.439922e-003
9.439921e-003
9.439920e-003
9.439920e-003
9.439920e-003
9.439920e-003
9.439920e-003
9.439920e-003
9.439920e-003
9.439920e-003
9.439920e-003
9.439920e-003
9.439920e-003
9.439920e-003
9.439920e-003
9.439920e-003
9.439920e-003
9.439920e-003
9.439920e-003
9.439920e-003
9.439920e-003
9.439921e-003
9.439921e-003
9.439920e-003
9.439920e-003
9.439920e-003
9.439920e-003
9.439921e-003
9.439921e-003
9.439921e-003
9.439920e-003
9.439920e-003
9.439922e-003
9.439924e-003
9.439927e-003
9.439929e-003
9.439932e-003
9.439936e-003
9.439940e-003
9.439946e-003
9.439950e-003
9.439952e-003
9.439948e-003
9.439936e-003
9.439910e-003
9.439866e-003
9.439796e-003
9.439693e-003
9.439551e-003
9.439363e-003
9.439124e-003
9.438828e-003
9.438476e-003
9.438068e-003
9.437609e-003
9.437106e-003
9.436568e-003
9.436008e-003
9.435437e-003
9.434872e-003
9.434326e-003
9.433814e-003
9.433350e-003
9.432947e-003
9.432617e-003
9.432369e-003
9.432212e-003
9.432151e-003
9.432188e-003
9.432325e-003
9.432557e-003
9.432881e-003
9.433287e-003
9.433764e-003
9.434297e-003
9.434871e-003
9.435468e-003
9.436071e-003
9.436662e-003
9.437225e-003
9.437745e-003
9.438212e-003
9.438620e-003
9.438963e-003
9.439243e-003
9.439464e-003
9.439630e-003
9.439751e-003
9.439834e-003
9.439888e-003
9.439919e-003
9.439935e-003
9.439942e-003
9.439943e-003
9.439940e-003
9.439936e-003
9.439932e-003
9.439929e-003
9.439926e-003
9.439925e-003
9.439923e-003
9.439922e-003
9.439921e-003
9.439920e-003
9.439920e-003
9.439920e-003
9.439920e-003
9.439920e-003
9.439920e-003
9.439920e-003
9.439920e-003
9.439920e-003
9.439920e-003
9.439920e-003
9.439920e-003
9.439920e-003
9.439920e-003
9.439920e-003
9.439920e-003
9.439920e-003
9.439920e-003
9.439915e-003
9.439917e-003
9.439920e-003
9.439921e-003
9.439921e-003
9.439921e-003
9.439920e-003
9.439920e-003
9.439921e-003
9.439921e-003
9.439922e-003
9.439924e-003
9.439927e-003
9.439930e-003
9.439934e-003
9.439939e-003
9.439944e-003
9.439949e-003
9.439953e-003
9.439952e-003
9.439941e-003
9.439915e-003
9.439864e-003
9.439779e-003
9.439647e-003
9.439454e-003
9.439182e-003
9.438819e-003
9.438351e-003
9.437766e-003
9.437060e-003
9.436232e-003
9.435287e-003
9.434238e-003
9.433102e-003
9.431900e-003
9.430661e-003
9.429411e-003
9.428182e-003
9.427006e-003
9.425910e-003
9.424923e-003
9.424071e-003
9.423376e-003
9.422858e-003
9.422531e-003
9.422406e-003
9.422488e-003
9.422778e-003
9.423272e-003
9.423959e-003
9.424822e-003
9.425840e-003
9.426986e-003
9.428226e-003
9.429527e-003
9.430851e-003
9.432161e-003
9.433420e-003
9.434597e-003
9.435668e-003
9.436613e-003
9.437423e-003
9.438095e-003
9.438634e-003
9.439051e-003
9.439363e-003
9.439585e-003
9.439737e-003
9.439834e-003
9.439893e-003
9.439925e-003
9.439939e-003
9.439943e-003
9.439942e-003
9.439938e-003
9.439934e-003
9.439930e-003
9.439927e-003
9.439925e-003
9.439923e-003
9.439922e-003
9.439921e-003
9.439920e-003
9.439920e-003
9.439920e-003
9.439920e-003
9.439920e-003
9.439920e-003
9.439920e-003
9.439920e-003
9.439919e-003
9.439920e-003
9.439920e-003
9.439920e-003
9.439920e-003
9.439920e-003
9.439920e-003
9.439920e-003
9.439920e-003
9.439913e-003
9.439916e-003
9.439920e-003
9.439922e-003
9.439922e-003
9.439921e-003
9.439920e-003
9.439920e-003
9.439921e-003
9.439923e-003
9.439925e-003
9.439927e-003
9.439931e-003
9.439935e-003
9.439941e-003
9.439947e-003
9.439952e-003
9.439954e-003
9.439948e-003
9.439928e-003
9.439881e-003
9.439794e-003
9.439648e-003
9.439419e-003
9.439080e-003
9.438601e-003
9.437949e-003
9.437095e-003
9.436013e-003
9.434688e-003
9.433112e-003
9.431289e-003
9.429239e-003
9.426991e-003
9.424587e-003
9.422077e-003
9.419516e-003
9.416965e-003
9.414483e-003
9.412128e-003
9.409956e-003
9.408017e-003
9.406355e-003
9.405010e-003
9.404012e-003
9.403389e-003
9.403156e-003
9.403323e-003
9.403893e-003
9.404858e-003
9.406201e-003
9.407896e-003
9.409905e-003
9.412182e-003
9.414669e-003
9.417301e-003
9.420008e-003
9.422715e-003
9.425349e-003
9.427844e-003
9.430143e-003
9.432200e-003
9.433986e-003
9.435491e-003
9.436718e-003
9.437686e-003
9.438422e-003
9.438961e-003
9.439341e-003
9.439595e-003
9.439757e-003
9.439855e-003
9.439908e-003
9.439933e-003
9.439942e-003
9.439943e-003
9.439939e-003
9.439935e-003
9.439931e-003
9.439927e-003
9.439925e-003
9.439923e-003
9.439922e-003
9.439921e-003
9.439920e-003
9.439920e-003
9.439920e-003
9.439920e-003
9.439921e-003
9.439920e-003
9.439920e-003
9.439919e-003
9.439920e-003
9.439920e-003
9.439921e-003
9.439920e-003
9.439920e-003
9.439920e-003
9.439920e-003
9.439920e-003
9.439915e-003
9.439917e-003
9.439920e-003
9.439922e-003
9.439922e-003
9.439920e-003
9.439919e-003
9.439920e-003
9.439923e-003
9.439926e-003
9.439929e-003
9.439932e-003
9.439936e-003
9.439942e-003
9.439949e-003
9.439955e-003
9.439955e-003
9.439943e-003
9.439908e-003
9.439834e-003
9.439698e-003
9.439466e-003
9.439099e-003
9.438548e-003
9.437754e-003
9.436657e-003
9.435195e-003
9.433314e-003
9.430973e-003
9.428150e-003
9.424846e-003
9.421089e-003
9.416931e-003
9.412447e-003
9.407734e-003
9.402896e-003
9.398046e-003
9.393294e-003
9.388748e-003
9.384505e-003
9.380651e-003
9.377260e-003
9.374393e-003
9.372103e-003
9.370427e-003
9.369397e-003
9.369033e-003
9.369346e-003
9.370341e-003
9.372011e-003
9.374337e-003
9.377290e-003
9.380822e-003
9.384872e-003
9.389356e-003
9.394177e-003
9.399217e-003
9.404345e-003
9.409426e-003
9.414324e-003
9.418917e-003
9.423099e-003
9.426794e-003
9.429959e-003
9.432584e-003
9.434688e-003
9.436317e-003
9.437534e-003
9.438408e-003
9.439011e-003
9.439409e-003
9.439658e-003
9.439806e-003
9.439886e-003
9.439925e-003
9.439941e-003
9.439944e-003
9.439941e-003
9.439936e-003
9.439931e-003
9.439928e-003
9.439925e-003
9.439924e-003
9.439922e-003
9.439921e-003
9.439920e-003
9.439920e-003
9.439920e-003
9.439920e-003
9.439920e-003
9.439920e-003
9.439920e-003
9.439920e-003
9.439920e-003
9.439920e-003
9.439920e-003
9.439920e-003
9.439920e-003
9.439920e-003
9.439920e-003
9.439919e-003
9.439920e-003
9.439921e-003
9.439921e-003
9.439921e-003
9.439920e-003
9.439920e-003
9.439922e-003
9.439925e-003
9.439929e-003
9.439933e-003
9.439938e-003
9.439944e-003
9.439951e-003
9.439957e-003
9.439955e-003
9.439936e-003
9.439885e-003
9.439778e-003
9.439579e-003
9.439239e-003
9.438689e-003
9.437847e-003
9.436613e-003
9.434873e-003
9.432515e-003
9.429430e-003
9.425533e-003
9.420773e-003
9.415146e-003
9.408701e-003
9.401540e-003
9.393813e-003
9.385706e-003
9.377427e-003
9.369188e-003
9.361193e-003
9.353622e-003
9.346627e-003
9.340327e-003
9.334807e-003
9.330121e-003
9.326297e-003
9.323349e-003
9.321274e-003
9.320067e-003
9.319723e-003
9.320240e-003
9.321622e-003
9.323878e-003
9.327022e-003
9.331064e-003
9.336004e-003
9.341824e-003
9.348473e-003
9.355864e-003
9.363864e-003
9.372295e-003
9.380937e-003
9.389545e-003
9.397867e-003
9.405664e-003
9.412738e-003
9.418942e-003
9.424201e-003
9.428503e-003
9.431899e-003
9.434481e-003
9.436372e-003
9.437704e-003
9.438603e-003
9.439185e-003
9.439543e-003
9.439750e-003
9.439862e-003
9.439917e-003
9.439939e-003
9.439944e-003
9.439941e-003
9.439936e-003
9.439932e-003
9.439928e-003
9.439926e-003
9.439924e-003
9.439922e-003
9.439921e-003
9.439920e-003
9.439920e-003
9.439920e-003
9.439920e-003
9.439920e-003
9.439920e-003
9.439920e-003
9.439920e-003
9.439920e-003
9.439920e-003
9.439920e-003
9.439920e-003
9.439920e-003
9.439920e-003
9.439924e-003
9.439923e-003
9.439921e-003
9.439920e-003
9.439920e-003
9.439921e-003
9.439923e-003
9.439925e-003
9.439928e-003
9.439933e-003
9.439939e-003
9.439946e-003
9.439953e-003
9.439958e-003
9.439954e-003
9.439929e-003
9.439862e-003
9.439719e-003
9.439449e-003
9.438979e-003
9.438207e-003
9.436997e-003
9.435187e-003
9.432585e-003
9.428991e-003
9.424212e-003
9.418090e-003
9.410537e-003
9.401554e-003
9.391261e-003
9.379891e-003
9.367783e-003
9.355350e-003
9.343040e-003
9.331291e-003
9.320488e-003
9.310935e-003
9.302832e-003
9.296269e-003
9.291231e-003
9.287612e-003
9.285236e-003
9.283881e-003
9.283309e-003
9.283287e-003
9.283617e-003
9.284150e-003
9.284806e-003
9.285583e-003
9.286558e-003
9.287890e-003
9.289801e-003
9.292556e-003
9.296434e-003
9.301681e-003
9.308473e-003
9.316875e-003
9.326813e-003
9.338063e-003
9.350257e-003
9.362927e-003
9.375545e-003
9.387597e-003
9.398639e-003
9.408346e-003
9.416537e-003
9.423172e-003
9.428336e-003
9.432196e-003
9.434968e-003
9.436880e-003
9.438143e-003
9.438942e-003
9.439422e-003
9.439695e-003
9.439840e-003
9.439909e-003
9.439937e-003
9.439944e-003
9.439942e-003
9.439936e-003
9.439932e-003
9.439928e-003
9.439925e-003
9.439923e-003
9.439922e-003
9.439921e-003
9.439920e-003
9.439920e-003
9.439920e-003
9.439920e-003
9.439920e-003
9.439920e-003
9.439920e-003
9.439920e-003
9.439920e-003
9.439920e-003
9.439920e-003
9.439920e-003
9.439920e-003
9.439926e-003
9.439923e-003
9.439920e-003
9.439919e-003
9.439920e-003
9.439923e-003
9.439926e-003
9.439929e-003
9.439933e-003
9.439938e-003
9.439946e-003
9.439955e-003
9.439960e-003
9.439954e-003
9.439923e-003
9.439841e-003
9.439664e-003
9.439322e-003
9.438713e-003
9.437689e-003
9.436051e-003
9.433544e-003
9.429866e-003
9.424686e-003
9.417686e-003
9.408609e-003
9.397332e-003
9.383935e-003
9.368751e-003
9.352389e-003
9.335706e-003
9.319733e-003
9.305563e-003
9.294224e-003
9.286558e-003
9.283121e-003
9.284135e-003
9.289466e-003
9.298643e-003
9.310913e-003
9.325299e-003
9.340686e-003
9.355901e-003
9.369800e-003
9.381341e-003
9.389658e-003
9.394113e-003
9.394347e-003
9.390313e-003
9.382299e-003
9.370930e-003
9.357141e-003
9.342129e-003
9.327256e-003
9.313938e-003
9.303499e-003
9.297023e-003
9.295225e-003
9.298354e-003
9.306157e-003
9.317914e-003
9.332543e-003
9.348771e-003
9.365310e-003
9.381042e-003
9.395128e-003
9.407074e-003
9.416708e-003
9.424119e-003
9.429571e-003
9.433410e-003
9.436000e-003
9.437673e-003
9.438705e-003
9.439311e-003
9.439648e-003
9.439822e-003
9.439903e-003
9.439936e-003
9.439944e-003
9.439941e-003
9.439936e-003
9.439931e-003
9.439927e-003
9.439925e-003
9.439923e-003
9.439922e-003
9.439921e-003
9.439920e-003
9.439920e-003
9.439920e-003
9.439920e-003
9.439920e-003
9.439920e-003
9.439920e-003
9.439920e-003
9.439920e-003
9.439920e-003
9.439920e-003
9.439920e-003
9.439925e-003
9.439922e-003
9.439919e-003
9.439919e-003
9.439921e-003
9.439926e-003
9.439930e-003
9.439934e-003
9.439938e-003
9.439946e-003
9.439955e-003
9.439961e-003
9.439956e-003
9.439921e-003
9.439828e-003
9.439622e-003
9.439216e-003
9.438474e-003
9.437194e-003
9.435098e-003
9.431814e-003
9.426892e-003
9.419825e-003
9.410120e-003
9.397404e-003
9.381576e-003
9.362974e-003
9.342527e-003
9.321835e-003
9.303135e-003
9.289132e-003
9.282700e-003
9.286523e-003
9.302734e-003
9.332620e-003
9.376446e-003
9.433404e-003
9.501675e-003
9.578578e-003
9.660772e-003
9.744480e-003
9.825721e-003
9.900546e-003
9.965240e-003
1.001652e-002
1.005167e-002
1.006871e-002
1.006651e-002
1.004483e-002
1.000448e-002
9.947281e-003
9.876083e-003
9.794646e-003
9.707455e-003
9.619421e-003
9.535505e-003
9.460276e-003
9.397474e-003
9.349620e-003
9.317762e-003
9.301404e-003
9.298663e-003
9.306633e-003
9.321891e-003
9.341029e-003
9.361118e-003
9.379981e-003
9.396289e-003
9.409471e-003
9.419526e-003
9.426809e-003
9.431838e-003
9.435156e-003
9.437247e-003
9.438506e-003
9.439226e-003
9.439616e-003
9.439812e-003
9.439901e-003
9.439935e-003
9.439944e-003
9.439941e-003
9.439936e-003
9.439930e-003
9.439927e-003
9.439925e-003