# vtk DataFile Version 3.0
vtk output
ASCII
DATASET STRUCTURED_POINTS
DIMENSIONS 100 100 1
SPACING 1 1 1
ORIGIN 0 0 0
POINT_DATA 10000
SCALARS SFBox_profile double
LOOKUP_TABLE default 
9.439930e-003
9.439927e-003
9.439921e-003
9.439917e-003
9.439916e-003
9.439918e-003
9.439920e-003
9.439922e-003
9.439922e-003
9.439920e-003
9.439919e-003
9.439920e-003
9.439921e-003
9.439921e-003
9.439920e-003
9.439919e-003
9.439918e-003
9.439919e-003
9.439921e-003
9.439921e-003
9.439920e-003
9.439920e-003
9.439920e-003
9.439921e-003
9.439921e-003
9.439921e-003
9.439920e-003
9.439920e-003
9.439920e-003
9.439920e-003
9.439920e-003
9.439920e-003
9.439920e-003
9.439920e-003
9.439921e-003
9.439921e-003
9.439921e-003
9.439921e-003
9.439922e-003
9.439923e-003
9.439923e-003
9.439923e-003
9.439923e-003
9.439924e-003
9.439924e-003
9.439924e-003
9.439924e-003
9.439924e-003
9.439924e-003
9.439924e-003
9.439924e-003
9.439924e-003
9.439923e-003
9.439923e-003
9.439923e-003
9.439923e-003
9.439923e-003
9.439922e-003
9.439922e-003
9.439922e-003
9.439921e-003
9.439921e-003
9.439921e-003
9.439921e-003
9.439921e-003
9.439920e-003
9.439920e-003
9.439920e-003
9.439921e-003
9.439920e-003
9.439920e-003
9.439920e-003
9.439920e-003
9.439920e-003
9.439920e-003
9.439920e-003
9.439920e-003
9.439920e-003
9.439920e-003
9.439920e-003
9.439920e-003
9.439920e-003
9.439919e-003
9.439920e-003
9.439920e-003
9.439920e-003
9.439920e-003
9.439920e-003
9.439920e-003
9.439921e-003
9.439920e-003
9.439920e-003
9.439919e-003
9.439919e-003
9.439920e-003
9.439921e-003
9.439921e-003
9.439921e-003
9.439920e-003
9.439919e-003
9.439930e-003
9.439927e-003
9.439921e-003
9.439917e-003
9.439916e-003
9.439918e-003
9.439920e-003
9.439922e-003
9.439922e-003
9.439920e-003
9.439919e-003
9.439920e-003
9.439921e-003
9.439921e-003
9.439920e-003
9.439919e-003
9.439918e-003
9.439919e-003
9.439921e-003
9.439921e-003
9.439920e-003
9.439920e-003
9.439920e-003
9.439921e-003
9.439921e-003
9.439921e-003
9.439920e-003
9.439920e-003
9.439920e-003
9.439920e-003
9.439920e-003
9.439920e-003
9.439920e-003
9.439920e-003
9.439921e-003
9.439921e-003
9.439921e-003
9.439921e-003
9.439922e-003
9.439923e-003
9.439923e-003
9.439923e-003
9.439923e-003
9.439924e-003
9.439924e-003
9.439924e-003
9.439924e-003
9.439924e-003
9.439924e-003
9.439924e-003
9.439924e-003
9.439924e-003
9.439923e-003
9.439923e-003
9.439923e-003
9.439923e-003
9.439923e-003
9.439922e-003
9.439922e-003
9.439922e-003
9.439921e-003
9.439921e-003
9.439921e-003
9.439921e-003
9.439921e-003
9.439920e-003
9.439920e-003
9.439920e-003
9.439921e-003
9.439920e-003
9.439920e-003
9.439920e-003
9.439920e-003
9.439920e-003
9.439920e-003
9.439920e-003
9.439920e-003
9.439920e-003
9.439920e-003
9.439920e-003
9.439920e-003
9.439920e-003
9.439919e-003
9.439920e-003
9.439920e-003
9.439920e-003
9.439920e-003
9.439920e-003
9.439920e-003
9.439921e-003
9.439920e-003
9.439920e-003
9.439919e-003
9.439919e-003
9.439920e-003
9.439921e-003
9.439921e-003
9.439921e-003
9.439920e-003
9.439919e-003
9.439921e-003
9.439920e-003
9.439920e-003
9.439920e-003
9.439920e-003
9.439920e-003
9.439920e-003
9.439920e-003
9.439920e-003
9.439919e-003
9.439919e-003
9.439920e-003
9.439920e-003
9.439921e-003
9.439920e-003
9.439920e-003
9.439920e-003
9.439920e-003
9.439920e-003
9.439920e-003
9.439920e-003
9.439919e-003
9.439919e-003
9.439920e-003
9.439920e-003
9.439920e-003
9.439920e-003
9.439920e-003
9.439920e-003
9.439921e-003
9.439921e-003
9.439921e-003
9.439921e-003
9.439921e-003
9.439922e-003
9.439922e-003
9.439922e-003
9.439921e-003
9.439922e-003
9.439922e-003
9.439922e-003
9.439922e-003
9.439922e-003
9.439922e-003
9.439922e-003
9.439922e-003
9.439922e-003
9.439922e-003
9.439923e-003
9.439923e-003
9.439923e-003
9.439923e-003
9.439923e-003
9.439923e-003
9.439923e-003
9.439923e-003
9.439922e-003
9.439922e-003
9.439922e-003
9.439922e-003
9.439922e-003
9.439922e-003
9.439922e-003
9.439922e-003
9.439921e-003
9.439921e-003
9.439921e-003
9.439921e-003
9.439921e-003
9.439920e-003
9.439920e-003
9.439920e-003
9.439920e-003
9.439920e-003
9.439920e-003
9.439920e-003
9.439920e-003
9.439920e-003
9.439920e-003
9.439920e-003
9.439920e-003
9.439920e-003
9.439920e-003
9.439920e-003
9.439920e-003
9.439920e-003
9.439920e-003
9.439920e-003
9.439920e-003
9.439920e-003
9.439920e-003
9.439920e-003
9.439920e-003
9.439920e-003
9.439920e-003
9.439920e-003
9.439920e-003
9.439920e-003
9.439920e-003
9.439920e-003
9.439910e-003
9.439914e-003
9.439919e-003
9.439922e-003
9.439924e-003
9.439922e-003
9.439920e-003
9.439919e-003
9.439919e-003
9.439919e-003
9.439920e-003
9.439920e-003
9.439920e-003
9.439920e-003
9.439921e-003
9.439921e-003
9.439921e-003
9.439920e-003
9.439920e-003
9.439920e-003
9.439920e-003
9.439920e-003
9.439920e-003
9.439920e-003
9.439920e-003
9.439920e-003
9.439920e-003
9.439921e-003
9.439921e-003
9.439921e-003
9.439922e-003
9.439922e-003
9.439923e-003
9.439923e-003
9.439923e-003
9.439923e-003
9.439923e-003
9.439923e-003
9.439923e-003
9.439923e-003
9.439924e-003
9.439924e-003
9.439924e-003
9.439924e-003
9.439924e-003
9.439924e-003
9.439924e-003
9.439925e-003
9.439925e-003
9.439925e-003
9.439925e-003
9.439925e-003
9.439925e-003
9.439925e-003
9.439925e-003
9.439925e-003
9.439925e-003
9.439924e-003
9.439924e-003
9.439924e-003
9.439924e-003
9.439924e-003
9.439923e-003
9.439923e-003
9.439923e-003
9.439922e-003
9.439922e-003
9.439921e-003
9.439921e-003
9.439921e-003
9.439920e-003
9.439920e-003
9.439920e-003
9.439920e-003
9.439920e-003
9.439920e-003
9.439920e-003
9.439920e-003
9.439920e-003
9.439920e-003
9.439920e-003
9.439920e-003
9.439920e-003
9.439920e-003
9.439920e-003
9.439920e-003
9.439920e-003
9.439920e-003
9.439920e-003
9.439920e-003
9.439920e-003
9.439920e-003
9.439921e-003
9.439921e-003
9.439920e-003
9.439919e-003
9.439919e-003
9.439919e-003
9.439920e-003
9.439921e-003
9.439910e-003
9.439914e-003
9.439919e-003
9.439923e-003
9.439924e-003
9.439922e-003
9.439919e-003
9.439918e-003
9.439919e-003
9.439920e-003
9.439921e-003
9.439921e-003
9.439919e-003
9.439919e-003
9.439920e-003
9.439921e-003
9.439921e-003
9.439920e-003
9.439919e-003
9.439919e-003
9.439920e-003
9.439921e-003
9.439921e-003
9.439920e-003
9.439920e-003
9.439921e-003
9.439921e-003
9.439922e-003
9.439922e-003
9.439922e-003
9.439923e-003
9.439924e-003
9.439925e-003
9.439925e-003
9.439925e-003
9.439926e-003
9.439927e-003
9.439928e-003
9.439928e-003
9.439929e-003
9.439930e-003
9.439930e-003
9.439931e-003
9.439931e-003
9.439932e-003
9.439932e-003
9.439932e-003
9.439932e-003
9.439933e-003
9.439933e-003
9.439932e-003
9.439932e-003
9.439932e-003
9.439932e-003
9.439931e-003
9.439931e-003
9.439930e-003
9.439930e-003
9.439929e-003
9.439928e-003
9.439928e-003
9.439927e-003
9.439926e-003
9.439925e-003
9.439925e-003
9.439924e-003
9.439924e-003
9.439923e-003
9.439922e-003
9.439922e-003
9.439922e-003
9.439921e-003
9.439921e-003
9.439921e-003
9.439920e-003
9.439920e-003
9.439920e-003
9.439920e-003
9.439920e-003
9.439920e-003
9.439920e-003
9.439920e-003
9.439920e-003
9.439920e-003
9.439920e-003
9.439920e-003
9.439920e-003
9.439920e-003
9.439920e-003
9.439920e-003
9.439920e-003
9.439920e-003
9.439921e-003
9.439921e-003
9.439920e-003
9.439919e-003
9.439919e-003
9.439919e-003
9.439920e-003
9.439921e-003
9.439919e-003
9.439919e-003
9.439921e-003
9.439921e-003
9.439921e-003
9.439920e-003
9.439918e-003
9.439919e-003
9.439920e-003
9.439922e-003
9.439922e-003
9.439921e-003
9.439919e-003
9.439919e-003
9.439919e-003
9.439920e-003
9.439920e-003
9.439920e-003
9.439919e-003
9.439920e-003
9.439921e-003
9.439922e-003
9.439922e-003
9.439922e-003
9.439921e-003
9.439922e-003
9.439923e-003
9.439924e-003
9.439924e-003
9.439924e-003
9.439925e-003
9.439926e-003
9.439928e-003
9.439929e-003
9.439929e-003
9.439931e-003
9.439932e-003
9.439934e-003
9.439935e-003
9.439936e-003
9.439937e-003
9.439939e-003
9.439940e-003
9.439940e-003
9.439941e-003
9.439941e-003
9.439941e-003
9.439942e-003
9.439942e-003
9.439941e-003
9.439941e-003
9.439941e-003
9.439940e-003
9.439940e-003
9.439939e-003
9.439938e-003
9.439938e-003
9.439937e-003
9.439935e-003
9.439934e-003
9.439933e-003
9.439932e-003
9.439931e-003
9.439929e-003
9.439928e-003
9.439927e-003
9.439926e-003
9.439925e-003
9.439925e-003
9.439924e-003
9.439923e-003
9.439923e-003
9.439922e-003
9.439921e-003
9.439921e-003
9.439921e-003
9.439921e-003
9.439921e-003
9.439920e-003
9.439920e-003
9.439920e-003
9.439920e-003
9.439920e-003
9.439920e-003
9.439919e-003
9.439920e-003
9.439920e-003
9.439921e-003
9.439921e-003
9.439920e-003
9.439920e-003
9.439920e-003
9.439920e-003
9.439920e-003
9.439920e-003
9.439920e-003
9.439920e-003
9.439920e-003
9.439920e-003
9.439920e-003
9.439928e-003
9.439925e-003
9.439921e-003
9.439918e-003
9.439917e-003
9.439918e-003
9.439919e-003
9.439920e-003
9.439921e-003
9.439921e-003
9.439921e-003
9.439921e-003
9.439920e-003
9.439919e-003
9.439919e-003
9.439920e-003
9.439920e-003
9.439920e-003
9.439920e-003
9.439920e-003
9.439921e-003
9.439922e-003
9.439922e-003
9.439922e-003
9.439923e-003
9.439924e-003
9.439926e-003
9.439927e-003
9.439928e-003
9.439929e-003
9.439930e-003
9.439932e-003
9.439934e-003
9.439935e-003
9.439936e-003
9.439938e-003
9.439940e-003
9.439941e-003
9.439942e-003
9.439943e-003
9.439944e-003
9.439945e-003
9.439946e-003
9.439946e-003
9.439946e-003
9.439946e-003
9.439946e-003
9.439946e-003
9.439946e-003
9.439946e-003
9.439946e-003
9.439946e-003
9.439945e-003
9.439945e-003
9.439945e-003
9.439944e-003
9.439944e-003
9.439943e-003
9.439942e-003
9.439941e-003
9.439940e-003
9.439939e-003
9.439937e-003
9.439936e-003
9.439934e-003
9.439933e-003
9.439931e-003
9.439930e-003
9.439928e-003
9.439927e-003
9.439926e-003
9.439925e-003
9.439924e-003
9.439923e-003
9.439922e-003
9.439921e-003
9.439921e-003
9.439921e-003
9.439921e-003
9.439920e-003
9.439920e-003
9.439920e-003
9.439920e-003
9.439920e-003
9.439919e-003
9.439920e-003
9.439920e-003
9.439921e-003
9.439921e-003
9.439920e-003
9.439920e-003
9.439920e-003
9.439919e-003
9.439920e-003
9.439920e-003
9.439920e-003
9.439921e-003
9.439920e-003
9.439920e-003
9.439919e-003
9.439930e-003
9.439926e-003
9.439920e-003
9.439917e-003
9.439917e-003
9.439919e-003
9.439922e-003
9.439922e-003
9.439921e-003
9.439919e-003
9.439919e-003
9.439919e-003
9.439921e-003
9.439921e-003
9.439920e-003
9.439920e-003
9.439920e-003
9.439921e-003
9.439921e-003
9.439922e-003
9.439922e-003
9.439922e-003
9.439923e-003
9.439924e-003
9.439926e-003
9.439927e-003
9.439929e-003
9.439932e-003
9.439933e-003
9.439935e-003
9.439938e-003
9.439940e-003
9.439942e-003
9.439944e-003
9.439944e-003
9.439945e-003
9.439946e-003
9.439947e-003
9.439946e-003
9.439945e-003
9.439945e-003
9.439944e-003
9.439943e-003
9.439942e-003
9.439941e-003
9.439940e-003
9.439940e-003
9.439939e-003
9.439938e-003
9.439938e-003
9.439938e-003
9.439938e-003
9.439938e-003
9.439939e-003
9.439939e-003
9.439940e-003
9.439941e-003
9.439942e-003
9.439943e-003
9.439943e-003
9.439944e-003
9.439944e-003
9.439943e-003
9.439942e-003
9.439941e-003
9.439940e-003
9.439938e-003
9.439936e-003
9.439934e-003
9.439932e-003
9.439930e-003
9.439928e-003
9.439926e-003
9.439925e-003
9.439923e-003
9.439923e-003
9.439922e-003
9.439921e-003
9.439921e-003
9.439921e-003
9.439921e-003
9.439920e-003
9.439920e-003
9.439920e-003
9.439920e-003
9.439920e-003
9.439920e-003
9.439920e-003
9.439920e-003
9.439920e-003
9.439920e-003
9.439920e-003
9.439920e-003
9.439919e-003
9.439920e-003
9.439920e-003
9.439921e-003
9.439921e-003
9.439920e-003
9.439919e-003
9.439923e-003
9.439921e-003
9.439919e-003
9.439918e-003
9.439919e-003
9.439921e-003
9.439923e-003
9.439922e-003
9.439920e-003
9.439918e-003
9.439917e-003
9.439919e-003
9.439921e-003
9.439922e-003
9.439921e-003
9.439920e-003
9.439921e-003
9.439922e-003
9.439923e-003
9.439923e-003
9.439923e-003
9.439924e-003
9.439926e-003
9.439929e-003
9.439931e-003
9.439933e-003
9.439936e-003
9.439938e-003
9.439941e-003
9.439944e-003
9.439946e-003
9.439947e-003
9.439948e-003
9.439947e-003
9.439946e-003
9.439944e-003
9.439941e-003
9.439937e-003
9.439933e-003
9.439927e-003
9.439922e-003
9.439917e-003
9.439911e-003
9.439906e-003
9.439900e-003
9.439896e-003
9.439892e-003
9.439889e-003
9.439887e-003
9.439885e-003
9.439885e-003
9.439886e-003
9.439888e-003
9.439891e-003
9.439895e-003
9.439900e-003
9.439905e-003
9.439911e-003
9.439917e-003
9.439923e-003
9.439928e-003
9.439933e-003
9.439937e-003
9.439940e-003
9.439942e-003
9.439943e-003
9.439943e-003
9.439942e-003
9.439940e-003
9.439938e-003
9.439936e-003
9.439933e-003
9.439931e-003
9.439929e-003
9.439927e-003
9.439925e-003
9.439924e-003
9.439923e-003
9.439922e-003
9.439921e-003
9.439921e-003
9.439921e-003
9.439921e-003
9.439921e-003
9.439921e-003
9.439920e-003
9.439920e-003
9.439919e-003
9.439919e-003
9.439920e-003
9.439921e-003
9.439921e-003
9.439920e-003
9.439920e-003
9.439920e-003
9.439920e-003
9.439920e-003
9.439920e-003
9.439920e-003
9.439920e-003
9.439915e-003
9.439916e-003
9.439919e-003
9.439920e-003
9.439921e-003
9.439922e-003
9.439921e-003
9.439921e-003
9.439919e-003
9.439918e-003
9.439919e-003
9.439920e-003
9.439921e-003
9.439922e-003
9.439921e-003
9.439920e-003
9.439921e-003
9.439922e-003
9.439924e-003
9.439926e-003
9.439927e-003
9.439929e-003
9.439932e-003
9.439936e-003
9.439939e-003
9.439941e-003
9.439943e-003
9.439946e-003
9.439947e-003
9.439948e-003
9.439946e-003
9.439942e-003
9.439936e-003
9.439928e-003
9.439917e-003
9.439904e-003
9.439889e-003
9.439872e-003
9.439854e-003
9.439835e-003
9.439815e-003
9.439796e-003
9.439776e-003
9.439758e-003
9.439741e-003
9.439726e-003
9.439713e-003
9.439703e-003
9.439696e-003
9.439692e-003
9.439692e-003
9.439696e-003
9.439703e-003
9.439713e-003
9.439727e-003
9.439743e-003
9.439762e-003
9.439783e-003
9.439804e-003
9.439826e-003
9.439847e-003
9.439868e-003
9.439886e-003
9.439902e-003
9.439916e-003
9.439926e-003
9.439934e-003
9.439939e-003
9.439942e-003
9.439942e-003
9.439942e-003
9.439940e-003
9.439937e-003
9.439935e-003
9.439932e-003
9.439929e-003
9.439927e-003
9.439925e-003
9.439924e-003
9.439923e-003
9.439922e-003
9.439921e-003
9.439920e-003
9.439921e-003
9.439921e-003
9.439921e-003
9.439920e-003
9.439919e-003
9.439919e-003
9.439920e-003
9.439920e-003
9.439921e-003
9.439921e-003
9.439920e-003
9.439920e-003
9.439919e-003
9.439920e-003
9.439920e-003
9.439920e-003
9.439920e-003
9.439912e-003
9.439916e-003
9.439920e-003
9.439923e-003
9.439922e-003
9.439920e-003
9.439918e-003
9.439919e-003
9.439920e-003
9.439921e-003
9.439921e-003
9.439921e-003
9.439921e-003
9.439921e-003
9.439921e-003
9.439921e-003
9.439922e-003
9.439924e-003
9.439927e-003
9.439930e-003
9.439932e-003
9.439936e-003
9.439940e-003
9.439944e-003
9.439947e-003
9.439948e-003
9.439948e-003
9.439946e-003
9.439940e-003
9.439931e-003
9.439915e-003
9.439894e-003
9.439867e-003
9.439834e-003
9.439796e-003
9.439751e-003
9.439702e-003
9.439648e-003
9.439592e-003
9.439534e-003
9.439475e-003
9.439417e-003
9.439361e-003
9.439309e-003
9.439261e-003
9.439220e-003
9.439185e-003
9.439158e-003
9.439139e-003
9.439130e-003
9.439131e-003
9.439142e-003
9.439162e-003
9.439192e-003
9.439232e-003
9.439279e-003
9.439333e-003
9.439393e-003
9.439456e-003
9.439521e-003
9.439586e-003
9.439648e-003
9.439707e-003
9.439761e-003
9.439807e-003
9.439847e-003
9.439879e-003
9.439903e-003
9.439921e-003
9.439933e-003
9.439940e-003
9.439942e-003
9.439942e-003
9.439941e-003
9.439938e-003
9.439935e-003
9.439932e-003
9.439929e-003
9.439927e-003
9.439925e-003
9.439923e-003
9.439922e-003
9.439921e-003
9.439920e-003
9.439921e-003
9.439921e-003
9.439920e-003
9.439920e-003
9.439920e-003
9.439920e-003
9.439920e-003
9.439920e-003
9.439920e-003
9.439920e-003
9.439920e-003
9.439920e-003
9.439919e-003
9.439920e-003
9.439920e-003
9.439921e-003
9.439915e-003
9.439918e-003
9.439922e-003
9.439924e-003
9.439921e-003
9.439918e-003
9.439916e-003
9.439918e-003
9.439921e-003
9.439923e-003
9.439923e-003
9.439921e-003
9.439920e-003
9.439921e-003
9.439922e-003
9.439924e-003
9.439926e-003
9.439928e-003
9.439932e-003
9.439936e-003
9.439940e-003
9.439944e-003
9.439947e-003
9.439950e-003
9.439949e-003
9.439944e-003
9.439933e-003
9.439915e-003
9.439887e-003
9.439847e-003
9.439793e-003
9.439724e-003
9.439641e-003
9.439543e-003
9.439430e-003
9.439304e-003
9.439167e-003
9.439021e-003
9.438870e-003
9.438716e-003
9.438563e-003
9.438413e-003
9.438270e-003
9.438138e-003
9.438018e-003
9.437914e-003
9.437828e-003
9.437761e-003
9.437717e-003
9.437696e-003
9.437699e-003
9.437727e-003
9.437780e-003
9.437857e-003
9.437956e-003
9.438077e-003
9.438216e-003
9.438370e-003
9.438534e-003
9.438704e-003
9.438875e-003
9.439043e-003
9.439203e-003
9.439350e-003
9.439483e-003
9.439598e-003
9.439694e-003
9.439772e-003
9.439832e-003
9.439877e-003
9.439907e-003
9.439926e-003
9.439937e-003
9.439942e-003
9.439943e-003
9.439941e-003
9.439938e-003
9.439934e-003
9.439931e-003
9.439928e-003
9.439926e-003
9.439924e-003
9.439922e-003
9.439921e-003
9.439921e-003
9.439921e-003
9.439921e-003
9.439921e-003
9.439921e-003
9.439920e-003
9.439920e-003
9.439919e-003
9.439920e-003
9.439920e-003
9.439921e-003
9.439920e-003
9.439920e-003
9.439920e-003
9.439920e-003
9.439920e-003
9.439920e-003
9.439921e-003
9.439922e-003
9.439922e-003
9.439920e-003
9.439918e-003
9.439918e-003
9.439919e-003
9.439921e-003
9.439923e-003
9.439922e-003
9.439921e-003
9.439920e-003
9.439922e-003
9.439926e-003
9.439929e-003
9.439932e-003
9.439935e-003
9.439939e-003
9.439943e-003
9.439948e-003
9.439950e-003
9.439949e-003
9.439943e-003
9.439928e-003
9.439900e-003
9.439857e-003
9.439792e-003
9.439702e-003
9.439582e-003
9.439429e-003
9.439242e-003
9.439019e-003
9.438762e-003
9.438473e-003
9.438155e-003
9.437813e-003
9.437455e-003
9.437088e-003
9.436717e-003
9.436351e-003
9.435996e-003
9.435661e-003
9.435351e-003
9.435073e-003
9.434832e-003
9.434633e-003
9.434481e-003
9.434380e-003
9.434333e-003
9.434341e-003
9.434407e-003
9.434530e-003
9.434710e-003
9.434944e-003
9.435227e-003
9.435554e-003
9.435917e-003
9.436308e-003
9.436716e-003
9.437130e-003
9.437539e-003
9.437932e-003
9.438301e-003
9.438636e-003
9.438932e-003
9.439186e-003
9.439396e-003
9.439564e-003
9.439693e-003
9.439788e-003
9.439854e-003
9.439897e-003
9.439923e-003
9.439937e-003
9.439942e-003
9.439942e-003
9.439940e-003
9.439936e-003
9.439933e-003
9.439930e-003
9.439927e-003
9.439925e-003
9.439923e-003
9.439921e-003
9.439921e-003
9.439921e-003
9.439921e-003
9.439921e-003
9.439920e-003
9.439920e-003
9.439919e-003
9.439919e-003
9.439920e-003
9.439921e-003
9.439921e-003
9.439920e-003
9.439920e-003
9.439920e-003
9.439920e-003
9.439923e-003
9.439921e-003
9.439919e-003
9.439918e-003
9.439919e-003
9.439920e-003
9.439921e-003
9.439921e-003
9.439921e-003
9.439921e-003
9.439921e-003
9.439921e-003
9.439922e-003
9.439925e-003
9.439930e-003
9.439934e-003
9.439938e-003
9.439942e-003
9.439947e-003
9.439951e-003
9.439952e-003
9.439946e-003
9.439929e-003
9.439895e-003
9.439838e-003
9.439750e-003
9.439619e-003
9.439437e-003
9.439193e-003
9.438882e-003
9.438495e-003
9.438031e-003
9.437489e-003
9.436872e-003
9.436187e-003
9.435445e-003
9.434657e-003
9.433839e-003
9.433007e-003
9.432175e-003
9.431359e-003
9.430576e-003
9.429839e-003
9.429162e-003
9.428557e-003
9.428035e-003
9.427607e-003
9.427281e-003
9.427065e-003
9.426965e-003
9.426985e-003
9.427130e-003
9.427399e-003
9.427791e-003
9.428300e-003
9.428919e-003
9.429637e-003
9.430438e-003
9.431304e-003
9.432215e-003
9.433146e-003
9.434075e-003
9.434978e-003
9.435832e-003
9.436618e-003
9.437322e-003
9.437934e-003
9.438450e-003
9.438870e-003
9.439202e-003
9.439454e-003
9.439637e-003
9.439764e-003
9.439847e-003
9.439898e-003
9.439926e-003
9.439939e-003
9.439943e-003
9.439942e-003
9.439938e-003
9.439935e-003
9.439931e-003
9.439928e-003
9.439925e-003
9.439923e-003
9.439921e-003
9.439921e-003
9.439921e-003
9.439921e-003
9.439921e-003
9.439920e-003
9.439920e-003
9.439920e-003
9.439920e-003
9.439920e-003
9.439920e-003
9.439920e-003
9.439920e-003
9.439920e-003
9.439920e-003
9.439925e-003
9.439921e-003
9.439917e-003
9.439916e-003
9.439919e-003
9.439923e-003
9.439924e-003
9.439922e-003
9.439920e-003
9.439920e-003
9.439921e-003
9.439924e-003
9.439927e-003
9.439930e-003
9.439935e-003
9.439940e-003
9.439945e-003
9.439950e-003
9.439952e-003
9.439950e-003
9.439937e-003
9.439904e-003
9.439842e-003
9.439737e-003
9.439574e-003
9.439335e-003
9.438997e-003
9.438541e-003
9.437949e-003
9.437206e-003
9.436302e-003
9.435232e-003
9.434001e-003
9.432619e-003
9.431105e-003
9.429483e-003
9.427781e-003
9.426032e-003
9.424268e-003
9.422522e-003
9.420825e-003
9.419208e-003
9.417698e-003
9.416320e-003
9.415096e-003
9.414046e-003
9.413189e-003
9.412540e-003
9.412113e-003
9.411919e-003
9.411967e-003
9.412262e-003
9.412807e-003
9.413600e-003
9.414632e-003
9.415891e-003
9.417356e-003
9.419001e-003
9.420793e-003
9.422691e-003
9.424650e-003
9.426622e-003
9.428558e-003
9.430410e-003
9.432135e-003
9.433700e-003
9.435078e-003
9.436257e-003
9.437234e-003
9.438018e-003
9.438625e-003
9.439078e-003
9.439403e-003
9.439626e-003
9.439770e-003
9.439859e-003
9.439909e-003
9.439933e-003
9.439942e-003
9.439943e-003
9.439940e-003
9.439936e-003
9.439932e-003
9.439929e-003
9.439926e-003
9.439923e-003
9.439921e-003
9.439921e-003
9.439920e-003
9.439921e-003
9.439921e-003
9.439921e-003
9.439920e-003
9.439920e-003
9.439920e-003
9.439920e-003
9.439920e-003
9.439920e-003
9.439920e-003
9.439920e-003
9.439926e-003
9.439922e-003
9.439917e-003
9.439917e-003
9.439919e-003
9.439923e-003
9.439924e-003
9.439922e-003
9.439920e-003
9.439921e-003
9.439924e-003
9.439929e-003
9.439933e-003
9.439936e-003
9.439941e-003
9.439947e-003
9.439952e-003
9.439954e-003
9.439946e-003
9.439920e-003
9.439865e-003
9.439762e-003
9.439588e-003
9.439314e-003
9.438906e-003
9.438324e-003
9.437528e-003
9.436476e-003
9.435136e-003
9.433481e-003
9.431498e-003
9.429188e-003
9.426567e-003
9.423667e-003
9.420535e-003
9.417226e-003
9.413802e-003
9.410328e-003
9.406870e-003
9.403489e-003
9.400243e-003
9.397185e-003
9.394359e-003
9.391806e-003
9.389561e-003
9.387652e-003
9.386107e-003
9.384948e-003
9.384195e-003
9.383864e-003
9.383968e-003
9.384519e-003
9.385521e-003
9.386975e-003
9.388871e-003
9.391194e-003
9.393916e-003
9.396999e-003
9.400388e-003
9.404020e-003
9.407815e-003
9.411687e-003
9.415539e-003
9.419279e-003
9.422815e-003
9.426068e-003
9.428979e-003
9.431506e-003
9.433633e-003
9.435368e-003
9.436734e-003
9.437774e-003
9.438536e-003
9.439072e-003
9.439433e-003
9.439665e-003
9.439806e-003
9.439884e-003
9.439924e-003
9.439940e-003
9.439943e-003
9.439941e-003
9.439937e-003
9.439933e-003
9.439929e-003
9.439926e-003
9.439924e-003
9.439922e-003
9.439921e-003
9.439921e-003
9.439921e-003
9.439921e-003
9.439921e-003
9.439920e-003
9.439919e-003
9.439919e-003
9.439920e-003
9.439920e-003
9.439920e-003
9.439920e-003
9.439925e-003
9.439922e-003
9.439920e-003
9.439919e-003
9.439920e-003
9.439921e-003
9.439922e-003
9.439921e-003
9.439921e-003
9.439924e-003
9.439929e-003
9.439934e-003
9.439939e-003
9.439944e-003
9.439949e-003
9.439954e-003
9.439954e-003
9.439940e-003
9.439900e-003
9.439814e-003
9.439656e-003
9.439388e-003
9.438960e-003
9.438312e-003
9.437372e-003
9.436062e-003
9.434305e-003
9.432029e-003
9.429176e-003
9.425713e-003
9.421634e-003
9.416967e-003
9.411769e-003
9.406131e-003
9.400162e-003
9.393984e-003
9.387727e-003
9.381515e-003
9.375464e-003
9.369675e-003
9.364236e-003
9.359218e-003
9.354676e-003
9.350654e-003
9.347185e-003
9.344293e-003
9.341997e-003
9.340313e-003
9.339252e-003
9.338828e-003
9.339053e-003
9.339939e-003
9.341500e-003
9.343746e-003
9.346683e-003
9.350309e-003
9.354612e-003
9.359563e-003
9.365110e-003
9.371177e-003
9.377662e-003
9.384433e-003
9.391334e-003
9.398194e-003
9.404834e-003
9.411083e-003
9.416794e-003
9.421856e-003
9.426200e-003
9.429806e-003
9.432699e-003
9.434939e-003
9.436612e-003
9.437813e-003
9.438642e-003
9.439190e-003
9.439536e-003
9.439741e-003
9.439855e-003
9.439913e-003
9.439937e-003
9.439943e-003
9.439942e-003
9.439938e-003
9.439933e-003
9.439929e-003
9.439926e-003
9.439924e-003
9.439922e-003
9.439921e-003
9.439921e-003
9.439921e-003
9.439921e-003
9.439920e-003
9.439920e-003
9.439920e-003
9.439920e-003
9.439920e-003
9.439920e-003
9.439920e-003
9.439920e-003
9.439921e-003
9.439922e-003
9.439922e-003
9.439921e-003
9.439920e-003
9.439920e-003
9.439922e-003
9.439925e-003
9.439928e-003
9.439933e-003
9.439939e-003
9.439946e-003
9.439951e-003
9.439956e-003
9.439953e-003
9.439933e-003
9.439877e-003
9.439757e-003
9.439532e-003
9.439146e-003
9.438520e-003
9.437553e-003
9.436123e-003
9.434093e-003
9.431321e-003
9.427670e-003
9.423029e-003
9.417330e-003
9.410562e-003
9.402785e-003
9.394124e-003
9.384768e-003
9.374953e-003
9.364939e-003
9.354986e-003
9.345337e-003
9.336201e-003
9.327742e-003
9.320078e-003
9.313279e-003
9.307377e-003
9.302369e-003
9.298229e-003
9.294912e-003
9.292363e-003
9.290519e-003
9.289320e-003
9.288715e-003
9.288664e-003
9.289145e-003
9.290158e-003
9.291727e-003
9.293900e-003
9.296748e-003
9.300359e-003
9.304826e-003
9.310238e-003
9.316666e-003
9.324137e-003
9.332627e-003
9.342037e-003
9.352189e-003
9.362829e-003
9.373640e-003
9.384273e-003
9.394379e-003
9.403652e-003
9.411856e-003
9.418853e-003
9.424600e-003
9.429146e-003
9.432607e-003
9.435142e-003
9.436926e-003
9.438131e-003
9.438911e-003
9.439391e-003
9.439672e-003
9.439825e-003
9.439901e-003
9.439934e-003
9.439943e-003
9.439942e-003
9.439938e-003
9.439934e-003
9.439930e-003
9.439926e-003
9.439923e-003
9.439921e-003
9.439921e-003
9.439920e-003
9.439920e-003
9.439920e-003
9.439920e-003
9.439920e-003
9.439920e-003
9.439920e-003
9.439920e-003
9.439920e-003
9.439913e-003
9.439918e-003
9.439922e-003
9.439924e-003
9.439922e-003
9.439920e-003
9.439921e-003
9.439925e-003
9.439930e-003
9.439934e-003
9.439939e-003
9.439945e-003
9.439953e-003
9.439958e-003
9.439953e-003
9.439926e-003
9.439854e-003
9.439698e-003
9.439402e-003
9.438882e-003
9.438020e-003
9.436661e-003
9.434609e-003
9.431637e-003
9.427501e-003
9.421966e-003
9.414837e-003
9.406005e-003
9.395484e-003
9.383434e-003
9.370178e-003
9.356177e-003
9.341993e-003
9.328235e-003
9.315492e-003
9.304276e-003
9.294975e-003
9.287832e-003
9.282937e-003
9.280235e-003
9.279555e-003
9.280631e-003
9.283137e-003
9.286705e-003
9.290948e-003
9.295476e-003
9.299909e-003
9.303894e-003
9.307120e-003
9.309337e-003
9.310372e-003
9.310148e-003
9.308694e-003
9.306164e-003
9.302832e-003
9.299092e-003
9.295443e-003
9.292458e-003
9.290743e-003
9.290876e-003
9.293341e-003
9.298458e-003
9.306318e-003
9.316750e-003
9.329319e-003
9.343373e-003
9.358125e-003
9.372755e-003
9.386525e-003
9.398861e-003
9.409405e-003
9.418017e-003
9.424752e-003
9.429798e-003
9.433425e-003
9.435924e-003
9.437576e-003
9.438619e-003
9.439248e-003
9.439607e-003
9.439799e-003
9.439892e-003
9.439931e-003
9.439943e-003
9.439942e-003
9.439938e-003
9.439933e-003
9.439929e-003
9.439926e-003
9.439923e-003
9.439921e-003
9.439921e-003
9.439920e-003
9.439920e-003
9.439920e-003
9.439920e-003
9.439920e-003
9.439920e-003
9.439920e-003
9.439920e-003
9.439910e-003
9.439916e-003
9.439922e-003
9.439924e-003
9.439922e-003
9.439921e-003
9.439924e-003
9.439929e-003
9.439935e-003
9.439940e-003
9.439945e-003
9.439953e-003
9.439959e-003
9.439954e-003
9.439922e-003
9.439835e-003
9.439646e-003
9.439280e-003
9.438621e-003
9.437504e-003
9.435701e-003
9.432918e-003
9.428803e-003
9.422965e-003
9.415024e-003
9.404680e-003
9.391805e-003
9.376532e-003
9.359344e-003
9.341102e-003
9.323019e-003
9.306562e-003
9.293297e-003
9.284706e-003
9.282018e-003
9.286068e-003
9.297219e-003
9.315349e-003
9.339886e-003
9.369893e-003
9.404162e-003
9.441318e-003
9.479900e-003
9.518425e-003
9.555432e-003
9.589511e-003
9.619331e-003
9.643667e-003
9.661442e-003
9.671767e-003
9.673988e-003
9.667747e-003
9.653027e-003
9.630200e-003
9.600066e-003
9.563860e-003
9.523248e-003
9.480270e-003
9.437246e-003
9.396624e-003
9.360776e-003
9.331758e-003
9.311068e-003
9.299446e-003
9.296772e-003
9.302090e-003
9.313762e-003
9.329737e-003
9.347874e-003
9.366239e-003
9.383327e-003
9.398167e-003
9.410308e-003
9.419726e-003
9.426682e-003
9.431588e-003
9.434897e-003
9.437033e-003
9.438350e-003
9.439124e-003
9.439555e-003
9.439780e-003
9.439886e-003
9.439930e-003
9.439943e-003
9.439942e-003