# vtk DataFile Version 3.0
vtk output
ASCII
DATASET STRUCTURED_POINTS
DIMENSIONS 100 100 1
SPACING 1 1 1
ORIGIN 0 0 0
POINT_DATA 10000
SCALARS SFBox_profile double
LOOKUP_TABLE default 
0.000000e+000
0.000000e+000
0.000000e+000
0.000000e+000
0.000000e+000
0.000000e+000
0.000000e+000
0.000000e+000
0.000000e+000
0.000000e+000
0.000000e+000
0.000000e+000
0.000000e+000
0.000000e+000
0.000000e+000
0.000000e+000
0.000000e+000
0.000000e+000
0.000000e+000
0.000000e+000
0.000000e+000
0.000000e+000
0.000000e+000
0.000000e+000
0.000000e+000
0.000000e+000
0.000000e+000
0.000000e+000
0.000000e+000
0.000000e+000
0.000000e+000
0.000000e+000
0.000000e+000
0.000000e+000
0.000000e+000
0.000000e+000
0.000000e+000
0.000000e+000
0.000000e+000
0.000000e+000
0.000000e+000
0.000000e+000
0.000000e+000
0.000000e+000
0.000000e+000
0.000000e+000
0.000000e+000
0.000000e+000
0.000000e+000
0.000000e+000
0.000000e+000
0.000000e+000
0.000000e+000
0.000000e+000
0.000000e+000
0.000000e+000
0.000000e+000
0.000000e+000
0.000000e+000
0.000000e+000
0.000000e+000
0.000000e+000
0.000000e+000
0.000000e+000
0.000000e+000
0.000000e+000
0.000000e+000
0.000000e+000
0.000000e+000
0.000000e+000
0.000000e+000
0.000000e+000
0.000000e+000
0.000000e+000
0.000000e+000
0.000000e+000
0.000000e+000
0.000000e+000
0.000000e+000
0.000000e+000
0.000000e+000
0.000000e+000
0.000000e+000
0.000000e+000
0.000000e+000
0.000000e+000
0.000000e+000
0.000000e+000
0.000000e+000
0.000000e+000
0.000000e+000
0.000000e+000
0.000000e+000
0.000000e+000
0.000000e+000
0.000000e+000
0.000000e+000
0.000000e+000
0.000000e+000
0.000000e+000
1.554719e-008
5.968191e-009
-5.347057e-009
-1.118419e-008
-9.001443e-009
-1.662365e-009
5.351048e-009
7.937953e-009
5.684630e-009
1.179261e-009
-2.556662e-009
-4.181585e-009
-4.179918e-009
-3.487926e-009
-2.291638e-009
-1.722527e-010
2.812897e-009
5.509831e-009
6.330386e-009
4.584825e-009
1.129656e-009
-2.317349e-009
-4.492334e-009
-5.274542e-009
-5.250572e-009
-4.821386e-009
-3.845343e-009
-2.062768e-009
3.369738e-010
2.699704e-009
4.420601e-009
5.377418e-009
5.841316e-009
6.054060e-009
5.983117e-009
5.473006e-009
4.531253e-009
3.388462e-009
2.296162e-009
1.330819e-009
4.172542e-010
-5.003392e-010
-1.360926e-009
-2.055864e-009
-2.551233e-009
-2.911473e-009
-3.212007e-009
-3.456062e-009
-3.587880e-009
-3.572973e-009
-3.444178e-009
-3.261296e-009
-3.035763e-009
-2.712639e-009
-2.235382e-009
-1.618408e-009
-9.357126e-010
-2.318113e-010
5.340408e-010
1.424824e-009
2.405412e-009
3.318953e-009
4.012449e-009
4.468510e-009
4.764254e-009
4.886058e-009
4.639953e-009
3.817368e-009
2.457183e-009
8.810222e-010
-5.777790e-010
-1.840000e-009
-2.994912e-009
-3.943029e-009
-4.236891e-009
-3.418572e-009
-1.556746e-009
6.290651e-010
2.267779e-009
2.968806e-009
2.923973e-009
2.421344e-009
1.411178e-009
-2.881721e-010
-2.351002e-009
-3.706900e-009
-3.219334e-009
-7.899022e-010
2.212722e-009
3.795099e-009
2.862462e-009
1.281870e-010
-2.404917e-009
-2.981629e-009
-1.392873e-009
9.736156e-010
2.288717e-009
1.676753e-009
-2.084197e-010
-1.782541e-009
1.803368e-009
4.700875e-010
-9.564836e-010
-1.379114e-009
-5.779963e-010
6.860643e-010
1.298640e-009
6.979202e-010
-6.479836e-010
-1.605077e-009
-1.310449e-009
9.692626e-011
1.584493e-009
2.079469e-009
1.310481e-009
-8.669314e-011
-1.216997e-009
-1.655800e-009
-1.591590e-009
-1.369587e-009
-1.024500e-009
-3.158109e-010
8.381923e-010
2.079474e-009
2.830316e-009
2.776943e-009
2.093345e-009
1.196003e-009
3.387685e-010
-5.144535e-010
-1.466151e-009
-2.432872e-009
-3.165900e-009
-3.488771e-009
-3.452356e-009
-3.241684e-009
-2.972587e-009
-2.617677e-009
-2.114755e-009
-1.495517e-009
-8.793437e-010
-3.603000e-010
6.554248e-011
4.560218e-010
8.318232e-010
1.149829e-009
1.359943e-009
1.465502e-009
1.514689e-009
1.539593e-009
1.519355e-009
1.409995e-009
1.202213e-009
9.354657e-010
6.496692e-010
3.340067e-010
-5.888561e-011
-5.432804e-010
-1.060478e-009
-1.526517e-009
-1.915371e-009
-2.268379e-009
-2.604480e-009
-2.840518e-009
-2.838736e-009
-2.545199e-009
-2.051817e-009
-1.490981e-009
-8.850949e-010
-1.527533e-010
7.110181e-010
1.501118e-009
1.914368e-009
1.816600e-009
1.363147e-009
8.220689e-010
3.049993e-010
-2.657869e-010
-9.104648e-010
-1.385122e-009
-1.323190e-009
-6.258607e-010
3.288603e-010
9.369156e-010
8.685213e-010
3.267582e-010
-1.831084e-010
-3.219560e-010
-1.572273e-010
1.345677e-011
8.816764e-012
-9.251728e-011
-1.112052e-010
2.088641e-012
1.275718e-010
1.368867e-010
3.941362e-011
-4.980568e-011
-5.677475e-011
-2.179295e-011
-1.343096e-008
-5.361093e-009
4.271928e-009
9.497586e-009
8.137767e-009
2.312835e-009
-3.779632e-009
-6.846836e-009
-6.112099e-009
-2.882009e-009
9.543723e-010
4.045414e-009
5.706987e-009
5.559932e-009
3.452472e-009
-1.911905e-010
-4.150963e-009
-6.829116e-009
-7.124818e-009
-5.051211e-009
-1.592174e-009
2.004268e-009
4.858659e-009
6.599629e-009
7.138172e-009
6.473940e-009
4.722817e-009
2.214405e-009
-5.569168e-010
-3.125554e-009
-5.208207e-009
-6.696815e-009
-7.560073e-009
-7.791639e-009
-7.437889e-009
-6.624010e-009
-5.515295e-009
-4.249510e-009
-2.913350e-009
-1.572998e-009
-3.024282e-010
8.308286e-010
1.797385e-009
2.607365e-009
3.277660e-009
3.806468e-009
4.183537e-009
4.415638e-009
4.528881e-009
4.543433e-009
4.454099e-009
4.242109e-009
3.901577e-009
3.444928e-009
2.880699e-009
2.195818e-009
1.370250e-009
4.087353e-010
-6.502358e-010
-1.758431e-009
-2.879060e-009
-3.971272e-009
-4.955964e-009
-5.712991e-009
-6.123208e-009
-6.109288e-009
-5.631450e-009
-4.661693e-009
-3.199043e-009
-1.334054e-009
7.104642e-010
2.625902e-009
4.113564e-009
4.934587e-009
4.897248e-009
3.878844e-009
1.953407e-009
-4.713046e-010
-2.700517e-009
-4.036253e-009
-4.104103e-009
-2.970419e-009
-1.018485e-009
1.210332e-009
3.055628e-009
3.782278e-009
2.870429e-009
5.047527e-010
-2.193992e-009
-3.646643e-009
-2.871453e-009
-3.303239e-010
2.241882e-009
3.055562e-009
1.629207e-009
-8.259273e-010
-2.363423e-009
-1.850756e-009
1.502317e-010
1.888266e-009
-1.681796e-008
-6.143394e-009
6.169128e-009
1.201188e-008
8.962245e-009
8.039046e-010
-6.150698e-009
-7.803339e-009
-4.532953e-009
2.124219e-010
3.190806e-009
3.570910e-009
2.584702e-009
1.613705e-009
8.545491e-010
-3.104271e-010
-2.033446e-009
-3.426456e-009
-3.334920e-009
-1.554090e-009
8.582436e-010
2.484926e-009
2.701977e-009
1.960253e-009
1.085946e-009
4.674369e-010
-6.816721e-011
-7.580977e-010
-1.481281e-009
-1.866578e-009
-1.707979e-009
-1.164889e-009
-5.618989e-010
-7.651623e-011
3.368284e-010
7.727316e-010
1.209738e-009
1.535358e-009
1.682739e-009
1.694311e-009
1.656862e-009
1.611467e-009
1.542141e-009
1.430393e-009
1.293866e-009
1.170608e-009
1.083356e-009
1.028845e-009
9.946844e-010
9.772362e-010
9.841905e-010
1.025727e-009
1.103388e-009
1.203825e-009
1.304767e-009
1.392398e-009
1.471269e-009
1.547247e-009
1.597333e-009
1.569333e-009
1.426661e-009
1.188620e-009
9.049989e-010
5.849239e-010
1.784611e-010
-3.386712e-010
-8.693686e-010
-1.229708e-009
-1.308707e-009
-1.167521e-009
-9.333135e-010
-6.034394e-010
-3.381946e-011
8.116824e-010
1.633767e-009
1.931659e-009
1.443647e-009
4.297941e-010
-5.541873e-010
-1.167300e-009
-1.489388e-009
-1.677414e-009
-1.525342e-009
-5.793505e-010
1.176241e-009
2.838401e-009
3.056937e-009
1.241154e-009
-1.629077e-009
-3.531118e-009
-2.985845e-009
-3.462659e-010
2.398914e-009
3.198724e-009
1.568484e-009
-1.079632e-009
-2.629759e-009
-1.953705e-009
2.594509e-010
2.133578e-009
-5.793509e-009
-1.355574e-009
3.253259e-009
4.396035e-009
1.587326e-009
-2.429981e-009
-4.081133e-009
-1.922124e-009
2.213813e-009
4.806207e-009
3.610977e-009
-5.272663e-010
-4.503807e-009
-5.569449e-009
-3.372738e-009
2.238421e-010
3.045253e-009
4.248123e-009
4.314834e-009
3.849073e-009
2.730445e-009
5.048519e-010
-2.639193e-009
-5.576518e-009
-7.026596e-009
-6.556790e-009
-4.761819e-009
-2.543958e-009
-3.549287e-010
1.856121e-009
4.135337e-009
6.172809e-009
7.497141e-009
7.906665e-009
7.606709e-009
6.942490e-009
6.085300e-009
5.007072e-009
3.687272e-009
2.253650e-009
9.060244e-010
-2.444689e-010
-1.221229e-009
-2.088000e-009
-2.849936e-009
-3.455611e-009
-3.868359e-009
-4.109476e-009
-4.231558e-009
-4.263317e-009
-4.186462e-009
-3.962476e-009
-3.577662e-009
-3.059372e-009
-2.443926e-009
-1.728669e-009
-8.686409e-010
1.624385e-010
1.309312e-009
2.455235e-009
3.516858e-009
4.495338e-009
5.396152e-009
6.101140e-009
6.374927e-009
6.046938e-009
5.171096e-009
3.950380e-009
2.498652e-009
7.572761e-010
-1.271251e-009
-3.234685e-009
-4.503465e-009
-4.632799e-009
-3.737328e-009
-2.335314e-009
-8.307477e-010
7.348951e-010
2.341925e-009
3.517686e-009
3.457542e-009
1.811389e-009
-6.764879e-010
-2.506714e-009
-2.591787e-009
-1.162890e-009
4.862236e-010
1.167970e-009
7.416616e-010
-1.114619e-011
-2.995478e-010
-3.306409e-011
2.963988e-010
2.597593e-010
-9.086999e-011
-3.870033e-010
-3.763468e-010
-1.201506e-010
1.629824e-010
3.230361e-010
9.718034e-009
4.347145e-009
-2.292978e-009
-6.444942e-009
-6.541430e-009
-3.370621e-009
1.071863e-009
4.796166e-009
6.365406e-009
5.057923e-009
1.168368e-009
-3.709349e-009
-7.119572e-009
-7.107325e-009
-3.606440e-009
1.416842e-009
5.340923e-009
6.639760e-009
5.532921e-009
3.199681e-009
5.931615e-010
-1.954666e-009
-4.240513e-009
-5.713794e-009
-5.724809e-009
-4.188245e-009
-1.807318e-009
4.577970e-010
2.100051e-009
3.216219e-009
4.056326e-009
4.587618e-009
4.557180e-009
3.876911e-009
2.806433e-009
1.729026e-009
8.243659e-010
1.490762e-011
-8.123479e-010
-1.616717e-009
-2.253420e-009
-2.651388e-009
-2.884776e-009
-3.074336e-009
-3.261572e-009
-3.399148e-009
-3.441415e-009
-3.413228e-009
-3.384978e-009
-3.396711e-009
-3.420649e-009
-3.398825e-009
-3.310145e-009
-3.190922e-009
-3.082061e-009
-2.959810e-009
-2.736926e-009
-2.347820e-009
-1.822275e-009
-1.246128e-009
-6.421424e-010
7.317690e-011
9.711122e-010
1.956897e-009
2.789338e-009
3.285731e-009
3.467688e-009
3.442682e-009
3.155201e-009
2.356945e-009
9.082246e-010
-9.188912e-010
-2.535524e-009
-3.474127e-009
-3.676535e-009
-3.304762e-009
-2.359549e-009
-6.733667e-010
1.621866e-009
3.729976e-009
4.520094e-009
3.388611e-009
8.325110e-010
-1.851255e-009
-3.445788e-009
-3.462092e-009
-2.130592e-009
-5.148912e-011
2.001257e-009
3.128062e-009
2.606952e-009
5.173094e-010
-1.930074e-009
-3.017593e-009
-1.870260e-009
6.425580e-010
2.468041e-009
2.093224e-009
-8.601605e-011
-2.077224e-009
1.670145e-008
5.748719e-009
-6.451034e-009
-1.158972e-008
-7.900103e-009
1.960528e-011
5.857497e-009
6.438423e-009
3.066101e-009
-8.134691e-010
-2.788147e-009
-2.708214e-009
-1.651817e-009
-4.210254e-010
8.138340e-010
1.857490e-009
2.093287e-009
1.011330e-009
-1.020755e-009
-2.795859e-009
-3.195692e-009
-2.047610e-009
-7.270697e-011
1.866078e-009
3.334096e-009
4.238654e-009
4.456409e-009
3.771215e-009
2.171825e-009
4.304935e-011
-2.054179e-009
-3.769163e-009
-5.075767e-009
-6.045340e-009
-6.617747e-009
-6.649992e-009
-6.130896e-009
-5.256172e-009
-4.270903e-009
-3.284672e-009
-2.270625e-009
-1.211076e-009
-1.888275e-010
6.747796e-010
1.334610e-009
1.843254e-009
2.265791e-009
2.599218e-009
2.785570e-009
2.789582e-009
2.643214e-009
2.406690e-009
2.094701e-009
1.656977e-009
1.041018e-009
2.665405e-010
-5.807332e-010
-1.435476e-009
-2.311455e-009
-3.244128e-009
-4.174785e-009
-4.928902e-009
-5.340182e-009
-5.378855e-009
-5.115778e-009
-4.561987e-009
-3.609344e-009
-2.190449e-009
-4.795034e-010
1.137378e-009
2.322713e-009
2.976690e-009
3.136959e-009
2.763211e-009
1.755884e-009
2.426011e-010
-1.249551e-009
-2.054159e-009
-1.859330e-009
-9.185777e-010
2.210353e-010
1.113568e-009
1.502093e-009
1.177022e-009
4.604206e-011
-1.490889e-009
-2.409052e-009
-1.701764e-009
5.517525e-010
2.820219e-009
3.166282e-009
9.994242e-010
-2.124427e-009
-3.636959e-009
-2.185466e-009
1.063825e-009
3.344083e-009
2.697675e-009
-2.757499e-010
-2.934446e-009
1.029589e-008
1.983081e-009
-6.252935e-009
-7.666421e-009
-2.062202e-009
4.874043e-009
6.909786e-009
2.535947e-009
-4.187441e-009
-7.519259e-009
-4.923881e-009
1.262548e-009
6.354684e-009
7.265068e-009
4.339147e-009
6.092969e-011
-3.417029e-009
-5.435764e-009
-6.158525e-009
-5.520547e-009
-3.206910e-009
5.326575e-010
4.483489e-009
7.123429e-009
7.661762e-009
6.389005e-009
4.126398e-009
1.513607e-009
-1.162770e-009
-3.677608e-009
-5.671619e-009
-6.815095e-009
-7.057765e-009
-6.618832e-009
-5.751870e-009
-4.586428e-009
-3.190195e-009
-1.693655e-009
-2.803703e-010
9.329848e-010
1.953975e-009
2.838684e-009
3.592407e-009
4.170390e-009
4.557688e-009
4.810066e-009
5.002805e-009
5.157680e-009
5.239929e-009
5.222398e-009
5.130785e-009
5.012534e-009
4.870533e-009
4.647855e-009
4.285818e-009
3.782934e-009
3.177433e-009
2.474525e-009
1.618926e-009
5.619976e-010
-6.542764e-010
-1.907737e-009
-3.090788e-009
-4.157835e-009
-5.051110e-009
-5.608623e-009
-5.608623e-009
-4.931097e-009
-3.644315e-009
-1.913216e-009
1.194659e-010
2.275151e-009
4.169099e-009
5.227666e-009
5.015388e-009
3.575638e-009
1.399180e-009
-9.347729e-010
-2.989115e-009
-4.322275e-009
-4.327942e-009
-2.581528e-009
4.523109e-010
3.220833e-009
3.995431e-009
2.305409e-009
-4.989797e-010
-2.286332e-009
-1.936179e-009
-2.066984e-010
1.123565e-009
9.520771e-010
-2.537873e-010
-1.110075e-009
-7.325416e-010
4.822317e-010
1.343095e-009
1.022206e-009
-2.167942e-010
-1.299935e-009
-3.212684e-009
-3.009925e-009
-1.624304e-009
1.351321e-009
4.651618e-009
5.802145e-009
3.082765e-009
-2.532538e-009
-7.411167e-009
-7.778367e-009
-2.866727e-009
4.127862e-009
8.400791e-009
7.293457e-009
2.163187e-009
-3.149130e-009
-5.588955e-009
-4.842440e-009
-2.590689e-009
-4.332250e-010
1.226006e-009
2.598373e-009
3.479236e-009
3.193765e-009
1.467504e-009
-9.955792e-010
-2.984615e-009
-3.750416e-009
-3.412575e-009
-2.513294e-009
-1.384581e-009
-2.525860e-011
1.561461e-009
3.125152e-009
4.315973e-009
4.974584e-009
5.194519e-009
5.135767e-009
4.861086e-009
4.365925e-009
3.694925e-009
2.963378e-009
2.272067e-009
1.647085e-009
1.076907e-009
5.774321e-010
1.930115e-010
-5.462047e-011
-1.869530e-010
-2.293538e-010
-1.711630e-010
1.734214e-011
3.374131e-010
7.535392e-010
1.235889e-009
1.788595e-009
2.416406e-009
3.073462e-009
3.671294e-009
4.140947e-009
4.458730e-009
4.591150e-009
4.442699e-009
3.910273e-009
3.001645e-009
1.858717e-009
6.350889e-010
-6.055284e-010
-1.799687e-009
-2.707480e-009
-2.944934e-009
-2.301991e-009
-1.012872e-009
3.848042e-010
1.480676e-009
2.187592e-009
2.459671e-009
1.975439e-009
3.904743e-010
-1.960155e-009
-3.799913e-009
-3.709461e-009
-1.417034e-009
1.731357e-009
3.734971e-009
3.486832e-009
1.472658e-009
-8.805652e-010
-2.362846e-009
-2.547457e-009
-1.596338e-009
4.269127e-011
1.643081e-009
2.275453e-009
1.384629e-009
-5.149840e-010
-1.955433e-009
-1.697167e-009
4.657115e-011
1.677756e-009
-1.313515e-008
-4.636463e-009
4.689022e-009
8.559532e-009
5.994522e-009
5.581956e-010
-3.509745e-009
-4.382244e-009
-2.781120e-009
-2.706135e-010
1.958836e-009
3.048838e-009
2.280691e-009
-3.268880e-010
-3.332725e-009
-4.459884e-009
-2.425084e-009
1.733514e-009
5.345764e-009
6.255441e-009
4.333339e-009
1.047401e-009
-2.115812e-009
-4.597678e-009
-6.380084e-009
-7.190769e-009
-6.467268e-009
-4.053886e-009
-6.365826e-010
2.683995e-009
5.187265e-009
6.825112e-009
7.832910e-009
8.258755e-009
7.952728e-009
6.891861e-009
5.345919e-009
3.688374e-009
2.125976e-009
6.619445e-010
-7.336259e-010
-2.001943e-009
-3.047832e-009
-3.847085e-009
-4.455854e-009
-4.932579e-009
-5.289045e-009
-5.517076e-009
-5.627404e-009
-5.642270e-009
-5.566999e-009
-5.390793e-009
-5.108180e-009
-4.716600e-009
-4.192019e-009
-3.492928e-009
-2.603988e-009
-1.557580e-009
-3.901607e-010
9.052094e-010
2.337149e-009
3.812898e-009
5.119629e-009
6.052596e-009
6.542050e-009
6.595375e-009
6.118166e-009
4.896279e-009
2.857998e-009
3.363555e-010
-2.039562e-009
-3.767983e-009
-4.723388e-009
-4.931487e-009
-4.220621e-009
-2.344453e-009
4.289774e-010
3.011966e-009
4.078779e-009
3.125212e-009
9.271351e-010
-1.107973e-009
-2.014718e-009
-1.717044e-009
-6.554922e-010
6.676792e-010
1.678750e-009
1.654216e-009
2.192712e-010
-1.877159e-009
-2.870695e-009
-1.458780e-009
1.602620e-009
3.700464e-009
2.670523e-009
-8.909651e-010
-3.838392e-009
-3.352215e-009
2.417404e-010
3.625458e-009
-1.341472e-008
-2.014968e-009
8.723248e-009
9.702251e-009
1.681708e-009
-6.920559e-009
-8.408434e-009
-2.299160e-009
5.413540e-009
8.368303e-009
5.037431e-009
-1.214332e-009
-5.958095e-009
-7.074135e-009
-5.064619e-009
-1.384229e-009
2.721636e-009
6.071628e-009
7.307233e-009
5.586935e-009
1.549861e-009
-2.820597e-009
-5.574273e-009
-6.062069e-009
-4.902125e-009
-2.973014e-009
-7.066572e-010
1.707462e-009
3.822024e-009
4.974569e-009
4.833653e-009
3.708080e-009
2.221006e-009
7.650510e-010
-6.419797e-010
-2.053390e-009
-3.322124e-009
-4.193262e-009
-4.574306e-009
-4.611417e-009
-4.506416e-009
-4.333365e-009
-4.056671e-009
-3.668147e-009
-3.245268e-009
-2.883606e-009
-2.620123e-009
-2.438528e-009
-2.321311e-009
-2.273895e-009
-2.312058e-009
-2.448584e-009
-2.687148e-009
-3.008010e-009
-3.360055e-009
-3.689493e-009
-3.981356e-009
-4.244192e-009
-4.433035e-009
-4.415218e-009
-4.060472e-009
-3.367393e-009
-2.452584e-009
-1.393812e-009
-1.449775e-010
1.313052e-009
2.748646e-009
3.711560e-009
3.862987e-009
3.233681e-009
2.086909e-009
5.809858e-010
-1.267117e-009
-3.209294e-009
-4.511589e-009
-4.327982e-009
-2.451247e-009
3.682556e-010
2.915601e-009
4.277197e-009
4.122622e-009
2.498438e-009
-2.275997e-010
-3.062728e-009
-4.426024e-009
-3.159802e-009
1.448137e-010
3.095589e-009
3.342690e-009
8.077452e-010
-2.049158e-009
-2.503629e-009
-2.545015e-010
2.253163e-009
2.317208e-009
-2.222173e-010
-2.778110e-009
-2.659676e-009
1.427591e-010
2.903242e-009
-5.832758e-009
1.720065e-009
7.548587e-009
5.185065e-009
-3.288430e-009
-9.689652e-009
-7.714008e-009
1.184861e-009
9.336034e-009
9.980425e-009
3.094878e-009
-5.245689e-009
-8.691304e-009
-5.766787e-009
2.775122e-011
4.188250e-009
4.815812e-009
2.900224e-009
2.468524e-010
-2.109121e-009
-3.745427e-009
-4.108938e-009
-2.639545e-009
4.166523e-010
3.777138e-009
5.968364e-009
6.342433e-009
5.212121e-009
3.186023e-009
6.310308e-010
-2.224876e-009
-4.961724e-009
-7.011091e-009
-8.040079e-009
-8.153947e-009
-7.670835e-009
-6.785129e-009
-5.516973e-009
-3.918489e-009
-2.198988e-009
-6.065163e-010
7.522448e-010
1.923912e-009
2.970481e-009
3.872804e-009
4.569369e-009
5.041974e-009
5.333962e-009
5.500029e-009
5.559844e-009
5.493635e-009
5.264872e-009
4.849401e-009
4.256913e-009
3.521109e-009
2.652772e-009
1.608455e-009
3.386014e-010
-1.116660e-009
-2.606777e-009
-3.975771e-009
-5.165535e-009
-6.160198e-009
-6.825847e-009
-6.884857e-009
-6.125542e-009
-4.621760e-009
-2.679620e-009
-5.770722e-010
1.538278e-009
3.438967e-009
4.626881e-009
4.558222e-009
3.145903e-009
9.594477e-010
-1.147575e-009
-2.549855e-009
-2.946746e-009
-2.153996e-009
-1.954933e-010
2.207844e-009
3.547374e-009
2.513052e-009
-5.894213e-010
-3.589889e-009
-4.079121e-009
-1.581335e-009
1.902046e-009
3.643441e-009
2.566232e-009
-2.637185e-011
-1.897977e-009
-1.894006e-009
-6.193172e-010
5.395554e-010
7.820392e-010
3.450727e-010
-8.538442e-011
-1.535763e-010
-3.376934e-011
3.727781e-009
3.018018e-009
1.166559e-009
-1.719247e-009
-4.242527e-009
-4.366775e-009
-1.291226e-009
3.131018e-009
5.310207e-009
3.006438e-009
-2.169525e-009
-5.682985e-009
-4.084389e-009
1.623096e-009
6.696170e-009
6.876123e-009
2.023345e-009
-4.186139e-009
-7.742337e-009
-7.292377e-009
-4.150676e-009
-2.587073e-010
3.301899e-009
6.101390e-009
7.568322e-009
7.025593e-009
4.454922e-009
8.220301e-010
-2.560214e-009
-4.903566e-009
-6.139934e-009
-6.461800e-009
-5.935744e-009
-4.594417e-009
-2.689972e-009
-6.591119e-010
1.162825e-009
2.699312e-009
4.002203e-009
5.060205e-009
5.794128e-009
6.190515e-009
6.357171e-009
6.429968e-009
6.465094e-009
6.443247e-009
6.352212e-009
6.234207e-009
6.155370e-009
6.149228e-009
6.195679e-009
6.247629e-009
6.276415e-009
6.293437e-009
6.319557e-009
6.324102e-009
6.205438e-009
5.855740e-009
5.245326e-009
4.414304e-009
3.371899e-009
2.049946e-009
4.122032e-010
-1.397304e-009
-3.075307e-009
-4.349862e-009
-5.095188e-009
-5.220269e-009
-4.530778e-009
-2.860091e-009
-3.957418e-010
2.223811e-009
4.245577e-009
5.211113e-009
4.975926e-009
3.461615e-009
7.176098e-010
-2.583518e-009
-4.952078e-009
-4.897714e-009
-2.281218e-009
1.223304e-009
3.307752e-009
2.867467e-009
7.385779e-010
-1.264156e-009
-1.879256e-009
-1.062164e-009
4.213058e-010
1.627780e-009
1.767312e-009
5.212635e-010
-1.480080e-009
-2.680121e-009
-1.742564e-009
9.358690e-010
3.113596e-009
2.640681e-009
-2.839285e-010
-3.035394e-009
1.054067e-008
1.346686e-009
-7.054339e-009
-7.496464e-009
-1.085029e-009
5.410763e-009
6.517697e-009
2.282957e-009
-3.232710e-009
-6.168157e-009
-5.298464e-009
-1.575530e-009
3.167759e-009
6.745767e-009
7.032309e-009
3.250333e-009
-2.772165e-009
-7.297136e-009
-7.415650e-009
-3.384297e-009
1.786789e-009
4.999682e-009
5.254925e-009
3.512927e-009
1.072212e-009
-1.456731e-009
-3.810281e-009
-5.405190e-009
-5.479528e-009
-3.823439e-009
-1.070079e-009
1.831005e-009
4.297545e-009
6.231724e-009
7.652742e-009
8.443710e-009
8.483626e-009
7.868499e-009
6.879472e-009
5.759287e-009
4.592875e-009
3.395297e-009
2.234042e-009
1.219551e-009
4.092954e-010
-2.277814e-010
-7.462810e-010
-1.150753e-009
-1.398201e-009
-1.457958e-009
-1.349700e-009
-1.116802e-009
-7.688029e-010
-2.623467e-010
4.502558e-010
1.355454e-009
2.376575e-009
3.442955e-009
4.535631e-009
5.629921e-009
6.598347e-009
7.220402e-009
7.319936e-009
6.862687e-009
5.882358e-009
4.359462e-009
2.286743e-009
-1.029283e-010
-2.270977e-009
-3.657196e-009
-4.030119e-009
-3.481299e-009
-2.124408e-009
-3.016781e-011
2.378735e-009
4.039858e-009
3.771786e-009
1.364149e-009
-1.913874e-009
-4.117246e-009
-4.058953e-009
-2.007214e-009
8.153882e-010
3.103919e-009
3.872881e-009
2.601551e-009
-2.968192e-010
-3.091514e-009
-3.573731e-009
-1.082721e-009
2.298446e-009
3.296142e-009
7.676636e-010
-2.737936e-009
-3.373127e-009
-1.686223e-010
3.620833e-009
3.837916e-009
-6.361566e-012
-4.014997e-009
1.276273e-008
-9.451343e-010
-1.208225e-008
-9.675282e-009
2.646791e-009
1.207711e-008
9.952711e-009
-6.820562e-010
-9.579381e-009
-9.663646e-009
-2.561674e-009
4.753837e-009
7.027063e-009
4.212379e-009
-4.220117e-010
-3.844118e-009
-4.746596e-009
-3.015551e-009
7.179113e-010
4.808098e-009
6.883933e-009
5.371580e-009
9.029580e-010
-4.076794e-009
-7.231100e-009
-7.817418e-009
-6.460871e-009
-3.967589e-009
-7.214190e-010
2.936685e-009
6.267903e-009
8.408575e-009
9.008795e-009
8.406611e-009
7.171827e-009
5.624136e-009
3.827062e-009
1.882429e-009
4.941849e-011
-1.434139e-009
-2.535514e-009
-3.376373e-009
-4.051185e-009
-4.554370e-009
-4.864632e-009
-5.031245e-009
-5.144890e-009
-5.250622e-009
-5.325190e-009
-5.338747e-009
-5.309804e-009
-5.280664e-009
-5.249893e-009
-5.154655e-009
-4.928941e-009
-4.558935e-009
-4.054448e-009
-3.372169e-009
-2.410667e-009
-1.113667e-009
4.420079e-010
2.100612e-009
3.752765e-009
5.331602e-009
6.650100e-009
7.324534e-009
6.984881e-009
5.587774e-009
3.444343e-009
9.210608e-010
-1.751030e-009
-4.241998e-009
-5.815327e-009
-5.586289e-009
-3.330357e-009
1.661355e-011
2.857584e-009
4.011598e-009
3.303307e-009
1.292669e-009
-1.172021e-009
-2.995367e-009
-2.948706e-009
-5.694366e-010
2.761298e-009
4.252991e-009
2.117922e-009
-2.207148e-009
-4.845253e-009
-3.161314e-009
1.327179e-009
4.235556e-009
2.801584e-009
-1.192492e-009
-3.383006e-009
-1.602213e-009
1.839820e-009
2.911815e-009
4.786632e-010
-2.499870e-009
9.971003e-009
-1.594651e-009
-1.037110e-008
-7.153256e-009
3.835348e-009
1.064826e-008
6.477550e-009
-3.816153e-009
-9.532261e-009
-5.343850e-009
3.886860e-009
8.845212e-009
5.162070e-009
-3.169773e-009
-8.682527e-009
-7.486487e-009
-1.556219e-009
4.490215e-009
7.520765e-009
7.075180e-009
4.072078e-009
-3.171340e-010
-4.625112e-009
-7.071224e-009
-6.485102e-009
-3.291036e-009
7.708125e-010
4.010185e-009
5.783501e-009
6.272105e-009
5.704886e-009
4.106677e-009
1.677084e-009
-9.637642e-010
-3.106889e-009
-4.446273e-009
-5.131873e-009
-5.404067e-009
-5.318940e-009
-4.841360e-009
-4.065398e-009
-3.224371e-009
-2.502766e-009
-1.918945e-009
-1.407185e-009
-9.539201e-010
-6.106320e-010
-4.040992e-010
-2.933851e-010
-2.304775e-010
-2.284316e-010
-3.401203e-010
-5.852300e-010
-9.354643e-010
-1.377465e-009
-1.950130e-009
-2.680137e-009
-3.491630e-009
-4.225085e-009
-4.756301e-009
-5.047468e-009
-5.041520e-009
-4.557753e-009
-3.400791e-009
-1.614056e-009
4.452946e-010
2.348412e-009
3.854764e-009
4.832335e-009
4.975831e-009
3.846074e-009
1.386174e-009
-1.656618e-009
-4.027619e-009
-4.776887e-009
-3.747097e-009
-1.368304e-009
1.675502e-009
4.352198e-009
5.215972e-009
3.230326e-009
-8.597795e-010
-4.321969e-009
-4.422213e-009
-1.083944e-009
2.675540e-009
3.460434e-009
8.066985e-010
-2.408898e-009
-2.966057e-009
-5.295206e-010
2.257855e-009
2.702470e-009
7.205676e-010
-1.466662e-009
-1.897134e-009
-7.161450e-010
4.810477e-010
6.604133e-010
2.787083e-010
2.277477e-009
-6.280529e-010
-2.349377e-009
-6.841824e-010
2.237184e-009
2.433757e-009
-1.128280e-009
-4.774509e-009
-3.776420e-009
2.174169e-009
7.776315e-009
7.094085e-009
-2.100755e-010
-8.053346e-009
-9.622185e-009
-3.766742e-009
4.302331e-009
8.225958e-009
5.942561e-009
3.353968e-010
-4.351765e-009
-5.925594e-009
-4.621752e-009
-1.536839e-009
2.365363e-009
6.026154e-009
8.113638e-009
7.711000e-009
5.084566e-009
1.467333e-009
-1.931501e-009
-4.571482e-009
-6.367235e-009
-7.210424e-009
-6.941825e-009
-5.679337e-009
-3.912341e-009
-2.177183e-009
-7.248813e-010
4.467286e-010
1.337629e-009
1.844343e-009
1.899583e-009
1.603024e-009
1.154176e-009
6.954283e-010
2.706203e-010
-8.703012e-011
-2.956512e-010
-2.782075e-010
-3.607270e-011
3.678455e-010
8.799024e-010
1.463143e-009
2.030117e-009
2.419596e-009
2.483258e-009
2.177852e-009
1.530293e-009
5.292461e-010
-8.660310e-010
-2.559131e-009
-4.212803e-009
-5.402304e-009
-5.878931e-009
-5.612903e-009
-4.582198e-009
-2.677391e-009
2.450452e-011
2.931030e-009
5.078933e-009
5.732256e-009
4.799871e-009
2.671159e-009
-1.215238e-010
-2.831630e-009
-4.272454e-009
-3.294434e-009
-1.426008e-011
3.547089e-009
4.677189e-009
2.325868e-009
-1.734355e-009
-4.336768e-009
-3.653018e-009
-5.883136e-010
2.307539e-009
3.066541e-009
1.593551e-009
-6.805933e-010
-2.015108e-009
-1.496639e-009
3.694024e-010
1.925940e-009
1.624381e-009
-4.668750e-010
-2.429148e-009
-2.205791e-009
2.211625e-010
2.592869e-009
-8.351887e-009
3.791356e-010
7.713612e-009
6.790542e-009
-5.104258e-010
-6.924334e-009
-7.226413e-009
-2.098949e-009
3.905097e-009
6.639215e-009
4.793963e-009
-1.174250e-010
-4.830198e-009
-5.957493e-009
-2.260000e-009
3.792135e-009
7.323410e-009
5.029241e-009
-1.693403e-009
-7.786838e-009
-8.892525e-009
-4.731336e-009
1.485349e-009
6.282038e-009
8.223807e-009
7.661998e-009
5.350197e-009
1.897359e-009
-1.838967e-009
-4.641436e-009
-5.597916e-009
-4.730506e-009
-2.796265e-009
-5.719018e-010
1.520348e-009
3.210914e-009
4.129471e-009
3.920814e-009
2.519147e-009
1.641078e-010
-2.849748e-009
-6.346647e-009
-1.019083e-008
-1.414428e-008
-1.788787e-008
-2.116035e-008
-2.381562e-008
-2.574973e-008
-2.683756e-008
-2.697591e-008
-2.615405e-008
-2.444187e-008
-2.192777e-008
-1.871752e-008
-1.499740e-008
-1.104383e-008
-7.132603e-009
-3.466777e-009
-2.344611e-010
2.295737e-009
3.829771e-009
4.243407e-009
3.675640e-009
2.385952e-009
5.836359e-010
-1.496330e-009
-3.374216e-009
-4.365133e-009
-3.989544e-009
-2.325191e-009
1.146688e-010
2.753213e-009
5.011105e-009
6.063478e-009
4.994144e-009
1.675790e-009
-2.479746e-009
-5.092196e-009
-4.581331e-009
-1.503250e-009
1.900738e-009
3.459703e-009
2.475869e-009
-1.433674e-010
-2.595462e-009
-3.107539e-009
-1.012125e-009
2.352868e-009
4.111226e-009
2.250092e-009
-1.937919e-009
-4.455530e-009
-2.553695e-009
1.958840e-009
4.251165e-009
1.766415e-009
-2.681965e-009
-3.967793e-009
-5.987715e-010
3.471106e-009
-1.707131e-008
5.388555e-010
1.443360e-008
1.122471e-008
-3.059788e-009
-1.226715e-008
-7.984567e-009
3.371878e-009
9.546800e-009
5.504104e-009
-3.227912e-009
-7.988733e-009
-5.390294e-009
1.309551e-009
6.700761e-009
7.555301e-009
3.856952e-009
-2.157564e-009
-7.133504e-009
-8.017958e-009
-4.004374e-009
2.470707e-009
7.265124e-009
7.664708e-009
4.195972e-009