# vtk DataFile Version 3.0
vtk output
ASCII
DATASET STRUCTURED_POINTS
DIMENSIONS 100 100 1
SPACING 1 1 1
ORIGIN 0 0 0
POINT_DATA 10000
SCALARS SFBox_profile double
LOOKUP_TABLE default 
0.000000e+000
0.000000e+000
0.000000e+000
0.000000e+000
0.000000e+000
0.000000e+000
0.000000e+000
0.000000e+000
0.000000e+000
0.000000e+000
0.000000e+000
0.000000e+000
0.000000e+000
0.000000e+000
0.000000e+000
0.000000e+000
0.000000e+000
0.000000e+000
0.000000e+000
0.000000e+000
0.000000e+000
0.000000e+000
0.000000e+000
0.000000e+000
0.000000e+000
0.000000e+000
0.000000e+000
0.000000e+000
0.000000e+000
0.000000e+000
0.000000e+000
0.000000e+000
0.000000e+000
0.000000e+000
0.000000e+000
0.000000e+000
0.000000e+000
0.000000e+000
0.000000e+000
0.000000e+000
0.000000e+000
0.000000e+000
0.000000e+000
0.000000e+000
0.000000e+000
0.000000e+000
0.000000e+000
0.000000e+000
0.000000e+000
0.000000e+000
0.000000e+000
0.000000e+000
0.000000e+000
0.000000e+000
0.000000e+000
0.000000e+000
0.000000e+000
0.000000e+000
0.000000e+000
0.000000e+000
0.000000e+000
0.000000e+000
0.000000e+000
0.000000e+000
0.000000e+000
0.000000e+000
0.000000e+000
0.000000e+000
0.000000e+000
0.000000e+000
0.000000e+000
0.000000e+000
0.000000e+000
0.000000e+000
0.000000e+000
0.000000e+000
0.000000e+000
0.000000e+000
0.000000e+000
0.000000e+000
0.000000e+000
0.000000e+000
0.000000e+000
0.000000e+000
0.000000e+000
0.000000e+000
0.000000e+000
0.000000e+000
0.000000e+000
0.000000e+000
0.000000e+000
0.000000e+000
0.000000e+000
0.000000e+000
0.000000e+000
0.000000e+000
0.000000e+000
0.000000e+000
0.000000e+000
0.000000e+000
-1.355992e-008
-7.480786e-009
1.003161e-009
7.894956e-009
1.053353e-008
8.489827e-009
3.339030e-009
-2.423244e-009
-6.641868e-009
-8.281719e-009
-7.461445e-009
-4.955911e-009
-1.629759e-009
1.841542e-009
4.927903e-009
7.106236e-009
7.873523e-009
6.958887e-009
4.562149e-009
1.390720e-009
-1.592104e-009
-3.581723e-009
-4.266406e-009
-3.892495e-009
-3.046029e-009
-2.303036e-009
-1.957305e-009
-1.960819e-009
-2.069383e-009
-2.067224e-009
-1.916832e-009
-1.749835e-009
-1.728488e-009
-1.889720e-009
-2.084839e-009
-2.054122e-009
-1.581129e-009
-6.204050e-010
6.847387e-010
2.100069e-009
3.441446e-009
4.660516e-009
5.820020e-009
6.986483e-009
8.130444e-009
9.117825e-009
9.801822e-009
1.013938e-008
1.023084e-008
1.024193e-008
1.026754e-008
1.025159e-008
1.003600e-008
9.504278e-009
8.701798e-009
7.827010e-009
7.090161e-009
6.546008e-009
6.035919e-009
5.296923e-009
4.167925e-009
2.742376e-009
1.344926e-009
3.322443e-010
-1.495873e-010
-2.738118e-010
-4.145368e-010
-8.703751e-010
-1.625949e-009
-2.336914e-009
-2.570761e-009
-2.142832e-009
-1.299953e-009
-5.989026e-010
-5.444015e-010
-1.233431e-009
-2.260070e-009
-2.955660e-009
-2.801944e-009
-1.734488e-009
-1.389274e-010
1.431422e-009
2.591121e-009
3.264928e-009
3.558264e-009
3.501672e-009
2.919118e-009
1.567680e-009
-5.375563e-010
-2.882267e-009
-4.544111e-009
-4.640982e-009
-2.888546e-009
1.008202e-010
3.016318e-009
4.481609e-009
3.782487e-009
1.274828e-009
-1.768819e-009
-3.803016e-009
-5.924407e-009
-2.990793e-009
9.674669e-010
3.914048e-009
4.621283e-009
3.118003e-009
4.583099e-010
-1.984052e-009
-3.247548e-009
-3.138532e-009
-2.092966e-009
-7.450035e-010
4.582713e-010
1.368659e-009
1.994625e-009
2.306039e-009
2.178994e-009
1.514381e-009
4.023148e-010
-8.304323e-010
-1.750501e-009
-2.043421e-009
-1.682131e-009
-9.300338e-010
-1.829315e-010
2.472259e-010
2.785819e-010
6.036607e-011
-1.556428e-010
-1.839671e-010
-9.754022e-012
2.282443e-010
3.529193e-010
2.782855e-010
6.597764e-011
-1.240310e-010
-1.478585e-010
2.522793e-011
2.991464e-010
5.255907e-010
6.095604e-010
5.685076e-010
5.037333e-010
5.092166e-010
5.913504e-010
6.650896e-010
6.308223e-010
4.684691e-010
2.672448e-010
1.603868e-010
2.150125e-010
3.699796e-010
4.794420e-010
4.325715e-010
2.528286e-010
9.118627e-011
1.107181e-010
3.491429e-010
6.693610e-010
8.451959e-010
7.266083e-010
3.629801e-010
-1.411431e-011
-1.481840e-010
5.161189e-011
4.280427e-010
6.738276e-010
5.520653e-010
8.290127e-011
-4.475344e-010
-6.768238e-010
-4.272019e-010
1.510738e-010
6.651070e-010
7.405601e-010
2.762464e-010
-4.874308e-010
-1.131563e-009
-1.332975e-009
-1.054312e-009
-5.236197e-010
-3.573769e-011
2.634811e-010
4.451985e-010
6.744819e-010
1.005861e-009
1.274387e-009
1.186805e-009
5.588091e-010
-4.798016e-010
-1.482522e-009
-1.917667e-009
-1.495513e-009
-3.754159e-010
8.911638e-010
1.656716e-009
1.537432e-009
6.255010e-010
-5.645382e-010
-1.379186e-009
4.926361e-009
3.241049e-009
6.234408e-010
-2.023762e-009
-3.841795e-009
-4.242230e-009
-3.094522e-009
-7.893630e-010
1.880271e-009
4.002256e-009
4.883866e-009
4.293302e-009
2.495752e-009
8.699630e-011
-2.266660e-009
-4.044451e-009
-4.964441e-009
-4.967038e-009
-4.154932e-009
-2.742951e-009
-1.023953e-009
6.733573e-010
2.049189e-009
2.904571e-009
3.188608e-009
2.999580e-009
2.541314e-009
2.052475e-009
1.730596e-009
1.672289e-009
1.849787e-009
2.135795e-009
2.368304e-009
2.423296e-009
2.255458e-009
1.886401e-009
1.355526e-009
6.741029e-010
-1.818784e-010
-1.236492e-009
-2.466891e-009
-3.785160e-009
-5.067570e-009
-6.212300e-009
-7.182806e-009
-8.003333e-009
-8.710133e-009
-9.298252e-009
-9.709146e-009
-9.872003e-009
-9.766185e-009
-9.451465e-009
-9.036110e-009
-8.603213e-009
-8.152178e-009
-7.603770e-009
-6.868838e-009
-5.930053e-009
-4.873184e-009
-3.840674e-009
-2.939363e-009
-2.171452e-009
-1.443917e-009
-6.541012e-010
2.102973e-010
1.034500e-009
1.637552e-009
1.892367e-009
1.819094e-009
1.582505e-009
1.393743e-009
1.386220e-009
1.550993e-009
1.768264e-009
1.899738e-009
1.868232e-009
1.672274e-009
1.341322e-009
8.826620e-010
2.708149e-010
-5.097133e-010
-1.402260e-009
-2.246871e-009
-2.810756e-009
-2.872175e-009
-2.318549e-009
-1.212908e-009
2.004163e-010
1.553632e-009
2.458682e-009
2.627825e-009
1.980407e-009
7.015066e-010
-7.820696e-010
-1.927274e-009
-2.279620e-009
-1.681325e-009
-3.762826e-010
1.066195e-009
1.998198e-009
1.284928e-008
7.482046e-009
-2.334885e-010
-6.928830e-009
-1.012235e-008
-9.015255e-009
-4.540428e-009
1.268799e-009
6.228773e-009
8.826782e-009
8.602212e-009
6.037805e-009
2.145657e-009
-1.979010e-009
-5.441815e-009
-7.640289e-009
-8.257362e-009
-7.262868e-009
-4.942548e-009
-1.884928e-009
1.149296e-009
3.466038e-009
4.676020e-009
4.799660e-009
4.182946e-009
3.286825e-009
2.480945e-009
1.945686e-009
1.696952e-009
1.671299e-009
1.795374e-009
2.005633e-009
2.234323e-009
2.396367e-009
2.396478e-009
2.151535e-009
1.612545e-009
7.759077e-010
-3.169957e-010
-1.589136e-009
-2.944156e-009
-4.287004e-009
-5.542544e-009
-6.664134e-009
-7.628677e-009
-8.423427e-009
-9.035206e-009
-9.449918e-009
-9.661285e-009
-9.680246e-009
-9.536286e-009
-9.268494e-009
-8.911657e-009
-8.485530e-009
-7.992655e-009
-7.424541e-009
-6.771729e-009
-6.031932e-009
-5.212512e-009
-4.327755e-009
-3.395498e-009
-2.438130e-009
-1.488057e-009
-5.908156e-010
2.024592e-010
8.527622e-010
1.347999e-009
1.698996e-009
1.916408e-009
1.991054e-009
1.905968e-009
1.682951e-009
1.425843e-009
1.306572e-009
1.474498e-009
1.936422e-009
2.497692e-009
2.827583e-009
2.625135e-009
1.781631e-009
4.324636e-010
-1.127073e-009
-2.585441e-009
-3.705108e-009
-4.308545e-009
-4.216539e-009
-3.252100e-009
-1.371197e-009
1.146261e-009
3.612132e-009
5.097647e-009
4.845829e-009
2.731858e-009
-5.169576e-010
-3.538944e-009
-4.950014e-009
-4.054434e-009
-1.258868e-009
2.073650e-009
4.289623e-009
1.361552e-008
7.344930e-009
-1.380167e-009
-8.382181e-009
-1.085414e-008
-8.347021e-009
-2.603805e-009
3.555798e-009
7.646724e-009
8.509050e-009
6.482801e-009
2.862250e-009
-9.162394e-010
-3.863472e-009
-5.573990e-009
-6.021065e-009
-5.304553e-009
-3.575060e-009
-1.132180e-009
1.484325e-009
3.583546e-009
4.595720e-009
4.354108e-009
3.179708e-009
1.696965e-009
4.988072e-010
-1.242658e-010
-2.387827e-010
-1.140645e-010
2.128873e-012
2.377238e-011
1.771614e-011
9.282670e-011
2.882301e-010
5.365725e-010
7.111117e-010
7.102848e-010
5.201053e-010
2.189749e-010
-7.162707e-011
-2.562427e-010
-3.109699e-010
-2.786026e-010
-2.203424e-010
-1.616827e-010
-7.482502e-011
8.831384e-011
3.403530e-010
6.289194e-010
8.621976e-010
9.715860e-010
9.597952e-010
8.928112e-010
8.410105e-010
8.183807e-010
7.715718e-010
6.297516e-010
3.759803e-010
8.176953e-011
-1.268979e-010
-1.524903e-010
2.051364e-013
2.157190e-010
3.396461e-010
2.883619e-010
1.197854e-010
3.918850e-012
9.742928e-011
4.037989e-010
7.307609e-010
8.026696e-010
4.707175e-010
-1.292011e-010
-6.090865e-010
-5.616933e-010
1.540997e-010
1.283303e-009
2.308571e-009
2.761799e-009
2.489612e-009
1.683278e-009
6.705716e-010
-3.419233e-010
-1.351671e-009
-2.398991e-009
-3.315742e-009
-3.642164e-009
-2.856824e-009
-8.083228e-010
1.965354e-009
4.324107e-009
5.061888e-009
3.614196e-009
4.965689e-010
-2.845220e-009
-4.748968e-009
-4.235693e-009
-1.578107e-009
1.808375e-009
4.114107e-009
7.191217e-009
3.146717e-009
-2.150295e-009
-5.723149e-009
-5.858453e-009
-2.820529e-009
1.500168e-009
4.745444e-009
5.370929e-009
3.347194e-009
-3.756214e-011
-3.046798e-009
-4.449555e-009
-4.006629e-009
-2.309004e-009
-2.191109e-010
1.639295e-009
3.036201e-009
3.953499e-009
4.330084e-009
3.993870e-009
2.828209e-009
9.962593e-010
-1.006037e-009
-2.551967e-009
-3.213657e-009
-2.988015e-009
-2.264771e-009
-1.568563e-009
-1.255921e-009
-1.357459e-009
-1.636669e-009
-1.789480e-009
-1.635771e-009
-1.188957e-009
-5.883572e-010
3.359088e-011
6.513203e-010
1.352822e-009
2.259818e-009
3.423084e-009
4.767495e-009
6.126032e-009
7.339223e-009
8.347194e-009
9.203666e-009
9.999466e-009
1.075649e-008
1.138156e-008
1.172405e-008
1.169418e-008
1.134373e-008
1.083717e-008
1.033062e-008
9.854530e-009
9.296143e-009
8.499777e-009
7.408660e-009
6.137512e-009
4.915513e-009
3.935980e-009
3.221005e-009
2.604875e-009
1.860338e-009
8.877215e-010
-1.703418e-010
-9.892679e-010
-1.280373e-009
-1.023676e-009
-5.369977e-010
-3.005790e-010
-6.342372e-010
-1.452175e-009
-2.287919e-009
-2.593521e-009
-2.107406e-009
-1.021476e-009
1.767321e-010
1.061074e-009
1.540116e-009
1.831672e-009
2.169257e-009
2.498595e-009
2.442349e-009
1.598047e-009
-4.787849e-011
-1.930829e-009
-3.141626e-009
-2.970175e-009
-1.399827e-009
8.012818e-010
2.485124e-009
2.785327e-009
1.621699e-009
-2.664772e-010
-1.773257e-009
-2.081087e-009
-1.122278e-009
4.177074e-010
1.539528e-009
-2.625485e-009
-2.509501e-009
-1.847234e-009
-2.852991e-010
1.979392e-009
4.089195e-009
4.891532e-009
3.604665e-009
3.866477e-010
-3.578576e-009
-6.592441e-009
-7.287771e-009
-5.318004e-009
-1.487046e-009
2.727947e-009
5.934054e-009
7.397512e-009
7.152436e-009
5.699456e-009
3.595391e-009
1.227391e-009
-1.148191e-009
-3.248861e-009
-4.704054e-009
-5.180545e-009
-4.600826e-009
-3.265196e-009
-1.754134e-009
-6.518093e-010
-2.628433e-010
-4.971236e-010
-9.793478e-010
-1.293871e-009
-1.203185e-009
-7.179552e-010
-6.376394e-012
7.695211e-010
1.572834e-009
2.494556e-009
3.652774e-009
5.068592e-009
6.611343e-009
8.056076e-009
9.215471e-009
1.005029e-008
1.067262e-008
1.123485e-008
1.178923e-008
1.223279e-008
1.238819e-008
1.215935e-008
1.163283e-008
1.103477e-008
1.056937e-008
1.026477e-008
9.950779e-009
9.390932e-009
8.470551e-009
7.297308e-009
6.134929e-009
5.214527e-009
4.561100e-009
3.968281e-009
3.153076e-009
1.990548e-009
6.574553e-010
-4.382330e-010
-9.185627e-010
-7.158341e-010
-1.635498e-010
1.909742e-010
-6.032609e-011
-9.144188e-010
-1.967065e-009
-2.699795e-009
-2.828573e-009
-2.450811e-009
-1.887481e-009
-1.362447e-009
-7.947435e-010
1.106568e-010
1.534256e-009
3.242263e-009
4.580046e-009
4.808973e-009
3.574660e-009
1.185875e-009
-1.491315e-009
-3.458838e-009
-4.064227e-009
-3.256941e-009
-1.520296e-009
4.192929e-010
1.908241e-009
2.559719e-009
2.298452e-009
1.312636e-009
-2.867069e-011
-1.275759e-009
-2.020090e-009
-1.071782e-008
-6.501650e-009
-3.011354e-010
5.372970e-009
8.548815e-009
8.340122e-009
5.069278e-009
2.154334e-011
-5.026475e-009
-8.369703e-009
-8.909505e-009
-6.518023e-009
-2.080376e-009
2.850847e-009
6.673661e-009
8.348300e-009
7.709940e-009
5.359581e-009
2.253151e-009
-7.418347e-010
-3.090242e-009
-4.578102e-009
-5.164152e-009
-4.864277e-009
-3.755881e-009
-2.056954e-009
-1.617530e-010
1.448672e-009
2.395702e-009
2.576753e-009
2.204562e-009
1.678592e-009
1.365247e-009
1.420548e-009
1.755372e-009
2.147063e-009
2.410171e-009
2.511373e-009
2.561030e-009
2.700151e-009
2.970129e-009
3.261345e-009
3.380324e-009
3.189246e-009
2.714480e-009
2.137635e-009
1.668607e-009
1.394815e-009
1.226934e-009
9.898553e-010
5.896575e-010
1.197959e-010
-1.866220e-010
-1.281397e-010
3.033059e-010
9.001804e-010
1.379364e-009
1.581130e-009
1.577146e-009
1.604202e-009
1.869158e-009
2.367771e-009
2.855910e-009
3.006747e-009
2.651699e-009
1.931647e-009
1.235977e-009
9.544161e-010
1.208832e-009
1.759462e-009
2.160765e-009
2.058322e-009
1.410730e-009
4.778500e-010
-4.015358e-010
-1.056851e-009
-1.558886e-009
-2.067580e-009
-2.590816e-009
-2.866938e-009
-2.488283e-009
-1.193694e-009
8.757550e-010
3.141869e-009
4.807653e-009
5.200771e-009
4.058270e-009
1.635188e-009
-1.369197e-009
-4.010063e-009
-5.368953e-009
-4.865183e-009
-2.540658e-009
8.175901e-010
3.867700e-009
5.245129e-009
4.240298e-009
1.252179e-009
-2.305383e-009
-4.676129e-009
-1.353497e-008
-7.036970e-009
1.864494e-009
8.756164e-009
1.082099e-008
7.806767e-009
1.699132e-009
-4.529074e-009
-8.340635e-009
-8.569988e-009
-5.603501e-009
-9.303867e-010
3.601915e-009
6.491554e-009
7.021889e-009
5.352790e-009
2.303177e-009
-1.043630e-009
-3.738888e-009
-5.225696e-009
-5.393306e-009
-4.465827e-009
-2.823520e-009
-8.535299e-010
1.122232e-009
2.853689e-009
4.150031e-009
4.889397e-009
5.056234e-009
4.772255e-009
4.274739e-009
3.825187e-009
3.584602e-009
3.528305e-009
3.459899e-009
3.123902e-009
2.350520e-009
1.142432e-009
-3.491247e-010
-1.938137e-009
-3.526845e-009
-5.152104e-009
-6.923170e-009
-8.897288e-009
-1.098783e-008
-1.297984e-008
-1.464835e-008
-1.589228e-008
-1.677810e-008
-1.745442e-008
-1.800249e-008
-1.834362e-008
-1.828297e-008
-1.765957e-008
-1.648510e-008
-1.495972e-008
-1.334792e-008
-1.180639e-008
-1.029373e-008
-8.632427e-009
-6.681000e-009
-4.491021e-009
-2.329735e-009
-5.421369e-010
6.569605e-010
1.314152e-009
1.695180e-009
2.097414e-009
2.653218e-009
3.265896e-009
3.715460e-009
3.839242e-009
3.639992e-009
3.243148e-009
2.754940e-009
2.153260e-009
1.309403e-009
1.256192e-010
-1.320517e-009
-2.734685e-009
-3.695715e-009
-3.818291e-009
-2.905110e-009
-1.042354e-009
1.365766e-009
3.630484e-009
4.920182e-009
4.546443e-009
2.340591e-009
-1.068184e-009
-4.319709e-009
-5.852776e-009
-4.723831e-009
-1.265364e-009
2.890226e-009
5.576028e-009
5.293013e-009
2.142106e-009
-2.137797e-009
-5.125531e-009
-1.059368e-008
-4.416934e-009
3.499961e-009
8.533561e-009
8.237426e-009
3.324377e-009
-3.125836e-009
-7.585245e-009
-7.945728e-009
-4.373220e-009
1.109971e-009
5.866754e-009
7.941239e-009
6.784322e-009
3.205435e-009
-1.238485e-009
-5.001370e-009
-7.088100e-009
-7.220923e-009
-5.697651e-009
-3.121130e-009
-1.586474e-010
2.606298e-009
4.749535e-009
6.046153e-009
6.482337e-009
6.223062e-009
5.532853e-009
4.678942e-009
3.857998e-009
3.165074e-009
2.591605e-009
2.031709e-009
1.296284e-009
1.534627e-010
-1.596323e-009
-4.036749e-009
-7.093591e-009
-1.056910e-008
-1.423868e-008
-1.795031e-008
-2.166193e-008
-2.539428e-008
-2.913741e-008
-3.278363e-008
-3.614117e-008
-3.902122e-008
-4.133211e-008
-4.310545e-008
-4.443085e-008
-4.534971e-008
-4.579408e-008
-4.562213e-008
-4.472397e-008
-4.311401e-008
-4.093500e-008
-3.836832e-008
-3.551869e-008
-3.236267e-008
-2.880431e-008
-2.480096e-008
-2.046803e-008
-1.608291e-008
-1.197960e-008
-8.405519e-009
-5.439542e-009
-3.020916e-009
-1.050865e-009
5.248026e-010
1.716363e-009
2.554862e-009
3.139599e-009
3.605787e-009
4.031236e-009
4.365612e-009
4.449611e-009
4.110165e-009
3.253052e-009
1.891012e-009
1.240505e-010
-1.858185e-009
-3.720928e-009
-4.946586e-009
-4.942299e-009
-3.343224e-009
-3.791789e-010
2.972148e-009
5.275025e-009
5.334479e-009
2.944935e-009
-8.111478e-010
-4.015167e-009
-4.952774e-009
-3.147935e-009
2.852669e-010
3.267830e-009
4.022941e-009
2.192424e-009
-9.364920e-010
-3.268692e-009
-4.000807e-009
-4.273022e-010
3.588498e-009
4.952339e-009
2.540971e-009
-2.206717e-009
-6.306390e-009
-7.118279e-009
-3.914691e-009
1.764750e-009
7.061137e-009
9.385242e-009
7.709825e-009
2.916895e-009
-2.845302e-009
-7.309511e-009
-9.076921e-009
-7.994199e-009
-4.885882e-009
-9.531129e-010
2.762668e-009
5.618964e-009
7.337682e-009
7.873121e-009
7.331840e-009
5.961252e-009
4.126589e-009
2.212678e-009
4.783023e-010
-1.045637e-009
-2.547952e-009
-4.334966e-009
-6.709376e-009
-9.894671e-009
-1.401412e-008
-1.909264e-008
-2.505602e-008
-3.173389e-008
-3.888843e-008
-4.627258e-008
-5.368984e-008
-6.101825e-008
-6.818396e-008
-7.510805e-008
-8.166917e-008
-8.771049e-008
-9.308292e-008
-9.768721e-008
-1.014796e-007
-1.044359e-007
-1.065057e-007
-1.075941e-007
-1.075905e-007
-1.064204e-007
-1.040809e-007
-1.006318e-007
-9.615021e-008
-9.068775e-008
-8.426797e-008
-7.693315e-008
-6.880855e-008
-6.013520e-008
-5.124182e-008
-4.247287e-008
-3.412484e-008
-2.643330e-008
-1.960190e-008
-1.381814e-008
-9.208815e-009
-5.753986e-009
-3.241093e-009
-1.330164e-009
2.886836e-010
1.755699e-009
3.028759e-009
3.998408e-009
4.612035e-009
4.877864e-009
4.744223e-009
4.000726e-009
2.371831e-009
-1.830276e-010
-3.169745e-009
-5.555003e-009
-6.193288e-009
-4.503089e-009
-9.651485e-010
2.946771e-009
5.458786e-009
5.449779e-009
3.087175e-009
-2.698995e-010
-2.864174e-009
-3.545962e-009
-2.365493e-009
-3.973339e-010
1.050839e-009
1.293099e-009
6.126253e-010
-9.730815e-011
3.251308e-009
2.994194e-009
1.870484e-009
-4.961341e-010
-3.546296e-009
-5.827430e-009
-5.799201e-009
-2.877986e-009
1.990473e-009
6.652728e-009
8.822790e-009
7.299204e-009
2.623841e-009
-3.184704e-009
-7.652109e-009
-9.037353e-009
-7.049380e-009
-2.769378e-009
2.067437e-009
5.943639e-009
8.098386e-009
8.539801e-009
7.692401e-009
6.011909e-009
3.805395e-009
1.260598e-009
-1.476579e-009
-4.317936e-009
-7.338744e-009
-1.085450e-008
-1.536618e-008
-2.138697e-008
-2.926101e-008
-3.908050e-008
-5.072183e-008
-6.393958e-008
-7.844405e-008
-9.393322e-008
-1.100979e-007
-1.266279e-007
-1.432270e-007
-1.596240e-007
-1.755716e-007
-1.908388e-007
-2.052069e-007
-2.184725e-007
-2.304465e-007
-2.409444e-007
-2.497695e-007
-2.567085e-007
-2.615468e-007
-2.640976e-007
-2.642273e-007
-2.618578e-007
-2.569511e-007
-2.494908e-007
-2.394852e-007
-2.269970e-007
-2.121889e-007
-1.953587e-007
-1.769392e-007
-1.574516e-007
-1.374358e-007
-1.173992e-007
-9.782222e-008
-7.920967e-008
-6.212511e-008
-4.713399e-008
-3.464615e-008
-2.474841e-008
-1.716197e-008
-1.138649e-008
-6.944562e-009
-3.545693e-009
-1.048178e-009
7.217963e-010
2.089704e-009
3.424430e-009
4.846337e-009
6.003347e-009
6.174494e-009
4.729929e-009
1.676367e-009
-2.107536e-009
-5.172084e-009
-6.205978e-009
-4.741861e-009
-1.432878e-009
2.261763e-009
4.791491e-009
5.226533e-009
3.607630e-009
8.106171e-010
-1.933902e-009
-3.587596e-009
-3.671938e-009
-2.350378e-009
-2.653202e-010
1.750274e-009
2.964896e-009
8.873408e-009
4.810181e-009
-9.742171e-010
-5.833595e-009
-7.786825e-009
-6.191445e-009
-1.876042e-009
3.277212e-009
7.109806e-009
8.031128e-009
5.634097e-009
8.626613e-010
-4.348602e-009
-7.853632e-009
-8.193382e-009
-5.216878e-009
-1.157785e-010
5.160559e-009
8.810310e-009
9.923973e-009
8.692243e-009
6.035257e-009
2.952318e-009
6.433645e-012
-2.812222e-009
-5.900384e-009
-9.783583e-009
-1.499785e-008
-2.212906e-008
-3.186811e-008
-4.494427e-008
-6.193554e-008
-8.308003e-008
-1.082168e-007
-1.368812e-007
-1.684718e-007
-2.023821e-007
-2.380460e-007
-2.749187e-007
-3.124418e-007
-3.500269e-007
-3.870640e-007
-4.229490e-007
-4.571208e-007
-4.890922e-007
-5.184534e-007
-5.448367e-007
-5.678584e-007
-5.870801e-007
-6.020248e-007
-6.122410e-007
-6.173733e-007
-6.171864e-007
-6.115343e-007
-6.003097e-007
-5.834289e-007
-5.608824e-007
-5.328300e-007
-4.996881e-007
-4.621572e-007
-4.211682e-007
-3.777717e-007
-3.330259e-007
-2.879486e-007
-2.435542e-007
-2.009324e-007
-1.612651e-007
-1.256981e-007
-9.509107e-008
-6.978676e-008
-4.957021e-008
-3.386593e-008
-2.203787e-008
-1.356512e-008
-7.969282e-009
-4.595319e-009
-2.503866e-009
-6.654587e-010
1.607043e-009
4.285520e-009
6.620647e-009
7.573629e-009
6.452645e-009
3.380229e-009
-6.682713e-010
-4.252061e-009
-6.057750e-009
-5.424850e-009
-2.615194e-009
1.247845e-009
4.562000e-009
5.867073e-009
4.510143e-009
1.052767e-009
-2.866449e-009
-5.272526e-009
-4.890653e-009
-1.905660e-009
2.057431e-009
4.801193e-009
1.184774e-008
5.053702e-009
-3.696030e-009
-9.348114e-009
-9.187835e-009
-3.908948e-009
3.215493e-009
8.361839e-009
9.137167e-009
5.517434e-009
-5.050627e-010
-6.110910e-009
-8.952616e-009
-8.005488e-009
-3.769439e-009
2.092543e-009
7.462464e-009
1.056611e-008
1.059231e-008
7.894563e-009
3.678193e-009
-6.859424e-010
-4.377419e-009
-7.515828e-009
-1.107884e-008
-1.649547e-008
-2.522234e-008
-3.853547e-008
-5.754468e-008
-8.325996e-008
-1.165426e-007
-1.579246e-007
-2.074257e-007
-2.645077e-007
-3.282019e-007
-3.973191e-007
-4.706232e-007
-5.469058e-007
-6.249787e-007
-7.036417e-007
-7.816672e-007
-8.578179e-007
-9.308980e-007
-9.998221e-007
-1.063671e-006
-1.121697e-006
-1.173254e-006
-1.217702e-006
-1.254333e-006
-1.282394e-006
-1.301173e-006
-1.310099e-006
-1.308765e-006
-1.296873e-006
-1.274173e-006
-1.240466e-006
-1.195697e-006
-1.140114e-006
-1.074393e-006
-9.996747e-007
-9.174957e-007
-8.296576e-007
-7.381021e-007
-6.448588e-007
-5.520741e-007
-4.620518e-007
-3.771913e-007
-2.997496e-007
-2.314828e-007
-1.733461e-007
-1.254392e-007
-8.723250e-008
-5.791012e-008
-3.658042e-008
-2.222868e-008
-1.352107e-008
-8.721071e-009
-5.908229e-009
-3.449893e-009
-4.658455e-010
2.989935e-009
6.129588e-009
7.899505e-009
7.504144e-009
4.811093e-009
5.372934e-010
-3.855899e-009
-6.614859e-009
-6.438256e-009
-3.233367e-009
1.578650e-009
5.573971e-009
6.568717e-009
3.946572e-009
-8.079245e-010
-4.866908e-009
-5.766577e-009
-3.001048e-009
1.594381e-009
5.003602e-009
1.203685e-008
4.262243e-009
-5.152156e-009
-1.007181e-008
-7.894370e-009
-6.400533e-010
6.813883e-009
9.959442e-009
7.233342e-009
5.295500e-010
-6.304168e-009
-9.772451e-009
-8.425455e-009
-3.193519e-009
3.465119e-009
8.881983e-009
1.125259e-008
1.011370e-008
6.226449e-009
1.047743e-009
-3.989718e-009
-8.165004e-009
-1.190390e-008
-1.680887e-008
-2.529669e-008
-4.004542e-008
-6.352883e-008
-9.781159e-008
-1.445676e-007
-2.051338e-007
-2.804369e-007
-3.707845e-007
-4.756645e-007
-5.937020e-007
-7.228201e-007
-8.605170e-007
-1.004134e-006
-1.151035e-006
-1.298691e-006
-1.444710e-006
-1.586856e-006
-1.723062e-006
-1.851475e-006
-1.970518e-006
-2.078946e-006
-2.175823e-006
-2.260425e-006
-2.332080e-006
-2.390054e-006
-2.433551e-006
-2.461802e-006
-2.474158e-006
-2.470100e-006
-2.449166e-006
-2.410871e-006
-2.354729e-006
-2.280387e-006
-2.187835e-006
-2.077585e-006
-1.950758e-006
-1.809076e-006
-1.654814e-006
-1.490761e-006
-1.320231e-006
-1.147093e-006
-9.757340e-007
-8.108402e-007
-6.569517e-007
-5.178898e-007
-3.962761e-007
-2.933505e-007
-2.091340e-007
-1.427780e-007
-9.286031e-008
-5.749179e-008
-3.429660e-008
-2.045056e-008
-1.291144e-008
-8.813879e-009
-5.881873e-009
-2.720143e-009
1.069277e-009
4.953285e-009
7.755230e-009
8.212277e-009
5.721559e-009
9.531777e-010
-4.125314e-009
-7.060434e-009
-6.270438e-009
-2.142841e-009
2.966106e-009
6.039949e-009
5.295263e-009
1.391396e-009
-2.964419e-009
-4.845658e-009
-3.129405e-009
7.381039e-010
3.814997e-009
9.577245e-009
2.822557e-009
-4.868560e-009
-7.938509e-009
-4.657049e-009
2.150490e-009
7.445074e-009
7.539692e-009
2.417255e-009
-4.563561e-009
-9.060418e-009
-8.449392e-009
-3.138544e-009
4.048482e-009
9.695339e-009
1.155704e-008
9.343531e-009
4.376354e-009
-1.418994e-009
-6.576820e-009
-1.081759e-008
-1.533256e-008
-2.269156e-008
-3.648407e-008
-6.081347e-008
-9.978478e-008
-1.571180e-007
-2.359383e-007
-3.386733e-007
-4.669200e-007
-6.212022e-007
-8.006759e-007
-1.002948e-006
-1.224153e-006
-1.459313e-006
-1.702867e-006
-1.949208e-006
-2.193112e-006
-2.430006e-006
-2.656080e-006
-2.868281e-006
-3.064252e-006
-3.242265e-006
-3.401198e-006
-3.540515e-006
-3.660191e-006
-3.760536e-006
-3.841957e-006
-3.904773e-006
-3.949164e-006
-3.975219e-006
-3.982994e-006
-3.972458e-006
-3.943333e-006
-3.894954e-006
-3.826236e-006
-3.735813e-006
-3.622260e-006
-3.484334e-006
-3.321177e-006
-3.132517e-006
-2.918916e-006
-2.682080e-006
-2.425209e-006
-2.153254e-006
-1.872949e-006
-1.592453e-006
-1.320594e-006
-1.065833e-006
-8.352535e-007
-6.338482e-007
-4.642476e-007
-3.268434e-007
-2.201344e-007
-1.411521e-007
-8.590680e-008
-4.984199e-008
-2.826209e-008
-1.667049e-008
-1.100456e-008
-7.853856e-009
-4.773722e-009
-6.649805e-010
4.039677e-009
7.728195e-009
8.603967e-009
5.938801e-009
8.312645e-010
-4.150265e-009
-6.385176e-009
-4.831052e-009
-7.343408e-010
3.166709e-009
4.472886e-009
2.715418e-009
-4.459001e-010
-2.559401e-009
-2.236664e-009
-1.137222e-010
1.793895e-009
4.737756e-009
7.932374e-010
-3.169738e-009
-3.696359e-009
-4.171040e-010
3.844794e-009
5.398903e-009
2.574195e-009
-2.998473e-009
-7.553168e-009
-7.824613e-009
-3.219676e-009
3.898671e-009
9.806788e-009
1.165693e-008
8.892633e-009
3.130521e-009
-3.167157e-009
-8.307771e-009
-1.245032e-008
-1.786561e-008
-2.858694e-008
-4.984360e-008
-8.754940e-008
-1.479025e-007
-2.370171e-007
-3.604899e-007
-5.228544e-007
-7.269312e-007
-9.731510e-007
-1.258997e-006
-1.578757e-006
-1.923762e-006
-2.283130e-006
-2.644906e-006
-2.997334e-006
-3.329985e-006
-3.634550e-006
-3.905218e-006
-4.138647e-006
-4.333651e-006
-4.490753e-006
-4.611773e-006
-4.699548e-006
-4.757747e-006
-4.790677e-006
-4.803005e-006
-4.799410e-006
-4.784303e-006
-4.761701e-006
-4.735207e-006
-4.707954e-006
-4.682372e-006
-4.659802e-006
-4.640089e-006
-4.621315e-006
-4.599739e-006
-4.569886e-006
-4.524756e-006
-4.456163e-006
-4.355320e-006
-4.213755e-006
-4.024550e-006
-3.783748e-006
-3.491661e-006
-3.153715e-006
-2.780510e-006
-2.386933e-006
-1.990413e-006
-1.608649e-006
-1.257321e-006
-9.482495e-007
-6.883414e-007
-4.794561e-007
-3.191179e-007
-2.018118e-007
-1.204586e-007
-6.763993e-008
-3.629488e-008
-1.991765e-008
-1.258163e-008
-9.183768e-009
-6.042897e-009
-1.549219e-009
3.706065e-009
7.710713e-009
8.524893e-009
5.704333e-009
7.653384e-010
-3.646186e-009
-5.351693e-009
-3.921345e-009
-7.697880e-010
1.950541e-009
2.813832e-009
1.888072e-009
3.442638e-010
-6.418929e-010
-7.515286e-010
-5.020081e-010
-1.714129e-009
-1.745160e-009
-8.540934e-010
1.358888e-009
3.806481e-009
4.474731e-009
2.087806e-009
-2.529495e-009
-6.629660e-009
-7.283014e-009
-3.444249e-009
3.180439e-009
9.107676e-009
1.120075e-008
8.480480e-009
2.459036e-009
-4.123691e-009
-9.301743e-009
-1.348511e-008
-1.999549e-008
-3.462535e-008
-6.480070e-008
-1.189065e-007
-2.059444e-007
-3.352763e-007
-5.160313e-007
-7.558856e-007
-1.059256e-006
-1.425301e-006
-1.846346e-006
-2.307336e-006
-2.786665e-006
-3.258329e-006
-3.694975e-006
-4.071167e-006
-4.366199e-006
-4.565978e-006
-4.663774e-006
-4.659885e-006
-4.560507e-006
-4.376173e-006
-4.120194e-006
-3.807417e-006
-3.453456e-006
-3.074278e-006
-2.685951e-006
-2.304332e-006
-1.944710e-006
-1.621512e-006
-1.348162e-006
-1.137009e-006
-9.991197e-007
-9.437162e-007
-9.773066e-007
-1.102671e-006
-1.317935e-006
-1.615833e-006
-1.983166e-006
-2.400491e-006
-2.842233e-006
-3.277509e-006
-3.671964e-006
-3.990699e-006
-4.202112e-006
-4.282145e-006
-4.218184e-006
-4.011737e-006
-3.679078e-006
-3.249437e-006
-2.760809e-006
-2.254136e-006
-1.767113e-006
-1.329053e-006
-9.580000e-007
-6.605756e-007
-4.341534e-007
-2.702700e-007
-1.579548e-007
-8.602628e-008
-4.410520e-008
-2.278162e-008
-1.366133e-008
-9.801212e-009
-6.487392e-009
-1.816891e-009
3.522463e-009
7.441215e-009
8.125478e-009
5.332539e-009
6.123904e-010
-3.590799e-009
-5.325750e-009
-4.130639e-009
-1.088610e-009
1.967910e-009
3.519033e-009
3.053113e-009
1.113032e-009
-1.160698e-009
-2.632520e-009
-8.190606e-009
-4.257530e-009
1.321197e-009
5.792533e-009
6.944209e-009
4.154735e-009
-1.108725e-009
-5.866745e-009
-7.204207e-009
-4.017448e-009
2.190878e-009
8.084884e-009
1.042912e-008
7.963070e-009
1.996164e-009