# vtk DataFile Version 3.0
vtk output
ASCII
DATASET STRUCTURED_POINTS
DIMENSIONS 100 100 1
SPACING 1 1 1
ORIGIN 0 0 0
POINT_DATA 10000
SCALARS SFBox_profile double
LOOKUP_TABLE default 
9.439853e-003
9.439874e-003
9.439906e-003
9.439935e-003
9.439948e-003
9.439943e-003
9.439927e-003
9.439910e-003
9.439902e-003
9.439904e-003
9.439914e-003
9.439923e-003
9.439928e-003
9.439929e-003
9.439928e-003
9.439926e-003
9.439924e-003
9.439920e-003
9.439915e-003
9.439910e-003
9.439908e-003
9.439910e-003
9.439916e-003
9.439922e-003
9.439927e-003
9.439928e-003
9.439928e-003
9.439928e-003
9.439928e-003
9.439926e-003
9.439923e-003
9.439920e-003
9.439916e-003
9.439914e-003
9.439913e-003
9.439912e-003
9.439912e-003
9.439912e-003
9.439912e-003
9.439914e-003
9.439915e-003
9.439917e-003
9.439918e-003
9.439919e-003
9.439921e-003
9.439922e-003
9.439923e-003
9.439923e-003
9.439923e-003
9.439923e-003
9.439923e-003
9.439923e-003
9.439922e-003
9.439921e-003
9.439920e-003
9.439919e-003
9.439918e-003
9.439917e-003
9.439915e-003
9.439914e-003
9.439913e-003
9.439913e-003
9.439913e-003
9.439913e-003
9.439914e-003
9.439916e-003
9.439919e-003
9.439922e-003
9.439924e-003
9.439925e-003
9.439926e-003
9.439927e-003
9.439927e-003
9.439925e-003
9.439922e-003
9.439918e-003
9.439915e-003
9.439913e-003
9.439914e-003
9.439917e-003
9.439918e-003
9.439920e-003
9.439922e-003
9.439925e-003
9.439926e-003
9.439925e-003
9.439921e-003
9.439916e-003
9.439912e-003
9.439913e-003
9.439918e-003
9.439924e-003
9.439927e-003
9.439926e-003
9.439920e-003
9.439915e-003
9.439914e-003
9.439916e-003
9.439921e-003
9.439925e-003
9.439853e-003
9.439874e-003
9.439906e-003
9.439935e-003
9.439948e-003
9.439943e-003
9.439927e-003
9.439910e-003
9.439902e-003
9.439904e-003
9.439914e-003
9.439923e-003
9.439928e-003
9.439929e-003
9.439928e-003
9.439926e-003
9.439924e-003
9.439920e-003
9.439915e-003
9.439910e-003
9.439908e-003
9.439910e-003
9.439916e-003
9.439922e-003
9.439927e-003
9.439928e-003
9.439928e-003
9.439928e-003
9.439928e-003
9.439926e-003
9.439923e-003
9.439920e-003
9.439916e-003
9.439914e-003
9.439913e-003
9.439912e-003
9.439912e-003
9.439912e-003
9.439912e-003
9.439914e-003
9.439915e-003
9.439917e-003
9.439918e-003
9.439919e-003
9.439921e-003
9.439922e-003
9.439923e-003
9.439923e-003
9.439923e-003
9.439923e-003
9.439923e-003
9.439923e-003
9.439922e-003
9.439921e-003
9.439920e-003
9.439919e-003
9.439918e-003
9.439917e-003
9.439915e-003
9.439914e-003
9.439913e-003
9.439913e-003
9.439913e-003
9.439913e-003
9.439914e-003
9.439916e-003
9.439919e-003
9.439922e-003
9.439924e-003
9.439925e-003
9.439926e-003
9.439927e-003
9.439927e-003
9.439925e-003
9.439922e-003
9.439918e-003
9.439915e-003
9.439913e-003
9.439914e-003
9.439917e-003
9.439918e-003
9.439920e-003
9.439922e-003
9.439925e-003
9.439926e-003
9.439925e-003
9.439921e-003
9.439916e-003
9.439912e-003
9.439913e-003
9.439918e-003
9.439924e-003
9.439927e-003
9.439926e-003
9.439920e-003
9.439915e-003
9.439914e-003
9.439916e-003
9.439921e-003
9.439925e-003
9.439907e-003
9.439912e-003
9.439918e-003
9.439923e-003
9.439925e-003
9.439923e-003
9.439920e-003
9.439917e-003
9.439917e-003
9.439919e-003
9.439922e-003
9.439923e-003
9.439922e-003
9.439919e-003
9.439917e-003
9.439917e-003
9.439919e-003
9.439921e-003
9.439922e-003
9.439922e-003
9.439921e-003
9.439921e-003
9.439921e-003
9.439921e-003
9.439920e-003
9.439919e-003
9.439917e-003
9.439917e-003
9.439917e-003
9.439919e-003
9.439920e-003
9.439921e-003
9.439921e-003
9.439923e-003
9.439924e-003
9.439926e-003
9.439926e-003
9.439927e-003
9.439927e-003
9.439927e-003
9.439927e-003
9.439927e-003
9.439927e-003
9.439927e-003
9.439927e-003
9.439927e-003
9.439926e-003
9.439926e-003
9.439926e-003
9.439926e-003
9.439926e-003
9.439926e-003
9.439926e-003
9.439926e-003
9.439926e-003
9.439927e-003
9.439927e-003
9.439927e-003
9.439926e-003
9.439926e-003
9.439926e-003
9.439926e-003
9.439925e-003
9.439924e-003
9.439923e-003
9.439922e-003
9.439921e-003
9.439920e-003
9.439919e-003
9.439918e-003
9.439918e-003
9.439918e-003
9.439919e-003
9.439920e-003
9.439920e-003
9.439920e-003
9.439921e-003
9.439921e-003
9.439922e-003
9.439921e-003
9.439920e-003
9.439919e-003
9.439918e-003
9.439919e-003
9.439920e-003
9.439921e-003
9.439921e-003
9.439920e-003
9.439919e-003
9.439919e-003
9.439920e-003
9.439921e-003
9.439921e-003
9.439921e-003
9.439920e-003
9.439919e-003
9.439919e-003
9.439920e-003
9.439920e-003
9.439921e-003
9.439972e-003
9.439956e-003
9.439931e-003
9.439909e-003
9.439899e-003
9.439902e-003
9.439913e-003
9.439926e-003
9.439933e-003
9.439934e-003
9.439929e-003
9.439922e-003
9.439915e-003
9.439910e-003
9.439909e-003
9.439910e-003
9.439915e-003
9.439921e-003
9.439928e-003
9.439932e-003
9.439932e-003
9.439930e-003
9.439925e-003
9.439919e-003
9.439914e-003
9.439911e-003
9.439909e-003
9.439909e-003
9.439911e-003
9.439914e-003
9.439919e-003
9.439923e-003
9.439927e-003
9.439930e-003
9.439933e-003
9.439935e-003
9.439937e-003
9.439937e-003
9.439937e-003
9.439936e-003
9.439935e-003
9.439934e-003
9.439933e-003
9.439932e-003
9.439931e-003
9.439931e-003
9.439930e-003
9.439929e-003
9.439929e-003
9.439929e-003
9.439929e-003
9.439929e-003
9.439930e-003
9.439930e-003
9.439931e-003
9.439932e-003
9.439933e-003
9.439933e-003
9.439934e-003
9.439935e-003
9.439935e-003
9.439935e-003
9.439934e-003
9.439932e-003
9.439930e-003
9.439927e-003
9.439924e-003
9.439920e-003
9.439917e-003
9.439914e-003
9.439913e-003
9.439912e-003
9.439913e-003
9.439915e-003
9.439918e-003
9.439922e-003
9.439925e-003
9.439927e-003
9.439927e-003
9.439925e-003
9.439922e-003
9.439918e-003
9.439915e-003
9.439914e-003
9.439914e-003
9.439917e-003
9.439920e-003
9.439924e-003
9.439926e-003
9.439925e-003
9.439921e-003
9.439917e-003
9.439914e-003
9.439915e-003
9.439919e-003
9.439924e-003
9.439925e-003
9.439923e-003
9.439919e-003
9.439916e-003
9.439995e-003
9.439971e-003
9.439935e-003
9.439903e-003
9.439890e-003
9.439896e-003
9.439914e-003
9.439931e-003
9.439939e-003
9.439935e-003
9.439925e-003
9.439916e-003
9.439912e-003
9.439912e-003
9.439914e-003
9.439915e-003
9.439917e-003
9.439921e-003
9.439925e-003
9.439928e-003
9.439929e-003
9.439926e-003
9.439921e-003
9.439917e-003
9.439915e-003
9.439915e-003
9.439916e-003
9.439917e-003
9.439918e-003
9.439920e-003
9.439923e-003
9.439926e-003
9.439928e-003
9.439930e-003
9.439930e-003
9.439931e-003
9.439932e-003
9.439932e-003
9.439933e-003
9.439933e-003
9.439932e-003
9.439932e-003
9.439933e-003
9.439933e-003
9.439933e-003
9.439933e-003
9.439933e-003
9.439933e-003
9.439933e-003
9.439933e-003
9.439933e-003
9.439933e-003
9.439932e-003
9.439932e-003
9.439932e-003
9.439932e-003
9.439932e-003
9.439931e-003
9.439931e-003
9.439931e-003
9.439931e-003
9.439930e-003
9.439930e-003
9.439929e-003
9.439929e-003
9.439927e-003
9.439925e-003
9.439923e-003
9.439921e-003
9.439920e-003
9.439918e-003
9.439917e-003
9.439916e-003
9.439916e-003
9.439918e-003
9.439921e-003
9.439923e-003
9.439925e-003
9.439925e-003
9.439923e-003
9.439922e-003
9.439920e-003
9.439918e-003
9.439916e-003
9.439914e-003
9.439915e-003
9.439919e-003
9.439924e-003
9.439928e-003
9.439927e-003
9.439922e-003
9.439916e-003
9.439912e-003
9.439914e-003
9.439919e-003
9.439925e-003
9.439927e-003
9.439924e-003
9.439918e-003
9.439914e-003
9.439959e-003
9.439945e-003
9.439925e-003
9.439909e-003
9.439904e-003
9.439911e-003
9.439922e-003
9.439930e-003
9.439929e-003
9.439922e-003
9.439914e-003
9.439911e-003
9.439915e-003
9.439922e-003
9.439928e-003
9.439928e-003
9.439924e-003
9.439919e-003
9.439916e-003
9.439916e-003
9.439916e-003
9.439916e-003
9.439916e-003
9.439918e-003
9.439922e-003
9.439927e-003
9.439931e-003
9.439932e-003
9.439931e-003
9.439930e-003
9.439929e-003
9.439928e-003
9.439927e-003
9.439925e-003
9.439924e-003
9.439923e-003
9.439924e-003
9.439925e-003
9.439927e-003
9.439929e-003
9.439930e-003
9.439932e-003
9.439934e-003
9.439936e-003
9.439938e-003
9.439939e-003
9.439939e-003
9.439940e-003
9.439941e-003
9.439941e-003
9.439940e-003
9.439939e-003
9.439939e-003
9.439938e-003
9.439936e-003
9.439934e-003
9.439932e-003
9.439931e-003
9.439929e-003
9.439927e-003
9.439926e-003
9.439924e-003
9.439923e-003
9.439924e-003
9.439924e-003
9.439925e-003
9.439926e-003
9.439926e-003
9.439928e-003
9.439929e-003
9.439929e-003
9.439928e-003
9.439925e-003
9.439922e-003
9.439920e-003
9.439919e-003
9.439918e-003
9.439917e-003
9.439916e-003
9.439917e-003
9.439920e-003
9.439923e-003
9.439925e-003
9.439923e-003
9.439920e-003
9.439917e-003
9.439917e-003
9.439919e-003
9.439922e-003
9.439923e-003
9.439922e-003
9.439918e-003
9.439916e-003
9.439917e-003
9.439920e-003
9.439923e-003
9.439924e-003
9.439922e-003
9.439919e-003
9.439917e-003
9.439893e-003
9.439900e-003
9.439912e-003
9.439923e-003
9.439931e-003
9.439932e-003
9.439928e-003
9.439922e-003
9.439914e-003
9.439908e-003
9.439907e-003
9.439912e-003
9.439921e-003
9.439931e-003
9.439936e-003
9.439934e-003
9.439926e-003
9.439917e-003
9.439910e-003
9.439908e-003
9.439910e-003
9.439913e-003
9.439917e-003
9.439922e-003
9.439927e-003
9.439933e-003
9.439937e-003
9.439938e-003
9.439936e-003
9.439934e-003
9.439932e-003
9.439931e-003
9.439930e-003
9.439930e-003
9.439929e-003
9.439930e-003
9.439931e-003
9.439934e-003
9.439936e-003
9.439938e-003
9.439940e-003
9.439941e-003
9.439943e-003
9.439944e-003
9.439945e-003
9.439945e-003
9.439945e-003
9.439946e-003
9.439946e-003
9.439946e-003
9.439945e-003
9.439945e-003
9.439945e-003
9.439944e-003
9.439944e-003
9.439942e-003
9.439941e-003
9.439939e-003
9.439938e-003
9.439936e-003
9.439934e-003
9.439931e-003
9.439929e-003
9.439929e-003
9.439928e-003
9.439928e-003
9.439928e-003
9.439929e-003
9.439930e-003
9.439932e-003
9.439933e-003
9.439932e-003
9.439930e-003
9.439926e-003
9.439923e-003
9.439920e-003
9.439917e-003
9.439914e-003
9.439912e-003
9.439913e-003
9.439918e-003
9.439923e-003
9.439927e-003
9.439928e-003
9.439925e-003
9.439921e-003
9.439917e-003
9.439915e-003
9.439916e-003
9.439917e-003
9.439920e-003
9.439922e-003
9.439924e-003
9.439923e-003
9.439921e-003
9.439918e-003
9.439917e-003
9.439918e-003
9.439921e-003
9.439923e-003
9.439848e-003
9.439872e-003
9.439906e-003
9.439936e-003
9.439948e-003
9.439942e-003
9.439926e-003
9.439911e-003
9.439905e-003
9.439907e-003
9.439914e-003
9.439921e-003
9.439926e-003
9.439928e-003
9.439928e-003
9.439926e-003
9.439921e-003
9.439917e-003
9.439914e-003
9.439914e-003
9.439918e-003
9.439922e-003
9.439925e-003
9.439927e-003
9.439928e-003
9.439929e-003
9.439930e-003
9.439931e-003
9.439931e-003
9.439932e-003
9.439934e-003
9.439938e-003
9.439941e-003
9.439944e-003
9.439947e-003
9.439948e-003
9.439950e-003
9.439950e-003
9.439950e-003
9.439948e-003
9.439945e-003
9.439941e-003
9.439938e-003
9.439934e-003
9.439930e-003
9.439926e-003
9.439923e-003
9.439921e-003
9.439920e-003
9.439919e-003
9.439920e-003
9.439922e-003
9.439924e-003
9.439928e-003
9.439931e-003
9.439935e-003
9.439938e-003
9.439942e-003
9.439945e-003
9.439947e-003
9.439947e-003
9.439947e-003
9.439946e-003
9.439944e-003
9.439942e-003
9.439939e-003
9.439936e-003
9.439933e-003
9.439931e-003
9.439930e-003
9.439929e-003
9.439928e-003
9.439927e-003
9.439926e-003
9.439925e-003
9.439924e-003
9.439922e-003
9.439919e-003
9.439917e-003
9.439916e-003
9.439917e-003
9.439920e-003
9.439923e-003
9.439924e-003
9.439925e-003
9.439924e-003
9.439921e-003
9.439917e-003
9.439914e-003
9.439914e-003
9.439918e-003
9.439923e-003
9.439928e-003
9.439927e-003
9.439921e-003
9.439915e-003
9.439912e-003
9.439915e-003
9.439922e-003
9.439927e-003
9.439858e-003
9.439881e-003
9.439913e-003
9.439938e-003
9.439944e-003
9.439933e-003
9.439915e-003
9.439905e-003
9.439908e-003
9.439919e-003
9.439929e-003
9.439932e-003
9.439926e-003
9.439917e-003
9.439911e-003
9.439911e-003
9.439915e-003
9.439920e-003
9.439924e-003
9.439928e-003
9.439931e-003
9.439933e-003
9.439933e-003
9.439930e-003
9.439927e-003
9.439924e-003
9.439924e-003
9.439927e-003
9.439931e-003
9.439936e-003
9.439942e-003
9.439947e-003
9.439952e-003
9.439954e-003
9.439954e-003
9.439950e-003
9.439944e-003
9.439935e-003
9.439924e-003
9.439910e-003
9.439894e-003
9.439878e-003
9.439861e-003
9.439845e-003
9.439830e-003
9.439817e-003
9.439806e-003
9.439799e-003
9.439795e-003
9.439795e-003
9.439798e-003
9.439804e-003
9.439814e-003
9.439826e-003
9.439840e-003
9.439856e-003
9.439872e-003
9.439888e-003
9.439904e-003
9.439917e-003
9.439929e-003
9.439938e-003
9.439944e-003
9.439948e-003
9.439949e-003
9.439948e-003
9.439944e-003
9.439940e-003
9.439935e-003
9.439931e-003
9.439927e-003
9.439924e-003
9.439924e-003
9.439925e-003
9.439927e-003
9.439928e-003
9.439928e-003
9.439928e-003
9.439926e-003
9.439923e-003
9.439920e-003
9.439917e-003
9.439915e-003
9.439916e-003
9.439920e-003
9.439923e-003
9.439925e-003
9.439922e-003
9.439918e-003
9.439915e-003
9.439916e-003
9.439921e-003
9.439925e-003
9.439926e-003
9.439921e-003
9.439916e-003
9.439913e-003
9.439916e-003
9.439922e-003
9.439926e-003
9.439911e-003
9.439917e-003
9.439926e-003
9.439929e-003
9.439924e-003
9.439914e-003
9.439907e-003
9.439908e-003
9.439919e-003
9.439932e-003
9.439939e-003
9.439934e-003
9.439921e-003
9.439907e-003
9.439901e-003
9.439906e-003
9.439916e-003
9.439927e-003
9.439933e-003
9.439935e-003
9.439935e-003
9.439934e-003
9.439934e-003
9.439932e-003
9.439930e-003
9.439930e-003
9.439933e-003
9.439938e-003
9.439944e-003
9.439948e-003
9.439949e-003
9.439946e-003
9.439939e-003
9.439928e-003
9.439910e-003
9.439887e-003
9.439857e-003
9.439822e-003
9.439783e-003
9.439739e-003
9.439693e-003
9.439646e-003
9.439599e-003
9.439555e-003
9.439514e-003
9.439480e-003
9.439452e-003
9.439433e-003
9.439422e-003
9.439422e-003
9.439431e-003
9.439449e-003
9.439476e-003
9.439510e-003
9.439549e-003
9.439593e-003
9.439640e-003
9.439687e-003
9.439733e-003
9.439776e-003
9.439816e-003
9.439851e-003
9.439880e-003
9.439904e-003
9.439921e-003
9.439933e-003
9.439941e-003
9.439944e-003
9.439944e-003
9.439940e-003
9.439936e-003
9.439932e-003
9.439929e-003
9.439928e-003
9.439928e-003
9.439929e-003
9.439929e-003
9.439930e-003
9.439931e-003
9.439929e-003
9.439924e-003
9.439918e-003
9.439912e-003
9.439911e-003
9.439915e-003
9.439921e-003
9.439926e-003
9.439926e-003
9.439923e-003
9.439919e-003
9.439917e-003
9.439918e-003
9.439919e-003
9.439920e-003
9.439921e-003
9.439920e-003
9.439920e-003
9.439920e-003
9.439920e-003
9.439921e-003
9.439967e-003
9.439953e-003
9.439932e-003
9.439913e-003
9.439903e-003
9.439903e-003
9.439911e-003
9.439920e-003
9.439929e-003
9.439933e-003
9.439932e-003
9.439925e-003
9.439916e-003
9.439909e-003
9.439909e-003
9.439916e-003
9.439925e-003
9.439932e-003
9.439933e-003
9.439930e-003
9.439927e-003
9.439928e-003
9.439931e-003
9.439937e-003
9.439943e-003
9.439948e-003
9.439952e-003
9.439955e-003
9.439953e-003
9.439944e-003
9.439926e-003
9.439898e-003
9.439860e-003
9.439811e-003
9.439750e-003
9.439675e-003
9.439588e-003
9.439488e-003
9.439379e-003
9.439262e-003
9.439141e-003
9.439018e-003
9.438897e-003
9.438783e-003
9.438681e-003
9.438593e-003
9.438524e-003
9.438476e-003
9.438450e-003
9.438450e-003
9.438473e-003
9.438520e-003
9.438589e-003
9.438676e-003
9.438778e-003
9.438892e-003
9.439013e-003
9.439137e-003
9.439259e-003
9.439376e-003
9.439486e-003
9.439585e-003
9.439672e-003
9.439746e-003
9.439807e-003
9.439855e-003
9.439892e-003
9.439919e-003
9.439936e-003
9.439945e-003
9.439947e-003
9.439946e-003
9.439943e-003
9.439939e-003
9.439934e-003
9.439929e-003
9.439926e-003
9.439926e-003
9.439927e-003
9.439929e-003
9.439927e-003
9.439923e-003
9.439917e-003
9.439914e-003
9.439915e-003
9.439918e-003
9.439922e-003
9.439925e-003
9.439925e-003
9.439924e-003
9.439920e-003
9.439917e-003
9.439914e-003
9.439915e-003
9.439919e-003
9.439924e-003
9.439926e-003
9.439924e-003
9.439919e-003
9.439914e-003
9.439989e-003
9.439963e-003
9.439927e-003
9.439900e-003
9.439895e-003
9.439908e-003
9.439925e-003
9.439934e-003
9.439931e-003
9.439921e-003
9.439913e-003
9.439911e-003
9.439915e-003
9.439922e-003
9.439928e-003
9.439932e-003
9.439933e-003
9.439932e-003
9.439928e-003
9.439924e-003
9.439922e-003
9.439927e-003
9.439937e-003
9.439948e-003
9.439957e-003
9.439960e-003
9.439955e-003
9.439942e-003
9.439916e-003
9.439874e-003
9.439812e-003
9.439726e-003
9.439617e-003
9.439480e-003
9.439314e-003
9.439118e-003
9.438892e-003
9.438638e-003
9.438363e-003
9.438071e-003
9.437769e-003
9.437467e-003
9.437172e-003
9.436896e-003
9.436649e-003
9.436438e-003
9.436273e-003
9.436158e-003
9.436098e-003
9.436097e-003
9.436155e-003
9.436268e-003
9.436433e-003
9.436643e-003
9.436891e-003
9.437169e-003
9.437465e-003
9.437770e-003
9.438074e-003
9.438369e-003
9.438646e-003
9.438900e-003
9.439127e-003
9.439322e-003
9.439486e-003
9.439620e-003
9.439727e-003
9.439809e-003
9.439868e-003
9.439908e-003
9.439932e-003
9.439946e-003
9.439951e-003
9.439949e-003
9.439943e-003
9.439934e-003
9.439927e-003
9.439923e-003
9.439923e-003
9.439925e-003
9.439927e-003
9.439927e-003
9.439926e-003
9.439924e-003
9.439921e-003
9.439918e-003
9.439916e-003
9.439918e-003
9.439921e-003
9.439925e-003
9.439924e-003
9.439920e-003
9.439915e-003
9.439913e-003
9.439918e-003
9.439925e-003
9.439928e-003
9.439926e-003
9.439918e-003
9.439912e-003
9.439967e-003
9.439944e-003
9.439915e-003
9.439898e-003
9.439903e-003
9.439922e-003
9.439939e-003
9.439940e-003
9.439926e-003
9.439907e-003
9.439898e-003
9.439904e-003
9.439920e-003
9.439935e-003
9.439941e-003
9.439939e-003
9.439933e-003
9.439928e-003
9.439926e-003
9.439928e-003
9.439934e-003
9.439942e-003
9.439951e-003
9.439957e-003
9.439953e-003
9.439937e-003
9.439902e-003
9.439845e-003
9.439759e-003
9.439638e-003
9.439472e-003
9.439254e-003
9.438976e-003
9.438634e-003
9.438224e-003
9.437746e-003
9.437201e-003
9.436597e-003
9.435947e-003
9.435263e-003
9.434564e-003
9.433868e-003
9.433197e-003
9.432572e-003
9.432014e-003
9.431542e-003
9.431172e-003
9.430917e-003
9.430786e-003
9.430785e-003
9.430913e-003
9.431167e-003
9.431537e-003
9.432011e-003
9.432572e-003
9.433202e-003
9.433880e-003
9.434582e-003
9.435288e-003
9.435978e-003
9.436634e-003
9.437241e-003
9.437787e-003
9.438265e-003
9.438672e-003
9.439009e-003
9.439281e-003
9.439492e-003
9.439651e-003
9.439766e-003
9.439845e-003
9.439897e-003
9.439928e-003
9.439944e-003
9.439948e-003
9.439944e-003
9.439937e-003
9.439931e-003
9.439926e-003
9.439924e-003
9.439925e-003
9.439928e-003
9.439931e-003
9.439931e-003
9.439927e-003
9.439920e-003
9.439913e-003
9.439912e-003
9.439916e-003
9.439923e-003
9.439926e-003
9.439924e-003
9.439919e-003
9.439915e-003
9.439917e-003
9.439921e-003
9.439925e-003
9.439924e-003
9.439919e-003
9.439915e-003
9.439922e-003
9.439915e-003
9.439908e-003
9.439908e-003
9.439918e-003
9.439932e-003
9.439939e-003
9.439933e-003
9.439918e-003
9.439904e-003
9.439901e-003
9.439912e-003
9.439928e-003
9.439939e-003
9.439940e-003
9.439932e-003
9.439925e-003
9.439926e-003
9.439935e-003
9.439947e-003
9.439958e-003
9.439962e-003
9.439957e-003
9.439938e-003
9.439900e-003
9.439832e-003
9.439725e-003
9.439566e-003
9.439340e-003
9.439031e-003
9.438621e-003
9.438090e-003
9.437427e-003
9.436620e-003
9.435667e-003
9.434570e-003
9.433339e-003
9.431992e-003
9.430556e-003
9.429063e-003
9.427551e-003
9.426061e-003
9.424636e-003
9.423319e-003
9.422151e-003
9.421169e-003
9.420403e-003
9.419877e-003
9.419610e-003
9.419611e-003
9.419879e-003
9.420407e-003
9.421178e-003
9.422167e-003
9.423346e-003
9.424675e-003
9.426115e-003
9.427621e-003
9.429149e-003
9.430657e-003
9.432105e-003
9.433461e-003
9.434696e-003
9.435792e-003
9.436738e-003
9.437534e-003
9.438184e-003
9.438699e-003
9.439094e-003
9.439386e-003
9.439596e-003
9.439742e-003
9.439838e-003
9.439897e-003
9.439930e-003
9.439946e-003
9.439950e-003
9.439947e-003
9.439939e-003
9.439931e-003
9.439925e-003
9.439925e-003
9.439928e-003
9.439931e-003
9.439929e-003
9.439923e-003
9.439916e-003
9.439913e-003
9.439914e-003
9.439920e-003
9.439924e-003
9.439925e-003
9.439923e-003
9.439920e-003
9.439917e-003
9.439918e-003
9.439919e-003
9.439920e-003
9.439921e-003
9.439921e-003
9.439882e-003
9.439895e-003
9.439912e-003
9.439927e-003
9.439933e-003
9.439930e-003
9.439923e-003
9.439917e-003
9.439913e-003
9.439914e-003
9.439920e-003
9.439928e-003
9.439934e-003
9.439934e-003
9.439929e-003
9.439923e-003
9.439924e-003
9.439934e-003
9.439952e-003
9.439967e-003
9.439971e-003
9.439955e-003
9.439916e-003
9.439846e-003
9.439731e-003
9.439550e-003
9.439277e-003
9.438884e-003
9.438336e-003
9.437601e-003
9.436642e-003
9.435427e-003
9.433932e-003
9.432146e-003
9.430067e-003
9.427711e-003
9.425107e-003
9.422298e-003
9.419344e-003
9.416313e-003
9.413283e-003
9.410333e-003
9.407545e-003
9.404995e-003
9.402754e-003
9.400885e-003
9.399439e-003
9.398455e-003
9.397960e-003
9.397968e-003
9.398480e-003
9.399482e-003
9.400949e-003
9.402841e-003
9.405109e-003
9.407689e-003
9.410510e-003
9.413494e-003
9.416558e-003
9.419618e-003
9.422597e-003
9.425423e-003
9.428036e-003
9.430389e-003
9.432454e-003
9.434217e-003
9.435680e-003
9.436859e-003
9.437780e-003
9.438477e-003
9.438988e-003
9.439349e-003
9.439594e-003
9.439754e-003
9.439853e-003
9.439911e-003
9.439943e-003
9.439954e-003
9.439952e-003
9.439942e-003
9.439931e-003
9.439925e-003
9.439924e-003
9.439926e-003
9.439927e-003
9.439926e-003
9.439923e-003
9.439920e-003
9.439918e-003
9.439917e-003
9.439919e-003
9.439922e-003
9.439924e-003
9.439924e-003
9.439921e-003
9.439916e-003
9.439914e-003
9.439916e-003
9.439922e-003
9.439926e-003
9.439865e-003
9.439891e-003
9.439924e-003
9.439944e-003
9.439940e-003
9.439920e-003
9.439903e-003
9.439901e-003
9.439914e-003
9.439931e-003
9.439940e-003
9.439940e-003
9.439932e-003
9.439925e-003
9.439922e-003
9.439927e-003
9.439938e-003
9.439953e-003
9.439965e-003
9.439965e-003
9.439940e-003
9.439880e-003
9.439769e-003
9.439587e-003
9.439301e-003
9.438864e-003
9.438222e-003
9.437311e-003
9.436068e-003
9.434426e-003
9.432324e-003
9.429712e-003
9.426557e-003
9.422853e-003
9.418621e-003
9.413911e-003
9.408802e-003
9.403398e-003
9.397826e-003
9.392225e-003
9.386737e-003
9.381504e-003
9.376656e-003
9.372306e-003
9.368553e-003
9.365473e-003
9.363126e-003
9.361553e-003
9.360779e-003
9.360818e-003
9.361669e-003
9.363317e-003
9.365737e-003
9.368886e-003
9.372706e-003
9.377120e-003
9.382031e-003
9.387323e-003
9.392865e-003
9.398515e-003
9.404127e-003
9.409556e-003
9.414675e-003
9.419376e-003
9.423578e-003
9.427232e-003
9.430320e-003
9.432854e-003
9.434871e-003
9.436427e-003
9.437589e-003
9.438426e-003
9.439006e-003
9.439393e-003
9.439641e-003
9.439794e-003
9.439884e-003
9.439931e-003
9.439950e-003
9.439950e-003
9.439943e-003
9.439933e-003
9.439926e-003
9.439923e-003
9.439923e-003
9.439926e-003
9.439929e-003
9.439928e-003
9.439924e-003
9.439917e-003
9.439913e-003
9.439916e-003
9.439922e-003
9.439927e-003
9.439925e-003
9.439918e-003
9.439913e-003
9.439914e-003
9.439921e-003
9.439927e-003
9.439870e-003
9.439899e-003
9.439934e-003
9.439950e-003
9.439938e-003
9.439911e-003
9.439893e-003
9.439898e-003
9.439920e-003
9.439942e-003
9.439948e-003
9.439938e-003
9.439925e-003
9.439921e-003
9.439931e-003
9.439948e-003
9.439964e-003
9.439968e-003
9.439955e-003
9.439913e-003
9.439826e-003
9.439668e-003
9.439400e-003
9.438969e-003
9.438303e-003
9.437308e-003
9.435877e-003
9.433891e-003
9.431234e-003
9.427793e-003
9.423476e-003
9.418221e-003
9.412014e-003
9.404896e-003
9.396967e-003
9.388389e-003
9.379369e-003
9.370154e-003
9.361005e-003
9.352179e-003
9.343911e-003
9.336394e-003
9.329769e-003
9.324124e-003
9.319500e-003
9.315895e-003
9.313284e-003
9.311626e-003
9.310885e-003
9.311036e-003
9.312070e-003
9.314001e-003
9.316855e-003
9.320665e-003
9.325454e-003
9.331225e-003
9.337945e-003
9.345530e-003
9.353846e-003
9.362705e-003
9.371873e-003
9.381092e-003
9.390094e-003
9.398631e-003
9.406486e-003
9.413500e-003
9.419572e-003
9.424667e-003
9.428809e-003
9.432070e-003
9.434554e-003
9.436380e-003
9.437674e-003
9.438557e-003
9.439135e-003
9.439500e-003
9.439720e-003
9.439846e-003
9.439912e-003
9.439942e-003
9.439951e-003
9.439947e-003
9.439938e-003
9.439928e-003
9.439923e-003
9.439924e-003
9.439929e-003
9.439932e-003
9.439928e-003
9.439919e-003
9.439912e-003
9.439912e-003
9.439919e-003
9.439926e-003
9.439927e-003
9.439921e-003
9.439915e-003
9.439915e-003
9.439919e-003
9.439925e-003
9.439893e-003
9.439911e-003
9.439932e-003
9.439940e-003
9.439928e-003
9.439910e-003
9.439901e-003
9.439910e-003
9.439929e-003
9.439942e-003
9.439941e-003
9.439929e-003
9.439922e-003
9.439930e-003
9.439952e-003
9.439973e-003
9.439978e-003
9.439953e-003
9.439889e-003
9.439767e-003
9.439551e-003
9.439180e-003
9.438567e-003
9.437599e-003
9.436131e-003
9.433990e-003
9.430982e-003
9.426904e-003
9.421564e-003
9.414808e-003
9.406545e-003
9.396776e-003
9.385621e-003
9.373330e-003
9.360280e-003
9.346953e-003
9.333894e-003
9.321661e-003
9.310766e-003
9.301618e-003
9.294479e-003
9.289433e-003
9.286385e-003
9.285072e-003
9.285110e-003
9.286042e-003
9.287398e-003
9.288756e-003
9.289790e-003
9.290310e-003
9.290284e-003
9.289844e-003
9.289266e-003
9.288941e-003
9.289325e-003
9.290880e-003
9.294015e-003
9.299024e-003
9.306044e-003
9.315027e-003
9.325740e-003
9.337789e-003
9.350666e-003
9.363807e-003
9.376652e-003
9.388708e-003
9.399590e-003
9.409048e-003
9.416972e-003
9.423375e-003
9.428367e-003
9.432120e-003
9.434840e-003
9.436739e-003
9.438013e-003
9.438835e-003
9.439341e-003
9.439639e-003
9.439806e-003
9.439896e-003
9.439940e-003
9.439955e-003
9.439952e-003
9.439939e-003
9.439928e-003
9.439923e-003
9.439926e-003
9.439930e-003
9.439929e-003
9.439923e-003
9.439916e-003
9.439913e-003
9.439917e-003
9.439923e-003
9.439925e-003
9.439923e-003
9.439920e-003
9.439918e-003
9.439919e-003
9.439920e-003
9.439926e-003
9.439924e-003
9.439922e-003
9.439918e-003
9.439916e-003
9.439917e-003
9.439922e-003
9.439929e-003
9.439935e-003
9.439934e-003
9.439928e-003
9.439924e-003
9.439930e-003
9.439949e-003
9.439971e-003
9.439978e-003
9.439951e-003
9.439872e-003
9.439714e-003
9.439431e-003
9.438941e-003
9.438117e-003
9.436786e-003
9.434729e-003
9.431682e-003
9.427343e-003
9.421390e-003
9.413522e-003
9.403505e-003
9.391249e-003
9.376867e-003
9.360737e-003
9.343541e-003
9.326256e-003
9.310103e-003
9.296446e-003
9.286644e-003
9.281890e-003
9.283049e-003
9.290520e-003
9.304148e-003
9.323196e-003
9.346386e-003
9.372005e-003
9.398063e-003
9.422480e-003
9.443278e-003
9.458763e-003
9.467676e-003
9.469302e-003
9.463535e-003
9.450889e-003
9.432454e-003
9.409808e-003
9.384872e-003
9.359735e-003
9.336457e-003
9.316869e-003
9.302394e-003
9.293920e-003
9.291730e-003
9.295522e-003
9.304478e-003
9.317413e-003
9.332940e-003
9.349650e-003
9.366278e-003
9.381816e-003
9.395571e-003
9.407175e-003
9.416539e-003
9.423785e-003
9.429171e-003
9.433021e-003
9.435667e-003
9.437412e-003
9.438514e-003
9.439178e-003
9.439561e-003
9.439773e-003
9.439885e-003
9.439938e-003
9.439954e-003
9.439950e-003
9.439938e-003
9.439928e-003
9.439924e-003
9.439925e-003
9.439927e-003
9.439926e-003
9.439923e-003
9.439920e-003
9.439918e-003
9.439918e-003
9.439920e-003
9.439922e-003
9.439923e-003
9.439922e-003
9.439919e-003
9.439917e-003
9.439961e-003
9.439939e-003
9.439911e-003
9.439897e-003
9.439905e-003
9.439925e-003
9.439941e-003
9.439943e-003
9.439934e-003
9.439924e-003
9.439923e-003
9.439934e-003
9.439953e-003
9.439969e-003
9.439971e-003
9.439940e-003
9.439851e-003
9.439667e-003
9.439320e-003
9.438703e-003
9.437647e-003
9.435910e-003
9.433177e-003
9.429056e-003
9.423097e-003
9.414821e-003
9.403791e-003
9.389719e-003
9.372609e-003
9.352934e-003
9.331781e-003
9.310961e-003
9.293016e-003
9.281105e-003
9.278755e-003
9.289494e-003
9.316415e-003
9.361724e-003
9.426356e-003
9.509698e-003
9.609473e-003
9.721805e-003
9.841453e-003
9.962199e-003
1.007734e-002
1.018022e-002
1.026472e-002
1.032576e-002
1.035962e-002
1.036421e-002
1.033923e-002
1.028619e-002
1.020833e-002
1.011037e-002
9.998234e-003
9.878568e-003
9.758246e-003
9.643807e-003
9.540920e-003
9.453930e-003
9.385553e-003
9.336756e-003
9.306830e-003
9.293656e-003
9.294107e-003
9.304534e-003
9.321253e-003
9.340962e-003
9.361022e-003
9.379579e-003
9.395553e-003
9.408513e-003
9.418503e-003
9.425855e-003
9.431036e-003
9.434536e-003
9.436801e-003
9.438201e-003
9.439028e-003
9.439496e-003
9.439748e-003
9.439875e-003
9.439932e-003
9.439950e-003
9.439948e-003
9.439938e-003