# vtk DataFile Version 3.0
vtk output
ASCII
DATASET STRUCTURED_POINTS
DIMENSIONS 100 100 1
SPACING 1 1 1
ORIGIN 0 0 0
POINT_DATA 10000
SCALARS SFBox_profile double
LOOKUP_TABLE default 
9.439920e-003
9.439920e-003
9.439920e-003
9.439921e-003
9.439923e-003
9.439925e-003
9.439929e-003
9.439933e-003
9.439939e-003
9.439946e-003
9.439955e-003
9.439964e-003
9.439973e-003
9.439980e-003
9.439982e-003
9.439974e-003
9.439952e-003
9.439909e-003
9.439838e-003
9.439730e-003
9.439577e-003
9.439372e-003
9.439106e-003
9.438776e-003
9.438378e-003
9.437912e-003
9.437379e-003
9.436785e-003
9.436135e-003
9.435437e-003
9.434700e-003
9.433932e-003
9.433143e-003
9.432341e-003
9.431533e-003
9.430726e-003
9.429923e-003
9.429130e-003
9.428348e-003
9.427580e-003
9.426827e-003
9.426088e-003
9.425364e-003
9.424656e-003
9.423963e-003
9.423289e-003
9.422634e-003
9.422004e-003
9.421404e-003
9.420841e-003
9.420322e-003
9.419858e-003
9.419459e-003
9.419137e-003
9.418906e-003
9.418776e-003
9.418762e-003
9.418874e-003
9.419124e-003
9.419519e-003
9.420065e-003
9.420765e-003
9.421616e-003
9.422612e-003
9.423742e-003
9.424987e-003
9.426326e-003
9.427730e-003
9.429169e-003
9.430608e-003
9.432011e-003
9.433347e-003
9.434585e-003
9.435701e-003
9.436679e-003
9.437509e-003
9.438192e-003
9.438734e-003
9.439148e-003
9.439451e-003
9.439663e-003
9.439803e-003
9.439888e-003
9.439936e-003
9.439957e-003
9.439964e-003
9.439961e-003
9.439954e-003
9.439947e-003
9.439939e-003
9.439933e-003
9.439929e-003
9.439926e-003
9.439923e-003
9.439922e-003
9.439921e-003
9.439920e-003
9.439920e-003
9.439920e-003
9.439920e-003
9.439920e-003
9.439920e-003
9.439920e-003
9.439921e-003
9.439923e-003
9.439925e-003
9.439929e-003
9.439933e-003
9.439939e-003
9.439946e-003
9.439955e-003
9.439964e-003
9.439973e-003
9.439980e-003
9.439982e-003
9.439974e-003
9.439952e-003
9.439909e-003
9.439838e-003
9.439730e-003
9.439577e-003
9.439372e-003
9.439106e-003
9.438776e-003
9.438378e-003
9.437912e-003
9.437379e-003
9.436785e-003
9.436135e-003
9.435437e-003
9.434700e-003
9.433932e-003
9.433143e-003
9.432341e-003
9.431533e-003
9.430726e-003
9.429923e-003
9.429130e-003
9.428348e-003
9.427580e-003
9.426827e-003
9.426088e-003
9.425364e-003
9.424656e-003
9.423963e-003
9.423289e-003
9.422634e-003
9.422004e-003
9.421404e-003
9.420841e-003
9.420322e-003
9.419858e-003
9.419459e-003
9.419137e-003
9.418906e-003
9.418776e-003
9.418762e-003
9.418874e-003
9.419124e-003
9.419519e-003
9.420065e-003
9.420765e-003
9.421616e-003
9.422612e-003
9.423742e-003
9.424987e-003
9.426326e-003
9.427730e-003
9.429169e-003
9.430608e-003
9.432011e-003
9.433347e-003
9.434585e-003
9.435701e-003
9.436679e-003
9.437509e-003
9.438192e-003
9.438734e-003
9.439148e-003
9.439451e-003
9.439663e-003
9.439803e-003
9.439888e-003
9.439936e-003
9.439957e-003
9.439964e-003
9.439961e-003
9.439954e-003
9.439947e-003
9.439939e-003
9.439933e-003
9.439929e-003
9.439926e-003
9.439923e-003
9.439922e-003
9.439921e-003
9.439920e-003
9.439920e-003
9.439920e-003
9.439920e-003
9.439920e-003
9.439921e-003
9.439921e-003
9.439923e-003
9.439925e-003
9.439928e-003
9.439932e-003
9.439937e-003
9.439943e-003
9.439951e-003
9.439959e-003
9.439966e-003
9.439969e-003
9.439964e-003
9.439947e-003
9.439909e-003
9.439841e-003
9.439733e-003
9.439570e-003
9.439341e-003
9.439031e-003
9.438628e-003
9.438123e-003
9.437510e-003
9.436786e-003
9.435952e-003
9.435014e-003
9.433982e-003
9.432867e-003
9.431685e-003
9.430449e-003
9.429176e-003
9.427880e-003
9.426573e-003
9.425268e-003
9.423974e-003
9.422697e-003
9.421444e-003
9.420218e-003
9.419020e-003
9.417851e-003
9.416712e-003
9.415602e-003
9.414521e-003
9.413471e-003
9.412452e-003
9.411469e-003
9.410527e-003
9.409633e-003
9.408798e-003
9.408033e-003
9.407351e-003
9.406769e-003
9.406303e-003
9.405970e-003
9.405790e-003
9.405780e-003
9.405957e-003
9.406338e-003
9.406935e-003
9.407758e-003
9.408812e-003
9.410098e-003
9.411608e-003
9.413328e-003
9.415236e-003
9.417302e-003
9.419486e-003
9.421744e-003
9.424024e-003
9.426273e-003
9.428438e-003
9.430469e-003
9.432324e-003
9.433972e-003
9.435393e-003
9.436581e-003
9.437543e-003
9.438293e-003
9.438858e-003
9.439266e-003
9.439547e-003
9.439732e-003
9.439845e-003
9.439908e-003
9.439940e-003
9.439952e-003
9.439952e-003
9.439948e-003
9.439942e-003
9.439936e-003
9.439931e-003
9.439927e-003
9.439924e-003
9.439923e-003
9.439921e-003
9.439921e-003
9.439920e-003
9.439920e-003
9.439920e-003
9.439921e-003
9.439922e-003
9.439923e-003
9.439925e-003
9.439928e-003
9.439932e-003
9.439938e-003
9.439944e-003
9.439951e-003
9.439958e-003
9.439962e-003
9.439959e-003
9.439944e-003
9.439906e-003
9.439834e-003
9.439712e-003
9.439519e-003
9.439233e-003
9.438828e-003
9.438278e-003
9.437558e-003
9.436648e-003
9.435531e-003
9.434201e-003
9.432657e-003
9.430909e-003
9.428973e-003
9.426874e-003
9.424639e-003
9.422299e-003
9.419885e-003
9.417429e-003
9.414957e-003
9.412494e-003
9.410061e-003
9.407671e-003
9.405339e-003
9.403070e-003
9.400869e-003
9.398738e-003
9.396677e-003
9.394684e-003
9.392757e-003
9.390896e-003
9.389102e-003
9.387375e-003
9.385723e-003
9.384152e-003
9.382674e-003
9.381303e-003
9.380058e-003
9.378960e-003
9.378031e-003
9.377297e-003
9.376785e-003
9.376524e-003
9.376541e-003
9.376865e-003
9.377521e-003
9.378532e-003
9.379918e-003
9.381692e-003
9.383861e-003
9.386422e-003
9.389361e-003
9.392651e-003
9.396251e-003
9.400106e-003
9.404144e-003
9.408282e-003
9.412428e-003
9.416484e-003
9.420353e-003
9.423948e-003
9.427198e-003
9.430050e-003
9.432477e-003
9.434479e-003
9.436074e-003
9.437301e-003
9.438211e-003
9.438859e-003
9.439301e-003
9.439588e-003
9.439764e-003
9.439865e-003
9.439917e-003
9.439940e-003
9.439947e-003
9.439945e-003
9.439940e-003
9.439935e-003
9.439930e-003
9.439927e-003
9.439924e-003
9.439922e-003
9.439921e-003
9.439920e-003
9.439920e-003
9.439920e-003
9.439924e-003
9.439925e-003
9.439927e-003
9.439930e-003
9.439934e-003
9.439940e-003
9.439947e-003
9.439954e-003
9.439960e-003
9.439961e-003
9.439952e-003
9.439922e-003
9.439857e-003
9.439737e-003
9.439535e-003
9.439215e-003
9.438735e-003
9.438049e-003
9.437105e-003
9.435853e-003
9.434248e-003
9.432255e-003
9.429853e-003
9.427039e-003
9.423827e-003
9.420249e-003
9.416352e-003
9.412194e-003
9.407840e-003
9.403356e-003
9.398805e-003
9.394248e-003
9.389735e-003
9.385308e-003
9.380999e-003
9.376832e-003
9.372821e-003
9.368975e-003
9.365296e-003
9.361781e-003
9.358426e-003
9.355226e-003
9.352176e-003
9.349270e-003
9.346509e-003
9.343894e-003
9.341430e-003
9.339126e-003
9.336997e-003
9.335059e-003
9.333333e-003
9.331845e-003
9.330620e-003
9.329688e-003
9.329081e-003
9.328831e-003
9.328973e-003
9.329543e-003
9.330577e-003
9.332110e-003
9.334178e-003
9.336813e-003
9.340045e-003
9.343892e-003
9.348365e-003
9.353455e-003
9.359134e-003
9.365348e-003
9.372014e-003
9.379016e-003
9.386211e-003
9.393432e-003
9.400497e-003
9.407225e-003
9.413450e-003
9.419037e-003
9.423895e-003
9.427980e-003
9.431301e-003
9.433905e-003
9.435874e-003
9.437307e-003
9.438310e-003
9.438981e-003
9.439411e-003
9.439671e-003
9.439819e-003
9.439896e-003
9.439931e-003
9.439943e-003
9.439944e-003
9.439940e-003
9.439935e-003
9.439930e-003
9.439927e-003
9.439924e-003
9.439922e-003
9.439921e-003
9.439921e-003
9.439920e-003
9.439928e-003
9.439929e-003
9.439932e-003
9.439937e-003
9.439943e-003
9.439950e-003
9.439958e-003
9.439963e-003
9.439962e-003
9.439944e-003
9.439898e-003
9.439800e-003
9.439619e-003
9.439311e-003
9.438818e-003
9.438069e-003
9.436977e-003
9.435450e-003
9.433392e-003
9.430713e-003
9.427340e-003
9.423228e-003
9.418366e-003
9.412781e-003
9.406540e-003
9.399741e-003
9.392510e-003
9.384985e-003
9.377309e-003
9.369615e-003
9.362026e-003
9.354642e-003
9.347544e-003
9.340790e-003
9.334417e-003
9.328444e-003
9.322875e-003
9.317703e-003
9.312915e-003
9.308492e-003
9.304417e-003
9.300673e-003
9.297245e-003
9.294122e-003
9.291299e-003
9.288770e-003
9.286536e-003
9.284595e-003
9.282948e-003
9.281597e-003
9.280539e-003
9.279771e-003
9.279289e-003
9.279086e-003
9.279155e-003
9.279494e-003
9.280101e-003
9.280986e-003
9.282166e-003
9.283676e-003
9.285568e-003
9.287913e-003
9.290800e-003
9.294334e-003
9.298632e-003
9.303805e-003
9.309954e-003
9.317145e-003
9.325392e-003
9.334643e-003
9.344762e-003
9.355528e-003
9.366643e-003
9.377755e-003
9.388492e-003
9.398507e-003
9.407512e-003
9.415312e-003
9.421817e-003
9.427037e-003
9.431067e-003
9.434060e-003
9.436196e-003
9.437658e-003
9.438618e-003
9.439219e-003
9.439576e-003
9.439775e-003
9.439878e-003
9.439925e-003
9.439941e-003
9.439944e-003
9.439940e-003
9.439935e-003
9.439930e-003
9.439926e-003
9.439924e-003
9.439922e-003
9.439921e-003
9.439921e-003
9.439934e-003
9.439936e-003
9.439940e-003
9.439946e-003
9.439954e-003
9.439962e-003
9.439967e-003
9.439963e-003
9.439938e-003
9.439873e-003
9.439738e-003
9.439486e-003
9.439050e-003
9.438340e-003
9.437240e-003
9.435607e-003
9.433280e-003
9.430086e-003
9.425862e-003
9.420471e-003
9.413832e-003
9.405930e-003
9.396840e-003
9.386719e-003
9.375804e-003
9.364386e-003
9.352785e-003
9.341320e-003
9.330284e-003
9.319924e-003
9.310432e-003
9.301940e-003
9.294524e-003
9.288208e-003
9.282975e-003
9.278779e-003
9.275550e-003
9.273212e-003
9.271687e-003
9.270906e-003
9.270811e-003
9.271359e-003
9.272518e-003
9.274265e-003
9.276578e-003
9.279436e-003
9.282805e-003
9.286638e-003
9.290866e-003
9.295396e-003
9.300108e-003
9.304856e-003
9.309470e-003
9.313759e-003
9.317522e-003
9.320554e-003
9.322666e-003
9.323692e-003
9.323514e-003
9.322078e-003
9.319412e-003
9.315645e-003
9.311014e-003
9.305873e-003
9.300687e-003
9.296008e-003
9.292448e-003
9.290624e-003
9.291096e-003
9.294289e-003
9.300424e-003
9.309460e-003
9.321071e-003
9.334667e-003
9.349466e-003
9.364596e-003
9.379212e-003
9.392612e-003
9.404301e-003
9.414028e-003
9.421763e-003
9.427650e-003
9.431943e-003
9.434943e-003
9.436953e-003
9.438242e-003
9.439030e-003
9.439488e-003
9.439738e-003
9.439864e-003
9.439920e-003
9.439940e-003
9.439944e-003
9.439940e-003
9.439935e-003
9.439930e-003
9.439926e-003
9.439924e-003
9.439922e-003
9.439921e-003
9.439943e-003
9.439946e-003
9.439952e-003
9.439959e-003
9.439967e-003
9.439972e-003
9.439965e-003
9.439933e-003
9.439851e-003
9.439678e-003
9.439349e-003
9.438771e-003
9.437810e-003
9.436289e-003
9.433985e-003
9.430633e-003
9.425947e-003
9.419650e-003
9.411514e-003
9.401414e-003
9.389383e-003
9.375643e-003
9.360622e-003
9.344935e-003
9.329328e-003
9.314605e-003
9.301549e-003
9.290844e-003
9.283023e-003
9.278437e-003
9.277260e-003
9.279498e-003
9.285021e-003
9.293600e-003
9.304934e-003
9.318689e-003
9.334524e-003
9.352125e-003
9.371219e-003
9.391592e-003
9.413092e-003
9.435622e-003
9.459125e-003
9.483564e-003
9.508899e-003
9.535055e-003
9.561904e-003
9.589240e-003
9.616761e-003
9.644061e-003
9.670624e-003
9.695824e-003
9.718940e-003
9.739169e-003
9.755656e-003
9.767527e-003
9.773929e-003
9.774089e-003
9.767362e-003
9.753304e-003
9.731730e-003
9.702783e-003
9.666987e-003
9.625291e-003
9.579081e-003
9.530165e-003
9.480707e-003
9.433111e-003
9.389834e-003
9.353158e-003
9.324925e-003
9.306289e-003
9.297541e-003
9.298055e-003
9.306379e-003
9.320469e-003
9.338022e-003
9.356818e-003
9.375008e-003
9.391288e-003
9.404935e-003
9.415739e-003
9.423859e-003
9.429677e-003
9.433659e-003
9.436265e-003
9.437896e-003
9.438868e-003
9.439419e-003
9.439712e-003
9.439856e-003
9.439918e-003
9.439940e-003
9.439943e-003
9.439940e-003
9.439934e-003
9.439929e-003
9.439926e-003
9.439924e-003
9.439923e-003
9.439956e-003
9.439960e-003
9.439966e-003
9.439973e-003
9.439977e-003
9.439969e-003
9.439932e-003
9.439835e-003
9.439627e-003
9.439226e-003
9.438504e-003
9.437277e-003
9.435292e-003
9.432217e-003
9.427650e-003
9.421143e-003
9.412257e-003
9.400650e-003
9.386190e-003
9.369086e-003
9.349999e-003
9.330092e-003
9.311006e-003
9.294732e-003
9.283412e-003
9.279102e-003
9.283542e-003
9.297992e-003
9.323142e-003
9.359106e-003
9.405494e-003
9.461517e-003
9.526110e-003
9.598050e-003
9.676059e-003
9.758891e-003
9.845406e-003
9.934628e-003
1.002579e-002
1.011833e-002
1.021193e-002
1.030641e-002
1.040174e-002
1.049789e-002
1.059482e-002
1.069238e-002
1.079018e-002
1.088762e-002
1.098378e-002
1.107743e-002
1.116698e-002
1.125054e-002
1.132591e-002
1.139068e-002
1.144225e-002
1.147793e-002
1.149509e-002
1.149123e-002
1.146419e-002
1.141229e-002
1.133448e-002
1.123061e-002
1.110152e-002
1.094926e-002
1.077720e-002
1.059003e-002
1.039379e-002
1.019554e-002
1.000304e-002
9.824128e-003
9.665947e-003
9.534143e-003
9.432158e-003
9.360776e-003
9.318096e-003
9.299934e-003
9.300602e-003
9.313887e-003
9.333981e-003
9.356175e-003
9.377193e-003
9.395179e-003
9.409429e-003
9.420027e-003
9.427488e-003
9.432486e-003
9.435679e-003
9.437625e-003
9.438756e-003
9.439379e-003
9.439701e-003
9.439855e-003
9.439919e-003
9.439941e-003
9.439943e-003
9.439939e-003
9.439933e-003
9.439929e-003
9.439926e-003
9.439924e-003
9.439974e-003
9.439977e-003
9.439983e-003
9.439986e-003
9.439976e-003
9.439936e-003
9.439829e-003
9.439595e-003
9.439133e-003
9.438283e-003
9.436804e-003
9.434353e-003
9.430470e-003
9.424575e-003
9.416010e-003
9.404127e-003
9.388458e-003
9.368961e-003
9.346328e-003
9.322289e-003
9.299814e-003
9.283119e-003
9.277398e-003
9.288325e-003
9.321387e-003
9.381212e-003
9.471032e-003
9.592377e-003
9.745035e-003
9.927246e-003
1.013606e-002
1.036773e-002
1.061816e-002
1.088314e-002
1.115872e-002
1.144127e-002
1.172773e-002
1.201562e-002
1.230316e-002
1.258919e-002
1.287317e-002
1.315498e-002
1.343481e-002
1.371290e-002
1.398933e-002
1.426384e-002
1.453564e-002
1.480326e-002
1.506447e-002
1.531621e-002
1.555460e-002
1.577497e-002
1.597193e-002
1.613952e-002
1.627133e-002
1.636071e-002
1.640100e-002
1.638579e-002
1.630927e-002
1.616653e-002
1.595404e-002
1.567003e-002
1.531499e-002
1.489214e-002
1.440788e-002
1.387213e-002
1.329846e-002
1.270392e-002
1.210840e-002
1.153340e-002
1.100021e-002
1.052778e-002
1.013042e-002
9.816043e-003
9.585231e-003
9.431525e-003
9.342900e-003
9.304110e-003
9.299310e-003
9.314337e-003
9.338151e-003
9.363316e-003
9.385655e-003
9.403457e-003
9.416570e-003
9.425638e-003
9.431576e-003
9.435276e-003
9.437472e-003
9.438712e-003
9.439376e-003
9.439708e-003
9.439861e-003
9.439923e-003
9.439942e-003
9.439943e-003
9.439938e-003
9.439933e-003
9.439929e-003
9.439927e-003
9.439995e-003
9.439997e-003
9.439998e-003
9.439988e-003
9.439946e-003
9.439835e-003
9.439587e-003
9.439085e-003
9.438139e-003
9.436452e-003
9.433589e-003
9.428943e-003
9.421729e-003
9.411031e-003
9.395947e-003
9.375887e-003
9.351068e-003
9.323202e-003
9.296262e-003
9.277123e-003
9.275784e-003
9.304944e-003
9.378848e-003
9.511590e-003
9.715238e-003
9.998200e-003
1.036421e-002
1.081208e-002
1.133617e-002
1.192738e-002
1.257445e-002
1.326514e-002
1.398730e-002
1.472960e-002
1.548199e-002
1.623600e-002
1.698485e-002
1.772356e-002
1.844888e-002
1.915916e-002
1.985410e-002
2.053436e-002
2.120113e-002
2.185563e-002
2.249868e-002
2.313021e-002
2.374892e-002
2.435205e-002
2.493518e-002
2.549219e-002
2.601523e-002
2.649491e-002
2.692038e-002
2.727962e-002
2.755966e-002
2.774694e-002
2.782768e-002
2.778827e-002
2.761579e-002
2.729861e-002
2.682710e-002
2.619443e-002
2.539756e-002
2.443835e-002
2.332478e-002
2.207220e-002
2.070434e-002
1.925398e-002
1.776257e-002
1.627861e-002
1.485440e-002
1.354128e-002
1.238383e-002
1.141428e-002
1.064825e-002
1.008311e-002
9.699548e-003
9.466127e-003
9.345543e-003
9.301028e-003
9.301265e-003
9.322951e-003
9.351041e-003
9.377352e-003
9.398500e-003
9.413918e-003
9.424375e-003
9.431061e-003
9.435117e-003
9.437459e-003
9.438743e-003
9.439409e-003
9.439731e-003
9.439874e-003
9.439928e-003
9.439943e-003
9.439942e-003
9.439937e-003
9.439933e-003
9.439930e-003
9.440018e-003
9.440016e-003
9.440004e-003
9.439963e-003
9.439855e-003
9.439606e-003
9.439090e-003
9.438093e-003
9.436272e-003
9.433104e-003
9.427834e-003
9.419457e-003
9.406764e-003
9.388551e-003
9.364111e-003
9.334129e-003
9.302068e-003
9.275922e-003
9.269936e-003
9.305630e-003
9.411385e-003
9.620186e-003
9.965670e-003
1.047729e-002
1.117577e-002
1.207000e-002
1.315599e-002
1.441789e-002
1.583072e-002
1.736381e-002
1.898440e-002
2.066060e-002
2.236349e-002
2.406830e-002
2.575490e-002
2.740774e-002
2.901572e-002
3.057184e-002
3.207273e-002
3.351817e-002
3.491032e-002
3.625293e-002
3.755040e-002
3.880690e-002
4.002550e-002
4.120749e-002
4.235181e-002
4.345470e-002
4.450953e-002
4.550677e-002
4.643415e-002
4.727685e-002
4.801781e-002
4.863805e-002
4.911702e-002
4.943293e-002
4.956314e-002
4.948455e-002
4.917407e-002
4.860923e-002
4.776893e-002
4.663452e-002
4.519127e-002
4.343025e-002
4.135085e-002
3.896390e-002
3.629509e-002
3.338839e-002
3.030845e-002
2.714087e-002
2.398905e-002
2.096686e-002
1.818709e-002
1.574742e-002
1.371655e-002
1.212432e-002
1.095879e-002
1.017157e-002
9.689949e-003
9.432217e-003
9.321701e-003
9.296246e-003
9.311863e-003
9.341520e-003
9.371171e-003
9.395165e-003
9.412426e-003
9.423881e-003
9.431018e-003
9.435228e-003
9.437588e-003
9.438843e-003
9.439472e-003
9.439766e-003
9.439890e-003
9.439934e-003
9.439944e-003
9.439942e-003
9.439937e-003
9.439935e-003
9.440038e-003
9.440026e-003
9.439987e-003
9.439885e-003
9.439649e-003
9.439146e-003
9.438152e-003
9.436289e-003
9.432964e-003
9.427295e-003
9.418059e-003
9.403737e-003
9.382781e-003
9.354329e-003
9.319676e-003
9.284764e-003
9.263725e-003
9.282875e-003
9.383856e-003
9.624096e-003
1.007307e-002
1.080402e-002
1.188258e-002
1.335513e-002
1.524009e-002
1.752449e-002
2.016632e-002
2.310148e-002
2.625321e-002
2.954157e-002
3.289128e-002
3.623698e-002
3.952578e-002
4.271774e-002
4.578483e-002
4.870941e-002
5.148250e-002
5.410221e-002
5.657224e-002
5.890050e-002
6.109766e-002
6.317574e-002
6.514669e-002
6.702118e-002
6.880753e-002
7.051094e-002
7.213300e-002
7.367142e-002
7.512011e-002
7.646936e-002
7.770614e-002
7.881454e-002
7.977609e-002
8.057010e-002
8.117384e-002
8.156264e-002
8.170987e-002
8.158682e-002
8.116256e-002
8.040382e-002
7.927507e-002
7.773888e-002
7.575694e-002
7.329195e-002
7.031085e-002
6.678989e-002
6.272161e-002
5.812382e-002
5.304947e-002
4.759555e-002
4.190805e-002
3.617918e-002
3.063379e-002
2.550424e-002
2.099695e-002
1.725864e-002
1.435216e-002
1.225055e-002
1.085148e-002
1.000669e-002
9.556247e-003
9.356803e-003
9.297811e-003
9.305088e-003
9.335479e-003
9.367771e-003
9.393872e-003
9.412303e-003
9.424229e-003
9.431453e-003
9.435591e-003
9.437839e-003
9.438997e-003
9.439556e-003
9.439807e-003
9.439907e-003
9.439939e-003
9.439945e-003
9.439943e-003
9.439940e-003
9.440048e-003
9.440016e-003
9.439925e-003
9.439710e-003
9.439245e-003
9.438303e-003
9.436495e-003
9.433186e-003
9.427397e-003
9.417723e-003
9.402345e-003
9.379332e-003
9.347567e-003
9.308882e-003
9.272048e-003
9.259065e-003
9.313214e-003
9.506733e-003
9.944344e-003
1.075844e-002
1.209359e-002
1.408198e-002
1.681585e-002
2.032530e-002
2.456867e-002
2.943828e-002
3.477884e-002
4.041214e-002
4.616133e-002
5.186947e-002
5.741044e-002
6.269253e-002
6.765657e-002
7.227093e-002
7.652546e-002
8.042565e-002
8.398772e-002
8.723476e-002
9.019377e-002
9.289334e-002
9.536186e-002
9.762607e-002
9.970992e-002
1.016338e-001
1.034138e-001
1.050621e-001
1.065865e-001
1.079908e-001
1.092755e-001
1.104382e-001
1.114743e-001
1.123768e-001
1.131374e-001
1.137458e-001
1.141900e-001
1.144558e-001
1.145259e-001
1.143791e-001
1.139892e-001
1.133232e-001
1.123404e-001
1.109901e-001
1.092103e-001
1.069271e-001
1.040552e-001
1.005009e-001
9.616889e-002
9.097481e-002
8.486357e-002
7.783414e-002
6.996744e-002
6.145055e-002
5.258636e-002
4.377680e-002
3.547341e-002
2.810117e-002
2.197602e-002
1.724492e-002
1.387119e-002
1.166895e-002
1.036942e-002
9.691598e-003
9.394600e-003
9.302024e-003
9.301998e-003
9.333242e-003
9.367502e-003
9.394787e-003
9.413564e-003
9.425365e-003
9.432300e-003
9.436149e-003
9.438174e-003
9.439180e-003
9.439648e-003
9.439848e-003
9.439923e-003
9.439945e-003
9.439947e-003
9.439946e-003
9.440031e-003
9.439963e-003
9.439780e-003
9.439371e-003
9.438522e-003
9.436855e-003
9.433726e-003
9.428112e-003
9.418483e-003
9.402766e-003
9.378629e-003
9.344541e-003
9.302499e-003
9.263679e-003
9.258274e-003
9.349608e-003
9.649878e-003
1.033093e-002
1.162081e-002
1.377806e-002
1.704340e-002
2.157935e-002
2.741790e-002
3.443683e-002
4.237491e-002
5.088030e-002
5.957408e-002
6.810862e-002
7.620692e-002
8.367900e-002
9.041915e-002
9.639151e-002
1.016114e-001
1.061276e-001
1.100073e-001
1.133257e-001
1.161578e-001
1.185742e-001
1.206380e-001
1.224043e-001
1.239198e-001
1.252235e-001
1.263472e-001
1.273167e-001
1.281530e-001
1.288727e-001
1.294893e-001
1.300139e-001
1.304555e-001
1.308220e-001
1.311198e-001
1.313544e-001
1.315302e-001
1.316504e-001
1.317165e-001
1.317283e-001
1.316829e-001
1.315744e-001
1.313926e-001
1.311216e-001
1.307379e-001
1.302072e-001
1.294808e-001
1.284907e-001
1.271428e-001
1.253112e-001
1.228319e-001
1.195023e-001
1.150885e-001
1.093490e-001
1.020808e-001
9.319086e-002
8.277811e-002
7.119894e-002
5.907440e-002
4.721065e-002
3.643628e-002
2.740792e-002
2.046380e-002
1.558632e-002
1.247756e-002
1.069774e-002
9.800456e-003
9.420426e-003
9.304576e-003
9.301882e-003
9.334880e-003
9.370386e-003
9.397787e-003
9.416030e-003
9.427125e-003
9.433434e-003
9.436822e-003
9.438544e-003
9.439369e-003
9.439736e-003
9.439885e-003
9.439937e-003
9.439951e-003
9.439953e-003
9.439966e-003
9.439836e-003
9.439500e-003
9.438775e-003
9.437312e-003
9.434500e-003
9.429325e-003
9.420212e-003
9.404922e-003
9.380751e-003
9.345587e-003
9.300975e-003
9.259164e-003
9.256639e-003
9.375769e-003
9.772440e-003
1.070037e-002
1.251489e-002
1.563653e-002
2.046489e-002
2.725717e-002
3.601383e-002
4.642485e-002
5.790999e-002
6.974206e-002
8.120293e-002
9.171391e-002
1.009048e-001
1.086193e-001
1.148744e-001
1.198021e-001
1.235923e-001
1.264504e-001
1.285715e-001
1.301268e-001
1.312576e-001
1.320754e-001
1.326647e-001
1.330877e-001
1.333893e-001
1.336017e-001
1.337482e-001
1.338459e-001
1.339080e-001
1.339447e-001
1.339642e-001
1.339733e-001
1.339774e-001
1.339804e-001
1.339854e-001
1.339940e-001
1.340070e-001
1.340242e-001
1.340449e-001
1.340677e-001
1.340907e-001
1.341113e-001
1.341264e-001
1.341317e-001
1.341216e-001
1.340888e-001
1.340232e-001
1.339116e-001
1.337353e-001
1.334671e-001
1.330648e-001
1.324602e-001
1.315399e-001
1.301172e-001
1.278967e-001
1.244491e-001
1.192326e-001
1.117030e-001
1.015214e-001
8.879860e-002
7.424734e-002
5.911432e-002
4.486561e-002
3.275135e-002
2.346588e-002
1.705899e-002
1.309165e-002
1.090346e-002
9.847968e-003
9.423581e-003
9.303335e-003
9.304628e-003
9.340314e-003
9.376118e-003
9.402488e-003
9.419366e-003
9.429266e-003
9.434704e-003
9.437525e-003
9.438907e-003
9.439543e-003
9.439813e-003
9.439916e-003
9.439950e-003
9.439958e-003
9.439821e-003
9.439594e-003
9.439017e-003
9.437799e-003
9.435394e-003
9.430856e-003
9.422652e-003
9.408495e-003
9.385408e-003
9.350613e-003
9.304547e-003
9.258592e-003
9.251436e-003
9.378176e-003
9.832383e-003
1.095094e-002
1.323544e-002
1.731100e-002
2.379036e-002
3.305235e-002
4.501067e-002
5.899829e-002
7.386444e-002
8.827050e-002
1.010520e-001
1.114838e-001
1.193577e-001
1.248887e-001
1.285329e-001
1.308085e-001
1.321736e-001
1.329751e-001
1.334484e-001
1.337399e-001
1.339322e-001
1.340659e-001
1.341567e-001
1.342076e-001
1.342179e-001
1.341869e-001
1.341160e-001
1.340085e-001
1.338689e-001
1.337020e-001
1.335125e-001
1.333048e-001
1.330830e-001
1.328514e-001
1.326146e-001
1.323783e-001
1.321491e-001
1.319355e-001
1.317475e-001
1.315965e-001
1.314952e-001
1.314570e-001
1.314953e-001
1.316220e-001
1.318470e-001
1.321756e-001
1.326068e-001
1.331302e-001
1.337224e-001
1.343427e-001
1.349291e-001
1.353962e-001
1.356401e-001
1.355551e-001
1.350624e-001
1.341301e-001
1.327393e-001
1.307497e-001
1.276968e-001
1.226797e-001
1.145666e-001
1.025928e-001
8.703916e-002
6.944126e-002
5.208164e-002
3.707823e-002
2.565317e-002
1.795246e-002
1.335137e-002
1.092592e-002
9.818102e-003
9.402861e-003
9.299648e-003
9.310803e-003
9.349257e-003
9.384082e-003
9.408310e-003
9.423151e-003
9.431527e-003
9.435964e-003
9.438182e-003
9.439228e-003
9.439689e-003
9.439875e-003
9.439942e-003
9.439961e-003
9.439555e-003
9.439180e-003
9.438239e-003
9.436288e-003
9.432502e-003
9.425473e-003
9.412997e-003
9.391988e-003
9.359073e-003
9.313160e-003
9.262862e-003
9.243917e-003
9.353495e-003
9.806047e-003
1.100344e-002
1.358713e-002
1.840922e-002
2.634896e-002
3.795282e-002
5.300726e-002
7.029712e-002
8.780514e-002
1.033678e-001
1.154633e-001
1.236759e-001
1.285951e-001
1.312942e-001
1.327787e-001
1.336933e-001
1.343091e-001
1.346648e-001
1.347233e-001
1.344644e-001
1.339082e-001
1.331021e-001
1.321020e-001
1.309609e-001
1.297240e-001
1.284275e-001
1.270993e-001
1.257600e-001
1.244239e-001
1.231007e-001
1.217965e-001
1.205157e-001
1.192623e-001
1.180410e-001
1.168583e-001
1.157232e-001
1.146472e-001
1.136450e-001
1.127344e-001
1.119360e-001
1.112728e-001
1.107707e-001
1.104572e-001
1.103620e-001
1.105166e-001
1.109533e-001
1.117055e-001
1.128058e-001
1.142841e-001
1.161641e-001
1.184562e-001
1.211465e-001
1.241807e-001
1.274401e-001
1.307156e-001
1.336870e-001
1.359324e-001
1.370057e-001
1.366161e-001
1.348365e-001
1.320213e-001
1.281316e-001
1.219811e-001
1.116451e-001
9.617478e-002
7.691480e-002
5.699575e-002
3.960122e-002
2.655696e-002
1.804758e-002
1.318569e-002
1.075868e-002
9.721345e-003
9.367159e-003
9.297473e-003
9.321083e-003
9.361060e-003
9.393421e-003
9.414583e-003
9.426960e-003
9.433673e-003
9.437097e-003
9.438744e-003
9.439489e-003
9.439802e-003
9.439922e-003
9.439960e-003
9.439118e-003
9.438527e-003
9.437061e-003
9.434065e-003
9.428335e-003
9.417870e-003
9.399675e-003
9.370010e-003
9.326240e-003
9.273058e-003
9.238761e-003
9.310772e-003
9.700469e-003
1.083753e-002
1.346368e-002
1.864341e-002
2.756298e-002
4.102341e-002
5.873043e-002
7.880782e-002
9.811806e-002
1.135691e-001
1.236901e-001
1.292105e-001
1.320706e-001
1.338431e-001
1.350052e-001
1.353310e-001
1.345668e-001
1.327242e-001
1.300235e-001
1.267543e-001
1.231828e-001
1.195153e-001
1.158934e-001
1.124054e-001
1.090994e-001
1.059969e-001
1.031015e-001
1.004058e-001
9.789603e-002
9.555507e-002
9.336527e-002
9.131014e-002
8.937582e-002
8.755199e-002
8.583250e-002
8.421552e-002
8.270353e-002
8.130311e-002
8.002456e-002
7.888157e-002
7.789091e-002
7.707223e-002
7.644807e-002
7.604400e-002
7.588909e-002
7.601661e-002
7.646492e-002
7.727875e-002
7.851053e-002
8.022181e-002
8.248433e-002
8.537994e-002
8.899778e-002
9.342601e-002
9.873372e-002
1.049364e-001
1.119375e-001
1.194406e-001
1.268448e-001
1.331800e-001
1.372309e-001
1.380466e-001
1.357419e-001
1.315448e-001
1.259022e-001
1.167306e-001
1.015118e-001
8.092889e-002
5.894626e-002
3.986461e-002
2.598001e-002
1.732191e-002
1.264145e-002
1.045221e-002
9.589515e-003
9.330764e-003
9.300985e-003
9.335471e-003
9.374661e-003
9.403157e-003
9.420671e-003
9.430447e-003
9.435538e-003
9.438034e-003
9.439188e-003
9.439686e-003
9.439884e-003
9.439950e-003
9.438451e-003
9.437559e-003
9.435367e-003
9.430940e-003
9.422588e-003
9.407599e-003
9.382189e-003
9.342571e-003
9.289446e-003
9.241312e-003
9.266768e-003
9.550364e-003
1.050244e-002
1.289532e-002
1.794126e-002
2.713459e-002
4.165249e-002
6.132068e-002
8.370201e-002
1.044144e-001
1.193734e-001
1.276427e-001
1.317041e-001
1.342718e-001
1.357423e-001
1.351202e-001
1.319102e-001
1.265510e-001
1.199025e-001
1.127708e-001
1.057245e-001
9.909446e-002
9.303615e-002
8.759468e-002
8.275333e-002
7.846498e-002
7.467056e-002
7.130897e-002
6.832185e-002
6.565567e-002
6.326263e-002
6.110098e-002
5.913515e-002
5.733577e-002
5.567954e-002
5.414894e-002
5.273181e-002
5.142088e-002
5.021317e-002
4.910939e-002
4.811343e-002
4.723188e-002
4.647375e-002
4.585031e-002
4.537515e-002
4.506453e-002
4.493799e-002
4.501921e-002
4.533734e-002
4.592883e-002
4.683975e-002
4.812904e-002
4.987251e-002
5.216797e-002
5.514081e-002
5.894936e-002
6.378710e-002
6.987658e-002
7.744418e-002
8.665771e-002
9.750029e-002
1.095566e-001
1.217314e-001
1.320661e-001
1.381039e-001
1.383622e-001
1.341313e-001
1.280114e-001
1.190310e-001
1.034346e-001
8.132753e-002
5.770270e-002
3.782600e-002
2.405313e-002
1.595726e-002
1.186356e-002