# vtk DataFile Version 3.0
vtk output
ASCII
DATASET STRUCTURED_POINTS
DIMENSIONS 100 100 1
SPACING 1 1 1
ORIGIN 0 0 0
POINT_DATA 10000
SCALARS SFBox_profile double
LOOKUP_TABLE default 
0.000000e+000
0.000000e+000
0.000000e+000
0.000000e+000
0.000000e+000
0.000000e+000
0.000000e+000
0.000000e+000
0.000000e+000
0.000000e+000
0.000000e+000
0.000000e+000
0.000000e+000
0.000000e+000
0.000000e+000
0.000000e+000
0.000000e+000
0.000000e+000
0.000000e+000
0.000000e+000
0.000000e+000
0.000000e+000
0.000000e+000
0.000000e+000
0.000000e+000
0.000000e+000
0.000000e+000
0.000000e+000
0.000000e+000
0.000000e+000
0.000000e+000
0.000000e+000
0.000000e+000
0.000000e+000
0.000000e+000
0.000000e+000
0.000000e+000
0.000000e+000
0.000000e+000
0.000000e+000
0.000000e+000
0.000000e+000
0.000000e+000
0.000000e+000
0.000000e+000
0.000000e+000
0.000000e+000
0.000000e+000
0.000000e+000
0.000000e+000
0.000000e+000
0.000000e+000
0.000000e+000
0.000000e+000
0.000000e+000
0.000000e+000
0.000000e+000
0.000000e+000
0.000000e+000
0.000000e+000
0.000000e+000
0.000000e+000
0.000000e+000
0.000000e+000
0.000000e+000
0.000000e+000
0.000000e+000
0.000000e+000
0.000000e+000
0.000000e+000
0.000000e+000
0.000000e+000
0.000000e+000
0.000000e+000
0.000000e+000
0.000000e+000
0.000000e+000
0.000000e+000
0.000000e+000
0.000000e+000
0.000000e+000
0.000000e+000
0.000000e+000
0.000000e+000
0.000000e+000
0.000000e+000
0.000000e+000
0.000000e+000
0.000000e+000
0.000000e+000
0.000000e+000
0.000000e+000
0.000000e+000
0.000000e+000
0.000000e+000
0.000000e+000
0.000000e+000
0.000000e+000
0.000000e+000
0.000000e+000
-1.042657e-011
-3.733489e-012
4.005245e-012
7.586588e-012
6.442674e-012
3.229301e-012
-1.699434e-014
-2.858605e-012
-4.634019e-012
-4.093372e-012
-1.577092e-012
2.494492e-013
-5.409021e-013
-2.154092e-012
-1.145782e-012
2.405107e-012
4.087080e-012
1.041035e-012
-3.192382e-012
-2.638746e-012
2.744204e-012
6.219862e-012
3.072218e-012
-3.011083e-012
-5.237021e-012
-2.974165e-012
-1.452675e-012
-3.081205e-012
-4.228272e-012
-2.083310e-012
1.863742e-013
-1.301939e-012
-4.241824e-012
-3.284065e-012
1.614264e-012
5.032123e-012
4.166756e-012
2.272826e-012
2.824498e-012
4.580677e-012
4.869110e-012
4.348774e-012
5.164489e-012
6.526908e-012
5.866818e-012
3.523018e-012
2.683792e-012
4.434576e-012
6.072771e-012
5.312753e-012
3.416906e-012
2.555848e-012
2.471945e-012
1.967394e-012
1.762815e-012
2.917853e-012
3.705374e-012
1.668374e-012
-1.576568e-012
-1.708885e-012
1.480055e-012
3.070494e-012
6.262890e-013
-1.841773e-012
-7.422889e-013
9.359201e-013
-6.993504e-013
-2.663506e-012
3.033304e-014
4.316987e-012
2.511114e-012
-4.410381e-012
-6.355663e-012
4.384831e-013
6.722619e-012
4.359777e-012
-1.114862e-012
-2.661700e-013
4.122481e-012
1.632837e-012
-7.500269e-012
-1.074765e-011
-2.303760e-012
6.874481e-012
4.422593e-012
-5.491414e-012
-8.438768e-012
-5.152130e-013
6.764089e-012
3.531216e-012
-4.628858e-012
-4.993185e-012
4.447256e-012
1.180136e-011
6.089727e-012
-9.117953e-012
-1.904236e-011
-1.302213e-011
5.005708e-012
2.029397e-011
-2.119204e-012
-1.356383e-012
-4.230430e-013
4.183712e-013
1.524530e-012
2.895837e-012
3.309427e-012
1.313374e-012
-2.674052e-012
-5.900601e-012
-5.609520e-012
-1.865354e-012
2.333905e-012
3.971706e-012
2.764051e-012
6.749567e-013
-8.274144e-013
-1.958523e-012
-2.973642e-012
-2.823132e-012
-7.145843e-013
1.822596e-012
2.205150e-012
2.258611e-013
-1.478829e-012
-9.537170e-013
7.063500e-013
1.561492e-012
1.780828e-012
2.542378e-012
3.211786e-012
2.154294e-012
-1.880799e-014
-7.013662e-013
7.712126e-013
1.896214e-012
7.173956e-013
-1.403558e-012
-2.203432e-012
-1.835160e-012
-1.849707e-012
-2.267545e-012
-1.969504e-012
-1.277405e-012
-1.684704e-012
-3.056387e-012
-3.389878e-012
-1.912729e-012
-4.014095e-013
-5.064624e-013
-1.488405e-012
-1.825244e-012
-1.525038e-012
-1.298016e-012
-7.460249e-013
6.241321e-013
1.534611e-012
4.850171e-013
-1.252348e-012
-8.791554e-013
1.536553e-012
2.797501e-012
1.488992e-012
6.391165e-014
5.106244e-013
1.126030e-012
7.689020e-014
-7.721652e-013
8.269426e-013
2.662411e-012
9.787846e-013
-2.933364e-012
-3.951119e-012
-9.734673e-013
1.361026e-012
1.660682e-014
-2.095287e-012
-1.494269e-012
3.028872e-013
1.663414e-013
-8.349919e-013
5.265145e-013
3.334697e-012
2.962913e-012
-1.940994e-012
-6.813720e-012
-6.902629e-012
-2.770817e-012
1.615459e-012
3.978113e-012
4.587978e-012
3.559205e-012
3.367169e-013
-3.896015e-012
-5.787743e-012
-3.298892e-012
1.366429e-012
3.784651e-012
2.263220e-012
-3.598184e-013
6.403172e-012
1.642400e-012
-3.680080e-012
-5.637315e-012
-3.725164e-012
-1.823545e-013
2.499267e-012
2.920870e-012
8.423989e-013
-2.509394e-012
-4.292269e-012
-2.044714e-012
2.994291e-012
5.829302e-012
2.891072e-012
-3.177522e-012
-6.067444e-012
-3.458256e-012
2.544320e-013
1.972761e-013
-2.337337e-012
-2.299160e-012
1.333835e-012
4.072403e-012
2.794829e-012
3.172049e-013
8.278893e-013
3.655284e-012
4.864956e-012
3.398447e-012
1.921383e-012
2.003373e-012
2.018983e-012
5.420307e-013
-1.186180e-012
-1.600590e-012
-1.400011e-012
-2.066161e-012
-3.338557e-012
-3.884324e-012
-3.523652e-012
-3.211276e-012
-3.370102e-012
-3.592740e-012
-3.660535e-012
-3.718035e-012
-3.640802e-012
-3.156965e-012
-2.505939e-012
-2.239956e-012
-2.445651e-012
-2.698554e-012
-2.639156e-012
-2.180291e-012
-1.414200e-012
-7.167376e-013
-5.775212e-013
-9.117805e-013
-1.004135e-012
-5.054272e-013
1.046737e-013
4.410392e-013
7.538823e-013
1.042664e-012
7.447600e-013
7.719291e-014
2.788111e-013
1.427548e-012
1.644286e-012
1.036748e-013
-1.025030e-012
-6.477359e-015
1.013836e-012
-6.633866e-013
-3.142456e-012
-2.605316e-012
-2.995832e-013
-1.209327e-012
-4.996226e-012
-4.671427e-012
2.523116e-012
8.837080e-012
6.133137e-012
-1.926376e-012
-4.935793e-012
-1.036946e-012
1.031891e-012
-3.598428e-012
-7.431463e-012
-1.779083e-012
8.700629e-012
1.023037e-011
-1.680245e-012
-1.456752e-011
-1.290597e-011
3.454058e-012
1.833624e-011
1.631376e-011
-1.342004e-012
-1.802150e-011
8.616826e-012
3.307193e-012
-2.556839e-012
-5.345588e-012
-5.671242e-012
-5.517739e-012
-4.435584e-012
-6.545614e-013
4.723032e-012
7.374618e-012
4.824764e-012
1.363351e-014
-2.343757e-012
-1.914503e-012
-2.356542e-012
-4.740276e-012
-5.005365e-012
-2.641495e-013
5.247471e-012
4.792552e-012
-1.122969e-012
-4.560274e-012
-1.041548e-012
4.170976e-012
4.012422e-012
-1.775161e-013
-1.606220e-012
1.139825e-012
2.654585e-012
1.421685e-013
-2.197224e-012
-5.199184e-013
2.327795e-012
1.759581e-012
-1.118440e-012
-1.711135e-012
6.552088e-013
2.339444e-012
1.614906e-012
7.826995e-013
1.631052e-012
2.638358e-012
2.059347e-012
9.149271e-013
1.048073e-012
2.098743e-012
2.329388e-012
1.450488e-012
8.072448e-013
1.089554e-012
1.411437e-012
9.791426e-013
4.172139e-013
6.081313e-013
1.008171e-012
4.392332e-013
-7.041743e-013
-7.426326e-013
3.808935e-013
4.975296e-013
-1.225031e-012
-2.307964e-012
-8.184012e-013
9.381117e-013
2.143196e-014
-1.664025e-012
-2.868306e-013
2.541517e-012
1.535129e-012
-2.660304e-012
-2.971298e-012
2.362971e-012
5.342659e-012
7.114685e-013
-4.497715e-012
-1.908260e-012
3.708823e-012
1.596598e-012
-6.546772e-012
-7.934304e-012
6.552284e-013
6.571683e-012
1.005793e-012
-6.337635e-012
-1.890072e-012
1.000720e-011
1.227067e-011
-1.292398e-013
-1.257282e-011
-1.093231e-011
1.171774e-013
5.269610e-012
-4.681779e-013
-6.854742e-012
-3.413998e-012
7.336682e-012
1.384260e-011
8.860323e-012
-3.844582e-012
-1.410244e-011
5.739022e-012
2.826510e-012
-4.283864e-013
-2.605314e-012
-4.838643e-012
-7.784957e-012
-8.663509e-012
-3.644588e-012
6.218497e-012
1.347176e-011
1.102348e-011
3.272856e-013
-9.307991e-012
-1.043231e-011
-4.709900e-012
8.651102e-013
2.973373e-012
3.927905e-012
5.262024e-012
4.170915e-012
-1.094410e-012
-6.089357e-012
-5.140357e-012
2.268939e-013
3.041454e-012
8.509214e-013
-1.549097e-012
-5.095623e-013
1.066629e-012
-1.976964e-013
-1.748306e-012
3.869234e-013
4.177066e-012
4.402088e-012
1.136420e-012
-3.779150e-013
1.947120e-012
4.371124e-012
3.913096e-012
2.592483e-012
3.021635e-012
3.917658e-012
2.988814e-012
1.366615e-012
1.731401e-012
3.669350e-012
4.229431e-012
2.588935e-012
1.147906e-012
1.642664e-012
2.753697e-012
2.715417e-012
2.143182e-012
2.401708e-012
2.724648e-012
1.556827e-012
1.421876e-014
7.459715e-013
3.098149e-012
3.125947e-012
-1.257253e-013
-2.295714e-012
-4.458921e-013
1.866486e-012
5.687520e-013
-1.639526e-012
-8.640496e-014
2.694154e-012
6.047533e-013
-4.415758e-012
-3.920302e-012
2.729987e-012
5.686167e-012
1.655031e-013
-5.183028e-012
-2.099885e-012
3.880395e-012
3.055174e-012
-2.241101e-012
-2.455196e-012
2.009130e-012
1.239326e-012
-6.396599e-012
-9.386206e-012
-3.042435e-013
1.198837e-011
1.407016e-011
5.130077e-012
-4.880492e-012
-9.637648e-012
-1.068694e-011
-9.207064e-012
-2.623239e-012
8.020154e-012
1.415401e-011
8.752077e-012
-3.331949e-012
-9.563885e-012
-4.558219e-012
3.517618e-012
1.771187e-012
6.045376e-013
-1.147686e-012
-2.583139e-012
-3.169240e-012
-3.179724e-012
-2.818580e-012
-1.174187e-012
2.535982e-012
6.280287e-012
5.663891e-012
-8.695853e-013
-8.119012e-012
-8.335243e-012
-3.577736e-013
7.941680e-012
8.556808e-012
2.750354e-012
-1.772496e-012
-1.750748e-012
-1.419779e-012
-3.977490e-012
-5.740497e-012
-2.423355e-012
3.150255e-012
4.811444e-012
2.048160e-012
-2.463536e-013
1.909734e-013
8.752520e-013
4.849488e-013
1.139541e-012
3.353615e-012
3.895212e-012
1.165944e-012
-1.499841e-012
-8.577829e-013
1.393994e-012
1.931396e-012
1.045583e-012
1.069199e-012
1.796975e-012
1.355508e-012
3.491845e-013
1.215211e-012
3.730730e-012
4.762091e-012
3.084507e-012
1.297626e-012
1.760534e-012
3.295555e-012
3.706527e-012
3.277583e-012
3.365956e-012
3.307207e-012
1.832280e-012
5.076756e-013
1.999804e-012
5.011632e-012
5.131246e-012
1.685234e-012
-6.491970e-013
9.061240e-013
2.929728e-012
1.966445e-012
3.728384e-013
1.343960e-012
2.317899e-012
-4.164654e-013
-3.791086e-012
-2.075109e-012
2.937066e-012
3.872007e-012
-5.641354e-013
-4.028503e-012
-3.179141e-012
-1.484872e-012
-7.620418e-013
2.209264e-012
7.217671e-012
7.391566e-012
-1.217478e-013
-7.537388e-012
-7.059308e-012
-1.989091e-012
2.851084e-013
9.492690e-013
5.683439e-012
1.090860e-011
5.826485e-012
-9.663351e-012
-1.935824e-011
-9.782714e-012
1.076501e-011
2.010176e-011
8.165875e-012
-1.123814e-011
-1.672513e-011
-3.492840e-012
1.225691e-011
-3.628925e-012
-2.328589e-012
-2.038042e-012
-2.605857e-012
-8.656954e-013
3.827759e-012
6.658808e-012
2.978511e-012
-4.576778e-012
-8.183391e-012
-4.425286e-012
1.555528e-012
3.343550e-012
1.722842e-012
2.062651e-012
4.798994e-012
4.239891e-012
-1.695954e-012
-6.385884e-012
-3.597789e-012
2.640651e-012
3.674152e-012
-6.451926e-013
-2.128920e-012
2.426905e-012
6.170227e-012
3.199664e-012
-2.549023e-012
-4.168438e-012
-1.949207e-012
-7.684774e-013
-1.306457e-012
-4.368380e-013
1.810955e-012
2.193735e-012
5.876490e-013
6.463693e-013
3.730537e-012
6.966477e-012
8.160185e-012
8.519787e-012
9.424065e-012
1.020549e-011
1.054217e-011
1.176664e-011
1.408139e-011
1.520049e-011
1.371758e-011
1.158018e-011
1.122925e-011
1.214546e-011
1.232035e-011
1.145397e-011
1.036422e-011
8.736565e-012
6.195045e-012
4.474111e-012
5.367989e-012
7.140964e-012
6.363139e-012
3.148682e-012
1.026038e-012
1.438162e-012
2.231297e-012
2.108466e-012
2.260965e-012
2.574630e-012
9.738415e-013
-1.777544e-012
-1.707431e-012
1.692450e-012
3.793493e-012
2.460457e-012
1.287311e-012
1.850583e-012
-3.161502e-014
-5.145988e-012
-5.827863e-012
2.120811e-012
9.555620e-012
6.284891e-012
-2.305606e-012
-3.302928e-012
2.300407e-012
9.352871e-013
-9.746000e-012
-1.379620e-011
-5.878101e-013
1.678025e-011
1.764606e-011
1.409658e-012
-1.267038e-011
-1.095849e-011
1.084928e-014
5.854785e-012
2.386457e-012
-3.231504e-012
-4.054314e-012
-3.662904e-013
3.229096e-012
-1.218456e-011
-4.779768e-012
1.837409e-012
2.900528e-012
2.298213e-012
4.772154e-012
7.231193e-012
2.719468e-012
-7.957431e-012
-1.405223e-011
-7.270867e-012
6.668010e-012
1.348642e-011
7.184731e-012
-3.392908e-012
-6.856206e-012
-3.175228e-012
-2.788845e-013
-4.982389e-013
1.379792e-012
6.632827e-012
8.390073e-012
2.816116e-012
-3.251280e-012
-2.263118e-012
2.263327e-012
1.791264e-012
-3.411468e-012
-5.402712e-012
-1.726105e-012
1.855598e-012
2.137361e-012
3.106858e-012
7.520842e-012
1.166326e-011
1.225716e-011
1.236410e-011
1.598100e-011
2.142871e-011
2.457121e-011
2.522376e-011
2.614667e-011
2.812399e-011
2.990748e-011
3.133473e-011
3.305061e-011
3.421708e-011
3.349283e-011
3.159729e-011
3.049071e-011
3.053547e-011
3.041425e-011
2.919246e-011
2.678657e-011
2.328976e-011
1.949138e-011
1.700145e-011
1.616112e-011
1.503749e-011
1.219873e-011
8.886122e-012
6.620456e-012
4.826052e-012
3.102282e-012
3.023133e-012
4.518340e-012
3.862105e-012
-3.822412e-013
-3.098509e-012
-1.065082e-013
3.908438e-012
2.580651e-012
-6.543719e-013
1.820853e-012
7.197376e-012
5.602257e-012
-2.106528e-012
-3.978750e-012
2.605652e-012
5.065059e-012
-3.036972e-012
-9.202311e-012
-1.663259e-012
9.993715e-012
8.374506e-012
-5.008857e-012
-1.234601e-011
-5.790470e-012
4.274968e-012
7.850777e-012
7.504507e-012
7.426549e-012
3.319519e-012
-7.778637e-012
-1.624753e-011
-1.012509e-011
6.107541e-012
1.395901e-011
4.367246e-012
-9.685117e-012
-1.829465e-011
-5.846380e-012
7.157687e-012
1.040926e-011
4.869769e-012
-8.711477e-013
-1.792988e-012
-1.068698e-012
-3.212500e-012
-6.016749e-012
-3.118479e-012
5.605379e-012
1.088038e-011
4.967628e-012
-6.762721e-012
-1.097072e-011
-3.307291e-012
6.147674e-012
7.200947e-012
2.653287e-012
1.226480e-012
3.082576e-012
1.500814e-012
-3.667686e-012
-4.763857e-012
6.894735e-013
5.701596e-012
5.535260e-012
4.822455e-012
8.457634e-012
1.336340e-011
1.513602e-011
1.623611e-011
2.086502e-011
2.682494e-011
2.948719e-011
3.022981e-011
3.402190e-011
4.090651e-011
4.632956e-011
4.877661e-011
5.128439e-011
5.563469e-011
6.002618e-011
6.290722e-011
6.506620e-011
6.712003e-011
6.806966e-011
6.730397e-011
6.586965e-011
6.489936e-011
6.408935e-011
6.215424e-011
5.814393e-011
5.252228e-011
4.714271e-011
4.327264e-011
3.972388e-011
3.463419e-011
2.880970e-011
2.453270e-011
2.123585e-011
1.641989e-011
1.117627e-011
9.412812e-012
1.024544e-011
7.828405e-012
1.552841e-012
-1.263976e-012
2.414890e-012
4.796899e-012
-2.659842e-014
-5.146876e-012
-2.148661e-012
4.206068e-012
4.418912e-012
1.055992e-012
3.073012e-012
7.664667e-012
3.808805e-012
-7.146097e-012
-1.092977e-011
-2.574952e-012
6.343308e-012
6.919335e-012
4.343067e-012
3.667547e-012
-8.297314e-013
-1.138615e-011
-1.461985e-011
9.558039e-013
2.208453e-011
2.246243e-011
-2.169110e-012
-2.515175e-011
-2.115652e-011
2.667926e-012
1.704604e-011
7.595779e-012
-9.127609e-012
-1.120078e-011
-5.415661e-012
3.328911e-012
8.720066e-012
5.465036e-012
-3.450058e-012
-8.255754e-012
-3.800863e-012
3.718753e-012
4.882262e-012
-3.792768e-013
-3.411613e-012
1.355880e-013
4.144424e-012
2.167443e-012
-2.005057e-012
-6.641386e-013
4.390551e-012
3.970772e-012
-3.104658e-012
-6.901287e-012
-1.843547e-012
4.467862e-012
3.984779e-012
1.152406e-012
4.709195e-012
1.315364e-011
1.825034e-011
1.882292e-011
2.092778e-011
2.651952e-011
3.169416e-011
3.561069e-011
4.214613e-011
5.202075e-011
6.113590e-011
6.810918e-011
7.660323e-011
8.842872e-011
1.003077e-010
1.095878e-010
1.180616e-010
1.277446e-010
1.370123e-010
1.434866e-010
1.476527e-010
1.511606e-010
1.536762e-010
1.536370e-010
1.509593e-010
1.471571e-010
1.430217e-010
1.374154e-010
1.289227e-010
1.183090e-010
1.081150e-010
9.919293e-011
8.935455e-011
7.723569e-011
6.548480e-011
5.692952e-011
4.954435e-011
3.986962e-011
2.982257e-011
2.399982e-011
2.112085e-011
1.571502e-011
8.436332e-012
5.814541e-012
8.181989e-012
7.645215e-012
1.277146e-012
-3.844382e-012
-3.223600e-012
-1.923586e-012
-3.260057e-012
-1.774163e-012
4.914170e-012
8.512546e-012
3.761670e-012
-1.130108e-012
1.278716e-012
3.781527e-012
-1.709937e-012
-6.564010e-012
1.297659e-012
1.322926e-011
8.888079e-012
-1.128197e-011
-2.207272e-011
-7.521985e-012
1.656548e-011
2.327820e-011
7.539447e-012
-1.180383e-011
-1.709603e-011
-8.894849e-012
1.006509e-012
4.986293e-012
4.709081e-012
9.513457e-012
-3.948550e-012
-1.186756e-011
-4.928451e-012
4.658614e-012
3.084791e-012
-5.004469e-012
-5.320324e-012
3.611177e-012
8.221809e-012
5.617203e-013
-8.982595e-012
-5.947124e-012
7.174728e-012
1.377896e-011
6.117372e-012
-5.066435e-012
-7.451671e-012
-3.478147e-012
-1.888635e-012
-1.562608e-012
4.285527e-012
1.275403e-011
1.397665e-011
8.355871e-012
7.676926e-012
1.706366e-011
2.815279e-011
3.398586e-011
3.932252e-011
5.069350e-011
6.603053e-011
8.089756e-011
9.716329e-011
1.183250e-010
1.419674e-010
1.636251e-010
1.839645e-010
2.062021e-010
2.296000e-010
2.508302e-010
2.693973e-010
2.869611e-010
3.028926e-010
3.147225e-010
3.221968e-010
3.273601e-010
3.307732e-010
3.305082e-010
3.253233e-010
3.165699e-010
3.059141e-010
2.927865e-010
2.757919e-010
2.558486e-010
2.355826e-010
2.154018e-010
1.930054e-010
1.681200e-010
1.445414e-010
1.249274e-010
1.067865e-010
8.726309e-011
6.861809e-011
5.425688e-011
4.262623e-011
3.091179e-011
2.150318e-011
1.770400e-011
1.611853e-011
1.144290e-011
5.823241e-012
4.291596e-012
4.216908e-012
1.143993e-013
-4.403715e-012
-2.340565e-012
1.993609e-012
-7.500046e-013
-5.821630e-012
3.206557e-013
1.450283e-011
1.675059e-011
1.216412e-012
-1.245481e-011
-8.144635e-012
4.013861e-012
6.278566e-012
-4.980644e-013
-4.082143e-012
-2.441424e-012
-1.720589e-012
-6.226993e-013
6.011051e-012
1.178784e-011
4.214765e-012
-1.309743e-011
-1.925788e-011
-3.730559e-012
1.627261e-011
2.605925e-011
-1.334136e-012
-2.312889e-011
-1.755187e-011
2.003850e-012
9.751415e-012
1.201971e-012
-6.489717e-012
-1.786043e-012
6.584441e-012
5.065648e-012
-3.930764e-012
-5.707713e-012
4.245877e-012
1.203063e-011
4.909070e-012
-9.103590e-012
-1.165720e-011
8.578239e-014
1.115450e-011
1.215293e-011
1.036424e-011
1.343521e-011
1.672654e-011
1.564377e-011
1.810638e-011
3.309150e-011
5.571911e-011
7.572075e-011
9.403594e-011
1.190960e-010
1.516715e-010
1.854216e-010
2.193984e-010
2.584860e-010
3.024612e-010
3.448260e-010
3.828647e-010
4.203612e-010
4.593920e-010
4.966027e-010
5.290068e-010
5.574611e-010
5.826206e-010
6.023859e-010
6.154586e-010
6.236359e-010
6.283665e-010
6.278846e-010
6.199609e-010
6.053539e-010
5.862351e-010
5.628264e-010
5.341795e-010
5.012168e-010
4.660083e-010
4.284190e-010
3.868543e-010
3.426599e-010
3.000855e-010
2.609060e-010
2.229950e-010
1.855395e-010
1.511004e-010
1.207810e-010
9.280771e-011
6.818338e-011
5.112900e-011
4.070852e-011
2.983186e-011
1.690774e-011
9.410973e-012
1.018520e-011
1.079905e-011
6.147225e-012
3.577133e-012
7.167154e-012
6.140209e-012
-6.677115e-012
-1.722007e-011
-9.080264e-012
9.543354e-012
1.730373e-011
1.057882e-011
2.493742e-012
-2.328107e-012
-8.941826e-012
-1.186870e-011
2.070799e-013
1.765152e-011
1.449468e-011
-1.129392e-011
-2.643668e-011
-7.119925e-012
2.369065e-011
2.539115e-011
-3.963755e-012
-2.507405e-011
-1.203095e-011
1.314062e-011
1.884835e-011
3.381002e-012
-1.253697e-011
-1.541074e-011
-6.241977e-012
2.730776e-012
2.917851e-012
-1.650368e-012
-1.409609e-012
5.049223e-012
8.664242e-012
2.768199e-012
-6.219071e-012
-6.850091e-012
6.463598e-013
4.760306e-012
1.291414e-012
4.274034e-013
9.107995e-012
1.767654e-011
1.508469e-011
8.273927e-012
1.249552e-011
2.872635e-011
4.620991e-011
6.348482e-011
9.016867e-011
1.285767e-010
1.698074e-010
2.100571e-010
2.562892e-010
3.124029e-010
3.727722e-010
4.335704e-010
4.987620e-010
5.699283e-010
6.402627e-010
7.041109e-010
7.642935e-010
8.247506e-010
8.827563e-010
9.334598e-010
9.765676e-010
1.013668e-009
1.043314e-009
1.063406e-009
1.075257e-009
1.081079e-009
1.079681e-009
1.068272e-009
1.046886e-009
1.017795e-009
9.819639e-010
9.391268e-010
8.901137e-010
8.359481e-010
7.757689e-010
7.090560e-010
6.389441e-010
5.696597e-010
5.017497e-010
4.339452e-010
3.681973e-010
3.076227e-010
2.512365e-010
1.974489e-010
1.509012e-010
1.170869e-010
9.150411e-011
6.482935e-011
3.840091e-011
2.207974e-011
1.637851e-011
1.142647e-011
5.402515e-012
6.868805e-012
1.466646e-011
1.421831e-011
1.120144e-012
-1.010085e-011
-9.524430e-012
-5.196027e-012
-3.179997e-012
4.486657e-012
1.802542e-011
1.811012e-011
-3.946444e-012
-2.273662e-011
-1.087221e-011
1.738824e-011
2.250906e-011
-3.989606e-012
-2.684530e-011
-1.616383e-011
1.330253e-011
2.512871e-011
9.291444e-012
-1.021822e-011
-1.185358e-011
-2.978088e-012
-8.773125e-012
9.607956e-012
1.601121e-011
-1.874176e-012
-2.035250e-011
-1.549909e-011
4.079106e-012
1.342314e-011
6.681262e-012
-4.574552e-013
1.273796e-012
2.381401e-012
-5.443726e-012
-1.224511e-011
-4.637941e-012
1.152690e-011
1.857055e-011
1.298029e-011
7.835374e-012
1.042562e-011
1.528319e-011
2.210897e-011
4.197465e-011
7.849029e-011
1.194133e-010
1.564291e-010
1.989299e-010
2.580394e-010
3.299891e-010
4.062216e-010
4.884055e-010
5.817440e-010
6.826633e-010
7.843580e-010
8.871138e-010
9.929213e-010
1.096162e-009
1.189226e-009
1.272527e-009
1.350643e-009
1.422601e-009
1.483475e-009
1.532263e-009
1.571387e-009
1.600913e-009
1.619269e-009
1.627869e-009
1.629737e-009
1.624647e-009
1.609857e-009
1.584666e-009
1.550752e-009
1.509083e-009
1.459542e-009
1.402240e-009
1.336374e-009
1.259673e-009
1.172048e-009
1.077636e-009
9.800968e-010
8.788833e-010
7.739194e-010
6.699288e-010
5.710736e-010
4.759702e-010
3.844941e-010
3.040589e-010
2.404671e-010
1.878228e-010
1.378407e-010
9.381245e-011
6.335155e-011
4.294636e-011
2.402495e-011
9.095837e-012
5.666167e-012
8.943694e-012
8.283211e-012
5.891890e-012
9.327375e-012
1.072068e-011
-2.670769e-012
-2.010833e-011
-1.654739e-011
7.743465e-012
2.324867e-011
1.304710e-011
-5.527118e-012
-9.769578e-012
-9.585881e-013
5.833428e-012
4.224538e-012
-2.140749e-012
-8.156374e-012
-8.123070e-012
1.831084e-012
1.472292e-011
1.500715e-011
-2.269174e-012
-2.100467e-011
-2.960924e-011
1.258287e-011
3.488047e-011
7.366176e-012
-2.851109e-011
-2.415658e-011
9.860784e-012
2.646506e-011
9.309270e-012
-1.244219e-011
-1.162442e-011
2.015206e-012
4.368247e-012
-4.241162e-012
-2.946210e-012
1.317086e-011
2.375955e-011
1.596034e-011
6.035605e-012
1.582201e-011
4.421784e-011
7.809142e-011
1.175062e-010
1.708157e-010
2.350201e-010
3.018898e-010
3.776641e-010
4.769519e-010
6.000730e-010
7.335210e-010
8.701372e-010
1.012596e-009
1.158726e-009
1.298842e-009
1.427677e-009
1.546108e-009
1.651027e-009
1.734910e-009
1.796054e-009
1.839833e-009
1.869490e-009
1.883647e-009
1.883030e-009
1.872499e-009
1.856033e-009
1.835474e-009
1.814196e-009
1.796819e-009
1.784863e-009
1.776422e-009
1.769916e-009
1.765046e-009
1.760738e-009
1.754706e-009
1.743803e-009
1.722847e-009
1.685615e-009
1.629519e-009
1.556616e-009
1.468009e-009
1.361645e-009
1.238477e-009
1.105380e-009
9.682064e-010
8.281393e-010
6.892000e-010
5.614810e-010
4.507396e-010
3.528177e-010
2.650070e-010
1.934413e-010
1.413523e-010
1.007988e-010
6.528491e-011
3.881514e-011
2.276316e-011
8.342930e-012
-5.912910e-012
-6.095119e-012
1.186136e-011
2.586678e-011
1.563195e-011
-7.934756e-012
-2.032621e-011
-1.567320e-011
-2.916646e-012
1.290830e-011
2.459001e-011
1.663409e-011
-9.760070e-012
-2.351078e-011
-4.185870e-012
2.052115e-011
1.156132e-011
-1.922050e-011
-2.331661e-011
9.496505e-012
3.195700e-011
8.689475e-012
-2.977368e-011
-2.080865e-011
5.934248e-012
2.073861e-011
5.452648e-012
-1.384355e-011
-8.483880e-012
1.181096e-011
1.637964e-011
-1.652440e-012
-1.765676e-011
-1.076923e-011
8.906287e-012
1.603653e-011
5.123992e-012
-3.522272e-012
5.391301e-012
2.071911e-011
2.640755e-011
3.172100e-011
5.981865e-011
1.129897e-010
1.729328e-010
2.341914e-010
3.128492e-010
4.192315e-010
5.456720e-010
6.870161e-010
8.505792e-010
1.036620e-009
1.227501e-009
1.405408e-009
1.565509e-009
1.704078e-009
1.808405e-009
1.867026e-009
1.878624e-009
1.844055e-009
1.759823e-009
1.625963e-009
1.452424e-009
1.252333e-009
1.035198e-009
8.103338e-010
5.909379e-010
3.909351e-010
2.215913e-010
9.291889e-011
1.421157e-011
-9.050083e-012
2.335816e-011
1.084286e-010
2.411929e-010
4.141072e-010
6.168364e-010
8.359745e-010
1.054541e-009
1.254787e-009
1.423496e-009
1.552446e-009
1.633835e-009
1.660467e-009
1.632025e-009
1.555779e-009
1.439824e-009
1.291776e-009
1.124423e-009
9.533845e-010
7.869474e-010
6.271623e-010
4.815326e-010
3.615017e-010
2.680088e-010
1.924147e-010
1.328525e-010
9.326965e-011
6.573360e-011
3.484692e-011
3.214968e-012
-1.006481e-011
-1.151996e-012
1.153818e-011
1.584985e-011
1.527921e-011
7.368591e-012
-1.446957e-011
-3.179183e-011
-1.317065e-011
3.042147e-011
4.373487e-011
4.895211e-012
-3.455084e-011
-2.181858e-011
1.852743e-011
2.377576e-011
-1.059315e-011
-2.776632e-011
-7.604656e-013
2.696511e-011
1.160020e-011
-2.280524e-011
1.032769e-011
-1.022362e-011
-1.756621e-011
2.241931e-012
2.346709e-011
1.919408e-011
-3.236976e-012
-1.728960e-011
-1.270141e-011
-8.859499e-013
7.212100e-012
1.163479e-011
1.263011e-011
6.894495e-012
-1.634316e-014
6.754154e-012
3.140373e-011
6.221112e-011
9.479188e-011
1.434440e-010
2.186671e-010
3.125565e-010
4.206066e-010
5.585243e-010
7.393153e-010
9.496689e-010
1.166418e-009
1.380704e-009
1.587068e-009
1.761994e-009
1.872456e-009
1.896669e-009
1.821166e-009
1.627302e-009
1.297168e-009
8.277765e-010
2.279362e-010
-4.926817e-010
-1.320280e-009
-2.227423e-009
-3.176462e-009
-4.130233e-009
-5.053716e-009
-5.909474e-009
-6.658863e-009
-7.267626e-009
-7.707792e-009
-7.957016e-009
-8.000376e-009
-7.833259e-009
-7.461776e-009
-6.901385e-009
-6.175854e-009
-5.317146e-009
-4.365791e-009
-3.369398e-009
-2.377000e-009
-1.432836e-009
-5.753220e-010
1.618223e-010
7.537610e-010
1.190432e-009
1.474693e-009
1.616800e-009
1.635679e-009
1.560691e-009
1.421991e-009
1.240457e-009
1.034233e-009
8.282159e-010
6.439437e-010
4.855091e-010
3.496175e-010
2.425316e-010
1.702992e-010
1.209812e-010
7.767926e-011
4.162915e-011
2.095124e-011
7.763671e-012
-7.179909e-012
-1.026588e-011
1.103518e-011
3.124913e-011
1.462432e-011
-2.451569e-011
-3.325318e-011
2.685211e-012
3.540792e-011
2.352264e-011
-1.177057e-011
-2.289044e-011
-2.722239e-012
1.428640e-011
6.668056e-012
-8.617294e-012
-8.835830e-012
1.374125e-012
4.120905e-012
-1.030840e-012
3.273247e-011
-2.454878e-011
-4.402926e-011
8.490759e-012
5.591891e-011
3.069420e-011
-2.908982e-011
-4.418651e-011
-5.679477e-012
2.738075e-011
1.946702e-011
-2.163984e-012
-1.778520e-012
1.435679e-011
2.342001e-011
3.197465e-011
6.477065e-011
1.242385e-010
1.942669e-010
2.764241e-010
3.914723e-010
5.486348e-010
7.409493e-010
9.664397e-010
1.224310e-009
1.490048e-009
1.719175e-009
1.874596e-009
1.926760e-009
1.828546e-009
1.514231e-009
9.260871e-010
2.559450e-011
-1.217586e-009
-2.825080e-009
-4.793439e-009
-7.091008e-009
-9.670894e-009
-1.247450e-008
-1.542287e-008
-1.841795e-008
-2.135684e-008
-2.414022e-008
-2.666988e-008
-2.884928e-008
-3.059169e-008
-3.182644e-008
-3.249938e-008
-3.257430e-008
-3.203788e-008
-3.090318e-008
-2.920855e-008
-2.701499e-008
-2.440561e-008
-2.148527e-008
-1.837509e-008
-1.520176e-008
-1.208841e-008
-9.150210e-009
-6.488544e-009
-4.179868e-009
-2.268634e-009
-7.706317e-010
3.231503e-010
1.049017e-009
1.466381e-009
1.639796e-009
1.627150e-009
1.486705e-009
1.280016e-009
1.054252e-009
8.309260e-010
6.223146e-010
4.457085e-010
3.100913e-010
2.067794e-010
1.293708e-010
8.464238e-011
6.721694e-011
4.754717e-011
9.556920e-012
-2.128922e-011
-1.512504e-011
1.477045e-011
2.893463e-011
1.263577e-011
-1.361859e-011
-2.357226e-011
-8.683641e-012
1.662024e-011
2.465946e-011
4.223477e-012
-1.861413e-011
-1.158900e-011
1.432399e-011
1.755935e-011
-1.027876e-011
-2.864917e-011
-8.016259e-012
2.504533e-011
2.283360e-011
-2.184475e-011
-3.004435e-011
1.900711e-011
5.042707e-011
1.429699e-011
-3.772994e-011
-3.418193e-011
1.282131e-011
3.464929e-011
8.732472e-012
-1.671668e-011
7.283255e-013
4.102439e-011
6.373368e-011
7.650425e-011
1.245728e-010
2.250926e-010
3.541050e-010
4.997881e-010
6.865315e-010
9.329197e-010
1.219278e-009
1.509558e-009
1.771100e-009
1.952588e-009
1.966697e-009
1.710272e-009
1.080499e-009
-3.960338e-011
-1.785700e-009
-4.281488e-009
-7.610951e-009
-1.182026e-008
-1.692095e-008
-2.287453e-008
-2.958373e-008
-3.690620e-008
-4.466776e-008
-5.266087e-008
-6.064773e-008
-6.837918e-008
-7.561181e-008
-8.211152e-008
-8.765627e-008