# vtk DataFile Version 3.0
vtk output
ASCII
DATASET STRUCTURED_POINTS
DIMENSIONS 100 100 1
SPACING 1 1 1
ORIGIN 0 0 0
POINT_DATA 10000
SCALARS SFBox_profile double
LOOKUP_TABLE default 
0.000000e+000
0.000000e+000
0.000000e+000
0.000000e+000
0.000000e+000
0.000000e+000
0.000000e+000
0.000000e+000
0.000000e+000
0.000000e+000
0.000000e+000
0.000000e+000
0.000000e+000
0.000000e+000
0.000000e+000
0.000000e+000
0.000000e+000
0.000000e+000
0.000000e+000
0.000000e+000
0.000000e+000
0.000000e+000
0.000000e+000
0.000000e+000
0.000000e+000
0.000000e+000
0.000000e+000
0.000000e+000
0.000000e+000
0.000000e+000
0.000000e+000
0.000000e+000
0.000000e+000
0.000000e+000
0.000000e+000
0.000000e+000
0.000000e+000
0.000000e+000
0.000000e+000
0.000000e+000
0.000000e+000
0.000000e+000
0.000000e+000
0.000000e+000
0.000000e+000
0.000000e+000
0.000000e+000
0.000000e+000
0.000000e+000
0.000000e+000
0.000000e+000
0.000000e+000
0.000000e+000
0.000000e+000
0.000000e+000
0.000000e+000
0.000000e+000
0.000000e+000
0.000000e+000
0.000000e+000
0.000000e+000
0.000000e+000
0.000000e+000
0.000000e+000
0.000000e+000
0.000000e+000
0.000000e+000
0.000000e+000
0.000000e+000
0.000000e+000
0.000000e+000
0.000000e+000
0.000000e+000
0.000000e+000
0.000000e+000
0.000000e+000
0.000000e+000
0.000000e+000
0.000000e+000
0.000000e+000
0.000000e+000
0.000000e+000
0.000000e+000
0.000000e+000
0.000000e+000
0.000000e+000
0.000000e+000
0.000000e+000
0.000000e+000
0.000000e+000
0.000000e+000
0.000000e+000
0.000000e+000
0.000000e+000
0.000000e+000
0.000000e+000
0.000000e+000
0.000000e+000
0.000000e+000
0.000000e+000
4.132760e-009
1.587226e-009
-1.815056e-009
-3.959806e-009
-3.631681e-009
-1.192816e-009
1.770679e-009
3.530808e-009
3.270824e-009
1.433962e-009
-7.681661e-010
-2.233455e-009
-2.572858e-009
-2.082012e-009
-1.258213e-009
-3.588152e-010
6.390132e-010
1.742722e-009
2.687381e-009
3.013760e-009
2.419207e-009
1.041561e-009
-5.980345e-010
-1.941896e-009
-2.722510e-009
-3.008421e-009
-2.990287e-009
-2.752614e-009
-2.240181e-009
-1.402181e-009
-3.272370e-010
7.754838e-010
1.715325e-009
2.429924e-009
2.968337e-009
3.389768e-009
3.692754e-009
3.834883e-009
3.800031e-009
3.631773e-009
3.403352e-009
3.165431e-009
2.926946e-009
2.679491e-009
2.430062e-009
2.206854e-009
2.038156e-009
1.931835e-009
1.876847e-009
1.861685e-009
1.888185e-009
1.966820e-009
2.100254e-009
2.273762e-009
2.463181e-009
2.651794e-009
2.836648e-009
3.014980e-009
3.164255e-009
3.240257e-009
3.200800e-009
3.032362e-009
2.748337e-009
2.357184e-009
1.838050e-009
1.161911e-009
3.470497e-010
-5.102970e-010
-1.274300e-009
-1.847508e-009
-2.206598e-009
-2.353171e-009
-2.237290e-009
-1.760110e-009
-8.870323e-010
2.297040e-010
1.262127e-009
1.879252e-009
1.943178e-009
1.552780e-009
9.060249e-010
1.374024e-010
-6.914985e-010
-1.449669e-009
-1.839057e-009
-1.526718e-009
-4.567932e-010
9.401443e-010
1.901046e-009
1.814360e-009
6.870637e-010
-7.922922e-010
-1.688680e-009
-1.456783e-009
-3.139970e-010
9.226094e-010
1.413578e-009
8.729960e-010
-2.571298e-010
-1.140150e-009
4.849091e-010
1.596138e-010
-2.585110e-010
-4.784341e-010
-3.461163e-010
4.300183e-011
3.987872e-010
4.389648e-010
1.063519e-010
-3.658857e-010
-6.109200e-010
-4.046586e-010
1.506964e-010
6.897638e-010
8.517401e-010
5.396518e-010
-3.465650e-011
-5.404672e-010
-7.758198e-010
-7.635288e-010
-6.427257e-010
-4.926485e-010
-2.681241e-010
1.067820e-010
6.047739e-010
1.069592e-009
1.325031e-009
1.306247e-009
1.086904e-009
7.891591e-010
4.773851e-010
1.365563e-010
-2.632423e-010
-6.999620e-010
-1.101335e-009
-1.403516e-009
-1.598105e-009
-1.722016e-009
-1.810376e-009
-1.865985e-009
-1.871467e-009
-1.821558e-009
-1.737084e-009
-1.649092e-009
-1.574867e-009
-1.511792e-009
-1.451643e-009
-1.396407e-009
-1.358697e-009
-1.348849e-009
-1.364509e-009
-1.393900e-009
-1.428145e-009
-1.468318e-009
-1.519061e-009
-1.575760e-009
-1.620388e-009
-1.632412e-009
-1.603790e-009
-1.540301e-009
-1.445598e-009
-1.305959e-009
-1.097087e-009
-8.109079e-010
-4.740545e-010
-1.336482e-010
1.781975e-010
4.609064e-010
7.194053e-010
9.223332e-010
9.984084e-010
8.896190e-010
6.138427e-010
2.680119e-010
-4.044608e-011
-2.672098e-010
-4.321141e-010
-5.482582e-010
-5.652688e-010
-4.056514e-010
-7.051087e-011
2.995561e-010
4.953010e-010
3.993090e-010
9.277860e-011
-1.985302e-010
-2.807941e-010
-1.385540e-010
7.303581e-011
1.730084e-010
1.018137e-010
-5.154291e-011
-1.469938e-010
-1.144787e-010
4.159812e-012
1.092601e-010
1.285889e-010
6.113969e-011
-3.935178e-011
-1.090072e-010
-3.614635e-009
-1.400382e-009
1.556701e-009
3.434455e-009
3.206549e-009
1.182061e-009
-1.342226e-009
-2.978545e-009
-3.040901e-009
-1.759165e-009
8.259240e-011
1.697821e-009
2.632945e-009
2.765281e-009
2.139806e-009
8.808960e-010
-7.603949e-010
-2.356964e-009
-3.400676e-009
-3.527145e-009
-2.703238e-009
-1.225434e-009
4.622433e-010
1.980274e-009
3.111825e-009
3.769731e-009
3.923762e-009
3.575342e-009
2.782096e-009
1.673646e-009
4.196746e-010
-8.279385e-010
-1.969871e-009
-2.951619e-009
-3.737905e-009
-4.302473e-009
-4.638226e-009
-4.766664e-009
-4.729868e-009
-4.571653e-009
-4.326217e-009
-4.021534e-009
-3.687497e-009
-3.356251e-009
-3.054399e-009
-2.797124e-009
-2.590993e-009
-2.441307e-009
-2.355175e-009
-2.337709e-009
-2.387232e-009
-2.495949e-009
-2.655047e-009
-2.857461e-009
-3.094358e-009
-3.349427e-009
-3.598134e-009
-3.813227e-009
-3.969828e-009
-4.043793e-009
-4.006077e-009
-3.822730e-009
-3.465076e-009
-2.922557e-009
-2.206627e-009
-1.344840e-009
-3.773688e-010
6.344025e-010
1.595662e-009
2.382552e-009
2.870985e-009
2.972663e-009
2.653846e-009
1.934743e-009
8.920628e-010
-3.213581e-010
-1.464408e-009
-2.248364e-009
-2.440990e-009
-1.979561e-009
-1.012391e-009
1.615686e-010
1.205597e-009
1.835311e-009
1.864204e-009
1.246249e-009
1.437202e-010
-1.037618e-009
-1.754395e-009
-1.600122e-009
-6.031990e-010
6.957565e-010
1.522104e-009
1.365921e-009
3.534546e-010
-8.095445e-010
-1.319909e-009
-8.494453e-010
2.178132e-010
1.070267e-009
-4.594755e-009
-1.691820e-009
2.117594e-009
4.387661e-009
3.819734e-009
9.988133e-010
-2.155013e-009
-3.747251e-009
-3.093128e-009
-9.505464e-010
1.224925e-009
2.334950e-009
2.211609e-009
1.406310e-009
5.431909e-010
-1.454880e-010
-7.707594e-010
-1.413714e-009
-1.878231e-009
-1.821872e-009
-1.103405e-009
2.341510e-011
1.064902e-009
1.637137e-009
1.688718e-009
1.429136e-009
1.083388e-009
7.232358e-010
3.002275e-010
-2.105472e-010
-7.298551e-010
-1.127404e-009
-1.329273e-009
-1.361836e-009
-1.301716e-009
-1.200017e-009
-1.057679e-009
-8.593611e-010
-6.139204e-010
-3.575365e-010
-1.256153e-010
7.003839e-011
2.374090e-010
3.851351e-010
5.112670e-010
6.079741e-010
6.717356e-010
7.066079e-010
7.193473e-010
7.135174e-010
6.879884e-010
6.393380e-010
5.651181e-010
4.658770e-010
3.448040e-010
2.047366e-010
4.497885e-011
-1.373658e-010
-3.401879e-010
-5.498553e-010
-7.444838e-010
-9.062341e-010
-1.028716e-009
-1.107434e-009
-1.121682e-009
-1.032866e-009
-8.115781e-010
-4.710464e-010
-6.849616e-011
3.335589e-010
7.042993e-010
1.030814e-009
1.262037e-009
1.283121e-009
9.801558e-010
3.590852e-010
-3.980702e-010
-1.018416e-009
-1.305944e-009
-1.239110e-009
-9.112909e-010
-3.975559e-010
2.812463e-010
1.037821e-009
1.589451e-009
1.536493e-009
6.779753e-010
-6.868722e-010
-1.801456e-009
-1.916507e-009
-8.656895e-010
7.224599e-010
1.805901e-009
1.660608e-009
4.150736e-010
-1.030536e-009
-1.653515e-009
-1.046671e-009
2.987806e-010
1.367087e-009
-1.618625e-009
-4.811376e-010
9.341924e-010
1.597991e-009
1.046388e-009
-2.829242e-010
-1.363145e-009
-1.338519e-009
-1.847738e-010
1.241282e-009
1.831407e-009
1.067805e-009
-5.792431e-010
-2.010535e-009
-2.314682e-009
-1.382723e-009
1.361087e-010
1.417754e-009
2.039384e-009
2.091594e-009
1.848434e-009
1.405269e-009
6.430036e-010
-5.090101e-010
-1.841941e-009
-2.929868e-009
-3.420043e-009
-3.259845e-009
-2.659629e-009
-1.867119e-009
-9.912816e-010
-1.890852e-011
1.048295e-009
2.109193e-009
3.012222e-009
3.664449e-009
4.079376e-009
4.327795e-009
4.459789e-009
4.478421e-009
4.374391e-009
4.167756e-009
3.910023e-009
3.652592e-009
3.420555e-009
3.215708e-009
3.037617e-009
2.897207e-009
2.811844e-009
2.791637e-009
2.832216e-009
2.919569e-009
3.040694e-009
3.189627e-009
3.362924e-009
3.548156e-009
3.716904e-009
3.831829e-009
3.863677e-009
3.800535e-009
3.636414e-009
3.350249e-009
2.904171e-009
2.274349e-009
1.488335e-009
6.254401e-010
-2.283067e-010
-1.023094e-009
-1.731107e-009
-2.284729e-009
-2.547322e-009
-2.381150e-009
-1.771777e-009
-8.849116e-010
2.044253e-011
7.509587e-010
1.251889e-009
1.524412e-009
1.500872e-009
1.059063e-009
2.065139e-010
-7.575370e-010
-1.333445e-009
-1.167613e-009
-3.714627e-010
5.040292e-010
8.674403e-010
5.398133e-010
-1.268315e-010
-5.639225e-010
-4.541013e-010
4.452352e-011
4.790044e-010
4.962778e-010
1.097411e-010
-3.535090e-010
-5.360435e-010
-3.166964e-010
1.270922e-010
4.696607e-010
2.760701e-009
1.114266e-009
-1.089022e-009
-2.533051e-009
-2.504726e-009
-1.200313e-009
5.880009e-010
2.029424e-009
2.614680e-009
2.193341e-009
8.829842e-010
-9.462694e-010
-2.652916e-009
-3.474696e-009
-2.909983e-009
-1.088785e-009
1.213434e-009
3.007904e-009
3.665339e-009
3.190104e-009
2.027586e-009
6.465344e-010
-7.134961e-010
-1.971727e-009
-2.998075e-009
-3.551710e-009
-3.438201e-009
-2.696149e-009
-1.597702e-009
-4.577683e-010
5.557581e-010
1.441380e-009
2.236050e-009
2.902163e-009
3.342286e-009
3.498904e-009
3.414896e-009
3.194170e-009
2.917133e-009
2.601763e-009
2.236130e-009
1.830360e-009
1.428933e-009
1.079406e-009
7.997937e-010
5.787129e-010
4.012647e-010
2.695375e-010
1.992128e-010
2.013599e-010
2.707832e-010
3.917465e-010
5.534249e-010
7.585798e-010
1.015900e-009
1.322629e-009
1.655300e-009
1.980236e-009
2.274493e-009
2.532742e-009
2.747417e-009
2.881540e-009
2.870031e-009
2.659072e-009
2.246700e-009
1.677319e-009
9.922308e-010
1.970698e-010
-7.008932e-010
-1.614055e-009
-2.349091e-009
-2.690959e-009
-2.535015e-009
-1.940935e-009
-1.058404e-009
-1.824893e-011
1.075273e-009
2.042201e-009
2.566499e-009
2.324804e-009
1.253679e-009
-2.841397e-010
-1.632559e-009
-2.213835e-009
-1.857133e-009
-8.422335e-010
3.270071e-010
1.198039e-009
1.507401e-009
1.189122e-009
3.727722e-010
-5.971603e-010
-1.231230e-009
-1.142045e-009
-3.488637e-010
6.401539e-010
1.132818e-009
7.702210e-010
-1.631124e-010
-9.335163e-010
4.880715e-009
1.676695e-009
-2.393534e-009
-4.591596e-009
-3.689232e-009
-6.352618e-010
2.370065e-009
3.530146e-009
2.546736e-009
4.749902e-010
-1.299014e-009
-2.013505e-009
-1.749123e-009
-9.934086e-010
-1.356596e-010
6.603741e-010
1.266839e-009
1.458072e-009
1.047235e-009
1.301968e-010
-8.763091e-010
-1.491023e-009
-1.487103e-009
-9.831735e-010
-2.621248e-010
4.644519e-010
1.124053e-009
1.680981e-009
2.038501e-009
2.073091e-009
1.747840e-009
1.160443e-009
4.683977e-010
-2.232599e-010
-8.961800e-010
-1.559559e-009
-2.183262e-009
-2.699812e-009
-3.061340e-009
-3.278782e-009
-3.402020e-009
-3.470553e-009
-3.490169e-009
-3.452701e-009
-3.367155e-009
-3.265345e-009
-3.179967e-009
-3.122770e-009
-3.085382e-009
-3.057975e-009
-3.043427e-009
-3.052508e-009
-3.086936e-009
-3.129506e-009
-3.152636e-009
-3.136818e-009
-3.078680e-009
-2.978309e-009
-2.819486e-009
-2.568433e-009
-2.198988e-009
-1.720026e-009
-1.172722e-009
-5.973698e-010
-9.187614e-012
5.817470e-010
1.124163e-009
1.512714e-009
1.641019e-009
1.477365e-009
1.084774e-009
5.648641e-010
-5.209761e-012
-5.638023e-010
-1.000150e-009
-1.139997e-009
-8.493402e-010
-1.824418e-010
5.828530e-010
1.089946e-009
1.117389e-009
6.822343e-010
-2.460174e-011
-7.586591e-010
-1.271071e-009
-1.310813e-009
-7.136108e-010
3.959666e-010
1.487158e-009
1.837079e-009
1.051122e-009
-5.043047e-010
-1.810670e-009
-1.897527e-009
-6.305345e-010
1.090609e-009
1.970283e-009
1.329776e-009
-3.284793e-010
-1.696474e-009
3.072426e-009
7.719474e-010
-1.959223e-009
-3.014364e-009
-1.674381e-009
8.951984e-010
2.618870e-009
2.156247e-009
-8.469928e-011
-2.333269e-009
-2.873811e-009
-1.328494e-009
1.178878e-009
2.989614e-009
3.121329e-009
1.767085e-009
-1.441838e-010
-1.754438e-009
-2.719779e-009
-3.069227e-009
-2.843422e-009
-1.973405e-009
-4.747566e-010
1.347728e-009
2.969738e-009
3.943888e-009
4.133197e-009
3.684593e-009
2.824563e-009
1.704053e-009
4.077014e-010
-9.563342e-010
-2.228492e-009
-3.263869e-009
-4.004452e-009
-4.475670e-009
-4.723663e-009
-4.770294e-009
-4.625380e-009
-4.322414e-009
-3.925152e-009
-3.497854e-009
-3.076609e-009
-2.672290e-009
-2.295010e-009
-1.968136e-009
-1.717983e-009
-1.555667e-009
-1.474111e-009
-1.462650e-009
-1.521063e-009
-1.657067e-009
-1.871293e-009
-2.148006e-009
-2.462466e-009
-2.795768e-009
-3.138131e-009
-3.474639e-009
-3.769586e-009
-3.970332e-009
-4.029925e-009
-3.923726e-009
-3.640298e-009
-3.159963e-009
-2.455639e-009
-1.527858e-009
-4.408803e-010
6.832502e-010
1.710161e-009
2.526939e-009
3.029010e-009
3.095492e-009
2.623090e-009
1.625940e-009
3.100619e-010
-9.765933e-010
-1.901232e-009
-2.278080e-009
-2.074232e-009
-1.342298e-009
-2.178164e-010
9.923923e-010
1.793321e-009
1.725700e-009
7.464127e-010
-5.835935e-010
-1.390507e-009
-1.127952e-009
-4.679230e-011
9.612437e-010
1.076543e-009
2.335817e-010
-8.245045e-010
-1.179226e-009
-5.169246e-010
6.106108e-010
1.257838e-009
8.794691e-010
-2.201391e-010
-1.144631e-009
-1.105971e-009
-7.182819e-010
-2.230809e-011
8.218015e-010
1.523246e-009
1.666018e-009
9.004433e-010
-7.010332e-010
-2.417442e-009
-3.136551e-009
-2.095288e-009
4.153061e-010
3.038826e-009
4.195157e-009
3.180941e-009
6.457227e-010
-1.936545e-009
-3.327016e-009
-3.232588e-009
-2.187009e-009
-8.944893e-010
2.822778e-010
1.308880e-009
2.150308e-009
2.589905e-009
2.388309e-009
1.555048e-009
4.038864e-010
-6.663417e-010
-1.429213e-009
-1.887512e-009
-2.131849e-009
-2.193148e-009
-2.033738e-009
-1.639215e-009
-1.077244e-009
-4.600474e-010
1.317209e-010
6.773554e-010
1.182363e-009
1.637523e-009
2.017163e-009
2.306078e-009
2.514639e-009
2.665596e-009
2.773091e-009
2.838763e-009
2.863961e-009
2.858085e-009
2.832148e-009
2.787721e-009
2.716417e-009
2.609868e-009
2.466163e-009
2.284211e-009
2.054806e-009
1.762950e-009
1.401432e-009
9.793031e-010
5.137980e-010
1.701622e-011
-5.007986e-010
-1.009817e-009
-1.448127e-009
-1.741863e-009
-1.842302e-009
-1.737304e-009
-1.423534e-009
-8.836919e-010
-1.214891e-010
7.633688e-010
1.550770e-009
1.988763e-009
1.936602e-009
1.428140e-009
6.006819e-010
-4.067610e-010
-1.442180e-009
-2.231449e-009
-2.368585e-009
-1.555174e-009
4.842653e-011
1.721679e-009
2.553117e-009
2.067550e-009
5.975501e-010
-9.418320e-010
-1.702508e-009
-1.442903e-009
-5.582292e-010
3.261330e-010
7.913462e-010
7.716516e-010
4.286357e-010
-2.029239e-011
-3.761067e-010
-4.825014e-010
-2.893087e-010
7.928521e-011
3.683402e-010
-4.372317e-009
-1.470399e-009
2.130937e-009
3.964294e-009
3.096812e-009
5.408811e-010
-1.824963e-009
-2.710873e-009
-2.058669e-009
-6.320356e-010
7.592619e-010
1.649115e-009
1.821172e-009
1.173129e-009
-1.508240e-010
-1.570938e-009
-2.244179e-009
-1.631412e-009
2.357931e-011
1.802440e-009
2.762140e-009
2.555627e-009
1.507378e-009
1.820013e-010
-1.065091e-009
-2.158855e-009
-3.064624e-009
-3.603013e-009
-3.539868e-009
-2.815551e-009
-1.632430e-009
-3.075112e-010
9.406730e-010
2.061430e-009
3.073839e-009
3.949718e-009
4.605698e-009
4.983396e-009
5.106511e-009
5.054804e-009
4.898309e-009
4.666500e-009
4.370581e-009
4.036261e-009
3.706543e-009
3.419532e-009
3.192868e-009
3.029673e-009
2.932224e-009
2.905549e-009
2.951326e-009
3.064254e-009
3.234959e-009
3.451731e-009
3.696328e-009
3.941020e-009
4.154688e-009
4.311652e-009
4.389027e-009
4.352939e-009
4.154521e-009
3.751456e-009
3.138342e-009
2.350086e-009
1.430926e-009
4.105790e-010
-6.685112e-010
-1.692902e-009
-2.468086e-009
-2.803055e-009
-2.628244e-009
-2.029279e-009
-1.162215e-009
-1.570853e-010
8.632851e-010
1.676778e-009
1.950398e-009
1.444147e-009
2.933704e-010
-9.348831e-010
-1.558050e-009
-1.249840e-009
-2.648726e-010
7.733967e-010
1.311083e-009
1.152533e-009
4.425063e-010
-4.970406e-010
-1.268196e-009
-1.456868e-009
-8.164858e-010
4.433080e-010
1.579370e-009
1.729452e-009
6.277301e-010
-1.012158e-009
-1.933476e-009
-1.352365e-009
3.149550e-010
1.727129e-009
-4.424340e-009
-9.253166e-010
3.042785e-009
4.262449e-009
1.973900e-009
-1.689270e-009
-3.670469e-009
-2.532544e-009
5.715456e-010
3.108963e-009
3.286850e-009
1.246686e-009
-1.430105e-009
-3.138243e-009
-3.251852e-009
-2.091356e-009
-2.968475e-010
1.603447e-009
3.162805e-009
3.885614e-009
3.383291e-009
1.717559e-009
-4.969110e-010
-2.431990e-009
-3.544656e-009
-3.787792e-009
-3.409002e-009
-2.625863e-009
-1.516381e-009
-1.545177e-010
1.253507e-009
2.424407e-009
3.176232e-009
3.521853e-009
3.587558e-009
3.467383e-009
3.169895e-009
2.682952e-009
2.051410e-009
1.374509e-009
7.398510e-010
1.770252e-010
-3.259195e-010
-7.769485e-010
-1.160220e-009
-1.453511e-009
-1.651419e-009
-1.766755e-009
-1.814826e-009
-1.801465e-009
-1.723664e-009
-1.575694e-009
-1.353467e-009
-1.057565e-009
-6.953318e-010
-2.776680e-010
1.892623e-010
7.056938e-010
1.263434e-009
1.826038e-009
2.330263e-009
2.715450e-009
2.949562e-009
3.015759e-009
2.871374e-009
2.439009e-009
1.666592e-009
6.093906e-010
-5.579912e-010
-1.625359e-009
-2.439243e-009
-2.901129e-009
-2.892478e-009
-2.266931e-009
-9.947604e-010
6.553780e-010
2.122819e-009
2.827957e-009
2.517041e-009
1.391341e-009
-5.821492e-011
-1.315215e-009
-1.981879e-009
-1.815075e-009
-8.210724e-010
5.826378e-010
1.601310e-009
1.511639e-009
2.960628e-010
-1.149410e-009
-1.619843e-009
-6.391379e-010
1.007009e-009
1.856556e-009
1.063995e-009
-7.644167e-010
-2.032633e-009
-1.569817e-009
2.791046e-010
1.919017e-009
-1.508441e-009
2.971725e-010
2.009342e-009
1.757183e-009
-5.105556e-010
-2.874425e-009
-3.091552e-009
-6.120977e-010
2.816577e-009
4.523179e-009
3.096430e-009
-4.891294e-010
-3.716154e-009
-4.521232e-009
-2.720083e-009
1.936945e-010
2.427743e-009
3.114569e-009
2.484677e-009
1.216830e-009
-1.801314e-010
-1.443811e-009
-2.315504e-009
-2.471831e-009
-1.758986e-009
-4.115488e-010
1.050537e-009
2.164200e-009
2.761156e-009
2.909350e-009
2.700988e-009
2.148487e-009
1.261235e-009
1.511465e-010
-9.866003e-010
-1.993086e-009
-2.823369e-009
-3.507952e-009
-4.064346e-009
-4.464700e-009
-4.679251e-009
-4.726299e-009
-4.667768e-009
-4.563683e-009
-4.441007e-009
-4.303478e-009
-4.159138e-009
-4.031103e-009
-3.945299e-009
-3.914004e-009
-3.931387e-009
-3.980689e-009
-4.044321e-009
-4.110098e-009
-4.169487e-009
-4.207273e-009
-4.190962e-009
-4.074765e-009
-3.821722e-009
-3.423864e-009
-2.895168e-009
-2.242525e-009
-1.454615e-009
-5.365858e-010
4.390445e-010
1.329374e-009
1.985407e-009
2.321499e-009
2.314910e-009
1.949323e-009
1.202209e-009
1.333123e-010
-1.012066e-009
-1.838208e-009
-2.003355e-009
-1.432813e-009
-3.528572e-010
8.557804e-010
1.809488e-009
2.164607e-009
1.655015e-009
2.792124e-010
-1.459058e-009
-2.609719e-009
-2.336560e-009
-6.452112e-010
1.412796e-009
2.423105e-009
1.719479e-009
-4.542143e-011
-1.437165e-009
-1.449990e-009
-3.137152e-010
8.136623e-010
9.441656e-010
1.161387e-010
-7.487730e-010
-7.852436e-010
8.759764e-013
7.924213e-010
2.179440e-009
1.079879e-009
-4.842633e-010
-1.729750e-009
-2.127344e-009
-1.529687e-009
-1.429143e-010
1.467410e-009
2.439657e-009
2.014744e-009
1.885510e-010
-1.975017e-009
-2.910878e-009
-1.754177e-009
8.318103e-010
3.042146e-009
3.299029e-009
1.435487e-009
-1.302107e-009
-3.320387e-009
-3.785726e-009
-2.886415e-009
-1.290832e-009
4.716006e-010
2.149562e-009
3.533809e-009
4.309651e-009
4.213694e-009
3.272996e-009
1.815453e-009
2.356816e-010
-1.227854e-009
-2.506422e-009
-3.568097e-009
-4.334115e-009
-4.726407e-009
-4.752014e-009
-4.505960e-009
-4.094596e-009
-3.574418e-009
-2.964856e-009
-2.297919e-009
-1.635793e-009
-1.041267e-009
-5.439287e-010
-1.408192e-010
1.761001e-010
3.998231e-010
5.131053e-010
5.060547e-010
3.855688e-010
1.690403e-010
-1.294975e-010
-5.073699e-010
-9.670846e-010
-1.499453e-009
-2.071371e-009
-2.633030e-009
-3.139894e-009
-3.564003e-009
-3.876482e-009
-4.019507e-009
-3.908781e-009
-3.479015e-009
-2.730295e-009
-1.724200e-009
-5.395560e-010
7.435310e-010
1.994606e-009
2.982082e-009
3.422584e-009
3.134214e-009
2.164874e-009
7.732711e-010
-7.005483e-010
-1.923508e-009
-2.560838e-009
-2.307770e-009
-1.100909e-009
6.190598e-010
1.949379e-009
2.050013e-009
8.214880e-010
-8.925959e-010
-1.876988e-009
-1.473565e-009
-7.113066e-011
1.260393e-009
1.632932e-009
9.439382e-010
-2.063630e-010
-1.063639e-009
-1.207450e-009
-6.803649e-010
1.570004e-010
8.381556e-010
9.906933e-010
5.251138e-010
-2.716671e-010
-8.756856e-010
4.349098e-009
8.482516e-010
-3.019056e-009
-4.069354e-009
-1.768707e-009
1.628663e-009
3.312886e-009
2.253092e-009
-3.528329e-010
-2.473767e-009
-2.874986e-009
-1.630298e-009
4.279825e-010
2.382726e-009
3.461880e-009
3.084093e-009
1.138369e-009
-1.665935e-009
-3.949451e-009
-4.475055e-009
-3.011400e-009
-4.579893e-010
1.878365e-009
3.169024e-009
3.364236e-009
2.832382e-009
1.876710e-009
6.151795e-010
-8.171169e-010
-2.122533e-009
-2.963277e-009
-3.190069e-009
-2.905250e-009
-2.312976e-009
-1.546426e-009
-6.420731e-010
3.686193e-010
1.396372e-009
2.330808e-009
3.112403e-009
3.748630e-009
4.267986e-009
4.677062e-009
4.965535e-009
5.137939e-009
5.225827e-009
5.267549e-009
5.282837e-009
5.269712e-009
5.221666e-009
5.142235e-009
5.041225e-009
4.918551e-009
4.754545e-009
4.518667e-009
4.189118e-009
3.762739e-009
3.243687e-009
2.624920e-009
1.890050e-009
1.042238e-009
1.304638e-010
-7.609094e-010
-1.550291e-009
-2.175566e-009
-2.564346e-009
-2.604031e-009
-2.181756e-009
-1.288322e-009
-8.534104e-011
1.147419e-009
2.135258e-009
2.670591e-009
2.578039e-009
1.714640e-009
1.310976e-010
-1.716697e-009
-3.009956e-009
-3.010114e-009
-1.624017e-009
4.203900e-010
2.014755e-009
2.394381e-009
1.561734e-009
1.427106e-010
-1.078224e-009
-1.540757e-009
-1.073722e-009
4.576612e-011
1.125313e-009
1.364237e-009
4.516609e-010
-9.965561e-010
-1.749641e-009
-9.962696e-010
7.809852e-010
2.058024e-009
1.606717e-009
-2.915922e-010
-1.999366e-009
4.041508e-009
-1.816283e-011
-4.036426e-009
-4.089864e-009
-1.256357e-010
4.144277e-009
4.820575e-009
1.338103e-009
-3.261882e-009
-5.239792e-009
-3.320852e-009
6.485600e-010
3.676390e-009
4.058526e-009
2.195176e-009
-3.672229e-010
-2.287956e-009
-2.982426e-009
-2.400525e-009
-7.703855e-010
1.348217e-009
3.047982e-009
3.466195e-009
2.363218e-009
3.055646e-010
-1.768153e-009
-3.183721e-009
-3.796615e-009
-3.766951e-009
-3.220043e-009
-2.168703e-009
-6.792724e-010
1.009844e-009
2.585500e-009
3.849328e-009
4.784577e-009
5.457827e-009
5.898220e-009
6.083427e-009
6.010103e-009
5.739180e-009
5.364486e-009
4.954348e-009
4.534841e-009
4.119681e-009
3.738680e-009
3.431484e-009
3.222176e-009
3.109514e-009
3.082401e-009
3.138714e-009
3.284698e-009
3.517671e-009
3.814591e-009
4.140892e-009
4.468296e-009
4.777725e-009
5.041061e-009
5.204663e-009
5.200765e-009
4.979799e-009
4.525900e-009
3.835372e-009
2.891493e-009
1.688033e-009
2.973286e-010
-1.093454e-009
-2.239714e-009
-2.947206e-009
-3.119791e-009
-2.714373e-009
-1.711595e-009
-2.154412e-010
1.392013e-009
2.476333e-009
2.478322e-009
1.335730e-009
-3.850057e-010
-1.806908e-009
-2.257957e-009
-1.585341e-009
-1.316589e-010
1.450019e-009
2.385580e-009
2.056538e-009
4.389895e-010
-1.595174e-009
-2.632964e-009
-1.775229e-009
4.256097e-010
2.191467e-009
1.995642e-009
2.848946e-011
-1.856520e-009
-1.852407e-009
2.415810e-011
1.899140e-009
1.880246e-009
-3.773089e-011
-1.948427e-009
1.758934e-009
-6.822973e-010
-2.754865e-009
-1.957422e-009
1.269286e-009
3.874818e-009
3.165412e-009
-5.052577e-010
-3.953942e-009
-4.095864e-009
-7.805176e-010
3.118749e-009
4.335028e-009
2.011523e-009
-1.819435e-009
-4.217106e-009
-3.712100e-009
-1.041418e-009
1.948217e-009
3.811912e-009
4.114837e-009
3.086216e-009
1.135543e-009
-1.233268e-009
-3.329905e-009
-4.442113e-009
-4.235254e-009
-2.958550e-009
-1.207747e-009
5.125383e-010
2.002251e-009
3.237060e-009
4.154036e-009
4.622311e-009
4.581854e-009
4.134979e-009
3.472554e-009
2.733269e-009
1.953891e-009
1.135365e-009
3.178953e-010
-4.229331e-010
-1.034299e-009
-1.517555e-009
-1.902037e-009
-2.203360e-009
-2.415140e-009
-2.532111e-009
-2.566548e-009
-2.537313e-009
-2.449557e-009
-2.292448e-009
-2.055738e-009
-1.741176e-009
-1.353612e-009
-8.862060e-010
-3.248519e-010
3.279042e-010
1.038644e-009
1.759620e-009
2.455138e-009
3.095847e-009
3.617270e-009
3.896568e-009
3.797499e-009
3.254782e-009
2.310221e-009
1.065201e-009
-3.718240e-010
-1.844844e-009
-3.052850e-009
-3.564010e-009
-3.039917e-009
-1.527326e-009
4.589308e-010
2.171356e-009
2.994087e-009
2.666592e-009
1.315579e-009
-5.605945e-010
-2.127291e-009
-2.479335e-009
-1.240966e-009
8.994207e-010
2.403702e-009
2.008273e-009
-8.592332e-011
-2.173278e-009
-2.444115e-009
-6.484286e-010
1.606100e-009
2.323900e-009
9.900833e-010
-9.973806e-010
-1.756610e-009
-7.598566e-010
7.651739e-010
1.212037e-009
2.644272e-010
-8.759274e-010
-1.271756e-009
-6.532977e-010
3.099861e-010
1.173370e-009
1.434851e-009
7.656827e-010
-6.397462e-010
-1.891016e-009
-1.837278e-009
-6.546478e-011
2.374337e-009
3.470297e-009
1.891915e-009
-1.615090e-009
-4.542231e-009
-4.588381e-009
-1.578848e-009
2.410638e-009
4.779442e-009
4.345653e-009
1.871321e-009
-9.547389e-010
-2.851320e-009
-3.451974e-009
-2.949468e-009
-1.624293e-009
2.304881e-010
2.164881e-009
3.622579e-009
4.232776e-009
4.014218e-009
3.260087e-009
2.252433e-009
1.114073e-009
-1.089261e-010
-1.313334e-009
-2.338701e-009
-3.078303e-009
-3.545486e-009
-3.821089e-009
-3.960408e-009
-3.967497e-009
-3.843184e-009
-3.628184e-009
-3.388731e-009
-3.172821e-009
-2.993315e-009
-2.849355e-009
-2.749982e-009
-2.710913e-009
-2.736384e-009
-2.814629e-009
-2.931049e-009
-3.076436e-009
-3.236119e-009
-3.376284e-009
-3.451215e-009
-3.425988e-009
-3.282897e-009
-2.998501e-009
-2.523847e-009
-1.809146e-009
-8.613909e-010
2.286621e-010
1.326690e-009
2.312552e-009
3.075451e-009
3.453753e-009
3.232467e-009
2.278234e-009
7.230201e-010
-9.956816e-010
-2.313017e-009
-2.790057e-009
-2.252204e-009
-8.060408e-010
1.129779e-009
2.784013e-009
3.227242e-009
1.949265e-009
-5.317961e-010
-2.717435e-009
-3.106706e-009
-1.431581e-009
1.000317e-009
2.325094e-009
1.675120e-009
-1.492206e-010
-1.493927e-009
-1.340647e-009
-7.549485e-011
1.062953e-009
1.173931e-009
3.684355e-010
-5.525007e-010
-9.090421e-010
-6.272115e-010
-8.430064e-011
3.447822e-010
5.401167e-010
-3.803726e-009
-1.153803e-010
3.571479e-009
3.787940e-009
5.042500e-010
-3.164153e-009
-4.074107e-009
-1.736415e-009
1.736491e-009
3.770932e-009
3.255307e-009
8.441881e-010
-1.917226e-009
-3.533811e-009
-3.124230e-009
-7.970078e-010
2.200000e-009
3.988060e-009
3.261047e-009
3.365175e-010
-2.965300e-009
-4.640658e-009
-3.892086e-009
-1.430031e-009
1.367419e-009
3.481717e-009
4.601258e-009
4.804542e-009
4.194954e-009
2.883476e-009
1.149724e-009
-5.695558e-010
-1.907347e-009
-2.747199e-009
-3.171055e-009
-3.277718e-009
-3.092407e-009
-2.627872e-009
-1.967641e-009
-1.250425e-009
-5.847059e-010
-3.006407e-012
5.033944e-010
9.302654e-010
1.253666e-009
1.463243e-009
1.581469e-009
1.644963e-009
1.675997e-009
1.677009e-009
1.643945e-009
1.572583e-009
1.451072e-009
1.257232e-009
9.719068e-010
5.924235e-010
1.268644e-010
-4.204074e-010
-1.041949e-009
-1.695552e-009
-2.286431e-009
-2.696746e-009
-2.837318e-009
-2.661189e-009
-2.128137e-009
-1.190060e-009
1.389774e-010
1.676494e-009
3.059484e-009
3.880979e-009
3.869143e-009
2.966334e-009
1.313944e-009
-7.287138e-010
-2.520033e-009
-3.242521e-009
-2.357144e-009
-1.686969e-010
2.084074e-009
2.944792e-009
1.825953e-009
-4.687864e-010
-2.319392e-009
-2.510131e-009
-1.069949e-009
8.914218e-010
2.071724e-009
1.823298e-009
4.453928e-010
-1.086543e-009
-1.723017e-009
-1.015934e-009
4.896608e-010
1.550245e-009
1.202536e-009
-3.079011e-010
-1.610562e-009
-1.434219e-009
1.247548e-010
1.614039e-009
-4.866433e-009
4.067637e-010
5.255808e-009
4.646882e-009
-7.229862e-010
-5.431065e-009
-4.966795e-009
-2.961564e-011
4.590636e-009
4.868174e-009
1.056756e-009
-3.175133e-009
-4.416793e-009
-2.184626e-009
1.414818e-009
3.861100e-009
3.914319e-009
1.829972e-009
-1.257721e-009
-3.915733e-009
-4.859099e-009
-3.507401e-009
-4.339227e-010
2.843843e-009
4.795328e-009
4.815192e-009