# vtk DataFile Version 3.0
vtk output
ASCII
DATASET STRUCTURED_POINTS
DIMENSIONS 100 100 1
SPACING 1 1 1
ORIGIN 0 0 0
POINT_DATA 10000
SCALARS SFBox_profile double
LOOKUP_TABLE default 
0.000000e+000
0.000000e+000
0.000000e+000
0.000000e+000
0.000000e+000
0.000000e+000
0.000000e+000
0.000000e+000
0.000000e+000
0.000000e+000
0.000000e+000
0.000000e+000
0.000000e+000
0.000000e+000
0.000000e+000
0.000000e+000
0.000000e+000
0.000000e+000
0.000000e+000
0.000000e+000
0.000000e+000
0.000000e+000
0.000000e+000
0.000000e+000
0.000000e+000
0.000000e+000
0.000000e+000
0.000000e+000
0.000000e+000
0.000000e+000
0.000000e+000
0.000000e+000
0.000000e+000
0.000000e+000
0.000000e+000
0.000000e+000
0.000000e+000
0.000000e+000
0.000000e+000
0.000000e+000
0.000000e+000
0.000000e+000
0.000000e+000
0.000000e+000
0.000000e+000
0.000000e+000
0.000000e+000
0.000000e+000
0.000000e+000
0.000000e+000
0.000000e+000
0.000000e+000
0.000000e+000
0.000000e+000
0.000000e+000
0.000000e+000
0.000000e+000
0.000000e+000
0.000000e+000
0.000000e+000
0.000000e+000
0.000000e+000
0.000000e+000
0.000000e+000
0.000000e+000
0.000000e+000
0.000000e+000
0.000000e+000
0.000000e+000
0.000000e+000
0.000000e+000
0.000000e+000
0.000000e+000
0.000000e+000
0.000000e+000
0.000000e+000
0.000000e+000
0.000000e+000
0.000000e+000
0.000000e+000
0.000000e+000
0.000000e+000
0.000000e+000
0.000000e+000
0.000000e+000
0.000000e+000
0.000000e+000
0.000000e+000
0.000000e+000
0.000000e+000
0.000000e+000
0.000000e+000
0.000000e+000
0.000000e+000
0.000000e+000
0.000000e+000
0.000000e+000
0.000000e+000
0.000000e+000
0.000000e+000
-4.196791e-013
-5.276423e-013
-6.701173e-013
-7.388073e-013
-6.717254e-013
-5.301171e-013
-4.998372e-013
-7.644092e-013
-1.303685e-012
-1.778478e-012
-1.599921e-012
-1.511793e-013
2.994891e-012
8.005620e-012
1.487165e-011
2.357101e-011
3.422695e-011
4.722003e-011
6.323914e-011
8.324329e-011
1.083254e-010
1.395165e-010
1.776083e-010
2.230454e-010
2.758917e-010
3.358579e-010
4.023501e-010
4.745371e-010
5.514211e-010
6.319092e-010
7.148607e-010
7.991283e-010
8.835872e-010
9.671634e-010
1.048850e-009
1.127725e-009
1.202961e-009
1.273831e-009
1.339704e-009
1.400028e-009
1.454310e-009
1.502109e-009
1.543037e-009
1.576756e-009
1.602974e-009
1.621435e-009
1.631897e-009
1.634129e-009
1.627896e-009
1.612976e-009
1.589177e-009
1.556373e-009
1.514545e-009
1.463821e-009
1.404495e-009
1.337033e-009
1.262079e-009
1.180458e-009
1.093187e-009
1.001491e-009
9.067884e-010
8.106653e-010
7.148284e-010
6.210322e-010
5.309907e-010
4.462897e-010
3.682982e-010
2.980916e-010
2.363864e-010
1.835022e-010
1.393517e-010
1.034717e-010
7.508823e-011
5.320748e-011
3.672194e-011
2.452999e-011
1.564457e-011
9.272619e-012
4.836325e-012
1.930027e-012
2.424444e-013
-5.210685e-013
-6.679007e-013
-4.963802e-013
-2.561858e-013
-1.146642e-013
-1.266520e-013
-2.299184e-013
-2.880368e-013
-2.056494e-013
-3.948652e-014
4.017935e-014
-6.334504e-014
-2.238529e-013
-1.983930e-013
8.187083e-014
3.708144e-013
3.409013e-013
-3.667995e-014
-4.122216e-013
-1.242193e-012
-9.743754e-013
-6.169979e-013
-4.108752e-013
-5.006528e-013
-8.308123e-013
-1.167040e-012
-1.208257e-012
-7.035463e-013
5.072829e-013
2.540780e-012
5.553789e-012
9.824310e-012
1.582544e-011
2.427590e-011
3.613927e-011
5.254057e-011
7.461610e-011
1.033588e-010
1.395070e-010
1.834901e-010
2.354202e-010
2.951180e-010
3.621538e-010
4.358942e-010
5.155422e-010
6.001681e-010
6.887341e-010
7.801293e-010
8.732084e-010
9.668310e-010
1.059896e-009
1.151372e-009
1.240320e-009
1.325904e-009
1.407394e-009
1.484165e-009
1.555676e-009
1.621459e-009
1.681098e-009
1.734226e-009
1.780524e-009
1.819712e-009
1.851548e-009
1.875817e-009
1.892328e-009
1.900912e-009
1.901429e-009
1.893765e-009
1.877827e-009
1.853540e-009
1.820835e-009
1.779655e-009
1.729969e-009
1.671800e-009
1.605253e-009
1.530554e-009
1.448079e-009
1.358397e-009
1.262310e-009
1.160886e-009
1.055477e-009
9.477013e-010
8.393941e-010
7.325249e-010
6.290900e-010
5.309929e-010
4.399219e-010
3.572431e-010
2.839191e-010
2.204670e-010
1.669595e-010
1.230638e-010
8.810484e-011
6.114097e-011
4.105057e-011
2.661724e-011
1.662271e-011
9.933824e-012
5.579966e-012
2.807344e-012
1.092453e-012
1.051719e-013
-3.625961e-013
-4.787077e-013
-4.096956e-013
-2.951741e-013
-2.051008e-013
-1.384833e-013
-8.071808e-014
-5.060458e-014
-7.100861e-014
-1.125203e-013
-1.043400e-013
-2.225941e-014
7.122809e-014
9.526116e-014
4.197740e-014
-3.108482e-014
-7.392512e-014
-1.385928e-012
-1.109314e-012
-7.602897e-013
-6.098942e-013
-7.831404e-013
-1.096928e-012
-1.082792e-012
-2.137640e-013
1.841367e-012
5.150235e-012
9.718080e-012
1.580444e-011
2.414676e-011
3.598736e-011
5.294942e-011
7.684516e-011
1.094485e-010
1.522508e-010
2.062487e-010
2.718364e-010
3.488199e-010
4.365080e-010
5.338175e-010
6.393535e-010
7.514662e-010
8.683083e-010
9.878972e-010
1.108191e-009
1.227174e-009
1.342947e-009
1.453813e-009
1.558339e-009
1.655397e-009
1.744170e-009
1.824136e-009
1.895038e-009
1.956838e-009
2.009657e-009
2.053739e-009
2.089416e-009
2.117111e-009
2.137320e-009
2.150600e-009
2.157546e-009
2.158774e-009
2.154906e-009
2.146566e-009
2.134350e-009
2.118798e-009
2.100340e-009
2.079230e-009
2.055475e-009
2.028771e-009
1.998469e-009
1.963593e-009
1.922894e-009
1.874957e-009
1.818319e-009
1.751630e-009
1.673828e-009
1.584332e-009
1.483209e-009
1.371301e-009
1.250264e-009
1.122513e-009
9.910761e-010
8.593569e-010
7.308523e-010
6.088568e-010
4.961980e-010
3.950385e-010
3.067648e-010
2.319690e-010
1.705079e-010
1.216217e-010
8.407486e-011
5.630298e-011
3.655471e-011
2.303670e-011
1.406454e-011
8.211882e-012
4.413920e-012
1.979408e-012
5.021943e-013
-2.736610e-013
-5.496915e-013
-5.050555e-013
-2.992230e-013
-8.176954e-014
1.680244e-014
-4.495545e-014
-1.557926e-013
-1.379787e-013
3.556282e-014
1.583539e-013
2.902942e-014
-2.420085e-013
-3.049712e-013
-1.440264e-014
3.310446e-013
-4.013216e-013
-6.803890e-013
-1.079185e-012
-1.362978e-012
-1.303145e-012
-6.798382e-013
7.644483e-013
3.348702e-012
7.453296e-012
1.357456e-011
2.249213e-011
3.546112e-011
5.426046e-011
8.103206e-011
1.179995e-010
1.672204e-010
2.304207e-010
3.088570e-010
4.031651e-010
5.132207e-010
6.380517e-010
7.758130e-010
9.238044e-010
1.078532e-009
1.235839e-009
1.391128e-009
1.539649e-009
1.676827e-009
1.798554e-009
1.901433e-009
1.982950e-009
2.041556e-009
2.076665e-009
2.088578e-009
2.078360e-009
2.047694e-009
1.998730e-009
1.933947e-009
1.856056e-009
1.767945e-009
1.672649e-009
1.573333e-009
1.473263e-009
1.375785e-009
1.284299e-009
1.202198e-009
1.132783e-009
1.079130e-009
1.043916e-009
1.029230e-009
1.036353e-009
1.065551e-009
1.115861e-009
1.184948e-009
1.269034e-009
1.362964e-009
1.460405e-009
1.554183e-009
1.636746e-009
1.700732e-009
1.739613e-009
1.748326e-009
1.723823e-009
1.665443e-009
1.575036e-009
1.456802e-009
1.316850e-009
1.162553e-009
1.001774e-009
8.420976e-010
6.901568e-010
5.511467e-010
4.285681e-010
3.242129e-010
2.383524e-010
1.700586e-010
1.175711e-010
7.864404e-011
5.083145e-011
3.170630e-011
1.903786e-011
1.092433e-011
5.868370e-012
2.785072e-012
9.559989e-013
-4.326561e-014
-4.481616e-013
-4.387483e-013
-2.393434e-013
-8.940948e-014
-9.509590e-014
-1.454575e-013
-6.303170e-014
1.319035e-013
1.852001e-013
-7.038823e-014
-4.152085e-013
-4.216170e-013
2.022483e-014
4.917632e-013
1.491657e-013
-4.538959e-013
-1.205701e-012
-1.453110e-012
-6.720213e-013
1.388780e-012
4.871478e-012
1.017688e-011
1.826676e-011
3.072779e-011
4.965950e-011
7.753645e-011
1.171001e-010
1.712040e-010
2.425610e-010
3.334477e-010
4.454269e-010
5.790655e-010
7.335878e-010
9.065075e-010
1.093340e-009
1.287516e-009
1.480527e-009
1.662320e-009
1.821891e-009
1.948051e-009
2.030263e-009
2.059435e-009
2.028563e-009
1.933165e-009
1.771469e-009
1.544380e-009
1.255256e-009
9.095396e-010
5.143136e-010
7.785369e-011
-3.907874e-010
-8.820966e-010
-1.386309e-009
-1.893513e-009
-2.393684e-009
-2.876674e-009
-3.332185e-009
-3.749753e-009
-4.118789e-009
-4.428721e-009
-4.669264e-009
-4.830801e-009
-4.904879e-009
-4.884775e-009
-4.766120e-009
-4.547526e-009
-4.231184e-009
-3.823361e-009
-3.334708e-009
-2.780288e-009
-2.179235e-009
-1.554010e-009
-9.292489e-010
-3.302442e-010
2.188209e-010
6.967346e-010
1.086988e-009
1.379144e-009
1.569621e-009
1.661758e-009
1.665133e-009
1.594222e-009
1.466624e-009
1.301091e-009
1.115664e-009
9.261413e-010
7.450550e-010
5.812052e-010
4.397311e-010
3.225926e-010
2.292989e-010
1.577103e-010
1.047726e-010
6.709419e-011
4.134020e-011
2.447036e-011
1.386967e-011
7.431969e-012
3.612887e-012
1.415254e-012
2.576668e-013
-2.361205e-013
-3.772005e-013
-3.879975e-013
-3.264601e-013
-1.533687e-013
8.533464e-014
2.032906e-013
6.679131e-014
-2.103063e-013
-3.591425e-013
-2.306652e-013
6.918957e-014
3.037613e-013
-9.618919e-013
-1.000988e-012
-7.923272e-013
1.594275e-013
2.424644e-012
6.580405e-012
1.337023e-011
2.408170e-011
4.087152e-011
6.674981e-011
1.052543e-010
1.601162e-010
2.351055e-010
3.338964e-010
4.596717e-010
6.143977e-010
7.979254e-010
1.007096e-009
1.234938e-009
1.470040e-009
1.696293e-009
1.893161e-009
2.036571e-009
2.100327e-009
2.057911e-009
1.884462e-009
1.558724e-009
1.064716e-009
3.929311e-010
-4.590655e-010
-1.486629e-009
-2.678564e-009
-4.018052e-009
-5.483830e-009
-7.051450e-009
-8.694482e-009
-1.038552e-008
-1.209688e-008
-1.380108e-008
-1.547091e-008
-1.707947e-008
-1.859990e-008
-2.000521e-008
-2.126812e-008
-2.236107e-008
-2.325652e-008
-2.392759e-008
-2.434892e-008
-2.449790e-008
-2.435612e-008
-2.391092e-008
-2.315717e-008
-2.209880e-008
-2.075028e-008
-1.913764e-008
-1.729883e-008
-1.528327e-008
-1.315042e-008
-1.096716e-008
-8.804287e-009
-6.732022e-009
-4.815255e-009
-3.108779e-009
-1.653247e-009
-4.723835e-010
4.281157e-010
1.059819e-009
1.449036e-009
1.632937e-009
1.654908e-009
1.559829e-009
1.389908e-009
1.181558e-009
9.635416e-010
7.563800e-010
5.728210e-010
4.190423e-010
2.962437e-010
2.023113e-010
1.333009e-010
8.457719e-011
5.155394e-011
3.010197e-011
1.675634e-011
8.813997e-012
4.320819e-012
1.917302e-012
6.452485e-013
-1.156524e-013
-5.826358e-013
-6.572202e-013
-3.057323e-013
1.389315e-013
2.236170e-013
-7.426361e-014
-3.005672e-013
-1.529320e-013
1.079318e-013
1.001232e-013
-8.544173e-014
-2.387889e-012
-1.364127e-012
6.506901e-013
3.864732e-012
9.026556e-012
1.753926e-011
3.144549e-011
5.349740e-011
8.733687e-011
1.375568e-010
2.094579e-010
3.085650e-010
4.400465e-010
6.079276e-010
8.138385e-010
1.055235e-009
1.323367e-009
1.601422e-009
1.863130e-009
2.072071e-009
2.181941e-009
2.138040e-009
1.880060e-009
1.345975e-009
4.766167e-010
-7.796001e-010
-2.462374e-009
-4.596162e-009
-7.188154e-009
-1.022776e-008
-1.368751e-008
-1.752515e-008
-2.168650e-008
-2.610867e-008
-3.072338e-008
-3.545976e-008
-4.024667e-008
-4.501422e-008
-4.969447e-008
-5.422157e-008
-5.853130e-008
-6.256030e-008
-6.624529e-008
-6.952247e-008
-7.232742e-008
-7.459559e-008
-7.626350e-008
-7.727076e-008
-7.756267e-008
-7.709358e-008
-7.583064e-008
-7.375787e-008
-7.088021e-008
-6.722719e-008
-6.285585e-008
-5.785232e-008
-5.233164e-008
-4.643517e-008
-4.032550e-008
-3.417869e-008
-2.817431e-008
-2.248398e-008
-1.725957e-008
-1.262254e-008
-8.655735e-009
-5.398836e-009
-2.848222e-009
-9.611881e-010
3.361471e-010
1.138485e-009
1.550139e-009
1.674549e-009
1.605820e-009
1.423043e-009
1.187571e-009
9.429236e-010
7.166339e-010
5.232623e-010
3.678393e-010
2.491710e-010
1.626072e-010
1.020915e-010
6.149619e-011
3.538781e-011
1.936652e-011
1.008103e-011
5.024179e-012
2.324538e-012
7.325277e-013
-2.827104e-013
-6.979084e-013
-4.920340e-013
-6.761788e-014
4.139171e-014
-1.789915e-013
-2.270147e-013
1.121751e-013
3.602315e-013
6.524134e-014
-4.270693e-013
-1.276501e-012
6.230039e-013
4.567270e-012
1.116154e-011
2.189922e-011
3.941060e-011
6.741104e-011
1.105605e-010
1.744946e-010
2.659260e-010
3.923358e-010
5.608741e-010
7.764483e-010
1.039168e-009
1.341169e-009
1.662859e-009
1.968922e-009
2.204776e-009
2.294262e-009
2.139255e-009
1.621738e-009
6.087282e-010
-1.040001e-009
-3.462004e-009
-6.781180e-009
-1.109713e-008
-1.647620e-008
-2.294539e-008
-3.048964e-008
-3.905269e-008
-4.854118e-008
-5.883094e-008
-6.977479e-008
-8.121068e-008
-9.296929e-008
-1.048805e-007
-1.167780e-007
-1.285021e-007
-1.399010e-007
-1.508300e-007
-1.611497e-007
-1.707241e-007
-1.794180e-007
-1.870953e-007
-1.936184e-007
-1.988484e-007
-2.026479e-007
-2.048846e-007
-2.054367e-007
-2.042000e-007
-2.010960e-007
-1.960807e-007
-1.891540e-007
-1.803683e-007
-1.698361e-007
-1.577349e-007
-1.443087e-007
-1.298646e-007
-1.147637e-007
-9.940622e-008
-8.421049e-008
-6.958817e-008
-5.591718e-008
-4.351569e-008
-3.262045e-008
-2.337248e-008
-1.581226e-008
-9.885204e-009
-5.456290e-009
-2.331671e-009
-2.836380e-010
9.246481e-010
1.517956e-009
1.693483e-009
1.611951e-009
1.394944e-009
1.127215e-009
8.622110e-010
6.290981e-010
4.398472e-010
2.954612e-010
1.908819e-010
1.185178e-010
7.052295e-011
4.003024e-011
2.157104e-011
1.099894e-011
5.265322e-012
2.259828e-012
6.995421e-013
-7.073193e-014
-3.827610e-013
-4.683199e-013
-4.593308e-013
-3.198957e-013
1.909227e-014
3.851055e-013
3.998094e-013
-5.482993e-014
-5.532947e-013
4.268716e-012
7.174339e-012
1.395714e-011
2.646720e-011
4.754505e-011
8.140193e-011
1.339192e-010
2.125759e-010
3.260785e-010
4.837340e-010
6.940932e-010
9.621518e-010
1.284823e-009
1.644946e-009
2.004190e-009
2.295166e-009
2.413440e-009
2.210899e-009
1.492403e-009
1.742769e-011
-2.492172e-009
-6.337989e-009
-1.182521e-008
-1.923896e-008
-2.881966e-008
-4.074080e-008
-5.509187e-008
-7.186887e-008
-9.097285e-008
-1.122165e-007
-1.353369e-007
-1.600133e-007
-1.858856e-007
-2.125736e-007
-2.396939e-007
-2.668723e-007
-2.937530e-007
-3.200029e-007
-3.453120e-007
-3.693905e-007
-3.919636e-007
-4.127659e-007
-4.315349e-007
-4.480068e-007
-4.619140e-007
-4.729850e-007
-4.809484e-007
-4.855392e-007
-4.865092e-007
-4.836402e-007
-4.767592e-007
-4.657568e-007
-4.506062e-007
-4.313819e-007
-4.082775e-007
-3.816194e-007
-3.518741e-007
-3.196472e-007
-2.856707e-007
-2.507776e-007
-2.158637e-007
-1.818382e-007
-1.495660e-007
-1.198093e-007
-9.317445e-008
-7.007158e-008
-5.069366e-008
-3.501786e-008
-2.282904e-008
-1.376113e-008
-7.349465e-009
-3.085798e-009
-4.681833e-010
9.600445e-010
1.585175e-009
1.712031e-009
1.564749e-009
1.295948e-009
1.000455e-009
7.301958e-010
5.078753e-010
3.381590e-010
2.160163e-010
1.324047e-010
7.769612e-011
4.339334e-011
2.279386e-011
1.109235e-011
5.060079e-012
2.392344e-012
1.214366e-012
2.514273e-013
-7.133318e-013
-1.091884e-012
-5.691269e-013
2.681175e-013
5.854071e-013
2.559618e-013
-2.124543e-013
-4.495561e-013
1.538397e-011
2.082230e-011
3.364148e-011
5.729040e-011
9.654608e-011
1.580143e-010
2.507687e-010
3.861620e-010
5.763244e-010
8.314120e-010
1.155360e-009
1.539243e-009
1.951400e-009
2.324345e-009
2.539253e-009
2.409422e-009
1.664847e-009
-5.874438e-011
-3.222381e-009
-8.374414e-009
-1.612727e-008
-2.712074e-008
-4.197456e-008
-6.123526e-008
-8.532425e-008
-1.144944e-007
-1.488009e-007
-1.880910e-007
-2.320114e-007
-2.800335e-007
-3.314903e-007
-3.856193e-007
-4.416075e-007
-4.986321e-007
-5.558935e-007
-6.126390e-007
-6.681765e-007
-7.218784e-007
-7.731779e-007
-8.215588e-007
-8.665430e-007
-9.076751e-007
-9.445097e-007
-9.765998e-007
-1.003490e-006
-1.024716e-006
-1.039807e-006
-1.048294e-006
-1.049727e-006
-1.043698e-006
-1.029861e-006
-1.007969e-006
-9.779065e-007
-9.397253e-007
-8.936844e-007
-8.402820e-007
-7.802819e-007
-7.147261e-007
-6.449286e-007
-5.724448e-007
-4.990143e-007
-4.264751e-007
-3.566549e-007
-2.912486e-007
-2.316956e-007
-1.790738e-007
-1.340290e-007
-9.674830e-008
-6.698548e-008
-4.413050e-008
-2.731183e-008
-1.551265e-008
-7.682901e-009
-2.832160e-009
-9.452604e-011
1.236625e-009
1.700859e-009
1.683180e-009
1.438840e-009
1.123041e-009
8.198220e-010
5.666629e-010
3.733908e-010
2.354402e-010
1.422740e-010
8.220559e-011
4.495288e-011
2.283812e-011
1.078191e-011
5.205990e-012
2.911143e-012
1.307095e-012
-4.191652e-013
-1.357740e-012
-8.204775e-013
2.700582e-013
5.491795e-013
2.915779e-014
-3.036561e-013
-2.003338e-013
3.557697e-011
4.652089e-011
7.101725e-011
1.141964e-010
1.837353e-010
2.901169e-010
4.466542e-010
6.681361e-010
9.669658e-010
1.346216e-009
1.789078e-009
2.243457e-009
2.600296e-009
2.665473e-009
2.127395e-009
5.243232e-010
-2.782843e-009
-8.625217e-009
-1.802024e-008
-3.213924e-008
-5.224531e-008
-7.960397e-008
-1.153745e-007
-1.604953e-007
-2.155800e-007
-2.808397e-007
-3.560443e-007
-4.405278e-007
-5.332351e-007
-6.328006e-007
-7.376470e-007
-8.460886e-007
-9.564276e-007
-1.067035e-006
-1.176406e-006
-1.283198e-006
-1.386238e-006
-1.484518e-006
-1.577175e-006
-1.663461e-006
-1.742712e-006
-1.814319e-006
-1.877698e-006
-1.932266e-006
-1.977431e-006
-2.012574e-006
-2.037056e-006
-2.050217e-006
-2.051395e-006
-2.039948e-006
-2.015281e-006
-1.976895e-006
-1.924430e-006
-1.857734e-006
-1.776924e-006
-1.682468e-006
-1.575253e-006
-1.456649e-006
-1.328553e-006
-1.193387e-006
-1.054060e-006
-9.138629e-007
-7.762931e-007
-6.448310e-007
-5.226754e-007
-4.124824e-007
-3.161461e-007
-2.346641e-007
-1.681104e-007
-1.157213e-007
-7.607197e-008
-4.730917e-008
-2.739325e-008
-1.431328e-008
-6.248141e-009
-1.664212e-009
6.468820e-010
1.577798e-009
1.745943e-009
1.548948e-009
1.222391e-009
8.913120e-010
6.112842e-010
3.981380e-010
2.476313e-010
1.473830e-010
8.361004e-011
4.464932e-011
2.217885e-011
1.053267e-011
5.235783e-012
2.566735e-012
5.236015e-013
-7.911975e-013
-7.848495e-013
-8.473136e-014
1.178887e-013
-2.165866e-013
-2.434295e-013
9.835439e-014
7.335436e-011
9.367338e-011
1.375633e-010
2.123670e-010
3.299884e-010
5.060553e-010
7.575684e-010
1.098326e-009
1.530137e-009
2.027402e-009
2.513025e-009
2.823812e-009
2.663948e-009
1.547445e-009
-1.265306e-009
-6.827303e-009
-1.654800e-008
-3.220452e-008
-5.590536e-008
-8.999463e-008
-1.368930e-007
-1.988848e-007
-2.778743e-007
-3.751475e-007
-4.911794e-007
-6.255228e-007
-7.767995e-007
-9.427947e-007
-1.120637e-006
-1.307028e-006
-1.498494e-006
-1.691608e-006
-1.883184e-006
-2.070404e-006
-2.250890e-006
-2.422726e-006
-2.584421e-006
-2.734860e-006
-2.873232e-006
-2.998952e-006
-3.111600e-006
-3.210860e-006
-3.296476e-006
-3.368210e-006
-3.425811e-006
-3.468988e-006
-3.497385e-006
-3.510561e-006
-3.507973e-006
-3.488967e-006
-3.452781e-006
-3.398560e-006
-3.325398e-006
-3.232402e-006
-3.118792e-006
-2.984041e-006
-2.828046e-006
-2.651322e-006
-2.455220e-006
-2.242105e-006
-2.015488e-006
-1.780039e-006
-1.541442e-006
-1.306070e-006
-1.080489e-006
-8.708606e-007
-6.823233e-007
-5.184929e-007
-3.811671e-007
-2.702975e-007
-1.842179e-007
-1.200625e-007
-7.427013e-008
-4.307294e-008
-2.289165e-008
-1.060017e-008
-3.657292e-009
-1.283537e-010
1.369010e-009
1.760651e-009
1.624733e-009
1.293979e-009
9.404126e-010
6.388916e-010
4.107643e-010
2.515538e-010
1.470659e-010
8.182563e-011
4.287416e-011
2.086103e-011
9.478099e-012
4.262553e-012
1.954777e-012
6.591016e-013
-1.930030e-013
-6.137212e-013
-6.859581e-013
-4.889688e-013
-4.595617e-014
3.758809e-013
1.423405e-010
1.767907e-010
2.504149e-010
3.739414e-010
5.642221e-010
8.410510e-010
1.220178e-009
1.701638e-009
2.249804e-009
2.759712e-009
3.004854e-009
2.563812e-009
7.255577e-010
-3.622190e-009
-1.210961e-008
-2.698526e-008
-5.117144e-008
-8.824058e-008
-1.422799e-007
-2.176216e-007
-3.184380e-007
-4.482368e-007
-6.093280e-007
-8.023611e-007
-1.026033e-006
-1.277038e-006
-1.550289e-006
-1.839352e-006
-2.137032e-006
-2.435997e-006
-2.729337e-006
-3.011007e-006
-3.276110e-006
-3.521018e-006
-3.743352e-006
-3.941854e-006
-4.116192e-006
-4.266739e-006
-4.394377e-006
-4.500328e-006
-4.586036e-006
-4.653092e-006
-4.703184e-006
-4.738051e-006
-4.759445e-006
-4.769062e-006
-4.768460e-006
-4.758953e-006
-4.741482e-006
-4.716479e-006
-4.683728e-006
-4.642236e-006
-4.590143e-006
-4.524691e-006
-4.442272e-006
-4.338597e-006
-4.209014e-006
-4.048975e-006
-3.854676e-006
-3.623806e-006
-3.356321e-006
-3.055093e-006
-2.726263e-006
-2.379126e-006
-2.025462e-006
-1.678353e-006
-1.350653e-006
-1.053428e-006
-7.946771e-007
-5.786311e-007
-4.057172e-007
-2.731368e-007
-1.758315e-007
-1.075675e-007
-6.190248e-008
-3.289734e-008
-1.553141e-008
-5.858631e-009
-9.748496e-010
1.126609e-009
1.746109e-009
1.669885e-009
1.336271e-009
9.647162e-010
6.474451e-010
4.097517e-010
2.464629e-010
1.415470e-010
7.742180e-011
3.945369e-011
1.799063e-011
7.527920e-012
3.848366e-012
2.612115e-012
9.771621e-013
-9.118514e-013
-1.564347e-012
-8.075811e-013
1.595500e-013
5.791536e-013
2.606126e-010
3.156924e-010
4.334080e-010
6.287915e-010
9.220112e-010
1.330851e-009
1.855382e-009
2.451295e-009
2.985344e-009
3.163629e-009
2.424354e-009
-2.086761e-010
-6.308648e-009
-1.825117e-008
-3.941396e-008
-7.432274e-008
-1.286768e-007
-2.091767e-007
-3.230823e-007
-4.774614e-007
-6.781597e-007
-9.286222e-007
-1.228793e-006
-1.574371e-006
-1.956649e-006
-2.363045e-006
-2.778249e-006
-3.185771e-006
-3.569576e-006
-3.915533e-006
-4.212472e-006
-4.452762e-006
-4.632433e-006
-4.750904e-006
-4.810458e-006
-4.815565e-006
-4.772188e-006
-4.687172e-006
-4.567772e-006
-4.421370e-006
-4.255338e-006
-4.077035e-006
-3.893852e-006
-3.713254e-006
-3.542775e-006
-3.389924e-006
-3.261995e-006
-3.165774e-006
-3.107166e-006
-3.090727e-006
-3.119162e-006
-3.192774e-006
-3.308948e-006
-3.461684e-006
-3.641282e-006
-3.834263e-006
-4.023652e-006
-4.189746e-006
-4.311478e-006
-4.368374e-006
-4.343013e-006
-4.223651e-006
-4.006565e-006
-3.697526e-006
-3.311896e-006
-2.873068e-006
-2.409387e-006
-1.950094e-006
-1.521212e-006
-1.142283e-006
-8.246676e-007
-5.715877e-007
-3.795871e-007
-2.407704e-007
-1.451194e-007
-8.238771e-008
-4.335566e-008
-2.046182e-008
-7.954332e-009
-1.740009e-009
9.153040e-010
1.724593e-009
1.689199e-009
1.348423e-009
9.623656e-010
6.356617e-010
3.950729e-010
2.334649e-010
1.318260e-010
7.016885e-011
3.373134e-011
1.439414e-011
6.816947e-012
4.671010e-012
2.464365e-012
-6.041297e-013
-2.046028e-012
-1.122071e-012
2.039247e-013
6.496901e-013
4.514991e-010
5.364305e-010
7.172798e-010
1.012153e-009
1.438048e-009
1.994624e-009
2.632388e-009
3.195430e-009
3.326961e-009
2.323708e-009
-1.073579e-009
-8.957820e-009
-2.458957e-008
-5.275099e-008
-1.000490e-007
-1.750526e-007
-2.881051e-007
-4.506274e-007
-6.737554e-007
-9.662778e-007
-1.332070e-006
-1.767514e-006
-2.259611e-006
-2.785486e-006
-3.313686e-006
-3.807186e-006
-4.227512e-006
-4.539130e-006
-4.713212e-006
-4.730195e-006
-4.580876e-006
-4.266144e-006
-3.795681e-006
-3.186010e-006
-2.458306e-006
-1.636288e-006
-7.444500e-007
1.932327e-007
1.154052e-006
2.116818e-006
3.061712e-006
3.969898e-006
4.823052e-006
5.602966e-006
6.291315e-006
6.869651e-006
7.319652e-006
7.623606e-006
7.765125e-006
7.730064e-006
7.507637e-006
7.091710e-006
6.482247e-006
5.686854e-006
4.722310e-006
3.615876e-006
2.406091e-006
1.142608e-006
-1.153709e-007
-1.302449e-006
-2.352332e-006
-3.204750e-006
-3.813174e-006
-4.151913e-006
-4.220882e-006
-4.046514e-006
-3.678000e-006
-3.179290e-006
-2.618550e-006
-2.057619e-006
-1.544013e-006
-1.107105e-006
-7.586520e-007
-4.965096e-007
-3.097316e-007
-1.834107e-007
-1.022980e-007
-5.295720e-008
-2.468425e-008
-9.596642e-009
-2.271098e-009
7.927756e-010
1.713242e-009
1.685520e-009
1.329876e-009
9.332649e-010
6.049263e-010
3.689492e-010
2.139802e-010
1.177894e-010
5.997189e-011
2.742868e-011
1.231083e-011
6.967082e-012
3.949596e-012
4.278285e-013
-1.717757e-012
-1.276401e-012
-1.015343e-014
5.170091e-013
7.453594e-010
8.720891e-010
1.138002e-009
1.558059e-009
2.130352e-009
2.801343e-009
3.400308e-009
3.522861e-009
2.342853e-009
-1.668432e-009
-1.113316e-008
-3.026768e-008
-6.545557e-008
-1.257962e-007
-2.234480e-007
-3.734769e-007
-5.928099e-007
-8.978599e-007
-1.300539e-006
-1.802859e-006
-2.391056e-006
-3.030944e-006
-3.666418e-006
-4.222485e-006
-4.612860e-006
-4.750724e-006
-4.560196e-006
-3.985994e-006
-2.999435e-006
-1.600096e-006
1.864660e-007
2.313782e-006
4.720989e-006
7.339567e-006
1.009935e-005
1.293319e-005
1.578006e-005
1.858659e-005
2.130722e-005
2.390344e-005
2.634243e-005
2.859541e-005
3.063607e-005
3.243926e-005
3.398004e-005
3.523304e-005
3.617231e-005
3.677137e-005
3.700357e-005
3.684281e-005
3.626455e-005
3.524743e-005
3.377557e-005
3.184173e-005
2.945140e-005
2.662775e-005
2.341685e-005
1.989238e-005
1.615843e-005
1.234870e-005
8.620668e-006
5.143621e-006
2.080954e-006
-4.310666e-007
-2.303911e-006
-3.511615e-006
-4.095213e-006
-4.154456e-006
-3.828091e-006
-3.267664e-006
-2.611876e-006
-1.968033e-006
-1.404179e-006
-9.514520e-007
-6.130887e-007
-3.755059e-007
-2.179388e-007
-1.190216e-007
-6.030518e-008
-2.751749e-008
-1.048820e-008
-2.456000e-009
7.927474e-010
1.718319e-009
1.658715e-009
1.281257e-009
8.799917e-010
5.583491e-010
3.332155e-010
1.885085e-010
1.004866e-010
4.939210e-011
2.241422e-011
1.046177e-011
5.419390e-012
2.029026e-012
-4.325317e-013
-1.053941e-012
-4.320230e-013
1.221674e-013
1.179848e-009
1.361137e-009
1.731177e-009
2.286312e-009
2.972265e-009
3.611576e-009
3.772088e-009
2.541956e-009
-1.824697e-009
-1.242387e-008
-3.439749e-008
-7.578456e-008
-1.484154e-007
-2.685902e-007
-4.570656e-007
-7.375901e-007
-1.132995e-006
-1.657929e-006
-2.308115e-006
-3.047717e-006
-3.798466e-006
-4.435496e-006
-4.793967e-006
-4.687441e-006
-3.934797e-006
-2.389258e-006
3.766875e-008
3.362752e-006
7.530171e-006
1.242178e-005
1.787485e-005
2.370289e-005
2.971569e-005
3.573578e-005
4.160993e-005
4.721520e-005
5.246018e-005
5.728263e-005
6.164498e-005
6.552920e-005
6.893187e-005
7.185998e-005
7.432754e-005
7.635294e-005
7.795657e-005
7.915860e-005
7.997649e-005
8.042204e-005
8.049810e-005
8.019497e-005
7.948694e-005
7.832972e-005
7.665959e-005
7.439553e-005
7.144545e-005
6.771762e-005
6.313760e-005
5.767003e-005
5.134288e-005
4.426962e-005
3.666288e-005
2.883208e-005
2.115968e-005
1.405529e-005
7.894526e-006
2.956457e-006
-6.237459e-007
-2.873074e-006
-3.964159e-006
-4.168396e-006
-3.793155e-006
-3.122021e-006
-2.373864e-006
-1.687760e-006
-1.130413e-006
-7.162868e-007
-4.299756e-007
-2.440335e-007
-1.300984e-007
-6.422958e-008
-2.847254e-008
-1.046015e-008
-2.255125e-009
9.140507e-010
1.732757e-009
1.606151e-009
1.204559e-009
8.059728e-010
4.984209e-010
2.898174e-010
1.599439e-010
8.318252e-011
3.946118e-011
1.686108e-011
7.450000e-012
3.981723e-012
1.641935e-012
-2.802119e-013
-8.696408e-013
-5.408951e-013
1.796687e-009
2.041461e-009
2.520226e-009
3.179163e-009
3.845541e-009
4.083944e-009
2.944388e-009
-1.452359e-009
-1.255152e-008
-3.626862e-008
-8.216116e-008
-1.647595e-007
-3.047329e-007
-5.291868e-007
-8.698151e-007
-1.356960e-006
-2.007357e-006
-2.804361e-006
-3.672731e-006
-4.455065e-006
-4.901264e-006
-4.682161e-006
-3.431857e-006
-8.124856e-007
3.414425e-006
9.329545e-006
1.682621e-005
2.561631e-005
3.526848e-005
4.526791e-005
5.508296e-005
6.422512e-005
7.229361e-005
7.900106e-005
8.418074e-005
8.777854e-005
8.983443e-005
9.045922e-005
8.981217e-005
8.808316e-005
8.548098e-005
8.222706e-005
7.855279e-005
7.469818e-005
7.090959e-005
6.743526e-005
6.451744e-005
6.238081e-005
6.121719e-005
6.116696e-005
6.229810e-005
6.458440e-005
6.788523e-005
7.193010e-005
7.631259e-005
8.049911e-005
8.385857e-005
8.571836e-005
8.544841e-005
8.256798e-005
7.685799e-005
6.845045e-005
5.786143e-005
4.594295e-005
3.375119e-005
2.235665e-005
1.264497e-005
5.165559e-006
6.976324e-008
-2.853023e-006
-4.061683e-006
-4.114590e-006
-3.534495e-006
-2.722076e-006
-1.928677e-006
-1.275238e-006
-7.931882e-007
-4.657017e-007
-2.578541e-007
-1.337887e-007
-6.407683e-008
-2.738159e-008
-9.519895e-009
-1.714107e-009
1.120733e-009
1.739349e-009
1.524292e-009
1.102000e-009
7.144976e-010
4.292729e-010
2.439616e-010
1.320428e-010
6.578602e-011
2.827924e-011
1.126761e-011
6.303424e-012
4.148079e-012
1.081597e-012
-1.073105e-012
-1.386789e-012
2.634220e-009
2.939239e-009
3.496586e-009
4.143727e-009
4.467613e-009
3.536195e-009
-5.600031e-010
-1.143995e-008
-3.552656e-008
-8.354978e-008
-1.723784e-007
-3.268216e-007
-5.804814e-007
-9.737509e-007
-1.545644e-006
-2.314959e-006
-3.247056e-006
-4.207806e-006
-4.916708e-006
-4.922791e-006
-3.630711e-006
-3.931825e-007
5.339053e-006
1.384487e-005
2.498851e-005
3.814966e-005
5.225337e-005
6.590037e-005
7.756629e-005