# vtk DataFile Version 3.0
vtk output
ASCII
DATASET STRUCTURED_POINTS
DIMENSIONS 100 100 1
SPACING 1 1 1
ORIGIN 0 0 0
POINT_DATA 10000
SCALARS SFBox_profile double
LOOKUP_TABLE default 
0.000000e+000
0.000000e+000
0.000000e+000
0.000000e+000
0.000000e+000
0.000000e+000
0.000000e+000
0.000000e+000
0.000000e+000
0.000000e+000
0.000000e+000
0.000000e+000
0.000000e+000
0.000000e+000
0.000000e+000
0.000000e+000
0.000000e+000
0.000000e+000
0.000000e+000
0.000000e+000
0.000000e+000
0.000000e+000
0.000000e+000
0.000000e+000
0.000000e+000
0.000000e+000
0.000000e+000
0.000000e+000
0.000000e+000
0.000000e+000
0.000000e+000
0.000000e+000
0.000000e+000
0.000000e+000
0.000000e+000
0.000000e+000
0.000000e+000
0.000000e+000
0.000000e+000
0.000000e+000
0.000000e+000
0.000000e+000
0.000000e+000
0.000000e+000
0.000000e+000
0.000000e+000
0.000000e+000
0.000000e+000
0.000000e+000
0.000000e+000
0.000000e+000
0.000000e+000
0.000000e+000
0.000000e+000
0.000000e+000
0.000000e+000
0.000000e+000
0.000000e+000
0.000000e+000
0.000000e+000
0.000000e+000
0.000000e+000
0.000000e+000
0.000000e+000
0.000000e+000
0.000000e+000
0.000000e+000
0.000000e+000
0.000000e+000
0.000000e+000
0.000000e+000
0.000000e+000
0.000000e+000
0.000000e+000
0.000000e+000
0.000000e+000
0.000000e+000
0.000000e+000
0.000000e+000
0.000000e+000
0.000000e+000
0.000000e+000
0.000000e+000
0.000000e+000
0.000000e+000
0.000000e+000
0.000000e+000
0.000000e+000
0.000000e+000
0.000000e+000
0.000000e+000
0.000000e+000
0.000000e+000
0.000000e+000
0.000000e+000
0.000000e+000
0.000000e+000
0.000000e+000
0.000000e+000
0.000000e+000
-9.286703e-009
-6.543452e-009
-2.010212e-009
2.512516e-009
4.972535e-009
4.195506e-009
8.170660e-010
-2.921301e-009
-4.617956e-009
-3.360610e-009
-2.672044e-010
2.477411e-009
3.248859e-009
1.999070e-009
1.534047e-011
-1.210458e-009
-1.072899e-009
-1.440475e-010
4.583001e-010
8.538441e-011
-8.761475e-010
-1.391291e-009
-8.078845e-010
4.377800e-010
1.198106e-009
7.749720e-010
-3.228172e-010
-8.885057e-010
-3.129490e-010
7.405157e-010
1.069908e-009
2.879074e-010
-7.409523e-010
-8.966407e-010
-8.938854e-011
6.635405e-010
4.545264e-010
-4.498391e-010
-9.556499e-010
-4.655075e-010
4.211664e-010
6.605647e-010
3.258064e-011
-6.212442e-010
-4.559425e-010
3.410650e-010
8.019485e-010
3.811436e-010
-3.882052e-010
-5.784125e-010
-1.857879e-011
5.188874e-010
3.070474e-010
-4.206908e-010
-7.658065e-010
-2.871543e-010
4.526890e-010
5.875207e-010
1.368072e-011
-4.967025e-010
-2.597274e-010
4.808172e-010
8.651128e-010
4.764629e-010
-1.617703e-010
-2.476218e-010
3.078882e-010
7.722411e-010
4.843042e-010
-3.447915e-010
-8.820705e-010
-6.542462e-010
-7.848434e-011
7.346162e-011
-3.817643e-010
-8.094232e-010
-5.010303e-010
4.779232e-010
1.302839e-009
1.236915e-009
3.680131e-010
-5.329203e-010
-8.132556e-010
-5.138245e-010
-1.643936e-010
-1.223277e-010
-2.155305e-010
-4.015663e-011
4.751812e-010
8.919274e-010
6.832332e-010
-1.757975e-010
-1.066129e-009
-1.216221e-009
-3.999166e-010
7.999014e-010
1.429416e-009
9.519360e-010
-2.840770e-010
-1.306869e-009
-7.255481e-010
-8.545576e-010
-7.490967e-010
-1.807324e-010
5.592530e-010
8.795563e-010
4.958757e-010
-2.461017e-010
-6.870828e-010
-4.711546e-010
1.593505e-010
6.306524e-010
5.481027e-010
-1.519614e-011
-6.229084e-010
-8.136840e-010
-4.241229e-010
2.825686e-010
7.769664e-010
6.670021e-010
6.585692e-011
-4.521789e-010
-3.763537e-010
1.993336e-010
6.257918e-010
3.801053e-010
-3.251643e-010
-7.279115e-010
-3.597162e-010
3.947682e-010
7.066976e-010
2.523859e-010
-4.004533e-010
-4.507726e-010
1.901696e-010
7.917016e-010
6.747454e-010
2.058484e-011
-3.577534e-010
-2.861251e-012
6.418508e-010
7.874817e-010
2.665556e-010
-2.745633e-010
-1.817318e-010
4.069739e-010
7.500737e-010
4.299983e-010
-1.384353e-010
-2.389691e-010
2.514411e-010
7.188134e-010
5.843627e-010
1.979098e-011
-2.797495e-010
3.308014e-011
5.331323e-010
5.625063e-010
4.957292e-011
-4.099925e-010
-2.965056e-010
1.976383e-010
4.192486e-010
6.638409e-011
-4.453484e-010
-5.001691e-010
-3.300261e-011
4.031853e-010
3.173279e-010
-1.328323e-010
-3.497401e-010
-2.801454e-011
4.782006e-010
5.774374e-010
1.328569e-010
-3.891392e-010
-4.609539e-010
-7.572860e-011
2.867459e-010
2.281704e-010
-1.376662e-010
-3.558417e-010
-1.638712e-010
2.269410e-010
3.878394e-010
1.476526e-010
-2.356129e-010
-3.624252e-010
-1.070236e-010
2.678995e-010
3.860246e-010
1.256421e-010
-2.730181e-010
-4.404981e-010
-2.170134e-010
2.086126e-010
4.692058e-010
3.382367e-010
-7.815070e-011
-4.334337e-010
9.202785e-009
5.900794e-009
1.032185e-009
-2.983402e-009
-4.414980e-009
-3.050606e-009
-9.950361e-011
2.614770e-009
3.650840e-009
2.647495e-009
4.123541e-010
-1.649030e-009
-2.449823e-009
-1.877369e-009
-6.983129e-010
1.862722e-010
4.587835e-010
4.448738e-010
5.629643e-010
8.196264e-010
8.816831e-010
5.575865e-010
6.855539e-011
-2.049392e-010
-1.578548e-010
-3.452367e-011
-7.916085e-011
-2.299700e-010
-2.386649e-010
-3.089534e-011
1.822816e-010
1.885113e-010
6.893066e-011
1.000625e-010
3.799119e-010
6.714876e-010
6.865288e-010
4.565150e-010
3.074547e-010
4.539184e-010
7.227617e-010
7.650539e-010
4.972521e-010
2.147649e-010
2.295135e-010
4.851010e-010
6.342229e-010
4.805338e-010
2.276448e-010
2.220492e-010
5.143524e-010
7.891703e-010
7.482055e-010
4.654827e-010
2.774992e-010
3.580685e-010
5.137830e-010
4.451349e-010
1.314967e-010
-1.447944e-010
-1.545483e-010
-2.640123e-012
1.424981e-011
-2.152905e-010
-4.782278e-010
-4.982116e-010
-2.620009e-010
-1.266588e-011
6.147006e-011
4.460466e-011
1.584262e-010
4.601889e-010
7.500326e-010
7.857354e-010
5.301388e-010
1.478127e-010
-2.008582e-010
-4.865935e-010
-7.204893e-010
-8.117862e-010
-6.051400e-010
-8.091346e-011
5.296175e-010
8.818640e-010
7.862963e-010
3.402451e-010
-1.842041e-010
-5.478889e-010
-6.458560e-010
-4.736986e-010
-8.586010e-011
3.769160e-010
6.733681e-010
5.772151e-010
8.074582e-011
-5.159003e-010
-7.790078e-010
-4.813249e-010
1.822336e-010
7.179733e-010
1.184369e-008
8.029972e-009
2.147620e-009
-3.150185e-009
-5.589400e-009
-4.402376e-009
-7.169881e-010
3.065064e-009
4.654834e-009
3.261167e-009
5.743932e-011
-2.684096e-009
-3.243796e-009
-1.655347e-009
5.030131e-010
1.530097e-009
9.854071e-010
-1.587403e-010
-6.246751e-010
-5.947113e-011
7.770792e-010
9.285268e-010
2.393931e-010
-5.676340e-010
-7.118108e-010
-1.440312e-010
4.905977e-010
5.823135e-010
1.544194e-010
-2.569455e-010
-2.179926e-010
1.880744e-010
5.347890e-010
5.418837e-010
3.292006e-010
2.168843e-010
3.571179e-010
6.069133e-010
7.305239e-010
6.622150e-010
5.441128e-010
5.383604e-010
6.501597e-010
7.479545e-010
7.284166e-010
6.273307e-010
5.637418e-010
5.996175e-010
6.791453e-010
7.062184e-010
6.592921e-010
6.085445e-010
6.204847e-010
6.675941e-010
6.541317e-010
5.317671e-010
3.683973e-010
2.815451e-010
3.054974e-010
3.471382e-010
2.905558e-010
1.351051e-010
1.970424e-012
-7.791558e-012
6.089197e-011
6.603035e-011
-5.339923e-011
-1.834092e-010
-1.546966e-010
5.043566e-011
2.555547e-010
2.848009e-010
1.756365e-010
1.405482e-010
2.930095e-010
4.555935e-010
3.130286e-010
-2.161043e-010
-8.023914e-010
-9.640020e-010
-5.275861e-010
1.885242e-010
6.712018e-010
6.801659e-010
4.002400e-010
1.509350e-010
1.634005e-011
-1.744647e-010
-5.151209e-010
-7.671424e-010
-5.426952e-010
2.221291e-010
1.032082e-009
1.174349e-009
3.823361e-010
-8.168572e-010
-1.465565e-009
-9.821560e-010
3.008210e-010
1.371698e-009
4.212778e-009
3.338236e-009
1.683774e-009
-3.279733e-010
-1.872987e-009
-2.129683e-009
-9.574616e-010
7.852669e-010
1.745279e-009
1.134980e-009
-5.389067e-010
-1.813173e-009
-1.498128e-009
2.438453e-010
1.977497e-009
2.229373e-009
7.906218e-010
-1.110188e-009
-1.933191e-009
-1.200451e-009
1.664562e-010
8.232001e-010
3.049880e-010
-6.169607e-010
-8.197235e-010
-4.361745e-012
1.039533e-009
1.305639e-009
6.257425e-010
-1.990543e-010
-2.874159e-010
3.972493e-010
1.069976e-009
1.023666e-009
3.894227e-010
-6.242611e-011
1.882856e-010
8.528268e-010
1.211710e-009
9.546472e-010
5.048554e-010
4.828235e-010
9.706564e-010
1.441578e-009
1.407079e-009
9.885091e-010
7.389926e-010
9.574607e-010
1.336386e-009
1.358020e-009
9.379773e-010
5.264902e-010
5.535863e-010
9.067139e-010
1.079451e-009
8.011177e-010
3.707129e-010
2.876526e-010
6.357874e-010
9.767385e-010
8.827155e-010
4.572094e-010
2.073493e-010
4.216425e-010
8.089913e-010
8.400454e-010
3.827888e-010
-1.337240e-010
-2.293247e-010
5.176608e-011
1.941146e-010
-1.570817e-010
-7.299507e-010
-8.919948e-010
-3.655654e-010
4.226713e-010
7.699743e-010
4.360483e-010
-1.263074e-010
-2.946006e-010
4.052205e-011
3.913331e-010
2.628235e-010
-2.614967e-010
-6.000439e-010
-3.307703e-010
3.079986e-010
6.390305e-010
2.679261e-010
-4.649893e-010
-7.977014e-010
-3.210923e-010
5.723269e-010
1.031685e-009
5.617009e-010
-4.780569e-010
-1.172700e-009
-8.783808e-010
1.847137e-010
1.113451e-009
-8.116135e-009
-4.784296e-009
-1.605800e-010
3.126493e-009
3.620625e-009
1.789734e-009
-6.551698e-010
-2.151764e-009
-2.234807e-009
-1.440592e-009
-5.146708e-010
2.370275e-010
9.267109e-010
1.596835e-009
1.906776e-009
1.394556e-009
6.230516e-011
-1.372532e-009
-1.944756e-009
-1.281592e-009
-3.156184e-012
7.932367e-010
5.465691e-010
-2.431072e-010
-5.464048e-010
1.114479e-010
1.141584e-009
1.524886e-009
9.307286e-010
9.653215e-011
2.204155e-011
8.547193e-010
1.722353e-009
1.720590e-009
9.403817e-010
3.544833e-010
6.903295e-010
1.598103e-009
2.081734e-009
1.676262e-009
9.769818e-010
9.046459e-010
1.601203e-009
2.280581e-009
2.194419e-009
1.527625e-009
1.143174e-009
1.509767e-009
2.134926e-009
2.187630e-009
1.528754e-009
8.796001e-010
9.342507e-010
1.519317e-009
1.828750e-009
1.425972e-009
7.702536e-010
6.305607e-010
1.127168e-009
1.586228e-009
1.375915e-009
6.857085e-010
2.930303e-010
6.106518e-010
1.181587e-009
1.230715e-009
5.957061e-010
-8.833117e-011
-1.627815e-010
2.616792e-010
4.432100e-010
-9.103313e-011
-9.503254e-010
-1.287475e-009
-7.312492e-010
2.216890e-010
7.713925e-010
6.579902e-010
3.329345e-010
3.221465e-010
5.681459e-010
5.205576e-010
-1.471654e-010
-1.039041e-009
-1.351299e-009
-6.878618e-010
4.871013e-010
1.239786e-009
1.010224e-009
8.438201e-011
-7.218683e-010
-8.098179e-010
-2.622855e-010
3.424103e-010
5.043570e-010
2.043209e-010
-1.797790e-010
-2.821413e-010
-7.324483e-011
1.695920e-010
-1.504797e-008
-9.712592e-009
-1.945151e-009
4.271902e-009
6.262837e-009
4.034812e-009
-1.192241e-010
-3.321459e-009
-3.885817e-009
-2.075503e-009
4.632395e-010
2.028718e-009
1.973303e-009
8.747950e-010
-2.009859e-010
-6.246831e-010
-5.253148e-010
-3.540249e-010
-2.763794e-010
-7.679590e-011
3.938558e-010
8.604400e-010
8.728877e-010
3.952424e-010
-3.068632e-011
1.504270e-010
8.346893e-010
1.326178e-009
1.148071e-009
6.532857e-010
6.469495e-010
1.407332e-009
2.283696e-009
2.419975e-009
1.784050e-009
1.245977e-009
1.556183e-009
2.430481e-009
2.870001e-009
2.361835e-009
1.510034e-009
1.313323e-009
1.957424e-009
2.598757e-009
2.408175e-009
1.591724e-009
1.131664e-009
1.571994e-009
2.351966e-009
2.506021e-009
1.854227e-009
1.209919e-009
1.362053e-009
2.105051e-009
2.509299e-009
2.074038e-009
1.324601e-009
1.132494e-009
1.627079e-009
2.050377e-009
1.713271e-009
8.524604e-010
3.369703e-010
6.068256e-010
1.154578e-009
1.165843e-009
5.132508e-010
-1.043954e-010
-2.041260e-011
5.989099e-010
9.587334e-010
5.682048e-010
-2.149144e-010
-6.312127e-010
-3.796640e-010
1.183817e-010
2.930575e-010
9.445181e-011
-3.162443e-011
2.267018e-010
6.083338e-010
5.606423e-010
-9.574036e-011
-8.912269e-010
-1.134240e-009
-5.773097e-010
3.630013e-010
1.004840e-009
9.699596e-010
3.958229e-010
-2.930348e-010
-7.289682e-010
-7.578906e-010
-4.085645e-010
1.574642e-010
6.616794e-010
7.947582e-010
4.206666e-010
-2.578341e-010
-7.852275e-010
-1.015152e-008
-6.927183e-009
-2.071380e-009
2.110250e-009
3.844564e-009
2.803591e-009
1.989405e-010
-1.994205e-009
-2.277875e-009
-6.100448e-010
1.575116e-009
2.447733e-009
1.243871e-009
-1.078405e-009
-2.634247e-009
-2.232431e-009
-3.600694e-010
1.384676e-009
1.823081e-009
1.158380e-009
4.853459e-010
5.166133e-010
9.530979e-010
1.076480e-009
7.165982e-010
4.108673e-010
6.533566e-010
1.253141e-009
1.613967e-009
1.528349e-009
1.425680e-009
1.752087e-009
2.316279e-009
2.493877e-009
2.050962e-009
1.499723e-009
1.472390e-009
1.887090e-009
2.002885e-009
1.348931e-009
3.636675e-010
-1.011369e-010
1.752709e-010
5.054203e-010
1.595739e-010
-6.970112e-010
-1.181036e-009
-7.762002e-010
2.829345e-011
3.464147e-010
-1.268979e-011
-3.347090e-010
7.786860e-011
1.019051e-009
1.632393e-009
1.466694e-009
1.005276e-009
1.026776e-009
1.623484e-009
2.103238e-009
1.867872e-009
1.151091e-009
7.125084e-010
9.035642e-010
1.273961e-009
1.173792e-009
5.708134e-010
8.080387e-011
2.152071e-010
7.898692e-010
1.180359e-009
1.050134e-009
6.539291e-010
4.156982e-010
3.808913e-010
2.306215e-010
-2.154369e-010
-6.884412e-010
-7.533101e-010
-3.256260e-010
2.138443e-010
4.302421e-010
2.668343e-010
1.440108e-011
-7.696623e-011
-3.880058e-011
-2.613101e-011
-4.132327e-011
5.663857e-011
2.743220e-010
3.518813e-010
3.393317e-011
-5.363284e-010
-8.194670e-010
-3.942935e-010
5.202010e-010
1.146139e-009
8.485585e-010
-2.092508e-010
-1.144530e-009
3.591776e-009
1.904575e-009
-3.317865e-010
-1.721386e-009
-1.653027e-009
-6.423850e-010
2.946499e-010
6.241661e-010
6.629500e-010
9.725357e-010
1.471602e-009
1.343526e-009
-1.458309e-011
-2.005151e-009
-3.048177e-009
-2.024773e-009
4.785966e-010
2.538928e-009
2.656880e-009
1.147335e-009
-2.832540e-010
-3.019588e-010
8.275897e-010
1.783769e-009
1.738235e-009
1.143266e-009
9.963886e-010
1.602427e-009
2.303386e-009
2.359138e-009
1.796505e-009
1.225160e-009
9.834518e-010
7.543781e-010
7.575704e-011
-1.013912e-009
-2.059541e-009
-2.837903e-009
-3.652460e-009
-4.868623e-009
-6.335660e-009
-7.505007e-009
-8.111760e-009
-8.508134e-009
-9.179524e-009
-1.006121e-008
-1.056096e-008
-1.028212e-008
-9.520396e-009
-8.888897e-009
-8.551423e-009
-8.048872e-009
-6.934337e-009
-5.391653e-009
-4.045013e-009
-3.214992e-009
-2.575806e-009
-1.633601e-009
-3.930426e-010
6.345057e-010
1.062842e-009
1.081246e-009
1.173330e-009
1.502776e-009
1.754780e-009
1.595449e-009
1.124064e-009
7.509693e-010
7.036745e-010
8.145106e-010
8.223953e-010
7.346302e-010
7.542815e-010
9.013662e-010
8.842119e-010
4.395546e-010
-2.847476e-010
-8.188770e-010
-8.527817e-010
-5.264513e-010
-1.873448e-010
4.662442e-011
3.413773e-010
7.582706e-010
9.757013e-010
5.767649e-010
-3.681724e-010
-1.156876e-009
-1.056072e-009
-8.156956e-011
9.104449e-010
1.010232e-009
1.557722e-010
-7.898318e-010
-8.943279e-010
-8.570485e-011
7.908460e-010
8.420909e-010
3.129057e-011
-7.994424e-010
1.563515e-008
9.856046e-009
1.665521e-009
-4.464609e-009
-5.870343e-009
-3.177948e-009
6.373193e-010
2.732421e-009
2.355975e-009
7.965767e-010
-3.062107e-010
-4.894953e-010
-4.271832e-010
-6.854444e-010
-8.830814e-010
-2.500955e-010
1.163837e-009
2.210877e-009
1.793610e-009
1.848576e-010
-1.067640e-009
-6.769658e-010
1.057499e-009
2.601668e-009
2.810638e-009
2.014646e-009
1.427790e-009
1.666128e-009
2.092086e-009
1.628695e-009
-2.754622e-011
-2.204214e-009
-4.161360e-009
-5.929232e-009
-8.127711e-009
-1.112724e-008
-1.462538e-008
-1.806174e-008
-2.123429e-008
-2.434670e-008
-2.754160e-008
-3.060400e-008
-3.319040e-008
-3.520168e-008
-3.677962e-008
-3.797790e-008
-3.860078e-008
-3.842990e-008
-3.750183e-008
-3.604424e-008
-3.417401e-008
-3.179108e-008
-2.881331e-008
-2.541327e-008
-2.191841e-008
-1.851081e-008
-1.513925e-008
-1.175387e-008
-8.523835e-009
-5.729998e-009
-3.484353e-009
-1.667434e-009
-1.609198e-010
9.657521e-010
1.584951e-009
1.764331e-009
1.757927e-009
1.716579e-009
1.524477e-009
1.031673e-009
3.985478e-010
5.343369e-011
2.354244e-010
6.706941e-010
8.310156e-010
5.137972e-010
5.037969e-011
-1.213417e-010
5.282829e-012
3.759166e-011
-2.430295e-010
-5.032987e-010
-2.161382e-010
6.140808e-010
1.253519e-009
9.213524e-010
-3.220064e-010
-1.478637e-009
-1.506921e-009
-3.359923e-010
1.034472e-009
1.461761e-009
6.962872e-010
-4.681289e-010
-1.011822e-009
-6.237465e-010
1.334648e-010
4.932058e-010
2.490631e-010
-1.406370e-010
1.628159e-008
1.036657e-008
1.944897e-009
-4.370867e-009
-5.720838e-009
-2.697500e-009
1.412311e-009
3.260348e-009
1.887983e-009
-9.271058e-010
-2.556809e-009
-1.840248e-009
2.247305e-010
1.801124e-009
2.003315e-009
1.378188e-009
8.782158e-010
7.271301e-010
4.647380e-010
-9.627210e-011
-3.614848e-010
3.848012e-010
1.957807e-009
3.214618e-009
3.143037e-009
1.865438e-009
3.744921e-010
-7.073721e-010
-1.913290e-009
-4.379690e-009
-8.636276e-009
-1.413563e-008
-1.999335e-008
-2.600107e-008
-3.274178e-008
-4.076066e-008
-4.981883e-008
-5.905751e-008
-6.778681e-008
-7.595639e-008
-8.384981e-008
-9.146822e-008
-9.833225e-008
-1.038490e-007
-1.077554e-007
-1.101632e-007
-1.112471e-007
-1.109713e-007
-1.091206e-007
-1.055403e-007
-1.003216e-007
-9.377892e-008
-8.626872e-008
-7.802247e-008
-6.914158e-008
-5.976457e-008
-5.023788e-008
-4.107746e-008
-3.270679e-008
-2.523404e-008
-1.854293e-008
-1.262252e-008
-7.735107e-009
-4.168004e-009
-1.833973e-009
-2.399094e-010
1.057409e-009
2.015448e-009
2.247530e-009
1.629740e-009
6.553371e-010
6.450492e-011
1.383518e-010
4.821359e-010
5.616623e-010
3.492800e-010
2.955375e-010
6.680093e-010
1.094536e-009
9.264584e-010
3.916135e-011
-8.885145e-010
-1.013582e-009
-2.237661e-010
7.011891e-010
8.604073e-010
1.248099e-010
-7.678950e-010
-9.696212e-010
-3.222002e-010
5.690690e-010
9.631105e-010
6.299567e-010
-6.080580e-011
-5.651343e-010
-6.173951e-010
-3.318535e-010
1.664220e-011
2.456272e-010
3.364441e-010
4.722900e-009
2.881187e-009
2.363370e-010
-1.659897e-009
-1.680893e-009
2.962156e-012
1.871376e-009
2.149112e-009
3.363743e-010
-2.195322e-009
-3.273118e-009
-1.835225e-009
1.077538e-009
3.237835e-009
3.204624e-009
1.470347e-009
-2.289552e-010
-5.969513e-010
2.654133e-010
1.390353e-009
2.100523e-009
2.449205e-009
2.650682e-009
2.424319e-009
1.129284e-009
-1.553075e-009
-5.355758e-009
-9.983775e-009
-1.580057e-008
-2.373404e-008
-3.443909e-008
-4.768405e-008
-6.268345e-008
-7.897180e-008
-9.677479e-008
-1.164472e-007
-1.376597e-007
-1.593006e-007
-1.802086e-007
-1.998962e-007
-2.184694e-007
-2.358936e-007
-2.514777e-007
-2.641543e-007
-2.732164e-007
-2.786863e-007
-2.809459e-007
-2.800843e-007
-2.757027e-007
-2.673731e-007
-2.552233e-007
-2.399980e-007
-2.225408e-007
-2.032885e-007
-1.823414e-007
-1.600160e-007
-1.372176e-007
-1.151544e-007
-9.466817e-008
-7.592068e-008
-5.878749e-008
-4.348369e-008
-3.064874e-008
-2.074781e-008
-1.348953e-008
-7.993859e-009
-3.577065e-009
-2.689370e-010
1.534283e-009
1.858324e-009
1.428072e-009
1.094904e-009
1.100941e-009
1.058029e-009
6.422779e-010
1.328615e-010
1.225932e-010
7.514131e-010
1.412436e-009
1.330587e-009
3.844529e-010
-7.426900e-010
-1.230005e-009
-8.628106e-010
-1.066245e-010
4.407301e-010
5.537154e-010
3.807609e-010
1.301764e-010
-1.043121e-010
-2.583042e-010
-2.225136e-010
2.923104e-011
2.974265e-010
2.869166e-010
-5.842931e-011
-4.208266e-010
-4.053442e-010
1.932939e-011
4.467462e-010
-1.031131e-008
-6.611391e-009
-1.556682e-009
2.058919e-009
3.025169e-009
2.123991e-009
8.485134e-010
-3.987258e-011
-7.059871e-010
-1.334954e-009
-1.479045e-009
-5.464195e-010
1.195188e-009
2.472338e-009
2.143029e-009
4.750531e-010
-9.099730e-010
-5.243811e-010
1.548368e-009
3.735864e-009
4.430451e-009
3.249490e-009
8.670708e-010
-2.199433e-009
-6.425480e-009
-1.294135e-008
-2.263222e-008
-3.579516e-008
-5.260663e-008
-7.360845e-008
-9.948368e-008
-1.303874e-007
-1.656989e-007
-2.045185e-007
-2.462701e-007
-2.906374e-007
-3.369237e-007
-3.836852e-007
-4.291806e-007
-4.721686e-007
-5.121265e-007
-5.486404e-007
-5.807133e-007
-6.068554e-007
-6.258903e-007
-6.375512e-007
-6.421775e-007
-6.398812e-007
-6.301781e-007
-6.125324e-007
-5.871806e-007
-5.552715e-007
-5.181624e-007
-4.767057e-007
-4.313629e-007
-3.829854e-007
-3.332896e-007
-2.843919e-007
-2.378782e-007
-1.944344e-007
-1.544013e-007
-1.185123e-007
-8.786494e-008
-6.311478e-008
-4.384849e-008
-2.890807e-008
-1.732253e-008
-8.803136e-009
-3.315411e-009
-3.594152e-010
1.099493e-009
1.958658e-009
2.408947e-009
2.174741e-009
1.256137e-009
2.512051e-010
-1.327054e-010
2.228254e-010
7.705995e-010
9.029081e-010
5.168934e-010
-4.201993e-011
-4.437134e-010
-6.160831e-010
-5.688851e-010
-2.140960e-010
4.530784e-010
1.067076e-009
1.042222e-009
1.839072e-010
-9.181298e-010
-1.311532e-009
-6.128843e-010
5.398969e-010
1.081221e-009
5.862268e-010
-3.248947e-010
-6.887642e-010
-2.348510e-010
3.816625e-010
-1.790484e-008
-1.079538e-008
-1.272295e-009
4.929607e-009
5.251223e-009
1.639635e-009
-1.790991e-009
-2.375543e-009
-5.837087e-010
1.300205e-009
1.717593e-009
1.000815e-009
3.813534e-010
3.801293e-010
4.818817e-010
2.237114e-010
1.064478e-010
1.053669e-009
3.021336e-009
4.490572e-009
3.577981e-009
-4.393764e-010
-6.939433e-009
-1.535556e-008
-2.660458e-008
-4.298733e-008
-6.675630e-008
-9.895992e-008
-1.396666e-007
-1.889823e-007
-2.474596e-007
-3.154191e-007
-3.920988e-007
-4.756967e-007
-5.642014e-007
-6.559643e-007
-7.494017e-007
-8.423913e-007
-9.323031e-007
-1.016739e-006
-1.094100e-006
-1.163285e-006
-1.222948e-006
-1.271298e-006
-1.306745e-006
-1.328604e-006
-1.336969e-006
-1.331889e-006
-1.312893e-006
-1.279472e-006
-1.231970e-006
-1.171800e-006
-1.100748e-006
-1.020226e-006
-9.314064e-007
-8.360636e-007
-7.370472e-007
-6.377338e-007
-5.410130e-007
-4.488920e-007
-3.630153e-007
-2.852707e-007
-2.175819e-007
-1.610343e-007
-1.153435e-007
-7.929044e-008
-5.161375e-008
-3.138013e-008
-1.759035e-008
-8.756881e-009
-3.169161e-009
3.864107e-010
2.318120e-009
2.706316e-009
1.970770e-009
9.293328e-010
2.462814e-010
1.712065e-011
-9.878463e-012
5.742453e-011
3.294226e-010
7.445057e-010
8.734620e-010
3.540649e-010
-5.187499e-010
-8.975173e-010
-2.650945e-010
8.575374e-010
1.302794e-009
4.676672e-010
-9.542075e-010
-1.599378e-009
-8.254267e-010
6.130777e-010
1.344586e-009
7.859745e-010
-3.259645e-010
-8.068440e-010
-3.048843e-010
4.097361e-010
-1.370782e-008
-7.244219e-009
1.058643e-009
5.607899e-009
4.151176e-009
-7.786796e-010
-4.360904e-009
-3.645455e-009
2.573691e-010
3.689409e-009
3.979803e-009
1.613488e-009
-7.682792e-010
-1.140350e-009
2.805707e-010
1.900381e-009
2.677251e-009
2.798435e-009
2.559972e-009
1.082435e-009
-3.490386e-009
-1.267001e-008
-2.700212e-008
-4.707934e-008
-7.501237e-008
-1.144856e-007
-1.691158e-007
-2.407829e-007
-3.295737e-007
-4.350495e-007
-5.570931e-007
-6.952856e-007
-8.476639e-007
-1.010456e-006
-1.179171e-006
-1.349841e-006
-1.519167e-006
-1.683781e-006
-1.839869e-006
-1.983768e-006
-2.112825e-006
-2.225456e-006
-2.320385e-006
-2.396070e-006
-2.451006e-006
-2.484399e-006
-2.496235e-006
-2.486595e-006
-2.455103e-006
-2.401235e-006
-2.325126e-006
-2.227891e-006
-2.111127e-006
-1.976343e-006
-1.825166e-006
-1.660157e-006
-1.485258e-006
-1.305305e-006
-1.125128e-006
-9.491596e-007
-7.817032e-007
-6.271173e-007
-4.892750e-007
-3.706377e-007
-2.718515e-007
-1.922094e-007
-1.303595e-007
-8.450867e-008
-5.218609e-008
-3.029787e-008
-1.581631e-008
-6.543713e-009
-1.182126e-009
1.258985e-009
1.912796e-009
1.829177e-009
1.493621e-009
8.732012e-010
3.568533e-011
-4.715326e-010
-8.112472e-011
9.995009e-010
1.738120e-009
1.255809e-009
-1.717217e-010
-1.279887e-009
-1.084063e-009
9.335894e-011
9.737045e-010
6.800837e-010
-3.725134e-010
-9.938552e-010
-5.292598e-010
4.763551e-010
9.342147e-010
4.078021e-010
-4.636280e-010
-7.222497e-010
-1.475156e-010
5.461773e-010
-2.391378e-009
1.011372e-010
2.951780e-009
3.591075e-009
1.173931e-009
-2.533106e-009
-4.463032e-009
-2.867096e-009
1.029942e-009
4.013141e-009
3.773612e-009
1.014683e-009
-1.308214e-009
-8.665548e-010
1.921968e-009
4.534485e-009
4.789642e-009
2.356616e-009
-2.140551e-009
-9.150003e-009
-2.104380e-008
-4.117099e-008
-7.266365e-008
-1.185705e-007
-1.829059e-007
-2.708222e-007
-3.870987e-007
-5.342182e-007
-7.118569e-007
-9.179542e-007
-1.149756e-006
-1.403505e-006
-1.673368e-006
-1.951321e-006
-2.228640e-006
-2.497793e-006
-2.753085e-006
-2.989954e-006
-3.204252e-006
-3.392574e-006
-3.553150e-006
-3.686043e-006
-3.792250e-006
-3.872671e-006
-3.927897e-006
-3.958665e-006
-3.966007e-006
-3.950678e-006
-3.912509e-006
-3.850464e-006
-3.763278e-006
-3.649896e-006
-3.509363e-006
-3.340701e-006
-3.143389e-006
-2.918310e-006
-2.668393e-006
-2.398517e-006
-2.115054e-006
-1.825615e-006
-1.538927e-006
-1.264283e-006
-1.010325e-006
-7.837434e-007
-5.886854e-007
-4.269249e-007
-2.981983e-007
-2.002596e-007
-1.289875e-007
-7.911293e-008
-4.544995e-008
-2.378586e-008
-1.085233e-008
-3.804503e-009
-1.141586e-010
1.917077e-009
2.806427e-009
2.428166e-009
1.054904e-009
-2.535367e-010
-4.243824e-010
5.534650e-010
1.553488e-009
1.437301e-009
2.065367e-010
-1.045334e-009
-1.281370e-009
-5.055236e-010
4.006302e-010
6.689186e-010
3.325714e-010
-2.697071e-011
-2.614779e-011
1.609741e-010
1.350536e-010
-1.930888e-010
-4.899231e-010
-3.880202e-010
9.040407e-011
5.306167e-010
7.705216e-009
5.265815e-009
1.959732e-009
-5.105946e-010
-1.584694e-009
-1.692559e-009
-1.238450e-009
-2.059301e-010
1.212263e-009
2.127388e-009
1.669580e-009
2.335773e-010
-4.653990e-010
9.565686e-010
3.810910e-009
5.494398e-009
3.466828e-009
-3.179094e-009
-1.441820e-008
-3.160910e-008
-5.903369e-008
-1.032720e-007
-1.714387e-007
-2.702153e-007
-4.061020e-007
-5.854642e-007
-8.131183e-007
-1.090100e-006
-1.412434e-006
-1.771732e-006
-2.156613e-006
-2.553559e-006
-2.947200e-006
-3.321274e-006
-3.660880e-006
-3.954955e-006
-4.197327e-006
-4.385992e-006
-4.521905e-006
-4.608583e-006
-4.652373e-006
-4.662189e-006
-4.648142e-006
-4.619859e-006
-4.585586e-006
-4.552156e-006
-4.524946e-006
-4.507241e-006
-4.499409e-006
-4.498623e-006
-4.499236e-006
-4.493295e-006
-4.470935e-006
-4.420972e-006
-4.332095e-006
-4.194515e-006
-4.001505e-006
-3.750549e-006
-3.444185e-006
-3.090542e-006
-2.703138e-006
-2.299460e-006
-1.898520e-006
-1.518257e-006
-1.173574e-006
-8.751416e-007
-6.286305e-007
-4.344106e-007
-2.881707e-007
-1.826511e-007
-1.097691e-007
-6.200794e-008
-3.266899e-008
-1.570713e-008
-6.058040e-009
-3.921842e-010
2.657809e-009
3.374432e-009
2.272419e-009
6.109959e-010
-2.959653e-010
-6.430352e-011
6.323654e-010
8.989491e-010
4.782842e-010
-1.928437e-010
-5.755163e-010
-5.045910e-010
-1.466698e-010
2.769632e-010
5.966284e-010
6.474051e-010
3.331698e-010
-1.996940e-010
-5.793975e-010
-5.288325e-010
-1.547701e-010
1.701157e-010
2.199245e-010
1.236910e-010
1.188745e-008
5.763434e-009
-1.600302e-009
-4.898962e-009
-2.904020e-009
1.211829e-009
3.485220e-009
2.707460e-009
6.276876e-010
-5.589445e-010
-2.686487e-010
7.481488e-010
1.866806e-009
3.025459e-009
3.726037e-009
2.178742e-009
-4.206628e-009
-1.784136e-008
-4.126027e-008
-7.897207e-008
-1.390841e-007
-2.329099e-007
-3.727686e-007
-5.697261e-007
-8.323281e-007
-1.165545e-006
-1.568667e-006
-2.032419e-006
-2.537223e-006
-3.054221e-006
-3.548770e-006
-3.984758e-006
-4.328525e-006
-4.552371e-006
-4.637876e-006
-4.578361e-006
-4.379349e-006
-4.056760e-006
-3.634081e-006
-3.139969e-006
-2.606641e-006
-2.068198e-006
-1.558303e-006
-1.107741e-006
-7.428165e-007
-4.847287e-007
-3.491642e-007
-3.454416e-007
-4.754159e-007
-7.327430e-007
-1.102718e-006
-1.562485e-006
-2.081595e-006
-2.623232e-006
-3.146420e-006
-3.609113e-006
-3.971900e-006
-4.202155e-006
-4.278327e-006
-4.193513e-006
-3.957115e-006
-3.593699e-006
-3.139260e-006
-2.635855e-006
-2.125714e-006
-1.645650e-006
-1.222612e-006
-8.713739e-007
-5.951250e-007
-3.885104e-007
-2.415115e-007
-1.424371e-007
-7.949919e-008
-4.169658e-008
-1.980322e-008
-7.308672e-009
-5.286854e-010
2.369112e-009
2.658744e-009
1.672702e-009
5.719227e-010
-5.114829e-011
-1.431610e-010
1.336856e-010
5.617247e-010
8.208299e-010
5.995864e-010
-4.901999e-011
-5.793936e-010
-4.331671e-010
2.853491e-010
7.929178e-010
4.555775e-010
-4.342578e-010
-9.124380e-010
-4.319734e-010
4.733717e-010
7.825881e-010
1.768414e-010
-5.886533e-010
1.137249e-008
3.835229e-009
-4.700720e-009
-7.279637e-009
-2.744506e-009
3.846507e-009
6.525510e-009
3.864248e-009
-5.528589e-010
-2.320831e-009
-3.326656e-010
3.007165e-009
4.732905e-009
3.690446e-009
-1.402546e-011
-7.331888e-009
-2.174888e-008
-4.908185e-008
-9.704549e-008
-1.759667e-007
-2.999476e-007
-4.864668e-007
-7.534124e-007