# vtk DataFile Version 3.0
vtk output
ASCII
DATASET STRUCTURED_POINTS
DIMENSIONS 100 100 1
SPACING 1 1 1
ORIGIN 0 0 0
POINT_DATA 10000
SCALARS SFBox_profile double
LOOKUP_TABLE default 
0.000000e+000
0.000000e+000
0.000000e+000
0.000000e+000
0.000000e+000
0.000000e+000
0.000000e+000
0.000000e+000
0.000000e+000
0.000000e+000
0.000000e+000
0.000000e+000
0.000000e+000
0.000000e+000
0.000000e+000
0.000000e+000
0.000000e+000
0.000000e+000
0.000000e+000
0.000000e+000
0.000000e+000
0.000000e+000
0.000000e+000
0.000000e+000
0.000000e+000
0.000000e+000
0.000000e+000
0.000000e+000
0.000000e+000
0.000000e+000
0.000000e+000
0.000000e+000
0.000000e+000
0.000000e+000
0.000000e+000
0.000000e+000
0.000000e+000
0.000000e+000
0.000000e+000
0.000000e+000
0.000000e+000
0.000000e+000
0.000000e+000
0.000000e+000
0.000000e+000
0.000000e+000
0.000000e+000
0.000000e+000
0.000000e+000
0.000000e+000
0.000000e+000
0.000000e+000
0.000000e+000
0.000000e+000
0.000000e+000
0.000000e+000
0.000000e+000
0.000000e+000
0.000000e+000
0.000000e+000
0.000000e+000
0.000000e+000
0.000000e+000
0.000000e+000
0.000000e+000
0.000000e+000
0.000000e+000
0.000000e+000
0.000000e+000
0.000000e+000
0.000000e+000
0.000000e+000
0.000000e+000
0.000000e+000
0.000000e+000
0.000000e+000
0.000000e+000
0.000000e+000
0.000000e+000
0.000000e+000
0.000000e+000
0.000000e+000
0.000000e+000
0.000000e+000
0.000000e+000
0.000000e+000
0.000000e+000
0.000000e+000
0.000000e+000
0.000000e+000
0.000000e+000
0.000000e+000
0.000000e+000
0.000000e+000
0.000000e+000
0.000000e+000
0.000000e+000
0.000000e+000
0.000000e+000
0.000000e+000
-5.900164e-008
-3.940157e-008
-9.673751e-009
1.619451e-008
2.701163e-008
2.010269e-008
2.234564e-009
-1.480476e-008
-2.131048e-008
-1.504491e-008
-1.588543e-009
1.024494e-008
1.444928e-008
1.102623e-008
4.470813e-009
-6.046955e-010
-2.853581e-009
-4.039057e-009
-6.126135e-009
-8.739002e-009
-9.414994e-009
-6.199023e-009
1.322546e-010
6.435168e-009
9.747309e-009
9.520208e-009
7.499704e-009
5.638386e-009
4.283164e-009
2.359180e-009
-9.291608e-010
-4.865050e-009
-7.752013e-009
-8.521800e-009
-7.635441e-009
-6.392602e-009
-5.532981e-009
-4.677178e-009
-3.083687e-009
-7.115509e-010
1.648149e-009
3.230930e-009
4.070927e-009
4.805937e-009
5.832534e-009
6.860431e-009
7.355422e-009
7.256414e-009
7.058262e-009
7.182728e-009
7.452472e-009
7.334550e-009
6.636950e-009
5.763454e-009
5.186608e-009
4.797742e-009
3.980182e-009
2.364738e-009
3.477911e-010
-1.305661e-009
-2.336663e-009
-3.271797e-009
-4.703103e-009
-6.386429e-009
-7.276069e-009
-6.561128e-009
-4.558849e-009
-2.405446e-009
-8.422242e-010
5.193706e-010
2.556562e-009
5.294003e-009
7.419553e-009
7.344127e-009
4.778712e-009
1.147239e-009
-1.663991e-009
-2.947966e-009
-3.502941e-009
-4.337911e-009
-5.204491e-009
-4.624872e-009
-1.515536e-009
3.227870e-009
6.909854e-009
7.029889e-009
3.364880e-009
-1.733455e-009
-5.099867e-009
-5.053598e-009
-2.358368e-009
7.433468e-010
2.375532e-009
2.178543e-009
1.053608e-009
7.559063e-011
-3.282412e-010
-3.679477e-010
-3.687827e-010
-4.099853e-010
-7.554662e-009
-5.430037e-009
-1.966688e-009
1.442891e-009
3.308466e-009
2.839786e-009
5.701096e-010
-1.807178e-009
-2.526477e-009
-1.078433e-009
1.308738e-009
2.579828e-009
1.535296e-009
-1.105767e-009
-3.236723e-009
-3.105586e-009
-7.760991e-010
1.980448e-009
3.248111e-009
2.546108e-009
1.006346e-009
8.909786e-011
1.626857e-010
3.282260e-010
-4.369488e-010
-2.072783e-009
-3.424559e-009
-3.393778e-009
-2.014077e-009
-3.476612e-010
6.185572e-010
8.677410e-010
1.136334e-009
1.930866e-009
2.915255e-009
3.308325e-009
2.769307e-009
1.747720e-009
9.487429e-010
5.823700e-010
2.525985e-010
-4.562148e-010
-1.441651e-009
-2.218500e-009
-2.508942e-009
-2.544591e-009
-2.734424e-009
-3.143865e-009
-3.437663e-009
-3.334661e-009
-2.979870e-009
-2.757753e-009
-2.788133e-009
-2.754851e-009
-2.300209e-009
-1.495687e-009
-7.833555e-010
-4.364672e-010
-2.073119e-010
3.705651e-010
1.362732e-009
2.258705e-009
2.498577e-009
2.104434e-009
1.652838e-009
1.584797e-009
1.655403e-009
1.202902e-009
-2.979152e-011
-1.465695e-009
-2.195454e-009
-1.894216e-009
-1.137877e-009
-7.501271e-010
-8.943255e-010
-9.235467e-010
-1.706441e-010
1.186900e-009
2.158255e-009
1.882023e-009
5.138942e-010
-8.657187e-010
-1.241476e-009
-5.632121e-010
3.092552e-010
5.035699e-010
-4.835442e-011
-6.476315e-010
-6.031486e-010
7.443583e-011
7.260315e-010
7.304150e-010
1.083361e-010
-5.324336e-010
-6.104850e-010
-1.171631e-010
4.189362e-010
4.756480e-010
3.868912e-011
-4.159561e-010
5.153472e-008
3.376368e-008
7.283650e-009
-1.496780e-008
-2.338204e-008
-1.657407e-008
-1.213585e-009
1.270429e-008
1.786432e-008
1.314555e-008
2.900141e-009
-6.781990e-009
-1.185210e-008
-1.173536e-008
-8.196254e-009
-3.287189e-009
1.795938e-009
6.456004e-009
9.935191e-009
1.116890e-008
9.445495e-009
5.112923e-009
-4.503637e-010
-5.593077e-009
-9.184489e-009
-1.084415e-008
-1.065303e-008
-8.831173e-009
-5.699888e-009
-1.794200e-009
2.176529e-009
5.570724e-009
8.022855e-009
9.425084e-009
9.771696e-009
9.092683e-009
7.533526e-009
5.411629e-009
3.103845e-009
8.551144e-010
-1.277207e-009
-3.287790e-009
-5.078636e-009
-6.492212e-009
-7.473065e-009
-8.137741e-009
-8.649734e-009
-9.049110e-009
-9.246685e-009
-9.181077e-009
-8.927626e-009
-8.612840e-009
-8.243795e-009
-7.677019e-009
-6.774894e-009
-5.555896e-009
-4.151258e-009
-2.629642e-009
-9.237120e-010
1.035510e-009
3.137670e-009
5.091433e-009
6.606978e-009
7.542569e-009
7.853325e-009
7.444646e-009
6.160879e-009
3.963972e-009
1.101530e-009
-1.941361e-009
-4.657340e-009
-6.661836e-009
-7.653101e-009
-7.344255e-009
-5.579546e-009
-2.589124e-009
9.145236e-010
3.994037e-009
5.920478e-009
6.400432e-009
5.451246e-009
3.195282e-009
-7.184571e-011
-3.579270e-009
-6.017508e-009
-6.096691e-009
-3.484555e-009
6.600606e-010
4.178046e-009
5.225823e-009
3.470736e-009
2.524154e-010
-2.398854e-009
-3.119586e-009
-1.961123e-009
-9.655612e-011
1.149468e-009
1.183102e-009
3.761428e-010
-3.759888e-010
6.759246e-008
4.479272e-008
1.058379e-008
-1.852515e-008
-2.989980e-008
-2.134659e-008
-1.468215e-009
1.625328e-008
2.180301e-008
1.406153e-008
5.674648e-011
-1.087233e-008
-1.345911e-008
-8.943313e-009
-2.475837e-009
1.648583e-009
2.827795e-009
3.201308e-009
4.555991e-009
6.320082e-009
6.361368e-009
3.422199e-009
-1.399541e-009
-5.506538e-009
-6.985698e-009
-5.958998e-009
-3.993103e-009
-2.429638e-009
-1.365014e-009
-8.698037e-011
1.774961e-009
3.691422e-009
4.749123e-009
4.553092e-009
3.539798e-009
2.469793e-009
1.727044e-009
1.138239e-009
3.783434e-010
-5.724905e-010
-1.405788e-009
-1.840539e-009
-1.912219e-009
-1.891434e-009
-1.972142e-009
-2.099332e-009
-2.103602e-009
-1.947990e-009
-1.786729e-009
-1.780814e-009
-1.906676e-009
-1.992877e-009
-1.936822e-009
-1.830029e-009
-1.827922e-009
-1.917359e-009
-1.879056e-009
-1.519408e-009
-9.054872e-010
-2.994065e-010
1.624132e-010
6.603092e-010
1.475079e-009
2.568531e-009
3.464496e-009
3.643234e-009
3.057506e-009
2.169197e-009
1.409320e-009
6.597042e-010
-5.885719e-010
-2.486531e-009
-4.322497e-009
-4.944973e-009
-3.807023e-009
-1.558535e-009
5.096265e-010
1.654443e-009
2.245509e-009
3.061540e-009
4.066147e-009
4.080774e-009
1.908680e-009
-2.113287e-009
-5.790412e-009
-6.561488e-009
-3.618529e-009
1.253005e-009
4.937166e-009
5.307213e-009
2.661333e-009
-8.050908e-010
-2.844829e-009
-2.692625e-009
-1.183338e-009
2.981802e-010
9.230675e-010
7.364470e-010
2.451622e-010
-1.008660e-010
2.590203e-008
1.776397e-008
5.206387e-009
-5.989197e-009
-1.081402e-008
-7.826968e-009
-1.702426e-010
6.299946e-009
6.958449e-009
1.744447e-009
-4.805522e-009
-7.135489e-009
-3.149944e-009
4.083972e-009
8.885573e-009
7.606853e-009
1.408139e-009
-5.092098e-009
-7.850660e-009
-6.413279e-009
-3.426554e-009
-1.570441e-009
-1.093805e-009
-1.880027e-010
2.560205e-009
6.354574e-009
8.820985e-009
8.265443e-009
5.175698e-009
1.558235e-009
-1.004495e-009
-2.527478e-009
-4.008376e-009
-5.944799e-009
-7.662667e-009
-8.063925e-009
-6.825394e-009
-4.710838e-009
-2.752068e-009
-1.287354e-009
1.188307e-010
1.922412e-009
3.958676e-009
5.618379e-009
6.546348e-009
7.000796e-009
7.481240e-009
8.118505e-009
8.565652e-009
8.484518e-009
7.996445e-009
7.531755e-009
7.271264e-009
6.888746e-009
5.938362e-009
4.424122e-009
2.834112e-009
1.562484e-009
4.197626e-010
-1.122817e-009
-3.187174e-009
-5.136864e-009
-6.117900e-009
-5.931254e-009
-5.210785e-009
-4.635369e-009
-4.063507e-009
-2.661817e-009
7.826776e-012
3.155135e-009
5.234705e-009
5.350262e-009
4.095022e-009
2.856461e-009
2.293881e-009
1.677469e-009
-1.091154e-010
-2.958283e-009
-5.158931e-009
-4.852589e-009
-1.938311e-009
1.564965e-009
3.195520e-009
2.191123e-009
2.738124e-011
-1.121704e-009
-4.359449e-010
9.720638e-010
1.385172e-009
2.666073e-010
-1.282601e-009
-1.735177e-009
-6.899492e-010
7.968841e-010
1.339472e-009
5.880164e-010
-5.333455e-010
-8.653731e-010
-1.971516e-010
6.082104e-010
-3.965735e-008
-2.518728e-008
-4.309834e-009
1.215657e-008
1.731622e-008
1.155426e-008
7.707277e-010
-8.355222e-009
-1.217457e-008
-1.065971e-008
-5.589040e-009
1.195851e-009
7.988419e-009
1.261916e-008
1.274724e-008
7.460463e-009
-1.325267e-009
-9.479516e-009
-1.326219e-008
-1.179878e-008
-7.227575e-009
-2.480845e-009
1.105925e-009
4.149071e-009
7.517540e-009
1.063984e-008
1.170031e-008
9.461792e-009
4.691386e-009
-3.565668e-010
-3.839094e-009
-5.629755e-009
-6.804561e-009
-8.070500e-009
-8.922916e-009
-8.350631e-009
-6.142413e-009
-3.266232e-009
-9.422985e-010
4.864969e-010
1.640283e-009
3.158706e-009
4.890236e-009
6.119466e-009
6.467138e-009
6.343238e-009
6.438860e-009
6.918992e-009
7.302920e-009
7.140613e-009
6.614645e-009
6.311615e-009
6.455581e-009
6.576642e-009
6.053749e-009
4.873369e-009
3.646712e-009
2.827796e-009
2.089219e-009
6.740770e-010
-1.634899e-009
-4.091486e-009
-5.678623e-009
-6.151953e-009
-6.189578e-009
-6.421676e-009
-6.475187e-009
-5.237397e-009
-2.154918e-009
1.880209e-009
5.133982e-009
6.544971e-009
6.510259e-009
6.090969e-009
5.572325e-009
4.071458e-009
7.189522e-010
-3.871527e-009
-7.552274e-009
-8.244587e-009
-5.663101e-009
-1.481362e-009
2.136292e-009
4.107308e-009
4.656237e-009
4.303956e-009
3.010647e-009
5.001298e-010
-2.712919e-009
-4.994748e-009
-4.665234e-009
-1.596753e-009
2.288654e-009
4.331968e-009
3.244815e-009
1.605927e-010
-2.340151e-009
-2.405184e-009
-4.002825e-010
1.555619e-009
-7.483889e-008
-4.832808e-008
-9.743078e-009
2.107804e-008
3.083882e-008
1.975046e-008
-5.812365e-010
-1.601227e-008
-1.879247e-008
-1.069429e-008
6.370304e-010
8.154920e-009
9.544927e-009
6.787084e-009
2.956183e-009
-2.967732e-010
-2.813307e-009
-4.564580e-009
-4.938905e-009
-3.431996e-009
-6.204171e-010
1.981290e-009
3.148403e-009
2.899040e-009
2.139066e-009
1.492459e-009
7.090395e-010
-7.162777e-010
-2.552141e-009
-3.742589e-009
-3.400865e-009
-1.753842e-009
6.575451e-011
1.156314e-009
1.632351e-009
2.216375e-009
3.192539e-009
3.981740e-009
3.811442e-009
2.644106e-009
1.250528e-009
3.618355e-010
-7.599031e-011
-6.835797e-010
-1.784427e-009
-2.968136e-009
-3.588674e-009
-3.546920e-009
-3.379196e-009
-3.557206e-009
-3.888111e-009
-3.767826e-009
-2.964477e-009
-1.938868e-009
-1.285795e-009
-9.904355e-010
-4.481296e-010
7.434491e-010
2.190462e-009
3.068699e-009
3.038825e-009
2.601210e-009
2.438090e-009
2.531551e-009
2.152595e-009
7.826429e-010
-1.117577e-009
-2.439853e-009
-2.522941e-009
-1.762121e-009
-1.047204e-009
-7.159753e-010
-2.666786e-010
8.455673e-010
2.303220e-009
3.028003e-009
2.230026e-009
2.421413e-010
-1.769473e-009
-2.846886e-009
-2.869868e-009
-2.199464e-009
-9.767135e-010
9.202769e-010
3.177295e-009
4.595872e-009
3.773641e-009
5.108393e-010
-3.485636e-009
-5.573157e-009
-4.203609e-009
-2.687331e-010
3.485576e-009
4.544043e-009
2.487049e-009
-8.430176e-010
-2.897378e-009
-2.373248e-009
-6.098433e-011
1.942793e-009
-5.022691e-008
-3.230523e-008
-6.360014e-009
1.389861e-008
1.929003e-008
1.042378e-008
-3.541845e-009
-1.172186e-008
-9.059284e-009
7.907006e-010
9.139035e-009
9.359981e-009
1.735575e-009
-7.517329e-009
-1.167205e-008
-8.536300e-009
-1.176919e-009
5.483115e-009
8.599647e-009
8.544047e-009
7.080507e-009
5.107425e-009
2.241312e-009
-1.876183e-009
-6.431038e-009
-9.780552e-009
-1.075219e-008
-9.405032e-009
-6.594373e-009
-3.078339e-009
7.873669e-010
4.660163e-009
7.893840e-009
9.826796e-009
1.030715e-008
9.743763e-009
8.596538e-009
6.949125e-009
4.682858e-009
1.970509e-009
-6.128970e-010
-2.558932e-009
-3.897474e-009
-5.062061e-009
-6.300802e-009
-7.365627e-009
-7.862657e-009
-7.805217e-009
-7.651580e-009
-7.767079e-009
-7.988669e-009
-7.845475e-009
-7.155715e-009
-6.240056e-009
-5.479882e-009
-4.787518e-009
-3.674914e-009
-1.850811e-009
3.961625e-010
2.502710e-009
4.228832e-009
5.787859e-009
7.352618e-009
8.586293e-009
8.825183e-009
7.719301e-009
5.561270e-009
2.934731e-009
1.722587e-010
-2.675668e-009
-5.366738e-009
-7.199858e-009
-7.434545e-009
-5.974410e-009
-3.485559e-009
-7.799933e-010
1.780033e-009
4.112934e-009
5.752297e-009
5.714183e-009
3.382607e-009
-4.275646e-010
-3.582382e-009
-4.179346e-009
-2.189450e-009
4.721334e-010
1.638905e-009
7.672588e-010
-7.865319e-010
-1.259485e-009
-1.898299e-010
1.303775e-009
1.774516e-009
8.430877e-010
-6.056584e-010
-1.410867e-009
-1.161454e-009
-3.089151e-010
4.810747e-010
8.834436e-010
1.476611e-008
9.775563e-009
2.531190e-009
-3.597130e-009
-6.744708e-009
-6.853906e-009
-4.448844e-009
1.683242e-010
6.157356e-009
1.098451e-008
1.104565e-008
4.473144e-009
-6.272096e-009
-1.503133e-008
-1.609360e-008
-8.603751e-009
2.694650e-009
1.115168e-008
1.309360e-008
9.721733e-009
4.857309e-009
1.203489e-009
-1.290390e-009
-3.975540e-009
-7.121791e-009
-9.277697e-009
-8.785286e-009
-5.545630e-009
-1.147696e-009
2.559147e-009
4.811794e-009
5.966520e-009
6.567405e-009
6.667386e-009
6.011992e-009
4.598598e-009
2.846209e-009
1.259804e-009
8.349437e-011
-6.887983e-010
-1.102006e-009
-1.166732e-009
-9.565785e-010
-6.363270e-010
-3.246747e-010
9.673276e-012
4.394270e-010
8.917717e-010
1.158011e-009
1.115995e-009
8.744660e-010
6.342508e-010
4.413091e-010
1.608873e-010
-2.929811e-010
-7.863475e-010
-1.086078e-009
-1.101811e-009
-9.113478e-010
-5.443318e-010
1.403851e-010
1.263601e-009
2.660173e-009
3.934272e-009
4.813215e-009
5.328173e-009
5.533459e-009
5.129991e-009
3.604978e-009
8.923265e-010
-2.211193e-009
-4.518560e-009
-5.431783e-009
-5.325013e-009
-4.822205e-009
-3.806049e-009
-1.467499e-009
2.437782e-009
6.515272e-009
8.313821e-009
6.335568e-009
1.554378e-009
-3.189058e-009
-5.443418e-009
-4.892710e-009
-3.005743e-009
-1.220644e-009
2.714176e-010
1.960520e-009
3.620079e-009
3.974120e-009
2.024965e-009
-1.422664e-009
-3.949955e-009
-3.569540e-009
-6.744914e-010
2.176291e-009
2.592780e-009
5.772256e-010
-1.566878e-009
6.885436e-008
4.381431e-008
8.304210e-009
-1.866727e-008
-2.601467e-008
-1.604065e-008
-4.162191e-011
1.103171e-008
1.308120e-008
8.641900e-009
2.308746e-009
-3.031832e-009
-6.474393e-009
-7.448521e-009
-5.197525e-009
-1.158805e-010
5.189171e-009
7.193994e-009
4.367902e-009
-1.246243e-009
-5.630187e-009
-6.157777e-009
-3.484303e-009
-2.935119e-010
1.530567e-009
2.342318e-009
3.587889e-009
5.686323e-009
7.352373e-009
6.944023e-009
4.193777e-009
4.663794e-010
-2.551356e-009
-4.207867e-009
-4.976247e-009
-5.481903e-009
-5.700105e-009
-5.109446e-009
-3.422711e-009
-9.931422e-010
1.480540e-009
3.528632e-009
5.153944e-009
6.598902e-009
7.980924e-009
9.171937e-009
9.969758e-009
1.032605e-008
1.039402e-008
1.036628e-008
1.027682e-008
9.973645e-009
9.299484e-009
8.287903e-009
7.135293e-009
5.949499e-009
4.573804e-009
2.758215e-009
5.437702e-010
-1.604724e-009
-3.160536e-009
-4.027180e-009
-4.544834e-009
-4.923677e-009
-4.777545e-009
-3.442588e-009
-8.572077e-010
2.021797e-009
3.910277e-009
4.359356e-009
4.072312e-009
3.928959e-009
3.810427e-009
2.685553e-009
1.722665e-011
-3.098947e-009
-4.551918e-009
-3.170857e-009
6.710546e-012
2.582871e-009
2.948390e-009
1.518845e-009
-1.174746e-010
-1.007434e-009
-1.509357e-009
-2.212626e-009
-2.625912e-009
-1.463723e-009
1.586984e-009
4.705070e-009
5.091610e-009
1.673280e-009
-3.356246e-009
-6.028956e-009
-4.051857e-009
9.730302e-010
4.791210e-009
4.223900e-009
6.314285e-012
-3.895611e-009
7.134942e-008
4.352717e-008
5.167470e-009
-2.155227e-008
-2.477461e-008
-9.593771e-009
8.086231e-009
1.456211e-008
7.619681e-009
-4.337997e-009
-1.092718e-008
-8.053693e-009
5.392864e-010
8.076382e-009
1.043003e-008
7.884732e-009
2.917600e-009
-2.526480e-009
-7.532356e-009
-1.105246e-008
-1.146379e-008
-7.814610e-009
-1.241712e-009
5.401076e-009
9.612979e-009
1.092949e-008
1.055455e-008
9.562243e-009
7.762832e-009
4.381899e-009
-4.402664e-010
-5.178884e-009
-8.051035e-009
-8.482082e-009
-7.356535e-009
-5.914819e-009
-4.584194e-009
-2.929559e-009
-5.661562e-010
2.120297e-009
4.232282e-009
5.221664e-009
5.361867e-009
5.358601e-009
5.593271e-009
5.831970e-009
5.651757e-009
5.039713e-009
4.474682e-009
4.418339e-009
4.813030e-009
5.168049e-009
5.136447e-009
4.905633e-009
4.921554e-009
5.248354e-009
5.338943e-009
4.556230e-009
2.886658e-009
9.892468e-010
-5.380840e-010
-1.824654e-009
-3.468466e-009
-5.573733e-009
-7.237483e-009
-7.231434e-009
-5.232862e-009
-2.208485e-009
5.548609e-010
2.694127e-009
4.820291e-009
7.284867e-009
9.159864e-009
8.796381e-009
5.517196e-009
5.912129e-010
-3.662976e-009
-5.734440e-009
-5.787294e-009
-4.787035e-009
-3.152167e-009
-6.344979e-010
2.522326e-009
4.826128e-009
4.512808e-009
1.468094e-009
-2.100662e-009
-3.349638e-009
-1.413759e-009
1.674192e-009
2.832610e-009
8.531070e-010
-2.423054e-009
-3.821219e-009
-1.814696e-009
2.018206e-009
4.374451e-009
3.150269e-009
-7.061337e-010
-3.998436e-009
2.357018e-008
1.146488e-008
-3.832221e-009
-1.137125e-008
-6.622589e-009
5.096773e-009
1.301407e-008
9.691612e-009
-2.882605e-009
-1.493013e-008
-1.688091e-008
-7.024466e-009
7.482204e-009
1.669461e-008
1.550331e-008
6.483629e-009
-3.551355e-009
-9.304769e-009
-9.917195e-009
-7.537328e-009
-4.229401e-009
-5.950257e-010
3.266810e-009
6.498418e-009
7.747087e-009
6.513727e-009
3.776738e-009
1.085427e-009
-7.837818e-010
-2.082301e-009
-3.149788e-009
-3.599640e-009
-2.678592e-009
-3.262445e-010
2.414363e-009
4.197907e-009
4.512812e-009
3.902295e-009
3.100917e-009
2.137605e-009
4.152929e-010
-2.406652e-009
-5.816325e-009
-8.847010e-009
-1.099708e-008
-1.260711e-008
-1.428156e-008
-1.605442e-008
-1.727812e-008
-1.735224e-008
-1.641813e-008
-1.518704e-008
-1.409938e-008
-1.282190e-008
-1.070534e-008
-7.675845e-009
-4.484412e-009
-1.979718e-009
-2.538979e-010
1.295968e-009
3.034393e-009
4.419059e-009
4.478720e-009
2.949942e-009
7.330427e-010
-9.245959e-010
-1.600070e-009
-1.854855e-009
-2.224534e-009
-2.316355e-009
-1.189947e-009
1.372554e-009
4.243175e-009
5.797442e-009
5.322848e-009
3.418816e-009
1.062774e-009
-1.373166e-009
-3.903320e-009
-5.911890e-009
-5.934424e-009
-2.961071e-009
2.009167e-009
6.107297e-009
6.722012e-009
3.693981e-009
-5.951609e-010
-3.324872e-009
-3.449734e-009
-2.012791e-009
-6.308907e-010
3.534378e-011
3.841879e-010
8.796950e-010
1.351913e-009
1.307633e-009
6.403909e-010
-2.177543e-010
-7.966980e-010
-1.011598e-009
-3.611132e-008
-2.538982e-008
-9.283286e-009
5.124713e-009
1.304477e-008
1.347039e-008
8.060833e-009
-3.730935e-010
-8.351037e-009
-1.207267e-008
-9.092488e-009
-6.589184e-010
7.970656e-009
1.079612e-008
5.816494e-009
-3.046945e-009
-8.995981e-009
-7.855046e-009
-1.110642e-009
6.006193e-009
9.160513e-009
7.836190e-009
4.385610e-009
1.047093e-009
-1.741402e-009
-4.511116e-009
-7.092757e-009
-8.291065e-009
-7.099700e-009
-3.813683e-009
2.503356e-010
3.925866e-009
6.823908e-009
8.869494e-009
9.610196e-009
8.320749e-009
4.776900e-009
-3.434617e-010
-6.011632e-009
-1.172771e-008
-1.769072e-008
-2.410204e-008
-3.051076e-008
-3.604168e-008
-4.023747e-008
-4.346845e-008
-4.637864e-008
-4.901928e-008
-5.072090e-008
-5.086767e-008
-4.963393e-008
-4.777691e-008
-4.572745e-008
-4.308897e-008
-3.916872e-008
-3.390202e-008
-2.803867e-008
-2.236259e-008
-1.691441e-008
-1.119404e-008
-5.105349e-009
5.378841e-010
4.608446e-009
6.673522e-009
7.214266e-009
6.844816e-009
5.570980e-009
3.058420e-009
-4.427860e-010
-3.765979e-009
-5.630877e-009
-5.680046e-009
-4.517456e-009
-2.773461e-009
-4.763183e-010
2.399952e-009
4.976858e-009
5.618931e-009
3.447157e-009
-3.691142e-010
-3.221254e-009
-3.245788e-009
-9.123625e-010
1.616108e-009
2.586909e-009
1.959895e-009
7.493713e-010
-4.282084e-010
-1.696917e-009
-2.920028e-009
-3.026821e-009
-9.973074e-010
2.436901e-009
4.666332e-009
3.437353e-009
-6.248615e-010
-4.097814e-009
-3.833028e-009
-1.000919e-010
3.506103e-009
-6.614899e-008
-3.995512e-008
-4.639175e-009
1.887185e-008
2.090744e-008
7.823299e-009
-5.978587e-009
-1.030701e-008
-5.177917e-009
2.602609e-009
6.807332e-009
5.875423e-009
1.687527e-009
-3.473744e-009
-7.987612e-009
-1.005496e-008
-7.657350e-009
-4.344299e-010
8.667185e-009
1.462202e-008
1.399956e-008
7.664963e-009
-1.817923e-010
-5.605235e-009
-7.603659e-009
-7.598866e-009
-6.972343e-009
-5.596530e-009
-2.675942e-009
1.547150e-009
5.387422e-009
6.975811e-009
5.617629e-009
1.813290e-009
-3.770802e-009
-1.099627e-008
-1.992312e-008
-3.015117e-008
-4.082689e-008
-5.130354e-008
-6.155105e-008
-7.177529e-008
-8.177221e-008
-9.088313e-008
-9.860470e-008
-1.050295e-007
-1.105089e-007
-1.149597e-007
-1.177317e-007
-1.182510e-007
-1.166466e-007
-1.135623e-007
-1.093831e-007
-1.038537e-007
-9.657134e-008
-8.771124e-008
-7.804549e-008
-6.822418e-008
-5.824260e-008
-4.777886e-008
-3.695793e-008
-2.654742e-008
-1.734061e-008
-9.554459e-009
-3.040209e-009
2.011512e-009
4.910675e-009
5.206404e-009
3.433020e-009
8.429051e-010
-1.629314e-009
-3.871502e-009
-5.893050e-009
-6.876797e-009
-5.463075e-009
-1.286770e-009
3.967190e-009
7.493796e-009
7.604625e-009
4.988369e-009
1.707890e-009
-8.248913e-010
-2.597109e-009
-3.878279e-009
-4.036183e-009
-2.135901e-009
1.275840e-009
3.704737e-009
2.819689e-009
-8.135259e-010
-3.655900e-009
-2.509730e-009
1.940435e-009
5.312188e-009
3.749653e-009
-1.915268e-009
-6.516318e-009
-5.438660e-009
7.049023e-010
6.394604e-009
-5.322536e-008
-2.656606e-008
6.720709e-009
2.325350e-008
1.500420e-008
-5.916087e-009
-1.941213e-008
-1.469945e-008
2.353141e-009
1.665462e-008
1.761702e-008
6.638687e-009
-6.606980e-009
-1.345076e-008
-1.200610e-008
-5.819662e-009
9.144231e-010
6.089718e-009
8.953752e-009
8.695898e-009
4.903207e-009
-9.460197e-010
-5.564718e-009
-6.191907e-009
-2.884925e-009
1.729070e-009
4.942578e-009
5.992192e-009
5.663206e-009
4.358188e-009
1.058201e-009
-5.743215e-009
-1.644221e-008
-2.997137e-008
-4.495419e-008
-6.090918e-008
-7.822209e-008
-9.720075e-008
-1.174843e-007
-1.383894e-007
-1.595294e-007
-1.808342e-007
-2.020255e-007
-2.223250e-007
-2.407845e-007
-2.567604e-007
-2.699079e-007
-2.797884e-007
-2.857326e-007
-2.872163e-007
-2.842582e-007
-2.772909e-007
-2.666787e-007
-2.525514e-007
-2.351803e-007
-2.153487e-007
-1.941403e-007
-1.723633e-007
-1.503515e-007
-1.283843e-007
-1.070991e-007
-8.725386e-008
-6.911840e-008
-5.238604e-008
-3.687296e-008
-2.315554e-008
-1.222646e-008
-4.473865e-009
7.314791e-010
4.217733e-009
5.953274e-009
5.221316e-009
2.037309e-009
-1.890311e-009
-4.072162e-009
-3.283512e-009
-5.326780e-010
2.134762e-009
3.593133e-009
4.119344e-009
4.079633e-009
2.825382e-009
-4.423716e-010
-4.754701e-009
-7.109417e-009
-4.971215e-009
7.626452e-010
5.798840e-009
6.098322e-009
1.746254e-009
-3.001737e-009
-3.803537e-009
-4.424733e-010
3.100924e-009
2.807452e-009
-1.223278e-009
-4.844454e-009
-4.082432e-009
7.701238e-010
5.315900e-009
-1.565503e-008
-1.375898e-009
1.406096e-008
1.633438e-008
2.926360e-009
-1.457955e-008
-2.089146e-008
-1.055217e-008
7.574927e-009
1.855651e-008
1.444168e-008
3.094391e-010
-1.138523e-008
-1.201245e-008
-3.127370e-009
6.711100e-009
1.018982e-008
6.471582e-009
-2.278537e-010
-5.511652e-009
-7.747950e-009
-7.287891e-009
-4.485068e-009
5.896751e-010
6.882522e-009
1.185551e-008
1.288046e-008
9.038161e-009
1.224275e-009
-9.495127e-009
-2.330780e-008
-4.132134e-008
-6.412250e-008
-9.108943e-008
-1.212163e-007
-1.543310e-007
-1.912190e-007
-2.325776e-007
-2.780556e-007
-3.263539e-007
-3.760235e-007
-4.259227e-007
-4.749458e-007
-5.215981e-007
-5.640573e-007
-6.006265e-007
-6.300310e-007
-6.513430e-007
-6.638350e-007
-6.670308e-007
-6.608174e-007
-6.453875e-007
-6.211168e-007
-5.886530e-007
-5.491533e-007
-5.042640e-007
-4.557078e-007
-4.049220e-007
-3.532170e-007
-3.022096e-007
-2.537880e-007
-2.093928e-007
-1.693856e-007
-1.333639e-007
-1.011667e-007
-7.335734e-008
-5.053063e-008
-3.231072e-008
-1.745095e-008
-5.136920e-009
4.038825e-009
8.780915e-009
8.853548e-009
5.892064e-009
2.276192e-009
-6.252056e-010
-2.796290e-009
-4.288832e-009
-4.232391e-009
-1.729282e-009
2.326624e-009
5.053587e-009
3.945813e-009
-4.087649e-010
-4.367103e-009
-4.429974e-009
-5.476910e-010
3.825966e-009
4.998041e-009
2.342828e-009
-1.490796e-009
-3.341484e-009
-2.322554e-009
-9.040216e-011
1.176585e-009
7.927358e-010
-2.378064e-010
-5.989828e-010
-7.513339e-013
7.451736e-010
1.878127e-008
1.568356e-008
9.500431e-009
1.158596e-009
-6.697537e-009
-1.035345e-008
-7.491559e-009
1.921466e-010
7.058137e-009
7.418687e-009
5.925745e-010
-7.675821e-009
-9.639344e-009
-2.442268e-009
8.874161e-009
1.540175e-008
1.192257e-008
1.080854e-009
-9.365897e-009
-1.312398e-008
-9.567334e-009
-2.519301e-009
3.918184e-009
7.954217e-009
9.391547e-009
7.684889e-009
1.462820e-009
-1.032076e-008
-2.755504e-008
-4.971407e-008
-7.723016e-008
-1.117753e-007
-1.551635e-007
-2.082395e-007
-2.709495e-007
-3.431932e-007
-4.251418e-007
-5.165110e-007
-6.156566e-007
-7.195746e-007
-8.248016e-007
-9.282523e-007
-1.027288e-006
-1.119289e-006
-1.201460e-006
-1.271141e-006
-1.326247e-006
-1.365438e-006
-1.387966e-006
-1.393435e-006
-1.381635e-006
-1.352541e-006
-1.306514e-006
-1.244629e-006
-1.168789e-006
-1.081406e-006
-9.849025e-007
-8.816351e-007
-7.743873e-007
-6.667638e-007
-5.627285e-007
-4.654889e-007
-3.768324e-007
-2.976055e-007
-2.286542e-007
-1.709293e-007
-1.245272e-007
-8.793399e-008
-5.869875e-008
-3.506426e-008
-1.679687e-008
-4.308662e-009
2.797776e-009
5.960148e-009
6.482049e-009
4.660075e-009
5.783209e-010
-4.339008e-009
-7.241519e-009
-5.928286e-009
-1.069353e-009
4.001140e-009
6.012285e-009
4.359898e-009
1.114482e-009
-1.219816e-009
-1.689560e-009
-9.165135e-010
1.185817e-010
8.132756e-010
7.708947e-010
-2.725198e-010
-1.867851e-009
-2.582330e-009
-1.109829e-009
2.008595e-009
4.211674e-009
3.137078e-009
-7.854269e-010
-4.306116e-009
3.607684e-008
1.815975e-008
-4.136847e-009
-1.534344e-008
-1.045582e-008
2.716358e-009
1.192717e-008
1.072035e-008
1.727466e-009
-7.738680e-009
-1.190369e-008
-9.294471e-009
-1.874986e-009
6.657794e-009
1.207093e-008
1.117935e-008
4.096991e-009
-4.846256e-009
-9.537387e-009
-6.661459e-009
1.570614e-009
9.228235e-009
1.129328e-008
6.724342e-009
-2.536825e-009
-1.490080e-008
-3.120882e-008
-5.402817e-008
-8.582650e-008
-1.283759e-007
-1.836671e-007
-2.546564e-007
-3.445687e-007
-4.553810e-007
-5.870172e-007
-7.377750e-007
-9.050728e-007
-1.085525e-006
-1.274520e-006
-1.466237e-006
-1.654519e-006
-1.833953e-006
-2.000292e-006
-2.150115e-006
-2.280360e-006
-2.388314e-006
-2.471963e-006
-2.530236e-006
-2.562829e-006
-2.569725e-006
-2.550783e-006
-2.505742e-006
-2.434656e-006
-2.338400e-006
-2.218751e-006
-2.077967e-006
-1.918420e-006
-1.742902e-006
-1.555435e-006
-1.361624e-006
-1.167903e-006
-9.802354e-007
-8.034551e-007
-6.416565e-007
-4.986373e-007
-3.773282e-007
-2.785389e-007
-2.004980e-007
-1.399662e-007
-9.389574e-008
-5.999080e-008
-3.596639e-008
-1.899907e-008
-6.553448e-009
2.249197e-009
6.643930e-009
6.085318e-009
2.082931e-009
-2.117473e-009
-3.783934e-009
-2.489751e-009
2.909128e-010
2.918797e-009
4.528825e-009
4.584066e-009
2.532228e-009
-1.294948e-009
-4.743774e-009
-4.960871e-009
-1.300533e-009
3.184850e-009
4.177174e-009
5.939349e-010
-3.765847e-009
-3.885951e-009
9.524530e-010
5.906073e-009
5.431349e-009
-6.703545e-010
-6.663125e-009
3.970705e-008
1.384259e-008
-1.577429e-008
-2.521224e-008
-9.778613e-009
1.366494e-008
2.377525e-008
1.370617e-008
-5.319786e-009
-1.670853e-008
-1.338702e-008
-1.423700e-009
8.163071e-009
9.336389e-009
3.873415e-009
-2.759554e-009
-6.348894e-009
-5.450282e-009
-4.738925e-010
6.829304e-009