# vtk DataFile Version 3.0
vtk output
ASCII
DATASET STRUCTURED_POINTS
DIMENSIONS 100 100 1
SPACING 1 1 1
ORIGIN 0 0 0
POINT_DATA 10000
SCALARS SFBox_profile double
LOOKUP_TABLE default 
0.000000e+000
0.000000e+000
0.000000e+000
0.000000e+000
0.000000e+000
0.000000e+000
0.000000e+000
0.000000e+000
0.000000e+000
0.000000e+000
0.000000e+000
0.000000e+000
0.000000e+000
0.000000e+000
0.000000e+000
0.000000e+000
0.000000e+000
0.000000e+000
0.000000e+000
0.000000e+000
0.000000e+000
0.000000e+000
0.000000e+000
0.000000e+000
0.000000e+000
0.000000e+000
0.000000e+000
0.000000e+000
0.000000e+000
0.000000e+000
0.000000e+000
0.000000e+000
0.000000e+000
0.000000e+000
0.000000e+000
0.000000e+000
0.000000e+000
0.000000e+000
0.000000e+000
0.000000e+000
0.000000e+000
0.000000e+000
0.000000e+000
0.000000e+000
0.000000e+000
0.000000e+000
0.000000e+000
0.000000e+000
0.000000e+000
0.000000e+000
0.000000e+000
0.000000e+000
0.000000e+000
0.000000e+000
0.000000e+000
0.000000e+000
0.000000e+000
0.000000e+000
0.000000e+000
0.000000e+000
0.000000e+000
0.000000e+000
0.000000e+000
0.000000e+000
0.000000e+000
0.000000e+000
0.000000e+000
0.000000e+000
0.000000e+000
0.000000e+000
0.000000e+000
0.000000e+000
0.000000e+000
0.000000e+000
0.000000e+000
0.000000e+000
0.000000e+000
0.000000e+000
0.000000e+000
0.000000e+000
0.000000e+000
0.000000e+000
0.000000e+000
0.000000e+000
0.000000e+000
0.000000e+000
0.000000e+000
0.000000e+000
0.000000e+000
0.000000e+000
0.000000e+000
0.000000e+000
0.000000e+000
0.000000e+000
0.000000e+000
0.000000e+000
0.000000e+000
0.000000e+000
0.000000e+000
0.000000e+000
-2.205810e-009
-1.387414e-009
-1.858406e-010
7.579679e-010
9.675950e-010
4.425746e-010
-3.271146e-010
-7.191993e-010
-4.716309e-010
1.121200e-010
4.638636e-010
2.999163e-010
-1.209245e-010
-3.038779e-010
-6.642895e-011
2.753761e-010
2.927838e-010
-4.647927e-011
-3.473003e-010
-2.688640e-010
6.954470e-011
2.534847e-010
9.245189e-011
-1.630672e-010
-1.671562e-010
7.570605e-011
2.390308e-010
1.156156e-010
-1.233973e-010
-1.780435e-010
-1.717673e-011
1.090538e-010
2.784058e-011
-1.339149e-010
-1.484750e-010
-2.463741e-012
1.068355e-010
5.792674e-011
-4.201912e-011
-3.066660e-011
8.185610e-011
1.475449e-010
9.888086e-011
2.985346e-011
4.606969e-011
1.193407e-010
1.454351e-010
9.768276e-011
5.209073e-011
6.819836e-011
1.105599e-010
1.121957e-010
7.098352e-011
4.212134e-011
5.405796e-011
7.484949e-011
6.549173e-011
3.288845e-011
1.199238e-011
1.477751e-011
1.992184e-011
7.960769e-012
-1.357636e-011
-2.498959e-011
-2.134395e-011
-1.541361e-011
-1.884805e-011
-2.866398e-011
-3.270398e-011
-2.394995e-011
-7.778116e-012
3.690519e-012
4.073168e-012
-2.555687e-013
2.886774e-012
1.633457e-011
2.776394e-011
2.261440e-011
2.103827e-012
-1.636266e-011
-1.864224e-011
-9.518384e-012
-4.528424e-012
-8.463502e-012
-8.992493e-012
5.389521e-012
2.610896e-011
3.025243e-011
6.925308e-012
-2.662974e-011
-3.959563e-011
-1.846971e-011
1.851184e-011
3.840065e-011
2.436768e-011
-9.744213e-012
-3.336335e-011
-2.675911e-011
2.821234e-012
2.888424e-011
3.850082e-010
2.000728e-010
-2.333343e-011
-1.292037e-010
-8.894964e-011
-3.572529e-012
2.225522e-011
-8.108668e-012
-9.552255e-012
5.720787e-011
1.176049e-010
6.961086e-011
-7.387226e-011
-1.723237e-010
-1.132666e-010
4.417487e-011
1.269209e-010
5.367625e-011
-6.428495e-011
-6.425160e-011
5.684544e-011
1.360496e-010
5.818085e-011
-8.891161e-011
-1.269627e-010
-2.095695e-011
7.917553e-011
4.399166e-011
-6.367667e-011
-8.269880e-011
2.199447e-011
1.156466e-010
8.368006e-011
-1.545317e-011
-4.241888e-011
2.701697e-011
7.889838e-011
3.032129e-011
-5.797961e-011
-7.727026e-011
-2.420693e-011
6.187556e-012
-3.723175e-011
-9.566187e-011
-9.424855e-011
-4.761714e-011
-2.880497e-011
-6.103949e-011
-9.234409e-011
-7.766903e-011
-4.033191e-011
-3.040131e-011
-5.211704e-011
-6.506416e-011
-4.640947e-011
-1.926291e-011
-1.375463e-011
-2.505808e-011
-2.598338e-011
-7.651767e-012
1.148941e-011
1.460414e-011
7.940967e-012
8.203736e-012
1.902971e-011
2.875837e-011
2.759805e-011
1.881279e-011
1.213687e-011
1.147308e-011
1.199956e-011
7.361428e-012
-2.835535e-012
-1.264963e-011
-1.584350e-011
-1.198264e-011
-6.423800e-012
-4.019627e-012
-3.534656e-012
1.793759e-013
8.300929e-012
1.448324e-011
1.126520e-011
-5.424154e-013
-1.122878e-011
-1.191046e-011
-3.564675e-012
4.843389e-012
6.300370e-012
2.074714e-012
-1.706719e-012
-1.621505e-012
4.153044e-013
1.049019e-012
-2.027154e-013
-1.276896e-012
-8.512161e-013
2.147866e-013
6.019739e-013
3.672450e-013
2.655169e-009
1.602141e-009
1.249771e-010
-9.288897e-010
-1.050144e-009
-3.888783e-010
4.038314e-010
7.054023e-010
3.967154e-010
-1.191153e-010
-3.523310e-010
-1.859671e-010
8.399977e-011
1.271470e-010
-6.182802e-011
-2.079852e-010
-1.123697e-010
1.194839e-010
2.300931e-010
1.252336e-010
-4.004890e-011
-8.030317e-011
-2.369449e-013
5.098267e-011
-5.650964e-012
-9.038754e-011
-9.346489e-011
-2.008087e-011
3.799515e-011
3.559734e-011
1.765042e-011
3.377176e-011
6.641330e-011
6.920095e-011
3.964508e-011
1.512471e-011
1.158644e-011
5.530327e-012
-2.056866e-011
-4.855690e-011
-5.548040e-011
-5.030929e-011
-5.751257e-011
-7.699816e-011
-8.525934e-011
-7.374647e-011
-6.230782e-011
-6.786930e-011
-7.898128e-011
-7.493440e-011
-5.770529e-011
-4.769371e-011
-5.233326e-011
-5.649125e-011
-4.693188e-011
-3.146362e-011
-2.505124e-011
-2.669132e-011
-2.216353e-011
-6.272836e-012
9.749077e-012
1.506805e-011
1.382469e-011
1.717510e-011
2.682732e-011
3.413358e-011
3.355500e-011
2.933171e-011
2.708602e-011
2.493532e-011
1.747946e-011
5.432655e-012
-4.343362e-012
-8.412700e-012
-1.137788e-011
-1.827173e-011
-2.544470e-011
-2.338356e-011
-8.668755e-012
1.037512e-011
2.178392e-011
2.163254e-011
1.516798e-011
7.587314e-012
-2.066895e-012
-1.554032e-011
-2.665154e-011
-2.331894e-011
-1.268852e-012
2.608813e-011
3.588350e-011
1.703982e-011
-1.662379e-011
-3.656517e-011
-2.509087e-011
7.782144e-012
3.278723e-011
2.783091e-011
-2.019480e-012
-2.932829e-011
1.994444e-009
1.243184e-009
1.330883e-010
-7.337750e-010
-8.874894e-010
-3.279263e-010
4.278328e-010
7.295117e-010
3.500006e-010
-3.040861e-010
-5.869966e-010
-2.601212e-010
2.789680e-010
4.455773e-010
1.088247e-010
-2.952659e-010
-2.980997e-010
5.856920e-011
3.113459e-010
1.611260e-010
-1.782163e-010
-2.812001e-010
-4.929484e-011
1.990023e-010
1.642553e-010
-6.495283e-011
-1.703232e-010
-3.476586e-011
1.346431e-010
1.147009e-010
-4.467459e-011
-1.230252e-010
-3.840971e-011
6.952577e-011
5.850426e-011
-2.936018e-011
-5.459268e-011
1.829090e-011
9.194007e-011
8.864523e-011
4.838526e-011
5.138956e-011
1.023760e-010
1.394599e-010
1.306431e-010
1.096640e-010
1.157124e-010
1.396039e-010
1.478059e-010
1.335980e-010
1.194044e-010
1.192425e-010
1.225349e-010
1.154536e-010
1.001726e-010
8.660320e-011
7.688632e-011
6.656392e-011
5.451201e-011
4.341720e-011
3.343559e-011
2.245556e-011
1.153275e-011
4.010523e-012
-5.789884e-013
-5.934202e-012
-1.148392e-011
-1.154241e-011
-4.817807e-012
8.398708e-013
-1.349520e-012
-5.769800e-012
-8.630086e-013
1.316409e-011
2.110141e-011
1.152720e-011
-6.753710e-012
-1.428408e-011
-5.296818e-012
5.545176e-012
3.405091e-012
-6.606905e-012
-6.828270e-012
7.510319e-012
1.904649e-011
9.128650e-012
-1.661306e-011
-3.090635e-011
-1.484924e-011
1.899310e-011
3.759375e-011
2.135626e-011
-1.534511e-011
-3.814883e-011
-2.607347e-011
9.141507e-012
3.511273e-011
2.895571e-011
-2.838836e-012
-3.137921e-011
-1.026625e-009
-5.211456e-010
7.085887e-011
3.251076e-010
2.004302e-010
9.976013e-014
-1.975485e-011
6.978828e-011
2.245802e-011
-2.051454e-010
-3.441341e-010
-1.426667e-010
2.670572e-010
4.609503e-010
2.150500e-010
-2.008569e-010
-3.267859e-010
-6.595170e-011
2.065211e-010
1.291022e-010
-1.848940e-010
-3.073741e-010
-6.266598e-011
2.478780e-010
2.517273e-010
-1.235228e-011
-1.742698e-010
-4.046206e-011
1.689964e-010
1.505618e-010
-6.876893e-011
-1.948707e-010
-8.100456e-011
9.581787e-011
1.092817e-010
-9.355676e-012
-4.914256e-011
7.044624e-011
2.068738e-010
2.163400e-010
1.457146e-010
1.382997e-010
2.242097e-010
2.981634e-010
2.847152e-010
2.349549e-010
2.347778e-010
2.826962e-010
3.087122e-010
2.820736e-010
2.446967e-010
2.401422e-010
2.556719e-010
2.521936e-010
2.219939e-010
1.909116e-010
1.760983e-010
1.666268e-010
1.458944e-010
1.147076e-010
8.567043e-011
6.559500e-011
5.108963e-011
3.616717e-011
1.820008e-011
-7.980174e-013
-1.466423e-011
-1.756204e-011
-1.167885e-011
-7.358893e-012
-1.069666e-011
-1.366124e-011
-3.531272e-012
1.797255e-011
3.297061e-011
2.861313e-011
1.342966e-011
5.383158e-012
7.171730e-012
3.352057e-012
-1.559075e-011
-3.519970e-011
-3.154987e-011
-1.601831e-012
2.937313e-011
3.389531e-011
1.116356e-011
-1.429873e-011
-2.022590e-011
-7.587508e-012
5.943260e-012
7.673348e-012
7.716168e-013
-4.099117e-012
-2.234259e-012
2.260008e-012
3.838054e-012
1.733331e-012
-1.234516e-012
-2.896783e-012
-3.240597e-009
-1.811567e-009
6.523699e-011
1.192479e-009
1.060847e-009
1.501824e-010
-5.969796e-010
-6.227359e-010
-1.397364e-010
2.488049e-010
2.244367e-010
-3.884639e-012
-7.524495e-011
5.681962e-011
1.355188e-010
6.516335e-012
-1.621706e-010
-1.331562e-010
5.277720e-011
1.337260e-010
3.766976e-012
-1.342440e-010
-6.320043e-011
1.297140e-010
1.733339e-010
2.340507e-012
-1.453819e-010
-6.575786e-011
1.249303e-010
1.628935e-010
1.351987e-011
-8.913828e-011
1.636988e-011
1.965052e-010
2.266180e-010
1.081164e-010
4.596632e-011
1.450152e-010
2.745525e-010
2.744989e-010
1.804913e-010
1.515936e-010
2.353823e-010
3.171328e-010
3.002969e-010
2.366783e-010
2.328297e-010
2.949795e-010
3.361877e-010
3.101523e-010
2.667699e-010
2.668283e-010
2.977866e-010
3.051895e-010
2.745089e-010
2.424343e-010
2.370657e-010
2.424695e-010
2.293503e-010
1.962758e-010
1.656157e-010
1.510257e-010
1.442738e-010
1.309449e-010
1.075667e-010
8.173318e-011
6.221317e-011
5.138427e-011
4.403828e-011
3.247942e-011
1.509115e-011
-3.935462e-013
-5.181683e-012
-5.818804e-013
3.461883e-012
1.863792e-012
1.002569e-012
7.863444e-012
1.672356e-011
1.378638e-011
-4.484409e-012
-2.383735e-011
-2.662699e-011
-1.055205e-011
1.056220e-011
2.227048e-011
2.092663e-011
1.054139e-011
-4.651136e-012
-1.980242e-011
-2.565867e-011
-1.359789e-011
1.203632e-011
3.119952e-011
2.461004e-011
-4.968113e-012
-3.133443e-011
-2.889510e-011
1.056392e-012
3.003890e-011
-2.229724e-009
-1.261907e-009
7.393989e-011
9.446456e-010
8.511373e-010
2.527439e-011
-7.288513e-010
-7.241806e-010
-2.230943e-011
6.433189e-010
6.258581e-010
2.074822e-011
-4.937619e-010
-4.332032e-010
2.607445e-012
2.600953e-010
1.178176e-010
-1.236280e-010
-1.101975e-010
1.101590e-010
2.183021e-010
8.625245e-011
-8.492497e-011
-8.769874e-011
1.542763e-011
3.606764e-011
-4.117928e-011
-5.890017e-011
4.993512e-011
1.596660e-010
1.550169e-010
1.075987e-010
1.540635e-010
2.771925e-010
3.325847e-010
2.728341e-010
2.195849e-010
2.780788e-010
3.830888e-010
4.051681e-010
3.454099e-010
3.255426e-010
4.019353e-010
4.888244e-010
4.933413e-010
4.477202e-010
4.487933e-010
5.123231e-010
5.598797e-010
5.405822e-010
4.978266e-010
4.945592e-010
5.226005e-010
5.253782e-010
4.845665e-010
4.398607e-010
4.256491e-010
4.257624e-010
4.045845e-010
3.583354e-010
3.144080e-010
2.905089e-010
2.752589e-010
2.497522e-010
2.127745e-010
1.777074e-010
1.527894e-010
1.330637e-010
1.100155e-010
8.256128e-011
5.638859e-011
3.544888e-011
1.744722e-011
-1.431983e-012
-1.900060e-011
-2.707059e-011
-2.045561e-011
-4.328148e-012
1.004896e-011
1.644337e-011
1.721332e-011
1.532000e-011
7.881178e-012
-7.391345e-012
-2.183001e-011
-1.999599e-011
1.528871e-012
2.408455e-011
2.316287e-011
-3.646005e-012
-2.997905e-011
-2.675665e-011
5.689513e-012
3.548397e-011
3.129577e-011
-4.660686e-012
-3.765602e-011
-3.490018e-011
1.599477e-012
3.675922e-011
1.181542e-009
5.775595e-010
-7.803211e-011
-2.949615e-010
-1.378141e-010
-2.704199e-011
-1.426869e-010
-2.121849e-010
4.949006e-011
4.514380e-010
4.885225e-010
-8.041438e-013
-5.414890e-010
-5.412350e-010
-1.143787e-011
4.344824e-010
3.276646e-010
-1.079385e-010
-2.912300e-010
-3.547102e-011
2.663077e-010
2.111112e-010
-9.496351e-011
-2.360643e-010
-6.167501e-011
1.628106e-010
1.697918e-010
3.672785e-011
1.561171e-011
1.610027e-010
2.960767e-010
3.015312e-010
2.671164e-010
3.197963e-010
4.348906e-010
5.059527e-010
5.223498e-010
5.690223e-010
6.767527e-010
7.765750e-010
8.177578e-010
8.459122e-010
9.208609e-010
1.017203e-009
1.066162e-009
1.063713e-009
1.072138e-009
1.119893e-009
1.160461e-009
1.147906e-009
1.105377e-009
1.084655e-009
1.087236e-009
1.067307e-009
1.003740e-009
9.288846e-010
8.777267e-010
8.397641e-010
7.811872e-010
6.962511e-010
6.120186e-010
5.473864e-010
4.904935e-010
4.225784e-010
3.474781e-010
2.846956e-010
2.409621e-010
2.030446e-010
1.594704e-010
1.175238e-010
9.150533e-011
8.031109e-011
6.674435e-011
3.988123e-011
9.673598e-012
-6.341070e-012
-5.980999e-012
-3.458341e-012
-7.394891e-012
-7.542677e-012
9.076089e-012
3.356815e-011
3.832543e-011
9.271935e-012
-3.206743e-011
-4.733414e-011
-2.212419e-011
1.816269e-011
3.562095e-011
1.868092e-011
-9.965237e-012
-2.113508e-011
-8.782681e-012
8.977865e-012
1.291265e-011
1.780796e-012
-1.030921e-011
-1.067135e-011
8.367881e-014
1.063308e-011
3.799247e-009
1.903555e-009
-3.911879e-010
-1.451961e-009
-9.070403e-010
2.378724e-010
7.615965e-010
3.924450e-010
-1.851552e-010
-3.016642e-010
-3.093685e-011
1.065774e-010
-7.016945e-011
-2.042225e-010
1.086183e-011
3.381721e-010
3.117215e-010
-9.037096e-011
-3.793615e-010
-2.077472e-010
1.667056e-010
2.489104e-010
-1.751132e-011
-2.047695e-010
-1.685582e-011
3.171283e-010
3.953262e-010
1.993663e-010
7.678348e-011
2.331279e-010
4.813986e-010
5.562376e-010
4.859390e-010
5.056012e-010
7.023760e-010
9.235280e-010
1.027335e-009
1.067985e-009
1.172123e-009
1.341751e-009
1.475666e-009
1.533121e-009
1.575495e-009
1.651879e-009
1.728949e-009
1.759601e-009
1.758968e-009
1.770228e-009
1.792488e-009
1.789849e-009
1.755490e-009
1.721293e-009
1.703199e-009
1.675735e-009
1.614109e-009
1.532545e-009
1.459637e-009
1.394028e-009
1.309850e-009
1.198973e-009
1.082621e-009
9.778652e-010
8.742403e-010
7.555382e-010
6.301729e-010
5.224371e-010
4.388163e-010
3.611761e-010
2.770170e-010
2.011487e-010
1.560047e-010
1.388534e-010
1.234472e-010
9.392282e-011
6.266946e-011
4.747838e-011
4.211843e-011
2.402072e-011
-1.075073e-011
-3.563140e-011
-2.489522e-011
1.141780e-011
3.547613e-011
2.373486e-011
-8.661821e-012
-2.845525e-011
-2.102687e-011
5.991657e-014
1.474519e-011
1.688261e-011
1.154388e-011
2.157859e-012
-1.066132e-011
-2.050203e-011
-1.598928e-011
4.587079e-012
2.465758e-011
2.328264e-011
-9.946476e-013
-2.529649e-011
3.175833e-009
1.514516e-009
-5.306184e-010
-1.463195e-009
-8.122293e-010
5.212593e-010
1.161937e-009
5.756797e-010
-4.985928e-010
-9.303059e-010
-4.090182e-010
3.493119e-010
5.428869e-010
1.736845e-010
-1.451070e-010
-6.901742e-011
1.158307e-010
3.280515e-011
-2.089001e-010
-2.185349e-010
6.045337e-011
2.629215e-010
1.528403e-010
-2.952751e-011
6.413257e-011
3.722970e-010
5.259541e-010
3.999459e-010
2.888139e-010
4.680869e-010
8.077911e-010
9.884195e-010
9.639693e-010
9.924541e-010
1.234162e-009
1.532572e-009
1.665226e-009
1.652621e-009
1.685468e-009
1.829660e-009
1.956407e-009
1.956846e-009
1.890638e-009
1.872796e-009
1.907441e-009
1.911831e-009
1.856668e-009
1.799158e-009
1.785463e-009
1.791405e-009
1.777993e-009
1.754158e-009
1.752006e-009
1.770682e-009
1.780795e-009
1.770778e-009
1.755622e-009
1.741685e-009
1.711858e-009
1.652783e-009
1.574134e-009
1.488140e-009
1.386747e-009
1.256504e-009
1.106652e-009
9.626942e-010
8.333280e-010
7.025417e-010
5.603858e-010
4.255177e-010
3.242227e-010
2.565178e-010
1.995094e-010
1.422331e-010
9.949563e-011
8.434988e-011
8.100385e-011
5.996868e-011
1.586271e-011
-2.452972e-011
-3.466774e-011
-1.739254e-011
4.280999e-012
1.572419e-011
1.889207e-011
1.682139e-011
5.403730e-012
-1.385011e-011
-2.431527e-011
-1.055430e-011
1.746549e-011
2.878124e-011
6.516234e-012
-2.786666e-011
-3.493525e-011
-2.579512e-012
3.673938e-011
3.973253e-011
7.006356e-013
-4.035982e-011
-2.398221e-010
-1.461453e-010
-1.333956e-010
-2.020996e-010
-9.492763e-011
2.862590e-010
5.683606e-010
2.932504e-010
-3.996996e-010
-7.739690e-010
-3.463377e-010
4.537026e-010
7.400952e-010
2.335329e-010
-4.229455e-010
-4.967969e-010
-4.205427e-011
2.945639e-010
1.763320e-010
-6.762465e-011
-1.919121e-011
2.392258e-010
3.367343e-010
2.085714e-010
1.599454e-010
3.686638e-010
6.315161e-010
7.153755e-010
7.252323e-010
9.195587e-010
1.290017e-009
1.566984e-009
1.623428e-009
1.642946e-009
1.811888e-009
2.028199e-009
2.060901e-009
1.890365e-009
1.714363e-009
1.643363e-009
1.559819e-009
1.324573e-009
9.891911e-010
7.093102e-010
5.260314e-010
3.459112e-010
1.138024e-010
-1.010836e-010
-2.125569e-010
-2.299432e-010
-2.161803e-010
-1.834441e-010
-8.802342e-011
9.012833e-011
3.155162e-010
5.467841e-010
7.772198e-010
1.012043e-009
1.235250e-009
1.420309e-009
1.557201e-009
1.648437e-009
1.687892e-009
1.664349e-009
1.583615e-009
1.468429e-009
1.333214e-009
1.174304e-009
9.913142e-010
8.039980e-010
6.361198e-010
4.914106e-010
3.596341e-010
2.426824e-010
1.586870e-010
1.165864e-010
9.960198e-011
8.244047e-011
5.676844e-011
3.039289e-011
8.222670e-012
-1.173255e-011
-2.416973e-011
-1.493117e-011
1.641925e-011
4.244960e-011
3.191917e-011
-1.116110e-011
-4.509363e-011
-3.462963e-011
8.553773e-012
3.818729e-011
2.493772e-011
-1.260308e-011
-3.147807e-011
-1.297954e-011
1.895854e-011
2.733945e-011
3.788980e-012
-2.377423e-011
-3.734655e-009
-1.633037e-009
6.833360e-010
1.406891e-009
5.272681e-010
-5.194669e-010
-6.301522e-010
-7.031958e-011
2.537658e-010
7.523676e-011
-8.451871e-011
1.301276e-010
3.483261e-010
8.597996e-011
-4.415753e-010
-5.474951e-010
-3.351665e-011
5.059935e-010
4.784484e-010
5.973743e-011
-1.149493e-010
1.684695e-010
5.020818e-010
5.216115e-010
4.041962e-010
5.318180e-010
9.195967e-010
1.256089e-009
1.398447e-009
1.527818e-009
1.789504e-009
2.038610e-009
2.068845e-009
1.913335e-009
1.740366e-009
1.547732e-009
1.157104e-009
4.975917e-010
-2.851304e-010
-1.052139e-009
-1.858828e-009
-2.823011e-009
-3.901485e-009
-4.920980e-009
-5.793433e-009
-6.578864e-009
-7.324803e-009
-7.949174e-009
-8.333427e-009
-8.462131e-009
-8.402978e-009
-8.184502e-009
-7.764745e-009
-7.117878e-009
-6.292742e-009
-5.367305e-009
-4.385608e-009
-3.366049e-009
-2.345757e-009
-1.384162e-009
-5.291432e-010
1.974219e-010
7.829467e-010
1.214245e-009
1.489442e-009
1.625610e-009
1.647628e-009
1.577625e-009
1.438936e-009
1.259608e-009
1.063064e-009
8.606724e-010
6.606700e-010
4.790981e-010
3.330032e-010
2.261004e-010
1.511121e-010
1.046486e-010
8.719735e-011
8.567055e-011
7.112210e-011
2.757906e-011
-2.284034e-011
-3.945394e-011
-1.086234e-011
2.816753e-011
3.460355e-011
4.375875e-012
-2.727034e-011
-2.859644e-011
-3.687589e-012
1.918717e-011
2.107851e-011
7.029159e-012
-7.097777e-012
-1.230672e-011
-9.614924e-012
-3.182505e-012
3.819967e-012
8.521993e-012
-4.694251e-009
-1.874654e-009
1.241931e-009
2.118957e-009
6.037173e-010
-1.227248e-009
-1.438194e-009
-1.487307e-010
9.860194e-010
8.475445e-010
-5.011237e-011
-5.247816e-010
-2.505131e-010
1.056563e-010
2.812946e-011
-1.714675e-010
7.637640e-012
4.135189e-010
4.784974e-010
1.144945e-010
-1.186600e-010
1.877905e-010
7.314979e-010
9.775107e-010
9.183977e-010
1.010065e-009
1.458316e-009
1.940419e-009
2.097705e-009
1.991243e-009
1.880143e-009
1.752373e-009
1.328483e-009
4.536026e-010
-7.611384e-010
-2.206296e-009
-3.969993e-009
-6.170120e-009
-8.736959e-009
-1.149332e-008
-1.436791e-008
-1.738958e-008
-2.049884e-008
-2.349972e-008
-2.622243e-008
-2.862913e-008
-3.071054e-008
-3.235948e-008
-3.342298e-008
-3.384015e-008
-3.365498e-008
-3.290599e-008
-3.157445e-008
-2.965719e-008
-2.723768e-008
-2.445324e-008
-2.142219e-008
-1.823544e-008
-1.500079e-008
-1.185602e-008
-8.930415e-009
-6.310695e-009
-4.047212e-009
-2.174379e-009
-7.121317e-010
3.470443e-010
1.043541e-009
1.441410e-009
1.611396e-009
1.615198e-009
1.500222e-009
1.307927e-009
1.082192e-009
8.608407e-010
6.589141e-010
4.721022e-010
3.038946e-010
1.798059e-010
1.219155e-010
1.135379e-010
1.059502e-010
6.655209e-011
1.013021e-011
-2.509986e-011
-2.361412e-011
-3.835344e-012
1.049502e-011
1.396293e-011
1.186140e-011
4.501242e-012
-8.699444e-012
-1.720723e-011
-7.434564e-012
1.503065e-011
2.434308e-011
4.609799e-012
-2.559669e-011
-3.084979e-011
-1.543644e-012
3.150005e-011
-2.428523e-009
-8.709497e-010
8.769212e-010
1.323340e-009
2.556825e-010
-1.050370e-009
-1.149380e-009
2.194723e-011
1.099727e-009
8.866141e-010
-2.693679e-010
-9.774333e-010
-5.226081e-010
3.831752e-010
6.673656e-010
2.417518e-010
-1.168330e-010
3.984653e-011
3.344217e-010
3.214465e-010
2.097156e-010
4.807929e-010
1.096845e-009
1.549027e-009
1.622208e-009
1.666074e-009
1.986437e-009
2.321472e-009
2.170174e-009
1.413546e-009
2.940051e-010
-1.136621e-009
-3.223066e-009
-6.303632e-009
-1.035579e-008
-1.517821e-008
-2.074131e-008
-2.715930e-008
-3.439240e-008
-4.216914e-008
-5.020596e-008
-5.834695e-008
-6.644085e-008
-7.420799e-008
-8.132090e-008
-8.755241e-008
-9.276154e-008
-9.677546e-008
-9.938026e-008
-1.004336e-007
-9.991988e-008
-9.787919e-008
-9.434201e-008
-8.937009e-008
-8.312673e-008
-7.586469e-008
-6.785516e-008
-5.935842e-008
-5.065376e-008
-4.205487e-008
-3.386858e-008
-2.633960e-008
-1.963593e-008
-1.386984e-008
-9.111444e-009
-5.375175e-009
-2.601138e-009
-6.631250e-010
5.931725e-010
1.311939e-009
1.619836e-009
1.642345e-009
1.505221e-009
1.304398e-009
1.079653e-009
8.338002e-010
5.811499e-010
3.653221e-010
2.247471e-010
1.547959e-010
1.179799e-010
8.547586e-011
5.446043e-011
2.877876e-011
4.044987e-012
-1.896997e-011
-2.327361e-011
2.521839e-012
3.633550e-011
3.764622e-011
-2.712829e-012
-4.330718e-011
-3.722327e-011
9.892172e-012
4.350940e-011
2.489852e-011
-2.205726e-011
-4.017434e-011
-8.560122e-012
3.278920e-011
1.679151e-009
6.291302e-010
-3.726229e-010
-5.067046e-010
-9.701702e-011
1.039210e-010
6.554862e-012
6.787946e-011
3.345977e-010
2.739844e-010
-3.021095e-010
-7.252086e-010
-3.204953e-010
5.554277e-010
8.840629e-010
3.330701e-010
-3.134765e-010
-2.326222e-010
4.094263e-010
8.669474e-010
9.182330e-010
1.036070e-009
1.534000e-009
2.081375e-009
2.242456e-009
2.073741e-009
1.837133e-009
1.348387e-009
5.050143e-012
-2.594049e-009
-6.424687e-009
-1.149876e-008
-1.822119e-008
-2.707748e-008
-3.815130e-008
-5.117584e-008
-6.595367e-008
-8.246683e-008
-1.005614e-007
-1.197436e-007
-1.393832e-007
-1.589812e-007
-1.781300e-007
-1.963157e-007
-2.129127e-007
-2.273679e-007
-2.392873e-007
-2.483400e-007
-2.541830e-007
-2.565357e-007
-2.552799e-007
-2.504459e-007
-2.421410e-007
-2.305490e-007
-2.159927e-007
-1.989482e-007
-1.799837e-007
-1.597039e-007
-1.387501e-007
-1.178070e-007
-9.755582e-008
-7.859280e-008
-6.137867e-008
-4.624094e-008
-3.338906e-008
-2.290222e-008
-1.470512e-008
-8.580347e-009
-4.230049e-009
-1.341534e-009
3.912955e-010
1.277249e-009
1.614083e-009
1.638509e-009
1.492045e-009
1.246260e-009
9.563921e-010
6.801608e-010
4.552033e-010
2.866037e-010
1.691423e-010
1.059570e-010
9.093987e-011
8.794046e-011
5.541512e-011
-4.233466e-012
-4.183867e-011
-2.170567e-011
2.852498e-011
4.651326e-011
9.692143e-012
-3.828242e-011
-4.189344e-011
8.474871e-014
3.686503e-011
2.870134e-011
-8.634378e-012
-2.822089e-011
-1.014527e-011
1.771556e-011
5.221884e-009
1.777655e-009
-1.685114e-009
-2.167180e-009
-1.670394e-010
1.473771e-009
1.100096e-009
-2.742654e-010
-8.510282e-010
-3.415546e-010
1.983158e-010
1.551633e-010
9.356294e-012
2.409455e-010
4.866904e-010
2.373730e-010
-1.880818e-010
-1.862065e-011
8.198631e-010
1.571475e-009
1.722258e-009
1.642027e-009
1.894406e-009
2.330752e-009
2.268165e-009
1.304541e-009
-5.441516e-010
-3.491130e-009
-8.303858e-009
-1.582470e-008
-2.649141e-008
-4.055142e-008
-5.848778e-008
-8.088340e-008
-1.079086e-007
-1.392040e-007
-1.742660e-007
-2.126830e-007
-2.538921e-007
-2.969137e-007
-3.405175e-007
-3.835767e-007
-4.251262e-007
-4.641464e-007
-4.994919e-007
-5.300914e-007
-5.551218e-007
-5.739456e-007
-5.859815e-007
-5.907371e-007
-5.879464e-007
-5.776140e-007
-5.599463e-007
-5.353144e-007
-5.043093e-007
-4.677878e-007
-4.268292e-007
-3.826534e-007
-3.365798e-007
-2.900118e-007
-2.443731e-007
-2.009864e-007
-1.609630e-007
-1.251534e-007
-9.413635e-008
-6.819498e-008
-4.729065e-008
-3.108812e-008
-1.904938e-008
-1.054047e-008
-4.892396e-009
-1.428317e-009
4.905698e-010
1.396538e-009
1.678830e-009
1.607051e-009
1.370981e-009
1.089800e-009
8.112753e-010
5.461428e-010
3.198286e-010
1.765548e-010
1.280816e-010
1.234041e-010
9.469791e-011
2.874064e-011
-2.720532e-011
-3.094988e-011
3.168304e-012
2.700841e-011
1.689498e-011
-7.497462e-012
-1.671313e-011
-6.176965e-012
7.019120e-012
9.437404e-012
3.356767e-012
-2.197809e-012
-3.223004e-012
-2.090859e-012
6.082071e-009
2.000198e-009
-2.096334e-009
-2.572464e-009
1.005625e-011
2.064682e-009
1.348033e-009
-7.921894e-010
-1.615924e-009
-4.365917e-010
9.732102e-010
9.943972e-010
4.748596e-011
-4.418457e-010
-6.118817e-011
4.201376e-010
5.097610e-010
6.552023e-010
1.301485e-009
2.061733e-009
2.304556e-009
2.093492e-009
1.923664e-009
1.672073e-009
3.603925e-010
-3.027383e-009
-9.022326e-009
-1.817463e-008
-3.166242e-008
-5.102131e-008
-7.743885e-008
-1.116166e-007
-1.541623e-007
-2.056594e-007
-2.662041e-007
-3.351088e-007
-4.111788e-007
-4.930772e-007
-5.792613e-007
-6.677487e-007
-7.562399e-007
-8.425202e-007
-9.246331e-007
-1.000708e-006
-1.068844e-006
-1.127290e-006
-1.174658e-006
-1.209898e-006
-1.232123e-006
-1.240601e-006
-1.234900e-006
-1.214977e-006
-1.181122e-006
-1.133899e-006
-1.074212e-006
-1.003396e-006
-9.232103e-007
-8.357555e-007
-7.434075e-007
-6.487736e-007
-5.545991e-007
-4.635821e-007
-3.781653e-007
-3.003763e-007
-2.317235e-007
-1.731102e-007
-1.247807e-007
-8.635366e-008
-5.695800e-008
-3.540871e-008
-2.035652e-008
-1.040977e-008
-4.256606e-009
-7.703033e-010
9.494819e-010
1.596070e-009
1.676160e-009
1.505691e-009
1.229801e-009
9.042504e-010
5.847361e-010
3.417148e-010
2.081674e-010
1.506537e-010
1.108532e-010
6.308048e-011
1.951374e-011
-5.223055e-012
-1.241806e-011
-7.256433e-012
8.124147e-012
2.336840e-011
1.981219e-011
-5.584258e-012
-2.742183e-011
-1.908045e-011
1.089978e-011
2.585825e-011
7.467584e-012
-1.958512e-011
3.487412e-009
1.136942e-009
-1.233566e-009
-1.459175e-009
1.763121e-010
1.412428e-009
7.218537e-010
-9.246037e-010
-1.381355e-009
-7.670813e-011
1.322215e-009
1.136236e-009
-2.030822e-010
-8.859343e-010
-1.269139e-010
1.063240e-009
1.513754e-009
1.390360e-009
1.580323e-009
2.217497e-009
2.560476e-009
2.065764e-009
7.342746e-010
-1.800480e-009
-6.942283e-009
-1.657781e-008
-3.229625e-008
-5.559447e-008
-8.857404e-008
-1.338563e-007
-1.936987e-007
-2.694423e-007
-3.617347e-007
-4.707572e-007
-5.958790e-007
-7.352469e-007
-8.859782e-007
-1.044716e-006
-1.207889e-006
-1.371635e-006
-1.531923e-006
-1.684974e-006
-1.827557e-006
-1.956898e-006
-2.070509e-006
-2.166261e-006
-2.242554e-006
-2.298266e-006
-2.332530e-006
-2.344633e-006
-2.334121e-006
-2.300887e-006
-2.245124e-006
-2.167291e-006
-2.068211e-006
-1.949259e-006
-1.812470e-006
-1.660549e-006
-1.496874e-006
-1.325492e-006
-1.151019e-006
-9.783954e-007
-8.125216e-007
-6.578880e-007
-5.182265e-007
-3.962090e-007
-2.932427e-007
-2.094368e-007
-1.437567e-007
-9.430020e-008
-5.861764e-008
-3.403681e-008
-1.796387e-008
-8.100612e-009
-2.535148e-009
2.566298e-010
1.419917e-009
1.722900e-009
1.605929e-009
1.298921e-009
9.392953e-010
6.192337e-010
3.805443e-010
2.223480e-010
1.314853e-010
9.324876e-011
7.747053e-011
4.651613e-011
-4.681036e-012
-3.620276e-011
-1.457168e-011
3.329679e-011
4.470581e-011
8.666139e-013
-4.535265e-011
-3.622905e-011
1.555802e-011
4.343505e-011
1.373527e-011
-3.159666e-011
-1.489360e-009
-4.439206e-010
4.865847e-010
5.224792e-010
7.753951e-011
-1.551132e-010
-1.822233e-010
-2.912622e-010
-2.618874e-010
2.406561e-010
7.848541e-010
5.651368e-010
-2.746810e-010
-5.417331e-010
4.302181e-010
1.779743e-009
2.257245e-009
1.883469e-009
1.718933e-009
2.149358e-009
2.154491e-009
3.190049e-010
-4.273994e-009
-1.267235e-008
-2.712578e-008
-5.098520e-008
-8.778131e-008
-1.409471e-007
-2.142962e-007
-3.119747e-007
-4.373918e-007
-5.921818e-007
-7.760912e-007