# vtk DataFile Version 3.0
vtk output
ASCII
DATASET STRUCTURED_POINTS
DIMENSIONS 100 100 1
SPACING 1 1 1
ORIGIN 0 0 0
POINT_DATA 10000
SCALARS SFBox_profile double
LOOKUP_TABLE default 
9.439926e-003
9.439927e-003
9.439929e-003
9.439932e-003
9.439936e-003
9.439942e-003
9.439949e-003
9.439959e-003
9.439970e-003
9.439981e-003
9.439990e-003
9.439990e-003
9.439973e-003
9.439927e-003
9.439835e-003
9.439674e-003
9.439419e-003
9.439037e-003
9.438494e-003
9.437754e-003
9.436785e-003
9.435557e-003
9.434050e-003
9.432252e-003
9.430164e-003
9.427799e-003
9.425179e-003
9.422335e-003
9.419307e-003
9.416136e-003
9.412866e-003
9.409540e-003
9.406196e-003
9.402870e-003
9.399590e-003
9.396381e-003
9.393262e-003
9.390244e-003
9.387336e-003
9.384541e-003
9.381860e-003
9.379289e-003
9.376822e-003
9.374454e-003
9.372178e-003
9.369988e-003
9.367882e-003
9.365858e-003
9.363919e-003
9.362072e-003
9.360327e-003
9.358701e-003
9.357216e-003
9.355896e-003
9.354773e-003
9.353882e-003
9.353260e-003
9.352949e-003
9.352990e-003
9.353427e-003
9.354301e-003
9.355650e-003
9.357507e-003
9.359897e-003
9.362834e-003
9.366318e-003
9.370334e-003
9.374846e-003
9.379797e-003
9.385110e-003
9.390683e-003
9.396399e-003
9.402125e-003
9.407726e-003
9.413066e-003
9.418024e-003
9.422502e-003
9.426428e-003
9.429766e-003
9.432515e-003
9.434702e-003
9.436381e-003
9.437623e-003
9.438505e-003
9.439105e-003
9.439493e-003
9.439730e-003
9.439864e-003
9.439932e-003
9.439960e-003
9.439965e-003
9.439961e-003
9.439952e-003
9.439943e-003
9.439936e-003
9.439931e-003
9.439927e-003
9.439924e-003
9.439923e-003
9.439922e-003
9.439926e-003
9.439927e-003
9.439929e-003
9.439932e-003
9.439936e-003
9.439942e-003
9.439949e-003
9.439959e-003
9.439970e-003
9.439981e-003
9.439990e-003
9.439990e-003
9.439973e-003
9.439927e-003
9.439835e-003
9.439674e-003
9.439419e-003
9.439037e-003
9.438494e-003
9.437754e-003
9.436785e-003
9.435557e-003
9.434050e-003
9.432252e-003
9.430164e-003
9.427799e-003
9.425179e-003
9.422335e-003
9.419307e-003
9.416136e-003
9.412866e-003
9.409540e-003
9.406196e-003
9.402870e-003
9.399590e-003
9.396381e-003
9.393262e-003
9.390244e-003
9.387336e-003
9.384541e-003
9.381860e-003
9.379289e-003
9.376822e-003
9.374454e-003
9.372178e-003
9.369988e-003
9.367882e-003
9.365858e-003
9.363919e-003
9.362072e-003
9.360327e-003
9.358701e-003
9.357216e-003
9.355896e-003
9.354773e-003
9.353882e-003
9.353260e-003
9.352949e-003
9.352990e-003
9.353427e-003
9.354301e-003
9.355650e-003
9.357507e-003
9.359897e-003
9.362834e-003
9.366318e-003
9.370334e-003
9.374846e-003
9.379797e-003
9.385110e-003
9.390683e-003
9.396399e-003
9.402125e-003
9.407726e-003
9.413066e-003
9.418024e-003
9.422502e-003
9.426428e-003
9.429766e-003
9.432515e-003
9.434702e-003
9.436381e-003
9.437623e-003
9.438505e-003
9.439105e-003
9.439493e-003
9.439730e-003
9.439864e-003
9.439932e-003
9.439960e-003
9.439965e-003
9.439961e-003
9.439952e-003
9.439943e-003
9.439936e-003
9.439931e-003
9.439927e-003
9.439924e-003
9.439923e-003
9.439922e-003
9.439927e-003
9.439928e-003
9.439931e-003
9.439934e-003
9.439940e-003
9.439946e-003
9.439954e-003
9.439964e-003
9.439972e-003
9.439977e-003
9.439972e-003
9.439947e-003
9.439888e-003
9.439772e-003
9.439573e-003
9.439253e-003
9.438770e-003
9.438074e-003
9.437113e-003
9.435835e-003
9.434194e-003
9.432152e-003
9.429688e-003
9.426798e-003
9.423494e-003
9.419809e-003
9.415789e-003
9.411495e-003
9.406991e-003
9.402346e-003
9.397627e-003
9.392896e-003
9.388207e-003
9.383607e-003
9.379131e-003
9.374809e-003
9.370658e-003
9.366689e-003
9.362907e-003
9.359312e-003
9.355897e-003
9.352654e-003
9.349573e-003
9.346643e-003
9.343855e-003
9.341199e-003
9.338671e-003
9.336267e-003
9.333990e-003
9.331846e-003
9.329847e-003
9.328009e-003
9.326355e-003
9.324911e-003
9.323708e-003
9.322783e-003
9.322174e-003
9.321923e-003
9.322074e-003
9.322673e-003
9.323767e-003
9.325401e-003
9.327617e-003
9.330455e-003
9.333944e-003
9.338106e-003
9.342945e-003
9.348447e-003
9.354575e-003
9.361264e-003
9.368417e-003
9.375907e-003
9.383576e-003
9.391246e-003
9.398726e-003
9.405826e-003
9.412376e-003
9.418240e-003
9.423326e-003
9.427593e-003
9.431053e-003
9.433760e-003
9.435801e-003
9.437282e-003
9.438313e-003
9.439000e-003
9.439437e-003
9.439698e-003
9.439843e-003
9.439916e-003
9.439946e-003
9.439954e-003
9.439951e-003
9.439945e-003
9.439939e-003
9.439933e-003
9.439929e-003
9.439926e-003
9.439923e-003
9.439922e-003
9.439930e-003
9.439931e-003
9.439935e-003
9.439940e-003
9.439947e-003
9.439955e-003
9.439963e-003
9.439970e-003
9.439970e-003
9.439955e-003
9.439912e-003
9.439819e-003
9.439646e-003
9.439350e-003
9.438873e-003
9.438147e-003
9.437088e-003
9.435607e-003
9.433610e-003
9.431014e-003
9.427748e-003
9.423768e-003
9.419064e-003
9.413662e-003
9.407625e-003
9.401047e-003
9.394046e-003
9.386754e-003
9.379304e-003
9.371827e-003
9.364438e-003
9.357235e-003
9.350298e-003
9.343684e-003
9.337433e-003
9.331567e-003
9.326091e-003
9.321001e-003
9.316284e-003
9.311919e-003
9.307884e-003
9.304154e-003
9.300707e-003
9.297521e-003
9.294580e-003
9.291869e-003
9.289380e-003
9.287106e-003
9.285048e-003
9.283206e-003
9.281586e-003
9.280196e-003
9.279046e-003
9.278147e-003
9.277510e-003
9.277147e-003
9.277073e-003
9.277302e-003
9.277853e-003
9.278749e-003
9.280020e-003
9.281705e-003
9.283855e-003
9.286532e-003
9.289810e-003
9.293774e-003
9.298512e-003
9.304114e-003
9.310651e-003
9.318168e-003
9.326665e-003
9.336078e-003
9.346270e-003
9.357025e-003
9.368059e-003
9.379037e-003
9.389606e-003
9.399440e-003
9.408266e-003
9.415902e-003
9.422265e-003
9.427369e-003
9.431308e-003
9.434232e-003
9.436316e-003
9.437742e-003
9.438676e-003
9.439259e-003
9.439603e-003
9.439793e-003
9.439889e-003
9.439931e-003
9.439946e-003
9.439946e-003
9.439942e-003
9.439937e-003
9.439932e-003
9.439928e-003
9.439925e-003
9.439924e-003
9.439935e-003
9.439937e-003
9.439942e-003
9.439949e-003
9.439957e-003
9.439966e-003
9.439971e-003
9.439968e-003
9.439944e-003
9.439880e-003
9.439748e-003
9.439502e-003
9.439077e-003
9.438386e-003
9.437316e-003
9.435731e-003
9.433475e-003
9.430384e-003
9.426305e-003
9.421108e-003
9.414715e-003
9.407116e-003
9.398378e-003
9.388650e-003
9.378150e-003
9.367148e-003
9.355940e-003
9.344820e-003
9.334059e-003
9.323886e-003
9.314478e-003
9.305958e-003
9.298400e-003
9.291829e-003
9.286232e-003
9.281566e-003
9.277767e-003
9.274755e-003
9.272448e-003
9.270763e-003
9.269627e-003
9.268977e-003
9.268764e-003
9.268952e-003
9.269517e-003
9.270445e-003
9.271724e-003
9.273347e-003
9.275303e-003
9.277572e-003
9.280124e-003
9.282917e-003
9.285888e-003
9.288957e-003
9.292026e-003
9.294978e-003
9.297685e-003
9.300008e-003
9.301812e-003
9.302972e-003
9.303389e-003
9.303006e-003
9.301821e-003
9.299906e-003
9.297419e-003
9.294616e-003
9.291847e-003
9.289553e-003
9.288236e-003
9.288419e-003
9.290588e-003
9.295122e-003
9.302224e-003
9.311863e-003
9.323750e-003
9.337354e-003
9.351962e-003
9.366773e-003
9.381013e-003
9.394031e-003
9.405372e-003
9.414804e-003
9.422305e-003
9.428016e-003
9.432182e-003
9.435096e-003
9.437048e-003
9.438299e-003
9.439064e-003
9.439506e-003
9.439748e-003
9.439869e-003
9.439923e-003
9.439942e-003
9.439945e-003
9.439941e-003
9.439936e-003
9.439932e-003
9.439928e-003
9.439926e-003
9.439943e-003
9.439946e-003
9.439952e-003
9.439961e-003
9.439969e-003
9.439975e-003
9.439969e-003
9.439937e-003
9.439855e-003
9.439683e-003
9.439358e-003
9.438788e-003
9.437844e-003
9.436354e-003
9.434101e-003
9.430833e-003
9.426276e-003
9.420165e-003
9.412284e-003
9.402516e-003
9.390890e-003
9.377611e-003
9.363075e-003
9.347844e-003
9.332603e-003
9.318084e-003
9.304999e-003
9.293964e-003
9.285460e-003
9.279800e-003
9.277134e-003
9.277462e-003
9.280661e-003
9.286517e-003
9.294748e-003
9.305038e-003
9.317052e-003
9.330466e-003
9.344978e-003
9.360334e-003
9.376330e-003
9.392820e-003
9.409716e-003
9.426976e-003
9.444593e-003
9.462582e-003
9.480956e-003
9.499716e-003
9.518825e-003
9.538197e-003
9.557682e-003
9.577051e-003
9.595994e-003
9.614111e-003
9.630914e-003
9.645838e-003
9.658250e-003
9.667472e-003
9.672812e-003
9.673599e-003
9.669231e-003
9.659230e-003
9.643301e-003
9.621393e-003
9.593766e-003
9.561046e-003
9.524255e-003
9.484825e-003
9.444558e-003
9.405529e-003
9.369927e-003
9.339835e-003
9.316980e-003
9.302487e-003
9.296703e-003
9.299129e-003
9.308496e-003
9.322975e-003
9.340474e-003
9.358960e-003
9.376733e-003
9.392589e-003
9.405865e-003
9.416371e-003
9.424272e-003
9.429936e-003
9.433815e-003
9.436355e-003
9.437945e-003
9.438894e-003
9.439432e-003
9.439718e-003
9.439858e-003
9.439920e-003
9.439941e-003
9.439945e-003
9.439941e-003
9.439936e-003
9.439932e-003
9.439930e-003
9.439957e-003
9.439960e-003
9.439967e-003
9.439975e-003
9.439979e-003
9.439972e-003
9.439934e-003
9.439838e-003
9.439630e-003
9.439229e-003
9.438512e-003
9.437298e-003
9.435339e-003
9.432314e-003
9.427834e-003
9.421469e-003
9.412797e-003
9.401490e-003
9.387422e-003
9.370787e-003
9.352193e-003
9.332714e-003
9.313855e-003
9.297433e-003
9.285392e-003
9.279583e-003
9.281565e-003
9.292447e-003
9.312816e-003
9.342734e-003
9.381803e-003
9.429265e-003
9.484117e-003
9.545214e-003
9.611353e-003
9.681343e-003
9.754060e-003
9.828493e-003
9.903785e-003
9.979261e-003
1.005444e-002
1.012905e-002
1.020298e-002
1.027626e-002
1.034901e-002
1.042140e-002
1.049356e-002
1.056556e-002
1.063732e-002
1.070858e-002
1.077887e-002
1.084745e-002
1.091333e-002
1.097523e-002
1.103157e-002
1.108056e-002
1.112017e-002
1.114820e-002
1.116242e-002
1.116056e-002
1.114055e-002
1.110057e-002
1.103929e-002
1.095603e-002
1.085092e-002
1.072518e-002
1.058120e-002
1.042270e-002
1.025469e-002
1.008335e-002
9.915637e-003
9.758757e-003
9.619411e-003
9.503022e-003
9.413026e-003
9.350426e-003
9.313716e-003
9.299232e-003
9.301856e-003
9.315920e-003
9.336083e-003
9.357988e-003
9.378595e-003
9.396179e-003
9.410099e-003
9.420452e-003
9.427745e-003
9.432633e-003
9.435760e-003
9.437668e-003
9.438778e-003
9.439389e-003
9.439706e-003
9.439857e-003
9.439921e-003
9.439942e-003
9.439945e-003
9.439941e-003
9.439937e-003
9.439934e-003
9.439975e-003
9.439978e-003
9.439984e-003
9.439987e-003
9.439977e-003
9.439936e-003
9.439829e-003
9.439594e-003
9.439131e-003
9.438281e-003
9.436808e-003
9.434376e-003
9.430533e-003
9.424718e-003
9.416292e-003
9.404632e-003
9.389287e-003
9.370211e-003
9.348054e-003
9.324428e-003
9.302093e-003
9.284936e-003
9.277721e-003
9.285615e-003
9.313573e-003
9.365734e-003
9.444933e-003
9.552436e-003
9.687912e-003
9.849617e-003
1.003472e-002
1.023970e-002
1.046069e-002
1.069377e-002
1.093519e-002
1.118151e-002
1.142967e-002
1.167713e-002
1.192182e-002
1.216230e-002
1.239766e-002
1.262752e-002
1.285198e-002
1.307147e-002
1.328659e-002
1.349804e-002
1.370636e-002
1.391188e-002
1.411450e-002
1.431363e-002
1.450811e-002
1.469606e-002
1.487492e-002
1.504143e-002
1.519158e-002
1.532075e-002
1.542374e-002
1.549493e-002
1.552843e-002
1.551829e-002
1.545879e-002
1.534475e-002
1.517189e-002
1.493732e-002
1.464003e-002
1.428138e-002
1.386571e-002
1.340072e-002
1.289779e-002
1.237187e-002
1.184092e-002
1.132481e-002
1.084353e-002
1.041515e-002
1.005360e-002
9.766931e-003
9.556362e-003
9.416477e-003
9.336540e-003
9.302650e-003
9.300202e-003
9.316041e-003
9.339865e-003
9.364707e-003
9.386656e-003
9.404119e-003
9.416980e-003
9.425877e-003
9.431709e-003
9.435346e-003
9.437508e-003
9.438730e-003
9.439385e-003
9.439713e-003
9.439864e-003
9.439924e-003
9.439943e-003
9.439945e-003
9.439942e-003
9.439940e-003
9.439998e-003
9.440000e-003
9.440000e-003
9.439988e-003
9.439945e-003
9.439833e-003
9.439582e-003
9.439077e-003
9.438126e-003
9.436438e-003
9.433580e-003
9.428957e-003
9.421802e-003
9.411223e-003
9.396345e-003
9.376600e-003
9.352196e-003
9.324756e-003
9.298031e-003
9.278469e-003
9.275383e-003
9.300516e-003
9.366950e-003
9.487522e-003
9.673103e-003
9.931134e-003
1.026472e-002
1.067243e-002
1.114877e-002
1.168508e-002
1.227073e-002
1.289425e-002
1.354426e-002
1.421014e-002
1.488242e-002
1.555298e-002
1.621509e-002
1.686346e-002
1.749428e-002
1.810513e-002
1.869496e-002
1.926392e-002
1.981309e-002
2.034425e-002
2.085950e-002
2.136096e-002
2.185035e-002
2.232876e-002
2.279633e-002
2.325201e-002
2.369345e-002
2.411680e-002
2.451671e-002
2.488631e-002
2.521722e-002
2.549972e-002
2.572287e-002
2.587475e-002
2.594270e-002
2.591373e-002
2.577493e-002
2.551402e-002
2.512005e-002
2.458419e-002
2.390080e-002
2.306859e-002
2.209200e-002
2.098257e-002
1.976017e-002
1.845372e-002
1.710097e-002
1.574696e-002
1.444089e-002
1.323151e-002
1.216167e-002
1.126286e-002
1.055108e-002
1.002516e-002
9.668115e-003
9.451242e-003
9.340028e-003
9.300171e-003
9.302284e-003
9.324409e-003
9.352325e-003
9.378290e-003
9.399112e-003
9.414287e-003
9.424584e-003
9.431173e-003
9.435176e-003
9.437488e-003
9.438758e-003
9.439416e-003
9.439735e-003
9.439875e-003
9.439930e-003
9.439946e-003
9.439948e-003
9.439948e-003
9.440023e-003
9.440020e-003
9.440006e-003
9.439962e-003
9.439850e-003
9.439597e-003
9.439074e-003
9.438068e-003
9.436236e-003
9.433057e-003
9.427787e-003
9.419435e-003
9.406818e-003
9.388767e-003
9.364602e-003
9.334994e-003
9.303281e-003
9.277101e-003
9.269964e-003
9.302128e-003
9.400122e-003
9.594553e-003
9.916381e-003
1.039246e-002
1.104138e-002
1.187072e-002
1.287614e-002
1.404242e-002
1.534596e-002
1.675796e-002
1.824773e-002
1.978542e-002
2.134394e-002
2.290003e-002
2.443462e-002
2.593268e-002
2.738298e-002
2.877771e-002
3.011226e-002
3.138486e-002
3.259628e-002
3.374937e-002
3.484857e-002
3.589925e-002
3.690711e-002
3.787748e-002
3.881481e-002
3.972205e-002
4.060027e-002
4.144833e-002
4.226261e-002
4.303691e-002
4.376238e-002
4.442758e-002
4.501858e-002
4.551914e-002
4.591089e-002
4.617364e-002
4.628568e-002
4.622412e-002
4.596538e-002
4.548576e-002
4.476226e-002
4.377365e-002
4.250197e-002
4.093458e-002
3.906674e-002
3.690483e-002
3.446991e-002
3.180114e-002
2.895806e-002
2.602085e-002
2.308719e-002
2.026523e-002
1.766255e-002
1.537288e-002
1.346290e-002
1.196275e-002
1.086303e-002
1.011958e-002
9.664801e-003
9.422012e-003
9.318871e-003
9.296472e-003
9.312982e-003
9.342625e-003
9.371989e-003
9.395690e-003
9.412734e-003
9.424049e-003
9.431105e-003
9.435273e-003
9.437610e-003
9.438853e-003
9.439477e-003
9.439768e-003
9.439892e-003
9.439938e-003
9.439953e-003
9.439955e-003
9.440044e-003
9.440030e-003
9.439988e-003
9.439881e-003
9.439637e-003
9.439125e-003
9.438115e-003
9.436230e-003
9.432878e-003
9.427180e-003
9.417925e-003
9.403620e-003
9.382753e-003
9.354504e-003
9.320169e-003
9.285554e-003
9.264332e-003
9.281751e-003
9.377460e-003
9.605735e-003
1.003176e-002
1.072372e-002
1.174222e-002
1.312953e-002
1.490176e-002
1.704590e-002
1.952213e-002
2.227033e-002
2.521871e-002
2.829252e-002
3.142124e-002
3.454346e-002
3.760931e-002
4.058085e-002
4.343106e-002
4.614225e-002
4.870439e-002
5.111365e-002
5.337126e-002
5.548254e-002
5.745605e-002
5.930268e-002
6.103478e-002
6.266516e-002
6.420621e-002
6.566902e-002
6.706267e-002
6.839362e-002
6.966527e-002
7.087768e-002
7.202740e-002
7.310751e-002
7.410762e-002
7.501410e-002
7.581022e-002
7.647637e-002
7.699021e-002
7.732679e-002
7.745861e-002
7.735563e-002
7.698521e-002
7.631216e-002
7.529890e-002
7.390595e-002
7.209300e-002
6.982085e-002
6.705481e-002
6.376958e-002
5.995623e-002
5.563077e-002
5.084345e-002
4.568706e-002
4.030127e-002
3.486964e-002
2.960658e-002
2.473356e-002
2.044755e-002
1.688910e-002
1.411948e-002
1.211470e-002
1.077887e-002
9.971921e-003
9.541963e-003
9.352356e-003
9.297378e-003
9.305877e-003
9.336370e-003
9.368433e-003
9.394286e-003
9.412536e-003
9.424350e-003
9.431513e-003
9.435619e-003
9.437852e-003
9.439002e-003
9.439559e-003
9.439810e-003
9.439914e-003
9.439951e-003
9.439962e-003
9.440052e-003
9.440018e-003
9.439922e-003
9.439699e-003
9.439221e-003
9.438258e-003
9.436418e-003
9.433064e-003
9.427216e-003
9.417475e-003
9.402042e-003
9.379023e-003
9.347363e-003
9.308933e-003
9.272426e-003
9.259390e-003
9.311840e-003
9.499346e-003
9.921990e-003
1.070536e-002
1.198560e-002
1.388622e-002
1.649256e-002
1.983154e-002
2.386325e-002
2.848658e-002
3.355633e-002
3.890603e-002
4.437011e-002
4.980103e-002
5.507947e-002
6.011779e-002
6.485854e-002
6.926995e-002
7.334024e-002
7.707216e-002
8.047843e-002
8.357821e-002
8.639467e-002
8.895317e-002
9.127998e-002
9.340119e-002
9.534180e-002
9.712495e-002
9.877124e-002
1.002982e-001
1.017200e-001
1.030473e-001
1.042868e-001
1.054419e-001
1.065126e-001
1.074957e-001
1.083852e-001
1.091728e-001
1.098476e-001
1.103966e-001
1.108045e-001
1.110536e-001
1.111230e-001
1.109882e-001
1.106199e-001
1.099829e-001
1.090346e-001
1.077235e-001
1.059883e-001
1.037567e-001
1.009464e-001
9.746856e-002
9.323394e-002
8.816502e-002
8.221360e-002
7.538399e-002
6.775915e-002
5.952277e-002
5.096755e-002
4.247854e-002
3.448617e-002
2.739437e-002
2.150291e-002
1.695096e-002
1.370302e-002
1.158135e-002
1.032859e-002
9.675177e-003
9.389423e-003
9.301250e-003
9.302530e-003
9.333912e-003
9.367990e-003
9.395077e-003
9.413717e-003
9.425439e-003
9.432332e-003
9.436162e-003
9.438179e-003
9.439183e-003
9.439653e-003
9.439857e-003
9.439938e-003
9.439964e-003
9.440032e-003
9.439961e-003
9.439770e-003
9.439346e-003
9.438474e-003
9.436768e-003
9.433580e-003
9.427879e-003
9.418135e-003
9.402286e-003
9.378036e-003
9.343930e-003
9.302070e-003
9.263691e-003
9.258730e-003
9.349389e-003
9.644945e-003
1.031146e-002
1.156759e-002
1.365942e-002
1.681437e-002
2.118468e-002
2.679931e-002
3.354284e-002
4.117032e-002
4.935236e-002
5.773369e-002
6.598688e-002
7.384875e-002
8.113606e-002
8.774368e-002
9.363188e-002
9.880938e-002
1.033169e-001
1.072134e-001
1.105662e-001
1.134440e-001
1.159120e-001
1.180303e-001
1.198520e-001
1.214234e-001
1.227843e-001
1.239680e-001
1.250021e-001
1.259094e-001
1.267082e-001
1.274130e-001
1.280349e-001
1.285827e-001
1.290627e-001
1.294799e-001
1.298375e-001
1.301381e-001
1.303832e-001
1.305736e-001
1.307090e-001
1.307882e-001
1.308081e-001
1.307637e-001
1.306470e-001
1.304460e-001
1.301429e-001
1.297125e-001
1.291188e-001
1.283120e-001
1.272230e-001
1.257587e-001
1.237957e-001
1.211761e-001
1.177066e-001
1.131673e-001
1.073348e-001
1.000274e-001
9.117200e-002
8.088050e-002
6.950829e-002
5.765826e-002
4.610371e-002
3.563420e-002
2.687234e-002
2.013606e-002
1.540366e-002
1.238565e-002
1.065662e-002
9.784618e-003
9.415613e-003
9.303817e-003
9.302240e-003
9.335337e-003
9.370698e-003
9.397956e-003
9.416109e-003
9.427156e-003
9.433445e-003
9.436826e-003
9.438547e-003
9.439375e-003
9.439748e-003
9.439903e-003
9.439956e-003
9.439960e-003
9.439825e-003
9.439477e-003
9.438727e-003
9.437222e-003
9.434341e-003
9.429060e-003
9.419792e-003
9.404299e-003
9.379905e-003
9.344580e-003
9.300046e-003
9.258804e-003
9.257487e-003
9.377952e-003
9.773746e-003
1.069271e-002
1.247914e-002
1.553731e-002
2.024830e-002
2.685519e-002
3.535688e-002
4.545986e-002
5.661738e-002
6.814444e-002
7.936207e-002
8.971784e-002
9.885054e-002
1.065967e-001
1.129561e-001
1.180390e-001
1.220137e-001
1.250673e-001
1.273802e-001
1.291133e-001
1.304026e-001
1.313579e-001
1.320652e-001
1.325896e-001
1.329791e-001
1.332688e-001
1.334838e-001
1.336426e-001
1.337582e-001
1.338407e-001
1.338974e-001
1.339344e-001
1.339564e-001
1.339676e-001
1.339713e-001
1.339705e-001
1.339678e-001
1.339649e-001
1.339633e-001
1.339636e-001
1.339660e-001
1.339700e-001
1.339741e-001
1.339765e-001
1.339743e-001
1.339633e-001
1.339381e-001
1.338913e-001
1.338123e-001
1.336865e-001
1.334928e-001
1.331996e-001
1.327585e-001
1.320932e-001
1.310811e-001
1.295265e-001
1.271295e-001
1.234678e-001
1.180256e-001
1.103038e-001
1.000160e-001
8.731143e-002
7.290798e-002
5.802018e-002
4.405754e-002
3.221302e-002
2.314300e-002
1.688514e-002
1.300813e-002
1.086813e-002
9.835222e-003
9.419990e-003
9.302824e-003
9.304860e-003
9.340573e-003
9.376267e-003
9.402552e-003
9.419385e-003
9.429267e-003
9.434702e-003
9.437526e-003
9.438914e-003
9.439557e-003
9.439832e-003
9.439930e-003
9.439803e-003
9.439568e-003
9.438970e-003
9.437712e-003
9.435236e-003
9.430582e-003
9.422197e-003
9.407782e-003
9.384372e-003
9.349266e-003
9.303123e-003
9.257767e-003
9.252554e-003
9.383102e-003
9.842219e-003
1.096254e-002
1.323506e-002
1.726635e-002
2.364547e-002
3.273189e-002
4.443868e-002
5.812798e-002
7.270585e-002
8.689963e-002
9.959393e-002
1.100770e-001
1.181164e-001
1.238784e-001
1.277669e-001
1.302606e-001
1.317973e-001
1.327194e-001
1.332678e-001
1.335994e-001
1.338098e-001
1.339527e-001
1.340546e-001
1.341261e-001
1.341696e-001
1.341852e-001
1.341726e-001
1.341331e-001
1.340691e-001
1.339838e-001
1.338807e-001
1.337632e-001
1.336344e-001
1.334972e-001
1.333543e-001
1.332082e-001
1.330617e-001
1.329184e-001
1.327822e-001
1.326584e-001
1.325533e-001
1.324742e-001
1.324299e-001
1.324296e-001
1.324832e-001
1.325999e-001
1.327874e-001
1.330504e-001
1.333883e-001
1.337926e-001
1.342430e-001
1.347038e-001
1.351200e-001
1.354166e-001
1.355043e-001
1.352954e-001
1.347259e-001
1.337637e-001
1.323617e-001
1.303280e-001
1.271518e-001
1.219309e-001
1.135950e-001
1.014757e-001
8.592392e-002
6.847595e-002
5.135379e-002
3.659742e-002
2.537360e-002
1.780912e-002
1.328677e-002
1.090067e-002
9.809826e-003
9.400802e-003
9.299413e-003
9.310911e-003
9.349336e-003
9.384098e-003
9.408294e-003
9.423129e-003
9.431512e-003
9.435959e-003
9.438188e-003
9.439242e-003
9.439705e-003
9.439874e-003
9.439519e-003
9.439130e-003
9.438155e-003
9.436139e-003
9.432237e-003
9.425020e-003
9.412255e-003
9.390850e-003
9.357485e-003
9.311288e-003
9.261441e-003
9.244806e-003
9.360258e-003
9.823808e-003
1.103652e-002
1.363268e-002
1.844672e-002
2.632993e-002
3.780117e-002
5.264133e-002
6.967306e-002
8.695901e-002
1.024216e-001
1.145779e-001
1.229755e-001
1.281146e-001
1.309844e-001
1.325564e-001
1.334961e-001
1.341246e-001
1.345253e-001
1.346821e-001
1.345733e-001
1.342072e-001
1.336185e-001
1.328537e-001
1.319590e-001
1.309750e-001
1.299352e-001
1.288656e-001
1.277864e-001
1.267118e-001
1.256516e-001
1.246115e-001
1.235944e-001
1.226015e-001
1.216329e-001
1.206890e-001
1.197711e-001
1.188820e-001
1.180268e-001
1.172130e-001
1.164511e-001
1.157545e-001
1.151396e-001
1.146258e-001
1.142357e-001
1.139945e-001
1.139301e-001
1.140728e-001
1.144545e-001
1.151088e-001
1.160687e-001
1.173651e-001
1.190221e-001
1.210503e-001
1.234361e-001
1.261250e-001
1.290004e-001
1.318602e-001
1.344010e-001
1.362324e-001
1.369566e-001
1.363373e-001
1.344703e-001
1.316520e-001
1.277197e-001
1.214181e-001
1.108938e-001
9.533308e-002
7.614288e-002
5.640801e-002
3.922293e-002
2.634835e-002
1.794837e-002
1.314513e-002
1.074467e-002
9.717442e-003
9.366380e-003
9.297387e-003
9.321048e-003
9.360990e-003
9.393341e-003
9.414519e-003
9.426921e-003
9.433656e-003
9.437098e-003
9.438756e-003
9.439497e-003
9.439774e-003
9.439054e-003
9.438440e-003
9.436921e-003
9.433822e-003
9.427912e-003
9.417156e-003
9.398528e-003
9.368309e-003
9.324038e-003
9.270980e-003
9.238802e-003
9.317573e-003
9.722628e-003
1.088742e-002
1.355295e-002
1.877140e-002
2.769999e-002
4.110044e-002
5.865567e-002
7.852036e-002
9.765093e-002
1.130555e-001
1.232752e-001
1.289367e-001
1.318683e-001
1.336410e-001
1.348298e-001
1.352951e-001
1.347970e-001
1.333098e-001
1.310060e-001
1.281373e-001
1.249470e-001
1.216307e-001
1.183281e-001
1.151302e-001
1.120903e-001
1.092354e-001
1.065749e-001
1.041070e-001
1.018222e-001
9.970680e-002
9.774437e-002
9.591774e-002
9.421019e-002
9.260652e-002
9.109395e-002
8.966272e-002
8.830653e-002
8.702281e-002
8.581282e-002
8.468163e-002
8.363807e-002
8.269456e-002
8.186703e-002
8.117482e-002
8.064074e-002
8.029122e-002
8.015666e-002
8.027202e-002
8.067764e-002
8.142027e-002
8.255433e-002
8.414305e-002
8.625927e-002
8.898481e-002
9.240700e-002
9.660973e-002
1.016546e-001
1.075465e-001
1.141767e-001
1.212390e-001
1.281341e-001
1.339201e-001
1.374530e-001
1.378909e-001
1.354289e-001
1.312294e-001
1.255513e-001
1.162432e-001
1.009164e-001
8.036547e-002
5.852692e-002
3.961131e-002
2.585334e-002
1.726928e-002
1.262364e-002
1.044761e-002
9.588755e-003
9.330694e-003
9.300876e-003
9.335292e-003
9.374485e-003
9.403025e-003
9.420590e-003
9.430408e-003
9.435527e-003
9.438037e-003
9.439180e-003
9.439612e-003
9.438347e-003
9.437420e-003
9.435146e-003
9.430562e-003
9.421941e-003
9.406524e-003
9.380510e-003
9.340213e-003
9.286800e-003
9.240101e-003
9.271756e-003
9.571963e-003
1.055920e-002
1.301316e-002
1.814400e-002
2.742234e-002
4.197540e-002
6.157504e-002
8.378119e-002
1.043016e-001
1.191764e-001
1.274790e-001
1.315681e-001
1.341168e-001
1.356502e-001
1.352850e-001
1.325019e-001
1.276443e-001
1.214858e-001
1.147850e-001
1.080949e-001
1.017493e-001
9.591454e-002
9.064887e-002
8.594775e-002
8.177455e-002
7.807895e-002
7.480714e-002
7.190680e-002
6.932921e-002
6.702991e-002
6.496885e-002
6.311038e-002
6.142325e-002
5.988061e-002
5.846008e-002
5.714363e-002
5.591755e-002
5.477230e-002
5.370226e-002
5.270545e-002
5.178331e-002
5.094038e-002
5.018403e-002
4.952435e-002
4.897399e-002
4.854832e-002
4.826568e-002
4.814788e-002
4.822104e-002
4.851685e-002
4.907425e-002
4.994182e-002
5.118081e-002
5.286914e-002
5.510613e-002
5.801762e-002
6.176049e-002
6.652377e-002
7.252118e-002
7.996458e-002
8.900083e-002
9.958696e-002
1.112824e-001
1.229825e-001
1.327628e-001
1.382735e-001
1.381932e-001
1.338798e-001
1.277675e-001
1.187116e-001
1.030361e-001
8.096264e-002
5.745518e-002
3.769746e-002
2.400231e-002
1.594344e-002
1.186242e-002
1.009259e-002
9.461711e-003
9.306514e-003
9.312030e-003
9.352628e-003
9.388491e-003
9.412233e-003
9.426005e-003
9.433354e-003
9.437022e-003
9.438717e-003
9.439366e-003
9.437334e-003
9.435987e-003
9.432706e-003
9.426168e-003
9.414044e-003
9.392792e-003
9.358115e-003
9.307882e-003
9.252091e-003
9.239595e-003
9.418236e-003
1.014726e-002
1.216161e-002
1.672013e-002
2.554261e-002
4.022582e-002
6.096747e-002
8.512468e-002
1.072291e-001
1.221103e-001
1.294103e-001
1.331781e-001
1.356876e-001
1.353552e-001
1.306428e-001
1.221742e-001
1.117091e-001
1.008667e-001
9.066888e-002
8.159349e-002
7.376620e-002
6.712679e-002
6.153663e-002
5.683745e-002
5.287942e-002
4.953207e-002
4.668649e-002
4.425357e-002
4.216083e-002
4.034912e-002
3.876985e-002
3.738278e-002
3.615452e-002
3.505742e-002
3.406876e-002
3.317018e-002
3.234723e-002
3.158897e-002
3.088759e-002
3.023807e-002
2.963787e-002
2.908664e-002
2.858592e-002
2.813901e-002
2.775073e-002
2.742745e-002
2.717713e-002
2.700951e-002
2.693656e-002
2.697308e-002
2.713767e-002
2.745418e-002
2.795366e-002
2.867728e-002
2.968039e-002
3.103817e-002
3.285354e-002
3.526762e-002
3.847305e-002
4.272899e-002
4.837338e-002
5.582037e-002
6.551644e-002
7.780673e-002
9.264450e-002
1.091027e-001
1.248239e-001
1.360334e-001
1.393592e-001
1.354467e-001
1.286369e-001
1.190234e-001
1.019601e-001
7.793268e-002
5.333277e-002
3.383662e-002
2.120172e-002
1.428409e-002
1.104460e-002
9.763781e-003
9.365880e-003
9.300274e-003
9.330098e-003
9.371216e-003
9.401694e-003
9.420270e-003
9.430461e-003
9.435643e-003
9.438073e-003
9.439013e-003
9.435955e-003
9.434065e-003
9.429494e-003
9.420483e-003
9.404027e-003
9.375864e-003
9.331895e-003
9.274341e-003
9.230567e-003
9.300476e-003
9.756595e-003
1.121578e-002
1.485142e-002
2.248049e-002
3.615666e-002
5.685295e-002
8.243344e-002
1.067351e-001
1.228804e-001
1.301665e-001
1.340286e-001
1.359950e-001
1.324871e-001
1.223497e-001
1.081150e-001
9.297741e-002
7.903885e-002
6.719157e-002
5.755562e-002
4.988991e-002
4.384269e-002
3.907142e-002
3.528645e-002
3.225850e-002
2.981195e-002
2.781444e-002
2.616664e-002
2.479383e-002
2.363929e-002
2.265937e-002
2.181999e-002
2.109418e-002
2.046038e-002
1.990132e-002
1.940317e-002
1.895501e-002
1.854833e-002
1.817673e-002
1.783559e-002
1.752182e-002
1.723365e-002
1.697041e-002
1.673240e-002
1.652072e-002
1.633725e-002
1.618455e-002
1.606594e-002
1.598564e-002
1.594892e-002
1.596251e-002
1.603517e-002
1.617845e-002
1.640795e-002
1.674513e-002
1.722005e-002
1.787552e-002
1.877332e-002
2.000376e-002
2.170002e-002
2.405926e-002
2.737201e-002
3.205801e-002
3.869731e-002
4.802243e-002
6.079677e-002
7.745337e-002
9.736636e-002
1.178489e-001
1.337289e-001
1.396155e-001
1.357030e-001
1.281919e-001
1.172814e-001
9.756889e-002
7.139596e-002
4.671292e-002