# vtk DataFile Version 3.0
vtk output
ASCII
DATASET STRUCTURED_POINTS
DIMENSIONS 100 100 1
SPACING 1 1 1
ORIGIN 0 0 0
POINT_DATA 10000
SCALARS SFBox_profile double
LOOKUP_TABLE default 
9.439924e-003
9.439922e-003
9.439921e-003
9.439919e-003
9.439919e-003
9.439919e-003
9.439920e-003
9.439921e-003
9.439920e-003
9.439920e-003
9.439920e-003
9.439920e-003
9.439920e-003
9.439920e-003
9.439920e-003
9.439920e-003
9.439919e-003
9.439920e-003
9.439920e-003
9.439920e-003
9.439920e-003
9.439920e-003
9.439920e-003
9.439920e-003
9.439921e-003
9.439921e-003
9.439921e-003
9.439921e-003
9.439922e-003
9.439922e-003
9.439923e-003
9.439923e-003
9.439924e-003
9.439925e-003
9.439925e-003
9.439926e-003
9.439927e-003
9.439928e-003
9.439928e-003
9.439929e-003
9.439930e-003
9.439930e-003
9.439931e-003
9.439932e-003
9.439932e-003
9.439933e-003
9.439933e-003
9.439933e-003
9.439934e-003
9.439934e-003
9.439934e-003
9.439934e-003
9.439934e-003
9.439934e-003
9.439933e-003
9.439933e-003
9.439933e-003
9.439932e-003
9.439932e-003
9.439931e-003
9.439930e-003
9.439929e-003
9.439929e-003
9.439928e-003
9.439927e-003
9.439926e-003
9.439925e-003
9.439925e-003
9.439924e-003
9.439923e-003
9.439923e-003
9.439922e-003
9.439922e-003
9.439921e-003
9.439921e-003
9.439921e-003
9.439921e-003
9.439920e-003
9.439920e-003
9.439920e-003
9.439920e-003
9.439920e-003
9.439920e-003
9.439920e-003
9.439920e-003
9.439920e-003
9.439920e-003
9.439920e-003
9.439920e-003
9.439920e-003
9.439920e-003
9.439920e-003
9.439920e-003
9.439920e-003
9.439920e-003
9.439920e-003
9.439920e-003
9.439920e-003
9.439920e-003
9.439920e-003
9.439924e-003
9.439922e-003
9.439921e-003
9.439919e-003
9.439919e-003
9.439919e-003
9.439920e-003
9.439921e-003
9.439920e-003
9.439920e-003
9.439920e-003
9.439920e-003
9.439920e-003
9.439920e-003
9.439920e-003
9.439920e-003
9.439919e-003
9.439920e-003
9.439920e-003
9.439920e-003
9.439920e-003
9.439920e-003
9.439920e-003
9.439920e-003
9.439921e-003
9.439921e-003
9.439921e-003
9.439921e-003
9.439922e-003
9.439922e-003
9.439923e-003
9.439923e-003
9.439924e-003
9.439925e-003
9.439925e-003
9.439926e-003
9.439927e-003
9.439928e-003
9.439928e-003
9.439929e-003
9.439930e-003
9.439930e-003
9.439931e-003
9.439932e-003
9.439932e-003
9.439933e-003
9.439933e-003
9.439933e-003
9.439934e-003
9.439934e-003
9.439934e-003
9.439934e-003
9.439934e-003
9.439934e-003
9.439933e-003
9.439933e-003
9.439933e-003
9.439932e-003
9.439932e-003
9.439931e-003
9.439930e-003
9.439929e-003
9.439929e-003
9.439928e-003
9.439927e-003
9.439926e-003
9.439925e-003
9.439925e-003
9.439924e-003
9.439923e-003
9.439923e-003
9.439922e-003
9.439922e-003
9.439921e-003
9.439921e-003
9.439921e-003
9.439921e-003
9.439920e-003
9.439920e-003
9.439920e-003
9.439920e-003
9.439920e-003
9.439920e-003
9.439920e-003
9.439920e-003
9.439920e-003
9.439920e-003
9.439920e-003
9.439920e-003
9.439920e-003
9.439920e-003
9.439920e-003
9.439920e-003
9.439920e-003
9.439920e-003
9.439920e-003
9.439920e-003
9.439920e-003
9.439920e-003
9.439920e-003
9.439921e-003
9.439920e-003
9.439920e-003
9.439920e-003
9.439920e-003
9.439920e-003
9.439920e-003
9.439920e-003
9.439920e-003
9.439920e-003
9.439920e-003
9.439920e-003
9.439920e-003
9.439920e-003
9.439920e-003
9.439920e-003
9.439920e-003
9.439920e-003
9.439920e-003
9.439920e-003
9.439920e-003
9.439920e-003
9.439920e-003
9.439921e-003
9.439921e-003
9.439922e-003
9.439922e-003
9.439922e-003
9.439923e-003
9.439924e-003
9.439924e-003
9.439925e-003
9.439926e-003
9.439927e-003
9.439927e-003
9.439928e-003
9.439929e-003
9.439930e-003
9.439931e-003
9.439932e-003
9.439933e-003
9.439934e-003
9.439934e-003
9.439935e-003
9.439936e-003
9.439936e-003
9.439937e-003
9.439937e-003
9.439937e-003
9.439937e-003
9.439937e-003
9.439937e-003
9.439937e-003
9.439937e-003
9.439937e-003
9.439937e-003
9.439936e-003
9.439936e-003
9.439935e-003
9.439934e-003
9.439933e-003
9.439933e-003
9.439932e-003
9.439931e-003
9.439930e-003
9.439929e-003
9.439928e-003
9.439927e-003
9.439926e-003
9.439925e-003
9.439924e-003
9.439923e-003
9.439923e-003
9.439922e-003
9.439922e-003
9.439921e-003
9.439921e-003
9.439921e-003
9.439920e-003
9.439920e-003
9.439920e-003
9.439920e-003
9.439920e-003
9.439920e-003
9.439920e-003
9.439920e-003
9.439920e-003
9.439920e-003
9.439920e-003
9.439920e-003
9.439920e-003
9.439920e-003
9.439920e-003
9.439920e-003
9.439920e-003
9.439920e-003
9.439920e-003
9.439920e-003
9.439920e-003
9.439920e-003
9.439917e-003
9.439918e-003
9.439920e-003
9.439920e-003
9.439921e-003
9.439921e-003
9.439920e-003
9.439920e-003
9.439920e-003
9.439920e-003
9.439920e-003
9.439920e-003
9.439920e-003
9.439920e-003
9.439920e-003
9.439920e-003
9.439920e-003
9.439921e-003
9.439920e-003
9.439920e-003
9.439920e-003
9.439921e-003
9.439921e-003
9.439921e-003
9.439922e-003
9.439923e-003
9.439924e-003
9.439924e-003
9.439925e-003
9.439926e-003
9.439928e-003
9.439929e-003
9.439930e-003
9.439931e-003
9.439932e-003
9.439934e-003
9.439935e-003
9.439936e-003
9.439937e-003
9.439938e-003
9.439939e-003
9.439940e-003
9.439941e-003
9.439942e-003
9.439942e-003
9.439943e-003
9.439943e-003
9.439944e-003
9.439944e-003
9.439944e-003
9.439944e-003
9.439944e-003
9.439944e-003
9.439944e-003
9.439943e-003
9.439943e-003
9.439942e-003
9.439942e-003
9.439941e-003
9.439940e-003
9.439939e-003
9.439938e-003
9.439937e-003
9.439936e-003
9.439935e-003
9.439934e-003
9.439932e-003
9.439931e-003
9.439930e-003
9.439928e-003
9.439927e-003
9.439926e-003
9.439925e-003
9.439924e-003
9.439923e-003
9.439922e-003
9.439922e-003
9.439921e-003
9.439921e-003
9.439920e-003
9.439920e-003
9.439920e-003
9.439920e-003
9.439920e-003
9.439920e-003
9.439920e-003
9.439920e-003
9.439920e-003
9.439920e-003
9.439920e-003
9.439920e-003
9.439920e-003
9.439920e-003
9.439920e-003
9.439920e-003
9.439920e-003
9.439920e-003
9.439920e-003
9.439920e-003
9.439920e-003
9.439916e-003
9.439918e-003
9.439920e-003
9.439921e-003
9.439921e-003
9.439921e-003
9.439920e-003
9.439919e-003
9.439920e-003
9.439920e-003
9.439920e-003
9.439920e-003
9.439920e-003
9.439920e-003
9.439920e-003
9.439920e-003
9.439921e-003
9.439921e-003
9.439921e-003
9.439921e-003
9.439921e-003
9.439922e-003
9.439922e-003
9.439923e-003
9.439924e-003
9.439925e-003
9.439927e-003
9.439928e-003
9.439930e-003
9.439931e-003
9.439933e-003
9.439935e-003
9.439937e-003
9.439938e-003
9.439940e-003
9.439941e-003
9.439943e-003
9.439944e-003
9.439945e-003
9.439946e-003
9.439946e-003
9.439947e-003
9.439947e-003
9.439948e-003
9.439948e-003
9.439948e-003
9.439948e-003
9.439948e-003
9.439947e-003
9.439947e-003
9.439947e-003
9.439947e-003
9.439947e-003
9.439947e-003
9.439946e-003
9.439946e-003
9.439946e-003
9.439946e-003
9.439946e-003
9.439945e-003
9.439945e-003
9.439944e-003
9.439944e-003
9.439943e-003
9.439942e-003
9.439940e-003
9.439939e-003
9.439937e-003
9.439936e-003
9.439934e-003
9.439932e-003
9.439930e-003
9.439929e-003
9.439927e-003
9.439926e-003
9.439925e-003
9.439923e-003
9.439923e-003
9.439922e-003
9.439921e-003
9.439921e-003
9.439921e-003
9.439920e-003
9.439920e-003
9.439920e-003
9.439920e-003
9.439920e-003
9.439920e-003
9.439920e-003
9.439920e-003
9.439920e-003
9.439920e-003
9.439920e-003
9.439920e-003
9.439920e-003
9.439920e-003
9.439920e-003
9.439920e-003
9.439920e-003
9.439920e-003
9.439918e-003
9.439919e-003
9.439920e-003
9.439921e-003
9.439921e-003
9.439920e-003
9.439919e-003
9.439919e-003
9.439920e-003
9.439920e-003
9.439921e-003
9.439920e-003
9.439920e-003
9.439920e-003
9.439920e-003
9.439920e-003
9.439921e-003
9.439921e-003
9.439921e-003
9.439922e-003
9.439922e-003
9.439924e-003
9.439925e-003
9.439927e-003
9.439928e-003
9.439930e-003
9.439932e-003
9.439934e-003
9.439936e-003
9.439938e-003
9.439941e-003
9.439942e-003
9.439944e-003
9.439946e-003
9.439947e-003
9.439947e-003
9.439947e-003
9.439947e-003
9.439946e-003
9.439945e-003
9.439944e-003
9.439942e-003
9.439940e-003
9.439938e-003
9.439936e-003
9.439934e-003
9.439931e-003
9.439930e-003
9.439928e-003
9.439926e-003
9.439925e-003
9.439925e-003
9.439924e-003
9.439925e-003
9.439925e-003
9.439926e-003
9.439928e-003
9.439930e-003
9.439932e-003
9.439934e-003
9.439936e-003
9.439938e-003
9.439940e-003
9.439942e-003
9.439943e-003
9.439943e-003
9.439943e-003
9.439943e-003
9.439942e-003
9.439940e-003
9.439939e-003
9.439936e-003
9.439934e-003
9.439932e-003
9.439930e-003
9.439928e-003
9.439926e-003
9.439925e-003
9.439924e-003
9.439923e-003
9.439922e-003
9.439921e-003
9.439921e-003
9.439921e-003
9.439920e-003
9.439920e-003
9.439920e-003
9.439920e-003
9.439920e-003
9.439920e-003
9.439920e-003
9.439920e-003
9.439920e-003
9.439920e-003
9.439920e-003
9.439920e-003
9.439920e-003
9.439920e-003
9.439920e-003
9.439920e-003
9.439921e-003
9.439921e-003
9.439921e-003
9.439920e-003
9.439920e-003
9.439919e-003
9.439919e-003
9.439920e-003
9.439920e-003
9.439920e-003
9.439921e-003
9.439921e-003
9.439920e-003
9.439920e-003
9.439920e-003
9.439921e-003
9.439921e-003
9.439922e-003
9.439922e-003
9.439923e-003
9.439925e-003
9.439927e-003
9.439929e-003
9.439931e-003
9.439934e-003
9.439936e-003
9.439939e-003
9.439942e-003
9.439944e-003
9.439946e-003
9.439947e-003
9.439947e-003
9.439946e-003
9.439945e-003
9.439941e-003
9.439937e-003
9.439931e-003
9.439924e-003
9.439916e-003
9.439908e-003
9.439899e-003
9.439889e-003
9.439879e-003
9.439869e-003
9.439860e-003
9.439850e-003
9.439842e-003
9.439835e-003
9.439828e-003
9.439824e-003
9.439820e-003
9.439818e-003
9.439818e-003
9.439820e-003
9.439823e-003
9.439828e-003
9.439835e-003
9.439844e-003
9.439853e-003
9.439863e-003
9.439874e-003
9.439886e-003
9.439897e-003
9.439907e-003
9.439916e-003
9.439925e-003
9.439931e-003
9.439937e-003
9.439940e-003
9.439942e-003
9.439943e-003
9.439942e-003
9.439941e-003
9.439938e-003
9.439936e-003
9.439933e-003
9.439931e-003
9.439929e-003
9.439927e-003
9.439925e-003
9.439924e-003
9.439922e-003
9.439922e-003
9.439921e-003
9.439921e-003
9.439920e-003
9.439920e-003
9.439920e-003
9.439920e-003
9.439920e-003
9.439920e-003
9.439920e-003
9.439920e-003
9.439920e-003
9.439920e-003
9.439920e-003
9.439920e-003
9.439920e-003
9.439920e-003
9.439920e-003
9.439923e-003
9.439922e-003
9.439920e-003
9.439919e-003
9.439919e-003
9.439919e-003
9.439920e-003
9.439920e-003
9.439920e-003
9.439920e-003
9.439920e-003
9.439920e-003
9.439920e-003
9.439921e-003
9.439921e-003
9.439922e-003
9.439922e-003
9.439923e-003
9.439925e-003
9.439927e-003
9.439929e-003
9.439932e-003
9.439935e-003
9.439938e-003
9.439941e-003
9.439944e-003
9.439947e-003
9.439948e-003
9.439947e-003
9.439945e-003
9.439940e-003
9.439932e-003
9.439921e-003
9.439907e-003
9.439889e-003
9.439868e-003
9.439844e-003
9.439818e-003
9.439789e-003
9.439759e-003
9.439727e-003
9.439695e-003
9.439663e-003
9.439632e-003
9.439602e-003
9.439574e-003
9.439549e-003
9.439527e-003
9.439509e-003
9.439495e-003
9.439486e-003
9.439481e-003
9.439482e-003
9.439487e-003
9.439499e-003
9.439515e-003
9.439537e-003
9.439563e-003
9.439593e-003
9.439626e-003
9.439661e-003
9.439698e-003
9.439735e-003
9.439771e-003
9.439805e-003
9.439836e-003
9.439864e-003
9.439888e-003
9.439907e-003
9.439921e-003
9.439931e-003
9.439938e-003
9.439942e-003
9.439943e-003
9.439942e-003
9.439940e-003
9.439937e-003
9.439934e-003
9.439931e-003
9.439929e-003
9.439926e-003
9.439925e-003
9.439923e-003
9.439922e-003
9.439921e-003
9.439921e-003
9.439921e-003
9.439920e-003
9.439920e-003
9.439920e-003
9.439920e-003
9.439920e-003
9.439920e-003
9.439920e-003
9.439920e-003
9.439920e-003
9.439920e-003
9.439920e-003
9.439920e-003
9.439920e-003
9.439923e-003
9.439921e-003
9.439920e-003
9.439919e-003
9.439919e-003
9.439920e-003
9.439921e-003
9.439921e-003
9.439920e-003
9.439920e-003
9.439920e-003
9.439920e-003
9.439921e-003
9.439922e-003
9.439922e-003
9.439923e-003
9.439925e-003
9.439927e-003
9.439929e-003
9.439932e-003
9.439936e-003
9.439939e-003
9.439943e-003
9.439946e-003
9.439948e-003
9.439949e-003
9.439946e-003
9.439939e-003
9.439928e-003
9.439910e-003
9.439885e-003
9.439852e-003
9.439811e-003
9.439761e-003
9.439703e-003
9.439637e-003
9.439564e-003
9.439485e-003
9.439402e-003
9.439315e-003
9.439226e-003
9.439138e-003
9.439051e-003
9.438967e-003
9.438888e-003
9.438815e-003
9.438749e-003
9.438692e-003
9.438645e-003
9.438609e-003
9.438585e-003
9.438574e-003
9.438576e-003
9.438593e-003
9.438623e-003
9.438667e-003
9.438725e-003
9.438795e-003
9.438876e-003
9.438965e-003
9.439062e-003
9.439164e-003
9.439267e-003
9.439369e-003
9.439467e-003
9.439559e-003
9.439642e-003
9.439715e-003
9.439778e-003
9.439829e-003
9.439869e-003
9.439899e-003
9.439919e-003
9.439933e-003
9.439940e-003
9.439943e-003
9.439942e-003
9.439940e-003
9.439937e-003
9.439934e-003
9.439931e-003
9.439928e-003
9.439926e-003
9.439924e-003
9.439923e-003
9.439922e-003
9.439921e-003
9.439921e-003
9.439920e-003
9.439920e-003
9.439920e-003
9.439920e-003
9.439920e-003
9.439920e-003
9.439920e-003
9.439920e-003
9.439920e-003
9.439920e-003
9.439920e-003
9.439920e-003
9.439921e-003
9.439920e-003
9.439919e-003
9.439919e-003
9.439920e-003
9.439920e-003
9.439921e-003
9.439921e-003
9.439920e-003
9.439920e-003
9.439920e-003
9.439920e-003
9.439922e-003
9.439923e-003
9.439924e-003
9.439926e-003
9.439928e-003
9.439931e-003
9.439935e-003
9.439939e-003
9.439944e-003
9.439947e-003
9.439949e-003
9.439949e-003
9.439944e-003
9.439933e-003
9.439913e-003
9.439881e-003
9.439835e-003
9.439773e-003
9.439693e-003
9.439593e-003
9.439472e-003
9.439332e-003
9.439172e-003
9.438994e-003
9.438802e-003
9.438597e-003
9.438382e-003
9.438162e-003
9.437940e-003
9.437720e-003
9.437506e-003
9.437300e-003
9.437107e-003
9.436930e-003
9.436771e-003
9.436635e-003
9.436523e-003
9.436438e-003
9.436382e-003
9.436357e-003
9.436364e-003
9.436404e-003
9.436479e-003
9.436587e-003
9.436727e-003
9.436897e-003
9.437095e-003
9.437316e-003
9.437556e-003
9.437808e-003
9.438066e-003
9.438325e-003
9.438576e-003
9.438814e-003
9.439034e-003
9.439231e-003
9.439403e-003
9.439548e-003
9.439666e-003
9.439758e-003
9.439827e-003
9.439876e-003
9.439909e-003
9.439928e-003
9.439939e-003
9.439943e-003
9.439942e-003
9.439940e-003
9.439937e-003
9.439933e-003
9.439930e-003
9.439927e-003
9.439925e-003
9.439923e-003
9.439922e-003
9.439921e-003
9.439921e-003
9.439920e-003
9.439920e-003
9.439920e-003
9.439920e-003
9.439920e-003
9.439920e-003
9.439920e-003
9.439920e-003
9.439920e-003
9.439920e-003
9.439920e-003
9.439919e-003
9.439919e-003
9.439919e-003
9.439920e-003
9.439920e-003
9.439920e-003
9.439921e-003
9.439920e-003
9.439920e-003
9.439920e-003
9.439921e-003
9.439922e-003
9.439923e-003
9.439925e-003
9.439927e-003
9.439930e-003
9.439933e-003
9.439938e-003
9.439943e-003
9.439948e-003
9.439951e-003
9.439950e-003
9.439945e-003
9.439930e-003
9.439902e-003
9.439856e-003
9.439785e-003
9.439685e-003
9.439551e-003
9.439377e-003
9.439159e-003
9.438896e-003
9.438586e-003
9.438230e-003
9.437833e-003
9.437399e-003
9.436932e-003
9.436442e-003
9.435934e-003
9.435419e-003
9.434903e-003
9.434395e-003
9.433903e-003
9.433435e-003
9.432998e-003
9.432599e-003
9.432243e-003
9.431939e-003
9.431689e-003
9.431501e-003
9.431378e-003
9.431324e-003
9.431342e-003
9.431435e-003
9.431604e-003
9.431848e-003
9.432165e-003
9.432551e-003
9.433000e-003
9.433504e-003
9.434053e-003
9.434635e-003
9.435236e-003
9.435840e-003
9.436435e-003
9.437004e-003
9.437535e-003
9.438019e-003
9.438446e-003
9.438813e-003
9.439118e-003
9.439363e-003
9.439553e-003
9.439694e-003
9.439795e-003
9.439862e-003
9.439904e-003
9.439928e-003
9.439940e-003
9.439943e-003
9.439942e-003
9.439939e-003
9.439935e-003
9.439931e-003
9.439928e-003
9.439925e-003
9.439924e-003
9.439922e-003
9.439921e-003
9.439921e-003
9.439920e-003
9.439920e-003
9.439920e-003
9.439920e-003
9.439920e-003
9.439920e-003
9.439920e-003
9.439920e-003
9.439920e-003
9.439920e-003
9.439918e-003
9.439919e-003
9.439920e-003
9.439921e-003
9.439920e-003
9.439920e-003
9.439920e-003
9.439920e-003
9.439920e-003
9.439921e-003
9.439922e-003
9.439924e-003
9.439926e-003
9.439928e-003
9.439931e-003
9.439936e-003
9.439941e-003
9.439946e-003
9.439951e-003
9.439953e-003
9.439948e-003
9.439933e-003
9.439901e-003
9.439844e-003
9.439752e-003
9.439615e-003
9.439420e-003
9.439154e-003
9.438808e-003
9.438372e-003
9.437837e-003
9.437203e-003
9.436468e-003
9.435638e-003
9.434722e-003
9.433732e-003
9.432681e-003
9.431586e-003
9.430465e-003
9.429335e-003
9.428214e-003
9.427119e-003
9.426066e-003
9.425070e-003
9.424145e-003
9.423305e-003
9.422561e-003
9.421926e-003
9.421409e-003
9.421020e-003
9.420767e-003
9.420659e-003
9.420701e-003
9.420899e-003
9.421254e-003
9.421767e-003
9.422435e-003
9.423250e-003
9.424202e-003
9.425276e-003
9.426451e-003
9.427704e-003
9.429008e-003
9.430331e-003
9.431643e-003
9.432913e-003
9.434111e-003
9.435214e-003
9.436201e-003
9.437060e-003
9.437786e-003
9.438381e-003
9.438852e-003
9.439211e-003
9.439476e-003
9.439662e-003
9.439786e-003
9.439864e-003
9.439909e-003
9.439932e-003
9.439942e-003
9.439943e-003
9.439941e-003
9.439937e-003
9.439932e-003
9.439929e-003
9.439926e-003
9.439924e-003
9.439923e-003
9.439922e-003
9.439921e-003
9.439920e-003
9.439920e-003
9.439920e-003
9.439920e-003
9.439920e-003
9.439920e-003
9.439920e-003
9.439920e-003
9.439920e-003
9.439918e-003
9.439919e-003
9.439921e-003
9.439921e-003
9.439921e-003
9.439920e-003
9.439919e-003
9.439920e-003
9.439921e-003
9.439923e-003
9.439924e-003
9.439926e-003
9.439929e-003
9.439933e-003
9.439938e-003
9.439944e-003
9.439950e-003
9.439954e-003
9.439952e-003
9.439941e-003
9.439911e-003
9.439853e-003
9.439751e-003
9.439588e-003
9.439343e-003
9.438991e-003
9.438507e-003
9.437866e-003
9.437048e-003
9.436035e-003
9.434816e-003
9.433389e-003
9.431761e-003
9.429946e-003
9.427968e-003
9.425855e-003
9.423640e-003
9.421357e-003
9.419045e-003
9.416739e-003
9.414474e-003
9.412281e-003
9.410190e-003
9.408229e-003
9.406423e-003
9.404793e-003
9.403359e-003
9.402142e-003
9.401157e-003
9.400422e-003
9.399949e-003
9.399753e-003
9.399844e-003
9.400231e-003
9.400921e-003
9.401914e-003
9.403209e-003
9.404794e-003
9.406655e-003
9.408765e-003
9.411093e-003
9.413595e-003
9.416223e-003
9.418918e-003
9.421620e-003
9.424265e-003
9.426792e-003
9.429147e-003
9.431283e-003
9.433169e-003
9.434786e-003
9.436130e-003
9.437213e-003
9.438056e-003
9.438690e-003
9.439148e-003
9.439465e-003
9.439674e-003
9.439805e-003
9.439881e-003
9.439921e-003
9.439939e-003
9.439944e-003
9.439942e-003
9.439938e-003
9.439934e-003
9.439930e-003
9.439926e-003
9.439924e-003
9.439923e-003
9.439922e-003
9.439921e-003
9.439920e-003
9.439920e-003
9.439920e-003
9.439920e-003
9.439920e-003
9.439920e-003
9.439920e-003
9.439920e-003
9.439918e-003
9.439920e-003
9.439921e-003
9.439921e-003
9.439921e-003
9.439920e-003
9.439920e-003
9.439921e-003
9.439923e-003
9.439925e-003
9.439927e-003
9.439930e-003
9.439934e-003
9.439940e-003
9.439947e-003
9.439953e-003
9.439956e-003
9.439950e-003
9.439929e-003
9.439879e-003
9.439784e-003
9.439619e-003
9.439352e-003
9.438945e-003
9.438353e-003
9.437527e-003
9.436417e-003
9.434976e-003
9.433166e-003
9.430962e-003
9.428351e-003
9.425343e-003
9.421963e-003
9.418255e-003
9.414275e-003
9.410088e-003
9.405767e-003
9.401384e-003
9.397012e-003
9.392716e-003
9.388558e-003
9.384590e-003
9.380861e-003
9.377408e-003
9.374268e-003
9.371469e-003
9.369036e-003
9.366993e-003
9.365359e-003
9.364154e-003
9.363396e-003
9.363102e-003
9.363288e-003
9.363969e-003
9.365156e-003
9.366857e-003
9.369074e-003
9.371803e-003
9.375028e-003
9.378724e-003
9.382847e-003
9.387340e-003
9.392129e-003
9.397121e-003
9.402210e-003
9.407279e-003
9.412209e-003
9.416882e-003
9.421197e-003
9.425070e-003
9.428448e-003
9.431303e-003
9.433641e-003
9.435493e-003
9.436910e-003
9.437954e-003
9.438695e-003
9.439199e-003
9.439527e-003
9.439728e-003
9.439844e-003
9.439906e-003
9.439934e-003
9.439943e-003
9.439943e-003
9.439939e-003
9.439935e-003
9.439930e-003
9.439927e-003
9.439924e-003
9.439923e-003
9.439922e-003
9.439921e-003
9.439920e-003
9.439920e-003
9.439920e-003
9.439920e-003
9.439920e-003
9.439920e-003
9.439920e-003
9.439919e-003
9.439919e-003
9.439920e-003
9.439921e-003
9.439921e-003
9.439921e-003
9.439921e-003
9.439923e-003
9.439925e-003
9.439927e-003
9.439930e-003
9.439935e-003
9.439941e-003
9.439949e-003
9.439955e-003
9.439957e-003
9.439947e-003
9.439914e-003
9.439840e-003
9.439698e-003
9.439449e-003
9.439042e-003
9.438411e-003
9.437477e-003
9.436150e-003
9.434337e-003
9.431945e-003
9.428896e-003
9.425134e-003
9.420633e-003
9.415406e-003
9.409503e-003
9.403012e-003
9.396051e-003
9.388756e-003
9.381275e-003
9.373755e-003
9.366335e-003
9.359139e-003
9.352271e-003
9.345817e-003
9.339843e-003
9.334395e-003
9.329505e-003
9.325191e-003
9.321461e-003
9.318316e-003
9.315756e-003
9.313777e-003
9.312379e-003
9.311562e-003
9.311331e-003
9.311696e-003
9.312671e-003
9.314276e-003
9.316535e-003
9.319478e-003
9.323132e-003
9.327523e-003
9.332666e-003
9.338562e-003
9.345183e-003
9.352471e-003
9.360325e-003
9.368607e-003
9.377136e-003
9.385701e-003
9.394073e-003
9.402029e-003
9.409364e-003
9.415918e-003
9.421586e-003
9.426325e-003
9.430152e-003
9.433134e-003
9.435374e-003
9.436994e-003
9.438121e-003
9.438872e-003
9.439350e-003
9.439639e-003
9.439803e-003
9.439888e-003
9.439928e-003
9.439942e-003
9.439944e-003
9.439940e-003
9.439935e-003
9.439930e-003
9.439927e-003
9.439924e-003
9.439923e-003
9.439921e-003
9.439921e-003
9.439920e-003
9.439920e-003
9.439920e-003
9.439920e-003
9.439920e-003
9.439920e-003
9.439920e-003
9.439920e-003
9.439920e-003
9.439920e-003
9.439921e-003
9.439922e-003
9.439923e-003
9.439925e-003
9.439927e-003
9.439931e-003
9.439936e-003
9.439942e-003
9.439950e-003
9.439957e-003
9.439957e-003
9.439943e-003
9.439897e-003
9.439796e-003
9.439600e-003
9.439251e-003
9.438670e-003
9.437751e-003
9.436363e-003
9.434353e-003
9.431556e-003
9.427804e-003
9.422952e-003
9.416894e-003
9.409589e-003
9.401075e-003
9.391474e-003
9.380991e-003
9.369894e-003
9.358495e-003
9.347118e-003
9.336075e-003
9.325641e-003
9.316040e-003
9.307440e-003
9.299944e-003
9.293601e-003
9.288405e-003
9.284307e-003
9.281222e-003
9.279038e-003
9.277628e-003
9.276857e-003
9.276592e-003
9.276707e-003
9.277088e-003
9.277638e-003
9.278281e-003
9.278968e-003
9.279683e-003
9.280446e-003
9.281319e-003
9.282413e-003
9.283883e-003
9.285928e-003
9.288772e-003
9.292650e-003
9.297777e-003
9.304316e-003
9.312347e-003
9.321837e-003
9.332627e-003
9.344431e-003
9.356854e-003
9.369428e-003
9.381665e-003
9.393114e-003
9.403409e-003
9.412305e-003
9.419695e-003
9.425596e-003
9.430125e-003
9.433467e-003
9.435837e-003
9.437451e-003
9.438503e-003
9.439158e-003
9.439545e-003
9.439761e-003
9.439872e-003
9.439923e-003
9.439941e-003
9.439944e-003
9.439940e-003
9.439935e-003
9.439930e-003
9.439927e-003
9.439924e-003
9.439922e-003
9.439921e-003
9.439921e-003
9.439920e-003
9.439920e-003
9.439920e-003
9.439920e-003
9.439920e-003
9.439922e-003
9.439921e-003
9.439920e-003
9.439920e-003
9.439921e-003
9.439923e-003
9.439925e-003
9.439927e-003
9.439931e-003
9.439936e-003
9.439943e-003
9.439952e-003
9.439959e-003
9.439958e-003
9.439939e-003
9.439883e-003
9.439754e-003
9.439501e-003
9.439043e-003
9.438262e-003
9.437001e-003
9.435056e-003
9.432180e-003
9.428099e-003
9.422532e-003
9.415232e-003
9.406033e-003
9.394900e-003
9.381976e-003
9.367601e-003
9.352306e-003
9.336778e-003
9.321794e-003
9.308143e-003
9.296551e-003
9.287612e-003
9.281749e-003
9.279194e-003
9.279987e-003
9.284001e-003
9.290956e-003
9.300453e-003
9.311997e-003
9.325029e-003
9.338945e-003
9.353129e-003
9.366970e-003
9.379882e-003
9.391320e-003
9.400786e-003
9.407844e-003
9.412130e-003
9.413370e-003
9.411396e-003
9.406179e-003
9.397848e-003
9.386722e-003
9.373325e-003
9.358387e-003
9.342831e-003
9.327717e-003
9.314174e-003
9.303297e-003
9.296035e-003
9.293076e-003
9.294752e-003
9.300981e-003
9.311260e-003
9.324725e-003
9.340259e-003
9.356652e-003
9.372762e-003
9.387650e-003
9.400671e-003
9.411494e-003
9.420073e-003
9.426570e-003
9.431283e-003
9.434557e-003
9.436737e-003
9.438127e-003
9.438972e-003
9.439460e-003
9.439726e-003
9.439859e-003
9.439919e-003
9.439940e-003
9.439944e-003
9.439940e-003
9.439935e-003
9.439930e-003
9.439926e-003
9.439924e-003
9.439922e-003
9.439921e-003
9.439921e-003
9.439920e-003
9.439920e-003
9.439920e-003
9.439920e-003
9.439923e-003
9.439922e-003
9.439921e-003
9.439920e-003
9.439922e-003
9.439924e-003
9.439927e-003
9.439931e-003
9.439936e-003
9.439943e-003
9.439952e-003
9.439960e-003
9.439959e-003
9.439938e-003
9.439873e-003
9.439721e-003
9.439416e-003
9.438849e-003
9.437861e-003
9.436228e-003
9.433651e-003
9.429758e-003
9.424122e-003
9.416300e-003
9.405912e-003
9.392740e-003
9.376850e-003
9.358709e-003
9.339260e-003
9.319930e-003
9.302544e-003
9.289158e-003
9.281842e-003
9.282448e-003
9.292413e-003
9.312628e-003
9.343382e-003
9.384380e-003
9.434815e-003
9.493461e-003
9.558770e-003
9.628967e-003
9.702124e-003
9.776227e-003
9.849244e-003
9.919174e-003
9.984094e-003
1.004219e-002
1.009179e-002
1.013135e-002
1.015952e-002
1.017512e-002
1.017721e-002
1.016515e-002
1.013863e-002
1.009785e-002
1.004354e-002
9.977082e-003
9.900544e-003
9.816691e-003
9.728890e-003
9.640948e-003
9.556856e-003
9.480469e-003
9.415144e-003
9.363395e-003
9.326598e-003
9.304834e-003
9.296899e-003
9.300510e-003
9.312673e-003
9.330151e-003
9.349918e-003
9.369513e-003
9.387226e-003
9.402117e-003
9.413889e-003
9.422706e-003
9.428993e-003
9.433272e-003
9.436057e-003
9.437790e-003
9.438817e-003
9.439396e-003
9.439702e-003
9.439852e-003
9.439918e-003
9.439940e-003
9.439944e-003
9.439940e-003
9.439934e-003
9.439929e-003
9.439926e-003
9.439923e-003
9.439922e-003
9.439921e-003
9.439920e-003
9.439920e-003
9.439920e-003
9.439920e-003
9.439923e-003
9.439922e-003
9.439921e-003
9.439922e-003
9.439923e-003
9.439927e-003
9.439931e-003
9.439936e-003
9.439943e-003
9.439952e-003
9.439961e-003
9.439961e-003
9.439940e-003
9.439870e-003
9.439703e-003
9.439357e-003
9.438698e-003
9.437519e-003
9.435521e-003
9.432292e-003
9.427301e-003
9.419923e-003
9.409507e-003
9.395511e-003
9.377717e-003
9.356510e-003
9.333180e-003
9.310160e-003
9.291106e-003
9.280747e-003
9.284488e-003
9.307818e-003
9.355651e-003
9.431731e-003
9.538210e-003
9.675466e-003
9.842149e-003
1.003542e-002
1.025127e-002
1.048488e-002
1.073094e-002
1.098385e-002
1.123796e-002
1.148764e-002
1.172744e-002
1.195219e-002
1.215700e-002
1.233734e-002
1.248907e-002
1.260838e-002
1.269185e-002
1.273644e-002
1.273961e-002
1.269941e-002
1.261470e-002
1.248540e-002
1.231279e-002
1.209976e-002
1.185104e-002
1.157336e-002
1.127531e-002
1.096712e-002
1.066016e-002
1.036612e-002
1.009615e-002
9.859802e-003
9.664051e-003
9.512506e-003
9.405063e-003
9.338070e-003
9.305049e-003
9.297843e-003
9.307921e-003
9.327561e-003
9.350647e-003
9.373000e-003
9.392271e-003
9.407551e-003
9.418887e-003
9.426834e-003
9.432131e-003
9.435496e-003
9.437538e-003
9.438717e-003
9.439363e-003
9.439695e-003
9.439853e-003
9.439919e-003
9.439941e-003
9.439944e-003
9.439939e-003
9.439933e-003
9.439929e-003
9.439925e-003
9.439923e-003
9.439922e-003
9.439921e-003
9.439920e-003
9.439920e-003
9.439920e-003
9.439922e-003
9.439922e-003
9.439922e-003
9.439923e-003
9.439926e-003
9.439930e-003
9.439935e-003
9.439943e-003
9.439952e-003
9.439960e-003
9.439963e-003
9.439944e-003
9.439875e-003
9.439703e-003
9.439335e-003
9.438613e-003
9.437285e-003
9.434975e-003
9.431144e-003
9.425080e-003
9.415919e-003
9.402753e-003
9.384862e-003
9.362133e-003
9.335660e-003
9.308471e-003
9.286204e-003
9.277487e-003
9.293768e-003
9.348471e-003
9.455547e-003
9.627700e-003
9.874677e-003
1.020198e-002
1.061027e-002
1.109539e-002
1.164911e-002
1.226006e-002
1.291493e-002
1.359942e-002
1.429905e-002
1.499964e-002
1.568764e-002
1.635027e-002
1.697566e-002
1.755287e-002
1.807189e-002
1.852363e-002
1.889978e-002
1.919274e-002
1.939552e-002
1.950170e-002
1.950559e-002
1.940239e-002
1.918865e-002
1.886282e-002
1.842589e-002
1.788219e-002
1.724006e-002
1.651243e-002
1.571706e-002
1.487644e-002
1.401701e-002
1.316790e-002
1.235899e-002
1.161842e-002
1.096985e-002
1.042983e-002
1.000593e-002
9.696004e-003
9.489067e-003
9.367569e-003
9.310605e-003
9.297271e-003
9.309398e-003
9.333141e-003
9.359332e-003
9.382884e-003
9.401703e-003
9.415539e-003
9.425071e-003
9.431284e-003
9.435135e-003
9.437409e-003
9.438687e-003
9.439367e-003