# vtk DataFile Version 3.0
vtk output
ASCII
DATASET STRUCTURED_POINTS
DIMENSIONS 100 100 1
SPACING 1 1 1
ORIGIN 0 0 0
POINT_DATA 10000
SCALARS SFBox_profile double
LOOKUP_TABLE default 
0.000000e+000
0.000000e+000
0.000000e+000
0.000000e+000
0.000000e+000
0.000000e+000
0.000000e+000
0.000000e+000
0.000000e+000
0.000000e+000
0.000000e+000
0.000000e+000
0.000000e+000
0.000000e+000
0.000000e+000
0.000000e+000
0.000000e+000
0.000000e+000
0.000000e+000
0.000000e+000
0.000000e+000
0.000000e+000
0.000000e+000
0.000000e+000
0.000000e+000
0.000000e+000
0.000000e+000
0.000000e+000
0.000000e+000
0.000000e+000
0.000000e+000
0.000000e+000
0.000000e+000
0.000000e+000
0.000000e+000
0.000000e+000
0.000000e+000
0.000000e+000
0.000000e+000
0.000000e+000
0.000000e+000
0.000000e+000
0.000000e+000
0.000000e+000
0.000000e+000
0.000000e+000
0.000000e+000
0.000000e+000
0.000000e+000
0.000000e+000
0.000000e+000
0.000000e+000
0.000000e+000
0.000000e+000
0.000000e+000
0.000000e+000
0.000000e+000
0.000000e+000
0.000000e+000
0.000000e+000
0.000000e+000
0.000000e+000
0.000000e+000
0.000000e+000
0.000000e+000
0.000000e+000
0.000000e+000
0.000000e+000
0.000000e+000
0.000000e+000
0.000000e+000
0.000000e+000
0.000000e+000
0.000000e+000
0.000000e+000
0.000000e+000
0.000000e+000
0.000000e+000
0.000000e+000
0.000000e+000
0.000000e+000
0.000000e+000
0.000000e+000
0.000000e+000
0.000000e+000
0.000000e+000
0.000000e+000
0.000000e+000
0.000000e+000
0.000000e+000
0.000000e+000
0.000000e+000
0.000000e+000
0.000000e+000
0.000000e+000
0.000000e+000
0.000000e+000
0.000000e+000
0.000000e+000
0.000000e+000
1.971946e-009
9.543022e-010
-3.636184e-010
-1.201806e-009
-1.283658e-009
-9.216883e-010
-5.950993e-010
-4.404395e-010
-1.463121e-010
6.375499e-010
1.768783e-009
2.512267e-009
2.062995e-009
2.912210e-010
-1.968754e-009
-3.425029e-009
-3.269687e-009
-1.768404e-009
1.579683e-011
1.117411e-009
1.382833e-009
1.392309e-009
1.734259e-009
2.373735e-009
2.716678e-009
2.251161e-009
1.081838e-009
-1.748857e-010
-9.867849e-010
-1.358088e-009
-1.700182e-009
-2.314948e-009
-3.063285e-009
-3.540350e-009
-3.516624e-009
-3.152819e-009
-2.791874e-009
-2.599921e-009
-2.449984e-009
-2.129757e-009
-1.600962e-009
-1.028985e-009
-5.941040e-010
-3.239326e-010
-1.149494e-010
1.246691e-010
3.873499e-010
6.026531e-010
7.176194e-010
7.273572e-010
6.562098e-010
5.399564e-010
4.171583e-010
3.014329e-010
1.487849e-010
-1.182155e-010
-5.198159e-010
-9.602273e-010
-1.300414e-009
-1.510400e-009
-1.718715e-009
-2.064159e-009
-2.496490e-009
-2.774519e-009
-2.705708e-009
-2.370343e-009
-2.048762e-009
-1.897836e-009
-1.741051e-009
-1.246297e-009
-3.277339e-010
6.820368e-010
1.319404e-009
1.448222e-009
1.376586e-009
1.475546e-009
1.706909e-009
1.602588e-009
7.657503e-010
-6.163743e-010
-1.808395e-009
-2.119038e-009
-1.481297e-009
-4.595286e-010
2.980952e-010
5.993611e-010
7.216606e-010
9.449156e-010
1.139305e-009
8.668678e-010
-9.106314e-011
-1.326757e-009
-1.981175e-009
-1.419613e-009
1.626285e-010
1.759179e-009
2.243024e-009
1.213570e-009
-6.621772e-010
-2.096414e-009
4.109062e-010
3.973812e-012
-4.416741e-010
-5.259624e-010
-1.409518e-010
4.367198e-010
7.564613e-010
5.459774e-010
-7.137407e-011
-6.703792e-010
-8.559593e-010
-5.603490e-010
-5.827533e-011
3.025194e-010
4.031736e-010
4.079577e-010
5.297360e-010
7.520672e-010
8.033957e-010
4.272517e-010
-3.188327e-010
-1.052040e-009
-1.376046e-009
-1.218146e-009
-8.578409e-010
-6.232770e-010
-5.702953e-010
-4.682333e-010
-8.750633e-011
5.304895e-010
1.105577e-009
1.401841e-009
1.446848e-009
1.461711e-009
1.601645e-009
1.799500e-009
1.866181e-009
1.710799e-009
1.431221e-009
1.195659e-009
1.069944e-009
9.798813e-010
8.238032e-010
5.893042e-010
3.531355e-010
1.918398e-010
1.155462e-010
8.185006e-011
4.881540e-011
5.311801e-012
-3.197268e-011
-3.133810e-011
3.791714e-011
1.786005e-010
3.466374e-010
4.782148e-010
5.564515e-010
6.435944e-010
8.191693e-010
1.074818e-009
1.293041e-009
1.359727e-009
1.295628e-009
1.242958e-009
1.298633e-009
1.379149e-009
1.290767e-009
9.473438e-010
4.893314e-010
1.502764e-010
6.494507e-012
-1.028093e-010
-3.776903e-010
-7.947291e-010
-1.083134e-009
-9.866401e-010
-5.359426e-010
-3.416352e-011
2.332246e-010
2.545993e-010
2.468543e-010
3.722766e-010
5.360084e-010
4.872305e-010
1.143506e-010
-3.847589e-010
-6.466153e-010
-4.667267e-010
8.659929e-012
4.041614e-010
4.326726e-010
1.213327e-010
-2.390563e-010
-3.531314e-010
-1.553571e-010
1.639812e-010
3.351226e-010
2.264614e-010
-6.537931e-011
-3.050673e-010
-1.360114e-009
-8.847647e-010
-1.855698e-010
4.758622e-010
9.892914e-010
1.347774e-009
1.466977e-009
1.116393e-009
1.118540e-010
-1.367905e-009
-2.672724e-009
-2.989740e-009
-1.908828e-009
1.993404e-010
2.342134e-009
3.522432e-009
3.346541e-009
2.162399e-009
6.736662e-010
-5.934906e-010
-1.527227e-009
-2.256148e-009
-2.832752e-009
-3.114168e-009
-2.916786e-009
-2.229884e-009
-1.248874e-009
-2.147326e-010
7.504138e-010
1.650863e-009
2.500753e-009
3.239541e-009
3.767557e-009
4.037820e-009
4.088012e-009
3.985173e-009
3.760312e-009
3.407808e-009
2.935826e-009
2.396103e-009
1.856975e-009
1.356124e-009
8.890718e-010
4.417135e-010
2.514798e-011
-3.251983e-010
-5.803684e-010
-7.425237e-010
-8.385413e-010
-8.909256e-010
-8.950052e-010
-8.239195e-010
-6.569059e-010
-4.038522e-010
-1.001432e-010
2.259037e-010
5.792300e-010
9.855403e-010
1.448813e-009
1.926021e-009
2.352270e-009
2.691132e-009
2.950418e-009
3.141904e-009
3.234171e-009
3.161501e-009
2.884032e-009
2.426544e-009
1.846128e-009
1.170687e-009
3.934580e-010
-4.604984e-010
-1.279720e-009
-1.905347e-009
-2.231372e-009
-2.249173e-009
-1.982870e-009
-1.408193e-009
-4.894576e-010
6.692428e-010
1.732108e-009
2.258417e-009
1.991937e-009
1.064044e-009
-8.477825e-011
-9.984316e-010
-1.448836e-009
-1.440342e-009
-1.048428e-009
-3.265652e-010
6.015008e-010
1.406321e-009
1.619943e-009
9.604786e-010
-3.368211e-010
-1.529617e-009
-1.818173e-009
-9.385069e-010
5.767023e-010
1.722245e-009
-1.959627e-009
-8.216569e-010
5.722913e-010
1.294610e-009
1.094016e-009
4.754383e-010
1.191193e-010
2.079562e-010
2.979163e-010
-1.524038e-010
-1.113551e-009
-1.858886e-009
-1.567282e-009
-1.316520e-010
1.601278e-009
2.448969e-009
1.858842e-009
3.573598e-010
-9.270356e-010
-1.224692e-009
-6.923024e-010
-1.116677e-010
-7.902189e-011
-4.896343e-010
-7.641155e-010
-5.028471e-010
1.261295e-010
6.152138e-010
6.539766e-010
3.953713e-010
2.211678e-010
3.169420e-010
5.178949e-010
5.406530e-010
2.998156e-010
-3.256798e-011
-2.428134e-010
-2.937569e-010
-3.174761e-010
-4.338674e-010
-6.216514e-010
-7.688460e-010
-8.114756e-010
-7.915094e-010
-7.877114e-010
-8.233454e-010
-8.588770e-010
-8.580604e-010
-8.327428e-010
-8.167487e-010
-8.168238e-010
-8.100689e-010
-7.849030e-010
-7.609399e-010
-7.557638e-010
-7.466685e-010
-6.897858e-010
-5.808066e-010
-4.736473e-010
-4.169302e-010
-3.804108e-010
-2.763507e-010
-7.098264e-011
1.472760e-010
2.484356e-010
2.169788e-010
1.915186e-010
3.097419e-010
5.206875e-010
6.016513e-010
3.989048e-010
2.960052e-011
-2.144676e-010
-1.904716e-010
-9.102508e-011
-2.409154e-010
-6.888348e-010
-1.055262e-009
-8.628339e-010
-4.720361e-011
8.943559e-010
1.313859e-009
9.930028e-010
3.077182e-010
-1.845443e-010
-2.945999e-010
-3.108493e-010
-5.675801e-010
-9.586004e-010
-9.564341e-010
-1.718549e-010
1.099902e-009
1.945806e-009
1.552046e-009
-2.941314e-011
-1.771937e-009
-2.391844e-009
-1.349259e-009
6.787160e-010
2.258523e-009
-1.170984e-009
6.320404e-012
1.273116e-009
1.471958e-009
3.349582e-010
-1.290819e-009
-2.119864e-009
-1.456107e-009
2.606010e-010
1.827656e-009
2.245163e-009
1.450911e-009
2.194054e-010
-6.241414e-010
-9.102819e-010
-1.097030e-009
-1.591950e-009
-2.162569e-009
-2.079040e-009
-8.704119e-010
1.082792e-009
2.759539e-009
3.341157e-009
2.864561e-009
2.057438e-009
1.562106e-009
1.354455e-009
9.121249e-010
-1.197902e-010
-1.505385e-009
-2.656008e-009
-3.217024e-009
-3.355948e-009
-3.487572e-009
-3.794399e-009
-4.071872e-009
-4.013731e-009
-3.568410e-009
-2.974900e-009
-2.489204e-009
-2.143293e-009
-1.786326e-009
-1.308917e-009
-7.712447e-010
-3.162669e-010
-1.110411e-011
1.914461e-010
3.590131e-010
4.962495e-010
5.657371e-010
5.537310e-010
4.775191e-010
3.372056e-010
1.033322e-010
-2.269310e-010
-5.900945e-010
-9.139900e-010
-1.214307e-009
-1.588879e-009
-2.082399e-009
-2.579936e-009
-2.889963e-009
-2.952176e-009
-2.918428e-009
-2.971790e-009
-3.070112e-009
-2.935966e-009
-2.353861e-009
-1.452243e-009
-6.157642e-010
-8.416106e-011
3.092242e-010
9.200024e-010
1.802075e-009
2.508060e-009
2.465066e-009
1.565620e-009
3.331266e-010
-5.450975e-010
-8.349318e-010
-8.673142e-010
-1.041817e-009
-1.292654e-009
-1.133287e-009
-2.548001e-010
9.757363e-010
1.700229e-009
1.318196e-009
8.087843e-011
-1.064254e-009
-1.260424e-009
-4.505708e-010
6.133280e-010
1.037309e-009
5.251410e-010
-4.267186e-010
-9.925235e-010
-7.098811e-010
1.675531e-010
9.083806e-010
1.691066e-010
6.345267e-010
1.034655e-009
7.633485e-010
-3.506295e-010
-1.789992e-009
-2.589044e-009
-1.986563e-009
-5.632992e-011
2.201154e-009
3.467551e-009
3.007914e-009
1.163025e-009
-9.650306e-010
-2.351109e-009
-2.685025e-009
-2.314521e-009
-1.680739e-009
-8.872177e-010
1.847023e-010
1.445073e-009
2.428806e-009
2.645584e-009
2.073287e-009
1.219783e-009
6.430248e-010
4.300560e-010
1.925442e-010
-4.328814e-010
-1.343690e-009
-2.068174e-009
-2.265244e-009
-2.057237e-009
-1.846069e-009
-1.856156e-009
-1.926201e-009
-1.748585e-009
-1.242148e-009
-6.330056e-010
-1.917373e-010
3.912274e-011
2.302937e-010
5.290725e-010
8.995450e-010
1.198173e-009
1.349747e-009
1.405477e-009
1.449530e-009
1.503156e-009
1.536883e-009
1.535193e-009
1.505001e-009
1.431402e-009
1.275889e-009
1.041450e-009
8.037472e-010
6.301500e-010
4.728391e-010
1.969103e-010
-2.504596e-010
-7.311029e-010
-1.036317e-009
-1.127161e-009
-1.198583e-009
-1.449539e-009
-1.807860e-009
-1.957924e-009
-1.682259e-009
-1.131350e-009
-6.785563e-010
-4.945763e-010
-3.353295e-010
1.772173e-010
1.073437e-009
1.906834e-009
2.150654e-009
1.696065e-009
9.079794e-010
1.997839e-010
-3.663188e-010
-9.945995e-010
-1.710525e-009
-2.116380e-009
-1.693958e-009
-3.757946e-010
1.223792e-009
2.199021e-009
2.023710e-009
9.041745e-010
-4.476907e-010
-1.345980e-009
-1.498633e-009
-1.009338e-009
-1.771377e-010
6.571381e-010
1.164261e-009
1.099492e-009
4.517724e-010
-4.602821e-010
-1.115236e-009
1.191983e-009
4.660555e-010
-3.483278e-010
-6.580355e-010
-4.425724e-010
-1.682356e-010
-2.170760e-010
-4.526736e-010
-3.911322e-010
2.008149e-010
9.336235e-010
1.096167e-009
3.761079e-010
-7.325772e-010
-1.297696e-009
-7.820328e-010
4.567822e-010
1.482315e-009
1.589944e-009
8.291987e-010
-2.016778e-010
-9.763033e-010
-1.409283e-009
-1.681475e-009
-1.852165e-009
-1.754833e-009
-1.254035e-009
-4.870520e-010
2.362340e-010
7.516001e-010
1.180207e-009
1.723694e-009
2.375997e-009
2.904890e-009
3.114758e-009
3.062965e-009
2.975406e-009
2.979733e-009
2.980389e-009
2.805463e-009
2.426298e-009
1.989289e-009
1.648901e-009
1.420038e-009
1.209876e-009
9.557568e-010
6.913247e-010
4.881006e-010
3.773764e-010
3.474651e-010
3.851118e-010
4.821220e-010
6.105967e-010
7.352251e-010
8.677877e-010
1.075936e-009
1.398021e-009
1.758370e-009
2.015420e-009
2.117136e-009
2.173596e-009
2.326871e-009
2.553008e-009
2.648344e-009
2.448124e-009
2.027016e-009
1.623584e-009
1.358048e-009
1.083041e-009
5.664467e-010
-1.975716e-010
-9.241835e-010
-1.307071e-009
-1.305144e-009
-1.113098e-009
-8.773080e-010
-5.341184e-010
1.672619e-011
6.339993e-010
9.439937e-010
6.887247e-010
3.216306e-011
-5.450910e-010
-6.722554e-010
-3.810232e-010
2.597820e-011
3.289558e-010
5.348315e-010
6.781626e-010
5.998913e-010
6.925344e-011
-8.259130e-010
-1.503442e-009
-1.268684e-009
-3.810502e-013
1.534748e-009
2.162827e-009
1.263558e-009
-6.217835e-010
-2.128362e-009
1.612210e-009
-1.094844e-010
-1.890208e-009
-2.035173e-009
-2.851302e-010
1.986108e-009
2.956514e-009
1.864720e-009
-4.440708e-010
-2.331000e-009
-2.730147e-009
-1.839469e-009
-6.245323e-010
2.317619e-010
8.443641e-010
1.667545e-009
2.676530e-009
3.155370e-009
2.360410e-009
3.533112e-010
-1.901033e-009
-3.298999e-009
-3.457501e-009
-2.844554e-009
-2.153696e-009
-1.642681e-009
-1.077436e-009
-1.957853e-010
9.132714e-010
1.906891e-009
2.558041e-009
2.931679e-009
3.209426e-009
3.435022e-009
3.490852e-009
3.285369e-009
2.884223e-009
2.433404e-009
2.001074e-009
1.542567e-009
1.008909e-009
4.411730e-010
-6.280264e-011
-4.487813e-010
-7.442735e-010
-1.004131e-009
-1.245281e-009
-1.440899e-009
-1.557082e-009
-1.579501e-009
-1.516285e-009
-1.394161e-009
-1.247175e-009
-1.086615e-009
-8.762675e-010
-5.596533e-010
-1.308894e-010
3.345101e-010
7.469481e-010
1.101386e-009
1.477757e-009
1.923231e-009
2.357746e-009
2.635695e-009
2.701379e-009
2.639771e-009
2.545378e-009
2.373683e-009
1.979871e-009
1.310373e-009
4.976642e-010
-2.791687e-010
-9.872920e-010
-1.705886e-009
-2.374776e-009
-2.664652e-009
-2.218403e-009
-1.057609e-009
3.184149e-010
1.311846e-009
1.699668e-009
1.682670e-009
1.481886e-009
1.005716e-009
4.057135e-011
-1.235069e-009
-2.085634e-009
-1.759997e-009
-2.867052e-010
1.330985e-009
1.858757e-009
9.039817e-010
-6.912839e-010
-1.553804e-009
-9.727216e-010
4.892051e-010
1.510689e-009
1.182999e-009
-2.026949e-010
-1.429486e-009
1.414795e-009
-3.071134e-010
-2.119659e-009
-2.271179e-009
-3.484134e-010
2.330742e-009
3.714920e-009
2.639863e-009
-2.281406e-010
-2.910854e-009
-3.674422e-009
-2.312173e-009
-9.780937e-011
1.441940e-009
1.745328e-009
1.351565e-009
1.017424e-009
8.626448e-010
4.309794e-010
-5.257650e-010
-1.527902e-009
-1.752703e-009
-9.041625e-010
4.144696e-010
1.252156e-009
1.192611e-009
6.422013e-010
2.855919e-010
3.625822e-010
5.284554e-010
3.453813e-010
-2.188168e-010
-8.143773e-010
-1.136269e-009
-1.221522e-009
-1.322310e-009
-1.576535e-009
-1.874781e-009
-2.027287e-009
-1.984616e-009
-1.859520e-009
-1.770871e-009
-1.720721e-009
-1.630898e-009
-1.461696e-009
-1.263267e-009
-1.116817e-009
-1.050514e-009
-1.024482e-009
-9.894644e-010
-9.470615e-010
-9.469338e-010
-1.026796e-009
-1.162028e-009
-1.284023e-009
-1.352114e-009
-1.396602e-009
-1.473716e-009
-1.578838e-009
-1.630227e-009
-1.560606e-009
-1.409269e-009
-1.282589e-009
-1.210592e-009
-1.084118e-009
-7.831178e-010
-3.557646e-010
-2.350770e-012
1.582531e-010
2.554258e-010
5.112087e-010
9.021026e-010
1.067609e-009
6.599526e-010
-2.137464e-010
-9.923488e-010
-1.172278e-009
-7.838031e-010
-2.831257e-010
1.743382e-011
2.907488e-010
8.658883e-010
1.607525e-009
1.805431e-009
8.459439e-010
-9.891838e-010
-2.509961e-009
-2.546564e-009
-9.858858e-010
1.077178e-009
2.227037e-009
1.837150e-009
4.414882e-010
-8.486677e-010
-1.260404e-009
-8.213159e-010
-1.126184e-010
3.195952e-010
3.536457e-010
2.360198e-010
4.358127e-010
4.646616e-011
-4.854067e-010
-7.583189e-010
-4.490768e-010
3.495087e-010
1.042199e-009
9.587767e-010
2.577054e-011
-9.964327e-010
-1.101840e-009
-1.288127e-011
1.416582e-009
1.873771e-009
7.733663e-010
-1.182550e-009
-2.628686e-009
-2.718110e-009
-1.698975e-009
-4.111588e-010
6.278996e-010
1.535258e-009
2.548662e-009
3.431022e-009
3.569304e-009
2.655908e-009
1.119967e-009
-2.302868e-010
-9.649731e-010
-1.349146e-009
-1.908093e-009
-2.782008e-009
-3.591901e-009
-3.899369e-009
-3.679840e-009
-3.288524e-009
-3.028343e-009
-2.851992e-009
-2.501519e-009
-1.857935e-009
-1.078720e-009
-4.070898e-010
7.955124e-011
4.941162e-010
9.530941e-010
1.427010e-009
1.790130e-009
1.976973e-009
2.045239e-009
2.083625e-009
2.095029e-009
2.001752e-009
1.757365e-009
1.416145e-009
1.067662e-009
7.199487e-010
2.894283e-010
-2.745296e-010
-8.856637e-010
-1.388939e-009
-1.738398e-009
-2.056778e-009
-2.468771e-009
-2.893750e-009
-3.078887e-009
-2.879399e-009
-2.454458e-009
-2.096300e-009
-1.852539e-009
-1.411051e-009
-4.556690e-010
8.786126e-010
2.009388e-009
2.428271e-009
2.169456e-009
1.679667e-009
1.247023e-009
6.947540e-010
-2.601450e-010
-1.414810e-009
-2.034563e-009
-1.528600e-009
-1.460348e-010
1.113513e-009
1.353493e-009
5.485587e-010
-5.212430e-010
-1.030733e-009
-7.599824e-010
-7.404440e-011
5.566811e-010
8.946531e-010
8.779918e-010
4.585190e-010
-3.238256e-010
-1.131846e-009
-1.390853e-009
-7.448665e-010
5.029766e-010
1.496972e-009
-1.288472e-009
3.492839e-010
1.913259e-009
1.786772e-009
-5.389269e-011
-2.097553e-009
-2.732266e-009
-1.614190e-009
2.626357e-010
1.660233e-009
2.127184e-009
1.997008e-009
1.609014e-009
8.115570e-010
-6.579366e-010
-2.454782e-009
-3.562903e-009
-3.117342e-009
-1.268732e-009
8.746243e-010
2.197459e-009
2.430188e-009
2.079058e-009
1.667722e-009
1.222943e-009
5.130238e-010
-4.055846e-010
-1.092508e-009
-1.196491e-009
-8.753254e-010
-6.186363e-010
-6.841419e-010
-8.272300e-010
-6.278714e-010
2.661956e-012
7.344140e-010
1.213830e-009
1.440773e-009
1.699587e-009
2.177480e-009
2.747346e-009
3.143022e-009
3.273098e-009
3.293432e-009
3.389994e-009
3.566606e-009
3.683708e-009
3.661974e-009
3.578836e-009
3.552229e-009
3.583732e-009
3.569066e-009
3.451111e-009
3.301171e-009
3.213364e-009
3.153652e-009
2.979030e-009
2.622912e-009
2.206261e-009
1.903879e-009
1.712732e-009
1.429617e-009
9.059673e-010
2.771746e-010
-1.514225e-010
-2.658743e-010
-3.087426e-010
-5.987038e-010
-1.105982e-009
-1.410795e-009
-1.140793e-009
-3.886509e-010
3.951717e-010
9.059929e-010
1.256060e-009
1.668603e-009
1.994999e-009
1.722641e-009
5.553175e-010
-1.092497e-009
-2.311108e-009
-2.443245e-009
-1.579023e-009
-3.280714e-010
7.692116e-010
1.501225e-009
1.760228e-009
1.341506e-009
1.935109e-010
-1.173788e-009
-1.806817e-009
-1.101957e-009
4.683579e-010
1.583644e-009
1.228967e-009
-2.959655e-010
-1.573461e-009
-1.377978e-009
1.391351e-010
1.565736e-009
-2.842794e-009
7.134655e-011
3.117271e-009
3.483774e-009
7.690387e-010
-2.767182e-009
-4.243652e-009
-2.609700e-009
6.336608e-010
2.934126e-009
2.892355e-009
1.160729e-009
-5.612696e-010
-1.195634e-009
-9.482090e-010
-5.710414e-010
-3.269631e-010
1.297999e-010
9.870827e-010
1.717624e-009
1.498429e-009
1.336993e-010
-1.618882e-009
-2.713817e-009
-2.727636e-009
-2.045513e-009
-1.249387e-009
-5.085809e-010
3.732816e-010
1.474733e-009
2.533029e-009
3.240333e-009
3.617612e-009
3.960458e-009
4.440708e-009
4.886898e-009
5.010899e-009
4.771694e-009
4.417503e-009
4.178878e-009
4.016167e-009
3.722213e-009
3.218488e-009
2.662795e-009
2.256918e-009
2.022743e-009
1.824728e-009
1.579798e-009
1.366990e-009
1.307483e-009
1.396545e-009
1.519127e-009
1.619007e-009
1.778737e-009
2.091586e-009
2.499645e-009
2.833693e-009
3.021964e-009
3.188436e-009
3.484108e-009
3.852475e-009
4.050031e-009
3.930869e-009
3.641327e-009
3.448335e-009
3.387071e-009
3.175676e-009
2.535090e-009
1.533803e-009
5.236932e-010
-2.528690e-010
-8.726346e-010
-1.479352e-009
-1.915799e-009
-1.780195e-009
-9.137887e-010
2.711039e-010
1.077661e-009
1.138730e-009
6.597666e-010
5.574817e-011
-4.964318e-010
-1.007255e-009
-1.271976e-009
-8.162061e-010
5.264856e-010
2.047962e-009
2.479107e-009
1.138705e-009
-1.199349e-009
-2.759106e-009
-2.281299e-009
-1.901760e-010
1.757309e-009
2.043657e-009
6.998325e-010
-8.568527e-010
-1.231780e-009
-3.255723e-010
7.098227e-010
-2.698987e-009
-4.985323e-010
1.990217e-009
2.712857e-009
1.158787e-009
-1.234881e-009
-2.335358e-009
-1.207361e-009
1.020050e-009
2.165866e-009
1.025010e-009
-1.478776e-009
-3.131780e-009
-2.455569e-009
3.750181e-011
2.489833e-009
3.442083e-009
2.878669e-009
1.716678e-009
6.000104e-010
-5.681692e-010
-2.005392e-009
-3.325553e-009
-3.707512e-009
-2.758918e-009
-1.005096e-009
5.902373e-010
1.506096e-009
1.968495e-009
2.452609e-009
3.074579e-009
3.559867e-009
3.684016e-009
3.553246e-009
3.411941e-009
3.307497e-009
3.068562e-009
2.582240e-009
1.969189e-009
1.436023e-009
1.030323e-009
6.270554e-010
1.388845e-010
-3.495402e-010
-6.935058e-010
-8.748805e-010
-1.007883e-009
-1.171610e-009
-1.309152e-009
-1.324336e-009
-1.226345e-009
-1.113216e-009
-1.021577e-009
-8.644591e-010
-5.556939e-010
-1.486067e-010
2.173715e-010
5.034285e-010
8.304777e-010
1.307592e-009
1.850057e-009
2.248416e-009
2.422163e-009
2.523967e-009
2.736166e-009
3.014143e-009
3.122639e-009
2.926247e-009
2.537590e-009
2.105398e-009
1.534564e-009
5.727211e-010
-7.767836e-010
-2.046134e-009
-2.640539e-009
-2.375594e-009
-1.574508e-009
-6.251160e-010
3.975232e-010
1.521690e-009
2.390072e-009
2.287950e-009
8.947919e-010
-1.053800e-009
-2.133222e-009
-1.481234e-009
3.060321e-010
1.642658e-009
1.399054e-009
-9.664193e-011
-1.458118e-009
-1.565954e-009
-4.929578e-010
7.540071e-010
1.242250e-009
8.397256e-010
1.027095e-010
-3.654913e-010
-4.054045e-010
-2.769455e-010
-2.024771e-010
-5.866114e-010
-7.575290e-010
-3.153647e-010
4.673598e-010
1.012944e-009
1.109262e-009
9.966574e-010
8.079820e-010
2.149697e-010
-1.092234e-009
-2.619056e-009
-3.103998e-009
-1.658454e-009
1.112960e-009
3.355026e-009
3.521558e-009
1.722959e-009
-5.042387e-010
-1.693630e-009
-1.606149e-009
-9.722722e-010
-3.878701e-010
2.530922e-010
1.262732e-009
2.423760e-009
3.031233e-009
2.654024e-009
1.643788e-009
7.691080e-010
4.353439e-010
3.943827e-010
1.861896e-010
-3.040184e-010
-8.095607e-010
-1.087578e-009
-1.195900e-009
-1.345994e-009
-1.606292e-009
-1.851317e-009
-1.963831e-009
-1.980084e-009
-2.006937e-009
-2.069721e-009
-2.107320e-009
-2.089266e-009
-2.065222e-009
-2.084160e-009
-2.120127e-009
-2.118354e-009
-2.083659e-009
-2.069683e-009
-2.084270e-009
-2.061519e-009
-1.954275e-009
-1.811856e-009
-1.715377e-009
-1.653052e-009
-1.524283e-009
-1.286840e-009
-1.040644e-009
-9.078152e-010
-8.591199e-010
-7.397982e-010
-4.805416e-010
-1.950407e-010
5.365591e-012
2.359789e-010
7.406972e-010
1.522951e-009
2.183035e-009
2.252600e-009
1.679114e-009
8.592405e-010
1.616263e-010
-4.386598e-010
-1.104989e-009
-1.600425e-009
-1.285553e-009
1.410825e-010
1.982309e-009
2.888650e-009
2.045594e-009
-3.865169e-012
-1.804956e-009
-2.258530e-009
-1.423455e-009
-1.726142e-010
7.182877e-010
1.036884e-009
8.974794e-010
4.005815e-010
-3.070999e-010
-8.259937e-010
-6.936585e-010
8.120859e-011
8.306260e-010
8.004875e-010
-3.812493e-011
-8.773393e-010
3.213741e-009
5.151374e-011
-3.142608e-009
-3.439511e-009
-7.707648e-010
2.320280e-009
3.284121e-009
1.787064e-009
-4.604639e-010
-1.664505e-009
-1.461907e-009
-6.552407e-010
4.126159e-011
5.914720e-010
1.084051e-009
1.107331e-009
1.056242e-010
-1.675271e-009
-2.978268e-009
-2.565706e-009
-4.398857e-010
2.122844e-009
3.766486e-009
4.151637e-009
3.852052e-009
3.406842e-009
2.760361e-009
1.649050e-009
2.530445e-010
-8.116528e-010
-1.143830e-009
-1.000917e-009
-9.877271e-010
-1.398382e-009
-1.993943e-009
-2.398855e-009
-2.563620e-009
-2.761099e-009
-3.217955e-009
-3.879331e-009
-4.542679e-009
-5.117165e-009
-5.680434e-009
-6.324397e-009
-7.027848e-009
-7.691612e-009
-8.240566e-009
-8.655149e-009
-8.933206e-009
-9.064607e-009
-9.039703e-009
-8.850547e-009
-8.481149e-009
-7.927065e-009
-7.234610e-009
-6.488498e-009
-5.735530e-009
-4.947008e-009
-4.098224e-009
-3.270653e-009
-2.611014e-009
-2.164251e-009
-1.808666e-009
-1.425049e-009
-1.096977e-009
-1.030466e-009
-1.226826e-009
-1.329190e-009
-9.211004e-010
2.152853e-011
1.088746e-009
1.891640e-009
2.440599e-009
2.931964e-009
3.219029e-009
2.749467e-009
1.217678e-009
-8.008005e-010
-2.109652e-009
-1.925373e-009
-6.009219e-010
7.471101e-010
1.261735e-009
9.071332e-010
1.344665e-010
-6.918758e-010
-1.351054e-009
-1.469726e-009
-6.291759e-010
9.890084e-010
2.286042e-009
2.022273e-009
1.349553e-010
-1.889947e-009
-2.280267e-009
-7.368733e-010
1.193805e-009
1.656375e-009
3.792299e-010
-1.092913e-009
4.783400e-009
7.344108e-010
-3.504423e-009
-4.238512e-009
-1.265917e-009
2.248078e-009
3.001572e-009
6.458147e-010
-2.173431e-009
-2.611030e-009
-3.225769e-010
2.503097e-009
3.473940e-009
2.109892e-009
-2.226036e-010
-1.994698e-009
-2.743461e-009
-2.759411e-009
-2.137704e-009
-6.301156e-010
1.609946e-009
3.600949e-009
4.216523e-009
3.267870e-009
1.689298e-009
5.970100e-010
3.144536e-010
3.948695e-010
4.044003e-010
4.024242e-010
6.142816e-010
8.788606e-010
6.615178e-010
-3.982227e-010
-2.131290e-009
-4.110328e-009
-6.171608e-009
-8.546620e-009
-1.150368e-008
-1.498736e-008
-1.866765e-008
-2.226769e-008
-2.574765e-008
-2.917355e-008
-3.249151e-008
-3.548217e-008
-3.790708e-008
-3.965119e-008
-4.072202e-008
-4.114646e-008
-4.089101e-008
-3.987857e-008
-3.807708e-008
-3.557336e-008
-3.255114e-008
-2.917964e-008
-2.552853e-008
-2.162476e-008
-1.760237e-008
-1.374473e-008
-1.031390e-008
-7.346481e-009
-4.698765e-009
-2.337488e-009
-5.143257e-010
4.582878e-010
6.099372e-010
3.819006e-010
2.248662e-010
2.064336e-010
1.419162e-010
7.857001e-011
4.342232e-010
1.487415e-009
2.808657e-009
3.432637e-009
2.721847e-009
9.891224e-010
-8.136815e-010
-1.933966e-009
-2.217775e-009
-1.789750e-009
-7.057321e-010
8.161419e-010
2.004312e-009
1.873566e-009
2.771239e-010
-1.541564e-009
-1.877949e-009
-2.865080e-010
1.763093e-009
2.221895e-009
5.455534e-010
-1.679979e-009
-2.316918e-009
-8.452775e-010
1.153184e-009
1.689637e-009
4.277312e-010
-1.060010e-009
2.834480e-009
6.359509e-010
-1.679192e-009
-2.076010e-009
-4.504689e-010
1.300151e-009
1.159578e-009
-9.106088e-010
-2.779263e-009
-2.219382e-009
7.435424e-010
3.656715e-009
3.938124e-009
1.349079e-009
-1.862686e-009
-3.183992e-009
-2.034187e-009
1.812103e-010
1.806031e-009
2.343779e-009
2.238042e-009
1.809723e-009
8.999741e-010
-4.857943e-010
-1.656698e-009
-1.721782e-009
-5.443936e-010
1.027178e-009
1.931364e-009
1.729385e-009
5.955530e-010
-1.331950e-009
-4.322235e-009
-8.738261e-009
-1.456280e-008
-2.141885e-008
-2.901697e-008
-3.741284e-008
-4.675931e-008
-5.690536e-008
-6.735090e-008
-7.757936e-008
-8.733899e-008
-9.656550e-008
-1.051021e-007
-1.125812e-007
-1.185880e-007
-1.228890e-007
-1.254673e-007
-1.263561e-007
-1.254821e-007
-1.226973e-007
-1.179599e-007
-1.114578e-007
-1.035319e-007
-9.447962e-008
-8.447094e-008
-7.369080e-008
-6.253686e-008
-5.159167e-008
-4.133800e-008
-3.193233e-008
-2.333322e-008
-1.565091e-008
-9.265945e-009
-4.521781e-009
-1.359414e-009
6.143232e-010
1.684484e-009
1.806648e-009
9.567666e-010
-3.798640e-010
-1.295399e-009
-1.157705e-009
-1.439248e-010
1.017982e-009
1.757743e-009
1.961276e-009
1.638649e-009
6.562725e-010
-8.997905e-010
-2.225966e-009
-2.148079e-009
-3.173089e-010
2.048280e-009
3.005088e-009
1.705576e-009
-6.934555e-010
-2.107094e-009
-1.524385e-009
1.374594e-010
1.136902e-009
6.942832e-010
-4.084144e-010
-8.675716e-010
-2.664453e-010
6.218850e-010
7.918969e-010
9.081655e-011
-6.843611e-010
-1.451705e-009
-1.801282e-010
1.117535e-009
1.404420e-009
7.553788e-010
-1.003620e-010
-7.276282e-010
-1.140372e-009
-1.222331e-009
-5.777030e-010
7.452955e-010
1.727763e-009
1.169754e-009
-8.091467e-010
-2.423081e-009
-1.805429e-009
1.013684e-009
3.953845e-009
4.817910e-009
3.256187e-009
7.654057e-010
-9.913280e-010
-1.538877e-009
-1.364587e-009
-8.801861e-010
-7.207161e-011
8.785892e-010
1.082741e-009
-6.290221e-010
-4.839993e-009
-1.132185e-008
-1.966995e-008
-2.995199e-008
-4.261343e-008
-5.788527e-008
-7.549326e-008
-9.495471e-008
-1.159674e-007
-1.383651e-007
-1.617598e-007
-1.853979e-007
-2.084313e-007
-2.302595e-007
-2.505361e-007
-2.688890e-007
-2.847412e-007
-2.974558e-007
-3.066131e-007
-3.120832e-007
-3.138309e-007
-3.117109e-007
-3.055117e-007
-2.952014e-007
-2.810866e-007
-2.636950e-007
-2.435275e-007
-2.209894e-007
-1.965960e-007
-1.711824e-007
-1.458008e-007
-1.213534e-007
-9.836518e-008
-7.714991e-008
-5.812399e-008
-4.180884e-008
-2.847667e-008
-1.791743e-008
-9.705555e-009
-3.680261e-009
-1.242621e-012
1.351618e-009
1.012967e-009
9.677510e-012
-8.716020e-010
-1.348681e-009
-1.301514e-009
-4.772692e-010
1.157879e-009
2.856381e-009
3.329470e-009
1.927442e-009
-4.573021e-010
-1.978155e-009
-1.517874e-009
2.700313e-010
1.673512e-009
1.580679e-009
3.328969e-010
-9.180120e-010
-1.380972e-009
-1.063543e-009
-3.597887e-010
3.949632e-010
9.272782e-010
9.474097e-010
3.880342e-010
-3.405585e-010
-6.213243e-010
-2.779046e-010
1.953057e-010
-4.889056e-009
-7.693135e-010
3.309046e-009
3.744782e-009
9.140664e-010
-1.813299e-009
-1.882783e-009
1.218312e-010
1.742530e-009
1.480609e-009
-6.122336e-011
-1.445397e-009
-1.993129e-009
-1.847516e-009
-1.049605e-009
6.470077e-010
2.910384e-009
4.394228e-009
3.794044e-009
1.369229e-009
-9.868672e-010
-1.442441e-009
1.001512e-010
2.093344e-009