# vtk DataFile Version 3.0
vtk output
ASCII
DATASET STRUCTURED_POINTS
DIMENSIONS 100 100 1
SPACING 1 1 1
ORIGIN 0 0 0
POINT_DATA 10000
SCALARS SFBox_profile double
LOOKUP_TABLE default 
0.000000e+000
0.000000e+000
0.000000e+000
0.000000e+000
0.000000e+000
0.000000e+000
0.000000e+000
0.000000e+000
0.000000e+000
0.000000e+000
0.000000e+000
0.000000e+000
0.000000e+000
0.000000e+000
0.000000e+000
0.000000e+000
0.000000e+000
0.000000e+000
0.000000e+000
0.000000e+000
0.000000e+000
0.000000e+000
0.000000e+000
0.000000e+000
0.000000e+000
0.000000e+000
0.000000e+000
0.000000e+000
0.000000e+000
0.000000e+000
0.000000e+000
0.000000e+000
0.000000e+000
0.000000e+000
0.000000e+000
0.000000e+000
0.000000e+000
0.000000e+000
0.000000e+000
0.000000e+000
0.000000e+000
0.000000e+000
0.000000e+000
0.000000e+000
0.000000e+000
0.000000e+000
0.000000e+000
0.000000e+000
0.000000e+000
0.000000e+000
0.000000e+000
0.000000e+000
0.000000e+000
0.000000e+000
0.000000e+000
0.000000e+000
0.000000e+000
0.000000e+000
0.000000e+000
0.000000e+000
0.000000e+000
0.000000e+000
0.000000e+000
0.000000e+000
0.000000e+000
0.000000e+000
0.000000e+000
0.000000e+000
0.000000e+000
0.000000e+000
0.000000e+000
0.000000e+000
0.000000e+000
0.000000e+000
0.000000e+000
0.000000e+000
0.000000e+000
0.000000e+000
0.000000e+000
0.000000e+000
0.000000e+000
0.000000e+000
0.000000e+000
0.000000e+000
0.000000e+000
0.000000e+000
0.000000e+000
0.000000e+000
0.000000e+000
0.000000e+000
0.000000e+000
0.000000e+000
0.000000e+000
0.000000e+000
0.000000e+000
0.000000e+000
0.000000e+000
0.000000e+000
0.000000e+000
0.000000e+000
-2.303619e-007
-1.580245e-007
-4.835780e-008
4.812296e-008
9.265632e-008
7.713824e-008
2.425381e-008
-2.956658e-008
-5.634988e-008
-4.988965e-008
-2.343705e-008
3.821248e-009
2.023079e-008
2.582423e-008
2.648954e-008
2.539037e-008
1.985359e-008
5.819051e-009
-1.539845e-008
-3.524338e-008
-4.325235e-008
-3.494924e-008
-1.522664e-008
5.673113e-009
1.977785e-008
2.592856e-008
2.794004e-008
2.913354e-008
2.887893e-008
2.407634e-008
1.334017e-008
-7.425449e-010
-1.347290e-008
-2.185180e-008
-2.643163e-008
-2.966442e-008
-3.286994e-008
-3.505098e-008
-3.446494e-008
-3.088432e-008
-2.601759e-008
-2.182933e-008
-1.878996e-008
-1.593458e-008
-1.242606e-008
-8.697427e-009
-5.937794e-009
-4.706087e-009
-4.397511e-009
-4.141489e-009
-3.948886e-009
-4.672729e-009
-6.853679e-009
-9.921047e-009
-1.279168e-008
-1.515872e-008
-1.783429e-008
-2.160266e-008
-2.590234e-008
-2.900850e-008
-2.967456e-008
-2.836590e-008
-2.652932e-008
-2.460650e-008
-2.113591e-008
-1.424146e-008
-4.069119e-009
6.589545e-009
1.444684e-008
1.849723e-008
2.037245e-008
2.175508e-008
2.168691e-008
1.701687e-008
5.977774e-009
-8.694331e-009
-2.064358e-008
-2.444153e-008
-1.965433e-008
-1.058206e-008
-2.060856e-009
4.393648e-009
1.030157e-008
1.640019e-008
1.973370e-008
1.535919e-008
1.651599e-009
-1.589513e-008
-2.677419e-008
-2.277823e-008
-4.878332e-009
1.622455e-008
2.695440e-008
2.030355e-008
8.871430e-010
-1.814903e-008
-2.415697e-008
-1.356100e-008
5.911725e-009
2.070063e-008
-4.631861e-008
-3.023955e-008
-6.520030e-009
1.281483e-008
1.903726e-008
1.155069e-008
-2.284698e-009
-1.224646e-008
-1.197203e-008
-2.823628e-009
7.705329e-009
1.178479e-008
6.918742e-009
-2.689598e-009
-9.871775e-009
-1.011744e-008
-4.534115e-009
1.960402e-009
5.202670e-009
4.925138e-009
3.928624e-009
4.553141e-009
6.104462e-009
5.688193e-009
1.417346e-009
-5.336406e-009
-1.089359e-008
-1.241366e-008
-1.012386e-008
-6.590131e-009
-4.009212e-009
-2.336853e-009
4.032149e-011
4.101349e-009
8.911502e-009
1.251600e-008
1.386944e-008
1.368627e-008
1.343622e-008
1.374300e-008
1.394194e-008
1.311404e-008
1.127525e-008
9.375115e-009
8.232522e-009
7.728171e-009
7.155164e-009
6.204312e-009
5.355514e-009
5.245538e-009
5.854342e-009
6.542787e-009
6.882937e-009
7.214233e-009
8.189327e-009
9.847446e-009
1.139334e-008
1.203195e-008
1.188103e-008
1.179931e-008
1.223891e-008
1.247794e-008
1.125796e-008
8.217844e-009
4.472839e-009
1.554723e-009
-1.808957e-010
-1.841787e-009
-4.530563e-009
-7.706620e-009
-9.315927e-009
-7.761292e-009
-3.691203e-009
3.770702e-010
2.336566e-009
2.337895e-009
2.261517e-009
3.380435e-009
4.744834e-009
4.109302e-009
5.314259e-010
-4.087086e-009
-6.293914e-009
-4.158039e-009
7.908482e-010
4.678309e-009
4.523797e-009
7.122084e-010
-3.443780e-009
-4.554719e-009
-1.885174e-009
2.264581e-009
4.605944e-009
3.459167e-009
-1.572617e-010
-3.542084e-009
-4.377304e-009
-2.245998e-009
1.298577e-009
3.897742e-009
1.736652e-007
1.207932e-007
4.011621e-008
-3.228718e-008
-6.859174e-008
-6.206470e-008
-2.677286e-008
1.372094e-008
4.013110e-008
4.523577e-008
3.286561e-008
1.163892e-008
-1.066063e-008
-2.876550e-008
-3.879012e-008
-3.754832e-008
-2.400494e-008
-1.400045e-009
2.274235e-008
3.974600e-008
4.410547e-008
3.584417e-008
1.941747e-008
5.002858e-010
-1.666727e-008
-2.984087e-008
-3.786339e-008
-3.992022e-008
-3.576825e-008
-2.633383e-008
-1.366669e-008
-8.130628e-011
1.273480e-008
2.389861e-008
3.289457e-008
3.922225e-008
4.254095e-008
4.301339e-008
4.131205e-008
3.821230e-008
3.421630e-008
2.958428e-008
2.462768e-008
1.982692e-008
1.561910e-008
1.215518e-008
9.359026e-009
7.211848e-009
5.889781e-009
5.585078e-009
6.266037e-009
7.709922e-009
9.771507e-009
1.252218e-008
1.605365e-008
2.018659e-008
2.446738e-008
2.846818e-008
3.199797e-008
3.492993e-008
3.685743e-008
3.705611e-008
3.488357e-008
3.020142e-008
2.335743e-008
1.480715e-008
4.913867e-009
-5.762665e-009
-1.604370e-008
-2.419669e-008
-2.859950e-008
-2.841984e-008
-2.371471e-008
-1.507151e-008
-3.469541e-009
9.321699e-009
2.039908e-008
2.633985e-008
2.483134e-008
1.618507e-008
3.420733e-009
-9.226123e-009
-1.816043e-008
-2.132311e-008
-1.802757e-008
-8.782502e-009
4.161349e-009
1.626926e-008
2.177167e-008
1.679744e-008
2.762924e-009
-1.304216e-008
-2.120504e-008
-1.636478e-008
-1.402916e-009
1.388953e-008
1.927544e-008
1.124544e-008
-4.369884e-009
-1.644238e-008
2.551366e-007
1.734006e-007
5.070298e-008
-5.500986e-008
-1.009335e-007
-8.056039e-008
-2.184231e-008
3.416115e-008
5.864600e-008
4.816250e-008
1.942229e-008
-7.026089e-009
-2.072334e-008
-2.370128e-008
-2.277977e-008
-2.081889e-008
-1.492085e-008
-1.845343e-009
1.594827e-008
3.015966e-008
3.271356e-008
2.227812e-008
5.243256e-009
-9.459847e-009
-1.678167e-008
-1.775193e-008
-1.642248e-008
-1.528987e-008
-1.357821e-008
-9.280182e-009
-2.141724e-009
5.602075e-009
1.115772e-008
1.347816e-008
1.365000e-008
1.333023e-008
1.309911e-008
1.231540e-008
1.026765e-008
7.173261e-009
4.023158e-009
1.635426e-009
1.791217e-011
-1.375113e-009
-2.917010e-009
-4.432509e-009
-5.484652e-009
-5.903119e-009
-5.948741e-009
-5.978429e-009
-6.028689e-009
-5.791771e-009
-4.997087e-009
-3.748521e-009
-2.411406e-009
-1.158736e-009
2.864934e-010
2.349307e-009
5.021473e-009
7.680633e-009
9.608936e-009
1.068451e-008
1.140373e-008
1.208587e-008
1.213515e-008
1.035687e-008
6.207438e-009
6.609954e-010
-4.422378e-009
-7.928978e-009
-1.033530e-008
-1.264584e-008
-1.446222e-008
-1.350151e-008
-7.598661e-009
2.527590e-009
1.271413e-008
1.805629e-008
1.659641e-008
1.048397e-008
3.499818e-009
-2.439848e-009
-8.085450e-009
-1.414092e-008
-1.822122e-008
-1.548128e-008
-3.318926e-009
1.407678e-008
2.643844e-008
2.423739e-008
6.663267e-009
-1.609569e-008
-2.906125e-008
-2.308315e-008
-1.876647e-009
2.011606e-008
2.777042e-008
1.599196e-008
-6.675921e-009
-2.413769e-008
1.378450e-007
8.862075e-008
1.706261e-008
-3.941720e-008
-5.527081e-008
-3.106726e-008
9.228902e-009
3.561528e-008
3.199325e-008
5.156530e-009
-2.266589e-008
-3.128403e-008
-1.667541e-008
8.248419e-009
2.538183e-008
2.527438e-008
1.214289e-008
-2.507769e-009
-1.054020e-008
-1.243589e-008
-1.361738e-008
-1.688004e-008
-1.890852e-008
-1.396295e-008
-4.497681e-010
1.646389e-008
2.869322e-008
3.158909e-008
2.676233e-008
1.925931e-008
1.250989e-008
6.065830e-009
-2.298145e-009
-1.303532e-008
-2.370912e-008
-3.114425e-008
-3.423586e-008
-3.448781e-008
-3.405686e-008
-3.363283e-008
-3.229317e-008
-2.911541e-008
-2.454515e-008
-2.007811e-008
-1.681560e-008
-1.459387e-008
-1.256133e-008
-1.039629e-008
-8.735058e-009
-8.400350e-009
-9.421291e-009
-1.102184e-008
-1.256836e-008
-1.431405e-008
-1.700619e-008
-2.078255e-008
-2.468968e-008
-2.748946e-008
-2.887824e-008
-2.963620e-008
-3.039338e-008
-3.040363e-008
-2.791757e-008
-2.199759e-008
-1.380828e-008
-5.756210e-009
7.768926e-010
6.570080e-009
1.306491e-008
1.972735e-008
2.339058e-008
2.083184e-008
1.222140e-008
1.718818e-009
-5.791750e-009
-8.708400e-009
-9.323711e-009
-1.038477e-008
-1.137485e-008
-8.816160e-009
-6.542520e-010
9.887295e-009
1.560845e-008
1.138953e-008
-5.142986e-010
-1.134564e-008
-1.274650e-008
-3.811882e-009
7.989628e-009
1.295192e-008
7.082072e-009
-4.807035e-009
-1.320406e-008
-1.153490e-008
-1.108053e-009
1.022194e-008
1.416026e-008
7.989312e-009
-3.756849e-009
-1.275152e-008
-8.127843e-008
-6.159804e-008
-2.950467e-008
4.124100e-009
2.937617e-008
4.001191e-008
3.395584e-008
1.329979e-008
-1.509842e-008
-3.983292e-008
-4.843556e-008
-3.408685e-008
-1.399831e-009
3.412934e-008
5.441398e-008
4.976440e-008
2.451326e-008
-6.981305e-009
-3.050827e-008
-4.012934e-008
-3.851153e-008
-3.098544e-008
-1.998065e-008
-4.886445e-009
1.381610e-008
3.161013e-008
4.189876e-008
4.102514e-008
3.118255e-008
1.827403e-008
6.969196e-009
-2.185412e-009
-1.122909e-008
-2.108895e-008
-2.984852e-008
-3.455029e-008
-3.421469e-008
-3.072648e-008
-2.683950e-008
-2.366063e-008
-2.025113e-008
-1.543524e-008
-9.551842e-009
-4.233009e-009
-6.830471e-010
1.449542e-009
3.380016e-009
5.617040e-009
7.387438e-009
7.649160e-009
6.389950e-009
4.625563e-009
3.121195e-009
1.421643e-009
-1.580284e-009
-6.176653e-009
-1.126884e-008
-1.546722e-008
-1.860452e-008
-2.177204e-008
-2.566489e-008
-2.913541e-008
-2.983213e-008
-2.645706e-008
-2.014030e-008
-1.322362e-008
-6.694072e-009
7.323837e-010
1.055135e-008
2.156222e-008
2.954516e-008
3.036701e-008
2.354704e-008
1.256900e-008
1.602822e-009
-7.805517e-009
-1.648548e-008
-2.428206e-008
-2.774593e-008
-2.219171e-008
-6.708482e-009
1.291297e-008
2.687867e-008
2.798106e-008
1.657142e-008
-1.398191e-010
-1.342381e-008
-1.830481e-008
-1.501200e-008
-6.864665e-009
2.395041e-009
9.637523e-009
1.228889e-008
8.933376e-009
8.126024e-010
-7.649293e-009
-1.101695e-008
-6.791311e-009
2.161003e-009
9.295978e-009
-2.330260e-007
-1.582692e-007
-4.711667e-008
4.726923e-008
8.777782e-008
7.114580e-008
2.299771e-008
-2.302669e-008
-4.560388e-008
-4.273001e-008
-2.486067e-008
-3.602309e-009
1.439188e-008
2.626926e-008
2.966426e-008
2.261011e-008
6.632998e-009
-1.155837e-008
-2.315104e-008
-2.312144e-008
-1.358711e-008
-1.493291e-009
7.032252e-009
1.039376e-008
1.050845e-008
9.190758e-009
6.215049e-009
7.555077e-010
-6.138188e-009
-1.134367e-008
-1.216888e-008
-8.757472e-009
-3.713680e-009
5.860163e-010
4.029340e-009
8.095365e-009
1.352164e-008
1.908166e-008
2.276679e-008
2.386762e-008
2.355281e-008
2.341291e-008
2.376492e-008
2.363060e-008
2.223336e-008
2.012351e-008
1.861999e-008
1.833331e-008
1.859120e-008
1.842091e-008
1.782946e-008
1.778887e-008
1.895497e-008
2.072738e-008
2.185305e-008
2.186076e-008
2.153535e-008
2.177355e-008
2.218779e-008
2.124997e-008
1.796366e-008
1.312643e-008
8.587030e-009
5.253651e-009
2.207631e-009
-1.902317e-009
-6.724779e-009
-9.916351e-009
-9.280327e-009
-5.072705e-009
1.187670e-010
3.823965e-009
5.710875e-009
6.933798e-009
7.738895e-009
6.402833e-009
1.102408e-009
-7.193882e-009
-1.421465e-008
-1.530013e-008
-9.124733e-009
1.294203e-009
1.100624e-008
1.631834e-008
1.591692e-008
9.938958e-009
-6.431212e-010
-1.299031e-008
-2.148578e-008
-1.982409e-008
-6.083959e-009
1.342541e-008
2.636264e-008
2.272177e-008
3.340395e-009
-1.902933e-008
-2.828667e-008
-1.721109e-008
6.410651e-009
2.517593e-008
-2.113101e-007
-1.329210e-007
-2.141906e-008
6.239780e-008
8.085860e-008
4.041527e-008
-1.812946e-008
-5.096173e-008
-4.046357e-008
-2.281913e-009
3.169075e-008
3.864357e-008
1.883388e-008
-9.815829e-009
-2.843996e-008
-3.009391e-008
-1.997641e-008
-6.587225e-009
5.917848e-009
1.777486e-008
2.857830e-008
3.428402e-008
2.988241e-008
1.458129e-008
-6.305158e-009
-2.479809e-008
-3.553005e-008
-3.798295e-008
-3.448114e-008
-2.697441e-008
-1.602897e-008
-2.248606e-009
1.238511e-008
2.514683e-008
3.436203e-008
4.018330e-008
4.356386e-008
4.482775e-008
4.353072e-008
3.955260e-008
3.386009e-008
2.792227e-008
2.252107e-008
1.742433e-008
1.224877e-008
7.352475e-009
3.631182e-009
1.538741e-009
6.348353e-010
2.524445e-010
4.167266e-010
1.818505e-009
4.867566e-009
9.051294e-009
1.344750e-008
1.774564e-008
2.243357e-008
2.784351e-008
3.324012e-008
3.715906e-008
3.866076e-008
3.797384e-008
3.572172e-008
3.172592e-008
2.499425e-008
1.506914e-008
3.156396e-009
-8.388154e-009
-1.766543e-008
-2.403242e-008
-2.723683e-008
-2.625262e-008
-1.974332e-008
-8.064950e-009
5.509311e-009
1.621456e-008
2.084873e-008
1.944710e-008
1.401978e-008
6.164762e-009
-3.376733e-009
-1.275628e-008
-1.769415e-008
-1.381428e-008
-1.455682e-009
1.211944e-008
1.690086e-008
8.369502e-009
-7.474722e-009
-1.781844e-008
-1.337856e-008
3.249545e-009
1.888990e-008
2.028698e-008
5.247798e-009
-1.501825e-008
-2.457610e-008
-1.551261e-008
5.578268e-009
2.262605e-008
-4.627903e-008
-1.593751e-008
2.202836e-008
3.880017e-008
2.091266e-008
-1.901604e-008
-5.064963e-008
-4.802152e-008
-9.340315e-009
4.060383e-008
6.785083e-008
5.366541e-008
7.467434e-009
-4.112731e-008
-6.406524e-008
-5.303348e-008
-2.102804e-008
1.116205e-008
3.037768e-008
3.617894e-008
3.452208e-008
2.898455e-008
1.846634e-008
1.868872e-009
-1.707593e-008
-3.078645e-008
-3.358833e-008
-2.611413e-008
-1.406539e-008
-3.102737e-009
4.876159e-009
1.107901e-008
1.662304e-008
2.068405e-008
2.155021e-008
1.871660e-008
1.345742e-008
7.523962e-009
1.734481e-009
-4.060798e-009
-1.001919e-008
-1.573169e-008
-2.060041e-008
-2.444909e-008
-2.753415e-008
-3.007024e-008
-3.198614e-008
-3.316863e-008
-3.372507e-008
-3.384041e-008
-3.347064e-008
-3.237893e-008
-3.049484e-008
-2.805300e-008
-2.525204e-008
-2.189952e-008
-1.760901e-008
-1.236557e-008
-6.693773e-009
-1.141467e-009
4.233322e-009
9.584477e-009
1.448114e-008
1.771822e-008
1.821986e-008
1.604196e-008
1.213608e-008
7.040840e-009
2.476690e-010
-8.575008e-009
-1.769879e-008
-2.331547e-008
-2.214824e-008
-1.431330e-008
-3.297606e-009
7.102362e-009
1.550399e-008
2.217448e-008
2.581630e-008
2.238288e-008
8.665527e-009
-1.225866e-008
-2.998974e-008
-3.310833e-008
-1.839082e-008
5.368939e-009
2.314259e-008
2.470779e-008
1.175993e-008
-4.574688e-009
-1.307863e-008
-1.046499e-008
-2.013974e-009
4.341133e-009
4.569368e-009
5.423346e-010
-2.977552e-009
-2.831788e-009
3.344499e-010
3.297313e-009
1.354328e-007
9.894690e-008
4.224634e-008
-1.184019e-008
-4.580586e-008
-5.345726e-008
-3.834588e-008
-9.278115e-009
2.238424e-008
4.394911e-008
4.479439e-008
2.274914e-008
-1.155597e-008
-3.865407e-008
-4.238595e-008
-2.158489e-008
8.801066e-009
2.891029e-008
2.842100e-008
1.234432e-008
-5.681489e-009
-1.528272e-008
-1.557969e-008
-1.173803e-008
-7.437398e-009
-1.602636e-009
8.182754e-009
2.061625e-008
3.012096e-008
3.135981e-008
2.379746e-008
1.162605e-008
-4.005228e-010
-1.064534e-008
-2.041520e-008
-3.101405e-008
-4.166013e-008
-5.024750e-008
-5.555672e-008
-5.828460e-008
-6.003907e-008
-6.173879e-008
-6.314162e-008
-6.365802e-008
-6.326879e-008
-6.258795e-008
-6.223661e-008
-6.231915e-008
-6.246477e-008
-6.226231e-008
-6.164853e-008
-6.095092e-008
-6.056606e-008
-6.052949e-008
-6.038859e-008
-5.958958e-008
-5.803423e-008
-5.612300e-008
-5.407398e-008
-5.125303e-008
-4.648199e-008
-3.923388e-008
-3.037517e-008
-2.137521e-008
-1.271700e-008
-3.506271e-009
6.874503e-009
1.679693e-008
2.271675e-008
2.208313e-008
1.593214e-008
8.137840e-009
1.862020e-009
-2.887864e-009
-7.700302e-009
-1.200507e-008
-1.196203e-008
-4.245241e-009
8.838764e-009
1.893125e-008
1.769791e-008
4.314409e-009
-1.286839e-008
-2.248049e-008
-1.872384e-008
-4.976023e-009
9.913696e-009
1.831266e-008
1.761389e-008
9.510620e-009
-2.356535e-009
-1.343791e-008
-1.854421e-008
-1.378990e-008
-2.180197e-010
1.459567e-008
2.043063e-008
1.218047e-008
-5.023622e-009
-1.874982e-008
2.161183e-007
1.347947e-007
2.108442e-008
-6.156666e-008
-7.748657e-008
-3.767214e-008
1.576984e-008
4.361017e-008
3.437065e-008
4.155318e-009
-2.234228e-008
-3.061608e-008
-2.130258e-008
-2.942497e-009
1.639338e-008
3.109728e-008
3.589366e-008
2.617832e-008
2.512920e-009
-2.610731e-008
-4.584319e-008
-4.697944e-008
-3.048064e-008
-6.141631e-009
1.554961e-008
2.999763e-008
3.819974e-008
4.173034e-008
3.942072e-008
2.908810e-008
1.146928e-008
-8.743245e-009
-2.615883e-008
-3.869075e-008
-4.815305e-008
-5.726654e-008
-6.661910e-008
-7.463739e-008
-7.999462e-008
-8.341811e-008
-8.700571e-008
-9.211994e-008
-9.826802e-008
-1.039598e-007
-1.083301e-007
-1.117473e-007
-1.149837e-007
-1.180634e-007
-1.200614e-007
-1.199882e-007
-1.177682e-007
-1.142891e-007
-1.104888e-007
-1.064566e-007
-1.015394e-007
-9.538251e-008
-8.872982e-008
-8.292563e-008
-7.848575e-008
-7.434005e-008
-6.880973e-008
-6.139108e-008
-5.323593e-008
-4.552751e-008
-3.753639e-008
-2.690349e-008
-1.232751e-008
4.179718e-009
1.825597e-008
2.666202e-008
2.951769e-008
2.877818e-008
2.485622e-008
1.576884e-008
4.306575e-010
-1.743401e-008
-2.977950e-008
-2.978682e-008
-1.750078e-008
-4.844055e-011
1.372553e-008
1.898566e-008
1.616335e-008
8.213981e-009
-1.822306e-009
-1.053716e-008
-1.344869e-008
-7.316021e-009
5.450731e-009
1.575199e-008
1.384506e-008
-1.339252e-009
-1.875702e-008
-2.300765e-008
-7.978713e-009
1.599903e-008
2.936696e-008
1.985698e-008
-6.114516e-009
-2.793674e-008
1.651625e-007
8.457635e-008
-2.055335e-008
-8.037294e-008
-6.251404e-008
7.057959e-009
6.802780e-008
7.340036e-008
2.271751e-008
-4.303319e-008
-7.664012e-008
-5.942274e-008
-9.441128e-009
3.821636e-008
5.854935e-008
4.929031e-008
2.394637e-008
-2.874426e-009
-2.355501e-008
-3.557371e-008
-3.690092e-008
-2.600156e-008
-5.661655e-009
1.571714e-008
2.864893e-008
2.901277e-008
1.997685e-008
7.806542e-009
-3.697329e-009
-1.467380e-008
-2.627146e-008
-3.769897e-008
-4.681168e-008
-5.307870e-008
-5.900182e-008
-6.816953e-008
-8.218023e-008
-9.981556e-008
-1.190625e-007
-1.394091e-007
-1.618672e-007
-1.870066e-007
-2.134634e-007
-2.385827e-007
-2.603346e-007
-2.783479e-007
-2.930979e-007
-3.043820e-007
-3.108744e-007
-3.112097e-007
-3.053130e-007
-2.944612e-007
-2.800093e-007
-2.622430e-007
-2.407067e-007
-2.156810e-007
-1.890609e-007
-1.634352e-007
-1.402281e-007
-1.190155e-007
-9.891618e-008
-8.048221e-008
-6.569484e-008
-5.577545e-008
-4.926392e-008
-4.282500e-008
-3.417895e-008
-2.392290e-008
-1.414855e-008
-5.582529e-009
3.096399e-009
1.267196e-008
2.065514e-008
2.220312e-008
1.446512e-008
-4.626802e-011
-1.472386e-008
-2.346645e-008
-2.390811e-008
-1.674903e-008
-3.585527e-009
1.298215e-008
2.724364e-008
3.079459e-008
1.823971e-008
-5.880154e-009
-2.695838e-008
-3.008473e-008
-1.267104e-008
1.185324e-008
2.423181e-008
1.551505e-008
-5.233838e-009
-1.903568e-008
-1.390471e-008
4.662250e-009
1.906965e-008
1.583826e-008
-2.183654e-009
-1.861999e-008
3.632604e-008
-8.185063e-010
-4.315674e-008
-5.285535e-008
-1.758074e-008
3.813140e-008
7.127795e-008
5.442273e-008
-1.916776e-009
-5.692506e-008
-7.122202e-008
-3.691510e-008
1.810147e-008
5.381454e-008
4.892598e-008
1.377187e-008
-2.256756e-008
-3.676677e-008
-2.595274e-008
-3.367422e-009
1.635542e-008
2.712389e-008
2.998834e-008
2.636120e-008
1.517409e-008
-3.850722e-009
-2.653251e-008
-4.572555e-008
-5.677902e-008
-6.103451e-008
-6.390940e-008
-7.019364e-008
-8.163604e-008
-9.847982e-008
-1.219789e-007
-1.544579e-007
-1.970554e-007
-2.481723e-007
-3.045525e-007
-3.636279e-007
-4.244015e-007
-4.861210e-007
-5.466522e-007
-6.026241e-007
-6.511534e-007
-6.911030e-007
-7.225048e-007
-7.449860e-007
-7.571300e-007
-7.574942e-007
-7.460116e-007
-7.240717e-007
-6.931730e-007
-6.537744e-007
-6.057817e-007
-5.501511e-007
-4.896586e-007
-4.277622e-007
-3.667582e-007
-3.073918e-007
-2.504106e-007
-1.981165e-007
-1.537933e-007
-1.193949e-007
-9.411927e-008
-7.557922e-008
-6.213377e-008
-5.345172e-008
-4.861183e-008
-4.438970e-008
-3.652654e-008
-2.319417e-008
-6.864561e-009
7.694899e-009
1.712387e-008
2.079429e-008
1.891132e-008
1.092429e-008
-2.552772e-009
-1.632028e-008
-2.127398e-008
-1.128577e-008
9.318311e-009
2.624181e-008
2.565912e-008
6.315260e-009
-1.812617e-008
-2.963073e-008
-2.037088e-008
1.428571e-009
1.908596e-008
2.116920e-008
9.357050e-009
-5.161687e-009
-1.199122e-008
-9.041026e-009
-1.836713e-009
2.970990e-009
3.260767e-009
1.731580e-009
-9.201633e-008
-6.560683e-008
-2.561743e-008
1.061338e-008
3.078671e-008
3.162823e-008
1.708013e-008
-4.690676e-009
-2.285669e-008
-2.647076e-008
-1.064699e-008
1.696356e-008
3.738467e-008
3.259450e-008
9.426344e-010
-3.830665e-008
-5.771166e-008
-4.244687e-008
-1.581263e-009
3.970582e-008
5.945355e-008
5.278135e-008
3.007733e-008
4.552486e-009
-1.763405e-008
-3.716802e-008
-5.537783e-008
-7.092375e-008
-8.266744e-008
-9.398325e-008
-1.125622e-007
-1.456299e-007
-1.957723e-007
-2.613430e-007
-3.399897e-007
-4.308703e-007
-5.335584e-007
-6.458221e-007
-7.633506e-007
-8.816533e-007
-9.976979e-007
-1.109507e-006
-1.214635e-006
-1.309676e-006
-1.391422e-006
-1.458136e-006
-1.509368e-006
-1.544642e-006
-1.562713e-006
-1.562323e-006
-1.543410e-006
-1.507221e-006
-1.455144e-006
-1.387778e-006
-1.305474e-006
-1.209749e-006
-1.103770e-006
-9.912267e-007
-8.749038e-007
-7.567536e-007
-6.393451e-007
-5.267226e-007
-4.233055e-007
-3.319569e-007
-2.535387e-007
-1.884280e-007
-1.377940e-007
-1.025262e-007
-8.078762e-008
-6.740315e-008
-5.647879e-008
-4.469446e-008
-3.166824e-008
-1.741221e-008
-8.333119e-010
1.790768e-008
3.385266e-008
3.822926e-008
2.549626e-008
4.501587e-010
-2.264136e-008
-2.992349e-008
-1.863632e-008
1.133420e-009
1.508739e-008
1.563030e-008
5.780196e-009
-5.603748e-009
-1.121422e-008
-8.925119e-009
-8.947223e-010
8.507108e-009
1.398230e-008
1.112452e-008
-2.125417e-010
-1.367995e-008
-1.936395e-008
-1.149001e-008
5.530435e-009
1.932146e-008
-1.694902e-007
-8.865247e-008
1.629295e-008
7.634874e-008
6.178701e-008
-7.730578e-010
-5.583653e-008
-6.389873e-008
-2.633259e-008
2.472647e-008
5.572678e-008
5.333018e-008
2.535979e-008
-1.122900e-008
-4.078431e-008
-5.227083e-008
-4.034382e-008
-8.613595e-009
2.841350e-008
5.107782e-008
4.694556e-008
1.979802e-008
-1.371839e-008
-3.745556e-008
-4.727268e-008
-5.129766e-008
-6.102961e-008
-8.336363e-008
-1.203846e-007
-1.742993e-007
-2.501032e-007
-3.527877e-007
-4.829150e-007
-6.359133e-007
-8.056077e-007
-9.877401e-007
-1.179941e-006
-1.379138e-006
-1.580016e-006
-1.776233e-006
-1.962635e-006
-2.135923e-006
-2.293527e-006
-2.432563e-006
-2.550198e-006
-2.644693e-006
-2.715579e-006
-2.762738e-006
-2.785609e-006
-2.783495e-006
-2.756377e-006
-2.705032e-006
-2.630260e-006
-2.532364e-006
-2.411725e-006
-2.269850e-006
-2.109552e-006
-1.934072e-006
-1.746401e-006
-1.549856e-006
-1.349138e-006
-1.150206e-006
-9.586451e-007
-7.783698e-007
-6.122987e-007
-4.641221e-007
-3.384853e-007
-2.386238e-007
-1.638912e-007
-1.102956e-007
-7.367058e-008
-5.157900e-008
-4.133495e-008
-3.672788e-008
-2.873799e-008
-1.154445e-008
1.163550e-008
2.973774e-008
3.238902e-008
1.839190e-008
-3.461057e-009
-2.123356e-008
-2.738247e-008
-2.106445e-008
-5.996385e-009
1.161752e-008
2.373319e-008
2.282960e-008
7.604026e-009
-1.280035e-008
-2.305812e-008
-1.404784e-008
7.310302e-009
2.207086e-008
1.594610e-008
-6.414973e-009
-2.440787e-008
-2.044254e-008
2.858643e-009
2.441869e-008
-1.815000e-007
-7.990786e-008
4.614956e-008
1.054497e-007
6.495249e-008
-2.883221e-008
-9.393621e-008
-8.123791e-008
-8.885028e-009
6.127939e-008
7.845009e-008
3.983762e-008
-1.661649e-008
-4.910434e-008
-4.260597e-008
-1.121465e-008
2.086877e-008
3.759259e-008
3.530515e-008
1.728519e-008
-1.062893e-008
-4.006115e-008
-6.114734e-008
-6.847967e-008
-6.757493e-008
-7.431652e-008
-1.063835e-007
-1.741798e-007
-2.790941e-007
-4.188966e-007
-5.931348e-007
-8.029361e-007
-1.046833e-006
-1.318350e-006
-1.608110e-006
-1.907608e-006
-2.210425e-006
-2.510305e-006
-2.799248e-006
-3.068286e-006
-3.310133e-006
-3.520886e-006
-3.699476e-006
-3.846125e-006
-3.961640e-006
-4.047729e-006
-4.107122e-006
-4.142805e-006
-4.157008e-006
-4.150841e-006
-4.124496e-006
-4.077328e-006
-4.007645e-006
-3.912845e-006
-3.790229e-006
-3.637870e-006
-3.454817e-006
-3.240932e-006
-2.997379e-006
-2.727849e-006
-2.439151e-006
-2.139971e-006
-1.838662e-006
-1.542320e-006
-1.257992e-006
-9.940068e-007
-7.588608e-007
-5.580986e-007
-3.926279e-007
-2.607881e-007
-1.619070e-007
-9.666192e-008
-6.296696e-008
-5.189403e-008
-4.920188e-008
-4.240534e-008
-2.715445e-008
-7.285918e-009
1.039316e-008
2.074398e-008
2.109180e-008
1.080712e-008
-6.809563e-009
-2.235015e-008
-2.373131e-008
-6.162192e-009
2.003182e-008
3.430353e-008
2.283505e-008
-7.204539e-009
-3.148729e-008
-2.947027e-008
-3.566272e-009
2.252367e-008
2.580494e-008
5.454064e-009
-1.720726e-008
-2.015287e-008
-2.159820e-009
1.690840e-008
-1.289690e-007
-5.212570e-008
4.040539e-008
7.807720e-008
3.947426e-008
-3.272377e-008
-7.182156e-008
-4.551128e-008
1.880991e-008
6.205954e-008
4.721328e-008
-9.892657e-009
-5.788389e-008
-5.618827e-008
-7.673495e-009
4.851442e-008
7.229306e-008
5.231420e-008
7.163910e-009
-3.590988e-008
-6.168388e-008
-7.160314e-008
-7.597055e-008
-8.656090e-008
-1.158766e-007
-1.785123e-007
-2.884831e-007
-4.535724e-007
-6.729679e-007
-9.410169e-007
-1.252743e-006
-1.604958e-006
-1.992248e-006
-2.402872e-006
-2.819193e-006
-3.221892e-006
-3.593654e-006
-3.919820e-006
-4.187661e-006
-4.387157e-006
-4.513652e-006
-4.569953e-006
-4.565830e-006
-4.515435e-006
-4.434733e-006
-4.340088e-006
-4.247402e-006
-4.170843e-006
-4.121199e-006
-4.104565e-006
-4.121750e-006
-4.168248e-006
-4.234699e-006
-4.307966e-006
-4.372625e-006
-4.412279e-006
-4.410577e-006
-4.352702e-006
-4.227923e-006
-4.032255e-006
-3.769264e-006
-3.448331e-006
-3.082127e-006
-2.685621e-006
-2.276517e-006
-1.874544e-006
-1.497911e-006
-1.158986e-006
-8.632708e-007
-6.127768e-007
-4.100361e-007
-2.580505e-007
-1.561899e-007
-9.696299e-008
-6.765239e-008
-5.510377e-008
-4.871511e-008
-4.007546e-008
-2.301444e-008
2.790883e-009
2.821268e-008
3.839392e-008
2.482647e-008
-4.169139e-009
-2.678364e-008
-2.510321e-008
-1.510647e-009
2.243141e-008
2.516554e-008
4.813372e-009
-1.953066e-008
-2.607760e-008
-1.037814e-008
1.190305e-008
2.105863e-008
1.169134e-008
-4.226396e-009
-1.105368e-008
-5.045879e-009
3.704524e-009
-1.917506e-008
-6.271479e-009
6.843399e-009
7.160952e-009
-5.189542e-009
-1.553321e-008
-8.292532e-009
1.582472e-008
3.628904e-008
2.938190e-008
-8.001650e-009
-5.021829e-008
-6.136381e-008
-2.645372e-008
3.280130e-008
7.356977e-008
6.622403e-008
1.719379e-008
-3.915594e-008
-7.068366e-008
-7.236888e-008
-6.683449e-008
-8.544668e-008
-1.501515e-007
-2.699592e-007
-4.486884e-007
-6.914300e-007
-1.003058e-006
-1.382904e-006
-1.822614e-006
-2.308127e-006
-2.821005e-006
-3.336127e-006
-3.818672e-006
-4.225594e-006
-4.512698e-006
-4.643146e-006
-4.592758e-006
-4.351472e-006
-3.923585e-006
-3.328584e-006
-2.601326e-006
-1.789435e-006
-9.478299e-007
-1.327221e-007
6.028310e-007
1.211686e-006
1.654862e-006
1.903898e-006
1.942963e-006
1.770103e-006
1.397415e-006
8.501115e-007
1.646500e-007
-6.135143e-007
-1.432087e-006
-2.234525e-006
-2.964306e-006
-3.571078e-006
-4.016739e-006
-4.278844e-006
-4.350851e-006
-4.241205e-006
-3.972884e-006
-3.582191e-006
-3.114038e-006
-2.613616e-006
-2.118404e-006
-1.655070e-006
-1.241449e-006
-8.894077e-007
-6.050974e-007
-3.878927e-007
-2.316822e-007
-1.287372e-007
-7.170292e-008
-5.056427e-008
-4.850044e-008
-4.446999e-008
-2.431618e-008
8.709936e-009
3.596105e-008
3.919017e-008
1.709770e-008
-1.270702e-008
-2.836935e-008
-2.142601e-008
-1.644296e-009
1.370752e-008
1.470536e-008
4.585613e-009
-6.153629e-009
-9.531253e-009
-4.964180e-009
2.699711e-009
7.951241e-009
7.922923e-009
3.122028e-009
-3.462976e-009
-8.048262e-009
1.205593e-007
5.525232e-008
-2.712498e-008
-6.941311e-008
-4.954158e-008
7.307291e-009
5.428777e-008
6.006759e-008
2.696775e-008
-1.843014e-008
-4.743956e-008
-4.556100e-008
-1.644587e-008
2.233612e-008