# vtk DataFile Version 3.0
vtk output
ASCII
DATASET STRUCTURED_POINTS
DIMENSIONS 100 100 1
SPACING 1 1 1
ORIGIN 0 0 0
POINT_DATA 10000
SCALARS SFBox_profile double
LOOKUP_TABLE default 
9.439921e-003
9.439922e-003
9.439922e-003
9.439924e-003
9.439926e-003
9.439928e-003
9.439932e-003
9.439937e-003
9.439944e-003
9.439952e-003
9.439962e-003
9.439972e-003
9.439980e-003
9.439985e-003
9.439981e-003
9.439965e-003
9.439927e-003
9.439860e-003
9.439754e-003
9.439596e-003
9.439376e-003
9.439082e-003
9.438706e-003
9.438239e-003
9.437676e-003
9.437017e-003
9.436264e-003
9.435420e-003
9.434493e-003
9.433493e-003
9.432430e-003
9.431315e-003
9.430159e-003
9.428972e-003
9.427764e-003
9.426544e-003
9.425319e-003
9.424094e-003
9.422876e-003
9.421670e-003
9.420480e-003
9.419312e-003
9.418169e-003
9.417057e-003
9.415980e-003
9.414943e-003
9.413953e-003
9.413014e-003
9.412134e-003
9.411320e-003
9.410579e-003
9.409921e-003
9.409357e-003
9.408899e-003
9.408559e-003
9.408354e-003
9.408298e-003
9.408408e-003
9.408701e-003
9.409190e-003
9.409889e-003
9.410806e-003
9.411945e-003
9.413304e-003
9.414871e-003
9.416627e-003
9.418543e-003
9.420585e-003
9.422706e-003
9.424857e-003
9.426985e-003
9.429038e-003
9.430968e-003
9.432733e-003
9.434302e-003
9.435655e-003
9.436786e-003
9.437701e-003
9.438415e-003
9.438951e-003
9.439337e-003
9.439601e-003
9.439772e-003
9.439875e-003
9.439932e-003
9.439957e-003
9.439964e-003
9.439962e-003
9.439955e-003
9.439947e-003
9.439939e-003
9.439933e-003
9.439929e-003
9.439926e-003
9.439923e-003
9.439922e-003
9.439921e-003
9.439921e-003
9.439920e-003
9.439920e-003
9.439921e-003
9.439922e-003
9.439922e-003
9.439924e-003
9.439926e-003
9.439928e-003
9.439932e-003
9.439937e-003
9.439944e-003
9.439952e-003
9.439962e-003
9.439972e-003
9.439980e-003
9.439985e-003
9.439981e-003
9.439965e-003
9.439927e-003
9.439860e-003
9.439754e-003
9.439596e-003
9.439376e-003
9.439082e-003
9.438706e-003
9.438239e-003
9.437676e-003
9.437017e-003
9.436264e-003
9.435420e-003
9.434493e-003
9.433493e-003
9.432430e-003
9.431315e-003
9.430159e-003
9.428972e-003
9.427764e-003
9.426544e-003
9.425319e-003
9.424094e-003
9.422876e-003
9.421670e-003
9.420480e-003
9.419312e-003
9.418169e-003
9.417057e-003
9.415980e-003
9.414943e-003
9.413953e-003
9.413014e-003
9.412134e-003
9.411320e-003
9.410579e-003
9.409921e-003
9.409357e-003
9.408899e-003
9.408559e-003
9.408354e-003
9.408298e-003
9.408408e-003
9.408701e-003
9.409190e-003
9.409889e-003
9.410806e-003
9.411945e-003
9.413304e-003
9.414871e-003
9.416627e-003
9.418543e-003
9.420585e-003
9.422706e-003
9.424857e-003
9.426985e-003
9.429038e-003
9.430968e-003
9.432733e-003
9.434302e-003
9.435655e-003
9.436786e-003
9.437701e-003
9.438415e-003
9.438951e-003
9.439337e-003
9.439601e-003
9.439772e-003
9.439875e-003
9.439932e-003
9.439957e-003
9.439964e-003
9.439962e-003
9.439955e-003
9.439947e-003
9.439939e-003
9.439933e-003
9.439929e-003
9.439926e-003
9.439923e-003
9.439922e-003
9.439921e-003
9.439921e-003
9.439920e-003
9.439920e-003
9.439922e-003
9.439923e-003
9.439923e-003
9.439925e-003
9.439927e-003
9.439931e-003
9.439935e-003
9.439941e-003
9.439949e-003
9.439957e-003
9.439965e-003
9.439970e-003
9.439970e-003
9.439959e-003
9.439930e-003
9.439872e-003
9.439774e-003
9.439619e-003
9.439391e-003
9.439073e-003
9.438645e-003
9.438092e-003
9.437400e-003
9.436559e-003
9.435566e-003
9.434421e-003
9.433130e-003
9.431705e-003
9.430160e-003
9.428513e-003
9.426782e-003
9.424986e-003
9.423143e-003
9.421269e-003
9.419381e-003
9.417489e-003
9.415605e-003
9.413738e-003
9.411896e-003
9.410084e-003
9.408310e-003
9.406579e-003
9.404897e-003
9.403270e-003
9.401704e-003
9.400204e-003
9.398779e-003
9.397435e-003
9.396182e-003
9.395027e-003
9.393982e-003
9.393059e-003
9.392272e-003
9.391637e-003
9.391173e-003
9.390900e-003
9.390838e-003
9.391012e-003
9.391444e-003
9.392155e-003
9.393165e-003
9.394488e-003
9.396133e-003
9.398099e-003
9.400378e-003
9.402946e-003
9.405771e-003
9.408805e-003
9.411989e-003
9.415253e-003
9.418520e-003
9.421712e-003
9.424752e-003
9.427570e-003
9.430112e-003
9.432337e-003
9.434227e-003
9.435781e-003
9.437017e-003
9.437964e-003
9.438663e-003
9.439158e-003
9.439493e-003
9.439707e-003
9.439836e-003
9.439906e-003
9.439940e-003
9.439952e-003
9.439953e-003
9.439948e-003
9.439942e-003
9.439936e-003
9.439931e-003
9.439927e-003
9.439924e-003
9.439923e-003
9.439921e-003
9.439921e-003
9.439920e-003
9.439920e-003
9.439924e-003
9.439924e-003
9.439926e-003
9.439928e-003
9.439931e-003
9.439936e-003
9.439942e-003
9.439949e-003
9.439957e-003
9.439963e-003
9.439965e-003
9.439957e-003
9.439931e-003
9.439875e-003
9.439773e-003
9.439603e-003
9.439340e-003
9.438952e-003
9.438407e-003
9.437670e-003
9.436709e-003
9.435495e-003
9.434007e-003
9.432234e-003
9.430175e-003
9.427842e-003
9.425255e-003
9.422442e-003
9.419440e-003
9.416285e-003
9.413019e-003
9.409677e-003
9.406296e-003
9.402906e-003
9.399533e-003
9.396197e-003
9.392917e-003
9.389707e-003
9.386577e-003
9.383536e-003
9.380592e-003
9.377752e-003
9.375023e-003
9.372410e-003
9.369920e-003
9.367562e-003
9.365341e-003
9.363267e-003
9.361351e-003
9.359603e-003
9.358037e-003
9.356670e-003
9.355520e-003
9.354610e-003
9.353963e-003
9.353608e-003
9.353576e-003
9.353898e-003
9.354610e-003
9.355743e-003
9.357329e-003
9.359396e-003
9.361966e-003
9.365050e-003
9.368648e-003
9.372746e-003
9.377310e-003
9.382286e-003
9.387596e-003
9.393141e-003
9.398801e-003
9.404443e-003
9.409927e-003
9.415117e-003
9.419892e-003
9.424159e-003
9.427854e-003
9.430953e-003
9.433465e-003
9.435432e-003
9.436917e-003
9.437996e-003
9.438748e-003
9.439250e-003
9.439569e-003
9.439760e-003
9.439866e-003
9.439920e-003
9.439942e-003
9.439947e-003
9.439945e-003
9.439940e-003
9.439934e-003
9.439930e-003
9.439926e-003
9.439924e-003
9.439922e-003
9.439921e-003
9.439921e-003
9.439921e-003
9.439927e-003
9.439928e-003
9.439930e-003
9.439933e-003
9.439938e-003
9.439944e-003
9.439952e-003
9.439959e-003
9.439964e-003
9.439962e-003
9.439944e-003
9.439899e-003
9.439808e-003
9.439644e-003
9.439371e-003
9.438945e-003
9.438311e-003
9.437409e-003
9.436171e-003
9.434534e-003
9.432439e-003
9.429843e-003
9.426718e-003
9.423060e-003
9.418890e-003
9.414248e-003
9.409196e-003
9.403810e-003
9.398171e-003
9.392365e-003
9.386474e-003
9.380570e-003
9.374719e-003
9.368973e-003
9.363375e-003
9.357956e-003
9.352742e-003
9.347749e-003
9.342987e-003
9.338466e-003
9.334190e-003
9.330159e-003
9.326376e-003
9.322839e-003
9.319548e-003
9.316504e-003
9.313706e-003
9.311157e-003
9.308861e-003
9.306824e-003
9.305056e-003
9.303568e-003
9.302374e-003
9.301491e-003
9.300941e-003
9.300747e-003
9.300935e-003
9.301535e-003
9.302582e-003
9.304112e-003
9.306167e-003
9.308793e-003
9.312038e-003
9.315953e-003
9.320587e-003
9.325979e-003
9.332155e-003
9.339110e-003
9.346802e-003
9.355144e-003
9.363991e-003
9.373151e-003
9.382386e-003
9.391434e-003
9.400033e-003
9.407947e-003
9.414990e-003
9.421043e-003
9.426064e-003
9.430078e-003
9.433171e-003
9.435464e-003
9.437099e-003
9.438218e-003
9.438950e-003
9.439408e-003
9.439678e-003
9.439827e-003
9.439902e-003
9.439934e-003
9.439944e-003
9.439944e-003
9.439939e-003
9.439934e-003
9.439930e-003
9.439926e-003
9.439924e-003
9.439922e-003
9.439921e-003
9.439921e-003
9.439931e-003
9.439933e-003
9.439936e-003
9.439941e-003
9.439948e-003
9.439955e-003
9.439963e-003
9.439967e-003
9.439960e-003
9.439933e-003
9.439866e-003
9.439732e-003
9.439490e-003
9.439085e-003
9.438441e-003
9.437469e-003
9.436059e-003
9.434093e-003
9.431450e-003
9.428021e-003
9.423716e-003
9.418483e-003
9.412318e-003
9.405265e-003
9.397422e-003
9.388927e-003
9.379952e-003
9.370683e-003
9.361311e-003
9.352011e-003
9.342941e-003
9.334230e-003
9.325978e-003
9.318258e-003
9.311119e-003
9.304589e-003
9.298682e-003
9.293402e-003
9.288740e-003
9.284683e-003
9.281208e-003
9.278289e-003
9.275892e-003
9.273981e-003
9.272517e-003
9.271463e-003
9.270779e-003
9.270430e-003
9.270381e-003
9.270600e-003
9.271056e-003
9.271717e-003
9.272548e-003
9.273512e-003
9.274568e-003
9.275673e-003
9.276781e-003
9.277849e-003
9.278842e-003
9.279741e-003
9.280556e-003
9.281333e-003
9.282169e-003
9.283215e-003
9.284684e-003
9.286838e-003
9.289971e-003
9.294375e-003
9.300301e-003
9.307907e-003
9.317221e-003
9.328111e-003
9.340275e-003
9.353266e-003
9.366540e-003
9.379520e-003
9.391671e-003
9.402566e-003
9.411925e-003
9.419634e-003
9.425724e-003
9.430342e-003
9.433703e-003
9.436050e-003
9.437622e-003
9.438629e-003
9.439244e-003
9.439600e-003
9.439793e-003
9.439888e-003
9.439930e-003
9.439943e-003
9.439944e-003
9.439939e-003
9.439934e-003
9.439929e-003
9.439926e-003
9.439924e-003
9.439922e-003
9.439922e-003
9.439938e-003
9.439940e-003
9.439945e-003
9.439952e-003
9.439960e-003
9.439967e-003
9.439970e-003
9.439960e-003
9.439922e-003
9.439833e-003
9.439652e-003
9.439322e-003
9.438758e-003
9.437846e-003
9.436442e-003
9.434366e-003
9.431417e-003
9.427385e-003
9.422073e-003
9.415327e-003
9.407063e-003
9.397301e-003
9.386174e-003
9.373933e-003
9.360930e-003
9.347590e-003
9.334368e-003
9.321712e-003
9.310027e-003
9.299647e-003
9.290825e-003
9.283729e-003
9.278449e-003
9.275008e-003
9.273386e-003
9.273527e-003
9.275359e-003
9.278796e-003
9.283742e-003
9.290089e-003
9.297717e-003
9.306489e-003
9.316253e-003
9.326847e-003
9.338101e-003
9.349843e-003
9.361898e-003
9.374098e-003
9.386271e-003
9.398245e-003
9.409838e-003
9.420852e-003
9.431062e-003
9.440217e-003
9.448029e-003
9.454175e-003
9.458309e-003
9.460071e-003
9.459112e-003
9.455133e-003
9.447926e-003
9.437423e-003
9.423757e-003
9.407303e-003
9.388718e-003
9.368940e-003
9.349151e-003
9.330699e-003
9.314973e-003
9.303236e-003
9.296468e-003
9.295210e-003
9.299474e-003
9.308724e-003
9.321946e-003
9.337802e-003
9.354833e-003
9.371673e-003
9.387220e-003
9.400738e-003
9.411870e-003
9.420588e-003
9.427103e-003
9.431756e-003
9.434937e-003
9.437019e-003
9.438321e-003
9.439097e-003
9.439535e-003
9.439767e-003
9.439880e-003
9.439927e-003
9.439943e-003
9.439943e-003
9.439939e-003
9.439933e-003
9.439929e-003
9.439926e-003
9.439924e-003
9.439923e-003
9.439949e-003
9.439952e-003
9.439957e-003
9.439965e-003
9.439972e-003
9.439975e-003
9.439961e-003
9.439915e-003
9.439804e-003
9.439577e-003
9.439153e-003
9.438417e-003
9.437201e-003
9.435287e-003
9.432399e-003
9.428215e-003
9.422393e-003
9.414609e-003
9.404622e-003
9.392342e-003
9.377902e-003
9.361709e-003
9.344453e-003
9.327081e-003
9.310713e-003
9.296539e-003
9.285698e-003
9.279176e-003
9.277734e-003
9.281865e-003
9.291799e-003
9.307526e-003
9.328849e-003
9.355441e-003
9.386903e-003
9.422812e-003
9.462753e-003
9.506326e-003
9.553139e-003
9.602798e-003
9.654883e-003
9.708944e-003
9.764492e-003
9.821009e-003
9.877958e-003
9.934796e-003
9.990979e-003
1.004597e-002
1.009922e-002
1.015016e-002
1.019820e-002
1.024266e-002
1.028278e-002
1.031767e-002
1.034631e-002
1.036755e-002
1.038013e-002
1.038269e-002
1.037390e-002
1.035250e-002
1.031749e-002
1.026825e-002
1.020475e-002
1.012772e-002
1.003878e-002
9.940534e-003
9.836541e-003
9.731131e-003
9.629104e-003
9.535292e-003
9.454044e-003
9.388708e-003
9.341205e-003
9.311786e-003
9.299045e-003
9.300198e-003
9.311583e-003
9.329280e-003
9.349685e-003
9.369939e-003
9.388124e-003
9.403239e-003
9.415022e-003
9.423710e-003
9.429801e-003
9.433875e-003
9.436477e-003
9.438064e-003
9.438986e-003
9.439493e-003
9.439754e-003
9.439877e-003
9.439927e-003
9.439943e-003
9.439943e-003
9.439938e-003
9.439933e-003
9.439929e-003
9.439926e-003
9.439924e-003
9.439963e-003
9.439966e-003
9.439973e-003
9.439979e-003
9.439981e-003
9.439966e-003
9.439913e-003
9.439784e-003
9.439516e-003
9.439006e-003
9.438099e-003
9.436567e-003
9.434102e-003
9.430299e-003
9.424678e-003
9.416711e-003
9.405908e-003
9.391936e-003
9.374783e-003
9.354936e-003
9.333530e-003
9.312419e-003
9.294118e-003
9.281622e-003
9.278109e-003
9.286599e-003
9.309641e-003
9.349073e-003
9.405911e-003
9.480342e-003
9.571824e-003
9.679247e-003
9.801116e-003
9.935753e-003
1.008146e-002
1.023663e-002
1.039984e-002
1.056979e-002
1.074533e-002
1.092533e-002
1.110865e-002
1.129408e-002
1.148036e-002
1.166613e-002
1.185002e-002
1.203065e-002
1.220662e-002
1.237659e-002
1.253917e-002
1.269293e-002
1.283630e-002
1.296754e-002
1.308461e-002
1.318515e-002
1.326638e-002
1.332514e-002
1.335788e-002
1.336079e-002
1.332993e-002
1.326150e-002
1.315215e-002
1.299944e-002
1.280231e-002
1.256156e-002
1.228036e-002
1.196456e-002
1.162283e-002
1.126640e-002
1.090851e-002
1.056337e-002
1.024491e-002
9.965265e-003
9.733391e-003
9.553968e-003
9.426917e-003
9.347670e-003
9.308177e-003
9.298449e-003
9.308246e-003
9.328522e-003
9.352337e-003
9.375126e-003
9.394467e-003
9.409536e-003
9.420511e-003
9.428061e-003
9.432996e-003
9.436071e-003
9.437897e-003
9.438928e-003
9.439479e-003
9.439755e-003
9.439880e-003
9.439929e-003
9.439943e-003
9.439942e-003
9.439937e-003
9.439932e-003
9.439929e-003
9.439927e-003
9.439981e-003
9.439985e-003
9.439990e-003
9.439990e-003
9.439974e-003
9.439917e-003
9.439778e-003
9.439480e-003
9.438901e-003
9.437845e-003
9.436021e-003
9.433015e-003
9.428273e-003
9.421110e-003
9.410769e-003
9.396549e-003
9.378050e-003
9.355520e-003
9.330287e-003
9.305177e-003
9.284779e-003
9.275417e-003
9.284758e-003
9.321068e-003
9.392271e-003
9.505011e-003
9.663915e-003
9.871196e-003
1.012662e-002
1.042779e-002
1.077064e-002
1.114999e-002
1.156019e-002
1.199555e-002
1.245084e-002
1.292142e-002
1.340342e-002
1.389357e-002
1.438908e-002
1.488739e-002
1.538599e-002
1.588226e-002
1.637349e-002
1.685682e-002
1.732935e-002
1.778822e-002
1.823059e-002
1.865367e-002
1.905468e-002
1.943066e-002
1.977841e-002
2.009422e-002
2.037375e-002
2.061183e-002
2.080234e-002
2.093815e-002
2.101116e-002
2.101244e-002
2.093256e-002
2.076201e-002
2.049191e-002
2.011489e-002
1.962614e-002
1.902458e-002
1.831416e-002
1.750486e-002
1.661348e-002
1.566371e-002
1.468546e-002
1.371322e-002
1.278334e-002
1.193068e-002
1.118471e-002
1.056598e-002
1.008358e-002
9.734377e-003
9.504332e-003
9.371652e-003
9.311029e-003
9.297844e-003
9.311349e-003
9.336292e-003
9.363008e-003
9.386439e-003
9.404733e-003
9.417890e-003
9.426762e-003
9.432423e-003
9.435859e-003
9.437843e-003
9.438932e-003
9.439497e-003
9.439769e-003
9.439888e-003
9.439933e-003
9.439944e-003
9.439942e-003
9.439937e-003
9.439932e-003
9.439930e-003
9.440003e-003
9.440005e-003
9.440003e-003
9.439986e-003
9.439929e-003
9.439787e-003
9.439475e-003
9.438853e-003
9.437692e-003
9.435636e-003
9.432164e-003
9.426556e-003
9.417896e-003
9.405145e-003
9.387357e-003
9.364108e-003
9.336193e-003
9.306584e-003
9.281484e-003
9.271173e-003
9.290246e-003
9.356922e-003
9.491371e-003
9.713306e-003
1.003939e-002
1.048103e-002
1.104310e-002
1.172371e-002
1.251492e-002
1.340420e-002
1.437611e-002
1.541399e-002
1.650141e-002
1.762329e-002
1.876660e-002
1.992072e-002
2.107729e-002
2.222984e-002
2.337325e-002
2.450311e-002
2.561525e-002
2.670545e-002
2.776929e-002
2.880220e-002
2.979957e-002
3.075691e-002
3.166985e-002
3.253416e-002
3.334559e-002
3.409964e-002
3.479121e-002
3.541432e-002
3.596165e-002
3.642427e-002
3.679135e-002
3.704996e-002
3.718509e-002
3.717974e-002
3.701532e-002
3.667230e-002
3.613122e-002
3.537403e-002
3.438591e-002
3.315755e-002
3.168761e-002
2.998546e-002
2.807362e-002
2.598955e-002
2.378625e-002
2.153094e-002
1.930158e-002
1.718064e-002
1.524683e-002
1.356558e-002
1.218028e-002
1.110659e-002
1.033152e-002
9.817846e-003
9.512840e-003
9.358753e-003
9.302212e-003
9.300414e-003
9.323385e-003
9.352977e-003
9.380037e-003
9.401196e-003
9.416194e-003
9.426088e-003
9.432242e-003
9.435875e-003
9.437913e-003
9.438998e-003
9.439541e-003
9.439794e-003
9.439900e-003
9.439937e-003
9.439944e-003
9.439941e-003
9.439937e-003
9.439934e-003
9.440027e-003
9.440023e-003
9.440005e-003
9.439950e-003
9.439811e-003
9.439502e-003
9.438870e-003
9.437660e-003
9.435465e-003
9.431664e-003
9.425373e-003
9.415429e-003
9.400476e-003
9.379282e-003
9.351427e-003
9.318576e-003
9.286378e-003
9.266856e-003
9.280665e-003
9.358308e-003
9.539329e-003
9.868948e-003
1.039248e-002
1.114869e-002
1.216380e-002
1.344757e-002
1.499231e-002
1.677475e-002
1.875995e-002
2.090610e-002
2.316926e-002
2.550720e-002
2.788214e-002
3.026241e-002
3.262311e-002
3.494587e-002
3.721795e-002
3.943099e-002
4.157949e-002
4.365949e-002
4.566755e-002
4.760019e-002
4.945363e-002
5.122388e-002
5.290693e-002
5.449894e-002
5.599629e-002
5.739554e-002
5.869315e-002
5.988511e-002
6.096645e-002
6.193068e-002
6.276925e-002
6.347102e-002
6.402179e-002
6.440398e-002
6.459635e-002
6.457395e-002
6.430826e-002
6.376761e-002
6.291794e-002
6.172417e-002
6.015209e-002
5.817127e-002
5.575876e-002
5.290391e-002
4.961396e-002
4.592008e-002
4.188288e-002
3.759618e-002
3.318707e-002
2.881037e-002
2.463612e-002
2.083039e-002
1.753226e-002
1.483241e-002
1.275969e-002
1.128027e-002
1.031006e-002
9.736237e-003
9.440985e-003
9.320570e-003
9.295907e-003
9.314433e-003
9.345953e-003
9.375980e-003
9.399378e-003
9.415661e-003
9.426139e-003
9.432480e-003
9.436115e-003
9.438094e-003
9.439113e-003
9.439606e-003
9.439826e-003
9.439914e-003
9.439941e-003
9.439945e-003
9.439942e-003
9.439940e-003
9.440045e-003
9.440029e-003
9.439978e-003
9.439849e-003
9.439558e-003
9.438949e-003
9.437754e-003
9.435531e-003
9.431584e-003
9.424885e-003
9.414033e-003
9.397340e-003
9.373229e-003
9.341256e-003
9.304137e-003
9.271159e-003
9.262916e-003
9.316512e-003
9.489378e-003
9.859262e-003
1.051842e-002
1.156186e-002
1.307174e-002
1.510214e-002
1.766835e-002
2.074376e-002
2.426455e-002
2.814030e-002
3.226708e-002
3.654004e-002
4.086301e-002
4.515466e-002
4.935117e-002
5.340637e-002
5.729012e-002
6.098562e-002
6.448625e-002
6.779229e-002
7.090804e-002
7.383953e-002
7.659299e-002
7.917407e-002
8.158758e-002
8.383766e-002
8.592800e-002
8.786209e-002
8.964326e-002
9.127458e-002
9.275857e-002
9.409681e-002
9.528939e-002
9.633445e-002
9.722759e-002
9.796138e-002
9.852482e-002
9.890287e-002
9.907594e-002
9.901932e-002
9.870269e-002
9.808948e-002
9.713646e-002
9.579346e-002
9.400359e-002
9.170438e-002
8.883028e-002
8.531736e-002
8.111076e-002
7.617569e-002
7.051193e-002
6.417062e-002
5.727022e-002
5.000645e-002
4.264935e-002
3.552176e-002
2.895787e-002
2.324868e-002
1.858913e-002
1.504518e-002
1.255264e-002
1.094773e-002
1.001612e-002
9.542515e-003
9.346034e-003
9.295773e-003
9.309451e-003
9.342476e-003
9.374721e-003
9.399517e-003
9.416364e-003
9.426907e-003
9.433100e-003
9.436543e-003
9.438357e-003
9.439261e-003
9.439681e-003
9.439860e-003
9.439927e-003
9.439945e-003
9.439947e-003
9.439946e-003
9.440049e-003
9.440008e-003
9.439896e-003
9.439634e-003
9.439076e-003
9.437956e-003
9.435818e-003
9.431927e-003
9.425153e-003
9.413895e-003
9.396139e-003
9.369912e-003
9.334590e-003
9.293810e-003
9.260852e-003
9.266933e-003
9.371563e-003
9.671908e-003
1.030603e-002
1.144462e-002
1.326856e-002
1.593532e-002
1.954300e-002
2.410367e-002
2.953509e-002
3.567343e-002
4.230165e-002
4.918410e-002
5.609779e-002
6.285417e-002
6.930989e-002
7.536823e-002
8.097423e-002
8.610670e-002
9.076923e-002
9.498193e-002
9.877451e-002
1.021811e-001
1.052364e-001
1.079739e-001
1.104241e-001
1.126146e-001
1.145700e-001
1.163124e-001
1.178614e-001
1.192346e-001
1.204476e-001
1.215142e-001
1.224463e-001
1.232541e-001
1.239455e-001
1.245265e-001
1.250010e-001
1.253703e-001
1.256334e-001
1.257862e-001
1.258214e-001
1.257271e-001
1.254865e-001
1.250760e-001
1.244631e-001
1.236044e-001
1.224422e-001
1.209013e-001
1.188856e-001
1.162761e-001
1.129309e-001
1.086914e-001
1.033977e-001
9.691604e-002
8.917955e-002
8.023782e-002
7.030210e-002
5.976718e-002
4.918812e-002
3.920018e-002
3.039471e-002
2.319116e-002
1.775523e-002
1.399515e-002
1.163030e-002
1.029531e-002
9.635742e-003
9.367747e-003
9.296893e-003
9.308067e-003
9.342761e-003
9.376393e-003
9.401591e-003
9.418201e-003
9.428275e-003
9.434008e-003
9.437093e-003
9.438665e-003
9.439419e-003
9.439756e-003
9.439892e-003
9.439939e-003
9.439951e-003
9.439953e-003
9.440021e-003
9.439938e-003
9.439718e-003
9.439232e-003
9.438233e-003
9.436280e-003
9.432635e-003
9.426126e-003
9.415018e-003
9.397024e-003
9.369728e-003
9.332081e-003
9.288082e-003
9.254269e-003
9.272525e-003
9.428002e-003
9.868245e-003
1.081453e-002
1.255322e-002
1.539763e-002
1.962149e-002
2.538069e-002
3.265141e-002
4.121156e-002
5.067526e-002
6.056756e-002
7.041154e-002
7.980016e-002
8.843728e-002
9.614703e-002
1.028604e-001
1.085903e-001
1.134043e-001
1.173997e-001
1.206846e-001
1.233650e-001
1.255382e-001
1.272899e-001
1.286942e-001
1.298144e-001
1.307038e-001
1.314071e-001
1.319614e-001
1.323969e-001
1.327380e-001
1.330043e-001
1.332108e-001
1.333697e-001
1.334901e-001
1.335793e-001
1.336428e-001
1.336851e-001
1.337094e-001
1.337181e-001
1.337125e-001
1.336932e-001
1.336594e-001
1.336088e-001
1.335371e-001
1.334376e-001
1.332995e-001
1.331071e-001
1.328371e-001
1.324551e-001
1.319097e-001
1.311238e-001
1.299812e-001
1.283101e-001
1.258665e-001
1.223285e-001
1.173160e-001
1.104531e-001
1.014803e-001
9.039949e-002
7.759971e-002
6.388562e-002
5.035137e-002
3.811703e-002
2.803060e-002
2.047270e-002
1.534386e-002
1.220884e-002
1.050085e-002
9.690617e-003
9.375869e-003
9.297035e-003
9.310075e-003
9.346778e-003
9.380803e-003
9.405323e-003
9.420914e-003
9.430051e-003
9.435078e-003
9.437693e-003
9.438978e-003
9.439571e-003
9.439823e-003
9.439920e-003
9.439951e-003
9.439958e-003
9.439937e-003
9.439784e-003
9.439389e-003
9.438542e-003
9.436844e-003
9.433597e-003
9.427649e-003
9.417225e-003
9.399852e-003
9.372692e-003
9.334008e-003
9.287266e-003
9.250347e-003
9.272906e-003
9.463535e-003
1.002318e-002
1.127187e-002
1.364604e-002
1.764202e-002
2.369685e-002
3.203145e-002
4.251755e-002
5.463869e-002
6.757977e-002
8.041431e-002
9.231101e-002
1.026824e-001
1.112393e-001
1.179604e-001
1.230134e-001
1.266678e-001
1.292223e-001
1.309565e-001
1.321043e-001
1.328463e-001
1.333147e-001
1.336028e-001
1.337760e-001
1.338795e-001
1.339437e-001
1.339882e-001
1.340240e-001
1.340560e-001
1.340850e-001
1.341099e-001
1.341286e-001
1.341396e-001
1.341423e-001
1.341372e-001
1.341261e-001
1.341117e-001
1.340975e-001
1.340874e-001
1.340859e-001
1.340975e-001
1.341264e-001
1.341766e-001
1.342508e-001
1.343498e-001
1.344713e-001
1.346085e-001
1.347480e-001
1.348687e-001
1.349406e-001
1.349262e-001
1.347838e-001
1.344725e-001
1.339540e-001
1.331801e-001
1.320541e-001
1.303592e-001
1.276724e-001
1.233185e-001
1.164654e-001
1.064337e-001
9.313646e-002
7.738254e-002
6.078254e-002
4.523835e-002
3.228807e-002
2.267083e-002
1.629751e-002
1.253492e-002
1.057211e-002
9.688057e-003
9.366703e-003
9.296300e-003
9.315665e-003
9.354248e-003
9.387453e-003
9.410235e-003
9.424146e-003
9.432005e-003
9.436179e-003
9.438274e-003
9.439264e-003
9.439702e-003
9.439879e-003
9.439943e-003
9.439962e-003
9.439763e-003
9.439500e-003
9.438832e-003
9.437432e-003
9.434679e-003
9.429507e-003
9.420198e-003
9.404227e-003
9.378427e-003
9.340228e-003
9.291651e-003
9.249270e-003
9.264940e-003
9.461878e-003
1.008526e-002
1.155259e-002
1.446906e-002
1.955822e-002
2.747277e-002
3.850934e-002
5.234181e-002
6.794027e-002
8.378115e-002
9.828696e-002
1.102849e-001
1.192698e-001
1.253870e-001
1.292043e-001
1.314237e-001
1.326660e-001
1.333751e-001
1.338150e-001
1.341111e-001
1.343014e-001
1.343843e-001
1.343494e-001
1.341929e-001
1.339204e-001
1.335436e-001
1.330770e-001
1.325350e-001
1.319308e-001
1.312766e-001
1.305843e-001
1.298655e-001
1.291322e-001
1.283963e-001
1.276697e-001
1.269641e-001
1.262913e-001
1.256631e-001
1.250914e-001
1.245892e-001
1.241707e-001
1.238515e-001
1.236493e-001
1.235840e-001
1.236771e-001
1.239518e-001
1.244309e-001
1.251352e-001
1.260797e-001
1.272684e-001
1.286867e-001
1.302920e-001
1.320021e-001
1.336836e-001
1.351459e-001
1.361500e-001
1.364521e-001
1.358911e-001
1.344764e-001
1.323254e-001
1.293113e-001
1.246132e-001
1.167529e-001
1.044757e-001
8.792681e-002
6.902179e-002
5.061576e-002
3.516953e-002
2.387484e-002
1.662119e-002
1.251840e-002
1.048723e-002
9.629185e-003
9.344681e-003
9.297031e-003
9.325153e-003
9.364573e-003
9.395592e-003
9.415738e-003
9.427518e-003
9.433922e-003
9.437201e-003
9.438785e-003
9.439504e-003
9.439807e-003
9.439923e-003
9.439961e-003
9.439455e-003
9.439026e-003
9.437954e-003
9.435741e-003
9.431460e-003
9.423546e-003
9.409569e-003
9.386214e-003
9.350133e-003
9.301324e-003
9.252589e-003
9.251304e-003
9.421502e-003
1.003062e-002
1.156934e-002
1.480091e-002
2.069957e-002
3.019183e-002
4.369426e-002
6.062068e-002
7.920397e-002
9.692620e-002
1.114708e-001
1.216617e-001
1.277749e-001
1.310451e-001
1.328111e-001
1.339215e-001
1.346476e-001
1.349331e-001
1.346725e-001
1.338438e-001
1.325102e-001
1.307771e-001
1.287567e-001
1.265494e-001
1.242372e-001
1.218824e-001
1.195306e-001
1.172134e-001
1.149529e-001
1.127647e-001
1.106601e-001
1.086485e-001
1.067372e-001
1.049323e-001
1.032392e-001
1.016622e-001
1.002052e-001
9.887235e-002
9.766850e-002
9.659993e-002
9.567518e-002
9.490581e-002
9.430712e-002
9.389897e-002
9.370640e-002
9.376030e-002
9.409804e-002
9.476383e-002
9.580879e-002
9.729040e-002
9.927061e-002
1.018120e-001
1.049702e-001
1.087807e-001
1.132365e-001
1.182529e-001
1.236169e-001
1.289287e-001
1.335631e-001
1.367248e-001
1.376995e-001
1.363132e-001
1.331746e-001
1.288698e-001
1.224358e-001
1.114898e-001
9.478794e-002
7.414498e-002
5.342968e-002
3.612550e-002
2.381384e-002
1.623310e-002
1.216488e-002
1.027302e-002
9.534684e-003
9.319903e-003
9.302261e-003
9.338433e-003
9.376797e-003
9.404340e-003
9.421240e-003
9.430694e-003
9.435634e-003
9.438068e-003
9.439198e-003
9.439689e-003
9.439885e-003
9.439951e-003
9.438960e-003
9.438294e-003
9.436646e-003
9.433286e-003
9.426884e-003
9.415240e-003
9.395119e-003
9.362662e-003
9.315815e-003
9.262187e-003
9.239129e-003
9.356859e-003
9.875420e-003
1.131274e-002
1.454194e-002
2.077206e-002
3.125730e-002
4.664516e-002
6.615136e-002
8.715708e-002
1.059328e-001
1.194921e-001
1.273152e-001
1.312425e-001
1.335036e-001
1.350139e-001
1.354699e-001
1.344011e-001
1.317655e-001
1.278940e-001
1.232430e-001
1.182249e-001
1.131456e-001
1.082025e-001
1.035082e-001
9.911629e-002
9.504313e-002
9.128307e-002
8.781914e-002
8.462998e-002
8.169392e-002
7.899118e-002
7.650460e-002
7.421957e-002
7.212361e-002
7.020583e-002
6.845663e-002
6.686754e-002
6.543133e-002
6.414227e-002
6.299655e-002
6.199273e-002
6.113233e-002
6.042033e-002
5.986580e-002
5.948255e-002
5.928990e-002
5.931364e-002
5.958716e-002
6.015300e-002
6.106459e-002
6.238848e-002
6.420681e-002
6.661976e-002
6.974735e-002
7.372915e-002
7.871872e-002
8.486704e-002
9.228456e-002
1.009670e-001
1.106685e-001
1.207250e-001
1.298903e-001
1.364009e-001
1.386430e-001
1.364817e-001
1.317163e-001
1.253966e-001
1.150866e-001
9.802030e-002
7.576579e-002
5.328887e-002
3.497807e-002
2.250535e-002
1.523480e-002
1.157286e-002
9.992487e-003
9.434728e-003
9.302897e-003
9.313815e-003
9.354606e-003
9.389712e-003
9.412837e-003
9.426258e-003
9.433438e-003
9.437044e-003
9.438750e-003
9.439509e-003
9.439820e-003
9.439928e-003
9.438220e-003
9.437227e-003
9.434790e-003
9.429881e-003
9.420653e-003
9.404169e-003
9.376444e-003
9.333868e-003
9.278839e-003
9.236015e-003
9.291093e-003
9.668434e-003
1.085708e-002
1.375820e-002
1.974417e-002
3.041261e-002
4.681126e-002
6.822146e-002
9.130509e-002
1.109993e-001
1.236503e-001
1.298927e-001
1.332025e-001
1.354197e-001
1.356086e-001
1.326127e-001
1.266104e-001
1.186750e-001
1.099625e-001
1.013183e-001
9.323161e-002
8.592321e-002
7.944693e-002
7.376675e-002
6.880560e-002
6.447309e-002
6.068017e-002
5.734599e-002
5.440076e-002
5.178629e-002
4.945516e-002
4.736934e-002
4.549844e-002
4.381801e-002
4.230809e-002
4.095207e-002
3.973592e-002
3.864769e-002
3.767734e-002
3.681670e-002
3.605955e-002
3.540179e-002
3.484171e-002
3.438019e-002
3.402108e-002
3.377158e-002
3.364278e-002
3.365046e-002
3.381606e-002
3.416817e-002
3.474451e-002
3.559468e-002
3.678397e-002
3.839841e-002
4.055154e-002
4.339294e-002
4.711809e-002
5.197721e-002
5.827674e-002
6.635914e-002
7.653390e-002
8.891716e-002
1.031346e-001
1.178992e-001
1.306894e-001
1.382095e-001
1.385200e-001
1.335822e-001
1.267081e-001
1.161077e-001
9.785492e-002
7.381041e-002
5.022270e-002
3.195360e-002
2.024825e-002
1.387203e-002