# vtk DataFile Version 3.0
vtk output
ASCII
DATASET STRUCTURED_POINTS
DIMENSIONS 100 100 1
SPACING 1 1 1
ORIGIN 0 0 0
POINT_DATA 10000
SCALARS SFBox_profile double
LOOKUP_TABLE default 
0.000000e+000
0.000000e+000
0.000000e+000
0.000000e+000
0.000000e+000
0.000000e+000
0.000000e+000
0.000000e+000
0.000000e+000
0.000000e+000
0.000000e+000
0.000000e+000
0.000000e+000
0.000000e+000
0.000000e+000
0.000000e+000
0.000000e+000
0.000000e+000
0.000000e+000
0.000000e+000
0.000000e+000
0.000000e+000
0.000000e+000
0.000000e+000
0.000000e+000
0.000000e+000
0.000000e+000
0.000000e+000
0.000000e+000
0.000000e+000
0.000000e+000
0.000000e+000
0.000000e+000
0.000000e+000
0.000000e+000
0.000000e+000
0.000000e+000
0.000000e+000
0.000000e+000
0.000000e+000
0.000000e+000
0.000000e+000
0.000000e+000
0.000000e+000
0.000000e+000
0.000000e+000
0.000000e+000
0.000000e+000
0.000000e+000
0.000000e+000
0.000000e+000
0.000000e+000
0.000000e+000
0.000000e+000
0.000000e+000
0.000000e+000
0.000000e+000
0.000000e+000
0.000000e+000
0.000000e+000
0.000000e+000
0.000000e+000
0.000000e+000
0.000000e+000
0.000000e+000
0.000000e+000
0.000000e+000
0.000000e+000
0.000000e+000
0.000000e+000
0.000000e+000
0.000000e+000
0.000000e+000
0.000000e+000
0.000000e+000
0.000000e+000
0.000000e+000
0.000000e+000
0.000000e+000
0.000000e+000
0.000000e+000
0.000000e+000
0.000000e+000
0.000000e+000
0.000000e+000
0.000000e+000
0.000000e+000
0.000000e+000
0.000000e+000
0.000000e+000
0.000000e+000
0.000000e+000
0.000000e+000
0.000000e+000
0.000000e+000
0.000000e+000
0.000000e+000
0.000000e+000
0.000000e+000
0.000000e+000
2.076933e-009
1.186258e-009
1.087191e-010
-5.860297e-010
-9.892169e-010
-1.361197e-009
-1.376175e-009
-3.295469e-010
1.741902e-009
3.485582e-009
3.247561e-009
7.950073e-010
-2.207939e-009
-3.674794e-009
-3.015679e-009
-1.454716e-009
-5.082418e-010
-4.133907e-010
-1.943023e-010
9.339810e-010
2.571113e-009
3.603570e-009
3.414290e-009
2.404002e-009
1.411882e-009
8.894426e-010
7.151259e-010
5.930160e-010
3.991320e-010
1.782512e-010
2.163182e-011
3.024120e-011
2.552579e-010
5.521979e-010
5.930188e-010
2.008047e-010
-3.431657e-010
-5.247915e-010
-2.209961e-010
6.334940e-011
-2.291705e-010
-9.666990e-010
-1.413415e-009
-1.133432e-009
-5.790613e-010
-5.423578e-010
-1.118808e-009
-1.540825e-009
-1.157411e-009
-3.136920e-010
4.669943e-011
-4.142920e-010
-9.756191e-010
-7.689618e-010
1.060597e-010
7.070542e-010
4.534066e-010
-1.527871e-010
-2.172738e-010
3.571844e-010
7.387959e-010
2.641485e-010
-6.611143e-010
-1.027119e-009
-4.571867e-010
3.594941e-010
5.764344e-010
2.679805e-010
3.065692e-010
1.200558e-009
2.359623e-009
2.712407e-009
1.927072e-009
7.635320e-010
1.627704e-010
1.918148e-010
8.926829e-011
-6.909404e-010
-1.709380e-009
-1.957972e-009
-9.829990e-010
5.572695e-010
1.508688e-009
1.324094e-009
4.868354e-010
-1.206812e-010
-1.523455e-010
-3.197944e-011
-3.005229e-010
-8.619349e-010
-1.006080e-009
-2.262692e-010
1.051348e-009
1.690513e-009
9.200608e-010
-7.831183e-010
-1.969528e-009
-1.510595e-009
2.921302e-010
1.896210e-009
6.984811e-010
2.343670e-010
-6.212499e-011
2.009314e-010
5.990380e-010
4.109024e-010
-4.028445e-010
-1.042657e-009
-7.992249e-010
6.693648e-011
6.139174e-010
3.471288e-010
-1.985948e-010
-1.403039e-010
6.526277e-010
1.383242e-009
1.261879e-009
3.947290e-010
-4.058482e-010
-5.681085e-010
-2.924992e-010
-1.298880e-010
-2.619721e-010
-3.765102e-010
-1.549530e-010
3.489764e-010
8.662006e-010
1.262111e-009
1.581839e-009
1.843630e-009
1.988639e-009
2.058486e-009
2.239694e-009
2.609243e-009
2.949315e-009
2.995061e-009
2.842794e-009
2.907841e-009
3.386323e-009
3.925516e-009
4.025661e-009
3.709708e-009
3.547095e-009
3.923480e-009
4.495208e-009
4.596340e-009
4.112884e-009
3.665531e-009
3.815819e-009
4.318947e-009
4.426066e-009
3.865017e-009
3.211800e-009
3.148843e-009
3.575309e-009
3.740713e-009
3.231013e-009
2.514915e-009
2.335831e-009
2.746387e-009
3.041849e-009
2.669018e-009
1.924846e-009
1.550021e-009
1.759649e-009
1.963825e-009
1.525084e-009
5.762351e-010
-1.310135e-010
-1.359427e-010
2.071531e-010
2.160542e-010
-2.598124e-010
-6.691588e-010
-4.547499e-010
2.558451e-010
7.842176e-010
6.658512e-010
1.353040e-010
-1.937455e-010
-3.167120e-011
3.098034e-010
3.294989e-010
-7.563561e-011
-5.015008e-010
-4.901263e-010
-2.878055e-011
4.312940e-010
4.381161e-010
-3.419322e-013
-4.222315e-010
-3.770718e-010
1.116253e-010
5.520840e-010
4.694909e-010
-1.017621e-010
-6.225579e-010
-5.717507e-010
2.454316e-011
5.997452e-010
-8.359212e-010
-1.001326e-009
-6.971034e-010
4.440224e-010
1.819058e-009
2.249558e-009
1.109130e-009
-1.012891e-009
-2.780872e-009
-3.177936e-009
-2.128182e-009
-2.747278e-010
1.608443e-009
2.963258e-009
3.481058e-009
3.108168e-009
2.098321e-009
9.001918e-010
-1.615133e-010
-1.075780e-009
-1.932294e-009
-2.560781e-009
-2.546227e-009
-1.689195e-009
-3.469552e-010
8.368683e-010
1.544047e-009
1.998810e-009
2.540640e-009
3.131979e-009
3.446265e-009
3.385143e-009
3.288727e-009
3.530234e-009
4.043214e-009
4.432818e-009
4.521089e-009
4.576288e-009
4.915186e-009
5.440566e-009
5.766265e-009
5.756790e-009
5.719565e-009
5.967361e-009
6.355848e-009
6.452610e-009
6.122286e-009
5.724341e-009
5.641586e-009
5.777368e-009
5.706572e-009
5.270416e-009
4.798114e-009
4.653143e-009
4.729163e-009
4.590600e-009
4.074283e-009
3.540638e-009
3.432008e-009
3.718399e-009
3.949520e-009
3.822381e-009
3.511376e-009
3.353509e-009
3.338654e-009
3.083677e-009
2.308595e-009
1.188837e-009
1.558620e-010
-5.574082e-010
-1.045988e-009
-1.434632e-009
-1.606481e-009
-1.327388e-009
-5.797017e-010
3.432218e-010
1.088839e-009
1.505955e-009
1.615339e-009
1.412956e-009
8.357532e-010
-4.846469e-011
-9.145491e-010
-1.349838e-009
-1.172923e-009
-5.565523e-010
1.549924e-010
6.964734e-010
9.442948e-010
8.299139e-010
3.317898e-010
-3.916693e-010
-9.428515e-010
-9.039092e-010
-2.126570e-010
6.802009e-010
1.101129e-009
6.934879e-010
-2.601171e-010
-1.034941e-009
-8.082283e-010
-1.255783e-009
-1.412067e-009
-6.031903e-010
9.722312e-010
2.244735e-009
2.127473e-009
4.701973e-010
-1.721633e-009
-2.990956e-009
-2.486345e-009
-5.567968e-010
1.540794e-009
2.575587e-009
2.208305e-009
1.132377e-009
3.915207e-010
4.572214e-010
8.900258e-010
9.024460e-010
2.645733e-010
-3.928542e-010
-2.298484e-010
8.762243e-010
2.150505e-009
2.708511e-009
2.443756e-009
2.029601e-009
2.075300e-009
2.447532e-009
2.528032e-009
2.030090e-009
1.351364e-009
1.065612e-009
1.230684e-009
1.367782e-009
1.080517e-009
5.039156e-010
6.339436e-011
-7.290452e-011
-1.386405e-010
-3.992024e-010
-8.132122e-010
-1.144468e-009
-1.300018e-009
-1.416768e-009
-1.630148e-009
-1.889985e-009
-2.058908e-009
-2.100745e-009
-2.079166e-009
-2.013454e-009
-1.847445e-009
-1.577312e-009
-1.311059e-009
-1.133479e-009
-9.684102e-010
-6.631683e-010
-1.962306e-010
2.892272e-010
6.814645e-010
1.041140e-009
1.473133e-009
1.913259e-009
2.157772e-009
2.119322e-009
1.944286e-009
1.798783e-009
1.613534e-009
1.178830e-009
5.060942e-010
-4.565538e-011
-1.225660e-010
1.964978e-010
4.698276e-010
4.279037e-010
3.099710e-010
5.341311e-010
1.073578e-009
1.342924e-009
8.209310e-010
-2.859876e-010
-1.154220e-009
-1.160457e-009
-4.951483e-010
1.192297e-010
2.555179e-010
1.788289e-010
3.702583e-010
7.910908e-010
8.241178e-010
2.721147e-011
-1.162534e-009
-1.663045e-009
-7.998989e-010
8.873402e-010
1.986400e-009
1.469966e-009
-3.087320e-010
-1.860240e-009
1.294291e-009
2.910669e-010
-1.058931e-009
-1.814922e-009
-1.363012e-009
8.737876e-011
1.562890e-009
2.040915e-009
1.299521e-009
1.137378e-010
-4.731425e-010
-1.594582e-010
3.342008e-010
5.175686e-011
-1.109364e-009
-2.148094e-009
-1.870910e-009
-7.596310e-011
2.202369e-009
3.654109e-009
3.878637e-009
3.590637e-009
3.692091e-009
4.251117e-009
4.481607e-009
3.687324e-009
2.080716e-009
5.707609e-010
-2.041229e-010
-4.974536e-010
-1.074891e-009
-2.331215e-009
-3.919358e-009
-5.242869e-009
-6.162645e-009
-7.100274e-009
-8.494814e-009
-1.030110e-008
-1.207923e-008
-1.349124e-008
-1.460697e-008
-1.573224e-008
-1.702970e-008
-1.835582e-008
-1.942621e-008
-2.008633e-008
-2.042593e-008
-2.066273e-008
-2.091357e-008
-2.105678e-008
-2.083080e-008
-2.010499e-008
-1.904580e-008
-1.795534e-008
-1.692322e-008
-1.571099e-008
-1.406245e-008
-1.209192e-008
-1.023656e-008
-8.773567e-009
-7.495790e-009
-5.996722e-009
-4.237049e-009
-2.648500e-009
-1.590622e-009
-8.454032e-010
1.466585e-010
1.544164e-009
2.802045e-009
3.259959e-009
2.935605e-009
2.514081e-009
2.497725e-009
2.563774e-009
1.974435e-009
5.859615e-010
-7.909916e-010
-1.190817e-009
-5.537958e-010
2.110926e-010
2.612502e-010
-2.510716e-010
-4.429603e-010
1.661777e-010
1.006609e-009
1.081591e-009
1.524792e-010
-8.992668e-010
-9.911498e-010
-3.628534e-011
9.205947e-010
8.061109e-010
-3.183886e-010
-1.284067e-009
-1.018044e-009
3.257834e-010
1.476878e-009
1.294452e-009
-9.634449e-011
-1.403530e-009
3.370794e-009
2.506249e-009
7.708061e-010
-1.353565e-009
-2.757363e-009
-2.440796e-009
-4.968621e-010
1.791290e-009
2.993055e-009
2.691557e-009
1.590059e-009
5.682099e-010
-1.753061e-010
-9.743272e-010
-1.874359e-009
-2.249666e-009
-1.383532e-009
6.587313e-010
2.907551e-009
4.301834e-009
4.564948e-009
4.230898e-009
3.876413e-009
3.456988e-009
2.445117e-009
5.299644e-010
-1.954168e-009
-4.337086e-009
-6.286318e-009
-8.107061e-009
-1.038451e-008
-1.339220e-008
-1.688070e-008
-2.039991e-008
-2.375510e-008
-2.712588e-008
-3.078255e-008
-3.473804e-008
-3.868812e-008
-4.227463e-008
-4.539861e-008
-4.827713e-008
-5.118031e-008
-5.409471e-008
-5.666157e-008
-5.849506e-008
-5.957451e-008
-6.026078e-008
-6.085984e-008
-6.120552e-008
-6.078723e-008
-5.932910e-008
-5.712818e-008
-5.468795e-008
-5.206261e-008
-4.876372e-008
-4.442123e-008
-3.939528e-008
-3.451338e-008
-3.019354e-008
-2.604958e-008
-2.151800e-008
-1.673264e-008
-1.250154e-008
-9.362941e-009
-6.912341e-009
-4.303010e-009
-1.338173e-009
1.219400e-009
2.543374e-009
2.747259e-009
2.738360e-009
3.094264e-009
3.364548e-009
2.685823e-009
9.730355e-010
-7.740591e-010
-1.448389e-009
-9.573411e-010
-1.941791e-010
5.498256e-011
-5.092908e-011
2.159242e-010
1.074288e-009
1.786479e-009
1.413258e-009
-7.056338e-011
-1.574496e-009
-1.876926e-009
-7.856451e-010
7.034551e-010
1.366738e-009
8.405993e-010
-1.896392e-010
-7.626218e-010
-5.313685e-010
6.125800e-011
3.634724e-010
1.801393e-010
-1.279114e-010
1.984570e-009
2.610489e-009
2.600089e-009
1.011329e-009
-1.460788e-009
-2.980516e-009
-2.360435e-009
-1.996020e-010
1.778491e-009
2.357444e-009
1.710120e-009
8.477167e-010
5.143666e-010
7.293201e-010
1.170530e-009
1.659622e-009
2.170866e-009
2.570373e-009
2.588654e-009
2.076457e-009
1.142856e-009
-4.970986e-011
-1.564039e-009
-3.669103e-009
-6.558646e-009
-1.017932e-008
-1.436930e-008
-1.909977e-008
-2.451479e-008
-3.076075e-008
-3.784580e-008
-4.566449e-008
-5.407485e-008
-6.289526e-008
-7.188291e-008
-8.081990e-008
-8.964211e-008
-9.840453e-008
-1.070616e-007
-1.153406e-007
-1.229352e-007
-1.298236e-007
-1.362703e-007
-1.424192e-007
-1.479604e-007
-1.523489e-007
-1.553806e-007
-1.573922e-007
-1.587616e-007
-1.592928e-007
-1.583088e-007
-1.554047e-007
-1.509143e-007
-1.454397e-007
-1.390152e-007
-1.310263e-007
-1.210733e-007
-1.096995e-007
-9.799774e-008
-8.653812e-008
-7.498450e-008
-6.291946e-008
-5.082293e-008
-3.990503e-008
-3.094673e-008
-2.359235e-008
-1.698339e-008
-1.092364e-008
-6.104664e-009
-3.134231e-009
-1.627750e-009
-5.179277e-010
8.119217e-010
1.974103e-009
2.242722e-009
1.571296e-009
7.248763e-010
4.351876e-010
6.552433e-010
7.786978e-010
4.702220e-010
6.533548e-011
1.026426e-010
6.117945e-010
1.017556e-009
7.492397e-010
-1.485524e-010
-1.042738e-009
-1.285685e-009
-7.311805e-010
2.312313e-010
1.020286e-009
1.221885e-009
7.556226e-010
-1.228819e-010
-9.260151e-010
-1.162666e-009
-6.510684e-010
2.947669e-010
1.027530e-009
-3.663424e-009
-8.395882e-010
2.342024e-009
3.294043e-009
1.605192e-009
-9.122816e-010
-2.189600e-009
-1.709022e-009
-4.971970e-010
2.699622e-010
3.923032e-010
5.334916e-010
1.349720e-009
2.868062e-009
4.515988e-009
5.507217e-009
5.232179e-009
3.549725e-009
8.809489e-010
-2.088797e-009
-5.026741e-009
-8.351419e-009
-1.292766e-008
-1.930860e-008
-2.735919e-008
-3.669969e-008
-4.741596e-008
-6.013024e-008
-7.531186e-008
-9.266847e-008
-1.113677e-007
-1.308002e-007
-1.509368e-007
-1.718927e-007
-1.933380e-007
-2.145540e-007
-2.350444e-007
-2.548657e-007
-2.742337e-007
-2.929462e-007
-3.104106e-007
-3.262377e-007
-3.405783e-007
-3.537116e-007
-3.654272e-007
-3.750569e-007
-3.821460e-007
-3.868553e-007
-3.895055e-007
-3.898521e-007
-3.871032e-007
-3.807285e-007
-3.710040e-007
-3.585363e-007
-3.433771e-007
-3.249475e-007
-3.029479e-007
-2.780879e-007
-2.516498e-007
-2.244299e-007
-1.964424e-007
-1.677753e-007
-1.394499e-007
-1.131032e-007
-8.983596e-008
-6.964406e-008
-5.206778e-008
-3.713549e-008
-2.537395e-008
-1.694821e-008
-1.112308e-008
-6.762995e-009
-3.226633e-009
-5.733970e-010
1.036838e-009
1.863454e-009
2.377489e-009
2.721521e-009
2.634734e-009
1.940632e-009
9.205536e-010
8.387677e-011
-3.293175e-010
-4.609538e-010
-4.852351e-010
-3.471182e-010
3.736304e-011
4.505773e-010
4.776295e-010
1.952225e-011
-4.469166e-010
-3.156431e-010
4.137102e-010
9.923783e-010
6.601712e-010
-4.704623e-010
-1.386276e-009
-1.136888e-009
1.643485e-010
1.366858e-009
-9.212231e-009
-5.282005e-009
-8.150524e-011
3.283565e-009
3.576846e-009
1.843499e-009
-3.860576e-011
-9.647532e-010
-9.830657e-010
-6.057363e-010
-1.040216e-010
6.004968e-010
1.660271e-009
3.041382e-009
4.373465e-009
4.915920e-009
3.810326e-009
6.328208e-010
-4.257528e-009
-1.015898e-008
-1.703402e-008
-2.601729e-008
-3.870539e-008
-5.588493e-008
-7.712006e-008
-1.016816e-007
-1.296801e-007
-1.619812e-007
-1.989750e-007
-2.397107e-007
-2.824879e-007
-3.262038e-007
-3.708509e-007
-4.166563e-007
-4.630339e-007
-5.086762e-007
-5.525989e-007
-5.947588e-007
-6.354861e-007
-6.745255e-007
-7.109380e-007
-7.439349e-007
-7.734948e-007
-7.999539e-007
-8.231507e-007
-8.422766e-007
-8.565911e-007
-8.659851e-007
-8.706122e-007
-8.701208e-007
-8.635929e-007
-8.503249e-007
-8.304074e-007
-8.043183e-007
-7.721118e-007
-7.333641e-007
-6.880131e-007
-6.369874e-007
-5.817904e-007
-5.236198e-007
-4.632164e-007
-4.016076e-007
-3.406564e-007
-2.825844e-007
-2.290168e-007
-1.807015e-007
-1.380963e-007
-1.018569e-007
-7.250474e-008
-4.977579e-008
-3.262172e-008
-1.991548e-008
-1.094884e-008
-5.157231e-009
-1.639130e-009
6.802364e-010
2.365564e-009
3.230433e-009
2.973089e-009
1.918044e-009
8.856784e-010
3.495766e-010
1.612208e-011
-5.719074e-010
-1.191274e-009
-1.040607e-009
2.056010e-010
1.688008e-009
2.023101e-009
7.483830e-010
-1.060646e-009
-1.784604e-009
-8.698595e-010
6.482079e-010
1.250280e-009
4.779510e-010
-6.920127e-010
-9.679998e-010
-1.156722e-010
8.606340e-010
-8.277289e-009
-5.776568e-009
-2.152951e-009
9.016470e-010
2.473716e-009
2.657521e-009
2.053111e-009
1.269632e-009
7.805357e-010
8.658832e-010
1.436400e-009
2.009815e-009
2.091376e-009
1.598896e-009
7.161433e-010
-7.721477e-010
-3.831289e-009
-9.671816e-009
-1.899166e-008
-3.203270e-008
-4.950629e-008
-7.316932e-008
-1.050727e-007
-1.461465e-007
-1.957613e-007
-2.528235e-007
-3.170699e-007
-3.889398e-007
-4.681843e-007
-5.529966e-007
-6.408373e-007
-7.300176e-007
-8.201650e-007
-9.111094e-007
-1.001673e-006
-1.089884e-006
-1.174269e-006
-1.254574e-006
-1.331038e-006
-1.403241e-006
-1.469975e-006
-1.530203e-006
-1.583791e-006
-1.631058e-006
-1.671803e-006
-1.705074e-006
-1.729891e-006
-1.745885e-006
-1.752985e-006
-1.750658e-006
-1.737806e-006
-1.713463e-006
-1.677366e-006
-1.629641e-006
-1.570172e-006
-1.498607e-006
-1.415084e-006
-1.320694e-006
-1.217131e-006
-1.106103e-006
-9.893913e-007
-8.694209e-007
-7.493961e-007
-6.326449e-007
-5.219251e-007
-4.194680e-007
-3.274172e-007
-2.477165e-007
-1.813390e-007
-1.278434e-007
-8.594838e-008
-5.446071e-008
-3.238769e-008
-1.821268e-008
-9.560492e-009
-4.035910e-009
-3.853965e-010
1.463102e-009
1.569157e-009
8.676194e-010
6.149470e-010
1.119129e-009
1.476775e-009
8.028121e-010
-4.995375e-010
-1.040274e-009
-5.081621e-011
1.586331e-009
2.152909e-009
9.007161e-010
-1.134195e-009
-2.171153e-009
-1.428805e-009
2.333724e-010
1.303599e-009
1.081819e-009
1.468646e-010
-4.616253e-010
-3.383502e-010
4.137371e-011
5.860525e-010
-3.603294e-010
-1.470635e-009
-1.743044e-009
-7.445559e-010
9.859049e-010
2.374487e-009
2.802492e-009
2.673591e-009
2.872226e-009
3.622726e-009
4.033166e-009
2.892082e-009
-2.181401e-010
-4.889789e-009
-1.107930e-008
-2.016215e-008
-3.464899e-008
-5.699598e-008
-8.898291e-008
-1.322438e-007
-1.889116e-007
-2.611590e-007
-3.499518e-007
-4.545118e-007
-5.731885e-007
-7.046402e-007
-8.478382e-007
-1.000974e-006
-1.160851e-006
-1.323762e-006
-1.486945e-006
-1.648921e-006
-1.808429e-006
-1.963414e-006
-2.111374e-006
-2.250613e-006
-2.380778e-006
-2.502046e-006
-2.614006e-006
-2.715593e-006
-2.806004e-006
-2.885304e-006
-2.953919e-006
-3.011711e-006
-3.057797e-006
-3.091267e-006
-3.111740e-006
-3.119064e-006
-3.112610e-006
-3.091174e-006
-3.053560e-006
-2.999036e-006
-2.927087e-006
-2.836983e-006
-2.727907e-006
-2.599553e-006
-2.452444e-006
-2.287686e-006
-2.106802e-006
-1.912135e-006
-1.707374e-006
-1.497360e-006
-1.287287e-006
-1.082215e-006
-8.872929e-007
-7.078746e-007
-5.486664e-007
-4.123898e-007
-2.993790e-007
-2.085667e-007
-1.386161e-007
-8.785236e-008
-5.336759e-008
-3.093876e-008
-1.640930e-008
-7.186311e-009
-2.180422e-009
-3.958312e-010
-4.945693e-011
6.357634e-010
2.032509e-009
3.017031e-009
2.486699e-009
7.799171e-010
-6.136136e-010
-6.398357e-010
2.927465e-010
9.190187e-010
5.222952e-010
-4.425939e-010
-1.010175e-009
-7.281739e-010
4.279087e-011
6.478853e-010
7.479323e-010
4.472772e-010
2.811948e-011
-3.051712e-010
-4.772306e-010
1.065727e-008
6.719140e-009
1.270868e-009
-2.542834e-009
-3.027964e-009
-9.194380e-010
1.582255e-009
2.831247e-009
2.952160e-009
3.150055e-009
3.925137e-009
4.109970e-009
1.676035e-009
-4.774779e-009
-1.569037e-008
-3.186896e-008
-5.589924e-008
-9.210115e-008
-1.450750e-007
-2.184460e-007
-3.148606e-007
-4.365787e-007
-5.853645e-007
-7.615175e-007
-9.631817e-007
-1.186777e-006
-1.427993e-006
-1.682206e-006
-1.944172e-006
-2.207955e-006
-2.467767e-006
-2.719038e-006
-2.958625e-006
-3.184066e-006
-3.392974e-006
-3.583386e-006
-3.754559e-006
-3.907073e-006
-4.041978e-006
-4.159934e-006
-4.261233e-006
-4.346483e-006
-4.416894e-006
-4.473756e-006
-4.517761e-006
-4.549017e-006
-4.567667e-006
-4.574252e-006
-4.569359e-006
-4.553030e-006
-4.524684e-006
-4.483496e-006
-4.428554e-006
-4.358516e-006
-4.271278e-006
-4.164166e-006
-4.034408e-006
-3.879308e-006
-3.696227e-006
-3.483033e-006
-3.239202e-006
-2.966757e-006
-2.670266e-006
-2.356247e-006
-2.032947e-006
-1.710532e-006
-1.400586e-006
-1.114191e-006
-8.596109e-007
-6.413483e-007
-4.609406e-007
-3.180431e-007
-2.104375e-007
-1.334923e-007
-8.066635e-008
-4.540331e-008
-2.284440e-008
-9.812284e-009
-3.521771e-009
-8.820777e-010
7.171018e-010
2.265595e-009
3.230278e-009
2.902510e-009
1.509613e-009
2.322079e-011
-7.966077e-010
-8.874531e-010
-5.502030e-010
-6.049806e-012
5.735251e-010
8.690266e-010
5.992032e-010
-6.033950e-011
-5.019414e-010
-3.127834e-010
2.195554e-010
4.169070e-010
2.175668e-011
-4.870963e-010
1.255109e-008
8.544002e-009
2.907085e-009
-1.241045e-009
-2.143383e-009
-4.181132e-010
1.782069e-009
2.707419e-009
2.293504e-009
1.616138e-009
1.101908e-009
-7.231378e-010
-6.829776e-009
-2.035785e-008
-4.406462e-008
-8.123631e-008
-1.369464e-007
-2.180583e-007
-3.317171e-007
-4.836019e-007
-6.771641e-007
-9.137184e-007
-1.192366e-006
-1.509326e-006
-1.857359e-006
-2.226147e-006
-2.603564e-006
-2.977083e-006
-3.334798e-006
-3.666193e-006
-3.962892e-006
-4.219167e-006
-4.431869e-006
-4.599949e-006
-4.724088e-006
-4.806647e-006
-4.851564e-006
-4.863783e-006
-4.848415e-006
-4.810244e-006
-4.753812e-006
-4.683708e-006
-4.604514e-006
-4.520441e-006
-4.435140e-006
-4.352000e-006
-4.274612e-006
-4.206850e-006
-4.152468e-006
-4.114654e-006
-4.095893e-006
-4.097900e-006
-4.121159e-006
-4.164113e-006
-4.222574e-006
-4.289646e-006
-4.355819e-006
-4.408899e-006
-4.434251e-006
-4.416157e-006
-4.340233e-006
-4.195837e-006
-3.977597e-006
-3.686317e-006
-3.329912e-006
-2.923921e-006
-2.490250e-006
-2.053608e-006
-1.637108e-006
-1.259166e-006
-9.324034e-007
-6.635389e-007
-4.532986e-007
-2.967854e-007
-1.852497e-007
-1.089148e-007
-5.918090e-008
-2.906718e-008
-1.256386e-008
-4.383457e-009
-5.317206e-010
1.234502e-009
1.843259e-009
1.777996e-009
1.442735e-009
9.615667e-010
1.907621e-010
-7.513270e-010
-1.179336e-009
-4.542123e-010
1.062639e-009
2.031189e-009
1.421709e-009
-2.940273e-010
-1.526443e-009
-1.228787e-009
2.658341e-011
7.940233e-010
4.257527e-010
-3.045675e-010
3.813901e-009
2.895823e-009
1.656246e-009
9.495427e-010
1.315419e-009
2.513747e-009
3.604255e-009
3.617287e-009
2.204753e-009
-5.136602e-010
-5.006957e-009
-1.347446e-008
-3.015270e-008
-6.076471e-008
-1.119748e-007
-1.915231e-007
-3.086444e-007
-4.736825e-007
-6.963374e-007
-9.831366e-007
-1.335261e-006
-1.747344e-006
-2.207113e-006
-2.695568e-006
-3.187906e-006
-3.655531e-006
-4.069152e-006
-4.402247e-006
-4.633934e-006
-4.750575e-006
-4.745998e-006
-4.620719e-006
-4.380809e-006
-4.036843e-006
-3.602956e-006
-3.095704e-006
-2.532615e-006
-1.930817e-006
-1.306291e-006
-6.738115e-007
-4.709508e-008
5.612367e-007
1.139788e-006
1.678199e-006
2.166517e-006
2.594498e-006
2.951259e-006
3.225423e-006
3.405457e-006
3.479985e-006
3.438166e-006
3.270562e-006
2.970664e-006
2.536741e-006
1.973431e-006
1.292950e-006
5.162646e-007
-3.258197e-007
-1.192588e-006
-2.035447e-006
-2.802108e-006
-3.441903e-006
-3.911323e-006
-4.179641e-006
-4.234269e-006
-4.084320e-006
-3.760232e-006
-3.308694e-006
-2.784450e-006
-2.241619e-006
-1.726461e-006
-1.272347e-006
-8.974105e-007
-6.054628e-007
-3.898362e-007
-2.383876e-007
-1.374666e-007
-7.400802e-008
-3.651372e-008
-1.581826e-008
-5.485864e-009
-1.293568e-009
-1.710843e-010
2.591748e-010
1.170750e-009
2.140390e-009
2.029013e-009
6.147584e-010
-8.276616e-010
-8.186671e-010
5.902093e-010
1.749039e-009
1.226016e-009
-5.524080e-010
-1.764285e-009
-1.237852e-009
2.890505e-010
1.115704e-009
5.548757e-010
-3.936560e-010
-7.768221e-009
-4.753729e-009
-4.613069e-010
3.025705e-009
4.752020e-009
5.146474e-009
5.003461e-009
4.294687e-009
1.821109e-009
-4.409324e-009
-1.703839e-008
-4.007444e-008
-8.005184e-008
-1.466795e-007
-2.525086e-007
-4.119199e-007
-6.397840e-007
-9.494807e-007
-1.349582e-006
-1.839174e-006
-2.403104e-006
-3.009147e-006
-3.608544e-006
-4.140031e-006
-4.536407e-006
-4.732342e-006
-4.672211e-006
-4.316713e-006
-3.646946e-006
-2.664967e-006
-1.391006e-006
1.411930e-007
1.889045e-006
3.804801e-006
5.838553e-006
7.941250e-006
1.006759e-005
1.217782e-005
1.423786e-005
1.621848e-005
1.809458e-005
1.984496e-005
2.145178e-005
2.289913e-005
2.417120e-005
2.525092e-005
2.611957e-005
2.675679e-005
2.714049e-005
2.724684e-005
2.705076e-005
2.652754e-005
2.565532e-005
2.441823e-005
2.280957e-005
2.083556e-005
1.851965e-005
1.590728e-005
1.306932e-005
1.010269e-005
7.126965e-006
4.276903e-006
1.690817e-006
-5.050266e-007
-2.214044e-006
-3.385015e-006
-4.021002e-006
-4.178388e-006
-3.955878e-006
-3.476015e-006
-2.863502e-006
-2.225481e-006
-1.638726e-006
-1.146369e-006
-7.628864e-007
-4.830817e-007
-2.908299e-007
-1.658051e-007
-8.836626e-008
-4.274409e-008
-1.794996e-008
-6.455653e-009
-2.313302e-009
-6.934327e-010
1.082443e-009
2.946789e-009
3.427276e-009
1.972188e-009
-1.101272e-010
-1.004675e-009
-3.331633e-010
6.056826e-010
4.894892e-010
-5.047179e-010
-1.056093e-009
-3.861690e-010
7.877501e-010
1.121932e-009
2.464505e-010
-8.032564e-010
-1.154542e-008
-6.635039e-009
8.820791e-011
4.888992e-009
6.146013e-009
5.009750e-009
3.492908e-009
1.773522e-009
-3.042381e-009
-1.616611e-008
-4.395463e-008
-9.421604e-008
-1.781283e-007
-3.119639e-007
-5.166402e-007
-8.145760e-007
-1.224551e-006
-1.755038e-006
-2.395831e-006
-3.108586e-006
-3.819259e-006
-4.417031e-006
-4.762936e-006
-4.707415e-006
-4.112234e-006
-2.871004e-006
-9.240259e-007
1.734685e-006
5.058664e-006
8.957784e-006
1.331222e-005
1.798783e-005
2.284929e-005
2.776930e-005
3.263467e-005
3.735050e-005
4.184268e-005
4.605763e-005
4.995928e-005
5.352505e-005
5.674259e-005
5.960759e-005
6.212136e-005
6.428754e-005
6.610897e-005
6.758587e-005
6.871526e-005
6.949031e-005
6.989885e-005
6.992169e-005
6.953126e-005
6.869130e-005
6.735700e-005
6.547608e-005
6.299123e-005
5.984551e-005
5.599192e-005
5.140726e-005
4.610903e-005
4.017246e-005
3.374394e-005
2.704570e-005
2.036647e-005
1.403455e-005
8.375308e-006
3.661087e-006
6.586746e-008
-2.363441e-006
-3.710669e-006
-4.166712e-006
-3.984174e-006
-3.423800e-006
-2.708866e-006
-1.999313e-006
-1.387766e-006
-9.109971e-007
-5.676868e-007
-3.359426e-007
-1.874513e-007
-9.673850e-008
-4.479282e-008
-1.814400e-008
-6.501075e-009
-1.855066e-009
7.222532e-010
2.651819e-009
3.285642e-009
2.236748e-009
4.482294e-010
-6.863303e-010
-6.980119e-010
-2.266828e-010
-1.456483e-011
-7.566381e-011
5.814349e-011
5.334313e-010
8.922504e-010
6.084814e-010
-2.500874e-010
-1.004344e-009
-4.556954e-009
-8.545595e-010
3.879926e-009
6.449832e-009
5.585647e-009
2.505813e-009
-1.109301e-009
-6.214513e-009
-1.816956e-008
-4.622967e-008
-1.022465e-007
-2.008972e-007
-3.618527e-007
-6.114187e-007
-9.801323e-007
-1.494337e-006
-2.162057e-006
-2.954874e-006
-3.788636e-006
-4.508345e-006
-4.885520e-006
-4.635962e-006
-3.459653e-006
-1.094689e-006
2.629763e-006
7.756579e-006
1.418841e-005
2.170028e-005
2.997174e-005
3.863050e-005
4.729817e-005
5.562913e-005
6.333691e-005
7.020713e-005
7.610036e-005
8.094871e-005
8.474805e-005
8.754595e-005
8.942694e-005
9.049823e-005
9.087902e-005
9.069376e-005
9.006750e-005
8.912249e-005
8.797660e-005
8.674409e-005
8.553672e-005
8.446285e-005
8.362311e-005
8.310313e-005
8.296366e-005
8.322801e-005
8.386657e-005
8.478018e-005
8.578552e-005
8.660776e-005
8.688659e-005
8.620146e-005
8.412003e-005
8.026898e-005
7.441911e-005
6.656663e-005
5.698558e-005
4.622739e-005
3.505604e-005
2.432588e-005
1.482846e-005
7.148077e-006
1.567011e-006
-1.954017e-006
-3.719297e-006
-4.187902e-006
-3.849634e-006
-3.125825e-006
-2.316741e-006
-1.595343e-006
-1.031919e-006
-6.306929e-007
-3.640645e-007
-1.967389e-007
-9.787002e-008
-4.393372e-008
-1.745927e-008
-5.792306e-009
-8.783531e-010
1.208493e-009
1.819190e-009
1.517949e-009
8.847431e-010
3.436901e-010
-2.140019e-011
-2.104950e-010
-9.366062e-011
3.563259e-010
7.973351e-010
7.765399e-010
2.663169e-010
-2.786916e-010
-4.721503e-010
-4.129438e-010
6.210232e-009
6.876266e-009
7.437358e-009
6.820338e-009
4.326158e-009
-2.091766e-010
-7.546712e-009
-2.131499e-008
-5.010164e-008
-1.081928e-007
-2.153895e-007
-3.973940e-007
-6.868075e-007
-1.121487e-006
-1.734807e-006
-2.533508e-006
-3.463244e-006
-4.368334e-006
-4.959424e-006
-4.808097e-006
-3.386181e-006
-1.554875e-007
5.306539e-006
1.317815e-005
2.330149e-005
3.515668e-005
4.791069e-005
6.052910e-005
7.192139e-005
8.108427e-005
8.721451e-005
8.977519e-005
8.851304e-005
8.343749e-005
7.477757e-005
6.293090e-005
4.841179e-005
3.180118e-005
1.370119e-005
-5.300312e-006
-2.465135e-005
-4.384358e-005
-6.240984e-005
-7.991477e-005
-9.594056e-005
-1.100708e-004
-1.218777e-004
-1.309169e-004
-1.367328e-004
-1.388744e-004
-1.369237e-004
-1.305376e-004
-1.195054e-004
-1.038198e-004
-8.375553e-005
-5.994623e-005
-3.344171e-005
-5.722668e-006
2.135563e-005
4.571464e-005
6.530648e-005
7.844499e-005
8.414693e-005
8.238583e-005
7.416076e-005
6.132825e-005
4.622426e-005
3.117692e-005
1.805001e-005
7.955378e-006
1.201052e-006
-2.557691e-006
-4.049475e-006
-4.104006e-006
-3.439802e-006
-2.559929e-006
-1.745732e-006
-1.109299e-006
-6.621430e-007
-3.716410e-007
-1.951142e-007
-9.476649e-008
-4.173515e-008
-1.597111e-008
-4.807375e-009
-8.326810e-010
2.435753e-010
7.764279e-010
1.451746e-009
1.748729e-009
1.157910e-009
1.662106e-010
-1.820013e-010
3.706751e-010
8.742962e-010
3.857386e-010
-7.118392e-010
-1.102862e-009
-2.404287e-010
8.640686e-010
1.207427e-008
9.926525e-009
7.177776e-009
5.054416e-009
2.694181e-009
-3.101446e-009
-1.745401e-008
-4.824656e-008
-1.087146e-007
-2.203754e-007
-4.147166e-007
-7.329492e-007
-1.222225e-006
-1.923043e-006
-2.839162e-006
-3.883639e-006