# vtk DataFile Version 3.0
vtk output
ASCII
DATASET STRUCTURED_POINTS
DIMENSIONS 100 100 1
SPACING 1 1 1
ORIGIN 0 0 0
POINT_DATA 10000
SCALARS SFBox_profile double
LOOKUP_TABLE default 
0.000000e+000
0.000000e+000
0.000000e+000
0.000000e+000
0.000000e+000
0.000000e+000
0.000000e+000
0.000000e+000
0.000000e+000
0.000000e+000
0.000000e+000
0.000000e+000
0.000000e+000
0.000000e+000
0.000000e+000
0.000000e+000
0.000000e+000
0.000000e+000
0.000000e+000
0.000000e+000
0.000000e+000
0.000000e+000
0.000000e+000
0.000000e+000
0.000000e+000
0.000000e+000
0.000000e+000
0.000000e+000
0.000000e+000
0.000000e+000
0.000000e+000
0.000000e+000
0.000000e+000
0.000000e+000
0.000000e+000
0.000000e+000
0.000000e+000
0.000000e+000
0.000000e+000
0.000000e+000
0.000000e+000
0.000000e+000
0.000000e+000
0.000000e+000
0.000000e+000
0.000000e+000
0.000000e+000
0.000000e+000
0.000000e+000
0.000000e+000
0.000000e+000
0.000000e+000
0.000000e+000
0.000000e+000
0.000000e+000
0.000000e+000
0.000000e+000
0.000000e+000
0.000000e+000
0.000000e+000
0.000000e+000
0.000000e+000
0.000000e+000
0.000000e+000
0.000000e+000
0.000000e+000
0.000000e+000
0.000000e+000
0.000000e+000
0.000000e+000
0.000000e+000
0.000000e+000
0.000000e+000
0.000000e+000
0.000000e+000
0.000000e+000
0.000000e+000
0.000000e+000
0.000000e+000
0.000000e+000
0.000000e+000
0.000000e+000
0.000000e+000
0.000000e+000
0.000000e+000
0.000000e+000
0.000000e+000
0.000000e+000
0.000000e+000
0.000000e+000
0.000000e+000
0.000000e+000
0.000000e+000
0.000000e+000
0.000000e+000
0.000000e+000
0.000000e+000
0.000000e+000
0.000000e+000
0.000000e+000
-4.932562e-010
-3.698945e-010
-1.954451e-010
-3.016804e-011
1.399587e-010
3.769189e-010
6.868814e-010
9.354436e-010
8.839617e-010
3.572789e-010
-5.689671e-010
-1.521265e-009
-1.999059e-009
-1.677094e-009
-6.332231e-010
6.733740e-010
1.674475e-009
2.028267e-009
1.780399e-009
1.248289e-009
7.411726e-010
3.470509e-010
-5.659327e-011
-6.102479e-010
-1.288793e-009
-1.890941e-009
-2.197571e-009
-2.143906e-009
-1.850976e-009
-1.501870e-009
-1.188845e-009
-8.693648e-010
-4.534454e-010
7.847912e-011
6.427132e-010
1.124645e-009
1.474044e-009
1.730142e-009
1.962966e-009
2.199281e-009
2.406071e-009
2.537507e-009
2.588279e-009
2.598583e-009
2.612685e-009
2.639705e-009
2.656189e-009
2.641511e-009
2.603941e-009
2.570275e-009
2.554318e-009
2.541603e-009
2.506891e-009
2.442718e-009
2.364845e-009
2.287650e-009
2.198336e-009
2.062159e-009
1.855993e-009
1.592985e-009
1.307504e-009
1.013925e-009
6.864221e-010
2.888997e-010
-1.714982e-010
-6.265750e-010
-9.923424e-010
-1.236096e-009
-1.392939e-009
-1.507057e-009
-1.555890e-009
-1.444135e-009
-1.089358e-009
-5.224617e-010
1.013616e-010
6.039908e-010
9.066882e-010
1.053927e-009
1.114552e-009
1.064462e-009
7.842911e-010
1.966125e-010
-5.800032e-010
-1.222330e-009
-1.384893e-009
-9.465193e-010
-1.229647e-010
6.541761e-010
1.007658e-009
8.358184e-010
3.345963e-010
-1.706868e-010
-4.406126e-010
-4.325616e-010
-2.601383e-010
-7.086790e-011
5.069863e-011
9.949263e-011
1.087647e-010
1.075028e-010
-2.992209e-010
-8.722062e-011
1.786161e-010
3.099795e-010
2.193956e-010
-2.383150e-011
-2.486955e-010
-3.061135e-010
-1.707787e-010
5.150672e-011
2.122668e-010
2.329468e-010
1.526519e-010
7.583470e-011
6.834758e-011
9.439962e-011
5.187441e-011
-1.237037e-010
-3.802568e-010
-5.707760e-010
-5.629927e-010
-3.442961e-010
-3.046822e-011
2.289081e-010
3.642458e-010
4.205475e-010
4.896219e-010
6.101400e-010
7.298031e-010
7.591456e-010
6.584515e-010
4.728040e-010
2.865947e-010
1.478931e-010
3.683252e-011
-9.771350e-011
-2.772471e-010
-4.708198e-010
-6.277665e-010
-7.266204e-010
-7.896984e-010
-8.534004e-010
-9.299103e-010
-9.999281e-010
-1.039190e-009
-1.046376e-009
-1.042748e-009
-1.047446e-009
-1.058041e-009
-1.057104e-009
-1.034761e-009
-1.000040e-009
-9.683679e-010
-9.410008e-010
-9.015458e-010
-8.344042e-010
-7.435213e-010
-6.482394e-010
-5.594379e-010
-4.637554e-010
-3.369012e-010
-1.740591e-010
-2.929877e-012
1.389264e-010
2.407098e-010
3.276990e-010
4.285586e-010
5.332216e-010
5.895596e-010
5.491726e-010
4.182638e-010
2.584749e-010
1.317368e-010
4.389903e-011
-5.190588e-011
-1.911720e-010
-3.386377e-010
-4.008471e-010
-3.081390e-010
-9.044963e-011
1.297192e-010
2.281056e-010
1.743284e-010
4.741203e-011
-3.991292e-011
-3.671049e-011
1.587138e-011
3.961453e-011
6.838096e-013
-6.050298e-011
-7.487567e-011
-1.727659e-011
6.518484e-011
9.549765e-011
3.927172e-011
-6.035708e-011
-1.179734e-010
-8.023290e-011
2.634160e-011
1.161423e-010
5.153792e-011
2.304599e-010
4.398754e-010
4.743660e-010
1.909116e-010
-3.823180e-010
-1.012603e-009
-1.349501e-009
-1.111186e-009
-2.728523e-010
8.677738e-010
1.812990e-009
2.120808e-009
1.641275e-009
5.845101e-010
-6.175417e-010
-1.554255e-009
-2.020712e-009
-2.039854e-009
-1.748179e-009
-1.262549e-009
-6.316126e-010
1.186286e-010
9.187891e-010
1.645757e-009
2.176756e-009
2.451970e-009
2.488125e-009
2.338803e-009
2.046427e-009
1.629155e-009
1.103079e-009
5.053825e-010
-1.094264e-010
-6.940486e-010
-1.225964e-009
-1.701830e-009
-2.119500e-009
-2.469456e-009
-2.742851e-009
-2.943208e-009
-3.086324e-009
-3.188622e-009
-3.257660e-009
-3.294593e-009
-3.303429e-009
-3.294707e-009
-3.279378e-009
-3.261102e-009
-3.236474e-009
-3.202186e-009
-3.159458e-009
-3.110077e-009
-3.049486e-009
-2.966387e-009
-2.849970e-009
-2.695849e-009
-2.503066e-009
-2.266073e-009
-1.972946e-009
-1.614309e-009
-1.193982e-009
-7.291683e-010
-2.400142e-010
2.582884e-010
7.500899e-010
1.206466e-009
1.582030e-009
1.829110e-009
1.916854e-009
1.836122e-009
1.587872e-009
1.174338e-009
6.114616e-010
-4.489994e-011
-6.889974e-010
-1.192024e-009
-1.451228e-009
-1.423688e-009
-1.123554e-009
-6.011710e-010
6.043028e-011
7.252078e-010
1.199347e-009
1.288479e-009
9.104318e-010
1.878311e-010
-5.693203e-010
-1.011970e-009
-9.489768e-010
-4.603103e-010
1.554906e-010
5.663883e-010
6.002142e-010
3.226753e-010
-3.777920e-011
-2.532387e-010
-2.348993e-010
-6.457496e-011
8.624911e-011
4.654655e-010
3.367952e-010
1.682891e-010
3.138241e-011
-9.894650e-011
-3.103824e-010
-6.242705e-010
-8.948027e-010
-8.583241e-010
-3.329269e-010
5.773662e-010
1.458390e-009
1.805742e-009
1.356560e-009
2.898714e-010
-8.681593e-010
-1.577460e-009
-1.613161e-009
-1.152631e-009
-5.774153e-010
-1.698012e-010
5.151679e-011
2.519200e-010
5.655160e-010
9.503626e-010
1.230396e-009
1.259978e-009
1.046632e-009
7.275106e-010
4.413264e-010
2.251070e-010
2.191750e-011
-2.296019e-010
-5.223819e-010
-7.893025e-010
-9.692627e-010
-1.057719e-009
-1.097353e-009
-1.129783e-009
-1.161451e-009
-1.171783e-009
-1.145378e-009
-1.091402e-009
-1.034408e-009
-9.919588e-010
-9.635322e-010
-9.385540e-010
-9.114315e-010
-8.877131e-010
-8.774924e-010
-8.848899e-010
-9.043445e-010
-9.263971e-010
-9.464758e-010
-9.676922e-010
-9.944560e-010
-1.022940e-009
-1.038744e-009
-1.026027e-009
-9.799541e-010
-9.083774e-010
-8.183641e-010
-7.012048e-010
-5.355628e-010
-3.111297e-010
-4.968078e-011
2.031655e-010
4.132808e-010
5.843944e-010
7.415160e-010
8.818456e-010
9.462572e-010
8.534121e-010
5.751833e-010
1.799824e-010
-2.077133e-010
-4.996966e-010
-6.955715e-010
-8.352569e-010
-8.995618e-010
-7.749945e-010
-3.488459e-010
3.333997e-010
1.003763e-009
1.298094e-009
1.004990e-009
2.444512e-010
-5.794356e-010
-1.031680e-009
-9.205305e-010
-3.942538e-010
1.937233e-010
5.310224e-010
5.201723e-010
2.793050e-010
1.049368e-011
-1.428244e-010
-1.556118e-010
-9.074967e-011
-3.199768e-011
7.625758e-010
2.086341e-010
-4.748226e-010
-7.925164e-010
-5.330767e-010
9.720127e-011
6.465979e-010
7.551864e-010
3.999905e-010
-1.287222e-010
-4.824382e-010
-5.229630e-010
-3.862146e-010
-3.034084e-010
-3.523555e-010
-3.703766e-010
-1.127367e-010
4.855692e-010
1.188076e-009
1.598926e-009
1.456331e-009
8.268094e-010
3.680594e-011
-5.892131e-010
-9.515569e-010
-1.178059e-009
-1.435240e-009
-1.742353e-009
-1.956452e-009
-1.919351e-009
-1.608541e-009
-1.150163e-009
-6.992269e-010
-3.156309e-010
5.020508e-011
4.685194e-010
9.407005e-010
1.394804e-009
1.755662e-009
2.009155e-009
2.199822e-009
2.376022e-009
2.544781e-009
2.677442e-009
2.750138e-009
2.772101e-009
2.775487e-009
2.783193e-009
2.790425e-009
2.776531e-009
2.730751e-009
2.663283e-009
2.591040e-009
2.515013e-009
2.414774e-009
2.267042e-009
2.068706e-009
1.838217e-009
1.591775e-009
1.320049e-009
9.947157e-010
6.034456e-010
1.771131e-010
-2.251868e-010
-5.641551e-010
-8.507022e-010
-1.119151e-009
-1.364568e-009
-1.513472e-009
-1.472365e-009
-1.216500e-009
-8.277355e-010
-4.324660e-010
-9.533909e-011
2.185896e-010
5.634967e-010
8.931748e-010
1.039997e-009
8.437671e-010
3.248609e-010
-2.710879e-010
-6.257950e-010
-5.821143e-010
-2.564612e-010
7.022772e-011
1.847278e-010
9.199232e-011
-3.715984e-011
-5.210626e-011
4.107714e-011
1.125831e-010
6.110323e-011
-7.451840e-011
-1.536831e-010
-7.934946e-011
9.672592e-011
2.141933e-010
1.532041e-010
-4.894187e-011
-2.248579e-010
6.989572e-010
1.139397e-011
-8.389189e-010
-1.200692e-009
-7.279902e-010
3.819046e-010
1.494873e-009
1.927872e-009
1.373475e-009
8.696056e-011
-1.282461e-009
-2.092844e-009
-2.064330e-009
-1.358913e-009
-3.741527e-010
5.495232e-010
1.274911e-009
1.795742e-009
2.077087e-009
1.998834e-009
1.463291e-009
5.457774e-010
-4.847079e-010
-1.319366e-009
-1.805976e-009
-2.009956e-009
-2.092648e-009
-2.133167e-009
-2.064231e-009
-1.769142e-009
-1.227085e-009
-5.573053e-010
7.411725e-011
5.828273e-010
1.004014e-009
1.416035e-009
1.840272e-009
2.218350e-009
2.477289e-009
2.604408e-009
2.655294e-009
2.695853e-009
2.745106e-009
2.774617e-009
2.755376e-009
2.696698e-009
2.638284e-009
2.610217e-009
2.606895e-009
2.600752e-009
2.576804e-009
2.548522e-009
2.538589e-009
2.547617e-009
2.546935e-009
2.504469e-009
2.414966e-009
2.299084e-009
2.169847e-009
2.003965e-009
1.754779e-009
1.399052e-009
9.679263e-010
5.233012e-010
9.974852e-011
-3.237276e-010
-7.831011e-010
-1.256854e-009
-1.643076e-009
-1.823430e-009
-1.757149e-009
-1.506613e-009
-1.162224e-009
-7.454876e-010
-2.033064e-010
4.849850e-010
1.194680e-009
1.669686e-009
1.680398e-009
1.196349e-009
4.194275e-010
-3.500880e-010
-8.904941e-010
-1.129779e-009
-1.084084e-009
-7.725192e-010
-2.233639e-010
4.393034e-010
9.567786e-010
1.047098e-009
6.148793e-010
-1.208554e-010
-7.256867e-010
-8.360803e-010
-4.215087e-010
1.900370e-010
5.551461e-010
4.441326e-010
2.424548e-012
-3.788781e-010
1.229396e-010
-1.152276e-010
-4.277747e-010
-5.716220e-010
-3.513115e-010
2.344031e-010
9.233422e-010
1.291718e-009
1.012896e-009
1.148399e-010
-9.692413e-010
-1.638055e-009
-1.507099e-009
-6.648292e-010
3.958673e-010
1.118964e-009
1.235854e-009
8.685773e-010
3.462273e-010
-7.299561e-011
-3.372133e-010
-5.218758e-010
-6.671701e-010
-7.118168e-010
-5.725343e-010
-2.590015e-010
1.105608e-010
4.080232e-010
5.983420e-010
7.399260e-010
8.920020e-010
1.035756e-009
1.091877e-009
1.007313e-009
8.126300e-010
5.909523e-010
3.981619e-010
2.214897e-010
1.449456e-011
-2.377147e-010
-4.956295e-010
-7.044343e-010
-8.467999e-010
-9.519787e-010
-1.056497e-009
-1.163573e-009
-1.244362e-009
-1.274494e-009
-1.261843e-009
-1.235354e-009
-1.210446e-009
-1.171862e-009
-1.093017e-009
-9.684027e-010
-8.207737e-010
-6.742930e-010
-5.251817e-010
-3.461176e-010
-1.224184e-010
1.208322e-010
3.349347e-010
4.927530e-010
6.120431e-010
7.265221e-010
8.338120e-010
8.811031e-010
8.118607e-010
6.269328e-010
3.908711e-010
1.713907e-010
-2.256192e-011
-2.307460e-010
-4.645988e-010
-6.494691e-010
-6.613458e-010
-4.342300e-010
-3.332333e-011
3.810813e-010
6.621783e-010
7.494937e-010
6.472332e-010
3.630950e-010
-9.270179e-011
-6.307626e-010
-1.030053e-009
-1.023018e-009
-4.999312e-010
3.354070e-010
1.029723e-009
1.163193e-009
6.506148e-010
-1.801368e-010
-8.072149e-010
-8.722006e-010
-4.109747e-010
2.027484e-010
5.426344e-010
4.260559e-010
1.509015e-011
-3.309255e-010
-7.879126e-010
-1.787731e-010
5.432996e-010
8.273412e-010
4.888162e-010
-1.830821e-010
-6.919525e-010
-7.309800e-010
-3.787475e-010
4.377867e-011
2.927128e-010
3.924597e-010
5.324578e-010
7.910153e-010
9.754141e-010
7.558736e-010
-1.583984e-011
-1.101094e-009
-1.987796e-009
-2.239208e-009
-1.782925e-009
-9.067410e-010
3.525484e-012
7.338358e-010
1.300031e-009
1.797889e-009
2.233213e-009
2.498459e-009
2.487042e-009
2.201917e-009
1.747106e-009
1.229576e-009
6.854297e-010
9.824511e-011
-5.313431e-010
-1.152206e-009
-1.697595e-009
-2.139394e-009
-2.498314e-009
-2.804703e-009
-3.060544e-009
-3.244660e-009
-3.348288e-009
-3.394769e-009
-3.420765e-009
-3.443576e-009
-3.453256e-009
-3.435989e-009
-3.398087e-009
-3.361602e-009
-3.338403e-009
-3.315342e-009
-3.268578e-009
-3.189016e-009
-3.087129e-009
-2.970879e-009
-2.824287e-009
-2.614976e-009
-2.324330e-009
-1.964998e-009
-1.563803e-009
-1.130037e-009
-6.493449e-010
-1.144209e-010
4.423565e-010
9.559556e-010
1.371569e-009
1.674110e-009
1.867487e-009
1.928125e-009
1.795146e-009
1.422621e-009
8.442371e-010
1.770706e-010
-4.452887e-010
-9.384239e-010
-1.260397e-009
-1.353083e-009
-1.129099e-009
-5.609906e-010
2.012131e-010
8.320716e-010
1.012551e-009
6.689465e-010
5.570014e-011
-4.167946e-010
-4.821449e-010
-1.966551e-010
1.467897e-010
2.786388e-010
1.534915e-010
-6.472137e-011
-1.831621e-010
-1.418557e-010
-2.384369e-011
5.754618e-011
6.231001e-011
2.801859e-011
2.738708e-012
-3.261900e-012
-1.455374e-009
-2.347667e-010
1.257131e-009
1.897512e-009
1.183112e-009
-4.392720e-010
-1.912669e-009
-2.310393e-009
-1.436825e-009
1.208677e-010
1.472576e-009
2.030488e-009
1.785687e-009
1.115912e-009
3.781178e-010
-3.265983e-010
-1.049782e-009
-1.734618e-009
-2.114597e-009
-1.899125e-009
-1.061840e-009
6.788930e-011
1.018477e-009
1.505047e-009
1.579582e-009
1.490961e-009
1.418306e-009
1.334886e-009
1.100254e-009
6.484818e-010
7.201439e-011
-4.630042e-010
-8.581411e-010
-1.134012e-009
-1.361532e-009
-1.567616e-009
-1.714831e-009
-1.757533e-009
-1.697912e-009
-1.582565e-009
-1.456033e-009
-1.329550e-009
-1.193365e-009
-1.047046e-009
-9.087551e-010
-7.979894e-010
-7.187569e-010
-6.638858e-010
-6.309115e-010
-6.269437e-010
-6.577681e-010
-7.182581e-010
-7.978349e-010
-8.925907e-010
-1.005878e-009
-1.135289e-009
-1.263924e-009
-1.369520e-009
-1.440614e-009
-1.477396e-009
-1.474298e-009
-1.408339e-009
-1.253994e-009
-1.011107e-009
-7.098744e-010
-3.808169e-010
-2.438325e-011
3.758132e-010
8.017385e-010
1.171650e-009
1.379697e-009
1.373342e-009
1.183443e-009
8.671746e-010
4.301061e-010
-1.643534e-010
-8.806057e-010
-1.512123e-009
-1.742586e-009
-1.365960e-009
-4.857023e-010
5.036625e-010
1.163639e-009
1.285628e-009
9.663887e-010
4.532792e-010
-6.058731e-011
-4.961011e-010
-7.938777e-010
-8.343203e-010
-5.127945e-010
9.074635e-011
6.567529e-010
8.117252e-010
4.332773e-010
-2.052429e-010
-6.197706e-010
-5.033154e-010
1.423138e-011
4.723942e-010
-1.221639e-009
-2.340398e-010
1.006884e-009
1.595404e-009
1.063627e-009
-2.921442e-010
-1.591845e-009
-1.959144e-009
-1.125702e-009
3.776475e-010
1.592827e-009
1.802105e-009
9.943850e-010
-2.058635e-010
-1.050900e-009
-1.186435e-009
-7.775837e-010
-2.205563e-010
2.317207e-010
5.861287e-010
9.265552e-010
1.190264e-009
1.166107e-009
7.100599e-010
-6.730587e-011
-8.520072e-010
-1.370412e-009
-1.582638e-009
-1.646484e-009
-1.713238e-009
-1.773726e-009
-1.695130e-009
-1.381200e-009
-8.764525e-010
-3.190602e-010
1.862857e-010
6.370331e-010
1.088442e-009
1.565235e-009
2.027762e-009
2.414742e-009
2.701928e-009
2.913595e-009
3.086554e-009
3.234297e-009
3.345918e-009
3.409494e-009
3.428325e-009
3.416203e-009
3.383745e-009
3.331791e-009
3.253877e-009
3.140998e-009
2.985553e-009
2.785317e-009
2.544514e-009
2.267282e-009
1.948175e-009
1.573960e-009
1.141962e-009
6.770044e-010
2.221323e-010
-1.943469e-010
-5.786358e-010
-9.470039e-010
-1.277138e-009
-1.494661e-009
-1.524984e-009
-1.363697e-009
-1.083730e-009
-7.601921e-010
-3.949080e-010
5.949427e-011
5.827089e-010
1.006976e-009
1.094481e-009
7.345784e-010
7.816589e-011
-5.376300e-010
-8.226875e-010
-7.156100e-010
-3.601844e-010
6.404381e-011
4.591532e-010
7.646532e-010
8.543908e-010
5.634608e-010
-1.201037e-010
-8.962210e-010
-1.260708e-009
-8.760315e-010
9.306060e-011
1.014765e-009
1.235795e-009
5.997865e-010
-4.024094e-010
-1.004108e-009
-7.693191e-010
6.171242e-011
7.761303e-010
6.015119e-011
-5.522446e-011
-1.432710e-010
-9.616390e-011
3.535450e-011
1.103730e-010
8.053723e-011
6.693502e-011
2.153761e-010
4.681565e-010
5.209357e-010
7.545623e-011
-8.135823e-010
-1.646714e-009
-1.793707e-009
-9.840302e-010
4.486206e-010
1.790375e-009
2.447678e-009
2.298194e-009
1.631823e-009
8.099708e-010
-3.244055e-012
-8.208597e-010
-1.629806e-009
-2.274445e-009
-2.556459e-009
-2.420941e-009
-2.010049e-009
-1.525722e-009
-1.054292e-009
-5.346452e-010
1.162399e-010
8.720011e-010
1.598849e-009
2.172920e-009
2.577596e-009
2.885282e-009
3.161174e-009
3.399545e-009
3.549751e-009
3.586704e-009
3.544096e-009
3.483076e-009
3.440127e-009
3.409353e-009
3.368023e-009
3.310242e-009
3.254741e-009
3.225692e-009
3.230138e-009
3.252699e-009
3.269253e-009
3.265852e-009
3.246099e-009
3.219266e-009
3.178370e-009
3.090527e-009
2.915140e-009
2.637396e-009
2.281766e-009
1.884546e-009
1.450476e-009
9.457081e-010
3.463661e-010
-3.048780e-010
-9.039090e-010
-1.359611e-009
-1.659818e-009
-1.846698e-009
-1.918897e-009
-1.775819e-009
-1.292676e-009
-4.734324e-010
4.752056e-010
1.243087e-009
1.608103e-009
1.542174e-009
1.150454e-009
5.467087e-010
-1.747446e-010
-8.525395e-010
-1.214502e-009
-1.018232e-009
-2.989385e-010
5.353908e-010
9.348402e-010
6.282268e-010
-1.288165e-010
-7.304804e-010
-7.034912e-010
-9.128529e-011
5.905508e-010
7.871313e-010
3.554936e-010
-3.370449e-010
-7.296971e-010
-5.236393e-010
9.205531e-011
6.082850e-010
1.677028e-009
2.894868e-010
-1.360505e-009
-2.009120e-009
-1.200990e-009
4.455688e-010
1.793341e-009
2.048995e-009
1.239330e-009
4.732069e-012
-9.930518e-010
-1.490497e-009
-1.574344e-009
-1.358123e-009
-8.006884e-010
1.435872e-010
1.259731e-009
2.052404e-009
2.066514e-009
1.262678e-009
7.701624e-011
-9.040522e-010
-1.353877e-009
-1.341427e-009
-1.126123e-009
-8.676433e-010
-5.363138e-010
-5.505453e-011
5.360755e-010
1.082762e-009
1.459826e-009
1.675410e-009
1.823635e-009
1.956193e-009
2.024488e-009
1.947115e-009
1.712486e-009
1.399008e-009
1.099874e-009
8.439719e-010
5.955541e-010
3.194870e-010
3.216702e-011
-2.131735e-010
-3.805712e-010
-4.819570e-010
-5.561424e-010
-6.251909e-010
-6.749426e-010
-6.749570e-010
-6.124216e-010
-5.047076e-010
-3.799001e-010
-2.466055e-010
-8.454812e-011
1.325682e-010
4.031935e-010
6.887974e-010
9.431130e-010
1.151835e-009
1.337733e-009
1.519638e-009
1.668377e-009
1.715135e-009
1.613034e-009
1.386060e-009
1.103227e-009
7.992028e-010
4.345283e-010
-4.429308e-011
-5.991784e-010
-1.070211e-009
-1.271128e-009
-1.122501e-009
-6.891357e-010
-9.783267e-011
5.486894e-010
1.150354e-009
1.525190e-009
1.424302e-009
7.207229e-010
-3.775575e-010
-1.341819e-009
-1.639291e-009
-1.123182e-009
-1.536606e-010
6.719007e-010
9.503028e-010
7.025414e-010
2.477250e-010
-1.057819e-010
-2.563062e-010
-2.678537e-010
-2.176907e-010
-1.234670e-010
6.608965e-012
1.147243e-010
1.274242e-010
4.318161e-011
-4.691530e-011
2.411978e-009
5.485490e-010
-1.704853e-009
-2.656722e-009
-1.646040e-009
5.270721e-010
2.267314e-009
2.395397e-009
9.662590e-010
-8.930626e-010
-1.916692e-009
-1.610704e-009
-4.485031e-010
6.815469e-010
1.196862e-009
1.096554e-009
6.877824e-010
1.727759e-010
-4.589312e-010
-1.200695e-009
-1.809965e-009
-1.903340e-009
-1.286620e-009
-1.651162e-010
9.959428e-010
1.823418e-009
2.259353e-009
2.474458e-009
2.614502e-009
2.657162e-009
2.491500e-009
2.083313e-009
1.529208e-009
9.608677e-010
4.308339e-010
-9.276652e-011
-6.382176e-010
-1.165677e-009
-1.597089e-009
-1.893718e-009
-2.087257e-009
-2.235451e-009
-2.360817e-009
-2.441038e-009
-2.452847e-009
-2.412383e-009
-2.366695e-009
-2.350212e-009
-2.356507e-009
-2.354118e-009
-2.325551e-009
-2.285599e-009
-2.259954e-009
-2.248643e-009
-2.215324e-009
-2.115991e-009
-1.937460e-009
-1.703191e-009
-1.438416e-009
-1.133792e-009
-7.528912e-010
-2.806716e-010
2.415951e-010
7.407982e-010
1.173717e-009
1.553174e-009
1.900105e-009
2.172436e-009
2.260336e-009
2.068264e-009
1.600320e-009
9.548144e-010
2.410340e-010
-4.703829e-010
-1.094654e-009
-1.456844e-009
-1.340411e-009
-6.824858e-010
2.626833e-010
1.003825e-009
1.132841e-009
6.249214e-010
-1.543739e-010
-7.395678e-010
-8.817597e-010
-6.266105e-010
-1.590005e-010
3.568278e-010
7.784130e-010
9.159015e-010
5.937194e-010
-1.371285e-010
-8.778542e-010
-1.090286e-009
-5.453090e-010
3.964634e-010
1.005935e-009
7.861605e-010
-7.305152e-011
-8.301749e-010
1.478415e-009
4.243110e-010
-8.653224e-010
-1.425650e-009
-8.572974e-010
3.623347e-010
1.223896e-009
9.730164e-010
-2.527327e-010
-1.475124e-009
-1.628915e-009
-4.314501e-010
1.357072e-009
2.512068e-009
2.273941e-009
8.534353e-010
-8.546029e-010
-2.009722e-009
-2.340439e-009
-2.072058e-009
-1.500240e-009
-7.129794e-010
3.077171e-010
1.428609e-009
2.314788e-009
2.665066e-009
2.467901e-009
1.994113e-009
1.540241e-009
1.196001e-009
8.544754e-010
4.080647e-010
-1.038287e-010
-5.361684e-010
-7.867713e-010
-8.745881e-010
-8.807076e-010
-8.450969e-010
-7.401464e-010
-5.326941e-010
-2.452341e-010
5.545476e-011
3.189624e-010
5.453188e-010
7.585100e-010
9.594285e-010
1.115879e-009
1.196810e-009
1.205562e-009
1.172266e-009
1.116293e-009
1.024327e-009
8.696885e-010
6.496969e-010
3.968681e-010
1.505586e-010
-7.720724e-011
-2.998980e-010
-5.194374e-010
-6.996003e-010
-7.868910e-010
-7.589560e-010
-6.421069e-010
-4.718740e-010
-2.418008e-010
9.172834e-011
5.443241e-010
1.052810e-009
1.505515e-009
1.822333e-009
1.983305e-009
1.963662e-009
1.665477e-009
9.729526e-010
-7.605862e-011
-1.178694e-009
-1.882880e-009
-1.880420e-009
-1.225945e-009
-2.805374e-010
5.539394e-010
1.049452e-009
1.150791e-009
8.614340e-010
2.312114e-010
-5.235519e-010
-9.862015e-010
-7.831836e-010
3.576107e-011
8.860580e-010
1.045274e-009
2.934565e-010
-8.004738e-010
-1.297525e-009
-7.093616e-010
5.174868e-010
1.341903e-009
1.034049e-009
-1.597996e-010
-1.211835e-009
-7.168852e-010
-9.180732e-011
6.308431e-010
9.092515e-010
6.086532e-010
-1.685220e-012
-5.801807e-010
-9.686240e-010
-1.131777e-009
-9.591442e-010
-2.785785e-010
8.532037e-010
1.927512e-009
2.201380e-009
1.285542e-009
-4.232339e-010
-1.932487e-009
-2.366555e-009
-1.590324e-009
-2.115707e-010
9.807739e-010
1.586904e-009
1.697155e-009
1.565048e-009
1.284400e-009
7.918862e-010
9.822292e-011
-5.851900e-010
-9.855315e-010
-1.003654e-009
-7.744523e-010
-4.974882e-010
-2.377969e-010
9.535932e-011
6.009282e-010
1.254485e-009
1.928367e-009
2.514219e-009
2.999871e-009
3.431095e-009
3.826775e-009
4.151624e-009
4.364418e-009
4.470654e-009
4.516851e-009
4.542152e-009
4.549540e-009
4.525506e-009
4.474877e-009
4.424034e-009
4.390579e-009
4.360252e-009
4.300559e-009
4.192863e-009
4.041875e-009
3.851829e-009
3.603235e-009
3.265260e-009
2.832564e-009
2.339619e-009
1.829744e-009
1.314880e-009
7.804070e-010
2.356330e-010
-2.533230e-010
-5.993405e-010
-7.645004e-010
-7.761989e-010
-6.598893e-010
-3.739323e-010
1.452138e-010
8.435558e-010
1.471739e-009
1.698478e-009
1.349557e-009
5.528203e-010
-3.523314e-010
-1.043016e-009
-1.351876e-009
-1.226419e-009
-6.523127e-010
2.845685e-010
1.253796e-009
1.715091e-009
1.267020e-009
6.471551e-011
-1.141623e-009
-1.517450e-009
-8.284309e-010
3.271072e-010
1.003868e-009
7.141952e-010
-1.701019e-010
-7.846293e-010
-5.672318e-010
2.474727e-010
8.719730e-010
7.040748e-010
-1.231198e-010
-8.708014e-010
-2.722022e-009
-6.203122e-010
1.837320e-009
2.766085e-009
1.620168e-009
-5.342384e-010
-2.043455e-009
-1.997179e-009
-7.509789e-010
6.283789e-010
1.311893e-009
1.180769e-009
5.825040e-010
-1.527161e-010
-8.731910e-010
-1.403184e-009
-1.400674e-009
-5.838095e-010
8.802752e-010
2.307222e-009
2.927581e-009
2.455528e-009
1.261945e-009
1.345061e-011
-8.421984e-010
-1.270103e-009
-1.434692e-009
-1.401920e-009
-1.086300e-009
-4.336794e-010
4.313636e-010
1.277400e-009
1.958472e-009
2.497997e-009
2.984123e-009
3.417420e-009
3.685822e-009
3.676649e-009
3.384148e-009
2.898990e-009
2.313326e-009
1.658637e-009
9.330063e-010
1.638480e-010
-5.755838e-010
-1.207548e-009
-1.691644e-009
-2.020918e-009
-2.189116e-009
-2.176614e-009
-1.969598e-009
-1.581622e-009
-1.048127e-009
-4.050507e-010
3.157934e-010
1.068599e-009
1.783461e-009
2.388385e-009
2.842704e-009
3.139083e-009
3.268528e-009
3.195845e-009
2.887680e-009
2.366985e-009
1.721314e-009
1.039707e-009
3.489156e-010
-3.599809e-010
-1.026454e-009
-1.463840e-009
-1.452771e-009
-9.234856e-010
-4.756834e-011
8.602212e-010
1.528187e-009
1.815983e-009
1.661146e-009
1.033414e-009
3.010571e-011
-9.873344e-010
-1.470397e-009
-1.054688e-009
5.906602e-011
1.129838e-009
1.396650e-009
6.863622e-010
-4.414518e-010
-1.160002e-009
-1.035174e-009
-3.032306e-010
4.232076e-010
6.873915e-010
4.767923e-010
9.452320e-011
-1.642381e-010
-2.110049e-010
-1.294003e-010
-3.288167e-011
2.490965e-011
4.612470e-011
-3.088553e-009
-7.003725e-010
2.033693e-009
2.924903e-009
1.417051e-009
-1.066652e-009
-2.415824e-009
-1.603897e-009
5.577915e-010
2.231783e-009
2.122162e-009
4.243111e-010
-1.541535e-009
-2.502989e-009
-2.106924e-009
-8.615430e-010
5.272399e-010
1.656433e-009
2.391445e-009
2.593344e-009
2.086265e-009
9.242504e-010
-4.269228e-010
-1.307770e-009
-1.326556e-009
-6.113611e-010
3.818043e-010
1.276290e-009
1.986340e-009
2.586873e-009
3.067966e-009
3.267290e-009
3.015216e-009
2.282603e-009
1.158382e-009
-2.887631e-010
-2.083854e-009
-4.276111e-009
-6.826068e-009
-9.585737e-009
-1.238402e-008
-1.511117e-008
-1.771672e-008
-2.014672e-008
-2.230665e-008
-2.408759e-008
-2.541306e-008
-2.625090e-008
-2.658810e-008
-2.640951e-008
-2.570447e-008
-2.448410e-008
-2.278417e-008
-2.065723e-008
-1.817444e-008
-1.543731e-008
-1.257485e-008
-9.715273e-009
-6.959665e-009
-4.390608e-009
-2.103706e-009
-2.101875e-010
1.212418e-009
2.171168e-009
2.738201e-009
2.965223e-009
2.828731e-009
2.287097e-009
1.403626e-009
3.973094e-010
-4.495435e-010
-9.363768e-010
-9.945826e-010
-6.246265e-010
1.418952e-010
1.152965e-009
2.028998e-009
2.262868e-009
1.569250e-009
2.032989e-010
-1.107585e-009
-1.649162e-009
-1.232035e-009
-2.824371e-010
5.415873e-010
8.296165e-010
5.919276e-010
9.117639e-011
-3.890124e-010
-6.275491e-010
-4.740040e-010
5.791427e-011
6.697508e-010
8.776013e-010
4.009402e-010
-4.851115e-010
-1.067504e-009
-7.972268e-010
1.599104e-010
1.004254e-009
-1.482756e-009
-2.315954e-010
1.114831e-009
1.340170e-009
2.328131e-010
-1.195739e-009
-1.561064e-009
-3.440307e-010
1.559404e-009
2.523836e-009
1.581497e-009
-6.986423e-010
-2.640560e-009
-2.830102e-009
-1.213124e-009
9.946918e-010
2.385499e-009
2.386450e-009
1.410016e-009
2.333574e-010
-6.360442e-010
-1.063799e-009
-1.007798e-009
-3.557331e-010
9.078149e-010
2.478013e-009
3.800928e-009
4.416360e-009
4.215813e-009
3.358963e-009
1.975530e-009
-1.393629e-011
-2.803374e-009
-6.491760e-009
-1.100378e-008
-1.619010e-008
-2.194855e-008
-2.822134e-008
-3.489919e-008
-4.176961e-008
-4.857295e-008
-5.509416e-008
-6.118916e-008
-6.673551e-008
-7.158236e-008
-7.555804e-008
-7.851608e-008
-8.036373e-008
-8.105209e-008
-8.055427e-008
-7.886085e-008
-7.599083e-008
-7.200125e-008
-6.699223e-008
-6.111333e-008
-5.456581e-008
-4.758514e-008
-4.040777e-008
-3.325231e-008
-2.633364e-008
-1.988162e-008
-1.411617e-008
-9.179090e-009
-5.090788e-009
-1.792860e-009
7.552843e-010
2.529532e-009
3.497885e-009
3.710760e-009
3.312292e-009
2.467085e-009
1.321344e-009
7.927189e-011
-9.060291e-010
-1.219001e-009
-6.711971e-010
4.532726e-010
1.489599e-009
1.819194e-009
1.284150e-009
2.367303e-010
-7.712534e-010
-1.331333e-009
-1.288394e-009
-6.804876e-010
2.733983e-010
1.125647e-009
1.327490e-009
6.363723e-010
-5.225542e-010
-1.233987e-009
-8.466639e-010
3.442412e-010
1.244295e-009
9.457943e-010
-3.489067e-010
-1.433110e-009
-1.224587e-009
1.550252e-010
1.446604e-009
1.072090e-009
4.016002e-010
-4.472929e-010
-9.612989e-010
-9.535862e-010
-5.324059e-010
1.239408e-010
8.297017e-010
1.271091e-009
1.041246e-009
1.649128e-011
-1.271039e-009
-1.820216e-009
-9.593712e-010
9.290896e-010
2.542623e-009
2.663313e-009
1.161859e-009
-9.141754e-010
-2.211303e-009
-2.061496e-009
-7.507005e-010
9.840326e-010
2.575720e-009
3.787798e-009
4.459977e-009