# vtk DataFile Version 3.0
vtk output
ASCII
DATASET STRUCTURED_POINTS
DIMENSIONS 100 100 1
SPACING 1 1 1
ORIGIN 0 0 0
POINT_DATA 10000
SCALARS SFBox_profile double
LOOKUP_TABLE default 
0.000000e+000
0.000000e+000
0.000000e+000
0.000000e+000
0.000000e+000
0.000000e+000
0.000000e+000
0.000000e+000
0.000000e+000
0.000000e+000
0.000000e+000
0.000000e+000
0.000000e+000
0.000000e+000
0.000000e+000
0.000000e+000
0.000000e+000
0.000000e+000
0.000000e+000
0.000000e+000
0.000000e+000
0.000000e+000
0.000000e+000
0.000000e+000
0.000000e+000
0.000000e+000
0.000000e+000
0.000000e+000
0.000000e+000
0.000000e+000
0.000000e+000
0.000000e+000
0.000000e+000
0.000000e+000
0.000000e+000
0.000000e+000
0.000000e+000
0.000000e+000
0.000000e+000
0.000000e+000
0.000000e+000
0.000000e+000
0.000000e+000
0.000000e+000
0.000000e+000
0.000000e+000
0.000000e+000
0.000000e+000
0.000000e+000
0.000000e+000
0.000000e+000
0.000000e+000
0.000000e+000
0.000000e+000
0.000000e+000
0.000000e+000
0.000000e+000
0.000000e+000
0.000000e+000
0.000000e+000
0.000000e+000
0.000000e+000
0.000000e+000
0.000000e+000
0.000000e+000
0.000000e+000
0.000000e+000
0.000000e+000
0.000000e+000
0.000000e+000
0.000000e+000
0.000000e+000
0.000000e+000
0.000000e+000
0.000000e+000
0.000000e+000
0.000000e+000
0.000000e+000
0.000000e+000
0.000000e+000
0.000000e+000
0.000000e+000
0.000000e+000
0.000000e+000
0.000000e+000
0.000000e+000
0.000000e+000
0.000000e+000
0.000000e+000
0.000000e+000
0.000000e+000
0.000000e+000
0.000000e+000
0.000000e+000
0.000000e+000
0.000000e+000
0.000000e+000
0.000000e+000
0.000000e+000
0.000000e+000
-7.615490e-010
-2.935545e-010
6.790820e-010
2.167872e-009
4.056673e-009
6.006458e-009
7.419705e-009
7.457359e-009
4.989595e-009
-1.710421e-009
-1.564495e-008
-4.202763e-008
-8.912323e-008
-1.685872e-007
-2.951023e-007
-4.854016e-007
-7.568754e-007
-1.125785e-006
-1.604862e-006
-2.200140e-006
-2.907422e-006
-3.709507e-006
-4.575592e-006
-5.463681e-006
-6.325644e-006
-7.113411e-006
-7.784453e-006
-8.305360e-006
-8.653369e-006
-8.816456e-006
-8.792640e-006
-8.588678e-006
-8.218037e-006
-7.698198e-006
-7.047783e-006
-6.284242e-006
-5.422606e-006
-4.475245e-006
-3.452136e-006
-2.361114e-006
-1.207967e-006
3.328552e-009
1.269750e-006
2.587727e-006
3.951607e-006
5.353017e-006
6.781510e-006
8.225855e-006
9.674832e-006
1.111689e-005
1.253922e-005
1.392738e-005
1.526590e-005
1.653936e-005
1.773286e-005
1.883131e-005
1.981814e-005
2.067435e-005
2.137840e-005
2.190682e-005
2.223495e-005
2.233747e-005
2.218873e-005
2.176324e-005
2.103708e-005
1.999044e-005
1.861117e-005
1.689855e-005
1.486654e-005
1.254627e-005
9.988036e-006
7.262636e-006
4.461538e-006
1.694502e-006
-9.163165e-007
-3.246052e-006
-5.179811e-006
-6.626735e-006
-7.533123e-006
-7.891879e-006
-7.745641e-006
-7.181835e-006
-6.319701e-006
-5.291674e-006
-4.223326e-006
-3.216622e-006
-2.340110e-006
-1.627325e-006
-1.082057e-006
-6.875312e-007
-4.162642e-007
-2.382491e-007
-1.264093e-007
-5.927415e-008
-2.141660e-008
-2.433917e-009
4.685615e-009
5.049241e-009
2.694975e-009
6.735278e-010
2.257939e-009
2.137689e-009
2.162564e-009
2.679197e-009
3.830537e-009
5.299497e-009
6.183039e-009
4.985640e-009
-4.282712e-010
-1.316150e-008
-3.803650e-008
-8.265771e-008
-1.583789e-007
-2.806406e-007
-4.682469e-007
-7.413860e-007
-1.118377e-006
-1.611231e-006
-2.220335e-006
-2.929114e-006
-3.700222e-006
-4.475170e-006
-5.178684e-006
-5.727625e-006
-6.042459e-006
-6.058234e-006
-5.732199e-006
-5.046663e-006
-4.007477e-006
-2.639707e-006
-9.821989e-007
9.179681e-007
3.010720e-006
5.247705e-006
7.586049e-006
9.990653e-006
1.243482e-005
1.489947e-005
1.737162e-005
1.984273e-005
2.230730e-005
2.476170e-005
2.720295e-005
2.962706e-005
3.202763e-005
3.439514e-005
3.671768e-005
3.898246e-005
4.117697e-005
4.328905e-005
4.530618e-005
4.721512e-005
4.900235e-005
5.065496e-005
5.216086e-005
5.350806e-005
5.468333e-005
5.567117e-005
5.645348e-005
5.700955e-005
5.731617e-005
5.734752e-005
5.707471e-005
5.646533e-005
5.548338e-005
5.409032e-005
5.224734e-005
4.991866e-005
4.707567e-005
4.370199e-005
3.980015e-005
3.539993e-005
3.056725e-005
2.541130e-005
2.008696e-005
1.479003e-005
9.743917e-006
5.177617e-006
1.297499e-006
-1.742703e-006
-3.867033e-006
-5.090752e-006
-5.517238e-006
-5.317654e-006
-4.697911e-006
-3.861694e-006
-2.979321e-006
-2.169678e-006
-1.497326e-006
-9.815943e-007
-6.115940e-007
-3.612329e-007
-2.006150e-007
-1.027923e-007
-4.656805e-008
-1.669069e-008
-2.742501e-009
2.283594e-009
3.107770e-009
2.762334e-009
6.440336e-009
5.572177e-009
4.367022e-009
3.550305e-009
3.520999e-009
3.864223e-009
3.047451e-009
-1.718205e-009
-1.464921e-008
-4.186369e-008
-9.231095e-008
-1.790020e-007
-3.199914e-007
-5.382286e-007
-8.592465e-007
-1.305775e-006
-1.888890e-006
-2.596435e-006
-3.381171e-006
-4.152764e-006
-4.778142e-006
-5.092989e-006
-4.923542e-006
-4.113924e-006
-2.551972e-006
-1.868740e-007
2.965339e-006
6.828391e-006
1.128105e-005
1.617614e-005
2.135886e-005
2.668163e-005
3.201467e-005
3.725228e-005
4.231513e-005
4.714910e-005
5.172155e-005
5.601613e-005
6.002721e-005
6.375500e-005
6.720191e-005
7.037056e-005
7.326292e-005
7.588005e-005
7.822188e-005
8.028750e-005
8.207640e-005
8.359051e-005
8.483586e-005
8.582293e-005
8.656582e-005
8.708142e-005
8.738938e-005
8.751257e-005
8.747714e-005
8.731200e-005
8.704808e-005
8.671776e-005
8.635439e-005
8.599137e-005
8.566047e-005
8.538912e-005
8.519643e-005
8.508727e-005
8.504488e-005
8.502273e-005
8.493724e-005
8.466244e-005
8.402826e-005
8.282499e-005
8.081702e-005
7.776827e-005
7.347881e-005
6.782842e-005
6.081961e-005
5.260996e-005
4.352342e-005
3.403171e-005
2.470231e-005
1.611809e-005
8.783487e-006
3.040204e-006
-9.846667e-007
-3.383845e-006
-4.427742e-006
-4.488278e-006
-3.952714e-006
-3.152539e-006
-2.323865e-006
-1.601923e-006
-1.040013e-006
-6.383431e-007
-3.706952e-007
-2.030850e-007
-1.040146e-007
-4.860280e-008
-1.919971e-008
-4.371828e-009
2.638556e-009
5.396703e-009
9.199894e-009
8.024104e-009
6.226005e-009
4.523663e-009
3.171837e-009
1.296736e-009
-3.680880e-009
-1.655994e-008
-4.496951e-008
-1.002601e-007
-1.987092e-007
-3.626943e-007
-6.208651e-007
-1.005559e-006
-1.545083e-006
-2.248694e-006
-3.084201e-006
-3.952369e-006
-4.667569e-006
-4.956715e-006
-4.485244e-006
-2.909632e-006
5.525180e-008
4.572512e-006
1.064163e-005
1.808982e-005
2.659664e-005
3.574354e-005
4.507414e-005
5.415068e-005
6.259623e-005
7.011899e-005
7.651999e-005
8.168787e-005
8.558472e-005
8.822655e-005
8.966245e-005
8.995591e-005
8.917036e-005
8.736025e-005
8.456780e-005
8.082506e-005
7.615978e-005
7.060250e-005
6.419255e-005
5.698216e-005
4.903930e-005
4.044969e-005
3.131735e-005
2.176296e-005
1.192052e-005
1.934142e-006
-8.043512e-006
-1.785113e-005
-2.731782e-005
-3.626152e-005
-4.448674e-005
-5.178173e-005
-5.791680e-005
-6.264492e-005
-6.570550e-005
-6.683182e-005
-6.576358e-005
-6.226665e-005
-5.616106e-005
-4.735656e-005
-3.589314e-005
-2.198332e-005
-6.051040e-006
1.124147e-005
2.899070e-005
4.608564e-005
6.128739e-005
7.335620e-005
8.121702e-005
8.414131e-005
8.190942e-005
7.490799e-005
6.411950e-005
5.098405e-005
3.715157e-005
2.418089e-005
1.326607e-005
5.068393e-006
-3.082822e-007
-3.213072e-006
-4.262042e-006
-4.136838e-006
-3.427819e-006
-2.553270e-006
-1.752120e-006
-1.123058e-006
-6.779264e-007
-3.871785e-007
-2.093660e-007
-1.063002e-007
-4.882639e-008
-1.753978e-008
-1.149903e-009
5.956890e-009
8.789250e-009
8.144920e-009
6.969390e-009
5.240770e-009
2.317486e-009
-3.782530e-009
-1.736090e-008
-4.629774e-008
-1.035667e-007
-2.088748e-007
-3.900411e-007
-6.831119e-007
-1.129002e-006
-1.762766e-006
-2.590585e-006
-3.551576e-006
-4.469195e-006
-5.009318e-006
-4.672429e-006
-2.845301e-006
1.081390e-006
7.552179e-006
1.668831e-005
2.818329e-005
4.128780e-005
5.489291e-005
6.769287e-005
7.838096e-005
8.582669e-005
8.919725e-005
8.800823e-005
8.211099e-005
7.163646e-005
5.691703e-005
3.840308e-005
1.658525e-005
-8.069047e-006
-3.515863e-005
-6.436930e-005
-9.547409e-005
-1.283172e-004
-1.627870e-004
-1.987837e-004
-2.361900e-004
-2.748489e-004
-3.145531e-004
-3.550425e-004
-3.960077e-004
-4.370981e-004
-4.779333e-004
-5.181149e-004
-5.572362e-004
-5.948866e-004
-6.306504e-004
-6.641014e-004
-6.947946e-004
-7.222548e-004
-7.459636e-004
-7.653479e-004
-7.797730e-004
-7.885413e-004
-7.908967e-004
-7.860379e-004
-7.731464e-004
-7.514326e-004
-7.202041e-004
-6.789580e-004
-6.274979e-004
-5.660734e-004
-4.955330e-004
-4.174644e-004
-3.342875e-004
-2.492567e-004
-1.663266e-004
-8.984856e-005
-2.408709e-005
2.740614e-005
6.245573e-005
8.078081e-005
8.415243e-005
7.605694e-005
6.093167e-005
4.321879e-005
2.652216e-005
1.310667e-005
3.840842e-006
-1.515173e-006
-3.851062e-006
-4.249794e-006
-3.659850e-006
-2.742175e-006
-1.864363e-006
-1.175090e-006
-6.950820e-007
-3.883067e-007
-2.046073e-007
-9.975340e-008
-4.196228e-008
-1.167099e-008
1.383289e-009
5.352274e-009
5.990948e-009
6.438038e-009
5.105534e-009
-4.740912e-010
-1.435287e-008
-4.374093e-008
-1.014327e-007
-2.086821e-007
-3.977071e-007
-7.123513e-007
-1.204016e-006
-1.917364e-006
-2.857427e-006
-3.930412e-006
-4.860976e-006
-5.111968e-006
-3.859868e-006
-8.818065e-008
7.167783e-006
1.845473e-005
3.351093e-005
5.098750e-005
6.840169e-005
8.239620e-005
8.926589e-005
8.559435e-005
6.882240e-005
3.760167e-005
-8.139220e-006
-6.738015e-005
-1.383372e-004
-2.188172e-004
-3.065251e-004
-3.992967e-004
-4.952546e-004
-5.928912e-004
-6.910861e-004
-7.890692e-004
-8.863454e-004
-9.826010e-004
-1.077608e-003
-1.171142e-003
-1.262921e-003
-1.352576e-003
-1.439659e-003
-1.523657e-003
-1.604037e-003
-1.680272e-003
-1.751880e-003
-1.818447e-003
-1.879639e-003
-1.935205e-003
-1.984962e-003
-2.028783e-003
-2.066575e-003
-2.098258e-003
-2.123740e-003
-2.142888e-003
-2.155500e-003
-2.161272e-003
-2.159747e-003
-2.150255e-003
-2.131836e-003
-2.103164e-003
-2.062477e-003
-2.007537e-003
-1.935679e-003
-1.843971e-003
-1.729589e-003
-1.590410e-003
-1.425816e-003
-1.237595e-003
-1.030697e-003
-8.135367e-004
-5.975509e-004
-3.958863e-004
-2.213412e-004
-8.395723e-005
1.116085e-005
6.506636e-005
8.454099e-005
7.995623e-005
6.238279e-005
4.110838e-005
2.223710e-005
8.579067e-006
4.324386e-007
-3.328083e-006
-4.276208e-006
-3.800505e-006
-2.842353e-006
-1.902918e-006
-1.173404e-006
-6.763414e-007
-3.664021e-007
-1.853887e-007
-8.517006e-008
-3.333604e-008
-1.145112e-008
8.246827e-010
2.874796e-009
4.860134e-009
2.985782e-009
-7.970793e-009
-3.545766e-008
-9.158100e-008
-1.970400e-007
-3.855052e-007
-7.062567e-007
-1.221023e-006
-1.987409e-006
-3.016235e-006
-4.187922e-006
-5.124542e-006
-5.050651e-006
-2.732810e-006
3.370690e-006
1.464278e-005
3.152810e-005
5.261109e-005
7.387354e-005
8.852683e-005
8.777116e-005
6.241484e-005
4.890801e-006
-8.895845e-005
-2.190109e-004
-3.811395e-004
-5.682882e-004
-7.718386e-004
-9.828852e-004
-1.193220e-003
-1.395962e-003
-1.585859e-003
-1.759301e-003
-1.914128e-003
-2.049294e-003
-2.164488e-003
-2.259799e-003
-2.335464e-003
-2.391738e-003
-2.428869e-003
-2.447139e-003
-2.446971e-003
-2.429029e-003
-2.394311e-003
-2.344180e-003
-2.280352e-003
-2.204838e-003
-2.119864e-003
-2.027788e-003
-1.931020e-003
-1.831974e-003
-1.733050e-003
-1.636650e-003
-1.545208e-003
-1.461233e-003
-1.387352e-003
-1.326337e-003
-1.281109e-003
-1.254695e-003
-1.250112e-003
-1.270158e-003
-1.317090e-003
-1.392122e-003
-1.494729e-003
-1.621719e-003
-1.766137e-003
-1.916173e-003
-2.054486e-003
-2.158574e-003
-2.203001e-003
-2.164004e-003
-2.026128e-003
-1.789072e-003
-1.471693e-003
-1.110136e-003
-7.494259e-004
-4.317457e-004
-1.864838e-004
-2.501036e-005
5.929729e-005
8.562680e-005
7.727801e-005
5.453656e-005
3.093299e-005
1.299483e-005
2.153595e-006
-2.888511e-006
-4.264120e-006
-3.841690e-006
-2.836031e-006
-1.855917e-006
-1.113265e-006
-6.217863e-007
-3.248157e-007
-1.579895e-007
-7.190148e-008
-3.595793e-008
-2.248785e-009
3.841408e-010
2.191205e-009
-3.135644e-009
-2.444713e-008
-7.438944e-008
-1.729908e-007
-3.531491e-007
-6.657988e-007
-1.179777e-006
-1.966517e-006
-3.051875e-006
-4.310584e-006
-5.287498e-006
-4.977909e-006
-1.697278e-006
6.720033e-006
2.212769e-005
4.456053e-005
7.022915e-005
8.968515e-005
8.731262e-005
4.340544e-005
-6.113977e-005
-2.386524e-004
-4.895281e-004
-8.006074e-004
-1.147024e-003
-1.496465e-003
-1.815076e-003
-2.073546e-003
-2.251513e-003
-2.339255e-003
-2.336876e-003
-2.251861e-003
-2.095958e-003
-1.882258e-003
-1.623059e-003
-1.328741e-003
-1.007533e-003
-6.658815e-004
-3.090786e-004
5.811752e-005
4.310318e-004
8.048558e-004
1.174656e-003
1.535553e-003
1.882991e-003
2.213007e-003
2.522432e-003
2.808979e-003
3.071233e-003
3.308545e-003
3.520874e-003
3.708600e-003
3.872330e-003
4.012721e-003
4.130330e-003
4.225471e-003
4.298070e-003
4.347499e-003
4.372373e-003
4.370284e-003
4.337461e-003
4.268322e-003
4.154971e-003
3.986697e-003
3.749677e-003
3.427255e-003
3.001431e-003
2.456482e-003
1.785666e-003
1.001222e-003
1.458840e-004
-6.993778e-004
-1.420129e-003
-1.894603e-003
-2.040696e-003
-1.862103e-003
-1.456039e-003
-9.672889e-004
-5.234091e-004
-1.977077e-004
-6.625803e-006
7.408882e-005
8.527986e-005
6.471328e-005
3.762582e-005
1.610319e-005
3.154253e-006
-2.718317e-006
-4.257184e-006
-3.784237e-006
-2.721610e-006
-1.727775e-006
-1.003188e-006
-5.416045e-007
-2.746489e-007
-1.350818e-007
-7.664665e-008
-2.261016e-009
-8.316479e-010
-2.578033e-009
-1.636057e-008
-5.559703e-008
-1.405558e-007
-3.032950e-007
-5.940798e-007
-1.084740e-006
-1.858148e-006
-2.962092e-006
-4.292440e-006
-5.370722e-006
-5.031805e-006
-1.177844e-006
9.031367e-006
2.802013e-005
5.522994e-005
8.323392e-005
9.369995e-005
5.607566e-005
-6.724816e-005
-3.081595e-004
-6.748387e-004
-1.136961e-003
-1.620994e-003
-2.019784e-003
-2.222448e-003
-2.154509e-003
-1.802870e-003
-1.211691e-003
-4.582369e-004
3.735473e-004
1.211206e-003
2.002176e-003
2.714803e-003
3.334913e-003
3.860530e-003
4.296689e-003
4.651418e-003
4.933183e-003
5.149626e-003
5.307220e-003
5.411470e-003
5.467329e-003
5.479616e-003
5.453314e-003
5.393703e-003
5.306326e-003
5.196844e-003
5.070834e-003
4.933608e-003
4.790090e-003
4.644758e-003
4.501664e-003
4.364502e-003
4.236713e-003
4.121626e-003
4.022593e-003
3.943101e-003
3.886871e-003
3.857899e-003
3.860455e-003
3.898962e-003
3.977730e-003
4.100404e-003
4.269006e-003
4.482311e-003
4.733271e-003
5.005171e-003
5.266434e-003
5.464508e-003
5.520646e-003
5.329848e-003
4.774560e-003
3.765649e-003
2.319985e-003
6.472419e-004
-8.495609e-004
-1.753973e-003
-1.910374e-003
-1.518448e-003
-9.341209e-004
-4.254136e-004
-1.002923e-004
5.058240e-005
8.727674e-005
7.071257e-005
4.118074e-005
1.718056e-005
3.130358e-006
-2.890784e-006
-4.254463e-006
-3.624516e-006
-2.507723e-006
-1.534337e-006
-8.602828e-007
-4.521406e-007
-2.331104e-007
-1.401644e-007
4.485696e-010
-1.781829e-009
-1.170335e-008
-4.076241e-008
-1.081955e-007
-2.450239e-007
-5.001894e-007
-9.459364e-007
-1.673051e-006
-2.753540e-006
-4.128199e-006
-5.362720e-006
-5.253300e-006
-1.425667e-006
9.598188e-006
3.099703e-005
6.188879e-005
9.077084e-005
8.771919e-005
1.234801e-006
-2.306244e-004
-6.485171e-004
-1.222470e-003
-1.807281e-003
-2.138596e-003
-1.933507e-003
-1.077801e-003
2.786998e-004
1.817490e-003
3.228648e-003
4.323846e-003
5.045880e-003
5.422841e-003
5.520007e-003
5.409495e-003
5.155631e-003
4.809578e-003
4.408808e-003
3.978989e-003
3.536815e-003
3.092855e-003
2.653952e-003
2.224944e-003
1.809741e-003
1.411843e-003
1.034469e-003
6.804522e-004
3.520532e-004
5.080129e-005
-2.225895e-004
-4.682039e-004
-6.868189e-004
-8.797335e-004
-1.048576e-003
-1.195121e-003
-1.321126e-003
-1.428202e-003
-1.517701e-003
-1.590619e-003
-1.647501e-003
-1.688330e-003
-1.712376e-003
-1.717973e-003
-1.702191e-003
-1.660377e-003
-1.585508e-003
-1.467339e-003
-1.291364e-003
-1.037745e-003
-6.806138e-004
-1.886524e-004
4.713994e-004
1.325566e-003
2.373906e-003
3.557931e-003
4.713678e-003
5.528300e-003
5.563126e-003
4.450700e-003
2.291146e-003
-8.489138e-005
-1.586464e-003
-1.827185e-003
-1.300558e-003
-6.481338e-004
-1.913125e-004
2.784732e-005
8.674518e-005
7.255519e-005
4.105685e-005
1.597588e-005
2.091825e-006
-3.324225e-006
-4.204702e-006
-3.355249e-006
-2.211591e-006
-1.299652e-006
-7.083535e-007
-3.787382e-007
-2.359615e-007
3.631201e-009
-4.982777e-009
-2.837772e-008
-8.095463e-008
-1.895720e-007
-3.997192e-007
-7.818875e-007
-1.431455e-006
-2.442990e-006
-3.815900e-006
-5.219647e-006
-5.555413e-006
-2.397475e-006
8.196469e-006
3.034925e-005
6.371972e-005
9.399206e-005
7.970346e-005
-5.500057e-005
-4.009238e-004
-9.956962e-004
-1.702579e-003
-2.098093e-003
-1.579905e-003
9.062827e-005
2.373066e-003
4.354684e-003
5.446493e-003
5.589415e-003
5.037458e-003
4.105740e-003
3.042963e-003
2.005417e-003
1.074671e-003
2.827879e-004
-3.674242e-004
-8.884829e-004
-1.299229e-003
-1.619421e-003
-1.866902e-003
-2.056471e-003
-2.199788e-003
-2.305800e-003
-2.381336e-003
-2.431713e-003
-2.461225e-003
-2.473504e-003
-2.471742e-003
-2.458807e-003
-2.437295e-003
-2.409547e-003
-2.377644e-003
-2.343414e-003
-2.308444e-003
-2.274110e-003
-2.241618e-003
-2.212053e-003
-2.186432e-003
-2.165744e-003
-2.151001e-003
-2.143275e-003
-2.143725e-003
-2.153610e-003
-2.174277e-003
-2.207100e-003
-2.253342e-003
-2.313875e-003
-2.388631e-003
-2.475619e-003
-2.569158e-003
-2.656815e-003
-2.714244e-003
-2.696978e-003
-2.528901e-003
-2.090662e-003
-1.221841e-003
2.288976e-004
2.254802e-003
4.436170e-003
5.774548e-003
5.121563e-003
2.440911e-003
-4.811570e-004
-1.785787e-003
-1.535082e-003
-8.045813e-004
-2.462916e-004
1.880405e-005
8.668863e-005
7.039493e-005
3.727935e-005
1.277844e-005
3.639401e-007
-3.816416e-006
-4.035275e-006
-2.978485e-006
-1.862494e-006
-1.058475e-006
-5.861680e-007
-3.760389e-007
4.034781e-009
-1.362818e-008
-5.603289e-008
-1.415112e-007
-3.069753e-007
-6.162084e-007
-1.164008e-006
-2.061934e-006
-3.369006e-006
-4.892918e-006
-5.762767e-006
-3.764280e-006
5.178560e-006
2.613063e-005
6.043168e-005
9.401281e-005
7.814456e-005
-8.568805e-005
-5.209187e-004
-1.256280e-003
-1.976079e-003
-1.808220e-003
1.006362e-004
3.123554e-003
5.361455e-003
5.680620e-003
4.419587e-003
2.516122e-003
7.027838e-004
-6.913789e-004
-1.622194e-003
-2.173095e-003
-2.454473e-003
-2.560447e-003
-2.558985e-003
-2.495259e-003
-2.397870e-003
-2.284286e-003
-2.164799e-003
-2.045207e-003
-1.928601e-003
-1.816504e-003
-1.709599e-003
-1.608155e-003
-1.512272e-003
-1.421995e-003
-1.337360e-003
-1.258400e-003
-1.185127e-003
-1.117525e-003
-1.055536e-003
-9.990709e-004
-9.480116e-004
-9.022286e-004
-8.616002e-004
-8.260347e-004
-7.954939e-004
-7.700154e-004
-7.497355e-004
-7.349151e-004
-7.259704e-004
-7.235105e-004
-7.283857e-004
-7.417531e-004
-7.651654e-004
-8.006890e-004
-8.510561e-004
-9.198544e-004
-1.011749e-003
-1.132702e-003
-1.290066e-003
-1.492263e-003
-1.747280e-003
-2.058254e-003
-2.412444e-003
-2.756784e-003
-2.951220e-003
-2.703007e-003
-1.550335e-003
8.765959e-004
4.061240e-003
5.941529e-003
4.453269e-003
7.818541e-004
-1.566629e-003
-1.632865e-003
-8.578620e-004
-2.446810e-004
2.861472e-005
8.702179e-005
6.409875e-005
3.044200e-005
8.347154e-006
-1.534792e-006
-4.138756e-006
-3.699037e-006
-2.522500e-006
-1.509522e-006
-8.687004e-007
-5.735745e-007
-1.497024e-009
-3.066741e-008
-9.767763e-008
-2.264669e-007
-4.668718e-007
-9.040049e-007
-1.655285e-006
-2.827325e-006
-4.368071e-006
-5.701569e-006
-5.049867e-006
1.366615e-006
1.919198e-005
5.217167e-005
9.019741e-005
8.536158e-005
-7.469408e-005
-5.486416e-004
-1.377785e-003
-2.067311e-003
-1.229673e-003
1.970295e-003
5.265035e-003
5.702578e-003
3.460861e-003
6.173590e-004
-1.423277e-003
-2.433257e-003
-2.719510e-003
-2.623080e-003
-2.368269e-003
-2.073067e-003
-1.790392e-003
-1.539589e-003
-1.324544e-003
-1.142808e-003
-9.898317e-004
-8.607940e-004
-7.513152e-004
-6.576881e-004
-5.769006e-004
-5.065751e-004
-4.448739e-004
-3.903970e-004
-3.420845e-004
-2.991307e-004
-2.609131e-004
-2.269342e-004
-1.967796e-004
-1.700890e-004
-1.465404e-004
-1.258418e-004
-1.077284e-004
-9.196301e-005
-7.833813e-005
-6.667937e-005
-5.684896e-005
-4.874930e-005
-4.232772e-005
-3.758340e-005
-3.457699e-005
-3.344412e-005
-3.441563e-005
-3.784920e-005
-4.427838e-005
-5.448608e-005
-6.961375e-005
-9.132515e-005
-1.220552e-004
-1.653899e-004
-2.266447e-004
-3.137280e-004
-4.383663e-004
-6.176366e-004
-8.752467e-004
-1.240485e-003
-1.738667e-003
-2.357130e-003
-2.952985e-003
-3.067203e-003
-1.783271e-003
1.588630e-003
5.342047e-003
5.436682e-003
1.555359e-003
-1.450591e-003
-1.628223e-003
-7.978433e-004
-1.872304e-004
5.152755e-005
8.467015e-005
5.371003e-005
2.172989e-005
3.695662e-006
-3.090746e-006
-4.140750e-006
-3.211449e-006
-2.053694e-006
-1.235349e-006
-8.406922e-007
-1.538807e-008
-5.832266e-008
-1.555966e-007
-3.390097e-007
-6.741647e-007
-1.268482e-006
-2.252860e-006
-3.687485e-006
-5.288917e-006
-5.834629e-006
-2.237089e-006
1.104536e-005
3.991156e-005
8.069427e-005
9.533380e-005
-2.648572e-005
-4.726818e-004
-1.343971e-003
-2.093003e-003
-8.868531e-004
3.141159e-003
6.000560e-003
4.330486e-003
5.602191e-004
-2.021645e-003
-2.836160e-003
-2.658924e-003
-2.159301e-003
-1.648700e-003
-1.225539e-003
-9.010988e-004
-6.597291e-004
-4.816535e-004
-3.499423e-004
-2.517352e-004
-1.777126e-004
-1.212342e-004
-7.758189e-005
-4.339273e-005
-1.625971e-005
5.544628e-006
2.326157e-005
3.778495e-005
4.976257e-005
5.967027e-005
6.786484e-005
7.462141e-005
8.015979e-005
8.466266e-005
8.828732e-005
9.117238e-005
9.344097e-005
9.520218e-005
9.655183e-005
9.757332e-005
9.833901e-005
9.891203e-005
9.934776e-005
9.969429e-005
9.999189e-005
1.002723e-004
1.005577e-004
1.008589e-004
1.011696e-004
1.014544e-004
1.016297e-004
1.015308e-004
1.008595e-004
9.909370e-005
9.532960e-005
8.800259e-005
7.438851e-005
4.971474e-005
5.600212e-006
-7.257722e-005
-2.097698e-004
-4.464845e-004
-8.417973e-004
-1.461254e-003
-2.310730e-003
-3.121724e-003
-2.905866e-003
-3.496214e-005
4.671508e-003
5.684824e-003
1.547207e-003
-1.563959e-003
-1.521264e-003
-6.367756e-004
-9.558871e-005
7.447271e-005
7.628501e-005
4.024581e-005
1.274600e-005
-2.281315e-007
-3.980450e-006
-3.811771e-006
-2.662272e-006
-1.687206e-006
-1.185994e-006
-3.933318e-008
-9.814265e-008
-2.313930e-007
-4.812721e-007
-9.313086e-007
-1.708760e-006
-2.938645e-006
-4.568940e-006
-5.920255e-006
-4.818917e-006
3.444587e-006
2.574435e-005
6.478680e-005
9.814391e-005
3.568894e-005
-3.169073e-004
-1.151334e-003
-2.079380e-003
-1.084237e-003
3.320395e-003
6.075476e-003
3.086903e-003
-1.172552e-003
-2.870935e-003
-2.657390e-003
-1.906984e-003
-1.222545e-003
-7.329642e-004
-4.136089e-004
-2.133286e-004
-8.964592e-005
-1.358156e-005
3.319328e-005
6.192027e-005
7.943283e-005
8.989753e-005
9.588045e-005
9.898329e-005
1.002197e-004
1.002384e-004
9.945724e-005
9.814636e-005
9.648133e-005
9.457902e-005
9.252099e-005
9.036760e-005
8.816590e-005
8.595386e-005
8.376322e-005
8.162175e-005
7.955471e-005
7.758527e-005
7.573396e-005
7.401809e-005
7.245201e-005
7.104876e-005
6.982245e-005
6.879020e-005
6.797282e-005
6.739472e-005
6.708447e-005
6.707693e-005
6.741644e-005
6.815962e-005
6.937688e-005
7.115289e-005
7.358682e-005
7.679165e-005
8.088901e-005
8.599074e-005
9.214916e-005
9.923680e-005
1.066695e-004
1.127872e-004
1.135129e-004
9.956516e-005
5.105005e-005
-7.184982e-005
-3.412110e-004
-8.659332e-004
-1.746897e-003
-2.857816e-003
-3.214164e-003
-5.470156e-004
4.680458e-003
5.423919e-003
7.634571e-004
-1.773849e-003
-1.279467e-003
-4.131723e-004
-3.217650e-006
8.509711e-005
6.121089e-005
2.586541e-005
5.050970e-006
-2.841797e-006
-4.159935e-006
-3.282508e-006
-2.214636e-006
-1.612552e-006
-7.458753e-008
-1.512425e-007
-3.260596e-007
-6.540241e-007
-1.237393e-006
-2.216213e-006
-3.678603e-006
-5.370933e-006
-6.022747e-006
-2.221035e-006
1.241636e-005
4.462323e-005
8.753626e-005
8.311198e-005
-1.353288e-004
-8.254596e-004
-1.910655e-003
-1.691381e-003
2.461086e-003
6.063132e-003
2.890801e-003
-1.735842e-003
-2.941833e-003
-2.206679e-003
-1.265922e-003
-6.103509e-004
-2.345924e-004
-4.075940e-005
5.138330e-005
9.102541e-005
1.048966e-004
1.066556e-004
1.030463e-004
9.732243e-005
9.101578e-005
8.481817e-005
7.901501e-005
7.369823e-005
6.887096e-005
6.449851e-005
6.053244e-005
5.692183e-005
5.361909e-005
5.058374e-005
4.778443e-005
4.519864e-005
4.281043e-005
4.060738e-005
3.857879e-005
3.671550e-005
3.501054e-005
3.345928e-005
3.205836e-005
3.080405e-005
2.969159e-005
2.871636e-005
2.787611e-005
2.717270e-005
2.661216e-005
2.620365e-005
2.595915e-005
2.589516e-005
2.603599e-005
2.641733e-005
2.708898e-005
2.811767e-005
2.959212e-005
3.163249e-005
3.440522e-005
3.814330e-005
4.317204e-005
4.993739e-005
5.902187e-005
7.109279e-005
8.662130e-005
1.049549e-004
1.217809e-004
1.230451e-004
7.230446e-005
-1.102727e-004
-5.669824e-004
-1.467273e-003
-2.743275e-003
-3.218101e-003
-1.658892e-005
5.359610e-003
4.423542e-003
-4.921600e-004
-1.801645e-003
-9.111316e-004
-1.883248e-004
6.049074e-005
7.876086e-005
4.224049e-005
1.309548e-005
-3.622754e-007
-4.063615e-006
-3.839589e-006
-2.796287e-006
-2.116831e-006
-1.220248e-007
-2.182770e-007
-4.397616e-007
-8.561702e-007
-1.587427e-006
-2.774319e-006
-4.426178e-006
-5.981517e-006
-5.379434e-006
2.229666e-006
2.451879e-005
6.525139e-005
9.850033e-005
1.104590e-005
-4.499563e-004
-1.488403e-003
-2.193110e-003
6.627956e-004
5.633117e-003
3.868347e-003
-1.415935e-003
-2.896434e-003
-1.969256e-003
-9.287925e-004
-3.068803e-004
-1.817243e-005
8.936611e-005
1.155985e-004
1.109465e-004
9.722038e-005
8.268159e-005
6.992250e-005
5.941047e-005
5.092652e-005
4.409715e-005
3.856770e-005
3.404584e-005
3.030310e-005
2.716561e-005
2.450280e-005
2.221652e-005
2.023165e-005
1.848974e-005
1.694579e-005
1.556693e-005
1.433062e-005
1.322138e-005
1.222696e-005
1.133580e-005
1.053694e-005
9.821435e-006
9.183274e-006
8.618483e-006
8.122973e-006
7.691129e-006
7.316507e-006
6.994078e-006
6.722015e-006
6.501462e-006
6.334742e-006
6.224023e-006
6.172110e-006
6.185092e-006
6.275057e-006
6.461443e-006
6.771626e-006
7.243070e-006
7.929498e-006
8.912455e-006
1.031942e-005
1.235188e-005
1.533133e-005
1.977571e-005
2.651593e-005
3.683399e-005
5.249795e-005
7.525528e-005
1.045646e-004
1.307278e-004
1.182531e-004
-2.523086e-005
-4.814031e-004
-1.475234e-003
-2.876567e-003
-2.911320e-003
1.625212e-003
5.943800e-003
2.405824e-003
-1.572114e-003
-1.485226e-003
-5.050702e-004
-2.027171e-005
8.392152e-005
5.971126e-005
2.382254e-005
3.725103e-006
-3.330808e-006
-4.244423e-006
-3.400391e-006
-2.688629e-006
-1.817582e-007
-2.990085e-007
-5.713204e-007
-1.084213e-006
-1.972186e-006
-3.360275e-006
-5.129716e-006
-6.300236e-006
-3.849685e-006
8.545637e-006
3.892996e-005
8.387228e-005
8.678581e-005
-1.371681e-004
-9.011914e-004
-2.094860e-003
-1.341629e-003
3.841530e-003
5.411724e-003
-1.041131e-005
-2.819012e-003
-2.041133e-003
-8.671776e-004
-2.018137e-004
5.861269e-005
1.218550e-004
1.136608e-004
8.877956e-005
6.557708e-005
4.803103e-005
3.562896e-005
2.699177e-005
2.092290e-005
1.657790e-005
1.339935e-005
1.102375e-005
9.210619e-006
7.797734e-006
6.674811e-006
5.767164e-006
5.023748e-006
4.407776e-006
3.890665e-006
3.449884e-006
3.069317e-006
2.739390e-006
2.455088e-006
2.212502e-006
2.006275e-006
1.829741e-006
1.677149e-006
1.545523e-006
1.434206e-006
1.342426e-006
1.267220e-006
1.203703e-006
1.147400e-006
1.096379e-006
1.051123e-006
1.012334e-006
9.788648e-007
9.478504e-007
9.169426e-007
8.865839e-007
8.603762e-007
8.437268e-007
8.429988e-007
8.675185e-007
9.352337e-007
1.081799e-006
1.374721e-006
1.939693e-006
3.014756e-006
5.058459e-006
8.946885e-006
1.628052e-005
2.971057e-005
5.278232e-005
8.764141e-005
1.263808e-004
1.278840e-004
-2.692452e-005
-5.762980e-004
-1.771478e-003
-3.153991e-003
-1.774849e-003
4.097891e-003
5.096640e-003
-9.278940e-005
-1.873183e-003
-9.383863e-004
-1.762346e-004
6.589494e-005
7.480682e-005
3.661280e-005
9.518332e-006
-1.804285e-006
-4.405968e-006
-3.988153e-006
-3.311833e-006
-2.526091e-007
-3.917782e-007
-7.177408e-007
-1.332045e-006
-2.378871e-006
-3.948203e-006
-5.742055e-006
-6.260682e-006
-1.408521e-006
1.645192e-005
5.429439e-005
9.627598e-005
4.362523e-005
-3.661603e-004
-1.430953e-003
-2.331558e-003
6.453135e-004
5.677236e-003
2.773072e-003
-2.196310e-003
-2.382524e-003