# vtk DataFile Version 3.0
vtk output
ASCII
DATASET STRUCTURED_POINTS
DIMENSIONS 100 100 1
SPACING 1 1 1
ORIGIN 0 0 0
POINT_DATA 10000
SCALARS SFBox_profile double
LOOKUP_TABLE default 
9.439922e-003
9.439921e-003
9.439920e-003
9.439919e-003
9.439919e-003
9.439920e-003
9.439920e-003
9.439921e-003
9.439920e-003
9.439920e-003
9.439920e-003
9.439920e-003
9.439920e-003
9.439920e-003
9.439920e-003
9.439920e-003
9.439920e-003
9.439920e-003
9.439921e-003
9.439920e-003
9.439920e-003
9.439920e-003
9.439920e-003
9.439920e-003
9.439920e-003
9.439920e-003
9.439920e-003
9.439920e-003
9.439920e-003
9.439921e-003
9.439921e-003
9.439921e-003
9.439922e-003
9.439922e-003
9.439922e-003
9.439923e-003
9.439923e-003
9.439923e-003
9.439924e-003
9.439924e-003
9.439924e-003
9.439925e-003
9.439925e-003
9.439925e-003
9.439926e-003
9.439926e-003
9.439926e-003
9.439926e-003
9.439926e-003
9.439926e-003
9.439926e-003
9.439927e-003
9.439926e-003
9.439926e-003
9.439926e-003
9.439926e-003
9.439926e-003
9.439926e-003
9.439925e-003
9.439925e-003
9.439925e-003
9.439925e-003
9.439924e-003
9.439924e-003
9.439923e-003
9.439923e-003
9.439923e-003
9.439922e-003
9.439922e-003
9.439921e-003
9.439921e-003
9.439921e-003
9.439921e-003
9.439920e-003
9.439920e-003
9.439920e-003
9.439920e-003
9.439920e-003
9.439920e-003
9.439920e-003
9.439920e-003
9.439920e-003
9.439920e-003
9.439920e-003
9.439920e-003
9.439920e-003
9.439920e-003
9.439920e-003
9.439920e-003
9.439920e-003
9.439920e-003
9.439920e-003
9.439920e-003
9.439920e-003
9.439920e-003
9.439920e-003
9.439919e-003
9.439920e-003
9.439920e-003
9.439920e-003
9.439922e-003
9.439921e-003
9.439920e-003
9.439919e-003
9.439919e-003
9.439920e-003
9.439920e-003
9.439921e-003
9.439920e-003
9.439920e-003
9.439920e-003
9.439920e-003
9.439920e-003
9.439920e-003
9.439920e-003
9.439920e-003
9.439920e-003
9.439920e-003
9.439921e-003
9.439920e-003
9.439920e-003
9.439920e-003
9.439920e-003
9.439920e-003
9.439920e-003
9.439920e-003
9.439920e-003
9.439920e-003
9.439920e-003
9.439921e-003
9.439921e-003
9.439921e-003
9.439922e-003
9.439922e-003
9.439922e-003
9.439923e-003
9.439923e-003
9.439923e-003
9.439924e-003
9.439924e-003
9.439924e-003
9.439925e-003
9.439925e-003
9.439925e-003
9.439926e-003
9.439926e-003
9.439926e-003
9.439926e-003
9.439926e-003
9.439926e-003
9.439926e-003
9.439927e-003
9.439926e-003
9.439926e-003
9.439926e-003
9.439926e-003
9.439926e-003
9.439926e-003
9.439925e-003
9.439925e-003
9.439925e-003
9.439925e-003
9.439924e-003
9.439924e-003
9.439923e-003
9.439923e-003
9.439923e-003
9.439922e-003
9.439922e-003
9.439921e-003
9.439921e-003
9.439921e-003
9.439921e-003
9.439920e-003
9.439920e-003
9.439920e-003
9.439920e-003
9.439920e-003
9.439920e-003
9.439920e-003
9.439920e-003
9.439920e-003
9.439920e-003
9.439920e-003
9.439920e-003
9.439920e-003
9.439920e-003
9.439920e-003
9.439920e-003
9.439920e-003
9.439920e-003
9.439920e-003
9.439920e-003
9.439920e-003
9.439920e-003
9.439920e-003
9.439919e-003
9.439920e-003
9.439920e-003
9.439920e-003
9.439920e-003
9.439920e-003
9.439920e-003
9.439920e-003
9.439920e-003
9.439920e-003
9.439920e-003
9.439920e-003
9.439920e-003
9.439920e-003
9.439920e-003
9.439920e-003
9.439920e-003
9.439920e-003
9.439920e-003
9.439920e-003
9.439920e-003
9.439920e-003
9.439920e-003
9.439920e-003
9.439920e-003
9.439920e-003
9.439920e-003
9.439920e-003
9.439921e-003
9.439921e-003
9.439921e-003
9.439921e-003
9.439921e-003
9.439921e-003
9.439922e-003
9.439922e-003
9.439922e-003
9.439923e-003
9.439923e-003
9.439923e-003
9.439924e-003
9.439924e-003
9.439925e-003
9.439925e-003
9.439926e-003
9.439926e-003
9.439927e-003
9.439927e-003
9.439928e-003
9.439928e-003
9.439928e-003
9.439928e-003
9.439929e-003
9.439929e-003
9.439929e-003
9.439929e-003
9.439929e-003
9.439929e-003
9.439929e-003
9.439929e-003
9.439928e-003
9.439928e-003
9.439928e-003
9.439927e-003
9.439927e-003
9.439926e-003
9.439926e-003
9.439925e-003
9.439924e-003
9.439924e-003
9.439923e-003
9.439923e-003
9.439922e-003
9.439922e-003
9.439922e-003
9.439921e-003
9.439921e-003
9.439921e-003
9.439921e-003
9.439921e-003
9.439921e-003
9.439920e-003
9.439920e-003
9.439920e-003
9.439920e-003
9.439920e-003
9.439920e-003
9.439920e-003
9.439920e-003
9.439920e-003
9.439920e-003
9.439920e-003
9.439920e-003
9.439920e-003
9.439920e-003
9.439920e-003
9.439920e-003
9.439920e-003
9.439920e-003
9.439920e-003
9.439920e-003
9.439920e-003
9.439920e-003
9.439920e-003
9.439918e-003
9.439919e-003
9.439920e-003
9.439921e-003
9.439921e-003
9.439920e-003
9.439920e-003
9.439919e-003
9.439920e-003
9.439920e-003
9.439920e-003
9.439920e-003
9.439920e-003
9.439920e-003
9.439920e-003
9.439920e-003
9.439920e-003
9.439920e-003
9.439920e-003
9.439920e-003
9.439920e-003
9.439920e-003
9.439920e-003
9.439921e-003
9.439921e-003
9.439921e-003
9.439922e-003
9.439922e-003
9.439922e-003
9.439923e-003
9.439923e-003
9.439924e-003
9.439924e-003
9.439925e-003
9.439925e-003
9.439926e-003
9.439927e-003
9.439928e-003
9.439928e-003
9.439929e-003
9.439930e-003
9.439931e-003
9.439931e-003
9.439932e-003
9.439933e-003
9.439933e-003
9.439934e-003
9.439934e-003
9.439934e-003
9.439934e-003
9.439935e-003
9.439935e-003
9.439935e-003
9.439934e-003
9.439934e-003
9.439934e-003
9.439934e-003
9.439933e-003
9.439932e-003
9.439932e-003
9.439931e-003
9.439930e-003
9.439929e-003
9.439929e-003
9.439928e-003
9.439927e-003
9.439926e-003
9.439925e-003
9.439924e-003
9.439924e-003
9.439923e-003
9.439923e-003
9.439922e-003
9.439922e-003
9.439922e-003
9.439921e-003
9.439921e-003
9.439921e-003
9.439921e-003
9.439920e-003
9.439920e-003
9.439920e-003
9.439920e-003
9.439920e-003
9.439920e-003
9.439920e-003
9.439920e-003
9.439920e-003
9.439920e-003
9.439920e-003
9.439920e-003
9.439920e-003
9.439920e-003
9.439920e-003
9.439920e-003
9.439920e-003
9.439920e-003
9.439920e-003
9.439920e-003
9.439920e-003
9.439918e-003
9.439919e-003
9.439921e-003
9.439921e-003
9.439921e-003
9.439920e-003
9.439920e-003
9.439920e-003
9.439920e-003
9.439920e-003
9.439920e-003
9.439920e-003
9.439920e-003
9.439920e-003
9.439920e-003
9.439920e-003
9.439920e-003
9.439920e-003
9.439920e-003
9.439920e-003
9.439921e-003
9.439921e-003
9.439921e-003
9.439921e-003
9.439922e-003
9.439922e-003
9.439923e-003
9.439923e-003
9.439924e-003
9.439925e-003
9.439926e-003
9.439927e-003
9.439928e-003
9.439929e-003
9.439931e-003
9.439932e-003
9.439933e-003
9.439934e-003
9.439935e-003
9.439936e-003
9.439937e-003
9.439938e-003
9.439939e-003
9.439940e-003
9.439941e-003
9.439941e-003
9.439942e-003
9.439942e-003
9.439942e-003
9.439942e-003
9.439943e-003
9.439942e-003
9.439942e-003
9.439942e-003
9.439942e-003
9.439942e-003
9.439941e-003
9.439940e-003
9.439940e-003
9.439939e-003
9.439938e-003
9.439937e-003
9.439936e-003
9.439935e-003
9.439934e-003
9.439933e-003
9.439931e-003
9.439930e-003
9.439929e-003
9.439927e-003
9.439926e-003
9.439925e-003
9.439924e-003
9.439923e-003
9.439923e-003
9.439922e-003
9.439921e-003
9.439921e-003
9.439921e-003
9.439921e-003
9.439920e-003
9.439920e-003
9.439920e-003
9.439920e-003
9.439920e-003
9.439920e-003
9.439920e-003
9.439920e-003
9.439920e-003
9.439920e-003
9.439920e-003
9.439920e-003
9.439920e-003
9.439920e-003
9.439920e-003
9.439920e-003
9.439921e-003
9.439920e-003
9.439920e-003
9.439919e-003
9.439920e-003
9.439920e-003
9.439920e-003
9.439920e-003
9.439920e-003
9.439920e-003
9.439920e-003
9.439920e-003
9.439920e-003
9.439921e-003
9.439920e-003
9.439920e-003
9.439919e-003
9.439920e-003
9.439920e-003
9.439920e-003
9.439920e-003
9.439920e-003
9.439921e-003
9.439921e-003
9.439921e-003
9.439922e-003
9.439922e-003
9.439922e-003
9.439923e-003
9.439924e-003
9.439925e-003
9.439926e-003
9.439927e-003
9.439929e-003
9.439931e-003
9.439933e-003
9.439934e-003
9.439936e-003
9.439938e-003
9.439940e-003
9.439941e-003
9.439942e-003
9.439944e-003
9.439945e-003
9.439946e-003
9.439946e-003
9.439947e-003
9.439947e-003
9.439947e-003
9.439948e-003
9.439948e-003
9.439948e-003
9.439947e-003
9.439947e-003
9.439947e-003
9.439947e-003
9.439947e-003
9.439946e-003
9.439946e-003
9.439946e-003
9.439946e-003
9.439945e-003
9.439945e-003
9.439945e-003
9.439944e-003
9.439944e-003
9.439943e-003
9.439942e-003
9.439941e-003
9.439940e-003
9.439938e-003
9.439936e-003
9.439935e-003
9.439933e-003
9.439931e-003
9.439929e-003
9.439927e-003
9.439926e-003
9.439925e-003
9.439923e-003
9.439922e-003
9.439922e-003
9.439921e-003
9.439921e-003
9.439921e-003
9.439921e-003
9.439920e-003
9.439920e-003
9.439920e-003
9.439920e-003
9.439920e-003
9.439920e-003
9.439920e-003
9.439920e-003
9.439920e-003
9.439920e-003
9.439920e-003
9.439920e-003
9.439920e-003
9.439920e-003
9.439920e-003
9.439920e-003
9.439920e-003
9.439920e-003
9.439921e-003
9.439921e-003
9.439920e-003
9.439919e-003
9.439919e-003
9.439920e-003
9.439920e-003
9.439920e-003
9.439921e-003
9.439920e-003
9.439920e-003
9.439920e-003
9.439920e-003
9.439920e-003
9.439920e-003
9.439920e-003
9.439920e-003
9.439921e-003
9.439921e-003
9.439922e-003
9.439922e-003
9.439923e-003
9.439924e-003
9.439925e-003
9.439926e-003
9.439928e-003
9.439930e-003
9.439931e-003
9.439934e-003
9.439936e-003
9.439938e-003
9.439940e-003
9.439942e-003
9.439944e-003
9.439945e-003
9.439946e-003
9.439947e-003
9.439947e-003
9.439947e-003
9.439947e-003
9.439946e-003
9.439945e-003
9.439943e-003
9.439942e-003
9.439940e-003
9.439938e-003
9.439936e-003
9.439934e-003
9.439932e-003
9.439931e-003
9.439930e-003
9.439929e-003
9.439928e-003
9.439928e-003
9.439929e-003
9.439929e-003
9.439931e-003
9.439932e-003
9.439934e-003
9.439936e-003
9.439937e-003
9.439939e-003
9.439941e-003
9.439942e-003
9.439943e-003
9.439943e-003
9.439943e-003
9.439942e-003
9.439941e-003
9.439939e-003
9.439937e-003
9.439935e-003
9.439933e-003
9.439931e-003
9.439929e-003
9.439927e-003
9.439925e-003
9.439924e-003
9.439923e-003
9.439922e-003
9.439922e-003
9.439921e-003
9.439921e-003
9.439921e-003
9.439920e-003
9.439920e-003
9.439920e-003
9.439920e-003
9.439920e-003
9.439920e-003
9.439920e-003
9.439920e-003
9.439920e-003
9.439920e-003
9.439920e-003
9.439920e-003
9.439920e-003
9.439920e-003
9.439920e-003
9.439920e-003
9.439921e-003
9.439920e-003
9.439919e-003
9.439919e-003
9.439920e-003
9.439920e-003
9.439920e-003
9.439920e-003
9.439920e-003
9.439920e-003
9.439920e-003
9.439920e-003
9.439920e-003
9.439920e-003
9.439920e-003
9.439921e-003
9.439921e-003
9.439921e-003
9.439922e-003
9.439922e-003
9.439924e-003
9.439925e-003
9.439927e-003
9.439929e-003
9.439931e-003
9.439934e-003
9.439937e-003
9.439939e-003
9.439942e-003
9.439944e-003
9.439946e-003
9.439947e-003
9.439947e-003
9.439946e-003
9.439945e-003
9.439942e-003
9.439938e-003
9.439933e-003
9.439927e-003
9.439921e-003
9.439913e-003
9.439905e-003
9.439897e-003
9.439888e-003
9.439879e-003
9.439871e-003
9.439863e-003
9.439856e-003
9.439849e-003
9.439844e-003
9.439840e-003
9.439837e-003
9.439836e-003
9.439837e-003
9.439839e-003
9.439843e-003
9.439849e-003
9.439856e-003
9.439865e-003
9.439874e-003
9.439884e-003
9.439894e-003
9.439904e-003
9.439913e-003
9.439921e-003
9.439928e-003
9.439934e-003
9.439938e-003
9.439941e-003
9.439942e-003
9.439942e-003
9.439941e-003
9.439939e-003
9.439937e-003
9.439935e-003
9.439932e-003
9.439930e-003
9.439927e-003
9.439926e-003
9.439924e-003
9.439923e-003
9.439922e-003
9.439921e-003
9.439921e-003
9.439920e-003
9.439920e-003
9.439920e-003
9.439920e-003
9.439920e-003
9.439920e-003
9.439920e-003
9.439920e-003
9.439920e-003
9.439920e-003
9.439920e-003
9.439920e-003
9.439920e-003
9.439920e-003
9.439920e-003
9.439920e-003
9.439920e-003
9.439920e-003
9.439920e-003
9.439920e-003
9.439920e-003
9.439921e-003
9.439920e-003
9.439920e-003
9.439919e-003
9.439919e-003
9.439920e-003
9.439920e-003
9.439921e-003
9.439921e-003
9.439921e-003
9.439921e-003
9.439922e-003
9.439922e-003
9.439923e-003
9.439925e-003
9.439927e-003
9.439929e-003
9.439932e-003
9.439935e-003
9.439938e-003
9.439942e-003
9.439944e-003
9.439947e-003
9.439948e-003
9.439947e-003
9.439945e-003
9.439941e-003
9.439934e-003
9.439924e-003
9.439911e-003
9.439895e-003
9.439877e-003
9.439856e-003
9.439832e-003
9.439807e-003
9.439780e-003
9.439751e-003
9.439723e-003
9.439694e-003
9.439666e-003
9.439640e-003
9.439615e-003
9.439592e-003
9.439573e-003
9.439557e-003
9.439546e-003
9.439539e-003
9.439537e-003
9.439540e-003
9.439548e-003
9.439562e-003
9.439580e-003
9.439604e-003
9.439631e-003
9.439662e-003
9.439694e-003
9.439728e-003
9.439762e-003
9.439796e-003
9.439827e-003
9.439855e-003
9.439879e-003
9.439899e-003
9.439915e-003
9.439927e-003
9.439935e-003
9.439940e-003
9.439942e-003
9.439942e-003
9.439941e-003
9.439938e-003
9.439935e-003
9.439933e-003
9.439930e-003
9.439927e-003
9.439925e-003
9.439923e-003
9.439922e-003
9.439921e-003
9.439921e-003
9.439921e-003
9.439921e-003
9.439921e-003
9.439921e-003
9.439920e-003
9.439920e-003
9.439920e-003
9.439920e-003
9.439920e-003
9.439920e-003
9.439920e-003
9.439920e-003
9.439920e-003
9.439920e-003
9.439920e-003
9.439919e-003
9.439920e-003
9.439920e-003
9.439920e-003
9.439921e-003
9.439921e-003
9.439920e-003
9.439920e-003
9.439919e-003
9.439919e-003
9.439920e-003
9.439921e-003
9.439921e-003
9.439921e-003
9.439921e-003
9.439922e-003
9.439923e-003
9.439925e-003
9.439927e-003
9.439929e-003
9.439932e-003
9.439935e-003
9.439939e-003
9.439943e-003
9.439946e-003
9.439948e-003
9.439948e-003
9.439945e-003
9.439939e-003
9.439928e-003
9.439912e-003
9.439889e-003
9.439859e-003
9.439821e-003
9.439776e-003
9.439723e-003
9.439664e-003
9.439598e-003
9.439527e-003
9.439452e-003
9.439374e-003
9.439294e-003
9.439214e-003
9.439136e-003
9.439060e-003
9.438988e-003
9.438922e-003
9.438863e-003
9.438812e-003
9.438771e-003
9.438742e-003
9.438724e-003
9.438720e-003
9.438729e-003
9.438753e-003
9.438790e-003
9.438841e-003
9.438904e-003
9.438979e-003
9.439063e-003
9.439153e-003
9.439248e-003
9.439345e-003
9.439440e-003
9.439531e-003
9.439615e-003
9.439690e-003
9.439756e-003
9.439811e-003
9.439855e-003
9.439888e-003
9.439912e-003
9.439928e-003
9.439937e-003
9.439941e-003
9.439942e-003
9.439941e-003
9.439938e-003
9.439935e-003
9.439932e-003
9.439929e-003
9.439926e-003
9.439925e-003
9.439923e-003
9.439922e-003
9.439921e-003
9.439921e-003
9.439921e-003
9.439921e-003
9.439920e-003
9.439920e-003
9.439920e-003
9.439920e-003
9.439920e-003
9.439920e-003
9.439920e-003
9.439920e-003
9.439920e-003
9.439920e-003
9.439920e-003
9.439919e-003
9.439920e-003
9.439920e-003
9.439920e-003
9.439920e-003
9.439920e-003
9.439920e-003
9.439920e-003
9.439920e-003
9.439920e-003
9.439920e-003
9.439921e-003
9.439921e-003
9.439921e-003
9.439922e-003
9.439924e-003
9.439926e-003
9.439929e-003
9.439932e-003
9.439936e-003
9.439940e-003
9.439944e-003
9.439947e-003
9.439949e-003
9.439948e-003
9.439943e-003
9.439932e-003
9.439912e-003
9.439882e-003
9.439838e-003
9.439780e-003
9.439705e-003
9.439613e-003
9.439502e-003
9.439373e-003
9.439226e-003
9.439065e-003
9.438889e-003
9.438703e-003
9.438508e-003
9.438308e-003
9.438106e-003
9.437906e-003
9.437711e-003
9.437523e-003
9.437348e-003
9.437187e-003
9.437044e-003
9.436922e-003
9.436825e-003
9.436755e-003
9.436715e-003
9.436706e-003
9.436731e-003
9.436789e-003
9.436881e-003
9.437006e-003
9.437162e-003
9.437346e-003
9.437554e-003
9.437780e-003
9.438018e-003
9.438262e-003
9.438505e-003
9.438741e-003
9.438962e-003
9.439164e-003
9.439343e-003
9.439497e-003
9.439624e-003
9.439725e-003
9.439803e-003
9.439859e-003
9.439897e-003
9.439921e-003
9.439935e-003
9.439941e-003
9.439943e-003
9.439941e-003
9.439938e-003
9.439934e-003
9.439931e-003
9.439928e-003
9.439926e-003
9.439923e-003
9.439922e-003
9.439921e-003
9.439921e-003
9.439920e-003
9.439920e-003
9.439920e-003
9.439920e-003
9.439920e-003
9.439920e-003
9.439920e-003
9.439920e-003
9.439920e-003
9.439920e-003
9.439920e-003
9.439920e-003
9.439920e-003
9.439920e-003
9.439921e-003
9.439920e-003
9.439920e-003
9.439919e-003
9.439919e-003
9.439920e-003
9.439921e-003
9.439921e-003
9.439921e-003
9.439921e-003
9.439922e-003
9.439923e-003
9.439924e-003
9.439927e-003
9.439930e-003
9.439934e-003
9.439939e-003
9.439943e-003
9.439948e-003
9.439950e-003
9.439950e-003
9.439943e-003
9.439928e-003
9.439900e-003
9.439854e-003
9.439785e-003
9.439689e-003
9.439561e-003
9.439396e-003
9.439191e-003
9.438945e-003
9.438657e-003
9.438329e-003
9.437963e-003
9.437564e-003
9.437137e-003
9.436688e-003
9.436225e-003
9.435753e-003
9.435282e-003
9.434817e-003
9.434367e-003
9.433938e-003
9.433538e-003
9.433173e-003
9.432852e-003
9.432579e-003
9.432363e-003
9.432208e-003
9.432119e-003
9.432102e-003
9.432160e-003
9.432293e-003
9.432504e-003
9.432789e-003
9.433146e-003
9.433567e-003
9.434044e-003
9.434566e-003
9.435120e-003
9.435692e-003
9.436265e-003
9.436826e-003
9.437359e-003
9.437853e-003
9.438296e-003
9.438683e-003
9.439010e-003
9.439277e-003
9.439487e-003
9.439646e-003
9.439761e-003
9.439840e-003
9.439891e-003
9.439921e-003
9.439936e-003
9.439942e-003
9.439943e-003
9.439940e-003
9.439937e-003
9.439933e-003
9.439929e-003
9.439926e-003
9.439924e-003
9.439922e-003
9.439921e-003
9.439921e-003
9.439920e-003
9.439921e-003
9.439921e-003
9.439920e-003
9.439920e-003
9.439920e-003
9.439920e-003
9.439920e-003
9.439920e-003
9.439920e-003
9.439920e-003
9.439920e-003
9.439920e-003
9.439921e-003
9.439920e-003
9.439920e-003
9.439919e-003
9.439920e-003
9.439920e-003
9.439921e-003
9.439921e-003
9.439921e-003
9.439922e-003
9.439923e-003
9.439926e-003
9.439929e-003
9.439932e-003
9.439936e-003
9.439941e-003
9.439947e-003
9.439951e-003
9.439951e-003
9.439946e-003
9.439929e-003
9.439896e-003
9.439838e-003
9.439747e-003
9.439611e-003
9.439420e-003
9.439164e-003
9.438831e-003
9.438415e-003
9.437911e-003
9.437315e-003
9.436629e-003
9.435858e-003
9.435010e-003
9.434096e-003
9.433129e-003
9.432123e-003
9.431093e-003
9.430055e-003
9.429024e-003
9.428017e-003
9.427047e-003
9.426129e-003
9.425278e-003
9.424507e-003
9.423830e-003
9.423259e-003
9.422807e-003
9.422486e-003
9.422306e-003
9.422274e-003
9.422400e-003
9.422686e-003
9.423133e-003
9.423740e-003
9.424499e-003
9.425398e-003
9.426422e-003
9.427548e-003
9.428751e-003
9.430001e-003
9.431266e-003
9.432514e-003
9.433713e-003
9.434834e-003
9.435854e-003
9.436756e-003
9.437529e-003
9.438172e-003
9.438689e-003
9.439089e-003
9.439388e-003
9.439601e-003
9.439747e-003
9.439840e-003
9.439896e-003
9.439926e-003
9.439939e-003
9.439943e-003
9.439942e-003
9.439938e-003
9.439934e-003
9.439930e-003
9.439927e-003
9.439925e-003
9.439923e-003
9.439921e-003
9.439921e-003
9.439921e-003
9.439921e-003
9.439920e-003
9.439920e-003
9.439920e-003
9.439920e-003
9.439920e-003
9.439920e-003
9.439920e-003
9.439920e-003
9.439920e-003
9.439920e-003
9.439920e-003
9.439920e-003
9.439920e-003
9.439920e-003
9.439920e-003
9.439920e-003
9.439921e-003
9.439921e-003
9.439922e-003
9.439924e-003
9.439926e-003
9.439930e-003
9.439934e-003
9.439939e-003
9.439944e-003
9.439949e-003
9.439953e-003
9.439950e-003
9.439937e-003
9.439904e-003
9.439843e-003
9.439738e-003
9.439573e-003
9.439327e-003
9.438978e-003
9.438504e-003
9.437882e-003
9.437094e-003
9.436126e-003
9.434970e-003
9.433625e-003
9.432099e-003
9.430406e-003
9.428567e-003
9.426608e-003
9.424559e-003
9.422449e-003
9.420313e-003
9.418181e-003
9.416084e-003
9.414052e-003
9.412113e-003
9.410293e-003
9.408618e-003
9.407111e-003
9.405796e-003
9.404695e-003
9.403829e-003
9.403219e-003
9.402882e-003
9.402833e-003
9.403087e-003
9.403651e-003
9.404529e-003
9.405719e-003
9.407210e-003
9.408985e-003
9.411017e-003
9.413268e-003
9.415692e-003
9.418235e-003
9.420835e-003
9.423428e-003
9.425948e-003
9.428334e-003
9.430532e-003
9.432501e-003
9.434214e-003
9.435659e-003
9.436839e-003
9.437770e-003
9.438479e-003
9.438999e-003
9.439365e-003
9.439610e-003
9.439766e-003
9.439859e-003
9.439910e-003
9.439934e-003
9.439942e-003
9.439943e-003
9.439939e-003
9.439935e-003
9.439931e-003
9.439928e-003
9.439925e-003
9.439923e-003
9.439921e-003
9.439921e-003
9.439921e-003
9.439920e-003
9.439920e-003
9.439920e-003
9.439920e-003
9.439920e-003
9.439920e-003
9.439920e-003
9.439920e-003
9.439920e-003
9.439920e-003
9.439919e-003
9.439920e-003
9.439921e-003
9.439921e-003
9.439921e-003
9.439921e-003
9.439921e-003
9.439922e-003
9.439924e-003
9.439927e-003
9.439930e-003
9.439935e-003
9.439941e-003
9.439947e-003
9.439952e-003
9.439954e-003
9.439947e-003
9.439922e-003
9.439868e-003
9.439767e-003
9.439594e-003
9.439319e-003
9.438906e-003
9.438312e-003
9.437491e-003
9.436400e-003
9.434997e-003
9.433250e-003
9.431137e-003
9.428653e-003
9.425807e-003
9.422627e-003
9.419150e-003
9.415431e-003
9.411526e-003
9.407502e-003
9.403421e-003
9.399346e-003
9.395338e-003
9.391451e-003
9.387735e-003
9.384236e-003
9.380994e-003
9.378046e-003
9.375427e-003
9.373168e-003
9.371300e-003
9.369849e-003
9.368843e-003
9.368307e-003
9.368264e-003
9.368732e-003
9.369729e-003
9.371263e-003
9.373338e-003
9.375948e-003
9.379074e-003
9.382683e-003
9.386728e-003
9.391141e-003
9.395838e-003
9.400717e-003
9.405662e-003
9.410552e-003
9.415261e-003
9.419675e-003
9.423697e-003
9.427254e-003
9.430303e-003
9.432834e-003
9.434866e-003
9.436440e-003
9.437616e-003
9.438462e-003
9.439045e-003
9.439429e-003
9.439670e-003
9.439813e-003
9.439890e-003
9.439927e-003
9.439941e-003
9.439943e-003
9.439941e-003
9.439936e-003
9.439932e-003
9.439928e-003
9.439925e-003
9.439923e-003
9.439921e-003
9.439921e-003
9.439920e-003
9.439920e-003
9.439920e-003
9.439920e-003
9.439920e-003
9.439920e-003
9.439920e-003
9.439920e-003
9.439920e-003
9.439920e-003
9.439919e-003
9.439920e-003
9.439921e-003
9.439921e-003
9.439921e-003
9.439921e-003
9.439922e-003
9.439924e-003
9.439927e-003
9.439931e-003
9.439936e-003
9.439942e-003
9.439949e-003
9.439954e-003
9.439954e-003
9.439941e-003
9.439904e-003
9.439822e-003
9.439669e-003
9.439405e-003
9.438981e-003
9.438331e-003
9.437382e-003
9.436048e-003
9.434244e-003
9.431888e-003
9.428912e-003
9.425269e-003
9.420944e-003
9.415952e-003
9.410346e-003
9.404207e-003
9.397642e-003
9.390774e-003
9.383735e-003
9.376654e-003
9.369654e-003
9.362845e-003
9.356323e-003
9.350168e-003
9.344445e-003
9.339207e-003
9.334491e-003
9.330326e-003
9.326734e-003
9.323729e-003
9.321322e-003
9.319524e-003
9.318344e-003
9.317793e-003
9.317886e-003
9.318639e-003
9.320074e-003
9.322215e-003
9.325087e-003
9.328717e-003
9.333123e-003
9.338313e-003
9.344272e-003
9.350960e-003
9.358298e-003
9.366167e-003
9.374403e-003
9.382808e-003
9.391155e-003
9.399211e-003
9.406755e-003
9.413596e-003
9.419600e-003
9.424690e-003
9.428858e-003
9.432148e-003
9.434652e-003
9.436486e-003
9.437778e-003
9.438650e-003
9.439213e-003
9.439559e-003
9.439760e-003
9.439867e-003
9.439919e-003
9.439939e-003
9.439944e-003
9.439941e-003
9.439936e-003
9.439932e-003
9.439928e-003
9.439925e-003
9.439923e-003
9.439921e-003
9.439921e-003
9.439921e-003
9.439921e-003
9.439920e-003
9.439920e-003
9.439920e-003
9.439920e-003
9.439920e-003
9.439921e-003
9.439920e-003
9.439919e-003
9.439920e-003
9.439920e-003
9.439921e-003
9.439921e-003
9.439922e-003
9.439924e-003
9.439927e-003
9.439932e-003
9.439937e-003
9.439943e-003
9.439950e-003
9.439955e-003
9.439954e-003
9.439935e-003
9.439882e-003
9.439769e-003
9.439554e-003
9.439180e-003
9.438565e-003
9.437607e-003
9.436178e-003
9.434133e-003
9.431316e-003
9.427578e-003
9.422790e-003
9.416866e-003
9.409779e-003
9.401574e-003
9.392372e-003
9.382363e-003
9.371791e-003
9.360932e-003
9.350072e-003
9.339482e-003
9.329406e-003
9.320043e-003
9.311544e-003
9.304013e-003
9.297509e-003
9.292049e-003
9.287612e-003
9.284147e-003
9.281575e-003
9.279800e-003
9.278711e-003
9.278193e-003
9.278130e-003
9.278417e-003
9.278962e-003
9.279698e-003
9.280588e-003
9.281636e-003
9.282891e-003
9.284451e-003
9.286464e-003
9.289120e-003
9.292636e-003
9.297234e-003
9.303107e-003
9.310387e-003
9.319114e-003
9.329206e-003
9.340452e-003
9.352512e-003
9.364954e-003
9.377290e-003
9.389040e-003
9.399790e-003
9.409233e-003
9.417198e-003
9.423650e-003
9.428672e-003
9.432425e-003
9.435120e-003
9.436977e-003
9.438204e-003
9.438978e-003
9.439443e-003
9.439707e-003
9.439845e-003
9.439911e-003
9.439937e-003
9.439943e-003
9.439941e-003
9.439936e-003
9.439932e-003
9.439928e-003
9.439925e-003
9.439922e-003
9.439921e-003
9.439921e-003
9.439921e-003
9.439920e-003
9.439920e-003
9.439920e-003
9.439920e-003
9.439920e-003
9.439921e-003
9.439920e-003
9.439920e-003
9.439920e-003
9.439920e-003
9.439921e-003
9.439922e-003
9.439924e-003
9.439927e-003
9.439932e-003
9.439938e-003
9.439945e-003
9.439952e-003
9.439957e-003
9.439954e-003
9.439930e-003
9.439863e-003
9.439717e-003
9.439436e-003
9.438937e-003
9.438100e-003
9.436767e-003
9.434738e-003
9.431774e-003
9.427616e-003
9.422006e-003
9.414727e-003
9.405644e-003
9.394748e-003
9.382192e-003
9.368304e-003
9.353573e-003
9.338616e-003
9.324116e-003
9.310759e-003
9.299166e-003
9.289849e-003
9.283174e-003
9.279351e-003
9.278440e-003
9.280365e-003
9.284930e-003
9.291840e-003
9.300714e-003
9.311100e-003
9.322489e-003
9.334327e-003
9.346041e-003
9.357045e-003
9.366774e-003
9.374692e-003
9.380330e-003
9.383300e-003
9.383336e-003
9.380322e-003
9.374327e-003
9.365631e-003
9.354746e-003
9.342407e-003
9.329550e-003
9.317251e-003
9.306638e-003
9.298782e-003
9.294573e-003
9.294598e-003
9.299057e-003
9.307709e-003
9.319898e-003
9.334637e-003
9.350750e-003
9.367044e-003
9.382473e-003
9.396254e-003
9.407923e-003
9.417325e-003
9.424552e-003
9.429865e-003
9.433603e-003
9.436123e-003
9.437748e-003
9.438749e-003
9.439336e-003
9.439661e-003
9.439829e-003
9.439906e-003
9.439936e-003
9.439943e-003
9.439941e-003
9.439937e-003
9.439932e-003
9.439928e-003
9.439924e-003
9.439922e-003
9.439921e-003
9.439921e-003
9.439920e-003
9.439920e-003
9.439920e-003
9.439920e-003
9.439920e-003
9.439920e-003
9.439920e-003
9.439921e-003
9.439921e-003
9.439921e-003
9.439922e-003
9.439924e-003
9.439927e-003
9.439931e-003
9.439937e-003
9.439944e-003
9.439953e-003
9.439958e-003
9.439954e-003
9.439926e-003
9.439848e-003
9.439674e-003
9.439330e-003
9.438704e-003
9.437631e-003
9.435881e-003
9.433156e-003
9.429092e-003
9.423279e-003
9.415309e-003
9.404848e-003
9.391730e-003
9.376068e-003
9.358345e-003
9.339470e-003
9.320758e-003
9.303847e-003
9.290540e-003
9.282614e-003
9.281636e-003
9.288803e-003
9.304849e-003
9.330013e-003
9.364064e-003
9.406365e-003
9.455945e-003
9.511582e-003
9.571850e-003
9.635167e-003
9.699819e-003
9.763994e-003
9.825807e-003
9.883341e-003
9.934687e-003
9.977992e-003
1.001151e-002
1.003367e-002
1.004314e-002
1.003892e-002
1.002046e-002
9.987744e-003
9.941411e-003
9.882832e-003
9.814152e-003
9.738259e-003
9.658673e-003
9.579338e-003
9.504331e-003
9.437489e-003
9.382026e-003
9.340159e-003
9.312844e-003
9.299663e-003
9.298931e-003
9.307997e-003
9.323700e-003
9.342870e-003
9.362761e-003
9.381331e-003
9.397331e-003
9.410236e-003
9.420064e-003
9.427173e-003
9.432076e-003
9.435305e-003
9.437338e-003
9.438558e-003
9.439256e-003
9.439632e-003
9.439820e-003
9.439905e-003
9.439936e-003
9.439944e-003
9.439941e-003
9.439936e-003
9.439931e-003
9.439927e-003
9.439924e-003
9.439922e-003
9.439921e-003
9.439920e-003
9.439920e-003
9.439920e-003
9.439920e-003
9.439920e-003
9.439919e-003
9.439920e-003
9.439921e-003
9.439922e-003
9.439922e-003
9.439924e-003
9.439926e-003
9.439931e-003
9.439936e-003
9.439944e-003
9.439952e-003
9.439959e-003
9.439955e-003
9.439926e-003
9.439841e-003
9.439646e-003
9.439251e-003
9.438513e-003
9.437214e-003
9.435043e-003
9.431583e-003
9.426304e-003
9.418603e-003
9.407872e-003
9.393646e-003
9.375802e-003
9.354819e-003
9.332030e-003
9.309802e-003
9.291554e-003
9.281574e-003
9.284628e-003
9.305439e-003
9.348133e-003
9.415765e-003
9.510015e-003
9.631076e-003
9.777738e-003
9.947594e-003
1.013733e-002
1.034299e-002
1.056023e-002
1.078443e-002
1.101080e-002
1.123442e-002
1.145028e-002
1.165331e-002
1.183844e-002
1.200069e-002
1.213521e-002
1.223744e-002
1.230320e-002
1.232886e-002
1.231155e-002
1.224941e-002
1.214188e-002
1.199003e-002
1.179678e-002
1.156720e-002
1.130847e-002
1.102982e-002
1.074215e-002
1.045736e-002
1.018751e-002
9.943722e-003
9.735079e-003
9.567585e-003
9.443495e-003
9.361170e-003
9.315545e-003
9.299154e-003
9.303477e-003
9.320285e-003
9.342687e-003
9.365687e-003
9.386247e-003
9.402970e-003
9.415620e-003
9.424629e-003
9.430714e-003
9.434628e-003
9.437029e-003
9.438434e-003
9.439214e-003
9.439622e-003
9.439820e-003