# vtk DataFile Version 3.0
vtk output
ASCII
DATASET STRUCTURED_POINTS
DIMENSIONS 100 100 1
SPACING 1 1 1
ORIGIN 0 0 0
POINT_DATA 10000
SCALARS SFBox_profile double
LOOKUP_TABLE default 
0.000000e+000
0.000000e+000
0.000000e+000
0.000000e+000
0.000000e+000
0.000000e+000
0.000000e+000
0.000000e+000
0.000000e+000
0.000000e+000
0.000000e+000
0.000000e+000
0.000000e+000
0.000000e+000
0.000000e+000
0.000000e+000
0.000000e+000
0.000000e+000
0.000000e+000
0.000000e+000
0.000000e+000
0.000000e+000
0.000000e+000
0.000000e+000
0.000000e+000
0.000000e+000
0.000000e+000
0.000000e+000
0.000000e+000
0.000000e+000
0.000000e+000
0.000000e+000
0.000000e+000
0.000000e+000
0.000000e+000
0.000000e+000
0.000000e+000
0.000000e+000
0.000000e+000
0.000000e+000
0.000000e+000
0.000000e+000
0.000000e+000
0.000000e+000
0.000000e+000
0.000000e+000
0.000000e+000
0.000000e+000
0.000000e+000
0.000000e+000
0.000000e+000
0.000000e+000
0.000000e+000
0.000000e+000
0.000000e+000
0.000000e+000
0.000000e+000
0.000000e+000
0.000000e+000
0.000000e+000
0.000000e+000
0.000000e+000
0.000000e+000
0.000000e+000
0.000000e+000
0.000000e+000
0.000000e+000
0.000000e+000
0.000000e+000
0.000000e+000
0.000000e+000
0.000000e+000
0.000000e+000
0.000000e+000
0.000000e+000
0.000000e+000
0.000000e+000
0.000000e+000
0.000000e+000
0.000000e+000
0.000000e+000
0.000000e+000
0.000000e+000
0.000000e+000
0.000000e+000
0.000000e+000
0.000000e+000
0.000000e+000
0.000000e+000
0.000000e+000
0.000000e+000
0.000000e+000
0.000000e+000
0.000000e+000
0.000000e+000
0.000000e+000
0.000000e+000
0.000000e+000
0.000000e+000
0.000000e+000
-1.960321e-009
-6.460927e-010
1.017265e-009
1.942016e-009
1.511928e-009
-2.807422e-011
-1.670402e-009
-2.273372e-009
-1.362935e-009
4.803196e-010
2.009054e-009
2.231254e-009
1.140519e-009
-3.580469e-010
-1.253684e-009
-1.237831e-009
-7.953488e-010
-5.615012e-010
-6.388330e-010
-5.687112e-010
6.093040e-011
1.065067e-009
1.778791e-009
1.710362e-009
1.015716e-009
2.937141e-010
-4.410802e-011
-1.313721e-010
-3.785096e-010
-9.346277e-010
-1.500528e-009
-1.668986e-009
-1.365722e-009
-8.920549e-010
-5.618993e-010
-3.765350e-010
-8.984280e-011
4.563124e-010
1.132162e-009
1.664309e-009
1.929504e-009
2.060916e-009
2.270238e-009
2.605144e-009
2.908106e-009
3.003316e-009
2.894506e-009
2.760170e-009
2.760186e-009
2.870859e-009
2.931150e-009
2.847130e-009
2.717910e-009
2.726798e-009
2.914431e-009
3.107185e-009
3.108130e-009
2.937517e-009
2.821924e-009
2.917610e-009
3.092503e-009
3.051659e-009
2.681224e-009
2.195090e-009
1.883310e-009
1.752185e-009
1.506320e-009
9.213772e-010
1.636964e-010
-3.511346e-010
-4.169352e-010
-2.660618e-010
-2.788528e-010
-5.098308e-010
-6.053855e-010
-2.330514e-010
4.723972e-010
9.799011e-010
8.917607e-010
3.422420e-010
-1.765301e-010
-3.524028e-010
-3.436823e-010
-5.074735e-010
-8.943636e-010
-1.101026e-009
-6.741310e-010
3.499220e-010
1.347157e-009
1.586879e-009
8.555142e-010
-3.452729e-010
-1.191517e-009
-1.165361e-009
-4.009252e-010
4.839811e-010
8.764459e-010
5.829700e-010
-9.794241e-011
-6.337450e-010
5.821045e-011
-6.611552e-011
-1.476180e-010
-7.234576e-011
9.982479e-011
1.989166e-010
1.242643e-010
-4.707365e-011
-1.407111e-010
-7.575523e-011
3.916804e-011
2.341820e-011
-1.552884e-010
-3.020519e-010
-1.748928e-010
2.393677e-010
6.515166e-010
7.112760e-010
3.403708e-010
-1.878135e-010
-5.160669e-010
-5.416322e-010
-4.673724e-010
-5.227038e-010
-6.771916e-010
-6.722034e-010
-3.286540e-010
2.273276e-010
6.801660e-010
8.465745e-010
8.379528e-010
8.931930e-010
1.091480e-009
1.275220e-009
1.251180e-009
1.017382e-009
7.544588e-010
6.093557e-010
5.337697e-010
3.577923e-010
-2.277801e-013
-4.332619e-010
-7.615370e-010
-9.244570e-010
-1.032638e-009
-1.230284e-009
-1.529097e-009
-1.798995e-009
-1.919965e-009
-1.918190e-009
-1.929471e-009
-2.032984e-009
-2.152571e-009
-2.148314e-009
-1.994010e-009
-1.822437e-009
-1.769641e-009
-1.798282e-009
-1.723331e-009
-1.426799e-009
-1.007242e-009
-6.716512e-010
-4.885248e-010
-3.040189e-010
6.434439e-011
5.854437e-010
1.025572e-009
1.210377e-009
1.221208e-009
1.280005e-009
1.456830e-009
1.558563e-009
1.344041e-009
8.155019e-010
2.398864e-010
-1.261946e-010
-2.847826e-010
-4.337886e-010
-6.809607e-010
-8.812974e-010
-7.916273e-010
-3.636144e-010
1.599489e-010
4.548103e-010
4.047586e-010
1.737178e-010
1.075323e-011
1.202236e-011
7.587932e-011
5.935152e-011
-5.710944e-011
-1.641753e-010
-1.552660e-010
-3.818000e-011
8.349376e-011
1.195426e-010
6.954078e-011
-1.253842e-012
-4.015446e-011
-4.761459e-011
2.168650e-009
6.209167e-010
-1.239503e-009
-2.122284e-009
-1.466713e-009
2.395901e-010
1.815693e-009
2.199872e-009
1.169353e-009
-5.472800e-010
-1.838606e-009
-2.005990e-009
-1.165753e-009
5.409072e-012
8.775287e-010
1.266126e-009
1.338313e-009
1.247352e-009
9.348879e-010
2.814485e-010
-6.274839e-010
-1.460742e-009
-1.881774e-009
-1.802090e-009
-1.385574e-009
-8.385845e-010
-2.430206e-010
4.065607e-010
1.063961e-009
1.593778e-009
1.879157e-009
1.925521e-009
1.826845e-009
1.645142e-009
1.358411e-009
9.312845e-010
4.007465e-010
-1.414626e-010
-6.435398e-010
-1.135679e-009
-1.661452e-009
-2.188926e-009
-2.621316e-009
-2.899240e-009
-3.067205e-009
-3.219666e-009
-3.392545e-009
-3.533490e-009
-3.583679e-009
-3.564026e-009
-3.556072e-009
-3.604342e-009
-3.667237e-009
-3.679541e-009
-3.644087e-009
-3.631215e-009
-3.683734e-009
-3.749117e-009
-3.728049e-009
-3.579919e-009
-3.353115e-009
-3.105537e-009
-2.821435e-009
-2.431716e-009
-1.907452e-009
-1.302960e-009
-6.969896e-010
-1.176782e-010
4.460217e-010
9.672746e-010
1.352615e-009
1.509770e-009
1.426080e-009
1.155471e-009
7.397181e-010
1.855695e-010
-4.565533e-010
-1.020098e-009
-1.283684e-009
-1.134790e-009
-6.627669e-010
-7.430030e-011
4.699590e-010
9.082570e-010
1.177264e-009
1.124757e-009
6.072157e-010
-2.846607e-010
-1.132301e-009
-1.408918e-009
-8.846463e-010
1.350972e-010
9.838541e-010
1.113271e-009
4.970847e-010
-3.638666e-010
-8.327677e-010
-6.111797e-010
6.295077e-011
6.248933e-010
2.240233e-009
7.984035e-010
-1.052647e-009
-2.130830e-009
-1.740439e-009
-1.222961e-010
1.633552e-009
2.292957e-009
1.380320e-009
-4.263729e-010
-1.802158e-009
-1.825772e-009
-6.895915e-010
5.577691e-010
9.861060e-010
5.553990e-010
-1.634325e-011
-8.051659e-011
3.024740e-010
5.394617e-010
2.312625e-010
-3.763635e-010
-6.852212e-010
-4.070216e-010
1.531874e-010
4.666910e-010
3.404543e-010
4.356200e-011
-7.601152e-011
9.149312e-012
3.391551e-011
-2.021288e-010
-6.036371e-010
-9.182657e-010
-1.029146e-009
-1.043864e-009
-1.116233e-009
-1.255155e-009
-1.341322e-009
-1.287670e-009
-1.125743e-009
-9.355070e-010
-7.410414e-010
-5.061114e-010
-2.087836e-010
1.184284e-010
4.240225e-010
6.832978e-010
8.960705e-010
1.060992e-009
1.174745e-009
1.246231e-009
1.284339e-009
1.268906e-009
1.159898e-009
9.505917e-010
6.911084e-010
4.320866e-010
1.544241e-010
-2.073046e-010
-6.590037e-010
-1.100824e-009
-1.426059e-009
-1.652323e-009
-1.899562e-009
-2.214456e-009
-2.462426e-009
-2.455083e-009
-2.181427e-009
-1.845455e-009
-1.630098e-009
-1.464963e-009
-1.108245e-009
-4.770471e-010
1.751290e-010
4.867172e-010
3.862625e-010
1.874899e-010
2.418101e-010
5.376928e-010
7.218355e-010
5.327362e-010
1.424980e-010
-1.174612e-011
2.592003e-010
6.210184e-010
5.227465e-010
-2.050397e-010
-1.088937e-009
-1.388571e-009
-7.675177e-010
3.755465e-010
1.219122e-009
1.181914e-009
3.592311e-010
-5.988731e-010
-1.011171e-009
-6.499744e-010
1.503461e-010
7.773177e-010
-6.301055e-011
2.092005e-010
3.342449e-010
6.509365e-011
-3.748450e-010
-5.293265e-010
-2.183280e-010
2.442743e-010
3.845010e-010
1.070590e-010
-1.690213e-010
2.129966e-011
5.973410e-010
9.026018e-010
3.578373e-010
-8.530283e-010
-1.830481e-009
-1.766606e-009
-7.067056e-010
5.294808e-010
1.175891e-009
1.207183e-009
1.177082e-009
1.459084e-009
1.783773e-009
1.576443e-009
6.579709e-010
-5.175060e-010
-1.334500e-009
-1.620911e-009
-1.707505e-009
-1.944482e-009
-2.286488e-009
-2.400805e-009
-2.096873e-009
-1.537225e-009
-1.019684e-009
-6.435368e-010
-2.544622e-010
3.204413e-010
1.063995e-009
1.809694e-009
2.431491e-009
2.944922e-009
3.439052e-009
3.957169e-009
4.456857e-009
4.858940e-009
5.116899e-009
5.253343e-009
5.344587e-009
5.455909e-009
5.571035e-009
5.595436e-009
5.458339e-009
5.209881e-009
4.976218e-009
4.794721e-009
4.531443e-009
4.019568e-009
3.276628e-009
2.515501e-009
1.895280e-009
1.309282e-009
5.073121e-010
-5.602927e-010
-1.606700e-009
-2.290008e-009
-2.592452e-009
-2.813162e-009
-3.147803e-009
-3.366359e-009
-3.023175e-009
-1.990498e-009
-6.803985e-010
3.365474e-010
8.848940e-010
1.259012e-009
1.736154e-009
2.126465e-009
1.927740e-009
9.368835e-010
-3.858300e-010
-1.246387e-009
-1.217560e-009
-5.839928e-010
-1.835074e-012
1.342442e-010
-3.113780e-011
-1.030398e-010
9.243704e-011
3.589506e-010
3.964687e-010
1.382746e-010
-1.989256e-010
-3.540439e-010
-2.591971e-010
-4.541449e-011
1.292872e-010
2.084198e-010
-2.786504e-009
-7.288779e-010
1.593124e-009
2.477969e-009
1.478690e-009
-4.531173e-010
-1.851106e-009
-1.872089e-009
-7.819413e-010
4.933914e-010
1.215787e-009
1.282382e-009
9.841046e-010
5.136220e-010
-1.662287e-010
-1.011027e-009
-1.639862e-009
-1.568856e-009
-7.272816e-010
3.685450e-010
1.058642e-009
1.145184e-009
9.848688e-010
9.793095e-010
1.080374e-009
8.948209e-010
2.376493e-010
-5.573019e-010
-9.533470e-010
-7.727562e-010
-3.412559e-010
-7.371408e-011
-1.888884e-011
1.169530e-010
5.550317e-010
1.168308e-009
1.648663e-009
1.867046e-009
1.986378e-009
2.232678e-009
2.631510e-009
3.004925e-009
3.186090e-009
3.185186e-009
3.148204e-009
3.193788e-009
3.308185e-009
3.380966e-009
3.326317e-009
3.175627e-009
3.057490e-009
3.074016e-009
3.188735e-009
3.258486e-009
3.201765e-009
3.117277e-009
3.184044e-009
3.429464e-009
3.651957e-009
3.633670e-009
3.408912e-009
3.237446e-009
3.275504e-009
3.342950e-009
3.108026e-009
2.493660e-009
1.796511e-009
1.340356e-009
1.079073e-009
6.604795e-010
-9.992121e-011
-9.165080e-010
-1.297616e-009
-1.077583e-009
-5.795710e-010
-2.193786e-010
-4.202040e-011
2.454414e-010
8.009808e-010
1.331484e-009
1.336854e-009
6.444462e-010
-3.713798e-010
-1.113461e-009
-1.254295e-009
-8.948216e-010
-3.241537e-010
2.553984e-010
7.390323e-010
9.726943e-010
7.599708e-010
9.460745e-011
-6.666232e-010
-9.853434e-010
-5.922973e-010
2.201062e-010
7.950849e-010
6.667302e-010
-2.475920e-011
-6.505401e-010
-3.299421e-009
-1.168198e-009
1.438299e-009
2.789067e-009
2.133961e-009
1.275476e-010
-1.701734e-009
-2.106738e-009
-1.033253e-009
4.543336e-010
1.157798e-009
7.487533e-010
-1.026426e-010
-5.057571e-010
-1.969115e-010
3.634548e-010
6.112748e-010
4.534796e-010
2.043796e-010
9.019747e-011
-1.447009e-011
-3.331733e-010
-8.090448e-010
-1.113677e-009
-1.017549e-009
-6.285882e-010
-2.023214e-010
2.030213e-010
7.666107e-010
1.601316e-009
2.521769e-009
3.196758e-009
3.494314e-009
3.587515e-009
3.705233e-009
3.853721e-009
3.843445e-009
3.555943e-009
3.103872e-009
2.701434e-009
2.424235e-009
2.146370e-009
1.707792e-009
1.104370e-009
4.963852e-010
4.711956e-011
-2.283930e-010
-4.565719e-010
-7.585193e-010
-1.115239e-009
-1.384361e-009
-1.456987e-009
-1.387115e-009
-1.335474e-009
-1.371504e-009
-1.364339e-009
-1.118635e-009
-6.164047e-010
-6.373623e-011
3.449467e-010
6.699490e-010
1.158748e-009
1.925957e-009
2.776125e-009
3.407913e-009
3.755324e-009
4.030922e-009
4.406568e-009
4.736844e-009
4.686399e-009
4.109817e-009
3.211250e-009
2.296937e-009
1.451824e-009
5.498417e-010
-4.425699e-010
-1.290012e-009
-1.680429e-009
-1.543721e-009
-1.102637e-009
-6.211342e-010
-1.921709e-010
1.891583e-010
4.353989e-010
3.876721e-010
6.272097e-011
-2.227515e-010
-1.065175e-010
4.021810e-010
8.292090e-010
6.517792e-010
-1.523247e-010
-9.923732e-010
-1.149580e-009
-4.273154e-010
6.379317e-010
1.205318e-009
8.243933e-010
-1.957903e-010
-1.039611e-009
-7.394113e-010
-5.785552e-010
-1.125288e-010
5.478291e-010
9.326841e-010
6.650256e-010
-4.735687e-011
-5.327316e-010
-3.594392e-010
1.445069e-010
2.118596e-010
-4.732910e-010
-1.298375e-009
-1.267883e-009
-5.777580e-011
1.553190e-009
2.373833e-009
1.899159e-009
6.760437e-010
-3.719250e-010
-8.445754e-010
-1.031814e-009
-1.313025e-009
-1.604781e-009
-1.487544e-009
-7.579679e-010
3.122403e-010
1.282322e-009
1.977221e-009
2.530744e-009
3.069757e-009
3.498207e-009
3.635721e-009
3.476330e-009
3.210458e-009
3.000807e-009
2.818962e-009
2.538517e-009
2.135102e-009
1.726393e-009
1.415793e-009
1.155882e-009
8.084099e-010
3.237707e-010
-1.808943e-010
-5.390628e-010
-7.113742e-010
-8.196629e-010
-1.001831e-009
-1.254865e-009
-1.446828e-009
-1.483512e-009
-1.430129e-009
-1.434424e-009
-1.536536e-009
-1.601561e-009
-1.472224e-009
-1.161866e-009
-8.415776e-010
-6.266236e-010
-4.295237e-010
-7.177462e-011
4.868024e-010
1.099305e-009
1.624491e-009
2.098832e-009
2.654189e-009
3.295206e-009
3.843415e-009
4.123538e-009
4.129933e-009
3.942683e-009
3.527190e-009
2.733808e-009
1.538203e-009
1.996978e-010
-9.125343e-010
-1.631890e-009
-2.040029e-009
-2.185030e-009
-1.878127e-009
-9.170893e-010
4.811287e-010
1.613728e-009
1.807694e-009
1.039224e-009
-1.412484e-011
-5.819660e-010
-4.598963e-010
-7.186398e-011
6.012940e-011
-1.592024e-010
-3.920435e-010
-2.964743e-010
1.103806e-010
4.981994e-010
5.557586e-010
2.463911e-010
-2.095788e-010
-5.266354e-010
2.957211e-009
6.539566e-010
-1.739301e-009
-2.349661e-009
-1.074394e-009
6.799492e-010
1.483211e-009
1.079240e-009
2.557891e-010
-2.234947e-010
-3.547344e-010
-5.733024e-010
-9.395045e-010
-9.305833e-010
-1.291421e-010
1.065404e-009
1.666539e-009
1.112182e-009
-8.957161e-011
-8.579437e-010
-6.401887e-010
1.165517e-010
5.979608e-010
5.568713e-010
4.710019e-010
8.398945e-010
1.540795e-009
1.993724e-009
1.852917e-009
1.356671e-009
9.754622e-010
8.666720e-010
7.947583e-010
5.250536e-010
1.378869e-010
-1.025048e-010
-9.200470e-011
1.023117e-011
7.155556e-012
-1.106214e-010
-2.147432e-010
-2.534302e-010
-3.271336e-010
-5.397356e-010
-8.422032e-010
-1.080191e-009
-1.178613e-009
-1.221030e-009
-1.326811e-009
-1.492068e-009
-1.599783e-009
-1.577998e-009
-1.492224e-009
-1.450064e-009
-1.449189e-009
-1.377266e-009
-1.167465e-009
-8.988256e-010
-7.018317e-010
-5.972311e-010
-4.925704e-010
-3.410472e-010
-2.302128e-010
-2.581369e-010
-3.649792e-010
-3.768705e-010
-2.288582e-010
-5.477363e-011
1.408404e-011
8.194733e-011
3.977605e-010
1.002934e-009
1.578063e-009
1.747473e-009
1.501231e-009
1.187389e-009
1.047682e-009
8.843651e-010
3.294432e-010
-5.740808e-010
-1.223819e-009
-1.015276e-009
-1.760155e-011
1.011479e-009
1.318422e-009
8.120041e-010
2.141040e-011
-5.017323e-010
-6.307169e-010
-5.496366e-010
-3.748998e-010
-4.984896e-011
4.035288e-010
7.016868e-010
5.226658e-010
-8.357638e-011
-6.226342e-010
-5.962984e-010
-2.308601e-011
5.401966e-010
4.603375e-009
1.470150e-009
-2.038133e-009
-3.396372e-009
-2.107417e-009
2.565402e-010
1.644732e-009
1.282702e-009
6.985590e-011
-5.753400e-010
-1.521494e-010
6.281219e-010
8.187998e-010
2.781839e-010
-3.572097e-010
-5.670741e-010
-5.257010e-010
-6.857846e-010
-9.962548e-010
-8.363423e-010
2.047303e-010
1.695606e-009
2.719086e-009
2.822146e-009
2.419920e-009
2.196448e-009
2.274100e-009
2.155812e-009
1.438246e-009
3.587699e-010
-4.813953e-010
-8.169325e-010
-9.649229e-010
-1.376976e-009
-2.114087e-009
-2.872851e-009
-3.442910e-009
-3.974318e-009
-4.758376e-009
-5.864280e-009
-7.097198e-009
-8.273925e-009
-9.420246e-009
-1.065798e-008
-1.198111e-008
-1.323189e-008
-1.428080e-008
-1.514440e-008
-1.589316e-008
-1.650484e-008
-1.687594e-008
-1.695825e-008
-1.680742e-008
-1.647109e-008
-1.589259e-008
-1.499059e-008
-1.380979e-008
-1.251184e-008
-1.119541e-008
-9.800761e-009
-8.261682e-009
-6.709332e-009
-5.414859e-009
-4.497546e-009
-3.783747e-009
-3.047195e-009
-2.341426e-009
-1.954902e-009
-1.990081e-009
-2.106491e-009
-1.819874e-009
-1.036750e-009
-1.492828e-010
4.602103e-010
8.862416e-010
1.520335e-009
2.427283e-009
3.083634e-009
2.868746e-009
1.761627e-009
4.198365e-010
-4.481930e-010
-6.827785e-010
-6.075680e-010
-5.052956e-010
-3.427674e-010
-2.581399e-011
2.715740e-010
2.329877e-010
-1.485472e-010
-4.235809e-010
-1.425790e-010
5.603377e-010
9.792468e-010
5.377493e-010
-5.324281e-010
-1.300292e-009
-9.992886e-010
1.932171e-010
1.258435e-009
2.642724e-009
1.132485e-009
-7.481653e-010
-1.771183e-009
-1.408568e-009
-2.209710e-010
6.124222e-010
3.794881e-010
-4.580599e-010
-7.368852e-010
1.462157e-010
1.510640e-009
2.040786e-009
1.140559e-009
-4.792516e-010
-1.583459e-009
-1.621465e-009
-1.023889e-009
-4.242793e-010
1.021925e-010
8.775781e-010
1.910750e-009
2.686365e-009
2.752572e-009
2.299264e-009
1.933147e-009
1.932452e-009
1.943386e-009
1.479941e-009
5.404196e-010
-4.584841e-010
-1.305772e-009
-2.343416e-009
-4.104222e-009
-6.732796e-009
-9.912679e-009
-1.332564e-008
-1.701134e-008
-2.120053e-008
-2.590760e-008
-3.083004e-008
-3.564103e-008
-4.025646e-008
-4.475580e-008
-4.912442e-008
-5.317847e-008
-5.672849e-008
-5.971562e-008
-6.214660e-008
-6.396873e-008
-6.508597e-008
-6.546756e-008
-6.514902e-008
-6.410909e-008
-6.223253e-008
-5.946320e-008
-5.594512e-008
-5.191596e-008
-4.746162e-008
-4.248445e-008
-3.698124e-008
-3.127390e-008
-2.583751e-008
-2.089581e-008
-1.631252e-008
-1.195580e-008
-8.067910e-009
-5.112082e-009
-3.240134e-009
-2.061942e-009
-1.048967e-009
-8.285083e-011
5.490818e-010
6.969845e-010
7.027236e-010
1.073930e-009
1.875567e-009
2.612670e-009
2.752001e-009
2.233845e-009
1.391785e-009
4.967306e-010
-4.148179e-010
-1.247027e-009
-1.612668e-009
-1.135492e-009
4.374310e-012
1.017399e-009
1.163145e-009
4.653110e-010
-3.157137e-010
-4.559938e-010
2.712427e-011
4.642285e-010
2.812458e-010
-3.971252e-010
-8.857014e-010
-6.361992e-010
2.145242e-010
9.581267e-010
-1.341410e-009
-4.886713e-012
1.122310e-009
1.005197e-009
4.855780e-011
-6.339822e-010
-5.578114e-010
-2.163759e-010
-1.997136e-010
-3.518685e-010
-6.794279e-011
7.203610e-010
1.245724e-009
7.813358e-010
-3.751370e-010
-1.091554e-009
-6.139482e-010
6.258528e-010
1.543410e-009
1.587332e-009
1.174741e-009
9.949793e-010
1.175839e-009
1.314718e-009
1.154150e-009
9.030704e-010
8.114059e-010
6.539117e-010
-1.549883e-010
-2.002670e-009
-4.844251e-009
-8.561230e-009
-1.335937e-008
-1.964038e-008
-2.753477e-008
-3.673173e-008
-4.680841e-008
-5.759364e-008
-6.910496e-008
-8.120564e-008
-9.347757e-008
-1.054652e-007
-1.169419e-007
-1.278673e-007
-1.381484e-007
-1.475454e-007
-1.558029e-007
-1.627739e-007
-1.683739e-007
-1.724860e-007
-1.749871e-007
-1.758300e-007
-1.750058e-007
-1.724215e-007
-1.679145e-007
-1.614539e-007
-1.532652e-007
-1.436621e-007
-1.327772e-007
-1.205838e-007
-1.072330e-007
-9.326951e-008
-7.939018e-008
-6.601435e-008
-5.321770e-008
-4.111841e-008
-3.018242e-008
-2.099714e-008
-1.377475e-008
-8.230758e-009
-3.996687e-009
-1.014153e-009
6.072862e-010
1.045587e-009
8.819068e-010
6.933391e-010
6.545603e-010
6.487878e-010
6.653824e-010
8.725418e-010
1.256336e-009
1.404646e-009
8.867073e-010
-1.490890e-010
-9.464026e-010
-8.445192e-010
3.238003e-011
8.839774e-010
1.020581e-009
4.644447e-010
-2.171828e-010
-5.395971e-010
-4.657832e-010
-2.356816e-010
-2.574239e-011
1.372550e-010
2.346393e-010
1.954828e-010
1.651635e-011
-1.564724e-010
-4.041947e-009
-8.381785e-010
2.229809e-009
2.613317e-009
6.972354e-010
-1.117364e-009
-1.099928e-009
2.450212e-010
1.138056e-009
6.266445e-010
-5.692220e-010
-1.167773e-009
-8.235186e-010
-2.367156e-010
7.905560e-012
2.209530e-010
1.023871e-009
2.282422e-009
3.049791e-009
2.642884e-009
1.480537e-009
6.233963e-010
5.985415e-010
9.177688e-010
7.307847e-010
-3.446929e-010
-2.225443e-009
-5.013701e-009
-9.332060e-009
-1.593410e-008
-2.517146e-008
-3.698735e-008
-5.131810e-008
-6.828100e-008
-8.792604e-008
-1.099609e-007
-1.338411e-007
-1.590676e-007
-1.852782e-007
-2.120661e-007
-2.388499e-007
-2.650039e-007
-2.900630e-007
-3.137307e-007
-3.357177e-007
-3.556572e-007
-3.731801e-007
-3.879952e-007
-3.998549e-007
-4.085019e-007
-4.137105e-007
-4.153448e-007
-4.132998e-007
-4.073977e-007
-3.974435e-007
-3.834390e-007
-3.656827e-007
-3.445870e-007
-3.204469e-007
-2.935058e-007
-2.642722e-007
-2.336595e-007
-2.027156e-007
-1.722573e-007
-1.428574e-007
-1.151422e-007
-8.991552e-008
-6.787154e-008
-4.925601e-008
-3.393238e-008
-2.174766e-008
-1.267334e-008
-6.535113e-009
-2.767656e-009
-6.229359e-010
4.014520e-010
5.102354e-010
1.921827e-011
-3.954161e-010
-9.070490e-011
9.041141e-010
1.843838e-009
1.994837e-009
1.348303e-009
5.273886e-010
6.882118e-011
-3.569184e-011
-8.313546e-011
-1.687258e-010
-1.458059e-010
2.300245e-012
1.704018e-011
-2.681104e-010
-5.590014e-010
-3.459361e-010
4.215277e-010
1.081488e-009
8.763786e-010
-1.724745e-010
-1.157178e-009
-3.467051e-009
-6.926315e-010
1.912188e-009
2.064879e-009
1.488285e-010
-1.468400e-009
-9.844462e-010
1.027659e-009
2.343692e-009
1.490827e-009
-7.602589e-010
-2.330387e-009
-2.018508e-009
-4.962075e-010
7.889477e-010
1.269832e-009
1.525685e-009
2.128110e-009
2.760810e-009
2.724834e-009
1.998416e-009
1.322447e-009
1.148531e-009
8.039909e-010
-1.089735e-009
-5.536870e-009
-1.277457e-008
-2.291552e-008
-3.665008e-008
-5.508590e-008
-7.899602e-008
-1.084324e-007
-1.430607e-007
-1.826401e-007
-2.270232e-007
-2.757908e-007
-3.280720e-007
-3.827599e-007
-4.388019e-007
-4.952501e-007
-5.511457e-007
-6.054961e-007
-6.573857e-007
-7.060533e-007
-7.508507e-007
-7.911757e-007
-8.264644e-007
-8.561991e-007
-8.798864e-007
-8.970531e-007
-9.072962e-007
-9.103108e-007
-9.058249e-007
-8.935353e-007
-8.731987e-007
-8.448267e-007
-8.087514e-007
-7.654804e-007
-7.155705e-007
-6.597471e-007
-5.991404e-007
-5.353006e-007
-4.699290e-007
-4.046477e-007
-3.410458e-007
-2.807936e-007
-2.254740e-007
-1.762019e-007
-1.334745e-007
-9.743211e-008
-6.813502e-008
-4.543137e-008
-2.862086e-008
-1.651554e-008
-8.015491e-009
-2.554632e-009
1.659000e-010
8.261910e-010
6.270507e-010
6.416452e-010
1.130366e-009
1.648527e-009
1.779579e-009
1.575522e-009
1.264894e-009
8.073747e-010
2.344439e-011
-8.814343e-010
-1.251594e-009
-6.689033e-010
4.040827e-010
9.461864e-010
4.524346e-010
-4.596981e-010
-6.966251e-010
7.471644e-011
1.005280e-009
9.809066e-010
-1.191072e-010
-1.233224e-009
-6.298478e-010
-5.704932e-011
4.682303e-010
3.474607e-010
-3.965304e-010
-9.627941e-010
-4.942186e-010
8.636739e-010
1.835606e-009
1.273786e-009
-4.621927e-010
-1.696712e-009
-1.179905e-009
5.623690e-010
1.862799e-009
1.781103e-009
1.000237e-009
7.997592e-010
1.502871e-009
2.264209e-009
2.196273e-009
1.163037e-009
-7.929465e-010
-4.506825e-009
-1.176051e-008
-2.429637e-008
-4.309297e-008
-6.876429e-008
-1.023922e-007
-1.455764e-007
-1.995827e-007
-2.646227e-007
-3.400340e-007
-4.249469e-007
-5.185345e-007
-6.196458e-007
-7.264488e-007
-8.366166e-007
-9.478502e-007
-1.058187e-006
-1.165916e-006
-1.269389e-006
-1.367036e-006
-1.457501e-006
-1.539726e-006
-1.612876e-006
-1.676218e-006
-1.729044e-006
-1.770662e-006
-1.800443e-006
-1.817848e-006
-1.822406e-006
-1.813640e-006
-1.791065e-006
-1.754309e-006
-1.703273e-006
-1.638150e-006
-1.559359e-006
-1.467587e-006
-1.363993e-006
-1.250370e-006
-1.129041e-006
-1.002643e-006
-8.740898e-007
-7.466888e-007
-6.240184e-007
-5.093909e-007
-4.052988e-007
-3.133527e-007
-2.346108e-007
-1.696800e-007
-1.183249e-007
-7.914476e-008
-4.997790e-008
-2.882260e-008
-1.434428e-008
-5.502219e-009
-9.281589e-010
1.043708e-009
1.727057e-009
1.703390e-009
1.203858e-009
6.588939e-010
5.880164e-010
9.817480e-010
1.154975e-009
5.067162e-010
-6.422434e-010
-1.237404e-009
-6.222854e-010
6.652969e-010
1.393986e-009
9.114997e-010
-2.162041e-010
-8.655702e-010
-5.363388e-010
2.262849e-010
5.335735e-010
1.295581e-010
-4.127090e-010
1.710725e-009
5.172053e-012
-1.253973e-009
-8.318359e-010
3.907132e-010
8.312163e-010
1.691022e-010
-5.660984e-010
-5.477582e-010
-9.661957e-011
1.015369e-010
1.501041e-010
7.314174e-010
1.881470e-009
2.621505e-009
2.130359e-009
9.213207e-010
3.492234e-010
9.437600e-010
1.599943e-009
5.066984e-010
-3.542972e-009
-1.116353e-008
-2.354315e-008
-4.311797e-008
-7.290670e-008
-1.154633e-007
-1.727353e-007
-2.466893e-007
-3.394741e-007
-4.525886e-007
-5.859266e-007
-7.377519e-007
-9.054748e-007
-1.086218e-006
-1.276669e-006
-1.472783e-006
-1.670054e-006
-1.864267e-006
-2.052040e-006
-2.230749e-006
-2.398184e-006
-2.552416e-006
-2.691958e-006
-2.815876e-006
-2.923649e-006
-3.014909e-006
-3.089280e-006
-3.146388e-006
-3.185927e-006
-3.207638e-006
-3.211184e-006
-3.196058e-006
-3.161622e-006
-3.107252e-006
-3.032427e-006
-2.936691e-006
-2.819662e-006
-2.681264e-006
-2.522103e-006
-2.343644e-006
-2.148129e-006
-1.938561e-006
-1.718988e-006
-1.494770e-006
-1.272275e-006
-1.057966e-006
-8.575585e-007
-6.757756e-007
-5.164094e-007
-3.820095e-007
-2.731825e-007
-1.883133e-007
-1.242807e-007
-7.764120e-008
-4.525185e-008
-2.409679e-008
-1.109878e-008
-3.539008e-009
3.647255e-010
1.583273e-009
1.060046e-009
1.317975e-010
-4.273793e-011
6.567706e-010
1.351530e-009
1.216438e-009
3.872621e-010
-2.726725e-010
-1.766306e-010
4.111762e-010
7.856857e-010
5.747684e-010
-1.977237e-012
-4.980002e-010
-6.605661e-010
-4.994712e-010
-1.382556e-010
2.688966e-010
5.423477e-010
1.808906e-009
-8.468179e-010
-2.385665e-009
-7.025900e-010
2.280719e-009
3.087319e-009
7.455493e-010
-2.301367e-009
-3.132772e-009
-1.403172e-009
8.648242e-010
1.926086e-009
1.945759e-009
2.019718e-009
2.428641e-009
2.516279e-009
1.964384e-009
1.305211e-009
7.774905e-010
-9.376235e-010
-6.416276e-009
-1.815195e-008
-3.809691e-008
-6.871410e-008
-1.140783e-007
-1.795177e-007
-2.701733e-007
-3.900160e-007
-5.418805e-007
-7.275590e-007
-9.470844e-007
-1.197738e-006
-1.473966e-006
-1.768417e-006
-2.073127e-006
-2.380031e-006
-2.681092e-006
-2.968806e-006
-3.237106e-006
-3.481963e-006
-3.701196e-006
-3.893849e-006
-4.059795e-006
-4.199701e-006
-4.315006e-006
-4.407606e-006
-4.479444e-006
-4.532286e-006
-4.567762e-006
-4.587434e-006
-4.592677e-006
-4.584419e-006
-4.562962e-006
-4.527985e-006
-4.478619e-006
-4.413373e-006
-4.329929e-006
-4.225132e-006
-4.095385e-006
-3.937239e-006
-3.747831e-006
-3.525187e-006
-3.268824e-006
-2.980769e-006
-2.666394e-006
-2.334298e-006
-1.995254e-006
-1.660984e-006
-1.343252e-006
-1.052933e-006
-7.986356e-007
-5.852551e-007
-4.135131e-007
-2.808216e-007
-1.826516e-007
-1.134036e-007
-6.680314e-008
-3.657697e-008
-1.756080e-008
-6.363970e-009
-8.765187e-010
8.073081e-010
7.847818e-010
7.045484e-010
1.070413e-009
1.474280e-009
1.487090e-009
1.157750e-009
7.369467e-010
2.892502e-010
-1.922502e-010
-4.858339e-010
-3.051444e-010
2.022065e-010
4.272567e-010
-5.077895e-012
-6.600436e-010
-7.038743e-010
7.693461e-011
9.193451e-010
2.981383e-010
-1.725901e-009
-2.342478e-009
1.671341e-010
3.521976e-009
4.005395e-009
7.742629e-010
-3.086870e-009
-3.906228e-009
-1.263305e-009
1.944901e-009
2.947237e-009
1.875876e-009
9.330575e-010
1.486406e-009
2.723928e-009
2.981520e-009
1.400305e-009
-2.413065e-009
-1.008263e-008
-2.520081e-008
-5.243306e-008
-9.663957e-008
-1.633988e-007
-2.600397e-007
-3.952930e-007
-5.772392e-007
-8.111060e-007
-1.098218e-006
-1.435750e-006
-1.816316e-006
-2.227538e-006
-2.652694e-006
-3.072859e-006
-3.469549e-006
-3.826634e-006
-4.131333e-006
-4.374901e-006
-4.553265e-006
-4.667100e-006
-4.720970e-006
-4.721975e-006
-4.678653e-006
-4.600387e-006
-4.496964e-006
-4.378019e-006
-4.252525e-006
-4.128633e-006
-4.013826e-006
-3.915024e-006
-3.838400e-006
-3.788972e-006
-3.770212e-006
-3.783822e-006
-3.829461e-006
-3.904217e-006
-4.001923e-006
-4.112765e-006
-4.223524e-006
-4.318300e-006
-4.379427e-006
-4.388736e-006
-4.329659e-006
-4.190098e-006
-3.965133e-006
-3.658460e-006
-3.282314e-006
-2.856298e-006
-2.405339e-006
-1.956507e-006
-1.534890e-006
-1.159804e-006
-8.428481e-007
-5.881123e-007
-3.935210e-007
-2.523018e-007
-1.546100e-007
-8.968939e-008
-4.808811e-008
-2.276225e-008
-8.662771e-009
-1.797502e-009
1.045243e-009
1.955595e-009
1.900524e-009
1.386595e-009
9.833039e-010
1.042143e-009
1.200618e-009
7.216161e-010
-4.654253e-010
-1.381556e-009
-1.015908e-009
3.669429e-010
1.339836e-009
8.933108e-010
-3.779659e-010
-9.801726e-010
-3.065309e-010
6.755589e-010
-1.014743e-009
-1.449367e-009
-1.004520e-009
8.083055e-010
2.610845e-009
2.428167e-009
2.602056e-011
-2.400118e-009
-2.323370e-009
3.422293e-010
3.023779e-009
3.281915e-009
1.460427e-009
9.184790e-011
8.025124e-010
2.356963e-009