# vtk DataFile Version 3.0
vtk output
ASCII
DATASET STRUCTURED_POINTS
DIMENSIONS 100 100 1
SPACING 1 1 1
ORIGIN 0 0 0
POINT_DATA 10000
SCALARS SFBox_profile double
LOOKUP_TABLE default 
0.000000e+000
0.000000e+000
0.000000e+000
0.000000e+000
0.000000e+000
0.000000e+000
0.000000e+000
0.000000e+000
0.000000e+000
0.000000e+000
0.000000e+000
0.000000e+000
0.000000e+000
0.000000e+000
0.000000e+000
0.000000e+000
0.000000e+000
0.000000e+000
0.000000e+000
0.000000e+000
0.000000e+000
0.000000e+000
0.000000e+000
0.000000e+000
0.000000e+000
0.000000e+000
0.000000e+000
0.000000e+000
0.000000e+000
0.000000e+000
0.000000e+000
0.000000e+000
0.000000e+000
0.000000e+000
0.000000e+000
0.000000e+000
0.000000e+000
0.000000e+000
0.000000e+000
0.000000e+000
0.000000e+000
0.000000e+000
0.000000e+000
0.000000e+000
0.000000e+000
0.000000e+000
0.000000e+000
0.000000e+000
0.000000e+000
0.000000e+000
0.000000e+000
0.000000e+000
0.000000e+000
0.000000e+000
0.000000e+000
0.000000e+000
0.000000e+000
0.000000e+000
0.000000e+000
0.000000e+000
0.000000e+000
0.000000e+000
0.000000e+000
0.000000e+000
0.000000e+000
0.000000e+000
0.000000e+000
0.000000e+000
0.000000e+000
0.000000e+000
0.000000e+000
0.000000e+000
0.000000e+000
0.000000e+000
0.000000e+000
0.000000e+000
0.000000e+000
0.000000e+000
0.000000e+000
0.000000e+000
0.000000e+000
0.000000e+000
0.000000e+000
0.000000e+000
0.000000e+000
0.000000e+000
0.000000e+000
0.000000e+000
0.000000e+000
0.000000e+000
0.000000e+000
0.000000e+000
0.000000e+000
0.000000e+000
0.000000e+000
0.000000e+000
0.000000e+000
0.000000e+000
0.000000e+000
0.000000e+000
9.511991e-011
1.588404e-010
3.597359e-011
-4.067130e-010
-8.927360e-010
-8.999153e-010
-1.645321e-010
9.772817e-010
1.772737e-009
1.616994e-009
5.137180e-010
-9.269506e-010
-1.904865e-009
-1.928332e-009
-1.079778e-009
7.328649e-011
8.527960e-010
9.174738e-010
4.888312e-010
1.490244e-010
3.202182e-010
8.663353e-010
1.223270e-009
9.746334e-010
2.978668e-010
-2.131172e-010
-1.874211e-010
1.176309e-010
1.133591e-010
-4.417402e-010
-1.155288e-009
-1.441675e-009
-1.180469e-009
-8.255286e-010
-8.474700e-010
-1.181089e-009
-1.331023e-009
-9.882959e-010
-4.021026e-010
-6.913623e-011
-1.420408e-010
-2.833501e-010
-1.185062e-010
2.975211e-010
5.741470e-010
4.924155e-010
2.700081e-010
2.610092e-010
4.940337e-010
6.431434e-010
4.557452e-010
7.705946e-011
-1.422748e-010
-9.566216e-011
-4.215367e-011
-2.495284e-010
-6.304691e-010
-8.479866e-010
-7.524232e-010
-5.781718e-010
-6.370012e-010
-8.997229e-010
-1.013048e-009
-7.463606e-010
-3.045535e-010
-9.618302e-011
-2.298909e-010
-3.674694e-010
-1.327481e-010
4.142398e-010
8.221750e-010
7.697069e-010
4.363675e-010
2.711412e-010
4.329191e-010
5.790070e-010
2.708517e-010
-4.667203e-010
-1.089324e-009
-1.065991e-009
-4.197976e-010
3.078939e-010
6.081187e-010
4.597737e-010
2.278471e-010
1.813620e-010
2.040285e-010
6.711506e-012
-4.378695e-010
-7.637968e-010
-5.610939e-010
1.557980e-010
8.662463e-010
9.677070e-010
3.201322e-010
-5.965992e-010
-1.062159e-009
-7.048521e-010
1.956411e-010
9.326915e-010
-5.793913e-010
-1.590850e-010
3.068291e-010
4.266810e-010
1.443996e-010
-2.504045e-010
-4.247246e-010
-2.890193e-010
-1.189129e-011
1.841395e-010
2.057797e-010
1.083060e-010
7.747942e-012
-9.463435e-015
1.140398e-010
2.771177e-010
3.266706e-010
1.286436e-010
-2.589970e-010
-5.671020e-010
-5.372089e-010
-1.984151e-010
1.214192e-010
1.219210e-010
-1.351108e-010
-2.757232e-010
-2.823035e-011
4.580669e-010
7.717998e-010
7.091254e-010
5.066833e-010
5.559164e-010
9.337534e-010
1.310886e-009
1.346947e-009
1.093068e-009
9.167040e-010
1.050070e-009
1.319636e-009
1.379810e-009
1.147277e-009
8.949601e-010
9.024284e-010
1.112831e-009
1.222490e-009
1.073968e-009
8.479245e-010
8.203668e-010
1.008838e-009
1.160752e-009
1.086998e-009
9.027134e-010
8.679045e-010
1.042807e-009
1.208079e-009
1.150601e-009
9.402970e-010
8.370901e-010
9.483308e-010
1.082012e-009
9.901815e-010
6.928870e-010
4.639400e-010
4.884604e-010
6.237531e-010
5.716115e-010
2.535297e-010
-7.972632e-011
-1.470600e-010
2.035882e-011
1.165924e-010
-6.195115e-011
-3.574588e-010
-4.277447e-010
-1.525331e-010
2.131369e-010
3.200827e-010
1.115446e-010
-1.302974e-010
-1.201661e-010
1.083968e-010
2.595768e-010
1.293933e-010
-1.568353e-010
-2.882304e-010
-1.192036e-010
1.693232e-010
2.689075e-010
7.449569e-011
-2.097724e-010
-2.889880e-010
-7.817006e-011
2.209685e-010
3.251148e-010
1.371137e-010
-1.763905e-010
-3.458682e-010
-2.321912e-010
6.858451e-011
3.152228e-010
-1.286399e-009
-6.151748e-010
3.460237e-010
1.071172e-009
1.182894e-009
6.194628e-010
-3.673831e-010
-1.321392e-009
-1.753037e-009
-1.365525e-009
-2.632926e-010
1.027667e-009
1.838577e-009
1.793986e-009
1.059925e-009
1.728941e-010
-4.050697e-010
-5.988093e-010
-6.391791e-010
-7.339590e-010
-8.613544e-010
-8.690283e-010
-7.004314e-010
-4.580014e-010
-2.523493e-010
-5.728041e-011
2.397685e-010
6.704638e-010
1.128997e-009
1.497951e-009
1.783863e-009
2.080749e-009
2.413486e-009
2.675702e-009
2.751728e-009
2.664960e-009
2.554839e-009
2.507623e-009
2.459879e-009
2.301031e-009
2.040816e-009
1.820054e-009
1.745532e-009
1.760073e-009
1.716720e-009
1.564693e-009
1.411759e-009
1.386926e-009
1.481889e-009
1.572074e-009
1.583517e-009
1.585781e-009
1.691634e-009
1.896895e-009
2.070684e-009
2.110501e-009
2.063388e-009
2.057847e-009
2.133143e-009
2.182444e-009
2.080661e-009
1.835464e-009
1.574431e-009
1.389329e-009
1.233606e-009
9.953382e-010
6.465750e-010
2.815337e-010
3.240912e-012
-1.924084e-010
-3.902444e-010
-6.246071e-010
-8.085453e-010
-8.093231e-010
-5.792884e-010
-1.961781e-010
2.124135e-010
5.529129e-010
7.676076e-010
7.916779e-010
5.651108e-010
1.156093e-010
-3.881416e-010
-7.066094e-010
-6.854628e-010
-3.595941e-010
8.399960e-011
4.352180e-010
5.631788e-010
4.371114e-010
1.099007e-010
-2.843327e-010
-5.448265e-010
-4.932948e-010
-1.185070e-010
3.545491e-010
5.872893e-010
3.882075e-010
-1.060325e-010
-5.141756e-010
-1.083892e-009
-7.471723e-010
-1.323833e-010
5.851832e-010
1.089852e-009
1.038232e-009
3.024945e-010
-8.234726e-010
-1.683163e-009
-1.649336e-009
-6.127052e-010
8.416382e-010
1.794723e-009
1.666092e-009
6.550690e-010
-4.394255e-010
-8.776192e-010
-5.441567e-010
5.934763e-011
3.390129e-010
1.340790e-010
-2.246806e-010
-3.100058e-010
-1.458000e-011
4.038374e-010
6.327537e-010
6.171899e-010
5.713686e-010
7.238786e-010
1.084277e-009
1.455858e-009
1.647544e-009
1.651466e-009
1.618902e-009
1.685743e-009
1.838424e-009
1.947992e-009
1.918943e-009
1.789928e-009
1.687149e-009
1.690947e-009
1.761892e-009
1.799075e-009
1.756131e-009
1.683204e-009
1.655664e-009
1.682173e-009
1.701994e-009
1.668015e-009
1.608174e-009
1.589587e-009
1.633728e-009
1.690492e-009
1.700877e-009
1.665154e-009
1.630841e-009
1.622632e-009
1.610865e-009
1.558391e-009
1.475998e-009
1.404280e-009
1.344657e-009
1.241318e-009
1.053608e-009
8.291273e-010
6.685067e-010
6.063860e-010
5.551768e-010
3.988404e-010
1.379620e-010
-9.382128e-011
-1.782182e-010
-1.536288e-010
-1.668777e-010
-2.752017e-010
-3.365266e-010
-1.475326e-010
2.984731e-010
7.276136e-010
8.024421e-010
4.370502e-010
-1.153201e-010
-4.952653e-010
-5.469868e-010
-3.911681e-010
-2.181873e-010
-6.422143e-011
1.682675e-010
4.853797e-010
6.683046e-010
4.417146e-010
-1.933035e-010
-8.285646e-010
-9.280956e-010
-3.129136e-010
6.038945e-010
1.100710e-009
7.458706e-010
-2.087201e-010
-1.006521e-009
4.937996e-010
-6.311754e-011
-6.863293e-010
-8.080136e-010
-2.650225e-010
5.547105e-010
1.026821e-009
8.046883e-010
9.968423e-011
-5.117833e-010
-5.895416e-010
-2.031142e-010
1.544457e-010
4.085063e-011
-4.990059e-010
-9.416015e-010
-7.500063e-010
1.186207e-010
1.136760e-009
1.650280e-009
1.444556e-009
9.086223e-010
6.448541e-010
8.998712e-010
1.363467e-009
1.517452e-009
1.169649e-009
6.306236e-010
3.678308e-010
5.162203e-010
7.647433e-010
7.249375e-010
3.661521e-010
4.017049e-011
8.204158e-011
4.446028e-010
7.731118e-010
8.170526e-010
6.966363e-010
7.269436e-010
1.026977e-009
1.382701e-009
1.513482e-009
1.404863e-009
1.305223e-009
1.406893e-009
1.615015e-009
1.682316e-009
1.524694e-009
1.316170e-009
1.255099e-009
1.312683e-009
1.285789e-009
1.075082e-009
8.198678e-010
7.148741e-010
7.541241e-010
7.431979e-010
5.668282e-010
3.569087e-010
3.288555e-010
4.905495e-010
6.098643e-010
5.038190e-010
2.886271e-010
2.569877e-010
5.140090e-010
8.248480e-010
8.834618e-010
6.866438e-010
5.451744e-010
6.948016e-010
9.705047e-010
9.578712e-010
4.732127e-010
-1.840148e-010
-5.186860e-010
-3.573607e-010
-1.333345e-011
8.340730e-011
-1.347371e-010
-3.273025e-010
-1.729526e-010
2.303241e-010
4.551727e-010
2.275593e-010
-2.413812e-010
-4.548198e-010
-1.583833e-010
3.675344e-010
5.719055e-010
1.934341e-010
-4.511435e-010
-7.479725e-010
-3.706750e-010
3.911917e-010
8.738460e-010
6.317262e-010
-1.572164e-010
-8.364544e-010
2.631399e-009
1.279554e-009
-5.735689e-010
-1.803012e-009
-1.741306e-009
-5.571726e-010
9.374853e-010
1.857646e-009
1.776255e-009
8.911340e-010
-2.136749e-010
-9.924240e-010
-1.243373e-009
-1.110829e-009
-8.367666e-010
-5.077619e-010
-3.236350e-011
6.454751e-010
1.345759e-009
1.726660e-009
1.609427e-009
1.218892e-009
1.031468e-009
1.321640e-009
1.863684e-009
2.138374e-009
1.867371e-009
1.311352e-009
9.900412e-010
1.115023e-009
1.366051e-009
1.270690e-009
7.585088e-010
2.493945e-010
1.700282e-010
4.633725e-010
6.672568e-010
4.633203e-010
3.804383e-011
-1.700653e-010
-1.705159e-011
1.772383e-010
3.561712e-011
-4.064138e-010
-7.481237e-010
-7.178168e-010
-4.909225e-010
-4.443339e-010
-6.743012e-010
-8.911402e-010
-8.083577e-010
-5.115375e-010
-3.328174e-010
-4.061847e-010
-4.911502e-010
-2.962034e-010
1.235517e-010
4.210984e-010
4.020775e-010
2.819301e-010
4.110751e-010
8.117858e-010
1.126582e-009
1.061153e-009
7.670830e-010
6.695132e-010
9.407727e-010
1.278151e-009
1.276908e-009
9.454975e-010
7.169739e-010
9.201300e-010
1.343349e-009
1.430445e-009
8.977253e-010
5.832716e-011
-5.158254e-010
-5.911292e-010
-4.423602e-010
-4.343050e-010
-5.458488e-010
-4.130601e-010
1.649624e-010
8.685592e-010
1.096275e-009
5.698120e-010
-3.422270e-010
-9.331048e-010
-7.896201e-010
-1.265605e-010
4.644543e-010
5.598369e-010
2.184542e-010
-1.695064e-010
-2.798207e-010
-1.068063e-010
1.111763e-010
1.560929e-010
1.884821e-011
-1.313827e-010
3.374463e-009
2.139429e-009
2.943104e-010
-1.267343e-009
-1.860887e-009
-1.331151e-009
-8.112804e-011
1.158753e-009
1.704712e-009
1.285222e-009
2.104691e-010
-8.060476e-010
-1.123371e-009
-6.252546e-010
2.286853e-010
8.193855e-010
8.834121e-010
6.514645e-010
5.150934e-010
6.119329e-010
7.748170e-010
8.459865e-010
9.290583e-010
1.249813e-009
1.805991e-009
2.276462e-009
2.351050e-009
2.098049e-009
1.896138e-009
1.973739e-009
2.103954e-009
1.848327e-009
1.078018e-009
1.380244e-010
-5.635463e-010
-1.049209e-009
-1.736536e-009
-2.906032e-009
-4.328192e-009
-5.518701e-009
-6.309153e-009
-7.020295e-009
-8.019717e-009
-9.221438e-009
-1.015928e-008
-1.053941e-008
-1.057146e-008
-1.066443e-008
-1.088552e-008
-1.087612e-008
-1.032335e-008
-9.370172e-009
-8.434583e-009
-7.680291e-009
-6.832942e-009
-5.583197e-009
-4.050569e-009
-2.697658e-009
-1.794303e-009
-1.117348e-009
-2.750607e-010
7.552118e-010
1.564404e-009
1.809647e-009
1.644479e-009
1.536060e-009
1.697101e-009
1.845236e-009
1.591377e-009
9.719692e-010
4.606870e-010
4.380355e-010
7.592773e-010
9.334370e-010
6.848505e-010
2.275333e-010
-4.221461e-011
-2.548083e-011
1.208476e-011
-1.636219e-010
-4.115919e-010
-3.600577e-010
1.278189e-010
7.213410e-010
9.060349e-010
4.813570e-010
-2.508024e-010
-7.719492e-010
-7.817599e-010
-3.686937e-010
1.586109e-010
5.264924e-010
6.045135e-010
3.809489e-010
-5.303651e-011
-4.842508e-010
-6.378228e-010
-3.667901e-010
1.795009e-010
6.161629e-010
1.211055e-009
1.209308e-009
1.043183e-009
5.504117e-010
-2.171645e-010
-9.195322e-010
-1.127222e-009
-6.902030e-010
5.828835e-011
5.332928e-010
4.290174e-010
4.340261e-011
1.147656e-011
6.479657e-010
1.559844e-009
1.974544e-009
1.494830e-009
5.116901e-010
-1.614495e-010
-5.317693e-011
5.935233e-010
1.181377e-009
1.394122e-009
1.404320e-009
1.502913e-009
1.667685e-009
1.590439e-009
1.068537e-009
2.227511e-010
-7.328167e-010
-1.841257e-009
-3.392333e-009
-5.555324e-009
-8.142070e-009
-1.082562e-008
-1.353738e-008
-1.651509e-008
-1.992135e-008
-2.352601e-008
-2.688419e-008
-2.980241e-008
-3.249486e-008
-3.521692e-008
-3.784180e-008
-3.993227e-008
-4.122376e-008
-4.189626e-008
-4.227923e-008
-4.237121e-008
-4.180261e-008
-4.029776e-008
-3.804032e-008
-3.546782e-008
-3.276097e-008
-2.969096e-008
-2.602335e-008
-2.195428e-008
-1.801024e-008
-1.453183e-008
-1.139363e-008
-8.305299e-009
-5.297516e-009
-2.770450e-009
-1.048720e-009
-1.043364e-011
7.484320e-010
1.433482e-009
1.858139e-009
1.760121e-009
1.213042e-009
6.221270e-010
3.282439e-010
3.150243e-010
3.474689e-010
3.184431e-010
3.511588e-010
5.583938e-010
8.091231e-010
8.279138e-010
5.111158e-010
6.449232e-011
-2.070476e-010
-2.013589e-010
-6.692246e-011
1.633693e-011
2.298680e-011
2.482395e-011
2.381343e-011
-5.821738e-011
-2.110288e-010
-2.504569e-010
-3.278844e-012
4.166773e-010
6.106331e-010
2.713608e-010
-4.284975e-010
-8.959288e-010
-6.490004e-010
1.815697e-010
9.115271e-010
-2.999840e-009
-1.436908e-009
7.145549e-010
2.121905e-009
1.963464e-009
4.811606e-010
-1.211208e-009
-1.970817e-009
-1.470020e-009
-3.330929e-010
5.374250e-010
7.890945e-010
8.034024e-010
1.106464e-009
1.690414e-009
2.007523e-009
1.637779e-009
8.614430e-010
4.579544e-010
9.150284e-010
1.900031e-009
2.562890e-009
2.328079e-009
1.323963e-009
4.454622e-011
-1.304296e-009
-3.036276e-009
-5.613065e-009
-9.178891e-009
-1.353365e-008
-1.848481e-008
-2.408316e-008
-3.047120e-008
-3.760173e-008
-4.521871e-008
-5.310036e-008
-6.120619e-008
-6.952499e-008
-7.785351e-008
-8.583842e-008
-9.324304e-008
-1.000723e-007
-1.063698e-007
-1.119546e-007
-1.164671e-007
-1.196808e-007
-1.216654e-007
-1.225678e-007
-1.222926e-007
-1.205199e-007
-1.170638e-007
-1.121181e-007
-1.060671e-007
-9.910289e-008
-9.114045e-008
-8.214092e-008
-7.242189e-008
-6.255469e-008
-5.297735e-008
-4.380262e-008
-3.503119e-008
-2.686010e-008
-1.967795e-008
-1.376069e-008
-9.059444e-009
-5.331708e-009
-2.425194e-009
-3.607943e-010
8.455156e-010
1.349900e-009
1.420575e-009
1.261133e-009
9.665565e-010
6.423161e-010
4.695629e-010
5.772690e-010
8.758470e-010
1.099583e-009
1.050016e-009
7.624036e-010
4.035400e-010
5.381897e-011
-3.248855e-010
-6.943634e-010
-8.165772e-010
-4.527119e-010
2.852828e-010
8.772610e-010
8.138782e-010
1.184337e-010
-6.018494e-010
-7.029237e-010
-1.319814e-010
5.129484e-010
5.787176e-010
1.348510e-011
-5.871431e-010
-5.935562e-010
1.296204e-011
6.229931e-010
-5.892232e-009
-3.741126e-009
-5.550251e-010
2.030635e-009
2.788368e-009
1.640524e-009
-3.163073e-010
-1.611882e-009
-1.472973e-009
-3.065555e-010
8.036747e-010
1.104644e-009
7.469497e-010
4.453014e-010
6.706526e-010
1.243046e-009
1.686711e-009
1.850006e-009
2.037652e-009
2.511141e-009
2.965336e-009
2.618474e-009
8.396427e-010
-2.382620e-009
-6.642761e-009
-1.174377e-008
-1.804273e-008
-2.616190e-008
-3.642567e-008
-4.864025e-008
-6.238750e-008
-7.742847e-008
-9.376497e-008
-1.113695e-007
-1.299635e-007
-1.490908e-007
-1.683434e-007
-1.874507e-007
-2.061754e-007
-2.242073e-007
-2.411918e-007
-2.568127e-007
-2.707915e-007
-2.828258e-007
-2.925961e-007
-2.998555e-007
-3.044664e-007
-3.063051e-007
-3.051644e-007
-3.008163e-007
-2.931935e-007
-2.824675e-007
-2.689223e-007
-2.527887e-007
-2.342600e-007
-2.136667e-007
-1.915776e-007
-1.686944e-007
-1.456725e-007
-1.230725e-007
-1.014430e-007
-8.135526e-008
-6.330063e-008
-4.757142e-008
-3.427027e-008
-2.340426e-008
-1.490597e-008
-8.559043e-009
-3.988612e-009
-8.155344e-010
1.174100e-009
2.071368e-009
2.076973e-009
1.627382e-009
1.206664e-009
1.023651e-009
9.370590e-010
7.376125e-010
4.562166e-010
3.179606e-010
3.987899e-010
4.394742e-010
1.130341e-010
-5.220150e-010
-9.430984e-010
-6.461153e-010
2.767053e-010
1.107749e-009
1.126941e-009
2.944580e-010
-6.927023e-010
-1.036114e-009
-5.436557e-010
2.589881e-010
6.725553e-010
4.582620e-010
-3.424490e-011
-2.986428e-010
-1.790150e-010
4.848751e-011
-4.188232e-009
-3.186834e-009
-1.486118e-009
2.955739e-010
1.413110e-009
1.444055e-009
6.605328e-010
-1.142260e-010
-1.653599e-010
5.008846e-010
1.195678e-009
1.233848e-009
6.080948e-010
-8.835273e-012
8.372337e-011
9.724174e-010
2.103573e-009
2.805346e-009
2.748250e-009
1.885762e-009
4.132543e-011
-3.318816e-009
-8.861100e-009
-1.700266e-008
-2.784437e-008
-4.149430e-008
-5.837185e-008
-7.909055e-008
-1.040057e-007
-1.329071e-007
-1.651775e-007
-2.002241e-007
-2.377089e-007
-2.773720e-007
-3.187057e-007
-3.608757e-007
-4.029685e-007
-4.442772e-007
-4.843288e-007
-5.226720e-007
-5.586890e-007
-5.916244e-007
-6.207659e-007
-6.455771e-007
-6.656658e-007
-6.806543e-007
-6.900971e-007
-6.935292e-007
-6.905992e-007
-6.811627e-007
-6.652553e-007
-6.429941e-007
-6.145471e-007
-5.802393e-007
-5.406874e-007
-4.967969e-007
-4.496110e-007
-4.001939e-007
-3.496891e-007
-2.994381e-007
-2.509156e-007
-2.054413e-007
-1.639366e-007
-1.269731e-007
-9.500356e-008
-6.841465e-008
-4.727500e-008
-3.109048e-008
-1.895357e-008
-1.002389e-008
-3.846539e-009
-1.714509e-010
1.471724e-009
1.886595e-009
1.838346e-009
1.637017e-009
1.191900e-009
4.803140e-010
-1.493346e-010
-2.365021e-010
2.623668e-010
8.286456e-010
8.577047e-010
2.734228e-010
-3.866721e-010
-5.161672e-010
-4.070516e-011
5.366049e-010
6.521583e-010
2.067185e-010
-3.993304e-010
-6.794416e-010
-4.726883e-010
7.020551e-013
3.943850e-010
5.049090e-010
3.464255e-010
5.813560e-011
-2.133912e-010
-3.709101e-010
1.894418e-009
5.842399e-010
-1.001167e-009
-1.687995e-009
-1.120267e-009
7.678044e-011
9.884998e-010
1.224089e-009
1.091164e-009
1.081606e-009
1.300851e-009
1.444674e-009
1.276961e-009
1.012005e-009
1.130550e-009
1.794390e-009
2.469395e-009
2.147736e-009
-7.257179e-011
-4.651998e-009
-1.183036e-008
-2.211512e-008
-3.649236e-008
-5.615884e-008
-8.209707e-008
-1.149257e-007
-1.550675e-007
-2.028865e-007
-2.585247e-007
-3.216019e-007
-3.911680e-007
-4.660244e-007
-5.450847e-007
-6.273928e-007
-7.118286e-007
-7.969117e-007
-8.809976e-007
-9.626786e-007
-1.040949e-006
-1.114969e-006
-1.183719e-006
-1.245955e-006
-1.300502e-006
-1.346525e-006
-1.383472e-006
-1.410764e-006
-1.427615e-006
-1.433199e-006
-1.426979e-006
-1.408820e-006
-1.378776e-006
-1.336837e-006
-1.283007e-006
-1.217678e-006
-1.141899e-006
-1.057223e-006
-9.653395e-007
-8.679541e-007
-7.670691e-007
-6.652626e-007
-5.654834e-007
-4.704428e-007
-3.821875e-007
-3.022224e-007
-2.318678e-007
-1.722392e-007
-1.237518e-007
-8.573274e-008
-5.669535e-008
-3.508115e-008
-1.973070e-008
-9.690426e-009
-3.770023e-009
-5.304556e-010
1.213345e-009
1.984511e-009
1.853891e-009
1.035192e-009
1.545309e-010
-1.275643e-010
3.116471e-010
9.696391e-010
1.226294e-009
8.973870e-010
2.906226e-010
-1.857826e-010
-3.712065e-010
-3.423386e-010
-2.046233e-010
-7.996530e-012
1.680872e-010
1.873463e-010
3.462653e-012
-2.123735e-010
-2.001769e-010
8.931835e-011
3.819749e-010
3.425195e-010
-4.684674e-011
-4.284266e-010
7.907393e-009
4.769435e-009
4.752317e-010
-2.467914e-009
-2.776460e-009
-1.081433e-009
8.698697e-010
1.710493e-009
1.377131e-009
8.114341e-010
9.022111e-010
1.715527e-009
2.634162e-009
3.074799e-009
2.927971e-009
2.256787e-009
6.331027e-010
-3.130472e-009
-1.057012e-008
-2.297877e-008
-4.132619e-008
-6.677427e-008
-1.011534e-007
-1.467713e-007
-2.056495e-007
-2.788891e-007
-3.666712e-007
-4.686646e-007
-5.842328e-007
-7.122134e-007
-8.506643e-007
-9.970329e-007
-1.148663e-006
-1.303121e-006
-1.458073e-006
-1.611015e-006
-1.759347e-006
-1.900793e-006
-2.033693e-006
-2.156802e-006
-2.268866e-006
-2.368458e-006
-2.454276e-006
-2.525474e-006
-2.581580e-006
-2.622062e-006
-2.646055e-006
-2.652583e-006
-2.640997e-006
-2.611098e-006
-2.562789e-006
-2.495710e-006
-2.409397e-006
-2.303866e-006
-2.180033e-006
-2.039526e-006
-1.884245e-006
-1.716317e-006
-1.538614e-006
-1.355191e-006
-1.171013e-006
-9.910921e-007
-8.198377e-007
-6.610684e-007
-5.182581e-007
-3.943000e-007
-2.907556e-007
-2.073450e-007
-1.422929e-007
-9.323027e-008
-5.780512e-008
-3.362740e-008
-1.803738e-008
-8.336193e-009
-2.413455e-009
9.053126e-010
2.194640e-009
2.056086e-009
1.338233e-009
7.904863e-010
6.643957e-010
7.617024e-010
8.226637e-010
7.680579e-010
5.976599e-010
2.444556e-010
-3.081395e-010
-8.059627e-010
-8.171175e-010
-1.854150e-010
6.566768e-010
9.857480e-010
4.897314e-010
-3.713523e-010
-7.954561e-010
-4.456614e-010
2.286480e-010
5.070625e-010
1.783111e-010
-2.757121e-010
8.578359e-009
5.579800e-009
1.366400e-009
-1.712170e-009
-2.305649e-009
-8.500266e-010
9.791772e-010
1.685353e-009
1.091615e-009
2.920034e-010
5.211585e-010
1.984458e-009
3.671448e-009
4.195430e-009
2.707093e-009
-1.080821e-009
-7.745487e-009
-1.895301e-008
-3.739921e-008
-6.607812e-008
-1.077712e-007
-1.652621e-007
-2.417871e-007
-3.408413e-007
-4.651708e-007
-6.157470e-007
-7.915880e-007
-9.903825e-007
-1.209094e-006
-1.443966e-006
-1.690258e-006
-1.942413e-006
-2.194820e-006
-2.442548e-006
-2.681486e-006
-2.908030e-006
-3.118966e-006
-3.311787e-006
-3.485032e-006
-3.638138e-006
-3.770920e-006
-3.883249e-006
-3.975211e-006
-4.047381e-006
-4.100699e-006
-4.135944e-006
-4.153347e-006
-4.152733e-006
-4.133939e-006
-4.096880e-006
-4.041106e-006
-3.965337e-006
-3.867602e-006
-3.745931e-006
-3.598920e-006
-3.425733e-006
-3.225880e-006
-2.999519e-006
-2.748367e-006
-2.476512e-006
-2.190317e-006
-1.897573e-006
-1.606658e-006
-1.326182e-006
-1.064678e-006
-8.297212e-007
-6.266432e-007
-4.577015e-007
-3.223111e-007
-2.179658e-007
-1.410046e-007
-8.691670e-008
-5.062503e-008
-2.717296e-008
-1.254505e-008
-3.980260e-009
3.933112e-010
2.076125e-009
2.318412e-009
1.926950e-009
1.251179e-009
5.075045e-010
3.400425e-011
1.003369e-010
5.249428e-010
7.125878e-010
2.537730e-010
-5.427587e-010
-8.764696e-010
-3.034594e-010
7.068509e-010
1.179884e-009
6.285639e-010
-4.303961e-010
-1.006469e-009
-6.463897e-010
1.547729e-010
5.517552e-010
2.638419e-010
-1.982098e-010
2.650282e-009
1.877578e-009
7.342198e-010
-1.341155e-010
-1.998506e-010
5.297269e-010
1.426364e-009
1.726312e-009
1.265309e-009
7.322649e-010
1.039059e-009
2.280303e-009
3.263445e-009
2.067889e-009
-3.002481e-009
-1.318550e-008
-3.011858e-008
-5.696871e-008
-9.869547e-008
-1.612226e-007
-2.503750e-007
-3.714387e-007
-5.291821e-007
-7.274483e-007
-9.679320e-007
-1.248880e-006
-1.564805e-006
-1.907408e-006
-2.266835e-006
-2.632393e-006
-2.992840e-006
-3.336979e-006
-3.654838e-006
-3.938800e-006
-4.183919e-006
-4.387460e-006
-4.548421e-006
-4.667531e-006
-4.747415e-006
-4.792346e-006
-4.807560e-006
-4.798645e-006
-4.771419e-006
-4.732005e-006
-4.686601e-006
-4.640852e-006
-4.599297e-006
-4.565258e-006
-4.541006e-006
-4.527627e-006
-4.524394e-006
-4.528084e-006
-4.532873e-006
-4.530883e-006
-4.512831e-006
-4.468426e-006
-4.386822e-006
-4.257777e-006
-4.073563e-006
-3.830845e-006
-3.531666e-006
-3.183437e-006
-2.798429e-006
-2.392980e-006
-1.986037e-006
-1.596709e-006
-1.241405e-006
-9.317032e-007
-6.736483e-007
-4.682118e-007
-3.121804e-007
-1.991827e-007
-1.210210e-007
-6.926800e-008
-3.656505e-008
-1.708687e-008
-6.322863e-009
-8.315705e-010
1.700611e-009
2.449840e-009
1.929584e-009
7.197756e-010
-2.769665e-010
-3.445271e-010
3.974369e-010
1.076239e-009
9.385489e-010
1.182763e-010
-5.394617e-010
-4.054352e-010
2.753707e-010
6.944780e-010
3.777571e-010
-3.284932e-010
-6.799032e-010
-3.526239e-010
2.451251e-010
4.665585e-010
1.391403e-010
-2.875558e-010
-5.564779e-009
-3.402645e-009
-5.152410e-010
1.464572e-009
1.979987e-009
1.692831e-009
1.547734e-009
1.855993e-009
2.286452e-009
2.510764e-009
2.520276e-009
2.114967e-009
1.180606e-010
-5.810724e-009
-1.869505e-008
-4.194709e-008
-7.995753e-008
-1.391527e-007
-2.283385e-007
-3.576749e-007
-5.368317e-007
-7.733480e-007
-1.071508e-006
-1.431183e-006
-1.846304e-006
-2.303640e-006
-2.783081e-006
-3.259788e-006
-3.707246e-006
-4.099955e-006
-4.415331e-006
-4.635255e-006
-4.747574e-006
-4.747083e-006
-4.635335e-006
-4.419414e-006
-4.110544e-006
-3.723233e-006
-3.274800e-006
-2.784695e-006
-2.273460e-006
-1.761752e-006
-1.269837e-006
-8.173927e-007
-4.231530e-007
-1.042410e-007
1.245539e-007
2.512412e-007
2.669473e-007
1.665032e-007
-5.048232e-008
-3.783679e-007
-8.046033e-007
-1.309496e-006
-1.866455e-006
-2.442576e-006
-2.999925e-006
-3.498097e-006
-3.898113e-006
-4.166966e-006
-4.281840e-006
-4.233383e-006
-4.027700e-006
-3.686452e-006
-3.244356e-006
-2.743985e-006
-2.229059e-006
-1.738127e-006
-1.300138e-006
-9.323926e-007
-6.406940e-007
-4.213481e-007
-2.644838e-007
-1.576676e-007
-8.862128e-008
-4.650962e-008
-2.228825e-008
-8.941743e-009
-1.802036e-009
1.582139e-009
2.359810e-009
1.529016e-009
3.787831e-010
-2.623974e-011
4.607017e-010
1.119931e-009
1.185224e-009
5.819165e-010
-1.305243e-010
-4.211085e-010
-2.752933e-010
-5.413235e-011
-1.586353e-011
-8.086264e-011
-3.226704e-011
1.666629e-010
3.186362e-010
2.254198e-010
-7.983599e-011
-3.480930e-010
-9.806636e-009
-5.821938e-009
-5.701299e-010
2.775203e-009
3.055835e-009
1.662896e-009
8.805682e-010
1.773619e-009
3.525530e-009
4.472433e-009
3.386693e-009
-4.674649e-010
-8.525378e-009
-2.414663e-008
-5.293491e-008
-1.024576e-007
-1.822673e-007
-3.043613e-007
-4.830630e-007
-7.332150e-007
-1.066674e-006
-1.488176e-006
-1.991679e-006
-2.557691e-006
-3.151930e-006
-3.726092e-006
-4.221646e-006
-4.576510e-006
-4.732935e-006
-4.644329e-006
-4.279671e-006
-3.625475e-006
-2.685866e-006
-1.481049e-006
-4.428624e-008
1.582009e-006
3.349980e-006
5.209054e-006
7.107735e-006
8.995028e-006
1.082178e-005
1.254170e-005
1.411187e-005
1.549274e-005
1.664814e-005
1.754540e-005
1.815568e-005
1.845434e-005
1.842156e-005
1.804325e-005
1.731270e-005
1.623286e-005
1.481894e-005
1.310089e-005
1.112545e-005
8.957502e-006
6.679853e-006
4.390664e-006
2.197740e-006
2.097555e-007
-1.474803e-006
-2.779660e-006
-3.661699e-006
-4.118164e-006
-4.187509e-006
-3.942746e-006
-3.478486e-006
-2.894846e-006
-2.282062e-006
-1.709159e-006
-1.218765e-006
-8.284046e-007
-5.365949e-007
-3.306560e-007
-1.933287e-007
-1.069204e-007
-5.550745e-008
-2.624819e-008
-1.013228e-008
-1.792259e-009
1.697145e-009
2.267147e-009
1.588197e-009
9.120802e-010
7.108564e-010
7.843699e-010
7.757928e-010
5.554481e-010
2.023000e-010
-1.742572e-010
-4.711751e-010
-5.418177e-010
-2.821850e-010
1.858920e-010
5.249401e-010
4.786085e-010
1.391148e-010
-1.582826e-010
-2.085566e-010
-1.255328e-010
-7.350644e-009
-3.607846e-009
1.118581e-009
3.653040e-009
3.000144e-009
9.221712e-010
9.563952e-011
1.614540e-009
4.043974e-009
4.570596e-009
7.164849e-010
-9.376578e-009
-2.857449e-008
-6.294571e-008
-1.228851e-007
-2.228190e-007
-3.803292e-007
-6.151764e-007
-9.472869e-007
-1.392070e-006
-1.952554e-006
-2.609952e-006
-3.315765e-006
-3.988470e-006
-4.516725e-006
-4.769558e-006
-4.612371e-006
-3.925775e-006
-2.622956e-006
-6.614082e-007
1.953170e-006
5.170316e-006
8.903355e-006
1.304053e-005
1.745661e-005
2.202345e-005
2.661822e-005
3.112888e-005
3.545729e-005
3.952046e-005
4.325065e-005
4.659439e-005
4.951055e-005
5.196793e-005
5.394244e-005
5.541428e-005
5.636545e-005
5.677758e-005
5.663042e-005
5.590104e-005
5.456419e-005
5.259459e-005
4.997168e-005
4.668677e-005
4.275250e-005
3.821360e-005
3.315748e-005
2.772185e-005
2.209608e-005
1.651319e-005
1.123090e-005
6.502849e-006
2.543946e-006
-5.026959e-007
-2.588769e-006
-3.766862e-006
-4.176899e-006
-4.015716e-006
-3.497749e-006
-2.817450e-006
-2.123155e-006
-1.507479e-006
-1.012768e-006
-6.451609e-007
-3.899061e-007
-2.233817e-007
-1.208581e-007
-6.093196e-008
-2.753089e-008
-9.950814e-009
-1.575707e-009
1.670330e-009
2.331692e-009
1.880007e-009
1.071722e-009
3.582881e-010
7.003222e-011
2.480376e-010
5.116497e-010
3.813553e-010
-1.628492e-010
-5.785444e-010
-3.590528e-010
3.196301e-010
7.252989e-010
3.968308e-010
-2.979652e-010
-5.776122e-010
-1.669830e-010
3.857873e-010
-9.765109e-010
8.601257e-010
2.986019e-009
3.664687e-009
2.518349e-009
8.804618e-010
5.476879e-010
1.932440e-009
3.170405e-009
7.958575e-010
-9.048002e-009
-3.061279e-008
-7.047285e-008
-1.402605e-007
-2.582855e-007
-4.489689e-007
-7.402472e-007
-1.158987e-006
-1.723065e-006
-2.428214e-006
-3.229963e-006
-4.025476e-006