# vtk DataFile Version 3.0
vtk output
ASCII
DATASET STRUCTURED_POINTS
DIMENSIONS 100 100 1
SPACING 1 1 1
ORIGIN 0 0 0
POINT_DATA 10000
SCALARS SFBox_profile double
LOOKUP_TABLE default 
0.000000e+000
0.000000e+000
0.000000e+000
0.000000e+000
0.000000e+000
0.000000e+000
0.000000e+000
0.000000e+000
0.000000e+000
0.000000e+000
0.000000e+000
0.000000e+000
0.000000e+000
0.000000e+000
0.000000e+000
0.000000e+000
0.000000e+000
0.000000e+000
0.000000e+000
0.000000e+000
0.000000e+000
0.000000e+000
0.000000e+000
0.000000e+000
0.000000e+000
0.000000e+000
0.000000e+000
0.000000e+000
0.000000e+000
0.000000e+000
0.000000e+000
0.000000e+000
0.000000e+000
0.000000e+000
0.000000e+000
0.000000e+000
0.000000e+000
0.000000e+000
0.000000e+000
0.000000e+000
0.000000e+000
0.000000e+000
0.000000e+000
0.000000e+000
0.000000e+000
0.000000e+000
0.000000e+000
0.000000e+000
0.000000e+000
0.000000e+000
0.000000e+000
0.000000e+000
0.000000e+000
0.000000e+000
0.000000e+000
0.000000e+000
0.000000e+000
0.000000e+000
0.000000e+000
0.000000e+000
0.000000e+000
0.000000e+000
0.000000e+000
0.000000e+000
0.000000e+000
0.000000e+000
0.000000e+000
0.000000e+000
0.000000e+000
0.000000e+000
0.000000e+000
0.000000e+000
0.000000e+000
0.000000e+000
0.000000e+000
0.000000e+000
0.000000e+000
0.000000e+000
0.000000e+000
0.000000e+000
0.000000e+000
0.000000e+000
0.000000e+000
0.000000e+000
0.000000e+000
0.000000e+000
0.000000e+000
0.000000e+000
0.000000e+000
0.000000e+000
0.000000e+000
0.000000e+000
0.000000e+000
0.000000e+000
0.000000e+000
0.000000e+000
0.000000e+000
0.000000e+000
0.000000e+000
0.000000e+000
-3.695393e-009
-2.534775e-009
-8.231331e-010
7.990463e-010
1.833987e-009
2.064944e-009
1.590115e-009
7.386642e-010
-9.298535e-011
-6.128484e-010
-7.391398e-010
-5.973207e-010
-4.172054e-010
-3.871071e-010
-5.427554e-010
-7.499128e-010
-7.890728e-010
-4.940912e-010
1.348338e-010
9.105808e-010
1.545788e-009
1.799404e-009
1.599667e-009
1.072979e-009
4.635454e-010
-6.321362e-012
-2.509755e-010
-3.448846e-010
-4.471544e-010
-6.814065e-010
-1.050408e-009
-1.437832e-009
-1.689724e-009
-1.716502e-009
-1.546775e-009
-1.301302e-009
-1.111275e-009
-1.040233e-009
-1.060640e-009
-1.093204e-009
-1.072756e-009
-9.905053e-010
-8.863683e-010
-8.057866e-010
-7.607797e-010
-7.267981e-010
-6.740787e-010
-6.026568e-010
-5.480231e-010
-5.507680e-010
-6.160330e-010
-6.996991e-010
-7.377240e-010
-6.987502e-010
-6.176451e-010
-5.787732e-010
-6.559586e-010
-8.523116e-010
-1.088068e-009
-1.251778e-009
-1.282326e-009
-1.222209e-009
-1.198605e-009
-1.338763e-009
-1.675208e-009
-2.107965e-009
-2.454863e-009
-2.560732e-009
-2.393659e-009
-2.062306e-009
-1.739926e-009
-1.543825e-009
-1.450644e-009
-1.306070e-009
-9.264279e-010
-2.292667e-010
6.901073e-010
1.586292e-009
2.181576e-009
2.305077e-009
1.972918e-009
1.366203e-009
7.248052e-010
2.224729e-010
-1.046931e-010
-3.402350e-010
-5.982106e-010
-9.219337e-010
-1.233830e-009
-1.367474e-009
-1.164398e-009
-5.811368e-010
2.544795e-010
1.072456e-009
1.566099e-009
1.526034e-009
9.402094e-010
1.229661e-011
-9.122925e-010
-1.482517e-009
-1.997523e-009
-1.340627e-009
-3.791462e-010
5.146823e-010
1.052466e-009
1.113984e-009
7.703543e-010
2.348961e-010
-2.385284e-010
-4.668607e-010
-4.105378e-010
-1.754403e-010
5.547318e-011
1.259922e-010
-7.783160e-012
-2.556706e-010
-4.477121e-010
-4.349402e-010
-1.796596e-010
2.174556e-010
5.707047e-010
7.131560e-010
5.900320e-010
2.860990e-010
-2.885427e-011
-2.022114e-010
-1.850377e-010
-5.046283e-011
6.429054e-011
5.170076e-011
-9.826939e-011
-2.984710e-010
-4.282994e-010
-4.146899e-010
-2.757395e-010
-1.011638e-010
1.174458e-011
1.955757e-011
-4.920237e-011
-1.259324e-010
-1.548668e-010
-1.269456e-010
-7.365807e-011
-3.242623e-011
-1.526405e-011
-5.676684e-012
1.742535e-011
5.324313e-011
7.564149e-011
5.711181e-011
-8.600415e-013
-5.974065e-011
-6.959115e-011
-1.089159e-011
8.159023e-011
1.362856e-010
9.558259e-011
-3.655155e-011
-1.884296e-010
-2.660461e-010
-2.211984e-010
-9.323851e-011
9.378939e-012
-2.015163e-011
-2.107149e-010
-4.855246e-010
-7.056502e-010
-7.585047e-010
-6.323507e-010
-4.252253e-010
-2.799821e-010
-2.871962e-010
-4.203916e-010
-5.477486e-010
-5.146096e-010
-2.448125e-010
2.035430e-010
6.633407e-010
9.492634e-010
9.587270e-010
7.229499e-010
3.803279e-010
9.168227e-011
-4.988986e-011
-6.184052e-011
-4.586381e-011
-1.122509e-010
-3.021698e-010
-5.539060e-010
-7.320433e-010
-7.026189e-010
-4.125561e-010
6.958186e-011
5.734892e-010
8.987072e-010
9.039940e-010
5.729137e-010
2.588520e-011
-5.265839e-010
-8.691515e-010
5.835647e-010
4.607886e-010
2.672764e-010
5.252137e-011
-1.460814e-010
-3.054977e-010
-4.098348e-010
-4.410312e-010
-3.777112e-010
-2.069401e-010
5.683783e-011
3.595513e-010
6.150593e-010
7.348544e-010
6.673802e-010
4.252967e-010
8.294361e-011
-2.575157e-010
-5.135993e-010
-6.564581e-010
-7.114939e-010
-7.266211e-010
-7.300987e-010
-7.067891e-010
-6.092089e-010
-3.956939e-010
-6.876576e-011
3.140306e-010
6.659070e-010
9.169627e-010
1.050161e-009
1.103639e-009
1.139115e-009
1.199079e-009
1.281928e-009
1.350076e-009
1.362306e-009
1.305549e-009
1.203988e-009
1.101594e-009
1.033472e-009
1.007563e-009
1.007814e-009
1.012478e-009
1.010775e-009
1.005235e-009
1.001066e-009
9.953031e-010
9.776881e-010
9.433372e-010
9.048669e-010
8.901821e-010
9.236710e-010
1.003958e-009
1.097327e-009
1.156121e-009
1.152138e-009
1.101260e-009
1.058948e-009
1.086061e-009
1.206819e-009
1.388585e-009
1.559606e-009
1.654403e-009
1.656074e-009
1.605528e-009
1.569987e-009
1.591621e-009
1.651811e-009
1.676553e-009
1.580639e-009
1.321802e-009
9.291959e-010
4.879724e-010
9.103068e-011
-2.098534e-010
-4.222580e-010
-5.910828e-010
-7.536484e-010
-9.036348e-010
-9.883992e-010
-9.413906e-010
-7.285109e-010
-3.789116e-010
1.887816e-011
3.532188e-010
5.372894e-010
5.430422e-010
4.055579e-010
1.995125e-010
3.329775e-012
-1.301334e-010
-1.847309e-010
-1.740330e-010
-1.250206e-010
-6.311655e-011
-4.840355e-012
4.193748e-011
7.421480e-011
9.068202e-011
2.830845e-009
1.997215e-009
7.634370e-010
-4.226144e-010
-1.222334e-009
-1.494156e-009
-1.300018e-009
-8.338256e-010
-3.124519e-010
1.168131e-010
4.126824e-010
6.133185e-010
7.730676e-010
9.047993e-010
9.617321e-010
8.661623e-010
5.641384e-010
7.108285e-011
-5.192854e-010
-1.067560e-009
-1.443775e-009
-1.575133e-009
-1.463473e-009
-1.168555e-009
-7.716264e-010
-3.411799e-010
8.328239e-011
4.871466e-010
8.655942e-010
1.210262e-009
1.505514e-009
1.734003e-009
1.885499e-009
1.962447e-009
1.979223e-009
1.956391e-009
1.913653e-009
1.865033e-009
1.817980e-009
1.775821e-009
1.741372e-009
1.718995e-009
1.713395e-009
1.725663e-009
1.749447e-009
1.771031e-009
1.775154e-009
1.754367e-009
1.716161e-009
1.681983e-009
1.676749e-009
1.714014e-009
1.786120e-009
1.866728e-009
1.925587e-009
1.946986e-009
1.940031e-009
1.933636e-009
1.959125e-009
2.031840e-009
2.143908e-009
2.272540e-009
2.397092e-009
2.511841e-009
2.624600e-009
2.742054e-009
2.853111e-009
2.923778e-009
2.909054e-009
2.774623e-009
2.513202e-009
2.143692e-009
1.693866e-009
1.180279e-009
6.024261e-010
-4.152527e-011
-7.266106e-010
-1.381408e-009
-1.895321e-009
-2.155293e-009
-2.094768e-009
-1.727753e-009
-1.147704e-009
-4.910097e-010
1.146449e-010
5.887986e-010
9.050910e-010
1.068725e-009
1.085187e-009
9.450593e-010
6.372306e-010
1.817277e-010
-3.425013e-010
-7.997751e-010
-1.038497e-009
-9.557344e-010
-5.537265e-010
4.356886e-011
6.280041e-010
9.862752e-010
3.732597e-009
2.555174e-009
8.382811e-010
-7.551400e-010
-1.732595e-009
-1.912181e-009
-1.435864e-009
-6.551986e-010
5.204068e-011
4.478381e-010
5.098891e-010
3.925003e-010
3.048222e-010
3.773102e-010
5.880059e-010
7.838842e-010
7.793040e-010
4.723997e-010
-8.701532e-011
-7.148947e-010
-1.183765e-009
-1.334642e-009
-1.148452e-009
-7.408857e-010
-2.891510e-010
6.382026e-011
2.731962e-010
3.925024e-010
5.180760e-010
7.171593e-010
9.847613e-010
1.252482e-009
1.438240e-009
1.501269e-009
1.466524e-009
1.405308e-009
1.388417e-009
1.444658e-009
1.551318e-009
1.659374e-009
1.732391e-009
1.770402e-009
1.803208e-009
1.861001e-009
1.946718e-009
2.032004e-009
2.079742e-009
2.075149e-009
2.040561e-009
2.021347e-009
2.052733e-009
2.132499e-009
2.220829e-009
2.268411e-009
2.252340e-009
2.192842e-009
2.137810e-009
2.126369e-009
2.159115e-009
2.198372e-009
2.199541e-009
2.150379e-009
2.087442e-009
2.074295e-009
2.154244e-009
2.310848e-009
2.466614e-009
2.524827e-009
2.428504e-009
2.196082e-009
1.906997e-009
1.643849e-009
1.428998e-009
1.200371e-009
8.477454e-010
2.911540e-010
-4.468971e-010
-1.223620e-009
-1.829372e-009
-2.085607e-009
-1.932252e-009
-1.454414e-009
-8.338453e-010
-2.548690e-010
1.796639e-010
4.748570e-010
7.016266e-010
9.171273e-010
1.101339e-009
1.152815e-009
9.497853e-010
4.418175e-010
-2.837866e-010
-1.005588e-009
-1.449169e-009
-1.410608e-009
-8.617273e-010
1.772872e-011
9.018761e-010
1.450151e-009
2.967639e-009
1.932871e-009
4.547659e-010
-8.485601e-010
-1.529150e-009
-1.450461e-009
-8.016683e-010
2.032741e-011
6.064024e-010
7.193304e-010
3.843569e-010
-1.508480e-010
-5.609605e-010
-6.162038e-010
-2.953979e-010
2.167336e-010
6.417609e-010
7.648215e-010
5.496268e-010
1.491823e-010
-1.900704e-010
-2.726322e-010
-6.251444e-011
3.052799e-010
6.130679e-010
6.923240e-010
5.188887e-010
2.166104e-010
-2.754296e-011
-7.974685e-011
6.662972e-011
3.022261e-010
4.846152e-010
5.343070e-010
4.805247e-010
4.307119e-010
4.902213e-010
6.902818e-010
9.725214e-010
1.235863e-009
1.407758e-009
1.487508e-009
1.533467e-009
1.608915e-009
1.730858e-009
1.860759e-009
1.941582e-009
1.948980e-009
1.914214e-009
1.899863e-009
1.947768e-009
2.041622e-009
2.115805e-009
2.105548e-009
1.999794e-009
1.854007e-009
1.750011e-009
1.731447e-009
1.764651e-009
1.758032e-009
1.629639e-009
1.374510e-009
1.079994e-009
8.728738e-010
8.321015e-010
9.287817e-010
1.039207e-009
1.026696e-009
8.383347e-010
5.489417e-010
3.178774e-010
2.831369e-010
4.616302e-010
7.237855e-010
8.639131e-010
7.253810e-010
3.025731e-010
-2.456415e-010
-6.815171e-010
-8.220567e-010
-6.399752e-010
-2.719229e-010
6.893644e-011
2.211173e-010
1.657561e-010
2.672735e-011
-1.781430e-011
1.427167e-010
4.702826e-010
7.873705e-010
8.730269e-010
5.926281e-010
-1.109858e-011
-7.176810e-010
-1.223017e-009
-1.282640e-009
-8.335573e-010
-3.439118e-011
7.968721e-010
1.319671e-009
1.019650e-009
5.173896e-010
-1.636231e-010
-6.791566e-010
-7.886802e-010
-4.478646e-010
1.763325e-010
7.797426e-010
1.057333e-009
8.444770e-010
1.984919e-010
-6.211406e-010
-1.269215e-009
-1.474691e-009
-1.165642e-009
-4.953031e-010
2.448363e-010
7.785141e-010
9.811945e-010
9.249404e-010
8.093548e-010
8.228369e-010
1.019557e-009
1.287279e-009
1.424400e-009
1.275874e-009
8.404164e-010
2.800553e-010
-1.736998e-010
-3.558793e-010
-2.585289e-010
-1.932669e-011
1.797514e-010
2.329942e-010
1.702745e-010
1.196718e-010
2.054724e-010
4.562112e-010
7.861501e-010
1.058343e-009
1.179225e-009
1.155353e-009
1.074844e-009
1.033439e-009
1.064548e-009
1.125277e-009
1.144139e-009
1.087678e-009
9.904835e-010
9.247054e-010
9.355747e-010
9.978103e-010
1.031470e-009
9.673068e-010
8.096407e-010
6.433912e-010
5.739763e-010
6.425580e-010
7.823862e-010
8.548408e-010
7.446772e-010
4.469809e-010
7.993911e-011
-1.910555e-010
-2.675466e-010
-1.891609e-010
-1.077784e-010
-1.782833e-010
-4.398549e-010
-7.717150e-010
-9.584942e-010
-8.258690e-010
-3.580006e-010
2.815521e-010
8.410362e-010
1.126212e-009
1.107898e-009
9.242701e-010
7.792255e-010
8.041223e-010
9.716880e-010
1.115683e-009
1.042237e-009
6.620185e-010
6.105956e-011
-5.331681e-010
-8.705890e-010
-8.134741e-010
-4.115309e-010
1.228496e-010
5.232281e-010
6.019665e-010
3.385323e-010
-1.184194e-010
-5.311050e-010
-6.911281e-010
-5.178612e-010
-9.204767e-011
3.870386e-010
6.973697e-010
-1.125165e-009
-9.491651e-010
-6.533318e-010
-2.832311e-010
1.264759e-010
5.398352e-010
8.985024e-010
1.111657e-009
1.076249e-009
7.282129e-010
9.974616e-011
-6.562481e-010
-1.302660e-009
-1.610326e-009
-1.463391e-009
-9.192389e-010
-1.835396e-010
4.920695e-010
9.346983e-010
1.125479e-009
1.181164e-009
1.255369e-009
1.424249e-009
1.632283e-009
1.734500e-009
1.606507e-009
1.246229e-009
7.949708e-010
4.594781e-010
3.851223e-010
5.655479e-010
8.504575e-010
1.046119e-009
1.039345e-009
8.603903e-010
6.444167e-010
5.231476e-010
5.263347e-010
5.625166e-010
4.888519e-010
2.152183e-010
-2.343512e-010
-7.445925e-010
-1.193670e-009
-1.532734e-009
-1.801955e-009
-2.076984e-009
-2.394166e-009
-2.716614e-009
-2.967066e-009
-3.097262e-009
-3.133012e-009
-3.154037e-009
-3.222173e-009
-3.316720e-009
-3.334108e-009
-3.160042e-009
-2.763275e-009
-2.238033e-009
-1.756463e-009
-1.459351e-009
-1.362452e-009
-1.348596e-009
-1.255342e-009
-9.976099e-010
-6.366670e-010
-3.427934e-010
-2.743035e-010
-4.563978e-010
-7.457678e-010
-9.087370e-010
-7.627525e-010
-2.877300e-010
3.653744e-010
9.717371e-010
1.368639e-009
1.540296e-009
1.599254e-009
1.682833e-009
1.838600e-009
1.977320e-009
1.924754e-009
1.538329e-009
8.137738e-010
-8.526738e-011
-8.929764e-010
-1.363995e-009
-1.384283e-009
-1.013080e-009
-4.410970e-010
1.047298e-010
4.568481e-010
5.587479e-010
4.582931e-010
2.593992e-010
6.427214e-011
-6.589907e-011
-1.205178e-010
-1.248696e-010
-1.149683e-010
-2.517173e-009
-1.780325e-009
-7.181745e-010
2.576305e-010
8.737680e-010
1.068206e-009
9.573447e-010
7.251142e-010
5.042863e-010
3.180920e-010
1.077503e-010
-1.840428e-010
-5.373455e-010
-8.417846e-010
-9.559707e-010
-7.985778e-010
-4.073919e-010
7.630550e-011
4.896254e-010
7.418866e-010
8.573945e-010
9.397729e-010
1.085676e-009
1.311318e-009
1.545043e-009
1.689781e-009
1.706372e-009
1.651889e-009
1.639928e-009
1.749046e-009
1.947042e-009
2.090338e-009
2.003935e-009
1.587558e-009
8.726758e-010
-1.021245e-011
-9.293519e-010
-1.842692e-009
-2.816383e-009
-3.960018e-009
-5.329648e-009
-6.871797e-009
-8.448347e-009
-9.919989e-009
-1.122308e-008
-1.238348e-008
-1.346257e-008
-1.448368e-008
-1.539959e-008
-1.612511e-008
-1.660397e-008
-1.685039e-008
-1.692741e-008
-1.687782e-008
-1.666600e-008
-1.618428e-008
-1.532747e-008
-1.408308e-008
-1.256675e-008
-1.097013e-008
-9.454040e-009
-8.063033e-009
-6.724939e-009
-5.337225e-009
-3.877101e-009
-2.452916e-009
-1.255775e-009
-4.427282e-010
-3.313994e-011
1.086109e-010
1.917897e-010
3.757790e-010
6.882836e-010
1.036948e-009
1.298962e-009
1.419957e-009
1.451038e-009
1.500526e-009
1.639152e-009
1.829708e-009
1.933549e-009
1.791924e-009
1.329018e-009
6.100480e-010
-1.812678e-010
-8.294827e-010
-1.184256e-009
-1.212610e-009
-9.853523e-010
-6.185695e-010
-2.140161e-010
1.663968e-010
4.871053e-010
7.103743e-010
7.845428e-010
6.640549e-010
3.487166e-010
-8.847417e-011
-5.112927e-010
-7.706273e-010
-2.715430e-009
-1.701874e-009
-3.090978e-010
8.192338e-010
1.276249e-009
1.029568e-009
3.773798e-010
-2.459299e-010
-5.064017e-010
-3.257707e-010
1.169201e-010
5.219164e-010
6.539243e-010
4.669775e-010
1.045560e-010
-2.104954e-010
-3.173586e-010
-1.999640e-010
3.296136e-011
2.443555e-010
3.685067e-010
4.463691e-010
5.798995e-010
8.467350e-010
1.240088e-009
1.673428e-009
2.037238e-009
2.256827e-009
2.304419e-009
2.160229e-009
1.761501e-009
9.895415e-010
-2.863116e-010
-2.136962e-009
-4.529041e-009
-7.344297e-009
-1.045092e-008
-1.377423e-008
-1.731410e-008
-2.109788e-008
-2.510762e-008
-2.923976e-008
-3.332924e-008
-3.721901e-008
-4.082096e-008
-4.412287e-008
-4.713970e-008
-4.985171e-008
-5.218004e-008
-5.401770e-008
-5.528696e-008
-5.597246e-008
-5.610033e-008
-5.568049e-008
-5.466274e-008
-5.294982e-008
-5.046532e-008
-4.722851e-008
-4.337817e-008
-3.912352e-008
-3.465592e-008
-3.008586e-008
-2.545138e-008
-2.078939e-008
-1.621200e-008
-1.192433e-008
-8.163836e-009
-5.100362e-009
-2.766480e-009
-1.065904e-009
1.494366e-010
9.918843e-010
1.502453e-009
1.686665e-009
1.585205e-009
1.316211e-009
1.048785e-009
9.215905e-010
9.647589e-010
1.084355e-009
1.125429e-009
9.739947e-010
6.304232e-010
2.065315e-010
-1.487339e-010
-3.420240e-010
-3.834527e-010
-3.598305e-010
-3.563457e-010
-3.851580e-010
-3.735559e-010
-2.221100e-010
1.062695e-010
5.290290e-010
8.630679e-010
9.167639e-010
6.037671e-010
1.010650e-011
-6.296648e-010
-1.040038e-009
-1.937461e-009
-9.562926e-010
3.319343e-010
1.236504e-009
1.337449e-009
6.507260e-010
-4.152157e-010
-1.286247e-009
-1.515833e-009
-9.972192e-010
7.451360e-012
1.025280e-009
1.624402e-009
1.621348e-009
1.138608e-009
4.967382e-010
1.853607e-011
-1.350532e-010
-9.073068e-012
2.280826e-010
4.232006e-010
5.362043e-010
6.394494e-010
8.317310e-010
1.134562e-009
1.440836e-009
1.541197e-009
1.198095e-009
2.118714e-010
-1.558504e-009
-4.215245e-009
-7.846806e-009
-1.252655e-008
-1.828382e-008
-2.507489e-008
-3.278308e-008
-4.125247e-008
-5.033000e-008
-5.988368e-008
-6.978554e-008
-7.987856e-008
-8.996155e-008
-9.981028e-008
-1.092219e-007
-1.180482e-007
-1.261921e-007
-1.335694e-007
-1.400689e-007
-1.455422e-007
-1.498319e-007
-1.528125e-007
-1.544101e-007
-1.545835e-007
-1.532861e-007
-1.504439e-007
-1.459770e-007
-1.398553e-007
-1.321495e-007
-1.230411e-007
-1.127840e-007
-1.016478e-007
-8.988833e-008
-7.776336e-008
-6.557575e-008
-5.369574e-008
-4.252936e-008
-3.244036e-008
-2.367215e-008
-1.631988e-008
-1.036712e-008
-5.753589e-009
-2.418215e-009
-2.844214e-010
7.952867e-010
1.079535e-009
9.124650e-010
6.292748e-010
4.451142e-010
3.997467e-010
3.979234e-010
3.214749e-010
1.391043e-010
-5.966007e-011
-1.279871e-010
2.342205e-011
3.430305e-010
6.494952e-010
7.364318e-010
5.061021e-010
4.495620e-011
-4.117247e-010
-6.100567e-010
-4.270286e-010
4.998301e-011
5.627288e-010
8.206314e-010
6.612452e-010
1.429400e-010
-4.819941e-010
-8.994940e-010
-8.251243e-010
-1.042070e-010
8.007254e-010
1.330637e-009
1.148104e-009
2.867694e-010
-8.707320e-010
-1.779694e-009
-1.997803e-009
-1.398887e-009
-2.296405e-010
1.018780e-009
1.856518e-009
2.028528e-009
1.614765e-009
9.519176e-010
4.316354e-010
2.955607e-010
5.397752e-010
9.673922e-010
1.336115e-009
1.495582e-009
1.427270e-009
1.171034e-009
6.970145e-010
-1.889271e-010
-1.848133e-009
-4.725645e-009
-9.236445e-009
-1.568489e-008
-2.424670e-008
-3.499792e-008
-4.795116e-008
-6.306888e-008
-8.025096e-008
-9.931545e-008
-1.199931e-007
-1.419416e-007
-1.647707e-007
-1.880669e-007
-2.114141e-007
-2.344107e-007
-2.566878e-007
-2.779195e-007
-2.978215e-007
-3.161326e-007
-3.325929e-007
-3.469325e-007
-3.588792e-007
-3.681799e-007
-3.746188e-007
-3.780163e-007
-3.782144e-007
-3.750646e-007
-3.684375e-007
-3.582576e-007
-3.445464e-007
-3.274483e-007
-3.072288e-007
-2.842533e-007
-2.589736e-007
-2.319374e-007
-2.038095e-007
-1.753737e-007
-1.474838e-007
-1.209654e-007
-9.650828e-008
-7.460134e-008
-5.553724e-008
-3.946840e-008
-2.645869e-008
-1.648309e-008
-9.373757e-009
-4.763180e-009
-2.091492e-009
-7.083076e-010
-3.291623e-011
3.119330e-010
4.699255e-010
4.395192e-010
2.192999e-010
-8.801396e-011
-2.821040e-010
-1.748420e-010
2.760298e-010
9.074921e-010
1.417126e-009
1.523563e-009
1.128060e-009
3.799712e-010
-3.946380e-010
-8.616406e-010
-8.500068e-010
-4.319535e-010
1.276555e-010
5.196628e-010
5.533077e-010
2.471064e-010
-1.956063e-010
-5.076434e-010
7.687715e-012
3.488971e-010
7.677695e-010
9.751389e-010
7.753996e-010
1.609899e-010
-6.659740e-010
-1.368282e-009
-1.623585e-009
-1.283638e-009
-4.593213e-010
5.228235e-010
1.279928e-009
1.567079e-009
1.399421e-009
1.031781e-009
8.069321e-010
9.603118e-010
1.492225e-009
2.172815e-009
2.659919e-009
2.640903e-009
1.900922e-009
2.752515e-010
-2.476509e-009
-6.785048e-009
-1.329439e-008
-2.277234e-008
-3.595499e-008
-5.340438e-008
-7.543965e-008
-1.021507e-007
-1.334561e-007
-1.691532e-007
-2.089281e-007
-2.523303e-007
-2.987441e-007
-3.473905e-007
-3.973738e-007
-4.477611e-007
-4.976669e-007
-5.463089e-007
-5.930211e-007
-6.372260e-007
-6.783902e-007
-7.159904e-007
-7.495070e-007
-7.784429e-007
-8.023474e-007
-8.208247e-007
-8.335168e-007
-8.400785e-007
-8.401642e-007
-8.334503e-007
-8.196851e-007
-7.987462e-007
-7.706772e-007
-7.356946e-007
-6.941810e-007
-6.466936e-007
-5.940044e-007
-5.371565e-007
-4.774929e-007
-4.166109e-007
-3.562310e-007
-2.980158e-007
-2.434079e-007
-1.935446e-007
-1.492581e-007
-1.111152e-007
-7.943237e-008
-5.423336e-008
-3.517905e-008
-2.154343e-008
-1.229901e-008
-6.311886e-009
-2.571266e-009
-3.456975e-010
8.047875e-010
1.146527e-009
9.286686e-010
4.695883e-010
1.189328e-010
1.295423e-010
5.366667e-010
1.138129e-009
1.602825e-009
1.651513e-009
1.207766e-009
4.355343e-010
-3.520420e-010
-8.550659e-010
-9.288671e-010
-6.341294e-010
-1.804288e-010
1.946740e-010
3.422904e-010
2.582726e-010
6.023177e-011
-9.281710e-011
3.541400e-010
2.673274e-010
1.864960e-010
1.784922e-010
2.233387e-010
2.256596e-010
9.340409e-011
-1.752318e-010
-4.658655e-010
-6.095045e-010
-4.929744e-010
-1.397526e-010
3.008361e-010
6.548251e-010
8.478833e-010
9.640168e-010
1.190378e-009
1.674924e-009
2.381357e-009
3.025609e-009
3.120410e-009
2.080110e-009
-7.006698e-010
-5.856758e-009
-1.414338e-008
-2.653533e-008
-4.424495e-008
-6.861302e-008
-1.009014e-007
-1.420722e-007
-1.926412e-007
-2.526482e-007
-3.217187e-007
-3.991539e-007
-4.839908e-007
-5.750136e-007
-6.707491e-007
-7.694960e-007
-8.694201e-007
-9.687048e-007
-1.065704e-006
-1.159034e-006
-1.247574e-006
-1.330394e-006
-1.406650e-006
-1.475531e-006
-1.536256e-006
-1.588120e-006
-1.630519e-006
-1.662937e-006
-1.684881e-006
-1.695818e-006
-1.695171e-006
-1.682367e-006
-1.656938e-006
-1.618606e-006
-1.567321e-006
-1.503255e-006
-1.426809e-006
-1.338666e-006
-1.239915e-006
-1.132176e-006
-1.017667e-006
-8.991352e-007
-7.796645e-007
-6.624036e-007
-5.503187e-007
-4.460212e-007
-3.516728e-007
-2.689155e-007
-1.987796e-007
-1.415694e-007
-9.679144e-008
-6.320609e-008
-3.904429e-008
-2.234039e-008
-1.126389e-008
-4.325974e-009
-4.050048e-010
1.365334e-009
1.734018e-009
1.392310e-009
9.231046e-010
6.943399e-010
7.922130e-010
1.061586e-009
1.246517e-009
1.156757e-009
7.707277e-010
2.284208e-010
-2.641654e-010
-5.501048e-010
-5.880833e-010
-4.439124e-010
-2.298929e-010
-3.956512e-011
8.510764e-011
1.477418e-010
1.717983e-010
1.785217e-010
4.829505e-010
-5.599473e-011
-6.581048e-010
-8.693958e-010
-5.126518e-010
2.289636e-010
9.438424e-010
1.248746e-009
1.009584e-009
3.982760e-010
-2.325198e-010
-5.622098e-010
-4.638047e-010
-2.339030e-011
5.705776e-010
1.169929e-009
1.728927e-009
2.235266e-009
2.549725e-009
2.249667e-009
5.571792e-010
-3.635000e-009
-1.169411e-008
-2.520598e-008
-4.598883e-008
-7.611896e-008
-1.178831e-007
-1.735937e-007
-2.452768e-007
-3.343225e-007
-4.412194e-007
-5.654589e-007
-7.056154e-007
-8.595325e-007
-1.024525e-006
-1.197540e-006
-1.375273e-006
-1.554308e-006
-1.731296e-006
-1.903185e-006
-2.067418e-006
-2.222039e-006
-2.365635e-006
-2.497183e-006
-2.615864e-006
-2.720948e-006
-2.811785e-006
-2.887848e-006
-2.948751e-006
-2.994196e-006
-3.023845e-006
-3.037218e-006
-3.033662e-006
-3.012431e-006
-2.972812e-006
-2.914216e-006
-2.836196e-006
-2.738432e-006
-2.620747e-006
-2.483241e-006
-2.326550e-006
-2.152131e-006
-1.962478e-006
-1.761169e-006
-1.552727e-006
-1.342343e-006
-1.135549e-006
-9.378673e-007
-7.544441e-007
-5.896507e-007
-4.466660e-007
-3.271308e-007
-2.309985e-007
-1.566727e-007
-1.014243e-007
-6.196239e-008
-3.497397e-008
-1.748133e-008
-6.970441e-009
-1.358380e-009
1.079598e-009
1.732154e-009
1.613845e-009
1.328241e-009
1.104063e-009
9.249620e-010
7.032843e-010
4.130230e-010
1.227403e-010
-6.456949e-011
-9.962418e-011
-2.872782e-011
4.161035e-011
2.670146e-011
-7.265800e-011
-1.736822e-010
-1.787787e-010
-5.476540e-011
1.360048e-010
2.762603e-010
8.623153e-010
-1.330577e-010
-1.302046e-009
-1.835522e-009
-1.351864e-009
-6.845485e-011
1.360324e-009
2.231455e-009
2.178733e-009
1.342636e-009
2.496637e-010
-5.028891e-010
-5.597535e-010
5.421784e-011
1.016786e-009
1.914948e-009
2.408104e-009
2.220207e-009
9.484508e-010
-2.213174e-009
-8.699510e-009
-2.066223e-008
-4.092275e-008
-7.285316e-008
-1.202392e-007
-1.871157e-007
-2.775078e-007
-3.950135e-007
-5.422460e-007
-7.202560e-007
-9.281187e-007
-1.162839e-006
-1.419608e-006
-1.692326e-006
-1.974216e-006
-2.258384e-006
-2.538253e-006
-2.807904e-006
-3.062347e-006
-3.297759e-006
-3.511622e-006
-3.702695e-006
-3.870788e-006
-4.016411e-006
-4.140418e-006
-4.243775e-006
-4.327500e-006
-4.392688e-006
-4.440519e-006
-4.472158e-006
-4.488572e-006
-4.490354e-006
-4.477654e-006
-4.450213e-006
-4.407429e-006
-4.348356e-006
-4.271593e-006
-4.175154e-006
-4.056444e-006
-3.912476e-006
-3.740345e-006
-3.537879e-006
-3.304320e-006
-3.040889e-006
-2.751154e-006
-2.441151e-006
-2.119218e-006
-1.795495e-006
-1.481053e-006
-1.186699e-006
-9.216650e-007
-6.924573e-007
-5.022053e-007
-3.506643e-007
-2.348341e-007
-1.499348e-007
-9.041287e-008
-5.072310e-008
-2.579871e-008
-1.127315e-008
-3.573979e-009
2.976441e-011
1.424027e-009
1.733672e-009
1.516076e-009
1.020303e-009
4.148402e-010
-1.049467e-010
-3.485205e-010
-2.347296e-010
1.376990e-010
5.278030e-010
6.887146e-010
5.174746e-010
1.179001e-010
-2.681543e-010
-4.177989e-010
-2.693772e-010
4.344165e-011
2.869222e-010
1.732934e-009
3.459553e-010
-1.373379e-009
-2.369691e-009
-2.083443e-009
-6.834318e-010
1.087957e-009
2.356819e-009
2.594620e-009
1.871577e-009
7.660693e-010
7.077318e-012
6.747511e-011
9.306387e-010
2.124948e-009
2.943639e-009
2.650916e-009
4.870885e-010
-4.588701e-009
-1.432335e-008
-3.157588e-008
-6.053569e-008
-1.066795e-007
-1.764888e-007
-2.769796e-007
-4.150619e-007
-5.967027e-007
-8.258996e-007
-1.103587e-006
-1.426737e-006
-1.787978e-006
-2.175958e-006
-2.576438e-006
-2.973892e-006
-3.353191e-006
-3.701032e-006
-4.006898e-006
-4.263545e-006
-4.467115e-006
-4.617003e-006
-4.715507e-006
-4.767278e-006
-4.778597e-006
-4.756579e-006
-4.708494e-006
-4.641346e-006
-4.561745e-006
-4.475975e-006
-4.390046e-006
-4.309637e-006
-4.239898e-006
-4.185218e-006
-4.149042e-006
-4.133737e-006
-4.140375e-006
-4.168354e-006
-4.214824e-006
-4.274100e-006
-4.337301e-006
-4.392439e-006
-4.425116e-006
-4.419774e-006
-4.361427e-006
-4.237657e-006
-4.040673e-006
-3.769099e-006
-3.429117e-006
-3.034533e-006
-2.605494e-006
-2.165898e-006
-1.739947e-006
-1.348653e-006
-1.007163e-006
-7.235197e-007
-4.989626e-007
-3.293783e-007
-2.072587e-007
-1.235649e-007
-6.916202e-008
-3.576492e-008
-1.648300e-008
-6.062417e-009
-8.717530e-010
1.342297e-009
1.862378e-009
1.441861e-009
6.323076e-010
-9.176238e-011
-3.878666e-010
-1.610330e-010
3.986322e-010
9.246445e-010
1.085662e-009
7.771353e-010
1.753998e-010
-3.789969e-010
-5.945368e-010
-4.043348e-010
4.483635e-012
3.222880e-010
2.829543e-009
1.249281e-009
-8.174937e-010
-2.260463e-009
-2.423635e-009
-1.355231e-009
2.978712e-010
1.686077e-009
2.225509e-009
1.888282e-009
1.167620e-009
7.523711e-010
1.100531e-009
2.139026e-009
3.214977e-009
3.245096e-009
8.657256e-010
-5.633008e-009
-1.868618e-008
-4.205707e-008
-8.142873e-008
-1.447141e-007
-2.418857e-007
-3.842319e-007
-5.830261e-007
-8.476452e-007
-1.183265e-006
-1.588449e-006
-2.053189e-006
-2.558056e-006
-3.075022e-006
-3.570055e-006
-4.007066e-006
-4.352337e-006
-4.578444e-006
-4.666924e-006
-4.609375e-006
-4.407165e-006
-4.070154e-006
-3.614906e-006
-3.062725e-006
-2.437705e-006
-1.764918e-006
-1.068886e-006
-3.725051e-007
3.034532e-007
9.402882e-007
1.520977e-006
2.029727e-006
2.451713e-006
2.773051e-006
2.980961e-006
3.064059e-006
3.012831e-006
2.820438e-006
2.483984e-006
2.006205e-006
1.397318e-006
6.766175e-007
-1.266153e-007
-9.732912e-007
-1.816050e-006
-2.602332e-006
-3.278982e-006
-3.798122e-006
-4.123575e-006
-4.236700e-006
-4.140193e-006
-3.858533e-006
-3.434467e-006
-2.921970e-006
-2.377258e-006
-1.850095e-006
-1.377513e-006
-9.811617e-007
-6.681965e-007
-4.345924e-007
-2.693757e-007
-1.585333e-007
-8.795469e-008
-4.528016e-008
-2.079129e-008
-7.555824e-009
-1.046276e-009
1.524247e-009
1.891383e-009
1.241976e-009
4.384473e-010
2.217852e-011
1.515102e-010
6.264017e-010
1.056597e-009
1.109399e-009
7.048185e-010
4.985802e-011
-5.005399e-010
-6.650698e-010
-4.035234e-010
6.872699e-011
4.225715e-010
3.460407e-009
2.036688e-009
6.837121e-011
-1.532483e-009
-2.151517e-009
-1.686705e-009
-5.284368e-010
6.902999e-010
1.448986e-009
1.612928e-009
1.472995e-009
1.520986e-009
2.070476e-009
2.905294e-009
3.089991e-009
9.325835e-010
-6.058677e-009
-2.143171e-008
-5.036868e-008
-1.004876e-007