# vtk DataFile Version 3.0
vtk output
ASCII
DATASET STRUCTURED_POINTS
DIMENSIONS 100 100 1
SPACING 1 1 1
ORIGIN 0 0 0
POINT_DATA 10000
SCALARS SFBox_profile double
LOOKUP_TABLE default 
0.000000e+000
0.000000e+000
0.000000e+000
0.000000e+000
0.000000e+000
0.000000e+000
0.000000e+000
0.000000e+000
0.000000e+000
0.000000e+000
0.000000e+000
0.000000e+000
0.000000e+000
0.000000e+000
0.000000e+000
0.000000e+000
0.000000e+000
0.000000e+000
0.000000e+000
0.000000e+000
0.000000e+000
0.000000e+000
0.000000e+000
0.000000e+000
0.000000e+000
0.000000e+000
0.000000e+000
0.000000e+000
0.000000e+000
0.000000e+000
0.000000e+000
0.000000e+000
0.000000e+000
0.000000e+000
0.000000e+000
0.000000e+000
0.000000e+000
0.000000e+000
0.000000e+000
0.000000e+000
0.000000e+000
0.000000e+000
0.000000e+000
0.000000e+000
0.000000e+000
0.000000e+000
0.000000e+000
0.000000e+000
0.000000e+000
0.000000e+000
0.000000e+000
0.000000e+000
0.000000e+000
0.000000e+000
0.000000e+000
0.000000e+000
0.000000e+000
0.000000e+000
0.000000e+000
0.000000e+000
0.000000e+000
0.000000e+000
0.000000e+000
0.000000e+000
0.000000e+000
0.000000e+000
0.000000e+000
0.000000e+000
0.000000e+000
0.000000e+000
0.000000e+000
0.000000e+000
0.000000e+000
0.000000e+000
0.000000e+000
0.000000e+000
0.000000e+000
0.000000e+000
0.000000e+000
0.000000e+000
0.000000e+000
0.000000e+000
0.000000e+000
0.000000e+000
0.000000e+000
0.000000e+000
0.000000e+000
0.000000e+000
0.000000e+000
0.000000e+000
0.000000e+000
0.000000e+000
0.000000e+000
0.000000e+000
0.000000e+000
0.000000e+000
0.000000e+000
0.000000e+000
0.000000e+000
0.000000e+000
4.255469e-009
7.242365e-010
-3.748497e-009
-5.787740e-009
-3.398420e-009
2.397300e-009
7.741808e-009
8.349313e-009
2.805179e-009
-5.785430e-009
-1.156032e-008
-1.017944e-008
-2.306721e-009
6.771061e-009
1.128442e-008
9.361119e-009
3.819603e-009
-1.072490e-009
-3.466910e-009
-4.645626e-009
-6.334247e-009
-8.023578e-009
-7.432566e-009
-3.427463e-009
2.193680e-009
6.245758e-009
7.246442e-009
6.493808e-009
6.070547e-009
6.344535e-009
5.899136e-009
3.674920e-009
4.793139e-010
-1.933433e-009
-2.871442e-009
-3.261048e-009
-4.238388e-009
-5.713310e-009
-6.648037e-009
-6.485480e-009
-5.824350e-009
-5.599027e-009
-5.947625e-009
-6.187296e-009
-5.791573e-009
-5.059384e-009
-4.693250e-009
-4.912425e-009
-5.228175e-009
-5.108594e-009
-4.662038e-009
-4.488416e-009
-4.899415e-009
-5.497420e-009
-5.665904e-009
-5.369284e-009
-5.216366e-009
-5.642420e-009
-6.245907e-009
-6.211004e-009
-5.345837e-009
-4.354035e-009
-3.875842e-009
-3.521942e-009
-2.283443e-009
8.286275e-011
2.524813e-009
3.858929e-009
4.186597e-009
4.629274e-009
5.611711e-009
5.969945e-009
4.245264e-009
6.608525e-010
-2.780897e-009
-4.350637e-009
-4.291340e-009
-4.046941e-009
-4.053229e-009
-3.018868e-009
2.272127e-010
4.569592e-009
6.979576e-009
5.346470e-009
7.231879e-010
-3.511661e-009
-4.699500e-009
-2.989934e-009
-5.586282e-010
8.197684e-010
1.148217e-009
1.388612e-009
1.821759e-009
1.629079e-009
8.617094e-011
-2.155572e-009
-3.302675e-009
-2.074788e-009
8.862674e-010
3.346029e-009
-3.362659e-010
3.254600e-010
8.714541e-010
5.950007e-010
-4.246694e-010
-1.366100e-009
-1.410618e-009
-4.749392e-010
7.536227e-010
1.478058e-009
1.464289e-009
1.052387e-009
5.625561e-010
-1.520505e-010
-1.398166e-009
-2.893081e-009
-3.559264e-009
-2.372885e-009
4.734203e-010
3.417931e-009
4.764718e-009
4.124376e-009
2.537626e-009
1.182370e-009
1.693087e-010
-1.215112e-009
-3.231612e-009
-5.039169e-009
-5.514754e-009
-4.519286e-009
-3.030487e-009
-1.998440e-009
-1.359654e-009
-3.772894e-010
1.232490e-009
2.859432e-009
3.744254e-009
3.883891e-009
3.949574e-009
4.399375e-009
4.956705e-009
5.063721e-009
4.647160e-009
4.207257e-009
4.175820e-009
4.406488e-009
4.424786e-009
4.070930e-009
3.702872e-009
3.725268e-009
4.068369e-009
4.285437e-009
4.138041e-009
3.909710e-009
4.028833e-009
4.477609e-009
4.770360e-009
4.563222e-009
4.103548e-009
3.888852e-009
3.947741e-009
3.717670e-009
2.749440e-009
1.334412e-009
1.797811e-010
-4.877045e-010
-1.183104e-009
-2.378236e-009
-3.688759e-009
-4.171633e-009
-3.427689e-009
-2.091491e-009
-1.046217e-009
-3.774504e-010
5.532640e-010
2.004366e-009
3.196515e-009
3.044197e-009
1.437244e-009
-5.029969e-010
-1.526412e-009
-1.419664e-009
-9.353939e-010
-7.229529e-010
-6.241885e-010
-1.082262e-010
8.262412e-010
1.460975e-009
1.121227e-009
-2.193953e-011
-1.042072e-009
-1.139226e-009
-3.703994e-010
4.847467e-010
7.071223e-010
2.592644e-010
-2.999700e-010
-4.213455e-010
-6.707679e-011
3.270772e-010
-5.046560e-009
-5.418212e-010
4.837807e-009
6.744534e-009
3.215721e-009
-3.721422e-009
-9.180430e-009
-8.779636e-009
-1.996272e-009
7.075387e-009
1.242802e-008
1.044137e-008
2.440909e-009
-6.513116e-009
-1.147984e-008
-1.083886e-008
-6.406161e-009
-1.033927e-009
3.625361e-009
7.283277e-009
9.729773e-009
1.011214e-008
7.693866e-009
2.998740e-009
-2.212393e-009
-6.203392e-009
-8.373726e-009
-9.134840e-009
-8.981618e-009
-7.965708e-009
-6.015886e-009
-3.428021e-009
-7.956919e-010
1.466513e-009
3.337200e-009
4.926015e-009
6.183564e-009
6.977229e-009
7.341220e-009
7.483755e-009
7.542513e-009
7.463180e-009
7.174683e-009
6.782763e-009
6.482570e-009
6.318430e-009
6.151070e-009
5.887985e-009
5.643113e-009
5.590631e-009
5.721877e-009
5.858053e-009
5.903385e-009
5.974802e-009
6.220119e-009
6.585278e-009
6.864106e-009
6.954546e-009
6.947198e-009
6.919462e-009
6.740621e-009
6.176767e-009
5.144739e-009
3.753030e-009
2.098329e-009
1.589115e-010
-2.029714e-009
-4.185406e-009
-5.893708e-009
-6.886381e-009
-7.078777e-009
-6.336621e-009
-4.421165e-009
-1.363414e-009
2.162177e-009
5.058333e-009
6.503767e-009
6.353878e-009
4.835403e-009
2.100822e-009
-1.580897e-009
-5.189997e-009
-6.957682e-009
-5.544310e-009
-1.432309e-009
3.031949e-009
5.285760e-009
4.445196e-009
1.704357e-009
-9.681306e-010
-2.396117e-009
-2.592885e-009
-2.017118e-009
-8.695907e-010
7.551125e-010
2.297220e-009
2.742663e-009
1.472773e-009
-9.089314e-010
-2.789378e-009
-4.853656e-009
-1.306086e-009
3.385759e-009
5.957588e-009
4.243202e-009
-1.111362e-009
-6.546992e-009
-7.799800e-009
-3.253879e-009
4.249688e-009
9.159077e-009
7.594862e-009
7.321593e-010
-6.049388e-009
-7.760138e-009
-3.989776e-009
1.228333e-009
3.576584e-009
2.345920e-009
2.621775e-010
-8.366968e-011
9.961185e-010
1.234394e-009
-4.529586e-010
-2.537445e-009
-2.729908e-009
-6.851593e-010
1.699140e-009
2.540050e-009
1.913442e-009
1.298537e-009
1.546471e-009
1.992170e-009
1.570467e-009
2.499007e-010
-1.019916e-009
-1.543739e-009
-1.597260e-009
-1.853352e-009
-2.466124e-009
-2.994963e-009
-3.079548e-009
-2.873855e-009
-2.762668e-009
-2.871477e-009
-3.005962e-009
-2.976123e-009
-2.820431e-009
-2.710223e-009
-2.742310e-009
-2.864190e-009
-2.949624e-009
-2.921467e-009
-2.831986e-009
-2.821035e-009
-2.942787e-009
-3.038868e-009
-2.876959e-009
-2.452836e-009
-2.038361e-009
-1.813582e-009
-1.544930e-009
-8.444551e-010
2.307523e-010
1.088609e-009
1.292105e-009
1.157328e-009
1.338144e-009
1.829442e-009
1.789418e-009
6.279127e-010
-9.866719e-010
-1.678559e-009
-9.684878e-010
1.205733e-010
3.689709e-010
-4.216887e-011
1.879229e-010
1.533689e-009
2.575239e-009
1.459653e-009
-1.658940e-009
-4.237169e-009
-3.785116e-009
-5.190522e-010
2.772658e-009
3.522861e-009
1.767105e-009
-3.416820e-010
-1.049222e-009
-6.199412e-010
-4.635314e-010
-1.114096e-009
-1.541348e-009
-5.217553e-010
1.630612e-009
3.046309e-009
2.124525e-009
-7.057357e-010
-3.167274e-009
8.883984e-010
-9.036984e-010
-2.370748e-009
-1.607671e-009
1.135814e-009
3.627801e-009
3.728541e-009
1.324321e-009
-1.737936e-009
-3.526761e-009
-3.671591e-009
-3.066244e-009
-2.177182e-009
-2.063576e-010
3.598464e-009
7.941170e-009
9.538977e-009
5.933089e-009
-1.656220e-009
-8.766791e-009
-1.141609e-008
-9.366779e-009
-5.546740e-009
-2.512168e-009
-9.108891e-011
3.311346e-009
7.771690e-009
1.111813e-008
1.126936e-008
8.607953e-009
5.446672e-009
3.395074e-009
1.931302e-009
-2.974164e-010
-3.407462e-009
-6.092499e-009
-7.294781e-009
-7.407786e-009
-7.582961e-009
-8.263175e-009
-8.844978e-009
-8.676342e-009
-7.931471e-009
-7.322122e-009
-7.209561e-009
-7.287290e-009
-7.092943e-009
-6.595299e-009
-6.181825e-009
-6.175248e-009
-6.480183e-009
-6.718928e-009
-6.674873e-009
-6.554956e-009
-6.753976e-009
-7.340754e-009
-7.881504e-009
-7.909508e-009
-7.521054e-009
-7.265637e-009
-7.335814e-009
-7.108573e-009
-5.805872e-009
-3.538130e-009
-1.281344e-009
3.473308e-010
1.901811e-009
4.243410e-009
7.007683e-009
8.549456e-009
7.705218e-009
5.187059e-009
2.702669e-009
8.670955e-010
-1.294576e-009
-4.475546e-009
-7.326435e-009
-7.387129e-009
-3.885421e-009
9.905565e-010
4.054133e-009
4.126216e-009
2.675753e-009
1.613961e-009
1.112860e-009
2.735100e-012
-2.062317e-009
-3.611475e-009
-2.875813e-009
6.522953e-012
2.774949e-009
3.169113e-009
1.103404e-009
-1.367044e-009
-2.121001e-009
-8.903157e-010
7.795247e-010
1.237214e-009
2.874417e-010
-8.276945e-010
6.972698e-009
7.818256e-010
-6.342606e-009
-8.498803e-009
-3.679367e-009
4.677646e-009
1.029006e-008
8.829398e-009
1.195374e-009
-7.309113e-009
-1.113412e-008
-8.446841e-009
-1.755025e-009
4.769327e-009
8.368112e-009
8.567612e-009
6.036640e-009
1.581410e-009
-3.581324e-009
-7.419539e-009
-8.035478e-009
-5.364417e-009
-1.469556e-009
1.321748e-009
2.468242e-009
3.089687e-009
3.982102e-009
4.415964e-009
3.242687e-009
7.284436e-010
-1.424260e-009
-1.960724e-009
-1.419321e-009
-1.241105e-009
-1.892193e-009
-2.428322e-009
-1.904414e-009
-6.493579e-010
2.049435e-010
1.625812e-010
-1.442608e-010
9.518093e-011
8.436542e-010
1.380065e-009
1.277313e-009
8.896424e-010
8.382560e-010
1.246702e-009
1.651534e-009
1.607675e-009
1.222910e-009
1.011784e-009
1.260793e-009
1.654450e-009
1.633948e-009
1.099957e-009
5.808353e-010
5.661355e-010
8.008198e-010
5.307239e-010
-4.902073e-010
-1.547152e-009
-1.797362e-009
-1.374558e-009
-1.217056e-009
-1.717590e-009
-2.011949e-009
-1.019017e-009
1.040700e-009
2.723585e-009
3.045193e-009
2.552588e-009
2.325658e-009
2.273828e-009
1.137361e-009
-1.663339e-009
-4.750250e-009
-5.876993e-009
-4.164668e-009
-8.440484e-010
2.177121e-009
3.966604e-009
4.577437e-009
3.974219e-009
1.778460e-009
-1.699008e-009
-4.742599e-009
-5.249774e-009
-2.676438e-009
1.240824e-009
3.880445e-009
3.849474e-009
1.786584e-009
-6.118193e-010
-2.054839e-009
-2.247791e-009
-1.521444e-009
-3.228497e-010
9.082876e-010
1.699975e-009
6.707708e-009
2.115220e-009
-3.875784e-009
-7.150926e-009
-5.315763e-009
4.652807e-010
5.964072e-009
6.917254e-009
2.558555e-009
-3.447846e-009
-5.984591e-009
-3.048923e-009
2.354418e-009
5.021981e-009
2.460634e-009
-2.924507e-009
-6.398550e-009
-5.348426e-009
-1.085604e-009
3.264764e-009
5.839125e-009
6.760586e-009
6.569295e-009
5.017562e-009
1.735282e-009
-2.570851e-009
-6.315429e-009
-8.417753e-009
-9.009734e-009
-8.676215e-009
-7.491276e-009
-5.207248e-009
-2.128926e-009
7.872629e-010
2.858837e-009
4.330911e-009
5.832177e-009
7.402138e-009
8.428874e-009
8.531057e-009
8.131505e-009
7.953685e-009
8.153835e-009
8.234209e-009
7.789119e-009
7.069388e-009
6.666561e-009
6.777807e-009
6.997035e-009
6.864507e-009
6.462209e-009
6.311177e-009
6.702174e-009
7.302149e-009
7.554714e-009
7.390279e-009
7.316362e-009
7.712633e-009
8.226405e-009
8.115689e-009
7.150278e-009
5.865001e-009
4.775066e-009
3.609981e-009
1.674651e-009
-1.091140e-009
-3.808914e-009
-5.568683e-009
-6.317678e-009
-6.532235e-009
-6.223072e-009
-4.790533e-009
-2.009219e-009
1.252011e-009
3.647700e-009
4.523637e-009
4.141619e-009
2.905330e-009
9.438751e-010
-1.315146e-009
-2.704245e-009
-2.171633e-009
-1.569040e-010
1.445368e-009
1.125454e-009
-6.038301e-010
-1.781421e-009
-1.189445e-009
3.986538e-010
1.300905e-009
9.049609e-010
1.491935e-010
9.712740e-011
5.351882e-010
3.567661e-010
-8.234520e-010
-1.919833e-009
-1.512906e-009
4.176400e-010
2.228722e-009
-1.033122e-009
1.266362e-009
3.087933e-009
2.024814e-009
-1.449654e-009
-4.448063e-009
-4.525271e-009
-1.898318e-009
1.216587e-009
3.157004e-009
4.161803e-009
4.992794e-009
4.843652e-009
1.693587e-009
-4.744210e-009
-1.104118e-008
-1.217312e-008
-6.228282e-009
3.286234e-009
1.032935e-008
1.152825e-008
8.319670e-009
4.279675e-009
1.236202e-009
-1.501069e-009
-4.756316e-009
-7.589328e-009
-8.253478e-009
-6.394065e-009
-3.496613e-009
-1.194656e-009
2.303024e-010
1.452471e-009
2.762468e-009
3.693169e-009
3.844743e-009
3.503646e-009
3.211111e-009
3.051132e-009
2.706046e-009
2.086430e-009
1.537478e-009
1.344716e-009
1.316489e-009
1.068935e-009
5.894173e-010
2.601239e-010
3.115141e-010
4.862992e-010
3.916055e-010
4.871132e-011
-1.285342e-010
9.709839e-011
4.586415e-010
5.621730e-010
4.508778e-010
5.629536e-010
1.129825e-009
1.856040e-009
2.331307e-009
2.574273e-009
2.910725e-009
3.367670e-009
3.499642e-009
2.932694e-009
1.820035e-009
5.213874e-010
-9.679847e-010
-2.863177e-009
-4.854338e-009
-5.975326e-009
-5.503436e-009
-3.728682e-009
-1.458176e-009
1.040019e-009
3.975556e-009
6.774211e-009
7.594890e-009
4.939102e-009
-2.475021e-010
-4.785784e-009
-6.036665e-009
-4.226852e-009
-1.681113e-009
-4.294644e-011
1.073043e-009
2.577861e-009
3.871490e-009
3.195702e-009
5.951623e-011
-3.429880e-009
-4.306358e-009
-1.795509e-009
1.763965e-009
3.220958e-009
1.675749e-009
-8.813204e-010
-1.840465e-009
-6.253932e-010
9.816459e-010
-9.328795e-009
-1.309218e-009
7.710936e-009
1.023282e-008
4.358505e-009
-4.940873e-009
-1.025465e-008
-7.913710e-009
-5.389231e-010
5.960539e-009
7.652320e-009
5.048788e-009
1.126847e-009
-2.024241e-009
-4.100426e-009
-4.936416e-009
-3.522910e-009
4.599330e-010
4.791129e-009
5.818578e-009
2.094551e-009
-3.648995e-009
-6.920151e-009
-5.797098e-009
-2.285568e-009
5.758832e-010
2.072771e-009
3.692696e-009
6.270842e-009
8.439954e-009
8.281342e-009
5.743694e-009
2.645882e-009
4.968329e-010
-9.151327e-010
-2.600786e-009
-4.721969e-009
-6.440181e-009
-7.150911e-009
-7.218172e-009
-7.334343e-009
-7.612157e-009
-7.659611e-009
-7.321586e-009
-6.922377e-009
-6.759706e-009
-6.713069e-009
-6.528201e-009
-6.259916e-009
-6.178533e-009
-6.334677e-009
-6.492494e-009
-6.521126e-009
-6.601024e-009
-6.909184e-009
-7.292110e-009
-7.464570e-009
-7.419505e-009
-7.360551e-009
-7.227254e-009
-6.605673e-009
-5.275892e-009
-3.585176e-009
-1.976065e-009
-3.145070e-010
1.852522e-009
4.306430e-009
5.925370e-009
5.830310e-009
4.470900e-009
3.031530e-009
1.844998e-009
1.123773e-010
-2.456362e-009
-4.369339e-009
-3.627165e-009
-3.131652e-010
2.893552e-009
3.325819e-009
1.077841e-009
-1.404658e-009
-2.240711e-009
-1.826107e-009
-1.457037e-009
-1.133939e-009
2.878801e-010
2.865208e-009
4.534394e-009
3.087948e-009
-1.038113e-009
-4.653345e-009
-4.780272e-009
-1.511699e-009
2.240830e-009
3.620051e-009
2.232505e-009
-6.420182e-011
-1.274869e-009
-9.813865e-010
-2.563585e-010
-9.295089e-009
-2.821274e-009
5.178524e-009
8.878058e-009
5.846456e-009
-1.069837e-009
-6.031115e-009
-5.186553e-009
-9.691522e-011
3.806615e-009
2.551927e-009
-2.439410e-009
-5.853973e-009
-3.868259e-009
2.224023e-009
7.678567e-009
8.929389e-009
6.049279e-009
1.184970e-009
-4.034525e-009
-8.775000e-009
-1.161021e-008
-1.057490e-008
-5.316296e-009
1.615117e-009
6.661222e-009
8.434902e-009
8.359513e-009
8.159497e-009
7.621216e-009
5.428558e-009
1.594550e-009
-2.014707e-009
-3.744699e-009
-3.939935e-009
-4.147021e-009
-5.013059e-009
-5.706982e-009
-5.350984e-009
-4.275248e-009
-3.485991e-009
-3.342415e-009
-3.304463e-009
-2.865831e-009
-2.207894e-009
-1.790885e-009
-1.688261e-009
-1.618683e-009
-1.434522e-009
-1.257195e-009
-1.185979e-009
-1.168688e-009
-1.200576e-009
-1.392213e-009
-1.733309e-009
-2.023286e-009
-2.215825e-009
-2.622809e-009
-3.483131e-009
-4.444837e-009
-4.863554e-009
-4.655925e-009
-4.419613e-009
-4.441995e-009
-3.979937e-009
-2.075430e-009
1.011155e-009
3.813270e-009
5.311633e-009
5.986229e-009
6.680057e-009
6.828596e-009
4.777701e-009
1.310530e-010
-4.962920e-009
-7.565740e-009
-6.756915e-009
-4.089250e-009
-1.406855e-009
9.009324e-010
3.116011e-009
4.544721e-009
3.822639e-009
9.590011e-010
-1.890464e-009
-2.433595e-009
-7.424093e-010
9.110080e-010
7.240634e-010
-7.272799e-010
-1.505791e-009
-7.310088e-010
6.099452e-010
1.134543e-009
6.749033e-010
1.051133e-010
3.340084e-013
5.624123e-011
-1.750506e-010
-5.260610e-010
3.982362e-010
-1.271551e-009
-2.393500e-009
-1.333373e-009
1.135187e-009
2.909692e-009
3.004321e-009
2.243438e-009
1.481633e-009
1.795995e-011
-3.236668e-009
-7.098739e-009
-7.870895e-009
-2.935318e-009
5.503082e-009
1.134609e-008
1.002216e-008
2.785505e-009
-4.737614e-009
-7.925168e-009
-6.525437e-009
-3.129732e-009
2.345807e-010
3.107284e-009
5.086504e-009
5.040104e-009
2.457636e-009
-1.308923e-009
-4.128286e-009
-5.223725e-009
-5.478243e-009
-5.655229e-009
-5.198049e-009
-3.257929e-009
-2.861092e-010
2.217015e-009
3.450412e-009
4.093003e-009
5.130514e-009
6.484131e-009
7.275749e-009
7.139032e-009
6.671869e-009
6.569037e-009
6.802474e-009
6.888258e-009
6.635277e-009
6.302040e-009
6.160065e-009
6.221996e-009
6.381379e-009
6.555283e-009
6.652111e-009
6.631424e-009
6.661366e-009
6.972900e-009
7.425533e-009
7.469755e-009
6.789763e-009
5.780709e-009
5.008673e-009
4.281019e-009
2.766979e-009
2.285190e-010
-2.341802e-009
-3.754971e-009
-4.008186e-009
-4.023767e-009
-4.058559e-009
-3.147351e-009
-5.811559e-010
2.579981e-009
4.220247e-009
3.341219e-009
9.042046e-010
-1.550686e-009
-3.364920e-009
-4.397317e-009
-3.948934e-009
-1.229264e-009
2.938652e-009
5.873461e-009
5.343288e-009
1.908959e-009
-1.659992e-009
-3.251185e-009
-3.071425e-009
-2.380486e-009
-1.457308e-009
3.207605e-010
2.656021e-009
3.727209e-009
2.101152e-009
-1.169926e-009
-3.205634e-009
-2.287008e-009
2.867823e-010
1.729518e-009
9.113968e-010
-5.715594e-010
1.091918e-008
1.836861e-009
-8.099702e-009
-1.065934e-008
-4.616645e-009
4.010449e-009
8.117530e-009
5.746195e-009
5.767290e-010
-2.818153e-009
-3.216878e-009
-2.286388e-009
-1.290476e-009
1.642322e-010
2.084598e-009
2.510224e-009
-4.377904e-010
-5.203046e-009
-7.118748e-009
-3.053904e-009
4.839838e-009
1.091406e-008
1.138555e-008
7.191610e-009
1.736058e-009
-2.887797e-009
-6.682113e-009
-9.735991e-009
-1.105273e-008
-9.779268e-009
-6.613319e-009
-3.168476e-009
-2.950089e-010
2.261775e-009
4.695401e-009
6.457027e-009
7.029380e-009
6.798090e-009
6.615320e-009
6.721984e-009
6.609895e-009
5.923949e-009
5.025771e-009
4.488880e-009
4.371461e-009
4.267536e-009
3.907383e-009
3.428007e-009
3.102235e-009
3.036744e-009
3.152820e-009
3.287806e-009
3.295400e-009
3.208530e-009
3.318245e-009
3.893146e-009
4.764218e-009
5.421880e-009
5.664573e-009
5.896190e-009
6.487980e-009
7.021026e-009
6.599656e-009
4.941255e-009
2.701158e-009
5.192302e-010
-1.788436e-009
-4.603021e-009
-7.334345e-009
-8.560441e-009
-7.465826e-009
-4.622419e-009
-1.133980e-009
2.384620e-009
5.432776e-009
6.781329e-009
5.168657e-009
1.175286e-009
-2.462335e-009
-3.253339e-009
-1.452493e-009
4.968358e-010
8.877573e-010
2.971838e-010
2.599037e-011
-1.158850e-011
-8.459849e-010
-2.245096e-009
-2.265368e-009
3.000656e-010
3.698942e-009
4.526528e-009
1.474870e-009
-2.874939e-009
-4.536737e-009
-2.229744e-009
1.414458e-009
2.780025e-009
1.036002e-009
-1.276727e-009
1.165216e-008
2.941979e-009
-6.965437e-009
-1.015333e-008
-4.946499e-009
2.961531e-009
6.067477e-009
2.250936e-009
-3.461506e-009
-4.421977e-009
6.359670e-010
6.568918e-009
7.533855e-009
2.771749e-009
-3.638346e-009
-7.639626e-009
-8.352569e-009
-6.646658e-009
-2.671821e-009
3.529098e-009
9.663687e-009
1.162685e-008
7.413066e-009
-2.119935e-010
-6.049362e-009
-7.312400e-009
-5.382621e-009
-3.014857e-009
-1.098477e-009
1.192370e-009
4.030305e-009
6.088546e-009
6.153978e-009
4.603883e-009
2.752690e-009
1.271674e-009
-1.279996e-010
-1.709191e-009
-3.119736e-009
-3.928976e-009
-4.254684e-009
-4.527955e-009
-4.871461e-009
-5.034145e-009
-4.864978e-009
-4.569326e-009
-4.446500e-009
-4.549019e-009
-4.684703e-009
-4.672141e-009
-4.537612e-009
-4.493569e-009
-4.723334e-009
-5.146657e-009
-5.443122e-009
-5.397619e-009
-5.163441e-009
-5.011621e-009
-4.834558e-009
-4.153741e-009
-2.737372e-009
-9.647351e-010
6.521487e-010
2.087887e-009
3.555716e-009
4.733391e-009
4.775572e-009
3.311044e-009
9.979888e-010
-1.254182e-009
-3.196509e-009
-4.774032e-009
-5.051727e-009
-2.685687e-009
2.034738e-009
6.370654e-009
7.326012e-009
4.595646e-009
6.272138e-010
-2.226360e-009
-3.713529e-009
-4.524582e-009
-4.247563e-009
-1.839304e-009
2.000955e-009
4.405372e-009
3.239081e-009
-1.628887e-010
-2.223606e-009
-1.126895e-009
1.252431e-009
1.781130e-009
-2.200259e-010
-2.387956e-009
-2.225398e-009
1.325044e-010
2.272255e-009
2.153079e-009
4.518537e-011
-1.948561e-009
1.364500e-009
7.131398e-010
-2.743468e-010
-6.877431e-010
1.840926e-010
1.359495e-009
5.390300e-010
-2.939736e-009
-6.009983e-009
-4.324536e-009
2.489591e-009
9.044557e-009
9.041166e-009
1.964930e-009
-6.048306e-009
-8.388773e-009
-4.237908e-009
1.758337e-009
4.972569e-009
4.524626e-009
1.929691e-009
-1.777294e-009
-6.075024e-009
-9.133546e-009
-8.188606e-009
-2.562982e-009
4.774277e-009
9.742176e-009
1.090443e-008
9.925284e-009
8.651451e-009
6.954518e-009
3.835260e-009
-3.681625e-010
-3.930924e-009
-5.694836e-009
-6.177836e-009
-6.526889e-009
-7.025490e-009
-7.103866e-009
-6.453747e-009
-5.521357e-009
-4.869670e-009
-4.504973e-009
-4.062891e-009
-3.422682e-009
-2.854516e-009
-2.602221e-009
-2.556337e-009
-2.440874e-009
-2.210963e-009
-2.117053e-009
-2.363460e-009
-2.832762e-009
-3.266395e-009
-3.660103e-009
-4.283063e-009
-5.229458e-009
-6.143249e-009
-6.591208e-009
-6.576269e-009
-6.354780e-009
-5.755342e-009
-4.128458e-009
-1.248020e-009
2.081485e-009
4.769209e-009
6.575928e-009
7.876001e-009
8.292733e-009
6.490655e-009
2.027005e-009
-3.094425e-009
-5.752037e-009
-4.756240e-009
-1.855733e-009
5.224226e-010
1.684933e-009
2.200068e-009
1.896466e-009
-1.275673e-010
-3.300648e-009
-4.862635e-009
-2.616481e-009
2.044216e-009
5.106462e-009
4.164554e-009
7.931025e-010
-1.692669e-009
-1.974893e-009
-1.361272e-009
-1.214704e-009
-1.130189e-009
-1.076593e-010
1.477083e-009
2.126362e-009
1.216078e-009
-2.244922e-010
-9.530707e-010
-9.645540e-010
-1.015695e-008
-2.128428e-009
6.330719e-009
8.450493e-009
4.267704e-009
-1.087285e-009
-3.556920e-009
-3.313445e-009
-2.383537e-009
-1.288574e-009
5.878979e-010
2.367441e-009
1.728930e-009
-1.599914e-009
-3.980794e-009
-1.384990e-009
5.303994e-009
1.011459e-008
7.932398e-009
-1.788502e-010
-8.338754e-009
-1.175556e-008
-1.012696e-008
-5.737498e-009
-2.751746e-010
5.373366e-009
9.528038e-009
1.005437e-008
6.728408e-009
2.020782e-009
-1.299543e-009
-2.754252e-009
-3.668949e-009
-4.668450e-009
-4.777592e-009
-3.108485e-009
-4.213639e-010
1.677377e-009
2.623184e-009
3.242333e-009
4.327210e-009
5.579626e-009
6.223437e-009
6.158164e-009
6.013581e-009
6.226825e-009
6.550982e-009
6.575210e-009
6.364340e-009
6.308497e-009
6.516029e-009
6.694613e-009
6.652058e-009
6.599185e-009
6.761314e-009
6.901615e-009
6.552727e-009
5.672382e-009
4.692059e-009
3.782012e-009
2.456126e-009
3.012771e-010
-2.115056e-009
-3.624123e-009
-3.792546e-009
-3.288310e-009
-2.605606e-009
-1.051636e-009
2.178983e-009
6.096126e-009
8.084497e-009
6.453839e-009
2.234652e-009
-2.081265e-009
-5.015314e-009
-6.500349e-009
-6.299060e-009
-3.598759e-009
1.129476e-009
5.034386e-009
5.160482e-009
1.809911e-009
-1.525895e-009
-1.990166e-009
-2.386399e-010
1.072513e-009
7.827623e-010
2.172254e-011
-1.595961e-010
-3.724111e-010
-1.386029e-009
-2.179078e-009
-9.762925e-010
1.873390e-009
3.502211e-009
1.823606e-009
-1.561234e-009
-2.936676e-009
-9.097328e-010
1.839602e-009
-1.222374e-008
-2.077360e-009
8.151947e-009
9.418093e-009
2.278817e-009
-4.758202e-009
-4.686205e-009
1.110290e-009
5.458567e-009
3.681932e-009
-2.025456e-009
-6.188680e-009
-6.119902e-009
-3.224260e-009
4.103387e-010
4.227314e-009
7.488229e-009
7.629067e-009
2.684585e-009
-4.944223e-009
-9.310637e-009
-6.606071e-009
8.584340e-010
7.191610e-009
8.693760e-009
6.106152e-009
1.910139e-009
-2.616321e-009
-7.036748e-009
-1.008635e-008
-1.013580e-008
-7.202052e-009
-3.208675e-009
1.447797e-010
2.930498e-009
5.945335e-009
8.904399e-009
1.059909e-008
1.061852e-008
9.972514e-009
9.745647e-009
9.800983e-009
9.299527e-009
8.084644e-009
6.904579e-009
6.332412e-009
6.079669e-009
5.608041e-009
4.975847e-009
4.665937e-009
4.796992e-009
4.999732e-009
5.098059e-009
5.444009e-009
6.328851e-009
7.410590e-009
8.138730e-009
8.569193e-009
9.221112e-009
1.005145e-008
1.013025e-008
8.712867e-009
6.239809e-009
3.702729e-009
1.233586e-009
-1.870512e-009
-5.512560e-009
-7.984617e-009
-7.512991e-009
-4.298533e-009
-3.160868e-010
2.738285e-009
4.445461e-009
4.618501e-009
2.579839e-009
-1.482477e-009
-5.139511e-009
-5.273773e-009
-1.445540e-009
3.244018e-009
5.282875e-009
4.101190e-009
1.674156e-009
-4.194723e-010
-2.178119e-009
-3.537218e-009
-3.278938e-009
-7.484323e-010
2.214363e-009
2.705966e-009
3.541791e-010
-1.804048e-009
-9.085067e-010
1.982624e-009
2.963547e-009
1.480340e-010
-3.662122e-009
-4.005282e-009
-4.180613e-011
4.197049e-009
-4.023878e-009
6.978027e-010
4.685358e-009
3.080033e-009
-3.017481e-009
-7.067606e-009
-3.783464e-009
4.601303e-009
9.853192e-009
6.319263e-009
-2.757907e-009
-8.639629e-009
-6.436518e-009
3.547806e-010
4.724610e-009
3.698629e-009
-2.038396e-010
-3.479796e-009
-4.966907e-009
-4.519558e-009
-1.143187e-009
5.321613e-009
1.162610e-008
1.276674e-008
7.029402e-009
-1.860069e-009
-8.407445e-009
-1.029104e-008
-8.913980e-009
-6.175631e-009
-2.472058e-009
2.077080e-009
6.164508e-009
8.234567e-009
8.243102e-009
7.422048e-009
6.475669e-009
4.950314e-009
2.490384e-009
-2.007211e-010
-2.194615e-009
-3.576091e-009
-5.158642e-009
-7.180300e-009
-8.975380e-009
-1.000629e-008
-1.059231e-008
-1.128835e-008
-1.199468e-008
-1.218251e-008
-1.178202e-008
-1.127353e-008
-1.086961e-008
-1.015517e-008
-8.795313e-009
-7.151324e-009
-5.736829e-009
-4.332160e-009
-2.244601e-009
5.519217e-010
3.156229e-009
4.863395e-009
5.975452e-009
6.966379e-009
7.249255e-009
5.601036e-009
1.864941e-009
-2.490888e-009
-5.766295e-009
-7.307995e-009
-6.999045e-009
-4.360131e-009
6.230201e-010
5.941976e-009
8.275126e-009
6.099856e-009
1.471341e-009
-2.064431e-009
-2.902470e-009
-1.981203e-009
-5.593942e-010
1.080017e-009
2.436870e-009
1.971440e-009
-1.016048e-009
-4.307478e-009
-4.366869e-009
-5.276223e-010
3.649303e-009
4.173999e-009
1.139373e-009
-1.655338e-009
-1.385294e-009
7.003922e-010
1.306437e-009
-6.753868e-010
-2.922177e-009
-2.547559e-009
5.464652e-010
3.515112e-009
5.706246e-009
2.466847e-009
-1.267509e-009
-3.555830e-009
-4.498336e-009
-4.156644e-009
-1.526773e-009
2.995318e-009
5.825203e-009
3.528743e-009
-2.048802e-009
-4.550698e-009
-4.618366e-010
5.878084e-009
6.724810e-009
-2.885322e-011
-8.309208e-009
-1.070020e-008
-5.938302e-009
1.381675e-009
6.670433e-009
8.628871e-009
7.484004e-009
3.130996e-009
-3.407553e-009
-8.462138e-009
-8.113281e-009
-2.267557e-009
5.056602e-009
9.824567e-009
1.128939e-008
1.091914e-008
9.463110e-009
6.397140e-009
1.703790e-009
-3.344627e-009
-7.573583e-009
-1.113388e-008
-1.477815e-008
-1.855174e-008
-2.190928e-008
-2.477968e-008
-2.770476e-008
-3.088887e-008
-3.378648e-008
-3.588173e-008
-3.735418e-008
-3.858226e-008
-3.936758e-008
-3.917660e-008
-3.798807e-008
-3.634456e-008
-3.453113e-008
-3.224424e-008
-2.929866e-008
-2.617834e-008
-2.344925e-008
-2.093035e-008
-1.799086e-008
-1.454410e-008
-1.112546e-008
-7.898856e-009
-4.259258e-009
1.590803e-010
4.561780e-009
7.649879e-009
8.880202e-009
8.420368e-009
6.155294e-009
1.877473e-009
-3.177739e-009
-6.096497e-009
-4.733853e-009
-1.584168e-010
4.241286e-009
6.010224e-009
5.155406e-009
2.654800e-009
-9.572841e-010
-4.671256e-009
-6.084144e-009
-3.426204e-009
1.490412e-009
4.181495e-009
2.320359e-009
-1.425756e-009
-2.571581e-009
-1.588482e-010
2.513073e-009
2.353660e-009
3.831448e-011
-1.581483e-009
-1.289936e-009
-3.380649e-010
-3.286956e-011
-1.181312e-010
1.276362e-010
4.766853e-010
3.085700e-010
-1.500970e-010
8.833593e-009
6.874765e-010
-6.302286e-009
-5.434930e-009
3.693324e-010
3.630477e-009
1.603937e-009
-1.977604e-009
-3.112679e-009
-2.042708e-009
-7.724549e-010
8.721218e-010
3.955558e-009
6.513489e-009
4.488219e-009
-2.376573e-009
-8.160305e-009
-6.668813e-009
1.127090e-009
7.723216e-009
7.158830e-009
6.404173e-010
-6.173325e-009
-9.300260e-009
-8.367275e-009
-4.179964e-009