# vtk DataFile Version 3.0
vtk output
ASCII
DATASET STRUCTURED_POINTS
DIMENSIONS 100 100 1
SPACING 1 1 1
ORIGIN 0 0 0
POINT_DATA 10000
SCALARS SFBox_profile double
LOOKUP_TABLE default 
0.000000e+000
0.000000e+000
0.000000e+000
0.000000e+000
0.000000e+000
0.000000e+000
0.000000e+000
0.000000e+000
0.000000e+000
0.000000e+000
0.000000e+000
0.000000e+000
0.000000e+000
0.000000e+000
0.000000e+000
0.000000e+000
0.000000e+000
0.000000e+000
0.000000e+000
0.000000e+000
0.000000e+000
0.000000e+000
0.000000e+000
0.000000e+000
0.000000e+000
0.000000e+000
0.000000e+000
0.000000e+000
0.000000e+000
0.000000e+000
0.000000e+000
0.000000e+000
0.000000e+000
0.000000e+000
0.000000e+000
0.000000e+000
0.000000e+000
0.000000e+000
0.000000e+000
0.000000e+000
0.000000e+000
0.000000e+000
0.000000e+000
0.000000e+000
0.000000e+000
0.000000e+000
0.000000e+000
0.000000e+000
0.000000e+000
0.000000e+000
0.000000e+000
0.000000e+000
0.000000e+000
0.000000e+000
0.000000e+000
0.000000e+000
0.000000e+000
0.000000e+000
0.000000e+000
0.000000e+000
0.000000e+000
0.000000e+000
0.000000e+000
0.000000e+000
0.000000e+000
0.000000e+000
0.000000e+000
0.000000e+000
0.000000e+000
0.000000e+000
0.000000e+000
0.000000e+000
0.000000e+000
0.000000e+000
0.000000e+000
0.000000e+000
0.000000e+000
0.000000e+000
0.000000e+000
0.000000e+000
0.000000e+000
0.000000e+000
0.000000e+000
0.000000e+000
0.000000e+000
0.000000e+000
0.000000e+000
0.000000e+000
0.000000e+000
0.000000e+000
0.000000e+000
0.000000e+000
0.000000e+000
0.000000e+000
0.000000e+000
0.000000e+000
0.000000e+000
0.000000e+000
0.000000e+000
0.000000e+000
-2.638226e-007
-1.791631e-007
-5.212215e-008
5.713023e-008
1.041107e-007
8.225131e-008
2.115685e-008
-3.592181e-008
-5.920333e-008
-4.642238e-008
-1.678714e-008
7.561485e-009
1.725858e-008
1.769515e-008
1.864476e-008
2.267074e-008
2.292410e-008
1.137258e-008
-1.121668e-008
-3.347786e-008
-4.182712e-008
-3.145171e-008
-9.976536e-009
9.282998e-009
1.808503e-008
1.836680e-008
1.778834e-008
2.088777e-008
2.468679e-008
2.257838e-008
1.190173e-008
-2.792888e-009
-1.397448e-008
-1.820342e-008
-1.866863e-008
-2.086037e-008
-2.633635e-008
-3.129099e-008
-3.115425e-008
-2.585950e-008
-1.993170e-008
-1.751573e-008
-1.809092e-008
-1.762461e-008
-1.359922e-008
-8.006812e-009
-4.952697e-009
-5.853767e-009
-7.932757e-009
-7.700907e-009
-5.195985e-009
-3.905331e-009
-6.496876e-009
-1.150114e-008
-1.495485e-008
-1.507574e-008
-1.436554e-008
-1.654260e-008
-2.186765e-008
-2.643617e-008
-2.641388e-008
-2.233880e-008
-1.840900e-008
-1.746190e-008
-1.744541e-008
-1.361400e-008
-4.144289e-009
7.180989e-009
1.442776e-008
1.543451e-008
1.365783e-008
1.381899e-008
1.612270e-008
1.555633e-008
7.364425e-009
-6.966206e-009
-1.969275e-008
-2.318867e-008
-1.651756e-008
-5.764339e-009
2.015625e-009
5.021301e-009
6.944420e-009
1.133370e-008
1.625918e-008
1.520466e-008
3.825208e-009
-1.392333e-008
-2.674565e-008
-2.424372e-008
-5.839317e-009
1.733379e-008
2.973587e-008
2.262192e-008
6.288689e-010
-2.126336e-008
-2.818748e-008
-1.570727e-008
7.248840e-009
2.471163e-008
-5.418876e-008
-3.468922e-008
-6.334664e-009
1.597988e-008
2.197616e-008
1.183520e-008
-4.662967e-009
-1.510584e-008
-1.282457e-008
-9.207076e-010
1.079331e-008
1.350884e-008
5.891384e-009
-5.542809e-009
-1.211000e-008
-9.848632e-009
-1.997090e-009
4.623094e-009
5.763379e-009
2.915220e-009
9.391251e-010
2.772509e-009
6.420007e-009
7.062946e-009
2.092308e-009
-5.975087e-009
-1.161856e-008
-1.138032e-008
-6.854147e-009
-2.696590e-009
-1.815442e-009
-2.706417e-009
-1.562722e-009
3.272219e-009
9.350127e-009
1.270142e-008
1.203240e-008
9.910440e-009
9.726899e-009
1.193131e-008
1.375287e-008
1.259015e-008
9.086693e-009
6.373359e-009
6.458488e-009
8.028402e-009
8.183929e-009
5.975367e-009
3.521882e-009
3.433473e-009
5.670929e-009
7.615856e-009
7.245237e-009
5.572761e-009
5.404052e-009
7.888552e-009
1.101608e-008
1.189868e-008
1.014567e-008
8.296743e-009
8.746637e-009
1.077530e-008
1.123127e-008
8.152585e-009
3.139218e-009
-3.169309e-010
-6.828852e-010
-1.362532e-011
-1.459954e-009
-5.445091e-009
-8.849531e-009
-8.214674e-009
-3.509503e-009
1.645328e-009
3.564235e-009
2.074149e-009
3.288668e-010
1.160410e-009
3.911233e-009
5.107642e-009
2.257292e-009
-3.198712e-009
-6.874246e-009
-5.476176e-009
1.974438e-011
5.099930e-009
5.651454e-009
1.477344e-009
-3.694621e-009
-5.522648e-009
-2.650567e-009
2.408156e-009
5.557513e-009
4.423347e-009
2.543343e-012
-4.366481e-009
-5.594539e-009
-2.954599e-009
1.630387e-009
5.042923e-009
1.956655e-007
1.353904e-007
4.406116e-008
-3.668196e-008
-7.558088e-008
-6.645307e-008
-2.690194e-008
1.588135e-008
4.142050e-008
4.411576e-008
3.045708e-008
1.046443e-008
-8.909600e-009
-2.453660e-008
-3.416088e-008
-3.460580e-008
-2.360699e-008
-3.204787e-009
1.938809e-008
3.517806e-008
3.859763e-008
3.028517e-008
1.545002e-008
-2.380396e-010
-1.355492e-008
-2.359138e-008
-2.993031e-008
-3.167353e-008
-2.821165e-008
-2.036656e-008
-1.024151e-008
1.488168e-010
9.902413e-009
1.886630e-008
2.659756e-008
3.211205e-008
3.474897e-008
3.496766e-008
3.394774e-008
3.240399e-008
3.006867e-008
2.647860e-008
2.204407e-008
1.799031e-008
1.517792e-008
1.325931e-008
1.126074e-008
8.913781e-009
7.100813e-009
6.851850e-009
8.120590e-009
9.846481e-009
1.122193e-008
1.260059e-008
1.494012e-008
1.848705e-008
2.232453e-008
2.530662e-008
2.719021e-008
2.857440e-008
2.977391e-008
3.007125e-008
2.829087e-008
2.399295e-008
1.785732e-008
1.087980e-008
3.467933e-009
-4.425890e-009
-1.236641e-008
-1.896205e-008
-2.254304e-008
-2.225087e-008
-1.833649e-008
-1.152243e-008
-2.480732e-009
7.747104e-009
1.696845e-008
2.206986e-008
2.067986e-008
1.297038e-008
1.847582e-009
-8.749562e-009
-1.588569e-008
-1.828496e-008
-1.559300e-008
-7.836010e-009
3.744611e-009
1.538052e-008
2.124344e-008
1.672093e-008
2.550135e-009
-1.393070e-008
-2.256073e-008
-1.723777e-008
-8.639635e-010
1.586860e-008
2.159931e-008
1.238519e-008
-5.268424e-009
-1.888514e-008
2.875825e-007
1.937697e-007
5.418187e-008
-6.368522e-008
-1.115664e-007
-8.479857e-008
-1.836418e-008
4.011492e-008
6.054004e-008
4.379807e-008
1.250112e-008
-1.033743e-008
-1.707948e-008
-1.524865e-008
-1.518319e-008
-1.861781e-008
-1.828728e-008
-7.288775e-009
1.201440e-008
2.847025e-008
3.137824e-008
1.954665e-008
1.832088e-009
-1.079348e-008
-1.388161e-008
-1.123437e-008
-9.287414e-009
-1.047191e-008
-1.185370e-008
-9.374091e-009
-2.586625e-009
4.907333e-009
9.157832e-009
9.454290e-009
8.284712e-009
8.271173e-009
9.587310e-009
1.032058e-008
8.903597e-009
5.812618e-009
2.925837e-009
1.549810e-009
1.305260e-009
8.590866e-010
-5.179958e-010
-2.268448e-009
-3.311167e-009
-3.268118e-009
-2.804871e-009
-2.795713e-009
-3.301814e-009
-3.510756e-009
-2.700319e-009
-1.132423e-009
1.790030e-010
6.333437e-010
8.255777e-010
1.948781e-009
4.365051e-009
6.970971e-009
8.236307e-009
7.878257e-009
7.217649e-009
7.606950e-009
8.599919e-009
8.093176e-009
4.585922e-009
-8.508172e-010
-5.294305e-009
-6.880148e-009
-6.731468e-009
-7.513881e-009
-9.941574e-009
-1.117434e-008
-7.362164e-009
1.919110e-009
1.207021e-008
1.687135e-008
1.385239e-008
6.282221e-009
-3.005110e-010
-3.455791e-009
-5.480607e-009
-9.557438e-009
-1.459827e-008
-1.475300e-008
-5.022742e-009
1.210420e-008
2.599825e-008
2.523064e-008
7.399646e-009
-1.712645e-008
-3.161353e-008
-2.519655e-008
-1.505198e-009
2.328023e-008
3.182455e-008
1.812950e-008
-8.078916e-009
-2.826406e-008
1.556095e-007
9.841233e-008
1.618758e-008
-4.685085e-008
-6.164966e-008
-3.093791e-008
1.535532e-008
4.216937e-008
3.317787e-008
-2.028249e-010
-3.019539e-008
-3.479577e-008
-1.340519e-008
1.534319e-008
3.020809e-008
2.381420e-008
5.778418e-009
-8.359767e-009
-1.113403e-008
-7.522842e-009
-7.147830e-009
-1.318331e-008
-1.906553e-008
-1.562535e-008
-9.042444e-010
1.724619e-008
2.804840e-008
2.706398e-008
1.891185e-008
1.151990e-008
8.312083e-009
6.066461e-009
-2.199395e-010
-1.122324e-008
-2.233735e-008
-2.837387e-008
-2.856846e-008
-2.671248e-008
-2.672414e-008
-2.866920e-008
-2.931996e-008
-2.621309e-008
-2.054563e-008
-1.586166e-008
-1.424988e-008
-1.437203e-008
-1.337873e-008
-1.036217e-008
-7.390996e-009
-7.050615e-009
-9.419956e-009
-1.200351e-008
-1.267971e-008
-1.220499e-008
-1.329494e-008
-1.728247e-008
-2.225431e-008
-2.495882e-008
-2.439423e-008
-2.288527e-008
-2.322454e-008
-2.506608e-008
-2.486009e-008
-1.970246e-008
-1.085899e-008
-2.799819e-009
1.447475e-009
3.459373e-009
7.307244e-009
1.427535e-008
2.036626e-008
1.981924e-008
1.124929e-008
-2.117297e-010
-7.410449e-009
-7.832748e-009
-5.438736e-009
-5.686304e-009
-9.075003e-009
-1.029927e-008
-4.237248e-009
7.410331e-009
1.612894e-008
1.398884e-008
1.535642e-009
-1.167582e-008
-1.493629e-008
-5.687145e-009
8.136426e-009
1.483512e-008
8.797771e-009
-4.979979e-009
-1.525113e-008
-1.372748e-008
-1.494961e-009
1.216713e-008
1.708412e-008
9.708819e-009
-4.571650e-009
-1.556586e-008
-8.771718e-008
-6.744352e-008
-3.399972e-008
1.892615e-009
3.011526e-008
4.355764e-008
3.881311e-008
1.705679e-008
-1.438831e-008
-4.220592e-008
-5.183607e-008
-3.593693e-008
-8.188775e-010
3.541926e-008
5.355434e-008
4.555131e-008
1.905153e-008
-9.470267e-009
-2.697690e-008
-3.135214e-008
-2.874366e-008
-2.485150e-008
-1.926731e-008
-7.960301e-009
9.697238e-009
2.749418e-008
3.658749e-008
3.318845e-008
2.182837e-008
1.086000e-008
4.822773e-009
1.333935e-009
-4.775217e-009
-1.491228e-008
-2.480065e-008
-2.895218e-008
-2.641916e-008
-2.157624e-008
-1.930031e-008
-1.998971e-008
-1.979475e-008
-1.550258e-008
-8.425123e-009
-2.981946e-009
-1.773433e-009
-2.845049e-009
-2.198797e-009
1.457358e-009
5.238163e-009
5.523511e-009
2.224569e-009
-1.137672e-009
-1.615296e-009
-3.311311e-010
-1.131293e-009
-5.937085e-009
-1.228045e-008
-1.600370e-008
-1.601876e-008
-1.549354e-008
-1.793253e-008
-2.265083e-008
-2.502723e-008
-2.147545e-008
-1.351896e-008
-6.199996e-009
-2.491321e-009
-7.926084e-011
5.643854e-009
1.557853e-008
2.470457e-008
2.642998e-008
1.903025e-008
7.304292e-009
-2.270273e-009
-7.565529e-009
-1.152877e-008
-1.706040e-008
-2.200621e-008
-2.019533e-008
-7.927654e-009
1.070514e-008
2.543692e-008
2.738329e-008
1.581270e-008
-1.679981e-009
-1.518385e-008
-1.906894e-008
-1.409006e-008
-4.752951e-009
4.409784e-009
1.046910e-008
1.175189e-008
7.669845e-009
-3.251129e-010
-8.174053e-009
-1.095469e-008
-6.449231e-009
2.509182e-009
9.570194e-009
-2.522983e-007
-1.707318e-007
-5.024046e-008
5.069117e-008
9.238800e-008
7.312515e-008
2.225583e-008
-2.392987e-008
-4.438942e-008
-3.951475e-008
-2.188695e-008
-3.220606e-009
1.154835e-008
2.152260e-008
2.513655e-008
1.992977e-008
6.467762e-009
-9.247323e-009
-1.887007e-008
-1.797252e-008
-9.321116e-009
1.098556e-010
5.289737e-009
6.354274e-009
6.278998e-009
6.365429e-009
4.848704e-009
-7.931219e-011
-6.798173e-009
-1.081801e-008
-9.086026e-009
-3.228323e-009
2.098146e-009
4.085692e-009
4.492078e-009
7.166905e-009
1.324165e-008
1.951657e-008
2.191896e-008
2.005526e-008
1.759047e-008
1.800931e-008
2.068350e-008
2.181482e-008
1.911238e-008
1.467230e-008
1.264529e-008
1.444221e-008
1.715675e-008
1.707986e-008
1.413234e-008
1.194455e-008
1.349445e-008
1.751050e-008
1.993101e-008
1.866940e-008
1.598353e-008
1.561415e-008
1.811828e-008
1.999884e-008
1.772103e-008
1.188286e-008
6.597969e-009
4.797796e-009
4.973885e-009
3.186840e-009
-2.010374e-009
-7.491173e-009
-8.764869e-009
-4.827487e-009
8.076947e-010
3.909636e-009
3.717770e-009
2.871533e-009
3.509982e-009
4.337283e-009
2.152360e-009
-3.937825e-009
-1.052208e-008
-1.251291e-008
-7.702333e-009
1.393659e-009
9.896494e-009
1.422959e-008
1.345908e-008
8.025793e-009
-1.311710e-009
-1.239870e-008
-2.022498e-008
-1.853647e-008
-5.003178e-009
1.438843e-008
2.714664e-008
2.285434e-008
2.281433e-009
-2.120625e-008
-3.058169e-008
-1.820626e-008
7.519959e-009
2.787016e-008
-2.252070e-007
-1.395531e-007
-1.900635e-008
6.908864e-008
8.464804e-008
3.756016e-008
-2.516677e-008
-5.596102e-008
-3.889437e-008
4.867911e-009
3.882968e-008
4.030506e-008
1.413704e-008
-1.667224e-008
-3.185846e-008
-2.763383e-008
-1.397175e-008
-1.792824e-009
6.241578e-009
1.390590e-008
2.318253e-008
2.976234e-008
2.692370e-008
1.290880e-008
-6.429944e-009
-2.230763e-008
-2.980488e-008
-3.002887e-008
-2.653137e-008
-2.090230e-008
-1.234134e-008
-6.655333e-010
1.171796e-008
2.149850e-008
2.756961e-008
3.156796e-008
3.520150e-008
3.780909e-008
3.726509e-008
3.305208e-008
2.750586e-008
2.348401e-008
2.125161e-008
1.848974e-008
1.351426e-008
7.744427e-009
4.288883e-009
4.303829e-009
5.610661e-009
5.350627e-009
3.481235e-009
2.835681e-009
5.658382e-009
1.084662e-008
1.524521e-008
1.735871e-008
1.891600e-008
2.241986e-008
2.775337e-008
3.200567e-008
3.266395e-008
3.022599e-008
2.712315e-008
2.444607e-008
2.059224e-008
1.345459e-008
3.375129e-009
-6.749450e-009
-1.420330e-008
-1.856924e-008
-2.076323e-008
-2.058303e-008
-1.629835e-008
-7.135436e-009
4.406433e-009
1.361982e-008
1.726507e-008
1.581008e-008
1.177056e-008
6.387774e-009
-1.028671e-009
-1.009266e-008
-1.665396e-008
-1.489439e-008
-3.385882e-009
1.113354e-008
1.755581e-008
9.780763e-009
-6.746505e-009
-1.830955e-008
-1.425549e-008
3.265295e-009
2.015142e-008
2.174883e-008
5.364549e-009
-1.683047e-008
-2.724912e-008
-1.706791e-008
6.443959e-009
2.543649e-008
-4.789958e-008
-1.365769e-008
2.847088e-008
4.545121e-008
2.267033e-008
-2.410911e-008
-5.945118e-008
-5.446897e-008
-9.174575e-009
4.642972e-008
7.404412e-008
5.516565e-008
3.857064e-009
-4.528111e-008
-6.337490e-008
-4.635268e-008
-1.286612e-008
1.423239e-008
2.517848e-008
2.544880e-008
2.444985e-008
2.425480e-008
1.934177e-008
5.514838e-009
-1.301562e-008
-2.620865e-008
-2.724189e-008
-1.825531e-008
-7.269657e-009
-3.326751e-010
2.761020e-009
5.720347e-009
1.029088e-008
1.438822e-008
1.507460e-008
1.207201e-008
7.703620e-009
3.980499e-009
7.386258e-010
-3.206131e-009
-7.913733e-009
-1.211144e-008
-1.492717e-008
-1.699030e-008
-1.939899e-008
-2.207138e-008
-2.380380e-008
-2.395592e-008
-2.342247e-008
-2.351101e-008
-2.420134e-008
-2.413389e-008
-2.237452e-008
-1.962117e-008
-1.725681e-008
-1.552604e-008
-1.326915e-008
-9.544519e-009
-4.940501e-009
-8.282314e-010
2.373337e-009
5.489971e-009
9.003564e-009
1.181752e-008
1.226128e-008
1.015583e-008
7.093485e-009
4.297764e-009
8.351476e-010
-5.075834e-009
-1.281238e-008
-1.830110e-008
-1.723994e-008
-9.491363e-009
4.295137e-010
7.730159e-009
1.177465e-008
1.532285e-008
1.927975e-008
1.939452e-008
9.855525e-009
-9.035996e-009
-2.752302e-008
-3.247723e-008
-1.852829e-008
6.056927e-009
2.490294e-008
2.615938e-008
1.134117e-008
-6.963683e-009
-1.583796e-008
-1.163343e-008
-9.059794e-010
6.646753e-009
6.222932e-009
4.512067e-010
-4.382749e-009
-4.135431e-009
2.538022e-010
4.350086e-009
1.377070e-007
1.020423e-007
4.625378e-008
-7.934190e-009
-4.374888e-008
-5.457148e-008
-4.229457e-008
-1.391877e-008
1.957951e-008
4.392472e-008
4.624381e-008
2.359606e-008
-1.183143e-008
-3.827479e-008
-3.919761e-008
-1.593366e-008
1.330465e-008
2.805671e-008
2.137154e-008
3.099548e-009
-1.107413e-008
-1.352159e-008
-8.596223e-009
-4.670159e-009
-4.151587e-009
-2.030857e-009
6.670196e-009
1.970752e-008
2.876908e-008
2.740226e-008
1.693593e-008
4.394335e-009
-4.678196e-009
-1.062108e-008
-1.733516e-008
-2.684015e-008
-3.698185e-008
-4.415002e-008
-4.719247e-008
-4.811654e-008
-4.944288e-008
-5.168184e-008
-5.352411e-008
-5.385498e-008
-5.300420e-008
-5.215782e-008
-5.208378e-008
-5.263009e-008
-5.314893e-008
-5.310362e-008
-5.239674e-008
-5.143385e-008
-5.087805e-008
-5.103393e-008
-5.134089e-008
-5.075052e-008
-4.887715e-008
-4.657176e-008
-4.488681e-008
-4.341408e-008
-4.020564e-008
-3.386360e-008
-2.548609e-008
-1.779509e-008
-1.202771e-008
-6.321319e-009
1.934021e-009
1.209197e-008
1.952203e-008
1.977512e-008
1.339483e-008
5.752779e-009
1.640290e-009
5.588807e-010
-1.750836e-009
-7.090548e-009
-1.123940e-008
-7.873296e-009
3.687250e-009
1.554617e-008
1.728156e-008
5.662936e-009
-1.156015e-008
-2.176951e-008
-1.780590e-008
-3.106715e-009
1.217704e-008
1.938288e-008
1.633905e-008
6.344093e-009
-5.588439e-009
-1.490477e-008
-1.768278e-008
-1.148862e-008
2.037190e-009
1.577324e-008
2.041361e-008
1.148982e-008
-5.821380e-009
-1.943842e-008
2.117689e-007
1.301901e-007
1.752121e-008
-6.181296e-008
-7.353538e-008
-3.167813e-008
1.974353e-008
4.274668e-008
2.939572e-008
-1.365773e-009
-2.497895e-008
-2.954568e-008
-1.827274e-008
-2.912071e-010
1.745498e-008
3.056017e-008
3.406802e-008
2.340565e-008
-1.588309e-010
-2.656025e-008
-4.207752e-008
-3.923539e-008
-2.211365e-008
-1.821797e-009
1.315366e-008
2.213448e-008
2.874964e-008
3.396195e-008
3.390825e-008
2.461468e-008
7.612611e-009
-1.030675e-008
-2.305380e-008
-3.035873e-008
-3.670388e-008
-4.573414e-008
-5.646607e-008
-6.503066e-008
-6.936358e-008
-7.143681e-008
-7.492875e-008
-8.133895e-008
-8.879208e-008
-9.440069e-008
-9.728824e-008
-9.913345e-008
-1.020276e-007
-1.061109e-007
-1.093635e-007
-1.096109e-007
-1.066780e-007
-1.025541e-007
-9.937567e-008
-9.722880e-008
-9.411067e-008
-8.827242e-008
-8.050014e-008
-7.362609e-008
-6.946988e-008
-6.655461e-008
-6.148958e-008
-5.280979e-008
-4.285929e-008
-3.515957e-008
-3.000074e-008
-2.355155e-008
-1.207464e-008
3.247729e-009
1.657424e-008
2.286707e-008
2.255293e-008
2.006449e-008
1.798941e-008
1.383505e-008
3.551250e-009
-1.199277e-008
-2.522625e-008
-2.755056e-008
-1.701094e-008
-2.023913e-010
1.326877e-008
1.792463e-008
1.456099e-008
6.970887e-009
-1.667362e-009
-8.910369e-009
-1.151392e-008
-6.567576e-009
4.419357e-009
1.366876e-008
1.207206e-008
-1.875275e-009
-1.807553e-008
-2.175772e-008
-6.799447e-009
1.681015e-008
2.974353e-008
1.975399e-008
-6.717069e-009
-2.888490e-008
1.566008e-007
7.483237e-008
-2.967920e-008
-8.464620e-008
-5.914565e-008
1.603953e-008
7.654438e-008
7.593523e-008
1.868782e-008
-4.912496e-008
-7.936989e-008
-5.711071e-008
-5.240737e-009
3.946398e-008
5.462121e-008
4.231131e-008
1.846177e-008
-3.371813e-009
-1.868389e-008
-2.757148e-008
-2.877715e-008
-2.017233e-008
-3.677693e-009
1.310471e-008
2.183658e-008
1.995747e-008
1.170853e-008
2.875359e-009
-4.655392e-009
-1.286377e-008
-2.317810e-008
-3.362637e-008
-4.102925e-008
-4.530703e-008
-5.043608e-008
-6.070634e-008
-7.653396e-008
-9.454167e-008
-1.116225e-007
-1.282444e-007
-1.473661e-007
-1.704321e-007
-1.950764e-007
-2.170284e-007
-2.339904e-007
-2.472307e-007
-2.593020e-007
-2.705275e-007
-2.781284e-007
-2.789277e-007
-2.726736e-007
-2.623305e-007
-2.509499e-007
-2.385240e-007
-2.223835e-007
-2.008402e-007
-1.760082e-007
-1.524221e-007
-1.327655e-007
-1.155295e-007
-9.744826e-008
-7.803217e-008
-6.082908e-008
-4.965957e-008
-4.404050e-008
-3.923507e-008
-3.110146e-008
-2.023089e-008
-1.062265e-008
-4.607603e-009
-2.095008e-010
5.834670e-009
1.309482e-008
1.673384e-008
1.231080e-008
8.156842e-010
-1.164634e-008
-1.892458e-008
-1.891196e-008
-1.285382e-008
-2.312736e-009
1.125277e-008
2.375019e-008
2.759204e-008
1.675018e-008
-5.692824e-009
-2.614596e-008
-2.956646e-008
-1.250899e-008
1.218113e-008
2.501604e-008
1.637714e-008
-4.971972e-009
-1.962298e-008
-1.486991e-008
4.063934e-009
1.915730e-008
1.628167e-008
-1.918630e-009
-1.868111e-008
3.844990e-008
-2.976162e-009
-4.974162e-008
-5.959587e-008
-1.960220e-008
4.197008e-008
7.752694e-008
5.834275e-008
-2.107363e-009
-5.885410e-008
-7.121218e-008
-3.399762e-008
2.095368e-008
5.248641e-008
4.238374e-008
5.702444e-009
-2.637509e-008
-3.309944e-008
-1.686223e-008
5.385101e-009
1.963480e-008
2.383267e-008
2.299678e-008
1.964452e-008
1.105554e-008
-5.189020e-009
-2.569534e-008
-4.296555e-008
-5.229669e-008
-5.590501e-008
-6.004678e-008
-6.905249e-008
-8.302126e-008
-1.008020e-007
-1.235926e-007
-1.544482e-007
-1.945743e-007
-2.412963e-007
-2.903374e-007
-3.396452e-007
-3.901783e-007
-4.428369e-007
-4.953716e-007
-5.430722e-007
-5.825000e-007
-6.139211e-007
-6.396248e-007
-6.601132e-007
-6.726301e-007
-6.737812e-007
-6.632253e-007
-6.441040e-007
-6.196220e-007
-5.897249e-007
-5.518311e-007
-5.048875e-007
-4.520198e-007
-3.985449e-007
-3.475318e-007
-2.980854e-007
-2.483709e-007
-1.997205e-007
-1.567826e-007
-1.233983e-007
-9.906835e-008
-8.015857e-008
-6.419475e-008
-5.186768e-008
-4.438230e-008
-3.979514e-008
-3.339924e-008
-2.214146e-008
-7.837461e-009
4.746415e-009
1.257438e-008
1.609009e-008
1.633986e-008
1.207722e-008
1.744139e-009
-1.144901e-008
-1.853326e-008
-1.164159e-008
6.922944e-009
2.358087e-008
2.376026e-008
5.145298e-009
-1.886800e-008
-2.973027e-008
-1.923986e-008
3.888620e-009
2.190929e-008
2.277938e-008
8.751883e-009
-7.553977e-009
-1.459851e-008
-1.036226e-008
-1.525100e-009
4.081711e-009
4.119942e-009
2.050798e-009
-6.865071e-008
-5.087998e-008
-2.318251e-008
3.723731e-009
2.151819e-008
2.611867e-008
1.724588e-008
-1.024841e-009
-1.905051e-008
-2.421668e-008
-9.492624e-009
1.790223e-008
3.778323e-008
3.128626e-008
-2.135262e-009
-4.095888e-008
-5.691120e-008
-3.742814e-008
4.439069e-009
4.138941e-008
5.367679e-008
4.167979e-008
1.983528e-008
7.670824e-010
-1.399401e-008
-2.979110e-008
-4.905822e-008
-6.808168e-008
-8.299013e-008
-9.666446e-008
-1.180274e-007
-1.546959e-007
-2.074219e-007
-2.719054e-007
-3.447707e-007
-4.264202e-007
-5.181772e-007
-6.181492e-007
-7.211522e-007
-8.224964e-007
-9.207259e-007
-1.016097e-006
-1.107065e-006
-1.189390e-006
-1.258960e-006
-1.314760e-006
-1.358266e-006
-1.390081e-006
-1.408045e-006
-1.409177e-006
-1.393034e-006
-1.362260e-006
-1.319590e-006
-1.265016e-006
-1.196707e-006
-1.114634e-006
-1.022439e-006
-9.251711e-007
-8.256465e-007
-7.238964e-007
-6.203187e-007
-5.184366e-007
-4.236488e-007
-3.394625e-007
-2.659466e-007
-2.022522e-007
-1.496479e-007
-1.106918e-007
-8.523668e-008
-6.849614e-008
-5.422837e-008
-3.961724e-008
-2.595900e-008
-1.443107e-008
-2.783563e-009
1.191893e-008
2.725457e-008
3.430603e-008
2.509814e-008
2.072640e-009
-2.091885e-008
-2.882134e-008
-1.780231e-008
1.901186e-009
1.520674e-008
1.443802e-008
3.664173e-009
-7.074986e-009
-1.051912e-008
-6.065623e-009
2.333955e-009
9.829164e-009
1.246000e-008
7.921562e-009
-2.783968e-009
-1.401545e-008
-1.775367e-008
-9.667433e-009
6.014968e-009
1.843691e-008
-1.343394e-007
-6.357234e-008
2.568787e-008
7.134299e-008
4.958560e-008
-1.125524e-008
-5.908158e-008
-6.043814e-008
-2.110789e-008
2.686827e-008
5.371238e-008
4.992555e-008
2.413936e-008
-8.912092e-009
-3.625872e-008
-4.772874e-008
-3.714666e-008
-7.388674e-009
2.672155e-008
4.528959e-008
3.741108e-008
9.825349e-009
-1.918457e-008
-3.563478e-008
-4.051278e-008
-4.603988e-008
-6.327124e-008
-9.461625e-008
-1.376591e-007
-1.935624e-007
-2.692760e-007
-3.712829e-007
-4.987713e-007
-6.441888e-007
-8.000375e-007
-9.638571e-007
-1.136326e-006
-1.315804e-006
-1.496216e-006
-1.670371e-006
-1.834203e-006
-1.986951e-006
-2.127750e-006
-2.253325e-006
-2.359536e-006
-2.444410e-006
-2.508633e-006
-2.553038e-006
-2.576516e-006
-2.577001e-006
-2.554013e-006
-2.509255e-006
-2.444469e-006
-2.359541e-006
-2.253499e-006
-2.127202e-006
-1.984124e-006
-1.828193e-006
-1.661605e-006
-1.485677e-006
-1.303688e-006
-1.121719e-006
-9.459657e-007
-7.797374e-007
-6.241594e-007
-4.817927e-007
-3.581785e-007
-2.584924e-007
-1.828636e-007
-1.262696e-007
-8.361773e-008
-5.389058e-008
-3.789065e-008
-3.214137e-008
-2.717597e-008
-1.408978e-008
6.771219e-009
2.486663e-008
2.852015e-008
1.548964e-008
-5.133115e-009
-2.072440e-008
-2.421185e-008
-1.647460e-008
-2.586466e-009
1.184064e-008
2.108242e-008
1.972629e-008
6.532325e-009
-1.135191e-008
-2.085643e-008
-1.341236e-008
5.612110e-009
1.948386e-008
1.481781e-008
-4.926458e-009
-2.138508e-008
-1.832696e-008
2.315338e-009
2.163036e-008
-1.604793e-007
-6.397208e-008
5.336493e-008
1.035604e-007
5.775762e-008
-3.509588e-008
-9.476093e-008
-7.727694e-008
-5.275022e-009
5.962825e-008
7.154627e-008
3.291005e-008
-1.760019e-008
-4.261556e-008
-3.277909e-008
-4.301064e-009
2.129428e-008
3.249462e-008
2.822790e-008
1.124002e-008
-1.447150e-008
-4.165546e-008
-6.092206e-008
-6.811689e-008
-7.099254e-008
-8.661843e-008
-1.306443e-007
-2.087851e-007
-3.184055e-007
-4.567941e-007
-6.259681e-007
-8.290743e-007
-1.063739e-006
-1.320781e-006
-1.589664e-006
-1.864069e-006
-2.141445e-006
-2.418001e-006
-2.685729e-006
-2.934995e-006
-3.159417e-006
-3.357471e-006
-3.529717e-006
-3.675621e-006
-3.793616e-006
-3.883486e-006
-3.947394e-006
-3.988169e-006
-4.007161e-006
-4.004203e-006
-3.979075e-006
-3.931986e-006
-3.862436e-006
-3.768484e-006
-3.647932e-006
-3.500050e-006
-3.325509e-006
-3.124795e-006
-2.897916e-006
-2.646681e-006
-2.376990e-006
-2.097742e-006
-1.816977e-006
-1.539706e-006
-1.270199e-006
-1.015725e-006
-7.863115e-007
-5.897015e-007
-4.270489e-007
-2.947475e-007
-1.905063e-007
-1.161521e-007
-7.312045e-008
-5.559950e-008
-4.992311e-008
-4.219619e-008
-2.683111e-008
-7.695636e-009
8.104503e-009
1.635271e-008
1.636071e-008
8.674050e-009
-4.586763e-009
-1.692530e-008
-1.851784e-008
-4.258212e-009
1.810285e-008
3.065005e-008
2.019149e-008
-7.664148e-009
-3.068462e-008
-2.909656e-008
-4.305856e-009
2.158523e-008
2.616870e-008
7.629420e-009
-1.438244e-008
-1.869226e-008
-3.314820e-009
1.371052e-008
-1.427039e-007
-6.070165e-008
3.840987e-008
8.022249e-008
4.263525e-008
-2.961622e-008
-6.830544e-008
-4.216201e-008
1.944419e-008
5.783424e-008
3.959125e-008
-1.579540e-008
-5.731743e-008
-4.928956e-008
7.416369e-011
5.071188e-008
6.702454e-008
4.361715e-008
1.388659e-009
-3.539849e-008
-5.693919e-008
-6.828788e-008
-7.977709e-008
-1.011074e-007
-1.428689e-007
-2.184500e-007
-3.403276e-007
-5.138985e-007
-7.362610e-007
-1.001471e-006
-1.305882e-006
-1.647348e-006
-2.019786e-006
-2.410056e-006
-2.800969e-006
-3.176961e-006
-3.526439e-006
-3.839609e-006
-4.106139e-006
-4.316681e-006
-4.467060e-006
-4.560480e-006
-4.605495e-006
-4.612225e-006
-4.590522e-006
-4.550628e-006
-4.503717e-006
-4.460488e-006
-4.428936e-006
-4.413304e-006
-4.414334e-006
-4.429438e-006
-4.452466e-006
-4.474237e-006
-4.484202e-006
-4.471723e-006
-4.425858e-006
-4.335106e-006
-4.189483e-006
-3.984474e-006
-3.723161e-006
-3.414051e-006
-3.066982e-006
-2.691826e-006
-2.301102e-006
-1.912062e-006
-1.543708e-006
-1.210273e-006
-9.176684e-007
-6.666675e-007
-4.588711e-007
-2.982455e-007
-1.864272e-007
-1.176533e-007
-7.959869e-008
-5.918743e-008
-4.685723e-008
-3.586517e-008
-2.055957e-008
1.213187e-009
2.357527e-008
3.394713e-008
2.345725e-008
-2.048308e-009
-2.320895e-008
-2.271390e-008
-1.605667e-009
2.044745e-008
2.285686e-008
3.394042e-009
-1.980469e-008
-2.559949e-008
-9.579140e-009
1.282154e-008
2.198145e-008
1.241338e-008
-3.938623e-009
-1.128045e-008
-5.666490e-009
2.894845e-009
-6.355298e-008
-3.562942e-008
-1.548511e-009
1.445600e-008
6.930311e-009
-7.068411e-009
-5.664162e-009
1.491276e-008
3.453400e-008
2.783426e-008
-9.103209e-009
-5.020797e-008
-5.970781e-008
-2.433394e-008
3.246134e-008
6.860377e-008
5.801573e-008
1.051405e-008
-3.993187e-008
-6.598931e-008
-6.857482e-008
-7.300486e-008
-1.084429e-007
-1.919360e-007
-3.285735e-007
-5.210708e-007
-7.751547e-007
-1.095797e-006
-1.480781e-006
-1.919314e-006
-2.395475e-006
-2.890498e-006
-3.380783e-006
-3.835312e-006
-4.217786e-006
-4.493717e-006
-4.637385e-006
-4.634352e-006
-4.480361e-006
-4.180583e-006
-3.750901e-006
-3.218863e-006
-2.621368e-006
-1.999581e-006
-1.394274e-006
-8.435833e-007
-3.820908e-007
-3.928312e-008
1.627410e-007
2.110939e-007
1.029614e-007
-1.540904e-007
-5.424634e-007
-1.036106e-006
-1.602761e-006
-2.205320e-006
-2.802190e-006
-3.349129e-006
-3.804442e-006
-4.135532e-006
-4.322457e-006
-4.357026e-006
-4.240806e-006
-3.985847e-006
-3.616993e-006
-3.170622e-006
-2.687327e-006
-2.202665e-006
-1.742624e-006
-1.325437e-006
-9.648239e-007
-6.696635e-007
-4.413138e-007
-2.738760e-007
-1.588695e-007
-8.909029e-008
-5.647844e-008
-4.686917e-008
-4.053423e-008
-2.225058e-008
7.372700e-009
3.216079e-008
3.496736e-008
1.420541e-008
-1.349118e-008
-2.728449e-008
-1.945888e-008
-8.296547e-011
1.391651e-008
1.359453e-008
3.284399e-009
-6.185734e-009
-7.780929e-009
-2.573140e-009
3.661689e-009
6.285620e-009
4.612354e-009
7.611322e-010
-2.842434e-009
-4.843075e-009
7.204665e-008
2.539491e-008
-3.157477e-008
-5.664736e-008
-3.516261e-008
1.188977e-008
4.851340e-008
5.179449e-008
2.441789e-008
-1.312393e-008
-3.854587e-008
-3.922227e-008
-1.607615e-008
1.731295e-008