# vtk DataFile Version 3.0
vtk output
ASCII
DATASET STRUCTURED_POINTS
DIMENSIONS 100 100 1
SPACING 1 1 1
ORIGIN 0 0 0
POINT_DATA 10000
SCALARS SFBox_profile double
LOOKUP_TABLE default 
0.000000e+000
0.000000e+000
0.000000e+000
0.000000e+000
0.000000e+000
0.000000e+000
0.000000e+000
0.000000e+000
0.000000e+000
0.000000e+000
0.000000e+000
0.000000e+000
0.000000e+000
0.000000e+000
0.000000e+000
0.000000e+000
0.000000e+000
0.000000e+000
0.000000e+000
0.000000e+000
0.000000e+000
0.000000e+000
0.000000e+000
0.000000e+000
0.000000e+000
0.000000e+000
0.000000e+000
0.000000e+000
0.000000e+000
0.000000e+000
0.000000e+000
0.000000e+000
0.000000e+000
0.000000e+000
0.000000e+000
0.000000e+000
0.000000e+000
0.000000e+000
0.000000e+000
0.000000e+000
0.000000e+000
0.000000e+000
0.000000e+000
0.000000e+000
0.000000e+000
0.000000e+000
0.000000e+000
0.000000e+000
0.000000e+000
0.000000e+000
0.000000e+000
0.000000e+000
0.000000e+000
0.000000e+000
0.000000e+000
0.000000e+000
0.000000e+000
0.000000e+000
0.000000e+000
0.000000e+000
0.000000e+000
0.000000e+000
0.000000e+000
0.000000e+000
0.000000e+000
0.000000e+000
0.000000e+000
0.000000e+000
0.000000e+000
0.000000e+000
0.000000e+000
0.000000e+000
0.000000e+000
0.000000e+000
0.000000e+000
0.000000e+000
0.000000e+000
0.000000e+000
0.000000e+000
0.000000e+000
0.000000e+000
0.000000e+000
0.000000e+000
0.000000e+000
0.000000e+000
0.000000e+000
0.000000e+000
0.000000e+000
0.000000e+000
0.000000e+000
0.000000e+000
0.000000e+000
0.000000e+000
0.000000e+000
0.000000e+000
0.000000e+000
0.000000e+000
0.000000e+000
0.000000e+000
0.000000e+000
4.285816e-010
-3.020003e-011
-6.040697e-010
-8.119471e-010
-3.417631e-010
6.509275e-010
1.510698e-009
1.474660e-009
2.941634e-010
-1.415940e-009
-2.494649e-009
-2.077365e-009
-3.068300e-010
1.716212e-009
2.746755e-009
2.300173e-009
8.925292e-010
-5.250639e-010
-1.355591e-009
-1.651081e-009
-1.751914e-009
-1.762028e-009
-1.438707e-009
-5.583280e-010
7.070390e-010
1.842523e-009
2.410749e-009
2.381862e-009
2.047914e-009
1.665341e-009
1.233258e-009
6.101341e-010
-2.238889e-010
-1.080998e-009
-1.733924e-009
-2.119798e-009
-2.349946e-009
-2.543520e-009
-2.695409e-009
-2.717341e-009
-2.573995e-009
-2.340172e-009
-2.122148e-009
-1.952309e-009
-1.783000e-009
-1.573225e-009
-1.352886e-009
-1.189115e-009
-1.105646e-009
-1.060263e-009
-1.006726e-009
-9.594020e-010
-9.761047e-010
-1.079926e-009
-1.221837e-009
-1.337575e-009
-1.430169e-009
-1.567893e-009
-1.789055e-009
-2.030252e-009
-2.179390e-009
-2.200840e-009
-2.174875e-009
-2.184986e-009
-2.181431e-009
-2.002442e-009
-1.554157e-009
-9.409820e-010
-3.715012e-010
6.845473e-011
4.999532e-010
1.064497e-009
1.671236e-009
1.997230e-009
1.786539e-009
1.130538e-009
3.989412e-010
-1.229101e-010
-4.847073e-010
-9.132576e-010
-1.419878e-009
-1.644689e-009
-1.172979e-009
-2.800512e-011
1.193206e-009
1.739150e-009
1.311393e-009
2.927817e-010
-6.028149e-010
-9.089262e-010
-6.852348e-010
-3.071538e-010
-5.240773e-011
9.158486e-011
2.669361e-010
4.766046e-010
5.304420e-010
2.610708e-010
-2.400971e-010
-6.400273e-010
-1.545346e-010
4.818055e-011
2.216266e-010
1.611731e-010
-9.632078e-011
-3.058524e-010
-2.580579e-010
1.363568e-011
2.700941e-010
3.057826e-010
1.416631e-010
-2.576762e-011
-5.650267e-011
-2.116722e-011
-1.016266e-010
-3.444483e-010
-5.493133e-010
-4.406301e-010
3.990416e-011
6.303831e-010
9.584937e-010
8.587219e-010
4.797960e-010
9.253628e-011
-1.774814e-010
-4.108718e-010
-7.165641e-010
-1.045912e-009
-1.214976e-009
-1.096190e-009
-7.507685e-010
-3.575195e-010
-3.358591e-011
2.475845e-010
5.678183e-010
9.312999e-010
1.245865e-009
1.425436e-009
1.479931e-009
1.489874e-009
1.508876e-009
1.515073e-009
1.460010e-009
1.343061e-009
1.218289e-009
1.132620e-009
1.077766e-009
1.014012e-009
9.303595e-010
8.623451e-010
8.464697e-010
8.724311e-010
8.966668e-010
9.006727e-010
9.173429e-010
9.872473e-010
1.098455e-009
1.190511e-009
1.224356e-009
1.230727e-009
1.268249e-009
1.336111e-009
1.353775e-009
1.245484e-009
1.032475e-009
8.128202e-010
6.419153e-010
4.591228e-010
1.636705e-010
-2.392364e-010
-6.021462e-010
-7.701215e-010
-7.389585e-010
-6.468540e-010
-6.005749e-010
-5.412060e-010
-3.197070e-010
9.364655e-011
5.120386e-010
6.783625e-010
5.102549e-010
1.796593e-010
-5.986325e-011
-1.106529e-010
-8.311613e-011
-1.249274e-010
-2.328860e-010
-2.588758e-010
-9.540358e-011
1.736274e-010
3.298874e-010
2.314362e-010
-4.045113e-011
-2.497821e-010
-2.231424e-010
-5.317826e-012
1.913179e-010
1.887286e-010
4.106320e-012
-1.757979e-010
-7.410564e-010
5.921517e-011
9.522784e-010
1.122224e-009
2.840244e-010
-1.047823e-009
-1.884330e-009
-1.483169e-009
5.604404e-011
1.795219e-009
2.593704e-009
1.907412e-009
1.429998e-010
-1.677764e-009
-2.632409e-009
-2.419004e-009
-1.352632e-009
1.706381e-011
1.262994e-009
2.160923e-009
2.577120e-009
2.400447e-009
1.615627e-009
3.983781e-010
-9.202057e-010
-2.013810e-009
-2.699637e-009
-2.947415e-009
-2.797306e-009
-2.299728e-009
-1.524210e-009
-5.844821e-010
3.817924e-010
1.266453e-009
2.017752e-009
2.617664e-009
3.048910e-009
3.295222e-009
3.366110e-009
3.303719e-009
3.156766e-009
2.952755e-009
2.701180e-009
2.418126e-009
2.135839e-009
1.884270e-009
1.670989e-009
1.487482e-009
1.333046e-009
1.223614e-009
1.174147e-009
1.179906e-009
1.223416e-009
1.298129e-009
1.415754e-009
1.585871e-009
1.794923e-009
2.013826e-009
2.224567e-009
2.428771e-009
2.624543e-009
2.782229e-009
2.853870e-009
2.806539e-009
2.636352e-009
2.345822e-009
1.919738e-009
1.340311e-009
6.286614e-010
-1.412519e-010
-8.776674e-010
-1.510033e-009
-1.980292e-009
-2.205435e-009
-2.084522e-009
-1.575996e-009
-7.711749e-010
1.292546e-010
9.244607e-010
1.492141e-009
1.757541e-009
1.622880e-009
9.998665e-010
-3.243874e-011
-1.113715e-009
-1.724729e-009
-1.522627e-009
-6.213928e-010
4.500531e-010
1.105958e-009
1.088136e-009
5.731622e-010
-4.063065e-011
-4.404279e-010
-5.462611e-010
-4.428704e-010
-2.374139e-010
4.777043e-012
2.316043e-010
3.739756e-010
-6.469229e-010
-6.203508e-011
6.851223e-010
1.007132e-009
5.260425e-010
-5.772193e-010
-1.549723e-009
-1.549706e-009
-3.496005e-010
1.338396e-009
2.303597e-009
1.775155e-009
7.454676e-011
-1.617259e-009
-2.200696e-009
-1.483377e-009
-1.903253e-010
7.658064e-010
1.019611e-009
8.492641e-010
6.838934e-010
6.224800e-010
4.399239e-010
-3.025827e-011
-6.261117e-010
-9.927904e-010
-9.332552e-010
-5.739805e-010
-1.966716e-010
3.904926e-011
1.827121e-010
3.471937e-010
5.405975e-010
6.629809e-010
6.343151e-010
4.828877e-010
3.033203e-010
1.563229e-010
2.997477e-011
-1.125739e-010
-2.738489e-010
-4.193241e-010
-5.195214e-010
-5.789361e-010
-6.230764e-010
-6.676182e-010
-7.065022e-010
-7.264046e-010
-7.260339e-010
-7.188592e-010
-7.186481e-010
-7.245523e-010
-7.221967e-010
-7.007446e-010
-6.673182e-010
-6.394221e-010
-6.200647e-010
-5.858367e-010
-5.094812e-010
-3.954774e-010
-2.811714e-010
-1.915227e-010
-1.001861e-010
4.330558e-011
2.391331e-010
4.088770e-010
4.673970e-010
4.217196e-010
3.671806e-010
3.629651e-010
3.330465e-010
1.384714e-010
-2.336922e-010
-5.905882e-010
-6.943751e-010
-5.092095e-010
-2.430265e-010
-1.065926e-010
-5.727589e-011
1.483042e-010
6.122148e-010
1.052988e-009
9.961652e-010
2.628342e-010
-7.499126e-010
-1.337446e-009
-1.087721e-009
-2.370708e-010
5.611133e-010
8.143206e-010
5.526282e-010
1.687260e-010
-3.030751e-011
-7.536132e-011
-1.743870e-010
-3.807920e-010
-4.899220e-010
-2.764295e-010
2.060175e-010
6.116820e-010
2.735252e-010
-1.666535e-010
-5.024042e-010
-2.857944e-010
3.347929e-010
7.574090e-010
5.495806e-010
-1.117759e-010
-6.400946e-010
-6.476859e-010
-3.015996e-010
-5.552950e-011
-8.245710e-011
-6.871685e-011
3.761787e-010
1.149241e-009
1.596593e-009
1.102054e-009
-2.637882e-010
-1.719529e-009
-2.417639e-009
-2.114278e-009
-1.227812e-009
-3.152761e-010
4.276743e-010
1.154448e-009
1.968864e-009
2.661141e-009
2.872207e-009
2.458340e-009
1.627381e-009
7.200489e-010
-8.754900e-011
-8.422549e-010
-1.627192e-009
-2.389258e-009
-2.972450e-009
-3.281623e-009
-3.368004e-009
-3.352607e-009
-3.299243e-009
-3.183243e-009
-2.967693e-009
-2.677937e-009
-2.388960e-009
-2.154344e-009
-1.966746e-009
-1.790375e-009
-1.619065e-009
-1.490069e-009
-1.441103e-009
-1.465234e-009
-1.519510e-009
-1.578658e-009
-1.668254e-009
-1.831457e-009
-2.063975e-009
-2.299473e-009
-2.474304e-009
-2.597869e-009
-2.732182e-009
-2.889477e-009
-2.972992e-009
-2.854614e-009
-2.515231e-009
-2.072124e-009
-1.636499e-009
-1.164980e-009
-5.094971e-010
3.594290e-010
1.220795e-009
1.758000e-009
1.857193e-009
1.700378e-009
1.519400e-009
1.291537e-009
7.653285e-010
-1.686734e-010
-1.187373e-009
-1.713476e-009
-1.434494e-009
-6.188179e-010
1.283321e-010
4.230011e-010
3.869497e-010
3.818746e-010
5.288713e-010
5.703320e-010
2.218741e-010
-4.058373e-010
-8.217095e-010
-6.264335e-010
5.130639e-011
6.306531e-010
6.152172e-010
6.215155e-011
-4.809484e-010
-5.071923e-010
-2.936947e-011
4.526364e-010
1.335258e-009
-6.484315e-011
-1.526570e-009
-1.666055e-009
-2.593219e-010
1.579893e-009
2.357937e-009
1.435369e-009
-5.103787e-010
-2.114965e-009
-2.414428e-009
-1.441024e-009
5.687269e-011
1.325538e-009
2.027869e-009
2.127613e-009
1.605694e-009
4.577780e-010
-1.052913e-009
-2.314307e-009
-2.706393e-009
-2.082180e-009
-8.792165e-010
2.748739e-010
1.055487e-009
1.543911e-009
1.912009e-009
2.112255e-009
1.928841e-009
1.282434e-009
3.925268e-010
-3.968259e-010
-9.134018e-010
-1.240676e-009
-1.530574e-009
-1.795382e-009
-1.912882e-009
-1.800179e-009
-1.526282e-009
-1.239441e-009
-1.016834e-009
-8.170595e-010
-5.712837e-010
-2.858450e-010
-3.637142e-011
1.233857e-010
2.189619e-010
3.139009e-010
4.279018e-010
5.156329e-010
5.282226e-010
4.782464e-010
4.258739e-010
4.014362e-010
3.614884e-010
2.393565e-010
3.338400e-011
-1.804928e-010
-3.390767e-010
-4.773407e-010
-6.904189e-010
-1.001933e-009
-1.301474e-009
-1.448365e-009
-1.430031e-009
-1.371410e-009
-1.360795e-009
-1.300298e-009
-9.896589e-010
-3.736702e-010
3.425774e-010
8.742808e-010
1.136774e-009
1.283895e-009
1.444712e-009
1.481819e-009
1.097926e-009
2.054827e-010
-8.656840e-010
-1.588982e-009
-1.670380e-009
-1.231071e-009
-5.842227e-010
8.587787e-011
7.580145e-010
1.332745e-009
1.497208e-009
9.598753e-010
-1.549432e-010
-1.224437e-009
-1.546020e-009
-9.148754e-010
1.841313e-010
9.651234e-010
9.647355e-010
3.574154e-010
-2.736382e-010
-4.611399e-010
-2.073470e-010
1.023235e-010
1.465979e-009
1.940761e-010
-1.283897e-009
-1.745152e-009
-7.610103e-010
9.422631e-010
2.025458e-009
1.602186e-009
-2.569178e-011
-1.604543e-009
-1.962953e-009
-9.510464e-010
5.263602e-010
1.354575e-009
1.113345e-009
2.514846e-010
-4.853117e-010
-7.053092e-010
-5.061311e-010
-1.447861e-010
2.598540e-010
6.844046e-010
1.002541e-009
9.803010e-010
5.037533e-010
-2.580015e-010
-9.779187e-010
-1.444956e-009
-1.673035e-009
-1.752378e-009
-1.665733e-009
-1.305177e-009
-6.469101e-010
1.576283e-010
8.960709e-010
1.473684e-009
1.945816e-009
2.385981e-009
2.766614e-009
2.992110e-009
3.024135e-009
2.934908e-009
2.829035e-009
2.738886e-009
2.619270e-009
2.435252e-009
2.225928e-009
2.067356e-009
1.987653e-009
1.943336e-009
1.884980e-009
1.827112e-009
1.832268e-009
1.928018e-009
2.063478e-009
2.165612e-009
2.227682e-009
2.313385e-009
2.461962e-009
2.611823e-009
2.649249e-009
2.532571e-009
2.334433e-009
2.137252e-009
1.908606e-009
1.525801e-009
9.370461e-010
2.612494e-010
-3.108047e-010
-7.018462e-010
-9.874863e-010
-1.237110e-009
-1.366010e-009
-1.207322e-009
-7.313989e-010
-1.368718e-010
3.134749e-010
5.178459e-010
5.519104e-010
4.842102e-010
2.668951e-010
-1.277424e-010
-5.122188e-010
-5.501532e-010
-9.806059e-011
5.500680e-010
8.524976e-010
5.134098e-010
-2.181285e-010
-7.666416e-010
-7.495142e-010
-2.779181e-010
2.230414e-010
4.327903e-010
3.557235e-010
1.881369e-010
6.344269e-011
-3.062634e-011
-1.371618e-010
-2.236480e-010
1.835394e-010
3.164394e-010
2.574657e-010
-1.525290e-010
-6.167666e-010
-6.757020e-010
-2.422189e-010
2.795369e-010
4.568441e-010
3.228924e-010
2.902267e-010
5.638564e-010
7.697691e-010
3.099334e-010
-8.914179e-010
-2.095601e-009
-2.310747e-009
-1.182106e-009
6.789643e-010
2.225837e-009
2.794133e-009
2.429812e-009
1.560434e-009
5.110578e-010
-6.205906e-010
-1.746092e-009
-2.623161e-009
-2.978326e-009
-2.737361e-009
-2.067786e-009
-1.202594e-009
-2.747768e-010
6.683710e-010
1.554176e-009
2.258677e-009
2.697020e-009
2.894443e-009
2.938226e-009
2.876872e-009
2.695920e-009
2.387961e-009
2.010364e-009
1.650375e-009
1.346288e-009
1.069338e-009
7.866606e-010
5.196136e-010
3.224466e-010
2.138217e-010
1.545051e-010
1.013686e-010
6.595167e-011
9.928593e-011
2.222514e-010
3.944366e-010
5.652895e-010
7.408497e-010
9.741695e-010
1.286740e-009
1.623906e-009
1.907357e-009
2.117609e-009
2.293216e-009
2.442805e-009
2.489997e-009
2.335521e-009
1.962105e-009
1.441830e-009
8.360391e-010
1.342501e-010
-6.659317e-010
-1.440286e-009
-1.965343e-009
-2.095084e-009
-1.872879e-009
-1.425432e-009
-7.804460e-010
1.153266e-010
1.153947e-009
1.924024e-009
1.952074e-009
1.157182e-009
1.862189e-011
-7.927475e-010
-9.736297e-010
-7.542871e-010
-5.216121e-010
-3.649855e-010
-7.658158e-011
4.310109e-010
8.490482e-010
7.368296e-010
5.824929e-011
-6.540745e-010
-7.698495e-010
-2.040560e-010
4.696412e-010
5.915043e-010
8.788631e-011
-4.668872e-010
-1.728598e-009
9.891295e-011
1.909011e-009
1.940645e-009
1.500599e-010
-1.859718e-009
-2.403296e-009
-1.177650e-009
6.952127e-010
1.861128e-009
1.844651e-009
1.088044e-009
1.872381e-010
-6.584275e-010
-1.453581e-009
-1.944122e-009
-1.644763e-009
-4.100535e-010
1.166986e-009
2.109994e-009
1.876762e-009
7.937403e-010
-3.213582e-010
-9.022860e-010
-9.739096e-010
-8.561437e-010
-6.992603e-010
-3.886604e-010
1.743214e-010
8.401678e-010
1.311754e-009
1.417970e-009
1.224927e-009
8.963922e-010
5.147632e-010
6.541692e-011
-4.536364e-010
-9.716310e-010
-1.401866e-009
-1.718165e-009
-1.949309e-009
-2.116868e-009
-2.209835e-009
-2.220551e-009
-2.176970e-009
-2.121072e-009
-2.067305e-009
-2.002257e-009
-1.923410e-009
-1.857778e-009
-1.832413e-009
-1.840400e-009
-1.853096e-009
-1.861558e-009
-1.885992e-009
-1.937714e-009
-1.989272e-009
-1.999633e-009
-1.960176e-009
-1.891644e-009
-1.792052e-009
-1.615138e-009
-1.324086e-009
-9.517752e-010
-5.725088e-010
-2.108228e-010
1.790599e-010
6.087432e-010
9.589620e-010
1.053263e-009
8.511098e-010
5.164606e-010
2.388020e-010
1.169796e-011
-3.232786e-010
-7.774796e-010
-1.043210e-009
-7.442335e-010
1.094028e-010
1.000776e-009
1.330966e-009
9.633137e-010
2.887172e-010
-2.428930e-010
-5.555186e-010
-8.394572e-010
-1.089602e-009
-9.440166e-010
-1.168678e-010
1.059674e-009
1.711321e-009
1.193249e-009
-1.969367e-010
-1.366174e-009
-1.382729e-009
-3.337106e-010
7.694596e-010
9.579732e-010
2.047428e-010
-6.100342e-010
-2.643246e-009
-2.824444e-010
2.241358e-009
2.709953e-009
8.300435e-010
-1.636510e-009
-2.565728e-009
-1.353500e-009
7.187672e-010
1.829952e-009
1.275113e-009
-1.174742e-010
-1.008625e-009
-8.181016e-010
-1.027026e-011
6.419122e-010
8.257496e-010
7.055087e-010
4.192942e-010
-1.579946e-010
-1.089794e-009
-2.001239e-009
-2.242568e-009
-1.482172e-009
-5.456006e-011
1.336990e-009
2.218684e-009
2.601576e-009
2.708922e-009
2.594806e-009
2.109441e-009
1.176916e-009
-1.312659e-011
-1.132464e-009
-1.979857e-009
-2.573131e-009
-3.009379e-009
-3.305426e-009
-3.399687e-009
-3.264843e-009
-2.964865e-009
-2.598623e-009
-2.221704e-009
-1.839174e-009
-1.452388e-009
-1.085732e-009
-7.694761e-010
-5.175953e-010
-3.305604e-010
-2.078543e-010
-1.486263e-010
-1.487337e-010
-2.086149e-010
-3.389407e-010
-5.447353e-010
-8.052378e-010
-1.086853e-009
-1.382209e-009
-1.716254e-009
-2.092382e-009
-2.443843e-009
-2.672876e-009
-2.747524e-009
-2.724842e-009
-2.644275e-009
-2.420716e-009
-1.907084e-009
-1.089903e-009
-1.744156e-010
5.863508e-010
1.135017e-009
1.607127e-009
2.053019e-009
2.238965e-009
1.839523e-009
8.512786e-010
-2.731522e-010
-9.866797e-010
-1.123380e-009
-9.459648e-010
-7.371824e-010
-4.703548e-010
1.945101e-011
6.117006e-010
8.427066e-010
3.935477e-010
-4.285152e-010
-8.605684e-010
-4.292087e-010
5.130166e-010
1.079543e-009
7.093531e-010
-2.815183e-010
-1.009884e-009
-8.653844e-010
-4.894664e-011
6.699451e-010
6.864822e-010
8.092870e-011
-5.115617e-010
-1.469184e-009
-4.181985e-010
8.237392e-010
1.295782e-009
7.198432e-010
-2.674767e-010
-6.981768e-010
-2.120919e-010
5.492835e-010
5.715863e-010
-4.356138e-010
-1.610195e-009
-1.705104e-009
-3.278121e-010
1.613460e-009
2.711197e-009
2.271866e-009
7.516780e-010
-8.604370e-010
-1.905925e-009
-2.299278e-009
-2.155493e-009
-1.474017e-009
-2.804829e-010
1.087759e-009
2.060430e-009
2.267480e-009
1.824071e-009
1.138349e-009
4.925009e-010
-1.186943e-010
-7.742872e-010
-1.377487e-009
-1.693684e-009
-1.596882e-009
-1.197739e-009
-7.108133e-010
-2.465936e-010
2.305260e-010
7.730862e-010
1.340217e-009
1.830180e-009
2.185885e-009
2.436017e-009
2.640690e-009
2.823938e-009
2.965919e-009
3.043202e-009
3.061873e-009
3.054377e-009
3.051378e-009
3.054860e-009
3.035232e-009
2.960560e-009
2.834512e-009
2.696475e-009
2.569056e-009
2.410178e-009
2.143730e-009
1.751691e-009
1.312394e-009
9.144561e-010
5.409941e-010
8.870540e-011
-4.701847e-010
-9.830604e-010
-1.234527e-009
-1.171875e-009
-9.522622e-010
-7.275524e-010
-4.354133e-010
1.052770e-010
8.800462e-010
1.550219e-009
1.720789e-009
1.315255e-009
6.096106e-010
-9.986736e-011
-7.507564e-010
-1.363077e-009
-1.729730e-009
-1.459685e-009
-4.379310e-010
8.437410e-010
1.581410e-009
1.356729e-009
4.983446e-010
-2.837935e-010
-5.695114e-010
-4.823326e-010
-3.477772e-010
-2.645257e-010
-1.000744e-010
1.862197e-010
3.934405e-010
3.153195e-010
2.757764e-011
-1.785292e-010
-1.421338e-010
-8.257285e-012
1.197589e-009
-1.308319e-010
-1.383893e-009
-1.325924e-009
-7.284299e-011
1.205223e-009
1.537122e-009
9.262723e-010
-4.636865e-013
-7.691584e-010
-1.279714e-009
-1.435502e-009
-9.551786e-010
2.256484e-010
1.517368e-009
1.961624e-009
1.116289e-009
-4.197373e-010
-1.489751e-009
-1.398416e-009
-4.171506e-010
6.487261e-010
1.231004e-009
1.286073e-009
9.893116e-010
3.986346e-010
-4.897992e-010
-1.490942e-009
-2.223085e-009
-2.397526e-009
-2.040871e-009
-1.384742e-009
-5.917255e-010
3.387111e-010
1.415763e-009
2.506363e-009
3.397435e-009
3.979899e-009
4.317206e-009
4.529731e-009
4.654948e-009
4.644368e-009
4.469626e-009
4.189842e-009
3.906841e-009
3.677105e-009
3.483896e-009
3.287739e-009
3.088576e-009
2.933941e-009
2.871379e-009
2.898344e-009
2.963996e-009
3.025494e-009
3.099428e-009
3.242611e-009
3.471784e-009
3.715981e-009
3.874162e-009
3.921443e-009
3.925507e-009
3.932178e-009
3.858267e-009
3.548869e-009
2.953406e-009
2.199438e-009
1.452774e-009
7.362553e-010
-4.256714e-011
-8.735041e-010
-1.531253e-009
-1.753982e-009
-1.512156e-009
-1.023100e-009
-4.935332e-010
5.378678e-011
6.252412e-010
1.011674e-009
8.763063e-010
1.680776e-010
-6.537825e-010
-9.605191e-010
-5.497258e-010
1.799361e-010
6.770338e-010
7.624856e-010
6.247109e-010
3.926901e-010
-5.535067e-011
-7.506809e-010
-1.269718e-009
-9.998486e-010
1.145789e-010
1.252675e-009
1.388801e-009
3.610606e-010
-8.580691e-010
-1.102375e-009
-2.196101e-010
7.695884e-010
3.346780e-009
2.812130e-010
-2.803151e-009
-3.100000e-009
-6.712279e-010
1.944001e-009
2.436605e-009
8.261613e-010
-9.967226e-010
-1.408840e-009
-4.741387e-010
5.804226e-010
8.382601e-010
3.894433e-010
-2.088854e-010
-6.948450e-010
-1.114951e-009
-1.323495e-009
-8.787140e-010
4.055533e-010
1.980807e-009
2.868413e-009
2.491494e-009
1.131171e-009
-4.341727e-010
-1.618191e-009
-2.301995e-009
-2.570043e-009
-2.401528e-009
-1.711679e-009
-5.880468e-010
6.648413e-010
1.745245e-009
2.551233e-009
3.132376e-009
3.511696e-009
3.629179e-009
3.452136e-009
3.069731e-009
2.634415e-009
2.230496e-009
1.835988e-009
1.409226e-009
9.769582e-010
6.177867e-010
3.754586e-010
2.147536e-010
6.892990e-011
-8.267067e-011
-1.964561e-010
-2.223396e-010
-1.679063e-010
-9.283147e-011
-3.686489e-011
3.431010e-011
1.940375e-010
4.643208e-010
7.817346e-010
1.072341e-009
1.346817e-009
1.684684e-009
2.111978e-009
2.528360e-009
2.792152e-009
2.861988e-009
2.802333e-009
2.638106e-009
2.266699e-009
1.578673e-009
6.458059e-010
-2.891882e-010
-1.031903e-009
-1.569332e-009
-1.920091e-009
-1.921658e-009
-1.325466e-009
-1.730848e-010
1.027346e-009
1.650473e-009
1.501835e-009
9.290579e-010
3.677550e-010
-9.348948e-011
-5.809815e-010
-9.754154e-010
-8.575873e-010
-6.896904e-011
8.232474e-010
9.224631e-010
-4.297521e-012
-1.084882e-009
-1.133525e-009
5.626331e-011
1.359500e-009
1.418147e-009
8.862724e-011
-1.332854e-009
-1.414896e-009
-8.150664e-011
1.290638e-009
3.188100e-009
3.528283e-010
-2.454059e-009
-2.637077e-009
-3.843371e-010
1.757990e-009
1.638134e-009
-3.570242e-010
-1.902948e-009
-1.273075e-009
9.294302e-010
2.538809e-009
2.071566e-009
3.326173e-011
-1.858487e-009
-2.398142e-009
-1.696409e-009
-5.563367e-010
4.856275e-010
1.335752e-009
1.870038e-009
1.730047e-009
7.440500e-010
-6.426135e-010
-1.596849e-009
-1.594750e-009
-8.037307e-010
2.233447e-010
1.104079e-009
1.806028e-009
2.386010e-009
2.741409e-009
2.690987e-009
2.213435e-009
1.499649e-009
7.694258e-010
1.055458e-010
-5.120375e-010
-1.072002e-009
-1.496940e-009
-1.734737e-009
-1.829285e-009
-1.871512e-009
-1.901816e-009
-1.890605e-009
-1.810526e-009
-1.697046e-009
-1.619227e-009
-1.602530e-009
-1.604131e-009
-1.572092e-009
-1.513908e-009
-1.487799e-009
-1.526500e-009
-1.590673e-009
-1.615201e-009
-1.591422e-009
-1.574149e-009
-1.596050e-009
-1.601202e-009
-1.495595e-009
-1.255138e-009
-9.412851e-010
-5.950394e-010
-1.628072e-010
4.166883e-010
1.066058e-009
1.583194e-009
1.834600e-009
1.875649e-009
1.810051e-009
1.570521e-009
9.687601e-010
2.464373e-011
-8.521566e-010
-1.153911e-009
-7.676961e-010
-7.579707e-011
4.779926e-010
8.085478e-010
1.058414e-009
1.138750e-009
6.695367e-010
-4.610541e-010
-1.621813e-009
-1.827442e-009
-7.501618e-010
7.797929e-010
1.482051e-009
8.782470e-010
-2.582578e-010
-7.516241e-010
-2.428118e-010
5.243750e-010
5.931419e-010
-1.573106e-010
-9.138770e-010
-8.227092e-010
1.048970e-010
9.972432e-010
7.135474e-010
-2.499094e-012
-5.923355e-010
-3.532465e-010
4.589718e-010
8.220461e-010
5.570826e-011
-1.278636e-009
-1.766422e-009
-5.956721e-010
1.418018e-009
2.463404e-009
1.509970e-009
-6.155544e-010
-2.026129e-009
-1.607842e-009
3.021217e-011
1.356620e-009
1.430460e-009
5.176587e-010
-5.585954e-010
-1.302648e-009
-1.678101e-009
-1.652869e-009
-9.968772e-010
3.693225e-010
2.028854e-009
3.280026e-009
3.701094e-009
3.413641e-009
2.797451e-009
2.070891e-009
1.220206e-009
2.472060e-010
-6.678977e-010
-1.296570e-009
-1.579230e-009
-1.645715e-009
-1.645484e-009
-1.621781e-009
-1.558459e-009
-1.486918e-009
-1.492132e-009
-1.623451e-009
-1.844111e-009
-2.084367e-009
-2.317779e-009
-2.559252e-009
-2.799427e-009
-2.975892e-009
-3.025759e-009
-2.949461e-009
-2.799048e-009
-2.607415e-009
-2.357489e-009
-2.036154e-009
-1.695777e-009
-1.426935e-009
-1.267985e-009
-1.175977e-009
-1.106630e-009
-1.088938e-009
-1.168869e-009
-1.283198e-009
-1.255969e-009
-9.668565e-010
-4.850614e-010
3.198234e-011
5.594783e-010
1.223104e-009
2.035531e-009
2.693340e-009
2.774057e-009
2.167066e-009
1.211417e-009
3.414426e-010
-3.163215e-010
-8.710411e-010
-1.251956e-009
-1.104401e-009
-2.643884e-010
7.764820e-010
1.148764e-009
4.743703e-010
-6.535006e-010
-1.209073e-009
-7.427114e-010
2.440178e-010
9.039882e-010
8.674276e-010
4.022205e-010
-6.746513e-011
-3.686928e-010
-5.092535e-010
-4.506178e-010
-1.541027e-010
2.155147e-010
3.509073e-010
1.493947e-010
-1.211583e-010
-2.279393e-009
-3.527734e-010
1.628698e-009
1.997709e-009
7.979428e-010
-6.329496e-010
-1.190016e-009
-8.380223e-010
-1.695691e-010
3.560073e-010
5.614867e-010
3.216491e-010
-3.482730e-010
-9.675837e-010
-7.688288e-010
4.821866e-010
1.951256e-009
2.329786e-009
1.089012e-009
-9.604244e-010
-2.423615e-009
-2.537410e-009
-1.581900e-009
-2.752838e-010
9.454155e-010
1.985603e-009
2.714501e-009
2.848118e-009
2.269367e-009
1.286466e-009
4.236303e-010
-1.974480e-011
-1.230538e-010
-9.735153e-011
-1.300914e-011
1.722805e-010
4.002400e-010
4.427153e-010
6.511152e-011
-8.003837e-010
-2.072414e-009
-3.661484e-009
-5.535004e-009
-7.650240e-009
-9.882312e-009
-1.205547e-008
-1.402771e-008
-1.571481e-008
-1.704086e-008
-1.790705e-008
-1.823213e-008
-1.800493e-008
-1.727019e-008
-1.607026e-008
-1.443481e-008
-1.243905e-008
-1.023922e-008
-8.012592e-009
-5.869612e-009
-3.863502e-009
-2.090002e-009
-7.198904e-010
1.245719e-010
5.089885e-010
6.364276e-010
6.398744e-010
4.905791e-010
1.695219e-010
-1.255973e-010
-6.953093e-011
4.490890e-010
1.159915e-009
1.668297e-009
1.831761e-009
1.768944e-009
1.516982e-009
8.771081e-010
-2.426105e-010
-1.420674e-009
-1.904484e-009
-1.323745e-009
-1.238522e-010
8.368299e-010
1.077586e-009
7.747247e-010
3.288028e-010
-8.944437e-011
-4.450757e-010
-5.314798e-010
-1.172082e-010
5.529530e-010
7.424539e-010
2.234822e-011
-1.008722e-009
-1.175596e-009
-7.181750e-011
1.274708e-009
1.398832e-009
6.222425e-011
-1.365697e-009
-3.724268e-009
-2.211375e-010
3.013734e-009
2.857746e-009
1.412228e-011
-2.184201e-009
-1.591637e-009
7.081150e-010
2.042039e-009
1.144710e-009
-8.572528e-010
-2.054574e-009
-1.690071e-009
-4.040829e-010
8.538418e-010
1.611993e-009
1.724266e-009
1.065617e-009
-2.344916e-010
-1.467269e-009
-1.703504e-009
-6.523607e-010
9.813248e-010
2.123015e-009
2.249147e-009
1.628363e-009
7.998897e-010
4.952262e-011
-5.686494e-010
-9.298038e-010
-8.068527e-010
-1.615592e-010
6.778107e-010
1.214359e-009
1.105830e-009
2.363409e-010
-1.468225e-009
-4.168973e-009
-8.010892e-009
-1.295088e-008
-1.875085e-008
-2.512686e-008
-3.185466e-008
-3.872921e-008
-4.548232e-008
-5.179146e-008
-5.736286e-008
-6.197607e-008
-6.545479e-008
-6.763872e-008
-6.841229e-008
-6.774401e-008
-6.567209e-008
-6.226346e-008
-5.762343e-008
-5.195240e-008
-4.555250e-008
-3.874098e-008
-3.176998e-008
-2.486597e-008
-1.833239e-008
-1.253917e-008
-7.756585e-009
-4.026326e-009
-1.252156e-009
5.983230e-010
1.469949e-009
1.437093e-009
8.632445e-010
2.325564e-010
-1.805732e-010
-3.865762e-010
-4.178006e-010
-1.374110e-010
5.465189e-010
1.337781e-009
1.644412e-009
1.142543e-009
1.601990e-010
-6.295543e-010
-8.520813e-010
-6.306753e-010
-1.954159e-010
4.227443e-010
1.127875e-009
1.413703e-009
7.207277e-010
-7.141183e-010
-1.698925e-009
-1.199481e-009
3.788766e-010
1.399413e-009
7.453639e-010
-8.205134e-010
-1.414698e-009
-2.050363e-010
1.515338e-009
1.724397e-009
1.632118e-011
-1.838262e-009
-2.917510e-009
3.407010e-010
2.969591e-009
1.997901e-009
-1.292930e-009
-3.027596e-009
-1.234186e-009
2.047594e-009
3.237745e-009
1.184789e-009
-1.833466e-009
-2.836749e-009
-1.229213e-009
1.031516e-009
1.829756e-009
8.804840e-010
-5.665379e-010
-1.331499e-009
-1.183464e-009
-4.336081e-010
6.822088e-010
1.951473e-009
2.862292e-009
2.803278e-009
1.691715e-009
1.977531e-010
-7.988994e-010
-9.174313e-010
-4.030518e-010
2.951622e-010
8.624122e-010
1.026435e-009
3.330630e-010
-1.802026e-009
-5.813207e-009
-1.183988e-008
-1.985816e-008
-2.985521e-008
-4.180531e-008
-5.551644e-008
-7.058046e-008
-8.648896e-008
-1.027548e-007
-1.189074e-007
-1.344220e-007
-1.487176e-007
-1.612360e-007
-1.715076e-007
-1.791517e-007
-1.838640e-007
-1.854385e-007
-1.837966e-007
-1.789766e-007
-1.711133e-007
-1.604628e-007
-1.474483e-007
-1.326338e-007
-1.166156e-007
-9.994725e-008
-8.318518e-008
-6.696153e-008
-5.192142e-008
-3.853858e-008
-2.702392e-008
-1.745082e-008
-9.923804e-009
-4.535540e-009
-1.154043e-009
6.416268e-010
1.333787e-009
1.229356e-009
5.471896e-010
-3.047701e-010
-7.379104e-010
-4.060555e-010
4.525813e-010
1.247143e-009
1.605412e-009
1.581032e-009
1.299729e-009
6.660119e-010
-3.340898e-010
-1.171171e-009
-1.042004e-009
1.564366e-010
1.354940e-009
1.236229e-009
-2.630808e-010
-1.671868e-009
-1.487296e-009
1.320828e-010
1.477056e-009
1.173325e-009
-2.940952e-010
-1.182257e-009
-5.142183e-010
8.291054e-010
1.192326e-009
1.027994e-010
-1.188835e-009
-7.863292e-010
7.487041e-010
1.615538e-009
3.520947e-010
-1.825316e-009
-2.359738e-009
-3.990092e-010
2.069724e-009
2.397016e-009
2.750893e-010
-1.904807e-009
-1.747558e-009
5.003761e-010
2.314970e-009
1.713923e-009
-7.091364e-010
-2.626689e-009
-2.443604e-009
-6.013857e-010
1.331133e-009
2.303549e-009
2.334559e-009
1.866404e-009
1.149509e-009