# vtk DataFile Version 3.0
vtk output
ASCII
DATASET STRUCTURED_POINTS
DIMENSIONS 100 100 1
SPACING 1 1 1
ORIGIN 0 0 0
POINT_DATA 10000
SCALARS SFBox_profile double
LOOKUP_TABLE default 
0.000000e+000
0.000000e+000
0.000000e+000
0.000000e+000
0.000000e+000
0.000000e+000
0.000000e+000
0.000000e+000
0.000000e+000
0.000000e+000
0.000000e+000
0.000000e+000
0.000000e+000
0.000000e+000
0.000000e+000
0.000000e+000
0.000000e+000
0.000000e+000
0.000000e+000
0.000000e+000
0.000000e+000
0.000000e+000
0.000000e+000
0.000000e+000
0.000000e+000
0.000000e+000
0.000000e+000
0.000000e+000
0.000000e+000
0.000000e+000
0.000000e+000
0.000000e+000
0.000000e+000
0.000000e+000
0.000000e+000
0.000000e+000
0.000000e+000
0.000000e+000
0.000000e+000
0.000000e+000
0.000000e+000
0.000000e+000
0.000000e+000
0.000000e+000
0.000000e+000
0.000000e+000
0.000000e+000
0.000000e+000
0.000000e+000
0.000000e+000
0.000000e+000
0.000000e+000
0.000000e+000
0.000000e+000
0.000000e+000
0.000000e+000
0.000000e+000
0.000000e+000
0.000000e+000
0.000000e+000
0.000000e+000
0.000000e+000
0.000000e+000
0.000000e+000
0.000000e+000
0.000000e+000
0.000000e+000
0.000000e+000
0.000000e+000
0.000000e+000
0.000000e+000
0.000000e+000
0.000000e+000
0.000000e+000
0.000000e+000
0.000000e+000
0.000000e+000
0.000000e+000
0.000000e+000
0.000000e+000
0.000000e+000
0.000000e+000
0.000000e+000
0.000000e+000
0.000000e+000
0.000000e+000
0.000000e+000
0.000000e+000
0.000000e+000
0.000000e+000
0.000000e+000
0.000000e+000
0.000000e+000
0.000000e+000
0.000000e+000
0.000000e+000
0.000000e+000
0.000000e+000
0.000000e+000
0.000000e+000
-2.973160e-008
-1.787469e-008
-1.133554e-009
1.118608e-008
1.348732e-008
7.158408e-009
-1.057833e-009
-4.237292e-009
-1.797217e-010
7.395909e-009
1.194111e-008
8.830266e-009
-1.979050e-009
-1.738346e-008
-3.542904e-008
-5.900130e-008
-9.595244e-008
-1.555148e-007
-2.437385e-007
-3.614023e-007
-5.058453e-007
-6.750503e-007
-8.705389e-007
-1.096606e-006
-1.356366e-006
-1.647689e-006
-1.962316e-006
-2.289042e-006
-2.618710e-006
-2.947335e-006
-3.275130e-006
-3.602477e-006
-3.926302e-006
-4.239969e-006
-4.536830e-006
-4.814432e-006
-5.075694e-006
-5.325819e-006
-5.567352e-006
-5.797537e-006
-6.010458e-006
-6.202395e-006
-6.375888e-006
-6.538645e-006
-6.697673e-006
-6.853357e-006
-6.998828e-006
-7.125762e-006
-7.231973e-006
-7.324048e-006
-7.412255e-006
-7.501840e-006
-7.588406e-006
-7.661645e-006
-7.714183e-006
-7.747531e-006
-7.769817e-006
-7.787503e-006
-7.798769e-006
-7.794456e-006
-7.765370e-006
-7.708986e-006
-7.629462e-006
-7.531326e-006
-7.412995e-006
-7.266172e-006
-7.081392e-006
-6.854265e-006
-6.586563e-006
-6.281520e-006
-5.938394e-006
-5.552055e-006
-5.118476e-006
-4.641252e-006
-4.133299e-006
-3.612328e-006
-3.094368e-006
-2.590930e-006
-2.111465e-006
-1.667443e-006
-1.272941e-006
-9.402115e-007
-6.737797e-007
-4.682946e-007
-3.121852e-007
-1.942113e-007
-1.077728e-007
-5.016250e-008
-1.844732e-008
-6.257339e-009
-4.411271e-009
-4.605687e-009
-2.793241e-009
5.155600e-010
2.892654e-009
3.038288e-009
1.796622e-009
8.725989e-010
1.019358e-009
1.575020e-009
-2.243354e-008
-1.303174e-008
1.185170e-010
9.542056e-009
1.089008e-008
5.534724e-009
-9.226067e-010
-3.013671e-009
5.783104e-010
6.161161e-009
7.697357e-009
7.089004e-010
-1.568861e-008
-4.016755e-008
-7.281498e-008
-1.180818e-007
-1.846714e-007
-2.823442e-007
-4.179267e-007
-5.933026e-007
-8.065182e-007
-1.054709e-006
-1.336248e-006
-1.650295e-006
-1.994173e-006
-2.360840e-006
-2.738806e-006
-3.115047e-006
-3.479103e-006
-3.825578e-006
-4.153350e-006
-4.462285e-006
-4.750186e-006
-5.012447e-006
-5.244663e-006
-5.445937e-006
-5.619933e-006
-5.772526e-006
-5.907745e-006
-6.025289e-006
-6.121821e-006
-6.195188e-006
-6.248088e-006
-6.287823e-006
-6.321811e-006
-6.352356e-006
-6.375307e-006
-6.384300e-006
-6.377249e-006
-6.359311e-006
-6.339248e-006
-6.322157e-006
-6.305179e-006
-6.280356e-006
-6.242252e-006
-6.193392e-006
-6.142542e-006
-6.097551e-006
-6.059450e-006
-6.023173e-006
-5.983905e-006
-5.942909e-006
-5.907327e-006
-5.884175e-006
-5.874032e-006
-5.869944e-006
-5.861993e-006
-5.842705e-006
-5.807970e-006
-5.752761e-006
-5.666222e-006
-5.531587e-006
-5.332002e-006
-5.057933e-006
-4.710546e-006
-4.299332e-006
-3.837345e-006
-3.338886e-006
-2.821059e-006
-2.306087e-006
-1.820046e-006
-1.386983e-006
-1.021956e-006
-7.279320e-007
-4.985681e-007
-3.242569e-007
-1.967920e-007
-1.099187e-007
-5.695029e-008
-2.888673e-008
-1.537531e-008
-7.811969e-009
-1.843190e-009
2.819734e-009
4.907663e-009
4.172819e-009
2.067338e-009
4.792102e-010
1.628117e-010
4.681467e-010
-1.016177e-008
-4.891244e-009
2.264309e-009
6.951873e-009
6.893971e-009
3.313224e-009
-2.849217e-010
-1.035470e-009
8.060813e-010
1.539960e-009
-4.147746e-009
-2.084584e-008
-5.151357e-008
-9.871697e-008
-1.669489e-007
-2.640732e-007
-4.005467e-007
-5.866515e-007
-8.292709e-007
-1.129855e-006
-1.484216e-006
-1.883584e-006
-2.315810e-006
-2.766060e-006
-3.217144e-006
-3.650245e-006
-4.046594e-006
-4.389955e-006
-4.668995e-006
-4.878385e-006
-5.017986e-006
-5.090577e-006
-5.099475e-006
-5.047470e-006
-4.937522e-006
-4.774287e-006
-4.564917e-006
-4.318126e-006
-4.041925e-006
-3.741627e-006
-3.419689e-006
-3.077773e-006
-2.719558e-006
-2.351918e-006
-1.983012e-006
-1.618458e-006
-1.258845e-006
-9.012141e-007
-5.436113e-007
-1.886480e-007
1.574548e-007
4.895538e-007
8.072909e-007
1.113773e-006
1.410070e-006
1.690620e-006
1.943871e-006
2.157407e-006
2.322550e-006
2.434134e-006
2.485948e-006
2.466561e-006
2.359917e-006
2.150764e-006
1.830753e-006
1.400710e-006
8.683317e-007
2.448653e-007
-4.549216e-007
-1.208639e-006
-1.981786e-006
-2.727832e-006
-3.394518e-006
-3.933205e-006
-4.306346e-006
-4.490712e-006
-4.477990e-006
-4.275674e-006
-3.908812e-006
-3.419869e-006
-2.863550e-006
-2.296569e-006
-1.766356e-006
-1.303862e-006
-9.229514e-007
-6.247122e-007
-4.027777e-007
-2.467857e-007
-1.438678e-007
-7.983469e-008
-4.124492e-008
-1.780586e-008
-3.555660e-009
4.022819e-009
6.184343e-009
4.682264e-009
1.951258e-009
2.190793e-011
-5.004727e-010
-3.211076e-010
3.168905e-009
3.872333e-009
4.506010e-009
4.258452e-009
3.070776e-009
1.712400e-009
9.487666e-010
3.622895e-010
-2.338429e-009
-1.113809e-008
-3.106324e-008
-6.787079e-008
-1.285336e-007
-2.221480e-007
-3.602950e-007
-5.560422e-007
-8.215246e-007
-1.164761e-006
-1.586547e-006
-2.077997e-006
-2.619066e-006
-3.178469e-006
-3.715610e-006
-4.184825e-006
-4.541327e-006
-4.747239e-006
-4.775832e-006
-4.613008e-006
-4.256413e-006
-3.713406e-006
-2.998826e-006
-2.132754e-006
-1.138055e-006
-3.779850e-008
1.146786e-006
2.397118e-006
3.696705e-006
5.029968e-006
6.381702e-006
7.737921e-006
9.087544e-006
1.042319e-005
1.173974e-005
1.303153e-005
1.429075e-005
1.550914e-005
1.668161e-005
1.780813e-005
1.889157e-005
1.993328e-005
2.093067e-005
2.187868e-005
2.277281e-005
2.360974e-005
2.438439e-005
2.508614e-005
2.569815e-005
2.619981e-005
2.656981e-005
2.678648e-005
2.682555e-005
2.665790e-005
2.625036e-005
2.556981e-005
2.458874e-005
2.328897e-005
2.166293e-005
1.971396e-005
1.745890e-005
1.493400e-005
1.220149e-005
9.352245e-006
6.501560e-006
3.778785e-006
1.313905e-006
-7.763333e-007
-2.402002e-006
-3.512853e-006
-4.108087e-006
-4.238766e-006
-3.999524e-006
-3.510274e-006
-2.893317e-006
-2.253165e-006
-1.664547e-006
-1.169859e-006
-7.837017e-007
-5.008691e-007
-3.048492e-007
-1.751724e-007
-9.273588e-008
-4.261678e-008
-1.442321e-008
-1.010825e-009
3.099041e-009
2.520847e-009
8.206504e-010
-3.609812e-011
2.006405e-010
7.187590e-010
1.355864e-008
1.045752e-008
5.816460e-009
1.898400e-009
3.473630e-010
1.042091e-009
1.690377e-009
-1.692316e-009
-1.388624e-008
-4.003265e-008
-8.636811e-008
-1.620182e-007
-2.807348e-007
-4.609958e-007
-7.234103e-007
-1.085597e-006
-1.555801e-006
-2.126798e-006
-2.771173e-006
-3.438570e-006
-4.055666e-006
-4.530085e-006
-4.759430e-006
-4.645046e-006
-4.107602e-006
-3.099614e-006
-1.610595e-006
3.362644e-007
2.693057e-006
5.397103e-006
8.378522e-006
1.156513e-005
1.488639e-005
1.827776e-005
2.168505e-005
2.506677e-005
2.839296e-005
3.164091e-005
3.479057e-005
3.782310e-005
4.072337e-005
4.348368e-005
4.610408e-005
4.858787e-005
5.093586e-005
5.314500e-005
5.521266e-005
5.714188e-005
5.894180e-005
6.062236e-005
6.218856e-005
6.363903e-005
6.496904e-005
6.617346e-005
6.724652e-005
6.817920e-005
6.895720e-005
6.956101e-005
6.996715e-005
7.014885e-005
7.007535e-005
6.971041e-005
6.901091e-005
6.792668e-005
6.640174e-005
6.437684e-005
6.179210e-005
5.859059e-005
5.472502e-005
5.017013e-005
4.494021e-005
3.910727e-005
3.281372e-005
2.627440e-005
1.976540e-005
1.359864e-005
8.083816e-006
3.482661e-006
-3.453927e-008
-2.418264e-006
-3.745170e-006
-4.196598e-006
-4.015943e-006
-3.457765e-006
-2.743219e-006
-2.032664e-006
-1.419042e-006
-9.382047e-007
-5.879879e-007
-3.475382e-007
-1.913074e-007
-9.615258e-008
-4.319368e-008
-1.734767e-008
-6.802029e-009
-3.098279e-009
-1.280699e-009
5.678367e-010
2.439496e-009
3.638244e-009
1.879133e-008
1.333649e-008
5.602443e-009
-1.533257e-010
-1.525612e-009
-9.691355e-012
-1.059118e-009
-1.241154e-008
-4.219765e-008
-9.863925e-008
-1.921306e-007
-3.386535e-007
-5.618801e-007
-8.910277e-007
-1.352850e-006
-1.958476e-006
-2.688027e-006
-3.477218e-006
-4.210214e-006
-4.722043e-006
-4.812150e-006
-4.268530e-006
-2.899264e-006
-5.656283e-007
2.791252e-006
7.138137e-006
1.235603e-005
1.826292e-005
2.464471e-005
3.128400e-005
3.797993e-005
4.455833e-005
5.087577e-005
5.682152e-005
6.231847e-005
6.732192e-005
7.181437e-005
7.579623e-005
7.927605e-005
8.226525e-005
8.478006e-005
8.684736e-005
8.850655e-005
8.980300e-005
9.077716e-005
9.145893e-005
9.187172e-005
9.204105e-005
9.199795e-005
9.177396e-005
9.139385e-005
9.087394e-005
9.022753e-005
8.947217e-005
8.863343e-005
8.774474e-005
8.684593e-005
8.598224e-005
8.520395e-005
8.456566e-005
8.412416e-005
8.393258e-005
8.402931e-005
8.442256e-005
8.507408e-005
8.588507e-005
8.668485e-005
8.722365e-005
8.717457e-005
8.615391e-005
8.376620e-005
7.967254e-005
7.367117e-005
6.577200e-005
5.624380e-005
4.561409e-005
3.461073e-005
2.404954e-005
1.469075e-005
7.101358e-006
1.562815e-006
-1.951754e-006
-3.728820e-006
-4.212749e-006
-3.886060e-006
-3.168664e-006
-2.360975e-006
-1.635418e-006
-1.062375e-006
-6.488282e-007
-3.719108e-007
-1.998058e-007
-1.014065e-007
-4.993964e-008
-2.464363e-008
-1.169711e-008
-3.841694e-009
1.548947e-009
4.990863e-009
6.619872e-009
1.959914e-008
1.320723e-008
4.330777e-009
-2.068038e-009
-3.884952e-009
-4.473208e-009
-1.258175e-008
-4.022770e-008
-1.006457e-007
-2.084973e-007
-3.828328e-007
-6.506738e-007
-1.046900e-006
-1.605649e-006
-2.340373e-006
-3.213976e-006
-4.106330e-006
-4.791668e-006
-4.939679e-006
-4.149076e-006
-2.011808e-006
1.805361e-006
7.482008e-006
1.498853e-005
2.406860e-005
3.426491e-005
4.498343e-005
5.557997e-005
6.544631e-005
7.407499e-005
8.109286e-005
8.626503e-005
8.947913e-005
9.072112e-005
9.005051e-005
8.757892e-005
8.345214e-005
7.783411e-005
7.089330e-005
6.279470e-005
5.370097e-005
4.377940e-005
3.320452e-005
2.214842e-005
1.076327e-005
-8.301261e-007
-1.253841e-005
-2.428240e-005
-3.598781e-005
-4.758587e-005
-5.901625e-005
-7.022180e-005
-8.113391e-005
-9.165584e-005
-1.016509e-004
-1.109362e-004
-1.192784e-004
-1.263921e-004
-1.319409e-004
-1.355411e-004
-1.367701e-004
-1.351845e-004
-1.303526e-004
-1.219048e-004
-1.095942e-004
-9.336421e-005
-7.341918e-005
-5.029708e-005
-2.492873e-005
1.342575e-006
2.681287e-005
4.956265e-005
6.769711e-005
7.965498e-005
8.452633e-005
8.229248e-005
7.389767e-005
6.110065e-005
4.612666e-005
3.121103e-005
1.816372e-005
8.084966e-006
1.300199e-006
-2.508498e-006
-4.048494e-006
-4.138536e-006
-3.493738e-006
-2.617606e-006
-1.794725e-006
-1.143323e-006
-6.822255e-007
-3.837601e-007
-2.054644e-007
-1.060171e-007
-5.259587e-008
-2.348837e-008
-7.052840e-009
1.877500e-009
5.911982e-009
7.177935e-009
1.904223e-008
1.251683e-008
3.304463e-009
-4.102850e-009
-8.901523e-009
-1.688824e-008
-4.063530e-008
-9.777130e-008
-2.096311e-007
-4.020974e-007
-7.080904e-007
-1.167775e-006
-1.819577e-006
-2.674344e-006
-3.668860e-006
-4.605268e-006
-5.098355e-006
-4.564962e-006
-2.287239e-006
2.441547e-006
1.011539e-005
2.081332e-005
3.406077e-005
4.880124e-005
6.349733e-005
7.634488e-005
8.554329e-005
8.955219e-005
8.727705e-005
7.815198e-005
6.211961e-005
3.953591e-005
1.103874e-005
-2.258412e-005
-6.050244e-005
-1.019140e-004
-1.460782e-004
-1.923241e-004
-2.400487e-004
-2.887105e-004
-3.378209e-004
-3.869314e-004
-4.356283e-004
-4.835439e-004
-5.303781e-004
-5.759132e-004
-6.200051e-004
-6.625587e-004
-7.035059e-004
-7.427927e-004
-7.803689e-004
-8.161658e-004
-8.500645e-004
-8.818667e-004
-9.112731e-004
-9.378689e-004
-9.611107e-004
-9.803173e-004
-9.946683e-004
-1.003207e-003
-1.004846e-003
-9.983871e-004
-9.825531e-004
-9.560585e-004
-9.177026e-004
-8.664972e-004
-8.018372e-004
-7.237292e-004
-6.330681e-004
-5.319178e-004
-4.237121e-004
-3.132736e-004
-2.065469e-004
-1.099832e-004
-2.959720e-005
3.015365e-005
6.738127e-005
8.328754e-005
8.188824e-005
6.896327e-005
5.063286e-005
3.204771e-005
1.657804e-005
5.677630e-006
-7.288765e-007
-3.616201e-006
-4.240602e-006
-3.708236e-006
-2.782476e-006
-1.882058e-006
-1.175100e-006
-6.867542e-007
-3.792835e-007
-1.987231e-007
-9.742597e-008
-4.208981e-008
-1.320546e-008
-1.755878e-010
3.798778e-009
4.098518e-009
2.011682e-008
1.346989e-008
3.337698e-009
-7.216400e-009
-1.968758e-008
-4.329284e-008
-9.578560e-008
-2.029073e-007
-3.982975e-007
-7.242724e-007
-1.230352e-006
-1.961723e-006
-2.925903e-006
-4.026905e-006
-4.968655e-006
-5.157226e-006
-3.665432e-006
6.619704e-007
8.914602e-006
2.166186e-005
3.845128e-005
5.743149e-005
7.526625e-005
8.746054e-005
8.906405e-005
7.554770e-005
4.361193e-005
-8.297381e-006
-7.989012e-005
-1.693062e-004
-2.736044e-004
-3.892983e-004
-5.128229e-004
-6.408745e-004
-7.706078e-004
-8.997034e-004
-1.026336e-003
-1.149090e-003
-1.266878e-003
-1.378876e-003
-1.484486e-003
-1.583302e-003
-1.675088e-003
-1.759761e-003
-1.837392e-003
-1.908192e-003
-1.972471e-003
-2.030582e-003
-2.082881e-003
-2.129705e-003
-2.171353e-003
-2.208075e-003
-2.240051e-003
-2.267383e-003
-2.290117e-003
-2.308252e-003
-2.321749e-003
-2.330539e-003
-2.334516e-003
-2.333517e-003
-2.327266e-003
-2.315267e-003
-2.296666e-003
-2.270073e-003
-2.233372e-003
-2.183525e-003
-2.116476e-003
-2.027263e-003
-1.910520e-003
-1.761482e-003
-1.577524e-003
-1.360003e-003
-1.115825e-003
-8.579267e-004
-6.039970e-004
-3.734310e-004
-1.832969e-004
-4.447907e-005
4.085368e-005
7.935609e-005
8.376008e-005
6.860154e-005
4.644077e-005
2.569241e-005
1.037355e-005
1.165078e-006
-3.119407e-006
-4.256623e-006
-3.815052e-006
-2.842968e-006
-1.887273e-006
-1.151029e-006
-6.551201e-007
-3.495376e-007
-1.728138e-007
-7.607391e-008
-2.730867e-008
-6.827537e-009
-1.418711e-009
-1.471661e-009
2.312557e-008
1.579086e-008
3.151573e-009
-1.403196e-008
-4.082756e-008
-9.164688e-008
-1.920076e-007
-3.795151e-007
-7.046832e-007
-1.228795e-006
-2.009902e-006
-3.061030e-006
-4.261762e-006
-5.216532e-006
-5.093520e-006
-2.544786e-006
4.135392e-006
1.647213e-005
3.487129e-005
5.746189e-005
7.911081e-005
9.114320e-005
8.229232e-005
4.084532e-005
-4.258955e-005
-1.725872e-004
-3.477189e-004
-5.609703e-004
-8.012373e-004
-1.055251e-003
-1.309492e-003
-1.551784e-003
-1.772357e-003
-1.964292e-003
-2.123415e-003
-2.247859e-003
-2.337516e-003
-2.393546e-003
-2.418023e-003
-2.413703e-003
-2.383842e-003
-2.332006e-003
-2.261858e-003
-2.176953e-003
-2.080576e-003
-1.975624e-003
-1.864529e-003
-1.749235e-003
-1.631241e-003
-1.511698e-003
-1.391547e-003
-1.271637e-003
-1.152854e-003
-1.036254e-003
-9.232065e-004
-8.155075e-004
-7.154580e-004
-6.259129e-004
-5.503145e-004
-4.926960e-004
-4.576266e-004
-4.500760e-004
-4.751830e-004
-5.378909e-004
-6.423553e-004
-7.909964e-004
-9.830693e-004
-1.212692e-003
-1.466451e-003
-1.721157e-003
-1.943047e-003
-2.090552e-003
-2.122591e-003
-2.012099e-003
-1.759994e-003
-1.401150e-003
-9.960485e-004
-6.108587e-004
-2.972662e-004
-8.123524e-005
3.840297e-005
8.283438e-005
8.096454e-005
5.877142e-005
3.373753e-005
1.434936e-005
2.628516e-006
-2.783857e-006
-4.249864e-006
-3.818378e-006
-2.792569e-006
-1.806244e-006
-1.069135e-006
-5.871737e-007
-2.987105e-007
-1.382235e-007
-5.647629e-008
-2.063891e-008
-8.917137e-009
-6.862290e-009
2.488703e-008
1.604834e-008
-1.157761e-009
-2.930509e-008
-7.891078e-008
-1.724892e-007
-3.472807e-007
-6.572206e-007
-1.172163e-006
-1.964943e-006
-3.065775e-006
-4.354491e-006
-5.369335e-006
-5.061850e-006
-1.636585e-006
7.252777e-006
2.362503e-005
4.742241e-005
7.408200e-005
9.219903e-005
8.276507e-005
2.172978e-005
-1.138730e-004
-3.375640e-004
-6.462955e-004
-1.018009e-003
-1.413858e-003
-1.784648e-003
-2.080981e-003
-2.264040e-003
-2.312812e-003
-2.225477e-003
-2.015613e-003
-1.705771e-003
-1.321330e-003
-8.863486e-004
-4.216603e-004
5.552554e-005
5.313309e-004
9.947800e-004
1.437468e-003
1.853354e-003
2.238592e-003
2.591310e-003
2.911276e-003
3.199518e-003
3.457928e-003
3.688915e-003
3.895087e-003
4.078993e-003
4.242947e-003
4.388939e-003
4.518604e-003
4.633209e-003
4.733652e-003
4.820492e-003
4.894007e-003
4.954249e-003
5.001022e-003
5.033783e-003
5.051459e-003
5.052145e-003
5.032623e-003
4.987632e-003
4.908871e-003
4.783756e-003
4.594083e-003
4.315009e-003
3.915356e-003
3.361193e-003
2.625573e-003
1.706920e-003
6.541808e-004
-4.132450e-004
-1.314080e-003
-1.862835e-003
-1.963898e-003
-1.676623e-003
-1.182032e-003
-6.748295e-004
-2.807134e-004
-4.085181e-005
6.560754e-005
8.635616e-005
6.732377e-005
3.924630e-005
1.667461e-005
3.217552e-006
-2.759841e-006
-4.248843e-006
-3.718576e-006
-2.634527e-006
-1.647973e-006
-9.417845e-007
-4.978248e-007
-2.430262e-007
-1.085862e-007
-4.464607e-008
-1.851588e-008
-1.027064e-008
2.063781e-008
9.313911e-009
-1.493360e-008
-5.937580e-008
-1.426200e-007
-2.993577e-007
-5.834883e-007
-1.068715e-006
-1.839121e-006
-2.947590e-006
-4.301944e-006
-5.435529e-006
-5.169500e-006
-1.323817e-006
9.122418e-006
2.880672e-005
5.712202e-005
8.569720e-005
9.347739e-005
4.489258e-005
-1.039412e-004
-3.889137e-004
-8.139858e-004
-1.330426e-003
-1.829222e-003
-2.158131e-003
-2.174880e-003
-1.811172e-003
-1.099671e-003
-1.496848e-004
9.019881e-004
1.933897e-003
2.862397e-003
3.644448e-003
4.268508e-003
4.742129e-003
5.081759e-003
5.306466e-003
5.434914e-003
5.484269e-003
5.469946e-003
5.405617e-003
5.303250e-003
5.173100e-003
5.023698e-003
4.861885e-003
4.692942e-003
4.520792e-003
4.348253e-003
4.177287e-003
4.009278e-003
3.845309e-003
3.686412e-003
3.533763e-003
3.388821e-003
3.253461e-003
3.130102e-003
3.021825e-003
2.932428e-003
2.866468e-003
2.829290e-003
2.827067e-003
2.866810e-003
2.956258e-003
3.103546e-003
3.316422e-003
3.600624e-003
3.956732e-003
4.374572e-003
4.824205e-003
5.243234e-003
5.522934e-003
5.502157e-003
4.989015e-003
3.840680e-003
2.113691e-003
1.982156e-004
-1.281196e-003
-1.878642e-003
-1.667764e-003
-1.082713e-003
-5.141193e-004
-1.372271e-004
4.095032e-005
8.696671e-005
7.161524e-005
4.131367e-005
1.680158e-005
2.750423e-006
-3.057646e-006
-4.232687e-006
-3.512642e-006
-2.383720e-006
-1.434466e-006
-7.906886e-007
-4.040771e-007
-1.912413e-007
-8.274700e-008
-3.226120e-008
-1.304060e-008
7.276670e-009
-8.007978e-009
-4.287847e-008
-1.109951e-007
-2.423152e-007
-4.884843e-007
-9.246568e-007
-1.642920e-006
-2.718815e-006
-4.107074e-006
-5.401484e-006
-5.424703e-006
-1.778257e-006
9.160613e-006
3.084378e-005
6.254617e-005
9.205390e-005
8.654795e-005
-1.159407e-005
-2.720527e-004
-7.375487e-004
-1.360090e-003
-1.940431e-003
-2.130109e-003
-1.599731e-003
-3.096617e-004
1.418094e-003
3.116005e-003
4.432564e-003
5.230702e-003
5.538494e-003
5.461810e-003
5.121494e-003
4.622172e-003
4.042180e-003
3.434697e-003
2.833338e-003
2.258284e-003
1.721129e-003
1.228085e-003
7.818595e-004
3.827305e-004
2.921964e-005
-2.814095e-004
-5.527359e-004
-7.888134e-004
-9.938452e-004
-1.171921e-003
-1.326835e-003
-1.461985e-003
-1.580309e-003
-1.684263e-003
-1.775823e-003
-1.856536e-003
-1.927587e-003
-1.989850e-003
-2.043922e-003
-2.090126e-003
-2.128513e-003
-2.158828e-003
-2.180401e-003
-2.191922e-003
-2.191072e-003
-2.173952e-003
-2.134205e-003
-2.061703e-003
-1.940664e-003
-1.747158e-003
-1.446322e-003
-9.904353e-004
-3.208612e-004
6.200734e-004
1.857624e-003
3.322868e-003
4.761351e-003
5.663003e-003
5.371486e-003
3.564533e-003
8.915650e-004
-1.203066e-003
-1.835218e-003
-1.402671e-003
-7.160342e-004
-2.167464e-004
2.279545e-005
8.648549e-005
7.181142e-005
3.963740e-005
1.470401e-005
1.373969e-006
-3.540925e-006
-4.140338e-006
-3.198103e-006
-2.062615e-006
-1.190561e-006
-6.326897e-007
-3.116898e-007
-1.400300e-007
-5.483967e-008
-2.007113e-008
-1.470724e-008
-3.649889e-008
-8.779492e-008
-1.904987e-007
-3.893467e-007
-7.573619e-007
-1.392612e-006
-2.392757e-006
-3.769108e-006
-5.225487e-006
-5.722803e-006
-2.883792e-006
7.295074e-006
2.922714e-005
6.303977e-005
9.444330e-005
7.996809e-005
-6.226282e-005
-4.318998e-004
-1.066952e-003
-1.794713e-003
-2.091024e-003
-1.254699e-003
8.433807e-004
3.341186e-003
5.121321e-003
5.679188e-003
5.181477e-003
4.070074e-003
2.750048e-003
1.482683e-003
3.963895e-004
-4.698219e-004
-1.126525e-003
-1.605886e-003
-1.944903e-003
-2.177135e-003
-2.329833e-003
-2.423886e-003
-2.474908e-003
-2.494516e-003
-2.491416e-003
-2.472183e-003
-2.441799e-003
-2.404036e-003
-2.361723e-003
-2.316948e-003
-2.271222e-003
-2.225614e-003
-2.180883e-003
-2.137577e-003
-2.096115e-003
-2.056855e-003
-2.020151e-003
-1.986420e-003
-1.956179e-003
-1.930076e-003
-1.908911e-003
-1.893668e-003
-1.885556e-003
-1.886036e-003
-1.896849e-003
-1.920036e-003
-1.957943e-003
-2.013183e-003
-2.088464e-003
-2.186146e-003
-2.307254e-003
-2.449424e-003
-2.602792e-003
-2.742227e-003
-2.813654e-003
-2.712965e-003
-2.262812e-003
-1.216325e-003
6.342587e-004
3.140463e-003
5.362790e-003
5.692919e-003
3.362431e-003
5.785445e-005
-1.690970e-003
-1.578881e-003
-8.328234e-004
-2.495031e-004
2.166283e-005
8.681983e-005
6.794663e-005
3.447821e-005
1.088519e-005
-4.864400e-007
-3.984491e-006
-3.903534e-006
-2.782319e-006
-1.698052e-006
-9.374282e-007
-4.773676e-007
-2.226474e-007
-9.237386e-008
-3.788284e-008
-4.237990e-008
-7.470734e-008
-1.512300e-007
-3.038938e-007
-5.951687e-007
-1.121894e-006
-1.999741e-006
-3.298357e-006
-4.858342e-006
-5.883930e-006
-4.270762e-006
4.003118e-006
2.421470e-005
5.841292e-005
9.356908e-005
8.094521e-005
-8.209911e-005
-5.287861e-004
-1.292482e-003
-2.017167e-003
-1.704161e-003
5.477315e-004
3.775362e-003
5.710039e-003
5.358603e-003
3.483762e-003
1.286472e-003
-4.968427e-004
-1.663662e-003
-2.298926e-003
-2.566123e-003
-2.609559e-003
-2.530193e-003
-2.390949e-003
-2.228264e-003
-2.061959e-003
-1.902065e-003
-1.753121e-003
-1.616728e-003
-1.493011e-003
-1.381408e-003
-1.281071e-003
-1.191051e-003
-1.110379e-003
-1.038111e-003
-9.733485e-004
-9.152548e-004
-8.630587e-004
-8.160619e-004
-7.736528e-004
-7.353179e-004
-7.006476e-004
-6.693357e-004
-6.411822e-004
-6.160966e-004
-5.941003e-004
-5.753292e-004
-5.600401e-004
-5.486271e-004
-5.416456e-004
-5.398448e-004
-5.442162e-004
-5.560749e-004
-5.771836e-004
-6.099286e-004
-6.575590e-004
-7.245136e-004
-8.168534e-004
-9.427760e-004
-1.113067e-003
-1.341040e-003
-1.640713e-003
-2.020078e-003
-2.462198e-003
-2.880186e-003
-3.030110e-003
-2.409792e-003
-3.701239e-004
3.043451e-003
5.792039e-003
4.964839e-003
1.179113e-003
-1.488000e-003
-1.632216e-003
-8.391319e-004
-2.232759e-004
3.812992e-005
8.643722e-005
5.987571e-005
2.669062e-005
6.249759e-006
-2.285414e-006
-4.176820e-006
-3.490816e-006
-2.294425e-006
-1.322870e-006
-6.959380e-007
-3.370637e-007
-1.503377e-007
-7.162564e-008
-7.380882e-008
-1.220613e-007
-2.353777e-007
-4.573403e-007
-8.699271e-007
-1.592166e-006
-2.739942e-006
-4.290288e-006
-5.742290e-006
-5.460812e-006
1.702616e-007
1.683436e-005
4.898082e-005
8.834073e-005
8.949771e-005
-6.012237e-005
-5.282638e-004
-1.372997e-003
-2.086631e-003
-1.165267e-003
2.267274e-003
5.535108e-003
5.463199e-003
2.698857e-003
-2.494756e-004
-2.039722e-003
-2.700859e-003
-2.698740e-003
-2.412938e-003
-2.051628e-003
-1.705946e-003
-1.406867e-003
-1.159061e-003
-9.574008e-004
-7.941366e-004
-6.617112e-004
-5.536866e-004
-4.649023e-004
-3.913467e-004
-3.299481e-004
-2.783618e-004
-2.347834e-004
-1.977977e-004
-1.662713e-004
-1.392844e-004
-1.160877e-004
-9.606770e-005
-7.871519e-005
-6.360270e-005
-5.037305e-005
-3.873607e-005
-2.846526e-005
-1.939035e-005
-1.138736e-005
-4.369635e-006
1.717052e-006
6.894004e-006
1.114471e-005
1.440911e-005
1.657968e-005
1.749634e-005
1.693004e-005
1.454503e-005
9.835455e-006
2.033793e-006
-1.002320e-005
-2.810740e-005
-5.495114e-005
-9.482157e-005
-1.544351e-004
-2.443736e-004
-3.811557e-004
-5.898401e-004
-9.058758e-004
-1.371277e-003
-2.010330e-003
-2.747264e-003
-3.199452e-003
-2.390545e-003
7.982778e-004
5.023545e-003
5.599639e-003
1.639654e-003
-1.470836e-003
-1.588797e-003
-7.342881e-004
-1.482243e-004
6.255668e-005
8.175871e-005
4.799589e-005
1.768741e-005
1.831456e-006
-3.565913e-006
-4.015033e-006
-2.933521e-006
-1.786075e-006
-9.738318e-007
-4.889014e-007
-2.320157e-007
-1.231737e-007
-1.110014e-007
-1.812150e-007
-3.443103e-007
-6.568346e-007
-1.220174e-006
-2.167597e-006
-3.580697e-006
-5.240904e-006
-6.071550e-006
-3.217736e-006
8.698222e-006
3.599936e-005
7.700980e-005
9.805779e-005
-6.352951e-006
-4.281675e-004
-1.296098e-003
-2.105961e-003
-9.646722e-004
3.174165e-003
6.040176e-003
4.025727e-003
5.299906e-005
-2.346197e-003
-2.863025e-003
-2.479291e-003
-1.885238e-003
-1.352087e-003
-9.422103e-004
-6.455068e-004
-4.355257e-004
-2.876335e-004
-1.830435e-004
-1.084420e-004
-5.465856e-005
-1.543081e-005
1.351888e-005
3.512347e-005
5.140364e-005
6.375907e-005
7.316887e-005
8.033331e-005
8.577178e-005
8.988252e-005
9.297268e-005
9.527389e-005
9.695798e-005
9.815693e-005
9.898029e-005
9.952252e-005
9.986069e-005
1.000505e-004
1.001284e-004
1.001216e-004
1.000590e-004
9.997554e-005
9.990918e-005
9.989256e-005
9.995013e-005
1.001039e-004
1.003830e-004
1.008263e-004
1.014722e-004
1.023376e-004
1.033959e-004
1.045496e-004
1.055805e-004
1.060395e-004
1.050254e-004
1.007640e-004
8.981801e-005
6.560025e-005
1.563857e-005
-8.313484e-005
-2.714111e-004
-6.145396e-004
-1.197754e-003
-2.070162e-003
-3.030204e-003
-3.098823e-003
-3.651134e-004
4.593076e-003
5.631607e-003
1.284427e-003
-1.655914e-003
-1.428862e-003
-5.412418e-004
-5.269270e-005
8.114985e-005
7.034596e-005
3.386697e-005
9.127190e-006
-1.545183e-006
-4.114333e-006
-3.534898e-006
-2.311095e-006
-1.313316e-006
-6.818497e-007
-3.385286e-007
-1.916844e-007
-1.598201e-007
-2.576727e-007
-4.830292e-007
-9.064242e-007
-1.646030e-006
-2.833167e-006
-4.460347e-006
-5.972254e-006
-5.442260e-006
1.522700e-006
2.180928e-005
5.957525e-005
9.716436e-005
5.324649e-005
-2.612971e-004
-1.063230e-003
-2.058288e-003
-1.295705e-003
3.073216e-003
6.082231e-003
3.041300e-003
-1.331138e-003
-2.904863e-003
-2.535259e-003
-1.713719e-003
-1.024099e-003
-5.596887e-004
-2.739894e-004
-1.057837e-004
-9.097813e-006
4.550778e-005
7.567691e-005
9.169052e-005
9.948710e-005
1.025050e-004
1.027530e-004
1.014202e-004
9.921772e-005
9.657134e-005
9.373018e-005
9.083499e-005
8.796639e-005
8.517781e-005
8.251073e-005
7.999421e-005
7.763907e-005
7.543873e-005
7.337984e-005
7.145477e-005
6.966550e-005
6.801682e-005
6.650661e-005
6.512370e-005
6.385643e-005
6.270460e-005
6.168429e-005
6.082152e-005
6.014123e-005
5.966326e-005
5.941056e-005
5.942347e-005
5.976778e-005
6.053099e-005
6.181367e-005
6.372883e-005
6.641497e-005
7.005433e-005
7.487968e-005
8.115272e-005
8.909178e-005
9.868547e-005
1.092195e-004
1.181113e-004
1.182177e-004
9.212583e-005
1.452397e-006
-2.290519e-004
-7.222368e-004
-1.609093e-003
-2.796632e-003
-3.247985e-003
-4.354302e-004
4.929647e-003
5.097728e-003
2.381072e-004
-1.820945e-003
-1.127949e-003
-3.101975e-004
2.952680e-005
8.432886e-005
5.312032e-005
1.994259e-005
2.381091e-006
-3.503953e-006
-3.982961e-006
-2.864158e-006
-1.709317e-006
-9.169968e-007
-4.702164e-007
-2.761118e-007
-2.268264e-007
-3.567853e-007
-6.546929e-007
-1.205670e-006
-2.139016e-006
-3.558755e-006
-5.293871e-006
-6.283987e-006
-3.485025e-006
9.153003e-006
3.893951e-005