# vtk DataFile Version 3.0
vtk output
ASCII
DATASET STRUCTURED_POINTS
DIMENSIONS 100 100 1
SPACING 1 1 1
ORIGIN 0 0 0
POINT_DATA 10000
SCALARS SFBox_profile double
LOOKUP_TABLE default 
0.000000e+000
0.000000e+000
0.000000e+000
0.000000e+000
0.000000e+000
0.000000e+000
0.000000e+000
0.000000e+000
0.000000e+000
0.000000e+000
0.000000e+000
0.000000e+000
0.000000e+000
0.000000e+000
0.000000e+000
0.000000e+000
0.000000e+000
0.000000e+000
0.000000e+000
0.000000e+000
0.000000e+000
0.000000e+000
0.000000e+000
0.000000e+000
0.000000e+000
0.000000e+000
0.000000e+000
0.000000e+000
0.000000e+000
0.000000e+000
0.000000e+000
0.000000e+000
0.000000e+000
0.000000e+000
0.000000e+000
0.000000e+000
0.000000e+000
0.000000e+000
0.000000e+000
0.000000e+000
0.000000e+000
0.000000e+000
0.000000e+000
0.000000e+000
0.000000e+000
0.000000e+000
0.000000e+000
0.000000e+000
0.000000e+000
0.000000e+000
0.000000e+000
0.000000e+000
0.000000e+000
0.000000e+000
0.000000e+000
0.000000e+000
0.000000e+000
0.000000e+000
0.000000e+000
0.000000e+000
0.000000e+000
0.000000e+000
0.000000e+000
0.000000e+000
0.000000e+000
0.000000e+000
0.000000e+000
0.000000e+000
0.000000e+000
0.000000e+000
0.000000e+000
0.000000e+000
0.000000e+000
0.000000e+000
0.000000e+000
0.000000e+000
0.000000e+000
0.000000e+000
0.000000e+000
0.000000e+000
0.000000e+000
0.000000e+000
0.000000e+000
0.000000e+000
0.000000e+000
0.000000e+000
0.000000e+000
0.000000e+000
0.000000e+000
0.000000e+000
0.000000e+000
0.000000e+000
0.000000e+000
0.000000e+000
0.000000e+000
0.000000e+000
0.000000e+000
0.000000e+000
0.000000e+000
0.000000e+000
2.680494e-010
5.780957e-011
-2.239126e-010
-3.756750e-010
-2.498944e-010
1.239445e-010
5.082551e-010
5.913651e-010
2.297598e-010
-3.887424e-010
-8.325122e-010
-7.422225e-010
-1.337804e-010
5.827140e-010
9.130920e-010
6.671653e-010
8.801807e-011
-3.868404e-010
-5.038160e-010
-3.602386e-010
-2.274011e-010
-2.385182e-010
-2.690637e-010
-1.156877e-010
2.412978e-010
5.855048e-010
6.752561e-010
4.817942e-010
1.988655e-010
2.808568e-011
-1.375587e-011
-6.316242e-011
-2.160237e-010
-4.071997e-010
-4.928145e-010
-4.200020e-010
-2.789023e-010
-1.884948e-010
-1.668610e-010
-1.384959e-010
-5.087998e-011
5.613973e-011
1.086746e-010
9.627612e-011
7.817111e-011
9.752616e-011
1.252987e-010
1.092879e-010
5.680531e-011
3.207649e-011
6.710290e-011
1.084873e-010
8.129493e-011
-7.301390e-012
-6.593962e-011
-3.442676e-011
2.702658e-011
-1.055030e-012
-1.491289e-010
-3.078909e-010
-3.506772e-010
-2.887998e-010
-2.662574e-010
-3.878659e-010
-5.819501e-010
-6.686005e-010
-5.628866e-010
-3.758624e-010
-2.889624e-010
-3.422569e-010
-3.823296e-010
-2.347402e-010
9.237929e-011
4.040782e-010
5.182654e-010
4.453943e-010
3.512702e-010
3.526044e-010
3.797991e-010
2.614491e-010
-6.347206e-011
-4.400659e-010
-6.174015e-010
-4.744896e-010
-1.273027e-010
1.804538e-010
2.849381e-010
2.094347e-010
9.186926e-011
3.266206e-011
2.035758e-011
-1.125899e-011
-8.082374e-011
-1.303943e-010
-9.484177e-011
1.463106e-011
1.084760e-010
1.036145e-010
7.564189e-012
-8.563590e-011
-2.408513e-011
2.060271e-011
4.933258e-011
1.565295e-011
-5.469731e-011
-8.554329e-011
-3.203562e-011
6.401180e-011
1.090137e-010
5.335767e-011
-5.070653e-011
-9.625068e-011
-3.322239e-011
7.101168e-011
9.394998e-011
-1.191959e-011
-1.559052e-010
-1.881998e-010
-4.987764e-011
1.591434e-010
2.695988e-010
2.027323e-010
3.772236e-011
-7.971417e-011
-8.630161e-011
-4.933018e-011
-7.079998e-011
-1.629757e-010
-2.354916e-010
-2.016595e-010
-7.674406e-011
4.263927e-011
8.672973e-011
7.932618e-011
9.167919e-011
1.488915e-010
2.036074e-010
2.010894e-010
1.475889e-010
9.794309e-011
8.542020e-011
8.690124e-011
6.386955e-011
1.892516e-011
-8.703795e-012
5.491360e-013
1.819781e-011
7.707355e-012
-2.186360e-011
-2.477755e-011
1.779514e-011
6.537061e-011
6.647412e-011
2.928495e-011
1.925751e-011
7.828129e-011
1.653173e-010
1.996551e-010
1.603044e-010
1.179532e-010
1.527971e-010
2.534581e-010
3.223021e-010
2.871827e-010
1.882778e-010
1.335027e-010
1.713551e-010
2.304926e-010
1.991246e-010
5.364672e-011
-1.118180e-010
-1.880022e-010
-1.663920e-010
-1.371974e-010
-1.758202e-010
-2.502495e-010
-2.541924e-010
-1.269336e-010
7.352944e-011
2.213614e-010
2.390322e-010
1.564267e-010
6.128346e-011
6.512032e-012
-2.483597e-011
-7.100057e-011
-1.266341e-010
-1.393040e-010
-7.004423e-011
5.188457e-011
1.428429e-010
1.364960e-010
4.291109e-011
-6.157641e-011
-1.019210e-010
-6.480764e-011
8.274134e-013
3.668647e-011
2.733436e-011
4.304542e-012
-3.431154e-010
-4.021637e-011
3.176813e-010
4.370320e-010
1.976536e-010
-2.488062e-010
-5.767690e-010
-5.205062e-010
-7.791218e-011
4.716199e-010
7.584875e-010
5.852298e-010
6.228770e-011
-4.822924e-010
-7.399327e-010
-6.167895e-010
-2.492086e-010
1.401006e-010
4.027758e-010
5.160516e-010
5.194132e-010
4.328009e-010
2.438226e-010
-4.012597e-011
-3.495429e-010
-5.766740e-010
-6.454689e-010
-5.592783e-010
-3.839498e-010
-1.893266e-010
-6.770368e-012
1.652001e-010
3.262923e-010
4.533385e-010
5.132522e-010
4.926532e-010
4.118988e-010
3.098834e-010
2.154645e-010
1.326730e-010
5.126106e-011
-3.129020e-011
-1.004367e-010
-1.374880e-010
-1.400500e-010
-1.266823e-010
-1.195173e-010
-1.233080e-010
-1.239850e-010
-1.079437e-010
-7.947544e-011
-5.596842e-011
-4.687737e-011
-4.167422e-011
-2.098527e-011
2.282957e-011
7.995965e-011
1.375503e-010
1.951632e-010
2.626957e-010
3.452556e-010
4.348192e-010
5.175316e-010
5.848221e-010
6.338258e-010
6.597302e-010
6.540671e-010
6.123977e-010
5.383696e-010
4.346153e-010
2.920287e-010
9.737852e-011
-1.417643e-010
-3.824073e-010
-5.645495e-010
-6.486411e-010
-6.328006e-010
-5.318587e-010
-3.474750e-010
-7.407205e-011
2.562864e-010
5.423757e-010
6.497431e-010
5.038874e-010
1.634152e-010
-1.998827e-010
-4.084658e-010
-3.901390e-010
-2.070398e-010
9.258998e-012
1.518386e-010
1.874212e-010
1.411219e-010
5.508142e-011
-3.486487e-011
-9.802017e-011
-1.077803e-010
-5.666129e-011
2.765127e-011
9.147947e-011
-3.697429e-010
-8.530572e-011
2.855477e-010
4.741331e-010
3.099936e-010
-1.395881e-010
-5.722441e-010
-6.411606e-010
-2.276185e-010
4.209630e-010
8.379623e-010
6.911086e-010
6.211322e-011
-5.989297e-010
-8.271725e-010
-5.094906e-010
5.298582e-011
4.311893e-010
4.315595e-010
2.070767e-010
4.263312e-011
5.585672e-011
1.145266e-010
2.794627e-011
-2.157013e-010
-4.244548e-010
-4.057225e-010
-1.678891e-010
9.492148e-011
2.057841e-010
1.684311e-010
1.243557e-010
1.726287e-010
2.627853e-010
2.696463e-010
1.467042e-010
-2.247848e-011
-1.226517e-010
-1.290549e-010
-1.139979e-010
-1.455823e-010
-2.086988e-010
-2.364596e-010
-1.997412e-010
-1.400158e-010
-1.128389e-010
-1.222336e-010
-1.283010e-010
-1.091775e-010
-9.038100e-011
-1.047543e-010
-1.422832e-010
-1.615850e-010
-1.485688e-010
-1.398775e-010
-1.733018e-010
-2.281170e-010
-2.397751e-010
-1.796138e-010
-9.904683e-011
-7.293231e-011
-1.038869e-010
-1.087483e-010
-1.540266e-011
1.412623e-010
2.466007e-010
2.360712e-010
1.768941e-010
1.963318e-010
3.296539e-010
4.634416e-010
4.485286e-010
2.617590e-010
3.342593e-011
-9.420618e-011
-1.187094e-010
-1.654598e-010
-3.215946e-010
-5.036144e-010
-5.164011e-010
-2.537464e-010
1.678513e-010
4.870459e-010
5.159314e-010
2.880466e-010
3.180344e-012
-1.596798e-010
-1.734523e-010
-1.294992e-010
-1.063326e-010
-9.190563e-011
-3.020241e-011
8.081743e-011
1.624257e-010
1.334102e-010
5.548828e-012
-1.133485e-010
-1.196065e-010
-1.627860e-011
8.853124e-011
-8.831994e-012
-6.504598e-011
-7.286630e-011
3.106310e-011
1.669958e-010
1.802494e-010
1.610785e-011
-1.928586e-010
-2.419196e-010
-6.907577e-011
1.587725e-010
2.016191e-010
2.365347e-012
-2.270590e-010
-2.054527e-010
1.151800e-010
4.599776e-010
4.739335e-010
7.347555e-011
-4.488442e-010
-6.860976e-010
-4.906752e-010
-8.644135e-011
1.835080e-010
1.984816e-010
1.350998e-010
2.195047e-010
4.499571e-010
5.981595e-010
4.727752e-010
1.366664e-010
-1.637371e-010
-2.629351e-010
-2.287333e-010
-2.435379e-010
-3.741290e-010
-5.030795e-010
-4.851016e-010
-3.243757e-010
-1.620169e-010
-1.056299e-010
-1.177903e-010
-8.955288e-011
1.068597e-011
1.041861e-010
1.139710e-010
6.523505e-011
4.404215e-011
7.760817e-011
1.005938e-010
5.132866e-011
-3.584498e-011
-7.228451e-011
-3.924129e-011
-2.513320e-011
-1.150896e-010
-2.709237e-010
-3.653577e-010
-3.408177e-010
-2.933455e-010
-3.626433e-010
-5.523497e-010
-7.058379e-010
-6.824809e-010
-5.290164e-010
-4.322901e-010
-4.967055e-010
-6.071759e-010
-5.480510e-010
-2.490113e-010
1.259058e-010
3.524483e-010
3.848562e-010
3.846453e-010
5.071604e-010
6.932197e-010
7.092534e-010
3.992325e-010
-1.252734e-010
-5.623962e-010
-6.819152e-010
-5.025141e-010
-2.226526e-010
-8.832996e-012
1.255630e-010
2.472574e-010
3.559716e-010
3.513706e-010
1.545800e-010
-1.604943e-010
-3.878655e-010
-3.601790e-010
-1.037669e-010
1.782104e-010
2.817662e-010
1.707083e-010
-1.579932e-011
-1.109684e-010
-7.280554e-011
1.971801e-012
4.822520e-010
2.703799e-011
-4.629548e-010
-5.475664e-010
-1.451317e-010
4.095726e-010
6.621011e-010
4.192128e-010
-1.145194e-010
-5.401074e-010
-5.992630e-010
-3.380471e-010
1.253326e-011
2.732857e-010
4.210940e-010
4.912542e-010
4.439793e-010
1.873050e-010
-2.600851e-010
-6.788248e-010
-7.860995e-010
-4.922752e-010
-4.083922e-012
3.567606e-010
4.429565e-010
3.767536e-010
3.600578e-010
4.252174e-010
4.111477e-010
1.809655e-010
-1.853704e-010
-4.551995e-010
-4.877538e-010
-3.704604e-010
-2.931090e-010
-3.203254e-010
-3.352832e-010
-2.087956e-010
2.628900e-011
2.097628e-010
2.444621e-010
1.998599e-010
2.068100e-010
2.883768e-010
3.436091e-010
2.946235e-010
1.963379e-010
1.646133e-010
2.222716e-010
2.708377e-010
2.270692e-010
1.412270e-010
1.342650e-010
2.312162e-010
3.128484e-010
2.601850e-010
1.116437e-010
2.385513e-011
7.342088e-011
1.480833e-010
7.520024e-011
-1.614165e-010
-3.862932e-010
-4.331983e-010
-3.441971e-010
-3.223590e-010
-4.877491e-010
-7.255285e-010
-8.080166e-010
-6.477422e-010
-3.854639e-010
-2.153627e-010
-1.584575e-010
-5.018217e-011
2.468916e-010
6.532182e-010
9.202902e-010
8.596441e-010
5.050723e-010
5.460641e-011
-3.131403e-010
-5.411440e-010
-6.374107e-010
-5.779434e-010
-3.167133e-010
1.049759e-010
4.994763e-010
6.322267e-010
4.104518e-010
-2.011595e-011
-3.745576e-010
-4.432115e-010
-2.360308e-010
5.625412e-011
2.307861e-010
2.174424e-010
9.131169e-011
-2.743259e-011
-7.845022e-011
-8.262435e-011
6.581332e-010
1.201647e-010
-5.137521e-010
-7.365780e-010
-3.672666e-010
3.099634e-010
7.673331e-010
6.485867e-010
4.893610e-011
-5.689108e-010
-7.524717e-010
-4.115645e-010
1.471528e-010
5.079655e-010
4.800335e-010
1.895982e-010
-1.030188e-010
-2.411043e-010
-2.391312e-010
-1.731666e-010
-6.873979e-011
8.423345e-011
2.463842e-010
3.178762e-010
2.342451e-010
4.744902e-011
-1.211910e-010
-2.068707e-010
-2.515152e-010
-3.175812e-010
-3.808837e-010
-3.474962e-010
-1.784645e-010
4.018165e-011
1.816939e-010
2.185476e-010
2.415705e-010
3.316381e-010
4.471489e-010
4.733783e-010
3.720870e-010
2.378070e-010
1.852503e-010
2.111322e-010
2.089459e-010
1.174017e-010
7.989308e-012
-4.896009e-012
8.504870e-011
1.637830e-010
1.441506e-010
8.223081e-011
1.072906e-010
2.509986e-010
3.972422e-010
4.233942e-010
3.563231e-010
3.415230e-010
4.586427e-010
6.142954e-010
6.499679e-010
5.340036e-010
4.001620e-010
3.846436e-010
4.611269e-010
4.727121e-010
3.170942e-010
5.986929e-011
-1.521944e-010
-2.612163e-010
-3.444616e-010
-4.918761e-010
-6.733308e-010
-7.537689e-010
-6.290535e-010
-3.215163e-010
5.676054e-011
4.008176e-010
6.480540e-010
7.397480e-010
6.063769e-010
2.366064e-010
-2.425500e-010
-5.961139e-010
-6.349696e-010
-3.618731e-010
3.066343e-011
3.099479e-010
3.623157e-010
2.325949e-010
4.328908e-011
-1.048653e-010
-1.689620e-010
-1.456809e-010
-5.474970e-011
5.651803e-011
1.203851e-010
9.138980e-011
-7.956041e-012
-9.492239e-011
2.624217e-010
1.151639e-010
-1.112510e-010
-2.870567e-010
-2.776282e-010
-6.054808e-011
2.105425e-010
3.061565e-010
1.330078e-010
-1.485204e-010
-2.533910e-010
-5.353985e-011
2.670231e-010
3.657671e-010
7.722560e-011
-3.994497e-010
-6.606261e-010
-4.608617e-010
7.054678e-011
5.577563e-010
7.073989e-010
5.173495e-010
1.990396e-010
-5.626097e-011
-2.159335e-010
-3.478643e-010
-4.832966e-010
-5.665631e-010
-5.222007e-010
-3.380653e-010
-7.518982e-011
1.825106e-010
3.734289e-010
4.710083e-010
4.828382e-010
4.456501e-010
4.007816e-010
3.552756e-010
2.736138e-010
1.265599e-010
-5.173162e-011
-1.771340e-010
-2.007439e-010
-1.678238e-010
-1.689499e-010
-2.321754e-010
-2.880800e-010
-2.574481e-010
-1.565408e-010
-8.554504e-011
-1.089413e-010
-1.753525e-010
-1.790784e-010
-8.858805e-011
1.762065e-011
5.121700e-011
2.385284e-011
3.117119e-011
1.352179e-010
2.927434e-010
4.122737e-010
4.611115e-010
4.908409e-010
5.619806e-010
6.710075e-010
7.637480e-010
8.001172e-010
7.797445e-010
7.080502e-010
5.675575e-010
3.413012e-010
4.990022e-011
-2.586595e-010
-5.525988e-010
-8.193293e-010
-1.008023e-009
-9.962863e-010
-6.677752e-010
-5.639408e-011
5.992982e-010
9.858686e-010
9.346591e-010
5.319146e-010
2.498618e-011
-3.677914e-010
-5.605849e-010
-5.582914e-010
-3.772279e-010
-4.900222e-011
3.133522e-010
5.167716e-010
4.180352e-010
7.208019e-011
-2.741415e-010
-3.748795e-010
-1.960419e-010
6.513910e-011
1.762592e-010
8.774641e-011
-4.411014e-011
-4.853816e-010
-9.109970e-012
4.728341e-010
5.075893e-010
7.834733e-011
-4.140917e-010
-5.528411e-010
-2.744991e-010
1.362141e-010
3.672858e-010
3.538121e-010
2.428013e-010
1.487106e-010
1.749718e-011
-2.428117e-010
-5.455385e-010
-6.219207e-010
-2.844648e-010
3.199283e-010
7.719173e-010
7.354905e-010
2.607205e-010
-2.731281e-010
-5.118186e-010
-4.171529e-010
-2.223769e-010
-1.416739e-010
-1.598186e-010
-1.028043e-010
1.277720e-010
4.284382e-010
5.975639e-010
5.346357e-010
3.206568e-010
1.170843e-010
1.060314e-011
-3.921476e-011
-1.213899e-010
-2.655546e-010
-4.124164e-010
-4.763903e-010
-4.276953e-010
-3.162455e-010
-2.225962e-010
-1.874326e-010
-1.854210e-010
-1.638526e-010
-1.038399e-010
-4.132422e-011
-2.858918e-011
-8.013624e-011
-1.610481e-010
-2.258753e-010
-2.608717e-010
-2.857368e-010
-3.228768e-010
-3.746704e-010
-4.271465e-010
-4.618950e-010
-4.595423e-010
-4.055857e-010
-3.092145e-010
-2.116665e-010
-1.527607e-010
-1.164593e-010
-2.613497e-011
1.787130e-010
4.569730e-010
6.814674e-010
7.607509e-010
7.337345e-010
7.117090e-010
7.172045e-010
6.128632e-010
2.352823e-010
-3.870973e-010
-9.760122e-010
-1.198093e-009
-9.344865e-010
-3.622374e-010
2.161390e-010
6.001929e-010
7.536566e-010
6.965102e-010
4.171158e-010
-6.309191e-011
-5.686892e-010
-7.994165e-010
-5.572553e-010
3.394811e-011
5.684851e-010
6.707904e-010
3.076201e-010
-1.943143e-010
-4.444626e-010
-3.184031e-010
-1.925704e-011
1.608662e-010
1.233267e-010
1.297969e-011
-9.895696e-010
-1.467118e-010
7.800366e-010
1.004092e-009
3.840074e-010
-5.021808e-010
-9.068223e-010
-5.610435e-010
1.543625e-010
6.186700e-010
5.316784e-010
1.035120e-010
-2.409641e-010
-2.845997e-010
-1.415958e-010
-2.558139e-011
1.498850e-011
8.833102e-011
2.326165e-010
2.928383e-010
8.500469e-011
-3.385728e-010
-6.606795e-010
-5.849740e-010
-1.402328e-010
3.371227e-010
5.332322e-010
4.445596e-010
3.212821e-010
3.526896e-010
4.582499e-010
4.068271e-010
1.056837e-010
-2.785185e-010
-4.935590e-010
-4.592224e-010
-3.209218e-010
-2.613471e-010
-3.011520e-010
-3.062895e-010
-1.668155e-010
7.313591e-011
2.726946e-010
3.508413e-010
3.548275e-010
3.779873e-010
4.440599e-010
4.959888e-010
4.839666e-010
4.288665e-010
3.839348e-010
3.567008e-010
3.015665e-010
1.926452e-010
7.283853e-011
2.880839e-012
-2.827621e-011
-1.050982e-010
-2.783199e-010
-4.793199e-010
-5.804688e-010
-5.483510e-010
-5.022517e-010
-5.844467e-010
-7.792439e-010
-9.022875e-010
-7.941816e-010
-5.016875e-010
-2.253670e-010
-8.187921e-011
3.971876e-011
3.425082e-010
8.470693e-010
1.294194e-009
1.353383e-009
9.245882e-010
2.201865e-010
-4.358409e-010
-8.523707e-010
-1.011807e-009
-9.310945e-010
-5.769256e-010
3.249975e-011
6.812612e-010
1.005619e-009
7.683761e-010
1.039511e-010
-5.376856e-010
-7.347121e-010
-4.216658e-010
9.079964e-011
4.038652e-010
3.501851e-010
7.299487e-011
-1.593830e-010
-1.959260e-010
-8.630624e-011
2.661780e-011
6.176383e-011
4.841087e-011
-7.545722e-010
-1.531086e-010
5.318847e-010
7.401230e-010
3.347684e-010
-2.970845e-010
-5.948553e-010
-3.242048e-010
2.197695e-010
4.972999e-010
2.371559e-010
-3.077335e-010
-6.087713e-010
-3.691898e-010
2.078212e-010
6.382883e-010
6.160196e-010
2.434384e-010
-1.548448e-010
-3.750943e-010
-4.511264e-010
-4.750776e-010
-4.071298e-010
-1.347961e-010
3.069099e-010
6.684168e-010
7.007966e-010
4.176600e-010
8.484881e-011
-6.583779e-011
-6.924698e-011
-1.363972e-010
-3.586841e-010
-5.693892e-010
-5.303076e-010
-2.156046e-010
1.501156e-010
3.421612e-010
3.721786e-010
4.356478e-010
6.506893e-010
9.121934e-010
1.028298e-009
9.562512e-010
8.451495e-010
8.457802e-010
9.355700e-010
9.730159e-010
8.971658e-010
8.086794e-010
8.315598e-010
9.425300e-010
9.960310e-010
9.153996e-010
7.988012e-010
7.930787e-010
8.912943e-010
9.203789e-010
7.509034e-010
4.709662e-010
2.946715e-010
3.023379e-010
3.306221e-010
1.596709e-010
-2.195981e-010
-5.826673e-010
-7.267603e-010
-6.987757e-010
-7.190154e-010
-8.897477e-010
-1.037910e-009
-8.829029e-010
-3.391480e-010
3.839482e-010
9.732723e-010
1.254895e-009
1.231542e-009
9.421651e-010
3.843762e-010
-3.780687e-010
-1.083288e-009
-1.350960e-009
-9.705089e-010
-1.248832e-010
6.968581e-010
1.043386e-009
8.014214e-010
2.152204e-010
-3.383448e-010
-5.962975e-010
-5.091358e-010
-1.973996e-010
1.426854e-010
3.306412e-010
2.853042e-010
7.438674e-011
-1.262547e-010
-1.666653e-010
-4.831838e-011
8.308519e-011
1.457192e-010
-1.708446e-012
-1.402829e-010
-1.447111e-010
-4.162522e-011
6.089930e-011
1.178540e-010
1.653234e-010
2.005884e-010
1.201461e-010
-1.512282e-010
-4.801597e-010
-5.599203e-010
-2.042249e-010
3.952482e-010
7.708560e-010
5.955632e-010
2.350025e-012
-5.336248e-010
-6.331872e-010
-3.204389e-010
8.740774e-011
3.307309e-010
3.966479e-010
3.921539e-010
3.341990e-010
1.439436e-010
-1.777033e-010
-4.667493e-010
-5.462158e-010
-4.235560e-010
-2.694541e-010
-1.930407e-010
-1.028485e-010
1.582883e-010
5.729772e-010
9.217250e-010
1.022232e-009
9.423103e-010
9.130936e-010
1.043216e-009
1.190283e-009
1.151863e-009
9.344628e-010
7.585348e-010
7.918019e-010
9.486484e-010
1.009384e-009
9.054684e-010
8.055598e-010
8.931544e-010
1.122788e-009
1.270638e-009
1.217961e-009
1.104354e-009
1.150237e-009
1.370019e-009
1.541390e-009
1.475436e-009
1.251470e-009
1.121482e-009
1.201183e-009
1.329241e-009
1.264270e-009
9.710367e-010
6.454654e-010
4.594598e-010
3.488764e-010
1.010252e-010
-3.761670e-010
-9.293812e-010
-1.307091e-009
-1.376256e-009
-1.159792e-009
-7.109367e-010
-4.908249e-011
7.355813e-010
1.372598e-009
1.513064e-009
1.007873e-009
8.549738e-011
-7.734078e-010
-1.159286e-009
-9.665377e-010
-3.787703e-010
2.959496e-010
7.645572e-010
8.224472e-010
4.311962e-010
-2.038743e-010
-6.865852e-010
-6.829371e-010
-2.068151e-010
3.530060e-010
5.526655e-010
2.870374e-010
-1.314046e-010
-2.986505e-010
-1.200994e-010
1.274807e-010
1.054566e-009
1.629596e-010
-7.871750e-010
-9.874625e-010
-3.737599e-010
4.166038e-010
7.188848e-010
4.232036e-010
-6.498332e-011
-3.221315e-010
-2.774889e-010
-1.270202e-010
-1.560714e-011
8.604950e-011
2.132388e-010
2.490626e-010
4.139477e-011
-3.391822e-010
-5.649735e-010
-3.534956e-010
2.095747e-010
7.082670e-010
7.778941e-010
4.238191e-010
-4.572318e-011
-3.522850e-010
-4.579893e-010
-4.695849e-010
-4.317661e-010
-2.886302e-010
-1.852993e-011
2.871543e-010
5.227627e-010
6.944176e-010
8.800457e-010
1.074791e-009
1.154186e-009
1.034702e-009
8.227882e-010
7.268796e-010
8.141387e-010
9.230599e-010
8.663568e-010
6.809413e-010
5.990867e-010
7.597449e-010
1.020745e-009
1.120334e-009
9.959110e-010
8.592257e-010
9.281886e-010
1.150631e-009
1.269058e-009
1.145401e-009
9.363535e-010
9.000324e-010
1.079197e-009
1.256003e-009
1.226151e-009
1.044243e-009
9.432391e-010
1.046419e-009
1.235550e-009
1.319793e-009
1.269500e-009
1.222155e-009
1.278390e-009
1.363130e-009
1.312952e-009
1.048680e-009
6.100451e-010
5.110113e-011
-6.074569e-010
-1.276095e-009
-1.704206e-009
-1.595155e-009
-8.717717e-010
1.862036e-010
1.101769e-009
1.509326e-009
1.326304e-009
6.944938e-010
-1.470238e-010
-9.017746e-010
-1.233618e-009
-9.182161e-010
-8.143500e-011
7.561455e-010
1.010374e-009
5.210125e-010
-2.756633e-010
-7.140192e-010
-4.910657e-010
8.801889e-011
4.485491e-010
3.148278e-010
-6.917831e-011
-2.617247e-010
-1.092122e-010
1.303269e-010
1.247446e-009
1.602593e-010
-9.692704e-010
-1.137104e-009
-3.052111e-010
6.505071e-010
8.475820e-010
2.221998e-010
-5.106004e-010
-6.340197e-010
-1.085510e-010
4.929159e-010
6.238591e-010
2.600404e-010
-2.058988e-010
-4.357779e-010
-4.167002e-010
-3.054296e-010
-1.516832e-010
1.154043e-010
4.626990e-010
6.506567e-010
4.475584e-010
-7.889434e-011
-5.638509e-010
-6.704669e-010
-3.824717e-010
4.343602e-011
3.700383e-010
5.689209e-010
7.377646e-010
9.174719e-010
1.050990e-009
1.088085e-009
1.052015e-009
9.832341e-010
8.777057e-010
7.340638e-010
6.309935e-010
6.807672e-010
8.830688e-010
1.083671e-009
1.137153e-009
1.090725e-009
1.137990e-009
1.370332e-009
1.633447e-009
1.690544e-009
1.507590e-009
1.303468e-009
1.290428e-009
1.420873e-009
1.454110e-009
1.257614e-009
9.675070e-010
8.174872e-010
8.607955e-010
9.275422e-010
8.482116e-010
6.486323e-010
4.884343e-010
4.554413e-010
4.885605e-010
4.996513e-010
5.017873e-010
5.757530e-010
7.506068e-010
9.802780e-010
1.230491e-009
1.511108e-009
1.771959e-009
1.812782e-009
1.394130e-009
4.884894e-010
-6.045523e-010
-1.435461e-009
-1.705123e-009
-1.395531e-009
-6.666041e-010
2.719484e-010
1.146417e-009
1.578719e-009
1.246521e-009
2.088620e-010
-9.571185e-010
-1.486052e-009
-1.025930e-009
3.931525e-011
8.933891e-010
9.670003e-010
3.705998e-010
-2.946755e-010
-5.175086e-010
-2.774212e-010
6.393335e-011
1.843707e-010
7.780796e-011
-4.483152e-011
-4.291578e-011
2.199197e-011
5.449580e-010
-2.681147e-011
-5.562866e-010
-4.843983e-010
1.206361e-010
6.273276e-010
4.815294e-010
-2.148542e-010
-7.798612e-010
-6.248190e-010
1.474656e-010
8.313382e-010
8.071808e-010
1.288879e-010
-5.716040e-010
-7.224955e-010
-3.138932e-010
2.070034e-010
4.392998e-010
3.510600e-010
1.463224e-010
-4.696334e-011
-2.562132e-010
-4.765080e-010
-5.419239e-010
-2.727666e-010
2.813065e-010
8.298256e-010
1.102676e-009
1.086791e-009
9.805665e-010
9.528974e-010
9.987247e-010
1.019938e-009
9.795267e-010
9.348069e-010
9.532522e-010
1.052035e-009
1.218640e-009
1.434616e-009
1.648599e-009
1.766475e-009
1.726814e-009
1.586606e-009
1.480082e-009
1.464028e-009
1.438097e-009
1.264185e-009
9.550744e-010
6.918774e-010
6.316849e-010
7.346580e-010
8.223165e-010
7.908651e-010
7.157056e-010
7.329519e-010
8.652753e-010
1.007270e-009
1.059987e-009
1.022778e-009
9.422081e-010
8.253861e-010
6.510258e-010
4.411355e-010
2.593192e-010
1.263452e-010
-3.883547e-012
-1.343353e-010
-1.224892e-010
2.290881e-010
9.369514e-010
1.723003e-009
2.184650e-009
2.085861e-009
1.471451e-009
5.379170e-010
-5.134031e-010
-1.449332e-009
-1.921547e-009
-1.590846e-009
-4.646670e-010
9.060400e-010
1.697131e-009
1.415758e-009
3.097458e-010
-8.154973e-010
-1.223729e-009
-7.723691e-010
7.667634e-011
6.891367e-010
7.240907e-010
2.923862e-010
-2.209828e-010
-4.647663e-010
-3.373467e-010
-6.071401e-012
2.471464e-010
2.414463e-010
2.496593e-011
-1.813068e-010
-5.345233e-010
-2.090758e-010
2.110683e-010
4.744183e-010
4.681638e-010
2.246341e-010
-1.419349e-010
-4.575130e-010
-5.149918e-010
-2.101438e-010
2.883573e-010
5.784600e-010
3.598644e-010
-2.244467e-010
-6.462536e-010
-4.758759e-010
1.767649e-010
7.434503e-010
7.387655e-010
2.015073e-010
-4.013774e-010
-6.516370e-010
-5.054247e-010
-1.824274e-010
1.465584e-010
4.753321e-010
8.126736e-010
1.048321e-009
1.047935e-009
8.451107e-010
6.557275e-010
6.742014e-010
8.932892e-010
1.151964e-009
1.329500e-009
1.445890e-009
1.575834e-009
1.714313e-009
1.757052e-009
1.591293e-009
1.174394e-009
5.343826e-010
-2.655713e-010
-1.148057e-009
-2.036809e-009
-2.884073e-009
-3.679329e-009
-4.408370e-009
-5.003609e-009
-5.360043e-009
-5.414498e-009
-5.195428e-009
-4.781354e-009
-4.224522e-009
-3.536829e-009
-2.740011e-009
-1.892202e-009
-1.050782e-009
-2.404477e-010
5.092290e-010
1.113088e-009
1.469768e-009
1.569485e-009
1.519873e-009
1.418778e-009
1.218298e-009
7.782829e-010
8.509766e-011
-6.207818e-010
-9.875083e-010
-8.272987e-010
-2.290444e-010
5.782112e-010
1.393638e-009
2.032159e-009
2.221551e-009
1.677320e-009
4.017981e-010
-1.105213e-009
-2.051638e-009
-1.894535e-009
-7.588282e-010
6.410634e-010
1.498474e-009
1.416683e-009
5.788768e-010
-4.381531e-010
-1.023514e-009
-8.738065e-010
-1.692006e-010
5.368914e-010
7.122960e-010
2.735521e-010
-3.345666e-010
-5.415846e-010
-1.933485e-010
3.075729e-010
4.295378e-010
7.174099e-011
-3.426194e-010
-1.223858e-009
-1.777916e-010
8.993173e-010
1.070068e-009
3.403109e-010
-4.878568e-010
-6.938604e-010
-2.706086e-010
2.507825e-010
4.227445e-010
2.282770e-010
-8.783660e-011
-3.331137e-010
-4.366055e-010
-3.353702e-010
1.798722e-011
4.887128e-010
7.306720e-010
4.714980e-010
-1.544870e-010
-6.476131e-010
-5.856189e-010
-1.421359e-011
6.298681e-010
9.552649e-010
9.272054e-010
7.695193e-010
6.628632e-010
6.183199e-010
6.075117e-010
6.955175e-010
9.710762e-010
1.381798e-009
1.717335e-009
1.777631e-009
1.515326e-009
9.812779e-010
1.602996e-010
-1.083325e-009
-2.880964e-009
-5.208916e-009
-7.885290e-009
-1.070459e-008
-1.355111e-008
-1.637995e-008
-1.911353e-008
-2.158406e-008
-2.358523e-008
-2.497522e-008
-2.572445e-008
-2.586409e-008
-2.539797e-008
-2.428301e-008
-2.251019e-008
-2.019600e-008
-1.756286e-008
-1.480677e-008
-1.199715e-008
-9.137027e-009
-6.319868e-009
-3.778831e-009
-1.736333e-009
-2.167088e-010
9.407439e-010
1.860953e-009
2.461694e-009
2.544409e-009
2.044300e-009
1.145605e-009
1.472338e-010
-7.230080e-010
-1.315548e-009
-1.443851e-009
-9.071721e-010
2.683896e-010
1.635120e-009
2.482341e-009
2.297986e-009
1.140298e-009
-3.968700e-010
-1.556772e-009
-1.818359e-009
-1.110509e-009
1.650142e-010
1.282434e-009
1.549918e-009
7.828936e-010
-4.641644e-010
-1.244551e-009
-9.877103e-010
-1.386511e-011
7.595722e-010
6.928527e-010
1.173999e-011
-4.982176e-010
-3.500721e-010
1.700675e-010
4.052331e-010
1.074615e-010
-3.096821e-010
-1.129877e-009
6.451902e-011
1.140709e-009
9.764391e-010
-1.985112e-010
-1.124761e-009
-8.809083e-010
2.083161e-010
1.019354e-009
8.299491e-010
-4.108604e-011
-7.163110e-010
-6.884609e-010
-1.836909e-010
2.644725e-010
3.873687e-010
2.774230e-010
9.033494e-011
-1.378983e-010
-3.583883e-010
-3.715939e-010
1.062681e-011
6.725921e-010
1.194871e-009
1.231661e-009
8.596522e-010
4.969214e-010
4.903629e-010
8.350048e-010
1.284774e-009
1.637669e-009
1.830043e-009
1.786785e-009
1.294395e-009
8.892935e-011
-1.969319e-009
-4.876575e-009
-8.636040e-009
-1.335162e-008
-1.911287e-008
-2.580348e-008
-3.308057e-008
-4.056697e-008
-4.803458e-008
-5.536610e-008
-6.235295e-008
-6.858775e-008
-7.360156e-008
-7.710648e-008
-7.907636e-008
-7.958209e-008
-7.858323e-008
-7.593131e-008
-7.159239e-008
-6.583031e-008
-5.912398e-008
-5.189730e-008
-4.436335e-008
-3.664982e-008
-2.903053e-008
-2.195388e-008
-1.580665e-008
-1.068248e-008
-6.426327e-009
-2.892978e-009
-1.095618e-010
1.821048e-009
2.900907e-009
3.246086e-009
2.942434e-009
2.007294e-009
5.768491e-010
-9.066683e-010
-1.809506e-009
-1.696161e-009
-6.378577e-010
8.364370e-010
2.051395e-009
2.475263e-009
1.877367e-009
4.430024e-010
-1.165913e-009
-2.029394e-009
-1.558908e-009
-6.335188e-011
1.335454e-009
1.566279e-009
5.438150e-010
-7.515661e-010
-1.193574e-009
-5.447280e-010
4.191545e-010
7.711125e-010
3.390632e-010
-2.654211e-010
-4.136856e-010
-1.056032e-010
1.786753e-010
1.287449e-010
-6.848790e-011
-4.585316e-010
2.863069e-010
8.092595e-010
3.703047e-010
-6.592104e-010
-1.175236e-009
-5.578425e-010
6.248541e-010
1.202716e-009
6.350296e-010
-4.490956e-010
-9.532916e-010
-4.541251e-010
4.440780e-010
8.326395e-010
4.267495e-010
-2.792533e-010
-6.472159e-010
-5.056577e-010
-1.208145e-010
2.461153e-010
5.685993e-010
8.751669e-010
1.048130e-009
9.517176e-010
7.087849e-010
6.889945e-010
1.140161e-009
1.878114e-009
2.398236e-009
2.258225e-009
1.276953e-009