# vtk DataFile Version 3.0
vtk output
ASCII
DATASET STRUCTURED_POINTS
DIMENSIONS 100 100 1
SPACING 1 1 1
ORIGIN 0 0 0
POINT_DATA 10000
SCALARS SFBox_profile double
LOOKUP_TABLE default 
9.439921e-003
9.439920e-003
9.439920e-003
9.439919e-003
9.439919e-003
9.439920e-003
9.439920e-003
9.439921e-003
9.439921e-003
9.439920e-003
9.439920e-003
9.439919e-003
9.439919e-003
9.439920e-003
9.439920e-003
9.439920e-003
9.439920e-003
9.439920e-003
9.439920e-003
9.439920e-003
9.439920e-003
9.439920e-003
9.439920e-003
9.439920e-003
9.439920e-003
9.439920e-003
9.439920e-003
9.439920e-003
9.439920e-003
9.439920e-003
9.439920e-003
9.439921e-003
9.439921e-003
9.439921e-003
9.439921e-003
9.439922e-003
9.439922e-003
9.439922e-003
9.439922e-003
9.439922e-003
9.439923e-003
9.439923e-003
9.439923e-003
9.439923e-003
9.439923e-003
9.439923e-003
9.439923e-003
9.439924e-003
9.439924e-003
9.439924e-003
9.439924e-003
9.439924e-003
9.439924e-003
9.439924e-003
9.439924e-003
9.439923e-003
9.439923e-003
9.439923e-003
9.439923e-003
9.439923e-003
9.439923e-003
9.439923e-003
9.439922e-003
9.439922e-003
9.439922e-003
9.439922e-003
9.439921e-003
9.439921e-003
9.439921e-003
9.439921e-003
9.439921e-003
9.439920e-003
9.439920e-003
9.439920e-003
9.439920e-003
9.439920e-003
9.439920e-003
9.439920e-003
9.439920e-003
9.439920e-003
9.439920e-003
9.439920e-003
9.439920e-003
9.439920e-003
9.439920e-003
9.439920e-003
9.439920e-003
9.439920e-003
9.439920e-003
9.439920e-003
9.439920e-003
9.439920e-003
9.439920e-003
9.439920e-003
9.439920e-003
9.439920e-003
9.439920e-003
9.439920e-003
9.439920e-003
9.439920e-003
9.439921e-003
9.439920e-003
9.439920e-003
9.439919e-003
9.439919e-003
9.439920e-003
9.439920e-003
9.439921e-003
9.439921e-003
9.439920e-003
9.439920e-003
9.439919e-003
9.439919e-003
9.439920e-003
9.439920e-003
9.439920e-003
9.439920e-003
9.439920e-003
9.439920e-003
9.439920e-003
9.439920e-003
9.439920e-003
9.439920e-003
9.439920e-003
9.439920e-003
9.439920e-003
9.439920e-003
9.439920e-003
9.439920e-003
9.439920e-003
9.439920e-003
9.439921e-003
9.439921e-003
9.439921e-003
9.439921e-003
9.439922e-003
9.439922e-003
9.439922e-003
9.439922e-003
9.439922e-003
9.439923e-003
9.439923e-003
9.439923e-003
9.439923e-003
9.439923e-003
9.439923e-003
9.439923e-003
9.439924e-003
9.439924e-003
9.439924e-003
9.439924e-003
9.439924e-003
9.439924e-003
9.439924e-003
9.439924e-003
9.439923e-003
9.439923e-003
9.439923e-003
9.439923e-003
9.439923e-003
9.439923e-003
9.439923e-003
9.439922e-003
9.439922e-003
9.439922e-003
9.439922e-003
9.439921e-003
9.439921e-003
9.439921e-003
9.439921e-003
9.439921e-003
9.439920e-003
9.439920e-003
9.439920e-003
9.439920e-003
9.439920e-003
9.439920e-003
9.439920e-003
9.439920e-003
9.439920e-003
9.439920e-003
9.439920e-003
9.439920e-003
9.439920e-003
9.439920e-003
9.439920e-003
9.439920e-003
9.439920e-003
9.439920e-003
9.439920e-003
9.439920e-003
9.439920e-003
9.439920e-003
9.439920e-003
9.439920e-003
9.439920e-003
9.439920e-003
9.439920e-003
9.439920e-003
9.439920e-003
9.439920e-003
9.439920e-003
9.439920e-003
9.439920e-003
9.439920e-003
9.439920e-003
9.439920e-003
9.439920e-003
9.439920e-003
9.439920e-003
9.439920e-003
9.439920e-003
9.439920e-003
9.439920e-003
9.439920e-003
9.439920e-003
9.439920e-003
9.439920e-003
9.439920e-003
9.439920e-003
9.439920e-003
9.439920e-003
9.439920e-003
9.439920e-003
9.439920e-003
9.439920e-003
9.439920e-003
9.439921e-003
9.439921e-003
9.439921e-003
9.439921e-003
9.439921e-003
9.439921e-003
9.439921e-003
9.439922e-003
9.439922e-003
9.439922e-003
9.439922e-003
9.439923e-003
9.439923e-003
9.439923e-003
9.439923e-003
9.439924e-003
9.439924e-003
9.439924e-003
9.439924e-003
9.439925e-003
9.439925e-003
9.439925e-003
9.439925e-003
9.439925e-003
9.439925e-003
9.439925e-003
9.439925e-003
9.439925e-003
9.439925e-003
9.439925e-003
9.439924e-003
9.439924e-003
9.439924e-003
9.439924e-003
9.439923e-003
9.439923e-003
9.439923e-003
9.439922e-003
9.439922e-003
9.439922e-003
9.439921e-003
9.439921e-003
9.439921e-003
9.439921e-003
9.439921e-003
9.439921e-003
9.439920e-003
9.439920e-003
9.439920e-003
9.439920e-003
9.439920e-003
9.439920e-003
9.439920e-003
9.439920e-003
9.439920e-003
9.439920e-003
9.439920e-003
9.439920e-003
9.439920e-003
9.439920e-003
9.439920e-003
9.439920e-003
9.439920e-003
9.439920e-003
9.439920e-003
9.439920e-003
9.439920e-003
9.439920e-003
9.439920e-003
9.439920e-003
9.439920e-003
9.439920e-003
9.439920e-003
9.439919e-003
9.439920e-003
9.439920e-003
9.439921e-003
9.439920e-003
9.439920e-003
9.439920e-003
9.439919e-003
9.439920e-003
9.439920e-003
9.439920e-003
9.439921e-003
9.439920e-003
9.439920e-003
9.439920e-003
9.439920e-003
9.439920e-003
9.439920e-003
9.439920e-003
9.439920e-003
9.439920e-003
9.439920e-003
9.439920e-003
9.439921e-003
9.439921e-003
9.439921e-003
9.439921e-003
9.439921e-003
9.439921e-003
9.439921e-003
9.439922e-003
9.439922e-003
9.439922e-003
9.439923e-003
9.439923e-003
9.439923e-003
9.439924e-003
9.439924e-003
9.439925e-003
9.439925e-003
9.439926e-003
9.439926e-003
9.439927e-003
9.439927e-003
9.439927e-003
9.439928e-003
9.439928e-003
9.439928e-003
9.439929e-003
9.439929e-003
9.439929e-003
9.439929e-003
9.439929e-003
9.439929e-003
9.439929e-003
9.439928e-003
9.439928e-003
9.439928e-003
9.439927e-003
9.439927e-003
9.439926e-003
9.439926e-003
9.439925e-003
9.439925e-003
9.439924e-003
9.439924e-003
9.439923e-003
9.439923e-003
9.439922e-003
9.439922e-003
9.439921e-003
9.439921e-003
9.439921e-003
9.439921e-003
9.439921e-003
9.439921e-003
9.439921e-003
9.439921e-003
9.439920e-003
9.439920e-003
9.439920e-003
9.439920e-003
9.439920e-003
9.439920e-003
9.439920e-003
9.439920e-003
9.439920e-003
9.439920e-003
9.439920e-003
9.439920e-003
9.439920e-003
9.439920e-003
9.439920e-003
9.439920e-003
9.439920e-003
9.439920e-003
9.439920e-003
9.439920e-003
9.439920e-003
9.439920e-003
9.439919e-003
9.439920e-003
9.439920e-003
9.439921e-003
9.439921e-003
9.439920e-003
9.439920e-003
9.439919e-003
9.439919e-003
9.439920e-003
9.439920e-003
9.439921e-003
9.439920e-003
9.439920e-003
9.439920e-003
9.439920e-003
9.439920e-003
9.439920e-003
9.439920e-003
9.439920e-003
9.439920e-003
9.439920e-003
9.439921e-003
9.439921e-003
9.439921e-003
9.439921e-003
9.439922e-003
9.439922e-003
9.439922e-003
9.439923e-003
9.439923e-003
9.439924e-003
9.439925e-003
9.439926e-003
9.439926e-003
9.439927e-003
9.439928e-003
9.439929e-003
9.439930e-003
9.439930e-003
9.439931e-003
9.439932e-003
9.439933e-003
9.439933e-003
9.439934e-003
9.439934e-003
9.439935e-003
9.439935e-003
9.439935e-003
9.439935e-003
9.439936e-003
9.439936e-003
9.439936e-003
9.439935e-003
9.439935e-003
9.439935e-003
9.439934e-003
9.439934e-003
9.439933e-003
9.439933e-003
9.439932e-003
9.439931e-003
9.439930e-003
9.439929e-003
9.439928e-003
9.439927e-003
9.439926e-003
9.439926e-003
9.439925e-003
9.439924e-003
9.439923e-003
9.439923e-003
9.439922e-003
9.439922e-003
9.439921e-003
9.439921e-003
9.439921e-003
9.439921e-003
9.439920e-003
9.439920e-003
9.439920e-003
9.439920e-003
9.439920e-003
9.439920e-003
9.439920e-003
9.439920e-003
9.439920e-003
9.439920e-003
9.439920e-003
9.439920e-003
9.439920e-003
9.439920e-003
9.439920e-003
9.439920e-003
9.439920e-003
9.439920e-003
9.439920e-003
9.439920e-003
9.439920e-003
9.439920e-003
9.439920e-003
9.439920e-003
9.439920e-003
9.439920e-003
9.439920e-003
9.439920e-003
9.439920e-003
9.439920e-003
9.439920e-003
9.439920e-003
9.439920e-003
9.439920e-003
9.439920e-003
9.439920e-003
9.439920e-003
9.439920e-003
9.439920e-003
9.439920e-003
9.439921e-003
9.439921e-003
9.439920e-003
9.439921e-003
9.439921e-003
9.439921e-003
9.439921e-003
9.439922e-003
9.439923e-003
9.439923e-003
9.439924e-003
9.439926e-003
9.439927e-003
9.439928e-003
9.439929e-003
9.439931e-003
9.439932e-003
9.439933e-003
9.439935e-003
9.439936e-003
9.439937e-003
9.439938e-003
9.439939e-003
9.439940e-003
9.439941e-003
9.439942e-003
9.439942e-003
9.439943e-003
9.439943e-003
9.439943e-003
9.439944e-003
9.439944e-003
9.439944e-003
9.439944e-003
9.439944e-003
9.439943e-003
9.439943e-003
9.439943e-003
9.439942e-003
9.439941e-003
9.439941e-003
9.439940e-003
9.439939e-003
9.439938e-003
9.439937e-003
9.439936e-003
9.439935e-003
9.439933e-003
9.439932e-003
9.439931e-003
9.439929e-003
9.439928e-003
9.439927e-003
9.439925e-003
9.439924e-003
9.439923e-003
9.439922e-003
9.439922e-003
9.439921e-003
9.439921e-003
9.439920e-003
9.439920e-003
9.439920e-003
9.439920e-003
9.439920e-003
9.439920e-003
9.439920e-003
9.439920e-003
9.439920e-003
9.439920e-003
9.439920e-003
9.439920e-003
9.439920e-003
9.439920e-003
9.439920e-003
9.439920e-003
9.439920e-003
9.439920e-003
9.439920e-003
9.439920e-003
9.439920e-003
9.439920e-003
9.439921e-003
9.439920e-003
9.439920e-003
9.439919e-003
9.439920e-003
9.439920e-003
9.439920e-003
9.439920e-003
9.439920e-003
9.439920e-003
9.439920e-003
9.439920e-003
9.439920e-003
9.439920e-003
9.439920e-003
9.439920e-003
9.439921e-003
9.439921e-003
9.439921e-003
9.439921e-003
9.439921e-003
9.439921e-003
9.439922e-003
9.439922e-003
9.439923e-003
9.439924e-003
9.439925e-003
9.439927e-003
9.439928e-003
9.439930e-003
9.439932e-003
9.439934e-003
9.439936e-003
9.439938e-003
9.439939e-003
9.439941e-003
9.439942e-003
9.439944e-003
9.439945e-003
9.439946e-003
9.439946e-003
9.439947e-003
9.439947e-003
9.439947e-003
9.439948e-003
9.439948e-003
9.439947e-003
9.439947e-003
9.439947e-003
9.439947e-003
9.439946e-003
9.439946e-003
9.439946e-003
9.439946e-003
9.439946e-003
9.439945e-003
9.439945e-003
9.439945e-003
9.439945e-003
9.439945e-003
9.439944e-003
9.439944e-003
9.439943e-003
9.439942e-003
9.439941e-003
9.439940e-003
9.439938e-003
9.439937e-003
9.439935e-003
9.439933e-003
9.439931e-003
9.439929e-003
9.439928e-003
9.439926e-003
9.439925e-003
9.439924e-003
9.439923e-003
9.439922e-003
9.439921e-003
9.439921e-003
9.439921e-003
9.439921e-003
9.439921e-003
9.439920e-003
9.439920e-003
9.439920e-003
9.439920e-003
9.439920e-003
9.439920e-003
9.439920e-003
9.439920e-003
9.439920e-003
9.439920e-003
9.439920e-003
9.439920e-003
9.439920e-003
9.439920e-003
9.439920e-003
9.439920e-003
9.439920e-003
9.439921e-003
9.439920e-003
9.439920e-003
9.439919e-003
9.439919e-003
9.439920e-003
9.439920e-003
9.439921e-003
9.439920e-003
9.439920e-003
9.439920e-003
9.439920e-003
9.439920e-003
9.439920e-003
9.439920e-003
9.439920e-003
9.439921e-003
9.439921e-003
9.439921e-003
9.439921e-003
9.439922e-003
9.439923e-003
9.439924e-003
9.439925e-003
9.439927e-003
9.439929e-003
9.439931e-003
9.439933e-003
9.439935e-003
9.439937e-003
9.439939e-003
9.439941e-003
9.439943e-003
9.439945e-003
9.439946e-003
9.439946e-003
9.439947e-003
9.439946e-003
9.439946e-003
9.439944e-003
9.439943e-003
9.439941e-003
9.439939e-003
9.439937e-003
9.439934e-003
9.439932e-003
9.439929e-003
9.439927e-003
9.439925e-003
9.439924e-003
9.439922e-003
9.439921e-003
9.439921e-003
9.439921e-003
9.439922e-003
9.439923e-003
9.439925e-003
9.439927e-003
9.439929e-003
9.439932e-003
9.439934e-003
9.439937e-003
9.439939e-003
9.439941e-003
9.439942e-003
9.439942e-003
9.439942e-003
9.439942e-003
9.439941e-003
9.439939e-003
9.439937e-003
9.439935e-003
9.439933e-003
9.439931e-003
9.439929e-003
9.439927e-003
9.439925e-003
9.439924e-003
9.439923e-003
9.439922e-003
9.439921e-003
9.439921e-003
9.439921e-003
9.439920e-003
9.439920e-003
9.439920e-003
9.439920e-003
9.439920e-003
9.439920e-003
9.439920e-003
9.439920e-003
9.439920e-003
9.439920e-003
9.439920e-003
9.439920e-003
9.439920e-003
9.439920e-003
9.439920e-003
9.439920e-003
9.439920e-003
9.439921e-003
9.439920e-003
9.439920e-003
9.439920e-003
9.439920e-003
9.439920e-003
9.439920e-003
9.439920e-003
9.439920e-003
9.439920e-003
9.439920e-003
9.439920e-003
9.439920e-003
9.439921e-003
9.439921e-003
9.439921e-003
9.439921e-003
9.439921e-003
9.439922e-003
9.439923e-003
9.439924e-003
9.439925e-003
9.439927e-003
9.439930e-003
9.439932e-003
9.439935e-003
9.439938e-003
9.439940e-003
9.439943e-003
9.439945e-003
9.439946e-003
9.439947e-003
9.439946e-003
9.439945e-003
9.439942e-003
9.439938e-003
9.439932e-003
9.439925e-003
9.439917e-003
9.439908e-003
9.439899e-003
9.439888e-003
9.439878e-003
9.439867e-003
9.439857e-003
9.439847e-003
9.439837e-003
9.439829e-003
9.439822e-003
9.439816e-003
9.439812e-003
9.439810e-003
9.439809e-003
9.439811e-003
9.439814e-003
9.439820e-003
9.439828e-003
9.439837e-003
9.439847e-003
9.439859e-003
9.439871e-003
9.439884e-003
9.439896e-003
9.439907e-003
9.439917e-003
9.439925e-003
9.439932e-003
9.439937e-003
9.439940e-003
9.439942e-003
9.439942e-003
9.439941e-003
9.439939e-003
9.439937e-003
9.439935e-003
9.439932e-003
9.439930e-003
9.439927e-003
9.439925e-003
9.439924e-003
9.439923e-003
9.439922e-003
9.439921e-003
9.439920e-003
9.439920e-003
9.439920e-003
9.439920e-003
9.439920e-003
9.439920e-003
9.439920e-003
9.439920e-003
9.439920e-003
9.439920e-003
9.439920e-003
9.439920e-003
9.439920e-003
9.439920e-003
9.439920e-003
9.439920e-003
9.439920e-003
9.439920e-003
9.439920e-003
9.439920e-003
9.439920e-003
9.439920e-003
9.439920e-003
9.439920e-003
9.439920e-003
9.439920e-003
9.439920e-003
9.439920e-003
9.439920e-003
9.439921e-003
9.439921e-003
9.439921e-003
9.439921e-003
9.439921e-003
9.439922e-003
9.439923e-003
9.439925e-003
9.439927e-003
9.439930e-003
9.439933e-003
9.439936e-003
9.439939e-003
9.439942e-003
9.439945e-003
9.439947e-003
9.439947e-003
9.439946e-003
9.439942e-003
9.439936e-003
9.439927e-003
9.439913e-003
9.439897e-003
9.439877e-003
9.439853e-003
9.439826e-003
9.439797e-003
9.439765e-003
9.439732e-003
9.439698e-003
9.439664e-003
9.439630e-003
9.439597e-003
9.439567e-003
9.439539e-003
9.439514e-003
9.439493e-003
9.439477e-003
9.439465e-003
9.439459e-003
9.439459e-003
9.439465e-003
9.439477e-003
9.439495e-003
9.439518e-003
9.439547e-003
9.439580e-003
9.439617e-003
9.439656e-003
9.439696e-003
9.439736e-003
9.439775e-003
9.439811e-003
9.439844e-003
9.439871e-003
9.439895e-003
9.439913e-003
9.439926e-003
9.439935e-003
9.439940e-003
9.439942e-003
9.439942e-003
9.439940e-003
9.439938e-003
9.439935e-003
9.439932e-003
9.439929e-003
9.439927e-003
9.439925e-003
9.439923e-003
9.439922e-003
9.439921e-003
9.439921e-003
9.439921e-003
9.439921e-003
9.439920e-003
9.439920e-003
9.439920e-003
9.439920e-003
9.439920e-003
9.439920e-003
9.439920e-003
9.439920e-003
9.439920e-003
9.439920e-003
9.439920e-003
9.439920e-003
9.439920e-003
9.439919e-003
9.439920e-003
9.439921e-003
9.439921e-003
9.439921e-003
9.439920e-003
9.439920e-003
9.439920e-003
9.439920e-003
9.439920e-003
9.439920e-003
9.439920e-003
9.439921e-003
9.439921e-003
9.439921e-003
9.439922e-003
9.439923e-003
9.439925e-003
9.439927e-003
9.439930e-003
9.439933e-003
9.439936e-003
9.439940e-003
9.439943e-003
9.439946e-003
9.439948e-003
9.439947e-003
9.439943e-003
9.439935e-003
9.439920e-003
9.439899e-003
9.439870e-003
9.439832e-003
9.439786e-003
9.439730e-003
9.439665e-003
9.439592e-003
9.439512e-003
9.439426e-003
9.439335e-003
9.439242e-003
9.439148e-003
9.439055e-003
9.438964e-003
9.438877e-003
9.438796e-003
9.438723e-003
9.438658e-003
9.438605e-003
9.438563e-003
9.438534e-003
9.438520e-003
9.438520e-003
9.438536e-003
9.438569e-003
9.438617e-003
9.438680e-003
9.438757e-003
9.438846e-003
9.438945e-003
9.439052e-003
9.439163e-003
9.439275e-003
9.439384e-003
9.439488e-003
9.439583e-003
9.439668e-003
9.439741e-003
9.439802e-003
9.439850e-003
9.439886e-003
9.439911e-003
9.439928e-003
9.439937e-003
9.439942e-003
9.439942e-003
9.439940e-003
9.439938e-003
9.439935e-003
9.439931e-003
9.439929e-003
9.439926e-003
9.439924e-003
9.439923e-003
9.439922e-003
9.439921e-003
9.439921e-003
9.439920e-003
9.439920e-003
9.439920e-003
9.439920e-003
9.439920e-003
9.439920e-003
9.439920e-003
9.439920e-003
9.439920e-003
9.439920e-003
9.439920e-003
9.439920e-003
9.439920e-003
9.439919e-003
9.439920e-003
9.439920e-003
9.439921e-003
9.439921e-003
9.439920e-003
9.439920e-003
9.439920e-003
9.439920e-003
9.439920e-003
9.439921e-003
9.439920e-003
9.439921e-003
9.439921e-003
9.439922e-003
9.439924e-003
9.439926e-003
9.439929e-003
9.439932e-003
9.439936e-003
9.439940e-003
9.439944e-003
9.439947e-003
9.439949e-003
9.439947e-003
9.439940e-003
9.439926e-003
9.439902e-003
9.439865e-003
9.439812e-003
9.439741e-003
9.439650e-003
9.439538e-003
9.439403e-003
9.439247e-003
9.439071e-003
9.438877e-003
9.438667e-003
9.438445e-003
9.438215e-003
9.437981e-003
9.437746e-003
9.437515e-003
9.437292e-003
9.437081e-003
9.436886e-003
9.436710e-003
9.436556e-003
9.436428e-003
9.436330e-003
9.436263e-003
9.436230e-003
9.436233e-003
9.436274e-003
9.436352e-003
9.436469e-003
9.436623e-003
9.436810e-003
9.437028e-003
9.437272e-003
9.437535e-003
9.437811e-003
9.438092e-003
9.438369e-003
9.438635e-003
9.438883e-003
9.439108e-003
9.439306e-003
9.439474e-003
9.439611e-003
9.439719e-003
9.439801e-003
9.439859e-003
9.439899e-003
9.439923e-003
9.439936e-003
9.439942e-003
9.439942e-003
9.439940e-003
9.439937e-003
9.439934e-003
9.439930e-003
9.439927e-003
9.439925e-003
9.439923e-003
9.439922e-003
9.439921e-003
9.439921e-003
9.439920e-003
9.439920e-003
9.439920e-003
9.439920e-003
9.439920e-003
9.439920e-003
9.439920e-003
9.439920e-003
9.439920e-003
9.439920e-003
9.439920e-003
9.439920e-003
9.439920e-003
9.439920e-003
9.439920e-003
9.439920e-003
9.439920e-003
9.439920e-003
9.439920e-003
9.439920e-003
9.439920e-003
9.439921e-003
9.439921e-003
9.439921e-003
9.439921e-003
9.439923e-003
9.439924e-003
9.439927e-003
9.439931e-003
9.439934e-003
9.439939e-003
9.439944e-003
9.439948e-003
9.439950e-003
9.439949e-003
9.439941e-003
9.439922e-003
9.439889e-003
9.439834e-003
9.439753e-003
9.439640e-003
9.439488e-003
9.439292e-003
9.439049e-003
9.438756e-003
9.438414e-003
9.438024e-003
9.437590e-003
9.437118e-003
9.436615e-003
9.436088e-003
9.435547e-003
9.435001e-003
9.434459e-003
9.433930e-003
9.433422e-003
9.432944e-003
9.432504e-003
9.432109e-003
9.431767e-003
9.431484e-003
9.431266e-003
9.431119e-003
9.431048e-003
9.431058e-003
9.431151e-003
9.431330e-003
9.431594e-003
9.431940e-003
9.432365e-003
9.432860e-003
9.433416e-003
9.434019e-003
9.434655e-003
9.435306e-003
9.435955e-003
9.436585e-003
9.437180e-003
9.437725e-003
9.438210e-003
9.438630e-003
9.438981e-003
9.439264e-003
9.439484e-003
9.439649e-003
9.439766e-003
9.439845e-003
9.439895e-003
9.439923e-003
9.439938e-003
9.439943e-003
9.439942e-003
9.439939e-003
9.439935e-003
9.439932e-003
9.439929e-003
9.439926e-003
9.439924e-003
9.439922e-003
9.439921e-003
9.439921e-003
9.439920e-003
9.439920e-003
9.439920e-003
9.439920e-003
9.439920e-003
9.439920e-003
9.439920e-003
9.439920e-003
9.439920e-003
9.439920e-003
9.439920e-003
9.439921e-003
9.439920e-003
9.439920e-003
9.439920e-003
9.439920e-003
9.439920e-003
9.439920e-003
9.439920e-003
9.439921e-003
9.439921e-003
9.439921e-003
9.439922e-003
9.439923e-003
9.439925e-003
9.439928e-003
9.439932e-003
9.439937e-003
9.439942e-003
9.439947e-003
9.439950e-003
9.439951e-003
9.439944e-003
9.439925e-003
9.439887e-003
9.439821e-003
9.439715e-003
9.439559e-003
9.439338e-003
9.439040e-003
9.438653e-003
9.438167e-003
9.437576e-003
9.436878e-003
9.436073e-003
9.435169e-003
9.434176e-003
9.433108e-003
9.431982e-003
9.430815e-003
9.429628e-003
9.428439e-003
9.427268e-003
9.426134e-003
9.425053e-003
9.424042e-003
9.423117e-003
9.422291e-003
9.421579e-003
9.420992e-003
9.420544e-003
9.420243e-003
9.420102e-003
9.420127e-003
9.420326e-003
9.420703e-003
9.421257e-003
9.421986e-003
9.422882e-003
9.423931e-003
9.425113e-003
9.426403e-003
9.427773e-003
9.429187e-003
9.430609e-003
9.432001e-003
9.433329e-003
9.434561e-003
9.435672e-003
9.436645e-003
9.437470e-003
9.438149e-003
9.438687e-003
9.439100e-003
9.439403e-003
9.439617e-003
9.439759e-003
9.439850e-003
9.439902e-003
9.439929e-003
9.439941e-003
9.439943e-003
9.439941e-003
9.439937e-003
9.439933e-003
9.439929e-003
9.439926e-003
9.439924e-003
9.439922e-003
9.439921e-003
9.439921e-003
9.439921e-003
9.439920e-003
9.439920e-003
9.439920e-003
9.439920e-003
9.439920e-003
9.439920e-003
9.439920e-003
9.439920e-003
9.439920e-003
9.439921e-003
9.439920e-003
9.439919e-003
9.439919e-003
9.439920e-003
9.439920e-003
9.439921e-003
9.439921e-003
9.439921e-003
9.439921e-003
9.439922e-003
9.439924e-003
9.439926e-003
9.439929e-003
9.439933e-003
9.439939e-003
9.439944e-003
9.439949e-003
9.439952e-003
9.439949e-003
9.439934e-003
9.439899e-003
9.439831e-003
9.439714e-003
9.439528e-003
9.439251e-003
9.438855e-003
9.438314e-003
9.437602e-003
9.436696e-003
9.435578e-003
9.434240e-003
9.432682e-003
9.430912e-003
9.428950e-003
9.426821e-003
9.424560e-003
9.422203e-003
9.419789e-003
9.417359e-003
9.414951e-003
9.412603e-003
9.410348e-003
9.408220e-003
9.406245e-003
9.404451e-003
9.402862e-003
9.401500e-003
9.400386e-003
9.399540e-003
9.398981e-003
9.398725e-003
9.398786e-003
9.399179e-003
9.399910e-003
9.400983e-003
9.402394e-003
9.404133e-003
9.406179e-003
9.408499e-003
9.411053e-003
9.413787e-003
9.416638e-003
9.419537e-003
9.422410e-003
9.425183e-003
9.427789e-003
9.430171e-003
9.432285e-003
9.434105e-003
9.435624e-003
9.436850e-003
9.437805e-003
9.438523e-003
9.439042e-003
9.439401e-003
9.439637e-003
9.439785e-003
9.439871e-003
9.439916e-003
9.439937e-003
9.439943e-003
9.439942e-003
9.439938e-003
9.439934e-003
9.439930e-003
9.439927e-003
9.439924e-003
9.439923e-003
9.439921e-003
9.439921e-003
9.439920e-003
9.439920e-003
9.439920e-003
9.439920e-003
9.439920e-003
9.439920e-003
9.439920e-003
9.439920e-003
9.439920e-003
9.439921e-003
9.439920e-003
9.439919e-003
9.439919e-003
9.439920e-003
9.439921e-003
9.439921e-003
9.439921e-003
9.439921e-003
9.439922e-003
9.439924e-003
9.439927e-003
9.439930e-003
9.439935e-003
9.439940e-003
9.439946e-003
9.439952e-003
9.439953e-003
9.439945e-003
9.439919e-003
9.439861e-003
9.439752e-003
9.439564e-003
9.439263e-003
9.438805e-003
9.438144e-003
9.437224e-003
9.435994e-003
9.434404e-003
9.432415e-003
9.430003e-003
9.427160e-003
9.423900e-003
9.420256e-003
9.416280e-003
9.412035e-003
9.407597e-003
9.403045e-003
9.398458e-003
9.393912e-003
9.389478e-003
9.385219e-003
9.381190e-003
9.377440e-003
9.374010e-003
9.370934e-003
9.368243e-003
9.365967e-003
9.364129e-003
9.362753e-003
9.361864e-003
9.361483e-003
9.361631e-003
9.362327e-003
9.363586e-003
9.365419e-003
9.367829e-003
9.370810e-003
9.374344e-003
9.378394e-003
9.382909e-003
9.387812e-003
9.393011e-003
9.398388e-003
9.403814e-003
9.409150e-003
9.414258e-003
9.419013e-003
9.423308e-003
9.427072e-003
9.430266e-003
9.432887e-003
9.434965e-003
9.436554e-003
9.437725e-003
9.438553e-003
9.439116e-003
9.439480e-003
9.439704e-003
9.439833e-003
9.439900e-003
9.439932e-003
9.439942e-003
9.439943e-003
9.439939e-003
9.439935e-003
9.439930e-003
9.439927e-003
9.439925e-003
9.439923e-003
9.439921e-003
9.439921e-003
9.439920e-003
9.439920e-003
9.439920e-003
9.439920e-003
9.439920e-003
9.439920e-003
9.439920e-003
9.439920e-003
9.439920e-003
9.439920e-003
9.439920e-003
9.439920e-003
9.439920e-003
9.439921e-003
9.439921e-003
9.439921e-003
9.439922e-003
9.439923e-003
9.439926e-003
9.439931e-003
9.439936e-003
9.439942e-003
9.439948e-003
9.439953e-003
9.439953e-003
9.439940e-003
9.439901e-003
9.439816e-003
9.439654e-003
9.439374e-003
9.438917e-003
9.438212e-003
9.437173e-003
9.435703e-003
9.433701e-003
9.431071e-003
9.427732e-003
9.423631e-003
9.418748e-003
9.413108e-003
9.406776e-003
9.399857e-003
9.392486e-003
9.384817e-003
9.377010e-003
9.369224e-003
9.361604e-003
9.354277e-003
9.347350e-003
9.340903e-003
9.335000e-003
9.329682e-003
9.324975e-003
9.320893e-003
9.317442e-003
9.314622e-003
9.312433e-003
9.310875e-003
9.309948e-003
9.309659e-003
9.310017e-003
9.311039e-003
9.312746e-003
9.315166e-003
9.318333e-003
9.322280e-003
9.327037e-003
9.332622e-003
9.339033e-003
9.346231e-003
9.354137e-003
9.362621e-003
9.371501e-003
9.380550e-003
9.389511e-003
9.398119e-003
9.406129e-003
9.413337e-003
9.419602e-003
9.424858e-003
9.429110e-003
9.432423e-003
9.434909e-003
9.436704e-003
9.437947e-003
9.438773e-003
9.439297e-003
9.439612e-003
9.439791e-003
9.439883e-003
9.439926e-003
9.439941e-003
9.439943e-003
9.439940e-003
9.439935e-003
9.439931e-003
9.439927e-003
9.439924e-003
9.439922e-003
9.439921e-003
9.439921e-003
9.439921e-003
9.439920e-003
9.439920e-003
9.439920e-003
9.439920e-003
9.439920e-003
9.439920e-003
9.439919e-003
9.439920e-003
9.439920e-003
9.439920e-003
9.439921e-003
9.439921e-003
9.439921e-003
9.439922e-003
9.439924e-003
9.439926e-003
9.439930e-003
9.439936e-003
9.439943e-003
9.439950e-003
9.439955e-003
9.439953e-003
9.439935e-003
9.439882e-003
9.439767e-003
9.439546e-003
9.439155e-003
9.438506e-003
9.437485e-003
9.435949e-003
9.433733e-003
9.430656e-003
9.426547e-003
9.421254e-003
9.414680e-003
9.406799e-003
9.397673e-003
9.387461e-003
9.376405e-003
9.364815e-003
9.353038e-003
9.341425e-003
9.330305e-003
9.319960e-003
9.310608e-003
9.302402e-003
9.295425e-003
9.289697e-003
9.285184e-003
9.281806e-003
9.279451e-003
9.277983e-003
9.277255e-003
9.277117e-003
9.277422e-003
9.278033e-003
9.278828e-003
9.279705e-003
9.280592e-003
9.281449e-003
9.282284e-003
9.283157e-003
9.284192e-003
9.285574e-003
9.287546e-003
9.290390e-003
9.294398e-003
9.299836e-003
9.306890e-003
9.315632e-003
9.325980e-003
9.337686e-003
9.350350e-003
9.363458e-003
9.376441e-003
9.388754e-003
9.399935e-003
9.409663e-003
9.417775e-003
9.424263e-003
9.429242e-003
9.432909e-003
9.435501e-003
9.437258e-003
9.438398e-003
9.439105e-003
9.439521e-003
9.439751e-003
9.439868e-003
9.439921e-003
9.439940e-003
9.439943e-003
9.439940e-003
9.439935e-003
9.439930e-003
9.439927e-003
9.439924e-003
9.439922e-003
9.439921e-003
9.439921e-003
9.439920e-003
9.439920e-003
9.439920e-003
9.439920e-003
9.439920e-003
9.439920e-003
9.439919e-003
9.439920e-003
9.439921e-003
9.439921e-003
9.439921e-003
9.439921e-003
9.439922e-003
9.439924e-003
9.439927e-003
9.439931e-003
9.439936e-003
9.439943e-003
9.439950e-003
9.439956e-003
9.439953e-003
9.439930e-003
9.439865e-003
9.439721e-003
9.439438e-003
9.438927e-003
9.438062e-003
9.436668e-003
9.434526e-003
9.431367e-003
9.426898e-003
9.420827e-003
9.412902e-003
9.402977e-003
9.391055e-003
9.377343e-003
9.362266e-003
9.346455e-003
9.330696e-003
9.315853e-003
9.302780e-003
9.292230e-003
9.284792e-003
9.280848e-003
9.280563e-003
9.283893e-003
9.290604e-003
9.300311e-003
9.312504e-003
9.326586e-003
9.341899e-003
9.357760e-003
9.373483e-003
9.388392e-003
9.401846e-003
9.413241e-003
9.422026e-003
9.427716e-003
9.429920e-003
9.428366e-003
9.422945e-003
9.413753e-003
9.401135e-003
9.385711e-003
9.368388e-003
9.350326e-003
9.332874e-003
9.317451e-003
9.305400e-003
9.297824e-003
9.295431e-003
9.298424e-003
9.306457e-003
9.318681e-003
9.333868e-003
9.350606e-003
9.367507e-003
9.383397e-003
9.397441e-003
9.409182e-003
9.418506e-003
9.425566e-003
9.430672e-003
9.434206e-003
9.436547e-003
9.438030e-003
9.438927e-003
9.439441e-003
9.439719e-003
9.439857e-003
9.439918e-003
9.439940e-003
9.439943e-003
9.439940e-003
9.439935e-003
9.439930e-003
9.439926e-003
9.439924e-003
9.439922e-003
9.439921e-003
9.439920e-003
9.439920e-003
9.439920e-003
9.439920e-003
9.439920e-003
9.439920e-003
9.439919e-003
9.439920e-003
9.439921e-003
9.439921e-003
9.439921e-003
9.439921e-003
9.439923e-003
9.439926e-003
9.439930e-003
9.439936e-003
9.439943e-003
9.439951e-003
9.439957e-003
9.439954e-003
9.439929e-003
9.439854e-003
9.439685e-003
9.439346e-003
9.438720e-003
9.437632e-003
9.435837e-003
9.433012e-003
9.428755e-003
9.422610e-003
9.414120e-003
9.402908e-003
9.388799e-003
9.371955e-003
9.353001e-003
9.333096e-003
9.313919e-003
9.297560e-003
9.286306e-003
9.282390e-003
9.287731e-003
9.303726e-003
9.331124e-003
9.369989e-003
9.419744e-003
9.479264e-003
9.546994e-003
9.621056e-003
9.699360e-003
9.779692e-003
9.859787e-003
9.937395e-003
1.001033e-002
1.007649e-002
1.013390e-002
1.018068e-002
1.021513e-002
1.023567e-002
1.024099e-002
1.023009e-002
1.020239e-002
1.015793e-002
1.009745e-002
1.002258e-002
9.935887e-003
9.840884e-003
9.741879e-003
9.643718e-003
9.551391e-003
9.469539e-003
9.401947e-003
9.351083e-003
9.317807e-003
9.301292e-003
9.299224e-003
9.308243e-003
9.324532e-003
9.344415e-003
9.364837e-003
9.383635e-003
9.399574e-003
9.412213e-003
9.421673e-003
9.428396e-003
9.432950e-003
9.435896e-003
9.437716e-003
9.438788e-003
9.439386e-003
9.439700e-003
9.439853e-003
9.439918e-003