# vtk DataFile Version 3.0
vtk output
ASCII
DATASET STRUCTURED_POINTS
DIMENSIONS 100 100 1
SPACING 1 1 1
ORIGIN 0 0 0
POINT_DATA 10000
SCALARS SFBox_profile double
LOOKUP_TABLE default 
9.439917e-003
9.439918e-003
9.439920e-003
9.439921e-003
9.439921e-003
9.439921e-003
9.439920e-003
9.439919e-003
9.439919e-003
9.439919e-003
9.439920e-003
9.439921e-003
9.439921e-003
9.439921e-003
9.439921e-003
9.439920e-003
9.439919e-003
9.439919e-003
9.439919e-003
9.439919e-003
9.439919e-003
9.439919e-003
9.439920e-003
9.439921e-003
9.439921e-003
9.439921e-003
9.439921e-003
9.439921e-003
9.439920e-003
9.439920e-003
9.439920e-003
9.439920e-003
9.439919e-003
9.439919e-003
9.439919e-003
9.439919e-003
9.439919e-003
9.439920e-003
9.439920e-003
9.439920e-003
9.439920e-003
9.439920e-003
9.439920e-003
9.439920e-003
9.439921e-003
9.439921e-003
9.439921e-003
9.439921e-003
9.439921e-003
9.439921e-003
9.439921e-003
9.439921e-003
9.439921e-003
9.439920e-003
9.439920e-003
9.439920e-003
9.439920e-003
9.439920e-003
9.439920e-003
9.439920e-003
9.439920e-003
9.439920e-003
9.439920e-003
9.439919e-003
9.439919e-003
9.439919e-003
9.439920e-003
9.439920e-003
9.439920e-003
9.439920e-003
9.439920e-003
9.439921e-003
9.439921e-003
9.439921e-003
9.439920e-003
9.439920e-003
9.439920e-003
9.439920e-003
9.439920e-003
9.439920e-003
9.439919e-003
9.439919e-003
9.439920e-003
9.439920e-003
9.439921e-003
9.439921e-003
9.439920e-003
9.439920e-003
9.439920e-003
9.439920e-003
9.439920e-003
9.439920e-003
9.439920e-003
9.439920e-003
9.439920e-003
9.439920e-003
9.439920e-003
9.439920e-003
9.439920e-003
9.439920e-003
9.439917e-003
9.439918e-003
9.439920e-003
9.439921e-003
9.439921e-003
9.439921e-003
9.439920e-003
9.439919e-003
9.439919e-003
9.439919e-003
9.439920e-003
9.439921e-003
9.439921e-003
9.439921e-003
9.439921e-003
9.439920e-003
9.439919e-003
9.439919e-003
9.439919e-003
9.439919e-003
9.439919e-003
9.439919e-003
9.439920e-003
9.439921e-003
9.439921e-003
9.439921e-003
9.439921e-003
9.439921e-003
9.439920e-003
9.439920e-003
9.439920e-003
9.439920e-003
9.439919e-003
9.439919e-003
9.439919e-003
9.439919e-003
9.439919e-003
9.439920e-003
9.439920e-003
9.439920e-003
9.439920e-003
9.439920e-003
9.439920e-003
9.439920e-003
9.439921e-003
9.439921e-003
9.439921e-003
9.439921e-003
9.439921e-003
9.439921e-003
9.439921e-003
9.439921e-003
9.439921e-003
9.439920e-003
9.439920e-003
9.439920e-003
9.439920e-003
9.439920e-003
9.439920e-003
9.439920e-003
9.439920e-003
9.439920e-003
9.439920e-003
9.439919e-003
9.439919e-003
9.439919e-003
9.439920e-003
9.439920e-003
9.439920e-003
9.439920e-003
9.439920e-003
9.439921e-003
9.439921e-003
9.439921e-003
9.439920e-003
9.439920e-003
9.439920e-003
9.439920e-003
9.439920e-003
9.439920e-003
9.439919e-003
9.439919e-003
9.439920e-003
9.439920e-003
9.439921e-003
9.439921e-003
9.439920e-003
9.439920e-003
9.439920e-003
9.439920e-003
9.439920e-003
9.439920e-003
9.439920e-003
9.439920e-003
9.439920e-003
9.439920e-003
9.439920e-003
9.439920e-003
9.439920e-003
9.439920e-003
9.439920e-003
9.439920e-003
9.439920e-003
9.439920e-003
9.439920e-003
9.439920e-003
9.439920e-003
9.439920e-003
9.439920e-003
9.439920e-003
9.439920e-003
9.439920e-003
9.439920e-003
9.439920e-003
9.439920e-003
9.439920e-003
9.439920e-003
9.439920e-003
9.439920e-003
9.439920e-003
9.439920e-003
9.439920e-003
9.439920e-003
9.439920e-003
9.439920e-003
9.439920e-003
9.439920e-003
9.439920e-003
9.439920e-003
9.439920e-003
9.439920e-003
9.439920e-003
9.439920e-003
9.439920e-003
9.439920e-003
9.439920e-003
9.439920e-003
9.439920e-003
9.439920e-003
9.439920e-003
9.439920e-003
9.439920e-003
9.439920e-003
9.439920e-003
9.439920e-003
9.439920e-003
9.439920e-003
9.439920e-003
9.439920e-003
9.439920e-003
9.439920e-003
9.439920e-003
9.439920e-003
9.439920e-003
9.439920e-003
9.439920e-003
9.439920e-003
9.439920e-003
9.439920e-003
9.439920e-003
9.439920e-003
9.439920e-003
9.439920e-003
9.439920e-003
9.439920e-003
9.439920e-003
9.439920e-003
9.439920e-003
9.439920e-003
9.439920e-003
9.439920e-003
9.439920e-003
9.439920e-003
9.439920e-003
9.439920e-003
9.439920e-003
9.439920e-003
9.439920e-003
9.439920e-003
9.439920e-003
9.439920e-003
9.439920e-003
9.439920e-003
9.439920e-003
9.439920e-003
9.439920e-003
9.439920e-003
9.439920e-003
9.439920e-003
9.439920e-003
9.439920e-003
9.439920e-003
9.439920e-003
9.439920e-003
9.439920e-003
9.439920e-003
9.439920e-003
9.439920e-003
9.439920e-003
9.439920e-003
9.439922e-003
9.439922e-003
9.439920e-003
9.439919e-003
9.439919e-003
9.439919e-003
9.439920e-003
9.439921e-003
9.439921e-003
9.439921e-003
9.439920e-003
9.439919e-003
9.439919e-003
9.439919e-003
9.439919e-003
9.439920e-003
9.439920e-003
9.439921e-003
9.439921e-003
9.439921e-003
9.439921e-003
9.439920e-003
9.439920e-003
9.439919e-003
9.439919e-003
9.439919e-003
9.439919e-003
9.439919e-003
9.439919e-003
9.439920e-003
9.439920e-003
9.439921e-003
9.439921e-003
9.439921e-003
9.439921e-003
9.439921e-003
9.439921e-003
9.439921e-003
9.439921e-003
9.439921e-003
9.439921e-003
9.439920e-003
9.439920e-003
9.439920e-003
9.439920e-003
9.439920e-003
9.439920e-003
9.439920e-003
9.439920e-003
9.439920e-003
9.439920e-003
9.439920e-003
9.439920e-003
9.439920e-003
9.439920e-003
9.439920e-003
9.439920e-003
9.439920e-003
9.439921e-003
9.439921e-003
9.439921e-003
9.439921e-003
9.439921e-003
9.439921e-003
9.439921e-003
9.439921e-003
9.439921e-003
9.439920e-003
9.439920e-003
9.439920e-003
9.439920e-003
9.439919e-003
9.439919e-003
9.439919e-003
9.439919e-003
9.439920e-003
9.439920e-003
9.439920e-003
9.439921e-003
9.439921e-003
9.439921e-003
9.439920e-003
9.439920e-003
9.439920e-003
9.439919e-003
9.439919e-003
9.439920e-003
9.439920e-003
9.439920e-003
9.439920e-003
9.439920e-003
9.439920e-003
9.439920e-003
9.439920e-003
9.439920e-003
9.439920e-003
9.439920e-003
9.439920e-003
9.439920e-003
9.439920e-003
9.439923e-003
9.439922e-003
9.439921e-003
9.439919e-003
9.439918e-003
9.439919e-003
9.439920e-003
9.439921e-003
9.439922e-003
9.439921e-003
9.439920e-003
9.439919e-003
9.439919e-003
9.439919e-003
9.439920e-003
9.439920e-003
9.439920e-003
9.439920e-003
9.439920e-003
9.439920e-003
9.439921e-003
9.439920e-003
9.439920e-003
9.439920e-003
9.439919e-003
9.439919e-003
9.439920e-003
9.439920e-003
9.439920e-003
9.439920e-003
9.439920e-003
9.439921e-003
9.439921e-003
9.439921e-003
9.439921e-003
9.439921e-003
9.439921e-003
9.439921e-003
9.439921e-003
9.439921e-003
9.439921e-003
9.439921e-003
9.439921e-003
9.439921e-003
9.439922e-003
9.439922e-003
9.439922e-003
9.439922e-003
9.439922e-003
9.439922e-003
9.439922e-003
9.439922e-003
9.439922e-003
9.439922e-003
9.439922e-003
9.439921e-003
9.439921e-003
9.439921e-003
9.439921e-003
9.439921e-003
9.439921e-003
9.439921e-003
9.439921e-003
9.439921e-003
9.439921e-003
9.439921e-003
9.439921e-003
9.439920e-003
9.439920e-003
9.439920e-003
9.439920e-003
9.439920e-003
9.439920e-003
9.439920e-003
9.439920e-003
9.439920e-003
9.439920e-003
9.439920e-003
9.439920e-003
9.439920e-003
9.439921e-003
9.439920e-003
9.439920e-003
9.439920e-003
9.439919e-003
9.439919e-003
9.439920e-003
9.439920e-003
9.439920e-003
9.439920e-003
9.439920e-003
9.439920e-003
9.439920e-003
9.439920e-003
9.439920e-003
9.439920e-003
9.439920e-003
9.439920e-003
9.439920e-003
9.439920e-003
9.439921e-003
9.439921e-003
9.439921e-003
9.439920e-003
9.439920e-003
9.439919e-003
9.439920e-003
9.439920e-003
9.439920e-003
9.439920e-003
9.439920e-003
9.439920e-003
9.439920e-003
9.439920e-003
9.439920e-003
9.439921e-003
9.439920e-003
9.439920e-003
9.439919e-003
9.439919e-003
9.439920e-003
9.439920e-003
9.439920e-003
9.439920e-003
9.439920e-003
9.439921e-003
9.439921e-003
9.439921e-003
9.439921e-003
9.439921e-003
9.439920e-003
9.439920e-003
9.439920e-003
9.439920e-003
9.439920e-003
9.439921e-003
9.439921e-003
9.439921e-003
9.439922e-003
9.439922e-003
9.439923e-003
9.439923e-003
9.439923e-003
9.439924e-003
9.439924e-003
9.439924e-003
9.439924e-003
9.439924e-003
9.439924e-003
9.439924e-003
9.439924e-003
9.439924e-003
9.439924e-003
9.439924e-003
9.439924e-003
9.439923e-003
9.439923e-003
9.439923e-003
9.439922e-003
9.439922e-003
9.439922e-003
9.439921e-003
9.439921e-003
9.439921e-003
9.439921e-003
9.439920e-003
9.439920e-003
9.439920e-003
9.439920e-003
9.439921e-003
9.439921e-003
9.439921e-003
9.439920e-003
9.439920e-003
9.439920e-003
9.439920e-003
9.439920e-003
9.439920e-003
9.439919e-003
9.439920e-003
9.439920e-003
9.439920e-003
9.439920e-003
9.439920e-003
9.439920e-003
9.439920e-003
9.439920e-003
9.439920e-003
9.439920e-003
9.439920e-003
9.439920e-003
9.439920e-003
9.439920e-003
9.439920e-003
9.439920e-003
9.439920e-003
9.439920e-003
9.439920e-003
9.439920e-003
9.439920e-003
9.439918e-003
9.439919e-003
9.439920e-003
9.439921e-003
9.439921e-003
9.439921e-003
9.439920e-003
9.439919e-003
9.439919e-003
9.439919e-003
9.439920e-003
9.439920e-003
9.439921e-003
9.439921e-003
9.439921e-003
9.439921e-003
9.439920e-003
9.439919e-003
9.439919e-003
9.439919e-003
9.439919e-003
9.439920e-003
9.439920e-003
9.439921e-003
9.439921e-003
9.439921e-003
9.439922e-003
9.439922e-003
9.439921e-003
9.439921e-003
9.439921e-003
9.439921e-003
9.439921e-003
9.439921e-003
9.439922e-003
9.439922e-003
9.439923e-003
9.439923e-003
9.439924e-003
9.439925e-003
9.439925e-003
9.439926e-003
9.439926e-003
9.439927e-003
9.439927e-003
9.439928e-003
9.439928e-003
9.439928e-003
9.439928e-003
9.439928e-003
9.439928e-003
9.439928e-003
9.439928e-003
9.439927e-003
9.439927e-003
9.439927e-003
9.439926e-003
9.439926e-003
9.439925e-003
9.439924e-003
9.439924e-003
9.439923e-003
9.439922e-003
9.439922e-003
9.439922e-003
9.439921e-003
9.439921e-003
9.439921e-003
9.439921e-003
9.439921e-003
9.439921e-003
9.439921e-003
9.439921e-003
9.439921e-003
9.439921e-003
9.439921e-003
9.439920e-003
9.439920e-003
9.439919e-003
9.439919e-003
9.439919e-003
9.439920e-003
9.439920e-003
9.439920e-003
9.439920e-003
9.439920e-003
9.439920e-003
9.439920e-003
9.439920e-003
9.439920e-003
9.439919e-003
9.439920e-003
9.439920e-003
9.439920e-003
9.439920e-003
9.439920e-003
9.439920e-003
9.439920e-003
9.439920e-003
9.439920e-003
9.439916e-003
9.439917e-003
9.439919e-003
9.439921e-003
9.439922e-003
9.439921e-003
9.439920e-003
9.439919e-003
9.439919e-003
9.439919e-003
9.439920e-003
9.439921e-003
9.439921e-003
9.439921e-003
9.439920e-003
9.439920e-003
9.439920e-003
9.439920e-003
9.439920e-003
9.439920e-003
9.439920e-003
9.439920e-003
9.439920e-003
9.439920e-003
9.439921e-003
9.439921e-003
9.439921e-003
9.439921e-003
9.439921e-003
9.439921e-003
9.439922e-003
9.439923e-003
9.439924e-003
9.439924e-003
9.439925e-003
9.439926e-003
9.439927e-003
9.439928e-003
9.439929e-003
9.439929e-003
9.439930e-003
9.439931e-003
9.439931e-003
9.439932e-003
9.439932e-003
9.439933e-003
9.439933e-003
9.439933e-003
9.439933e-003
9.439933e-003
9.439933e-003
9.439933e-003
9.439933e-003
9.439932e-003
9.439932e-003
9.439931e-003
9.439931e-003
9.439930e-003
9.439929e-003
9.439929e-003
9.439928e-003
9.439927e-003
9.439926e-003
9.439925e-003
9.439925e-003
9.439924e-003
9.439923e-003
9.439922e-003
9.439922e-003
9.439921e-003
9.439921e-003
9.439921e-003
9.439920e-003
9.439920e-003
9.439920e-003
9.439920e-003
9.439920e-003
9.439920e-003
9.439920e-003
9.439920e-003
9.439920e-003
9.439920e-003
9.439920e-003
9.439920e-003
9.439920e-003
9.439920e-003
9.439920e-003
9.439920e-003
9.439920e-003
9.439920e-003
9.439920e-003
9.439920e-003
9.439920e-003
9.439920e-003
9.439920e-003
9.439920e-003
9.439920e-003
9.439920e-003
9.439920e-003
9.439920e-003
9.439918e-003
9.439918e-003
9.439919e-003
9.439920e-003
9.439921e-003
9.439921e-003
9.439920e-003
9.439920e-003
9.439919e-003
9.439920e-003
9.439920e-003
9.439920e-003
9.439920e-003
9.439920e-003
9.439919e-003
9.439919e-003
9.439920e-003
9.439921e-003
9.439921e-003
9.439921e-003
9.439921e-003
9.439921e-003
9.439920e-003
9.439920e-003
9.439920e-003
9.439920e-003
9.439921e-003
9.439921e-003
9.439922e-003
9.439923e-003
9.439925e-003
9.439926e-003
9.439928e-003
9.439929e-003
9.439930e-003
9.439931e-003
9.439933e-003
9.439934e-003
9.439935e-003
9.439936e-003
9.439937e-003
9.439937e-003
9.439938e-003
9.439939e-003
9.439939e-003
9.439940e-003
9.439940e-003
9.439940e-003
9.439940e-003
9.439940e-003
9.439940e-003
9.439940e-003
9.439939e-003
9.439939e-003
9.439938e-003
9.439938e-003
9.439937e-003
9.439936e-003
9.439935e-003
9.439935e-003
9.439933e-003
9.439932e-003
9.439931e-003
9.439930e-003
9.439929e-003
9.439927e-003
9.439926e-003
9.439925e-003
9.439924e-003
9.439923e-003
9.439922e-003
9.439921e-003
9.439920e-003
9.439920e-003
9.439920e-003
9.439920e-003
9.439920e-003
9.439920e-003
9.439921e-003
9.439921e-003
9.439920e-003
9.439920e-003
9.439920e-003
9.439920e-003
9.439920e-003
9.439920e-003
9.439920e-003
9.439920e-003
9.439920e-003
9.439920e-003
9.439920e-003
9.439920e-003
9.439920e-003
9.439920e-003
9.439920e-003
9.439920e-003
9.439920e-003
9.439920e-003
9.439920e-003
9.439920e-003
9.439922e-003
9.439921e-003
9.439920e-003
9.439919e-003
9.439919e-003
9.439920e-003
9.439920e-003
9.439921e-003
9.439921e-003
9.439920e-003
9.439920e-003
9.439920e-003
9.439919e-003
9.439919e-003
9.439919e-003
9.439919e-003
9.439920e-003
9.439921e-003
9.439921e-003
9.439921e-003
9.439921e-003
9.439921e-003
9.439921e-003
9.439921e-003
9.439921e-003
9.439922e-003
9.439922e-003
9.439924e-003
9.439925e-003
9.439927e-003
9.439929e-003
9.439931e-003
9.439933e-003
9.439934e-003
9.439936e-003
9.439938e-003
9.439939e-003
9.439941e-003
9.439942e-003
9.439943e-003
9.439944e-003
9.439944e-003
9.439945e-003
9.439945e-003
9.439945e-003
9.439945e-003
9.439945e-003
9.439945e-003
9.439945e-003
9.439944e-003
9.439944e-003
9.439944e-003
9.439944e-003
9.439944e-003
9.439943e-003
9.439943e-003
9.439943e-003
9.439942e-003
9.439942e-003
9.439941e-003
9.439940e-003
9.439938e-003
9.439937e-003
9.439935e-003
9.439934e-003
9.439932e-003
9.439930e-003
9.439929e-003
9.439927e-003
9.439925e-003
9.439924e-003
9.439923e-003
9.439922e-003
9.439921e-003
9.439921e-003
9.439920e-003
9.439920e-003
9.439921e-003
9.439921e-003
9.439921e-003
9.439921e-003
9.439920e-003
9.439920e-003
9.439920e-003
9.439920e-003
9.439920e-003
9.439920e-003
9.439920e-003
9.439920e-003
9.439920e-003
9.439921e-003
9.439920e-003
9.439920e-003
9.439920e-003
9.439920e-003
9.439920e-003
9.439920e-003
9.439920e-003
9.439920e-003
9.439920e-003
9.439925e-003
9.439923e-003
9.439920e-003
9.439918e-003
9.439918e-003
9.439919e-003
9.439920e-003
9.439921e-003
9.439921e-003
9.439921e-003
9.439920e-003
9.439920e-003
9.439920e-003
9.439920e-003
9.439920e-003
9.439920e-003
9.439920e-003
9.439921e-003
9.439921e-003
9.439921e-003
9.439921e-003
9.439921e-003
9.439922e-003
9.439923e-003
9.439924e-003
9.439925e-003
9.439927e-003
9.439929e-003
9.439931e-003
9.439933e-003
9.439935e-003
9.439937e-003
9.439939e-003
9.439941e-003
9.439942e-003
9.439944e-003
9.439945e-003
9.439945e-003
9.439945e-003
9.439944e-003
9.439943e-003
9.439942e-003
9.439940e-003
9.439937e-003
9.439935e-003
9.439933e-003
9.439931e-003
9.439930e-003
9.439928e-003
9.439928e-003
9.439928e-003
9.439928e-003
9.439929e-003
9.439931e-003
9.439933e-003
9.439935e-003
9.439937e-003
9.439939e-003
9.439940e-003
9.439941e-003
9.439942e-003
9.439942e-003
9.439942e-003
9.439940e-003
9.439939e-003
9.439937e-003
9.439936e-003
9.439934e-003
9.439932e-003
9.439930e-003
9.439928e-003
9.439926e-003
9.439925e-003
9.439924e-003
9.439922e-003
9.439921e-003
9.439921e-003
9.439921e-003
9.439921e-003
9.439921e-003
9.439920e-003
9.439920e-003
9.439920e-003
9.439920e-003
9.439920e-003
9.439920e-003
9.439920e-003
9.439920e-003
9.439920e-003
9.439920e-003
9.439920e-003
9.439920e-003
9.439920e-003
9.439920e-003
9.439920e-003
9.439920e-003
9.439920e-003
9.439920e-003
9.439920e-003
9.439920e-003
9.439925e-003
9.439923e-003
9.439921e-003
9.439919e-003
9.439918e-003
9.439919e-003
9.439920e-003
9.439921e-003
9.439920e-003
9.439920e-003
9.439920e-003
9.439920e-003
9.439920e-003
9.439921e-003
9.439921e-003
9.439921e-003
9.439920e-003
9.439920e-003
9.439920e-003
9.439920e-003
9.439921e-003
9.439922e-003
9.439923e-003
9.439926e-003
9.439928e-003
9.439930e-003
9.439932e-003
9.439935e-003
9.439937e-003
9.439940e-003
9.439942e-003
9.439944e-003
9.439945e-003
9.439945e-003
9.439945e-003
9.439943e-003
9.439939e-003
9.439934e-003
9.439927e-003
9.439919e-003
9.439910e-003
9.439900e-003
9.439889e-003
9.439879e-003
9.439869e-003
9.439860e-003
9.439852e-003
9.439846e-003
9.439842e-003
9.439840e-003
9.439841e-003
9.439844e-003
9.439849e-003
9.439856e-003
9.439865e-003
9.439875e-003
9.439886e-003
9.439896e-003
9.439906e-003
9.439916e-003
9.439924e-003
9.439931e-003
9.439936e-003
9.439939e-003
9.439941e-003
9.439941e-003
9.439941e-003
9.439940e-003
9.439938e-003
9.439935e-003
9.439933e-003
9.439931e-003
9.439929e-003
9.439927e-003
9.439925e-003
9.439923e-003
9.439922e-003
9.439921e-003
9.439921e-003
9.439920e-003
9.439920e-003
9.439920e-003
9.439920e-003
9.439920e-003
9.439920e-003
9.439920e-003
9.439920e-003
9.439920e-003
9.439920e-003
9.439920e-003
9.439920e-003
9.439920e-003
9.439920e-003
9.439920e-003
9.439920e-003
9.439920e-003
9.439920e-003
9.439920e-003
9.439920e-003
9.439920e-003
9.439920e-003
9.439920e-003
9.439920e-003
9.439920e-003
9.439920e-003
9.439920e-003
9.439920e-003
9.439920e-003
9.439920e-003
9.439919e-003
9.439919e-003
9.439920e-003
9.439921e-003
9.439921e-003
9.439921e-003
9.439921e-003
9.439920e-003
9.439920e-003
9.439921e-003
9.439921e-003
9.439923e-003
9.439925e-003
9.439927e-003
9.439929e-003
9.439932e-003
9.439935e-003
9.439939e-003
9.439942e-003
9.439944e-003
9.439946e-003
9.439947e-003
9.439946e-003
9.439942e-003
9.439935e-003
9.439924e-003
9.439909e-003
9.439890e-003
9.439866e-003
9.439839e-003
9.439808e-003
9.439775e-003
9.439741e-003
9.439706e-003
9.439672e-003
9.439640e-003
9.439612e-003
9.439589e-003
9.439571e-003
9.439559e-003
9.439555e-003
9.439558e-003
9.439568e-003
9.439585e-003
9.439608e-003
9.439636e-003
9.439668e-003
9.439703e-003
9.439738e-003
9.439774e-003
9.439808e-003
9.439839e-003
9.439867e-003
9.439890e-003
9.439908e-003
9.439922e-003
9.439932e-003
9.439938e-003
9.439941e-003
9.439942e-003
9.439941e-003
9.439939e-003
9.439936e-003
9.439934e-003
9.439931e-003
9.439928e-003
9.439926e-003
9.439924e-003
9.439923e-003
9.439921e-003
9.439921e-003
9.439920e-003
9.439920e-003
9.439920e-003
9.439921e-003
9.439921e-003
9.439920e-003
9.439920e-003
9.439920e-003
9.439920e-003
9.439920e-003
9.439920e-003
9.439920e-003
9.439920e-003
9.439920e-003
9.439920e-003
9.439920e-003
9.439920e-003
9.439920e-003
9.439920e-003
9.439920e-003
9.439916e-003
9.439917e-003
9.439919e-003
9.439921e-003
9.439921e-003
9.439921e-003
9.439920e-003
9.439920e-003
9.439919e-003
9.439919e-003
9.439920e-003
9.439920e-003
9.439920e-003
9.439921e-003
9.439921e-003
9.439921e-003
9.439921e-003
9.439921e-003
9.439923e-003
9.439925e-003
9.439927e-003
9.439929e-003
9.439932e-003
9.439935e-003
9.439938e-003
9.439942e-003
9.439945e-003
9.439947e-003
9.439947e-003
9.439944e-003
9.439936e-003
9.439921e-003
9.439899e-003
9.439868e-003
9.439826e-003
9.439774e-003
9.439711e-003
9.439637e-003
9.439555e-003
9.439465e-003
9.439371e-003
9.439274e-003
9.439178e-003
9.439085e-003
9.439001e-003
9.438926e-003
9.438864e-003
9.438818e-003
9.438789e-003
9.438778e-003
9.438787e-003
9.438814e-003
9.438860e-003
9.438921e-003
9.438997e-003
9.439085e-003
9.439180e-003
9.439279e-003
9.439380e-003
9.439477e-003
9.439569e-003
9.439653e-003
9.439726e-003
9.439787e-003
9.439837e-003
9.439876e-003
9.439904e-003
9.439923e-003
9.439934e-003
9.439940e-003
9.439942e-003
9.439941e-003
9.439939e-003
9.439936e-003
9.439933e-003
9.439930e-003
9.439927e-003
9.439925e-003
9.439924e-003
9.439922e-003
9.439921e-003
9.439921e-003
9.439921e-003
9.439920e-003
9.439920e-003
9.439920e-003
9.439920e-003
9.439920e-003
9.439920e-003
9.439920e-003
9.439920e-003
9.439920e-003
9.439920e-003
9.439920e-003
9.439920e-003
9.439920e-003
9.439920e-003
9.439920e-003
9.439920e-003
9.439920e-003
9.439914e-003
9.439916e-003
9.439919e-003
9.439921e-003
9.439922e-003
9.439921e-003
9.439920e-003
9.439919e-003
9.439920e-003
9.439920e-003
9.439920e-003
9.439920e-003
9.439920e-003
9.439920e-003
9.439920e-003
9.439921e-003
9.439922e-003
9.439923e-003
9.439926e-003
9.439929e-003
9.439932e-003
9.439935e-003
9.439938e-003
9.439942e-003
9.439946e-003
9.439948e-003
9.439948e-003
9.439943e-003
9.439930e-003
9.439907e-003
9.439870e-003
9.439817e-003
9.439742e-003
9.439645e-003
9.439522e-003
9.439374e-003
9.439201e-003
9.439005e-003
9.438788e-003
9.438557e-003
9.438316e-003
9.438073e-003
9.437833e-003
9.437606e-003
9.437398e-003
9.437216e-003
9.437067e-003
9.436955e-003
9.436886e-003
9.436861e-003
9.436883e-003
9.436951e-003
9.437062e-003
9.437214e-003
9.437401e-003
9.437617e-003
9.437854e-003
9.438103e-003
9.438357e-003
9.438606e-003
9.438844e-003
9.439064e-003
9.439261e-003
9.439431e-003
9.439573e-003
9.439688e-003
9.439776e-003
9.439841e-003
9.439886e-003
9.439915e-003
9.439932e-003
9.439940e-003
9.439942e-003
9.439941e-003
9.439938e-003
9.439935e-003
9.439932e-003
9.439929e-003
9.439926e-003
9.439924e-003
9.439923e-003
9.439922e-003
9.439921e-003
9.439920e-003
9.439920e-003
9.439920e-003
9.439920e-003
9.439920e-003
9.439920e-003
9.439920e-003
9.439920e-003
9.439920e-003
9.439920e-003
9.439920e-003
9.439920e-003
9.439920e-003
9.439920e-003
9.439920e-003
9.439920e-003
9.439920e-003
9.439917e-003
9.439918e-003
9.439920e-003
9.439921e-003
9.439921e-003
9.439920e-003
9.439919e-003
9.439919e-003
9.439920e-003
9.439921e-003
9.439921e-003
9.439921e-003
9.439920e-003
9.439920e-003
9.439921e-003
9.439922e-003
9.439924e-003
9.439926e-003
9.439929e-003
9.439933e-003
9.439937e-003
9.439942e-003
9.439946e-003
9.439950e-003
9.439950e-003
9.439945e-003
9.439930e-003
9.439900e-003
9.439849e-003
9.439771e-003
9.439658e-003
9.439502e-003
9.439298e-003
9.439039e-003
9.438723e-003
9.438349e-003
9.437920e-003
9.437441e-003
9.436921e-003
9.436370e-003
9.435803e-003
9.435234e-003
9.434681e-003
9.434158e-003
9.433682e-003
9.433269e-003
9.432931e-003
9.432680e-003
9.432524e-003
9.432471e-003
9.432522e-003
9.432677e-003
9.432931e-003
9.433278e-003
9.433706e-003
9.434202e-003
9.434749e-003
9.435330e-003
9.435924e-003
9.436514e-003
9.437083e-003
9.437614e-003
9.438096e-003
9.438519e-003
9.438880e-003
9.439177e-003
9.439413e-003
9.439593e-003
9.439725e-003
9.439817e-003
9.439877e-003
9.439913e-003
9.439933e-003
9.439941e-003
9.439943e-003
9.439941e-003
9.439937e-003
9.439934e-003
9.439930e-003
9.439927e-003
9.439925e-003
9.439923e-003
9.439922e-003
9.439921e-003
9.439920e-003
9.439920e-003
9.439920e-003
9.439920e-003
9.439920e-003
9.439920e-003
9.439920e-003
9.439920e-003
9.439920e-003
9.439920e-003
9.439920e-003
9.439920e-003
9.439920e-003
9.439920e-003
9.439920e-003
9.439920e-003
9.439921e-003
9.439921e-003
9.439921e-003
9.439920e-003
9.439920e-003
9.439919e-003
9.439919e-003
9.439920e-003
9.439921e-003
9.439921e-003
9.439921e-003
9.439921e-003
9.439921e-003
9.439921e-003
9.439923e-003
9.439925e-003
9.439927e-003
9.439930e-003
9.439934e-003
9.439939e-003
9.439944e-003
9.439949e-003
9.439952e-003
9.439949e-003
9.439935e-003
9.439904e-003
9.439846e-003
9.439750e-003
9.439602e-003
9.439388e-003
9.439091e-003
9.438697e-003
9.438192e-003
9.437567e-003
9.436817e-003
9.435944e-003
9.434955e-003
9.433865e-003
9.432694e-003
9.431469e-003
9.430218e-003
9.428976e-003
9.427776e-003
9.426652e-003
9.425635e-003
9.424757e-003
9.424042e-003
9.423515e-003
9.423190e-003
9.423081e-003
9.423192e-003
9.423522e-003
9.424064e-003
9.424803e-003
9.425718e-003
9.426782e-003
9.427964e-003
9.429226e-003
9.430529e-003
9.431834e-003
9.433103e-003
9.434302e-003
9.435402e-003
9.436381e-003
9.437227e-003
9.437936e-003
9.438509e-003
9.438957e-003
9.439294e-003
9.439538e-003
9.439706e-003
9.439815e-003
9.439882e-003
9.439919e-003
9.439937e-003
9.439943e-003
9.439942e-003
9.439939e-003
9.439935e-003
9.439931e-003
9.439928e-003
9.439925e-003
9.439923e-003
9.439922e-003
9.439921e-003
9.439920e-003
9.439920e-003
9.439920e-003
9.439920e-003
9.439920e-003
9.439920e-003
9.439920e-003
9.439920e-003
9.439920e-003
9.439920e-003
9.439920e-003
9.439920e-003
9.439920e-003
9.439920e-003
9.439920e-003
9.439924e-003
9.439923e-003
9.439921e-003
9.439919e-003
9.439919e-003
9.439919e-003
9.439920e-003
9.439920e-003
9.439920e-003
9.439920e-003
9.439921e-003
9.439921e-003
9.439922e-003
9.439923e-003
9.439925e-003
9.439928e-003
9.439932e-003
9.439936e-003
9.439941e-003
9.439947e-003
9.439951e-003
9.439952e-003
9.439943e-003
9.439917e-003
9.439862e-003
9.439763e-003
9.439598e-003
9.439343e-003
9.438969e-003
9.438443e-003
9.437735e-003
9.436815e-003
9.435658e-003
9.434248e-003
9.432583e-003
9.430671e-003
9.428535e-003
9.426210e-003
9.423744e-003
9.421195e-003
9.418623e-003
9.416097e-003
9.413680e-003
9.411438e-003
9.409429e-003
9.407707e-003
9.406317e-003
9.405297e-003
9.404675e-003
9.404472e-003
9.404695e-003
9.405344e-003
9.406406e-003
9.407858e-003
9.409664e-003
9.411778e-003
9.414141e-003
9.416689e-003
9.419348e-003
9.422039e-003
9.424687e-003
9.427219e-003
9.429571e-003
9.431695e-003
9.433555e-003
9.435135e-003
9.436433e-003
9.437466e-003
9.438258e-003
9.438844e-003
9.439261e-003
9.439543e-003
9.439726e-003
9.439836e-003
9.439898e-003
9.439929e-003
9.439941e-003
9.439943e-003
9.439940e-003
9.439936e-003
9.439932e-003
9.439928e-003
9.439926e-003
9.439924e-003
9.439922e-003
9.439921e-003
9.439921e-003
9.439920e-003
9.439920e-003
9.439920e-003
9.439920e-003
9.439920e-003
9.439920e-003
9.439920e-003
9.439920e-003
9.439920e-003
9.439920e-003
9.439920e-003
9.439920e-003
9.439920e-003
9.439924e-003
9.439922e-003
9.439920e-003
9.439919e-003
9.439919e-003
9.439920e-003
9.439921e-003
9.439921e-003
9.439920e-003
9.439920e-003
9.439920e-003
9.439921e-003
9.439923e-003
9.439926e-003
9.439929e-003
9.439933e-003
9.439938e-003
9.439944e-003
9.439950e-003
9.439954e-003
9.439951e-003
9.439935e-003
9.439893e-003
9.439806e-003
9.439649e-003
9.439387e-003
9.438978e-003
9.438369e-003
9.437499e-003
9.436305e-003
9.434728e-003
9.432713e-003
9.430221e-003
9.427236e-003
9.423765e-003
9.419844e-003
9.415536e-003
9.410928e-003
9.406124e-003
9.401243e-003
9.396404e-003
9.391731e-003
9.387336e-003
9.383323e-003
9.379781e-003
9.376787e-003
9.374402e-003
9.372675e-003
9.371641e-003
9.371322e-003
9.371730e-003
9.372863e-003
9.374710e-003
9.377240e-003
9.380411e-003
9.384161e-003
9.388410e-003
9.393057e-003
9.397985e-003
9.403061e-003
9.408144e-003
9.413091e-003
9.417771e-003
9.422070e-003
9.425900e-003
9.429208e-003
9.431973e-003
9.434208e-003
9.435953e-003
9.437268e-003
9.438221e-003
9.438885e-003
9.439328e-003
9.439609e-003
9.439778e-003
9.439872e-003
9.439919e-003
9.439938e-003
9.439943e-003
9.439942e-003
9.439937e-003
9.439933e-003
9.439929e-003
9.439926e-003
9.439924e-003
9.439922e-003
9.439921e-003
9.439920e-003
9.439920e-003
9.439920e-003
9.439920e-003
9.439920e-003
9.439920e-003
9.439920e-003
9.439920e-003
9.439920e-003
9.439921e-003
9.439920e-003
9.439920e-003
9.439919e-003
9.439922e-003
9.439920e-003
9.439919e-003
9.439918e-003
9.439920e-003
9.439921e-003
9.439922e-003
9.439921e-003
9.439920e-003
9.439920e-003
9.439921e-003
9.439923e-003
9.439926e-003
9.439929e-003
9.439933e-003
9.439938e-003
9.439945e-003
9.439952e-003
9.439956e-003
9.439950e-003
9.439925e-003
9.439864e-003
9.439738e-003
9.439510e-003
9.439124e-003
9.438509e-003
9.437576e-003
9.436220e-003
9.434326e-003
9.431777e-003
9.428466e-003
9.424315e-003
9.419280e-003
9.413369e-003
9.406648e-003
9.399237e-003
9.391306e-003
9.383058e-003
9.374718e-003
9.366511e-003
9.358648e-003
9.351316e-003
9.344666e-003
9.338810e-003
9.333828e-003
9.329765e-003
9.326642e-003
9.324465e-003
9.323230e-003
9.322930e-003
9.323563e-003
9.325132e-003
9.327644e-003
9.331106e-003
9.335519e-003
9.340868e-003
9.347110e-003
9.354167e-003
9.361913e-003
9.370176e-003
9.378741e-003
9.387360e-003
9.395773e-003
9.403731e-003
9.411014e-003
9.417460e-003
9.422971e-003
9.427519e-003
9.431138e-003
9.433915e-003
9.435967e-003
9.437425e-003
9.438419e-003
9.439069e-003
9.439474e-003
9.439712e-003
9.439843e-003
9.439908e-003
9.439936e-003
9.439944e-003
9.439943e-003
9.439938e-003
9.439933e-003
9.439929e-003
9.439926e-003
9.439924e-003