# vtk DataFile Version 3.0
vtk output
ASCII
DATASET STRUCTURED_POINTS
DIMENSIONS 100 100 1
SPACING 1 1 1
ORIGIN 0 0 0
POINT_DATA 10000
SCALARS SFBox_profile double
LOOKUP_TABLE default 
9.439920e-003
9.439920e-003
9.439920e-003
9.439920e-003
9.439920e-003
9.439920e-003
9.439920e-003
9.439920e-003
9.439920e-003
9.439920e-003
9.439921e-003
9.439921e-003
9.439920e-003
9.439920e-003
9.439920e-003
9.439920e-003
9.439920e-003
9.439920e-003
9.439920e-003
9.439920e-003
9.439920e-003
9.439920e-003
9.439920e-003
9.439920e-003
9.439920e-003
9.439920e-003
9.439920e-003
9.439920e-003
9.439920e-003
9.439920e-003
9.439920e-003
9.439920e-003
9.439920e-003
9.439921e-003
9.439921e-003
9.439921e-003
9.439921e-003
9.439922e-003
9.439922e-003
9.439922e-003
9.439922e-003
9.439922e-003
9.439922e-003
9.439922e-003
9.439922e-003
9.439922e-003
9.439922e-003
9.439922e-003
9.439922e-003
9.439922e-003
9.439922e-003
9.439922e-003
9.439922e-003
9.439922e-003
9.439922e-003
9.439922e-003
9.439922e-003
9.439922e-003
9.439922e-003
9.439922e-003
9.439922e-003
9.439922e-003
9.439922e-003
9.439922e-003
9.439922e-003
9.439922e-003
9.439922e-003
9.439922e-003
9.439921e-003
9.439921e-003
9.439921e-003
9.439921e-003
9.439921e-003
9.439921e-003
9.439920e-003
9.439920e-003
9.439920e-003
9.439920e-003
9.439920e-003
9.439920e-003
9.439920e-003
9.439920e-003
9.439920e-003
9.439920e-003
9.439920e-003
9.439920e-003
9.439920e-003
9.439920e-003
9.439920e-003
9.439920e-003
9.439920e-003
9.439920e-003
9.439920e-003
9.439920e-003
9.439920e-003
9.439920e-003
9.439920e-003
9.439920e-003
9.439920e-003
9.439920e-003
9.439920e-003
9.439920e-003
9.439920e-003
9.439920e-003
9.439920e-003
9.439920e-003
9.439920e-003
9.439920e-003
9.439920e-003
9.439920e-003
9.439921e-003
9.439921e-003
9.439920e-003
9.439920e-003
9.439920e-003
9.439920e-003
9.439920e-003
9.439920e-003
9.439920e-003
9.439920e-003
9.439920e-003
9.439920e-003
9.439920e-003
9.439920e-003
9.439920e-003
9.439920e-003
9.439920e-003
9.439920e-003
9.439920e-003
9.439920e-003
9.439920e-003
9.439920e-003
9.439920e-003
9.439921e-003
9.439921e-003
9.439921e-003
9.439921e-003
9.439922e-003
9.439922e-003
9.439922e-003
9.439922e-003
9.439922e-003
9.439922e-003
9.439922e-003
9.439922e-003
9.439922e-003
9.439922e-003
9.439922e-003
9.439922e-003
9.439922e-003
9.439922e-003
9.439922e-003
9.439922e-003
9.439922e-003
9.439922e-003
9.439922e-003
9.439922e-003
9.439922e-003
9.439922e-003
9.439922e-003
9.439922e-003
9.439922e-003
9.439922e-003
9.439922e-003
9.439922e-003
9.439922e-003
9.439922e-003
9.439922e-003
9.439921e-003
9.439921e-003
9.439921e-003
9.439921e-003
9.439921e-003
9.439921e-003
9.439920e-003
9.439920e-003
9.439920e-003
9.439920e-003
9.439920e-003
9.439920e-003
9.439920e-003
9.439920e-003
9.439920e-003
9.439920e-003
9.439920e-003
9.439920e-003
9.439920e-003
9.439920e-003
9.439920e-003
9.439920e-003
9.439920e-003
9.439920e-003
9.439920e-003
9.439920e-003
9.439920e-003
9.439920e-003
9.439920e-003
9.439920e-003
9.439920e-003
9.439920e-003
9.439920e-003
9.439920e-003
9.439920e-003
9.439920e-003
9.439920e-003
9.439920e-003
9.439920e-003
9.439920e-003
9.439920e-003
9.439920e-003
9.439920e-003
9.439920e-003
9.439920e-003
9.439920e-003
9.439920e-003
9.439920e-003
9.439920e-003
9.439920e-003
9.439920e-003
9.439920e-003
9.439920e-003
9.439920e-003
9.439920e-003
9.439920e-003
9.439920e-003
9.439920e-003
9.439920e-003
9.439920e-003
9.439921e-003
9.439921e-003
9.439921e-003
9.439921e-003
9.439921e-003
9.439921e-003
9.439921e-003
9.439921e-003
9.439922e-003
9.439922e-003
9.439922e-003
9.439922e-003
9.439922e-003
9.439922e-003
9.439922e-003
9.439922e-003
9.439922e-003
9.439922e-003
9.439922e-003
9.439922e-003
9.439922e-003
9.439922e-003
9.439922e-003
9.439922e-003
9.439922e-003
9.439922e-003
9.439922e-003
9.439922e-003
9.439922e-003
9.439922e-003
9.439922e-003
9.439922e-003
9.439922e-003
9.439922e-003
9.439921e-003
9.439921e-003
9.439921e-003
9.439921e-003
9.439921e-003
9.439921e-003
9.439921e-003
9.439921e-003
9.439921e-003
9.439921e-003
9.439921e-003
9.439921e-003
9.439920e-003
9.439920e-003
9.439920e-003
9.439920e-003
9.439920e-003
9.439920e-003
9.439920e-003
9.439920e-003
9.439920e-003
9.439920e-003
9.439920e-003
9.439920e-003
9.439920e-003
9.439920e-003
9.439920e-003
9.439920e-003
9.439920e-003
9.439920e-003
9.439920e-003
9.439920e-003
9.439920e-003
9.439920e-003
9.439920e-003
9.439920e-003
9.439920e-003
9.439920e-003
9.439920e-003
9.439920e-003
9.439920e-003
9.439920e-003
9.439920e-003
9.439920e-003
9.439920e-003
9.439921e-003
9.439920e-003
9.439920e-003
9.439920e-003
9.439920e-003
9.439920e-003
9.439920e-003
9.439920e-003
9.439920e-003
9.439920e-003
9.439920e-003
9.439920e-003
9.439920e-003
9.439920e-003
9.439920e-003
9.439920e-003
9.439920e-003
9.439920e-003
9.439920e-003
9.439920e-003
9.439921e-003
9.439921e-003
9.439921e-003
9.439921e-003
9.439921e-003
9.439922e-003
9.439922e-003
9.439922e-003
9.439922e-003
9.439922e-003
9.439922e-003
9.439923e-003
9.439923e-003
9.439923e-003
9.439923e-003
9.439923e-003
9.439924e-003
9.439924e-003
9.439924e-003
9.439925e-003
9.439925e-003
9.439925e-003
9.439925e-003
9.439925e-003
9.439925e-003
9.439925e-003
9.439925e-003
9.439925e-003
9.439925e-003
9.439924e-003
9.439924e-003
9.439924e-003
9.439923e-003
9.439923e-003
9.439922e-003
9.439922e-003
9.439922e-003
9.439921e-003
9.439921e-003
9.439921e-003
9.439921e-003
9.439921e-003
9.439920e-003
9.439920e-003
9.439920e-003
9.439920e-003
9.439920e-003
9.439920e-003
9.439920e-003
9.439920e-003
9.439920e-003
9.439920e-003
9.439920e-003
9.439920e-003
9.439920e-003
9.439920e-003
9.439920e-003
9.439920e-003
9.439920e-003
9.439920e-003
9.439920e-003
9.439920e-003
9.439920e-003
9.439920e-003
9.439920e-003
9.439920e-003
9.439920e-003
9.439920e-003
9.439920e-003
9.439920e-003
9.439920e-003
9.439920e-003
9.439920e-003
9.439920e-003
9.439920e-003
9.439920e-003
9.439920e-003
9.439920e-003
9.439920e-003
9.439920e-003
9.439921e-003
9.439920e-003
9.439920e-003
9.439920e-003
9.439919e-003
9.439920e-003
9.439920e-003
9.439920e-003
9.439920e-003
9.439920e-003
9.439920e-003
9.439920e-003
9.439920e-003
9.439920e-003
9.439920e-003
9.439920e-003
9.439920e-003
9.439920e-003
9.439921e-003
9.439921e-003
9.439921e-003
9.439921e-003
9.439921e-003
9.439922e-003
9.439922e-003
9.439923e-003
9.439923e-003
9.439923e-003
9.439924e-003
9.439924e-003
9.439925e-003
9.439925e-003
9.439926e-003
9.439927e-003
9.439927e-003
9.439928e-003
9.439929e-003
9.439929e-003
9.439930e-003
9.439930e-003
9.439931e-003
9.439931e-003
9.439931e-003
9.439931e-003
9.439932e-003
9.439931e-003
9.439931e-003
9.439931e-003
9.439931e-003
9.439930e-003
9.439930e-003
9.439929e-003
9.439928e-003
9.439927e-003
9.439926e-003
9.439926e-003
9.439925e-003
9.439924e-003
9.439923e-003
9.439922e-003
9.439922e-003
9.439921e-003
9.439921e-003
9.439920e-003
9.439920e-003
9.439920e-003
9.439920e-003
9.439920e-003
9.439920e-003
9.439920e-003
9.439920e-003
9.439921e-003
9.439921e-003
9.439921e-003
9.439921e-003
9.439920e-003
9.439920e-003
9.439920e-003
9.439920e-003
9.439920e-003
9.439920e-003
9.439920e-003
9.439920e-003
9.439920e-003
9.439920e-003
9.439920e-003
9.439920e-003
9.439920e-003
9.439920e-003
9.439920e-003
9.439920e-003
9.439920e-003
9.439920e-003
9.439920e-003
9.439920e-003
9.439920e-003
9.439920e-003
9.439920e-003
9.439920e-003
9.439920e-003
9.439920e-003
9.439920e-003
9.439920e-003
9.439920e-003
9.439920e-003
9.439920e-003
9.439920e-003
9.439920e-003
9.439920e-003
9.439920e-003
9.439920e-003
9.439920e-003
9.439920e-003
9.439921e-003
9.439921e-003
9.439921e-003
9.439921e-003
9.439921e-003
9.439922e-003
9.439922e-003
9.439922e-003
9.439922e-003
9.439923e-003
9.439924e-003
9.439924e-003
9.439925e-003
9.439926e-003
9.439927e-003
9.439928e-003
9.439929e-003
9.439930e-003
9.439931e-003
9.439932e-003
9.439933e-003
9.439934e-003
9.439935e-003
9.439936e-003
9.439937e-003
9.439938e-003
9.439938e-003
9.439939e-003
9.439939e-003
9.439940e-003
9.439940e-003
9.439940e-003
9.439940e-003
9.439939e-003
9.439939e-003
9.439939e-003
9.439938e-003
9.439937e-003
9.439936e-003
9.439935e-003
9.439934e-003
9.439933e-003
9.439932e-003
9.439931e-003
9.439929e-003
9.439928e-003
9.439927e-003
9.439925e-003
9.439924e-003
9.439923e-003
9.439922e-003
9.439921e-003
9.439921e-003
9.439921e-003
9.439921e-003
9.439921e-003
9.439921e-003
9.439921e-003
9.439921e-003
9.439921e-003
9.439921e-003
9.439921e-003
9.439920e-003
9.439920e-003
9.439920e-003
9.439920e-003
9.439920e-003
9.439920e-003
9.439920e-003
9.439920e-003
9.439920e-003
9.439920e-003
9.439920e-003
9.439920e-003
9.439920e-003
9.439920e-003
9.439920e-003
9.439920e-003
9.439920e-003
9.439920e-003
9.439919e-003
9.439920e-003
9.439920e-003
9.439921e-003
9.439920e-003
9.439920e-003
9.439920e-003
9.439919e-003
9.439920e-003
9.439920e-003
9.439920e-003
9.439920e-003
9.439920e-003
9.439920e-003
9.439920e-003
9.439920e-003
9.439920e-003
9.439920e-003
9.439920e-003
9.439920e-003
9.439921e-003
9.439921e-003
9.439921e-003
9.439922e-003
9.439922e-003
9.439923e-003
9.439923e-003
9.439924e-003
9.439925e-003
9.439926e-003
9.439928e-003
9.439929e-003
9.439931e-003
9.439932e-003
9.439934e-003
9.439935e-003
9.439937e-003
9.439938e-003
9.439940e-003
9.439941e-003
9.439942e-003
9.439943e-003
9.439944e-003
9.439944e-003
9.439945e-003
9.439945e-003
9.439946e-003
9.439946e-003
9.439946e-003
9.439946e-003
9.439946e-003
9.439946e-003
9.439946e-003
9.439946e-003
9.439945e-003
9.439945e-003
9.439944e-003
9.439944e-003
9.439943e-003
9.439943e-003
9.439942e-003
9.439941e-003
9.439939e-003
9.439938e-003
9.439937e-003
9.439935e-003
9.439934e-003
9.439932e-003
9.439930e-003
9.439929e-003
9.439927e-003
9.439925e-003
9.439924e-003
9.439923e-003
9.439922e-003
9.439922e-003
9.439921e-003
9.439921e-003
9.439921e-003
9.439921e-003
9.439921e-003
9.439920e-003
9.439920e-003
9.439920e-003
9.439920e-003
9.439920e-003
9.439920e-003
9.439920e-003
9.439920e-003
9.439920e-003
9.439920e-003
9.439920e-003
9.439920e-003
9.439920e-003
9.439920e-003
9.439920e-003
9.439920e-003
9.439920e-003
9.439920e-003
9.439920e-003
9.439919e-003
9.439920e-003
9.439920e-003
9.439921e-003
9.439920e-003
9.439920e-003
9.439920e-003
9.439919e-003
9.439920e-003
9.439920e-003
9.439920e-003
9.439920e-003
9.439920e-003
9.439920e-003
9.439920e-003
9.439920e-003
9.439920e-003
9.439920e-003
9.439920e-003
9.439921e-003
9.439921e-003
9.439921e-003
9.439922e-003
9.439923e-003
9.439924e-003
9.439925e-003
9.439927e-003
9.439928e-003
9.439930e-003
9.439932e-003
9.439935e-003
9.439937e-003
9.439939e-003
9.439941e-003
9.439942e-003
9.439944e-003
9.439945e-003
9.439946e-003
9.439947e-003
9.439947e-003
9.439947e-003
9.439948e-003
9.439947e-003
9.439947e-003
9.439946e-003
9.439946e-003
9.439945e-003
9.439944e-003
9.439944e-003
9.439943e-003
9.439943e-003
9.439942e-003
9.439942e-003
9.439942e-003
9.439942e-003
9.439942e-003
9.439942e-003
9.439943e-003
9.439943e-003
9.439944e-003
9.439944e-003
9.439944e-003
9.439944e-003
9.439944e-003
9.439943e-003
9.439942e-003
9.439941e-003
9.439939e-003
9.439938e-003
9.439936e-003
9.439934e-003
9.439931e-003
9.439929e-003
9.439927e-003
9.439925e-003
9.439924e-003
9.439922e-003
9.439921e-003
9.439921e-003
9.439920e-003
9.439920e-003
9.439920e-003
9.439920e-003
9.439920e-003
9.439920e-003
9.439920e-003
9.439920e-003
9.439920e-003
9.439920e-003
9.439920e-003
9.439920e-003
9.439920e-003
9.439920e-003
9.439920e-003
9.439920e-003
9.439920e-003
9.439920e-003
9.439920e-003
9.439920e-003
9.439920e-003
9.439920e-003
9.439920e-003
9.439920e-003
9.439920e-003
9.439920e-003
9.439920e-003
9.439920e-003
9.439920e-003
9.439920e-003
9.439920e-003
9.439920e-003
9.439920e-003
9.439920e-003
9.439920e-003
9.439920e-003
9.439921e-003
9.439921e-003
9.439921e-003
9.439921e-003
9.439921e-003
9.439922e-003
9.439923e-003
9.439924e-003
9.439925e-003
9.439927e-003
9.439929e-003
9.439932e-003
9.439934e-003
9.439937e-003
9.439940e-003
9.439942e-003
9.439944e-003
9.439946e-003
9.439947e-003
9.439947e-003
9.439947e-003
9.439946e-003
9.439944e-003
9.439942e-003
9.439939e-003
9.439935e-003
9.439932e-003
9.439928e-003
9.439923e-003
9.439919e-003
9.439915e-003
9.439911e-003
9.439908e-003
9.439905e-003
9.439903e-003
9.439901e-003
9.439900e-003
9.439900e-003
9.439901e-003
9.439903e-003
9.439905e-003
9.439908e-003
9.439912e-003
9.439916e-003
9.439921e-003
9.439925e-003
9.439930e-003
9.439934e-003
9.439938e-003
9.439940e-003
9.439942e-003
9.439943e-003
9.439944e-003
9.439943e-003
9.439942e-003
9.439940e-003
9.439938e-003
9.439935e-003
9.439932e-003
9.439930e-003
9.439927e-003
9.439925e-003
9.439923e-003
9.439922e-003
9.439921e-003
9.439920e-003
9.439920e-003
9.439920e-003
9.439921e-003
9.439921e-003
9.439920e-003
9.439920e-003
9.439920e-003
9.439920e-003
9.439920e-003
9.439920e-003
9.439920e-003
9.439920e-003
9.439920e-003
9.439920e-003
9.439920e-003
9.439920e-003
9.439920e-003
9.439920e-003
9.439920e-003
9.439921e-003
9.439920e-003
9.439920e-003
9.439919e-003
9.439919e-003
9.439920e-003
9.439920e-003
9.439920e-003
9.439920e-003
9.439920e-003
9.439920e-003
9.439920e-003
9.439920e-003
9.439920e-003
9.439920e-003
9.439921e-003
9.439921e-003
9.439922e-003
9.439922e-003
9.439923e-003
9.439924e-003
9.439926e-003
9.439928e-003
9.439931e-003
9.439933e-003
9.439936e-003
9.439939e-003
9.439942e-003
9.439944e-003
9.439946e-003
9.439947e-003
9.439946e-003
9.439944e-003
9.439940e-003
9.439934e-003
9.439926e-003
9.439916e-003
9.439905e-003
9.439892e-003
9.439878e-003
9.439863e-003
9.439847e-003
9.439832e-003
9.439816e-003
9.439801e-003
9.439787e-003
9.439774e-003
9.439763e-003
9.439754e-003
9.439747e-003
9.439742e-003
9.439741e-003
9.439741e-003
9.439745e-003
9.439751e-003
9.439761e-003
9.439773e-003
9.439787e-003
9.439803e-003
9.439820e-003
9.439838e-003
9.439856e-003
9.439873e-003
9.439889e-003
9.439904e-003
9.439916e-003
9.439926e-003
9.439934e-003
9.439939e-003
9.439941e-003
9.439942e-003
9.439942e-003
9.439940e-003
9.439938e-003
9.439935e-003
9.439933e-003
9.439930e-003
9.439927e-003
9.439925e-003
9.439923e-003
9.439922e-003
9.439921e-003
9.439921e-003
9.439921e-003
9.439921e-003
9.439920e-003
9.439920e-003
9.439920e-003
9.439920e-003
9.439920e-003
9.439920e-003
9.439920e-003
9.439920e-003
9.439920e-003
9.439920e-003
9.439920e-003
9.439920e-003
9.439920e-003
9.439920e-003
9.439920e-003
9.439921e-003
9.439921e-003
9.439920e-003
9.439919e-003
9.439919e-003
9.439920e-003
9.439920e-003
9.439920e-003
9.439920e-003
9.439920e-003
9.439920e-003
9.439920e-003
9.439920e-003
9.439920e-003
9.439920e-003
9.439921e-003
9.439922e-003
9.439922e-003
9.439924e-003
9.439926e-003
9.439928e-003
9.439931e-003
9.439934e-003
9.439938e-003
9.439941e-003
9.439944e-003
9.439947e-003
9.439948e-003
9.439946e-003
9.439942e-003
9.439935e-003
9.439924e-003
9.439908e-003
9.439888e-003
9.439862e-003
9.439831e-003
9.439795e-003
9.439755e-003
9.439712e-003
9.439667e-003
9.439619e-003
9.439571e-003
9.439524e-003
9.439478e-003
9.439434e-003
9.439394e-003
9.439358e-003
9.439327e-003
9.439301e-003
9.439282e-003
9.439270e-003
9.439266e-003
9.439269e-003
9.439281e-003
9.439300e-003
9.439328e-003
9.439363e-003
9.439404e-003
9.439452e-003
9.439503e-003
9.439558e-003
9.439613e-003
9.439668e-003
9.439720e-003
9.439768e-003
9.439811e-003
9.439848e-003
9.439878e-003
9.439902e-003
9.439919e-003
9.439931e-003
9.439938e-003
9.439941e-003
9.439942e-003
9.439941e-003
9.439939e-003
9.439936e-003
9.439933e-003
9.439930e-003
9.439927e-003
9.439925e-003
9.439923e-003
9.439922e-003
9.439921e-003
9.439921e-003
9.439920e-003
9.439920e-003
9.439920e-003
9.439920e-003
9.439920e-003
9.439920e-003
9.439920e-003
9.439920e-003
9.439920e-003
9.439920e-003
9.439920e-003
9.439920e-003
9.439920e-003
9.439920e-003
9.439920e-003
9.439921e-003
9.439920e-003
9.439920e-003
9.439919e-003
9.439919e-003
9.439920e-003
9.439920e-003
9.439920e-003
9.439920e-003
9.439920e-003
9.439920e-003
9.439921e-003
9.439921e-003
9.439921e-003
9.439921e-003
9.439922e-003
9.439923e-003
9.439925e-003
9.439927e-003
9.439930e-003
9.439934e-003
9.439938e-003
9.439942e-003
9.439946e-003
9.439948e-003
9.439948e-003
9.439946e-003
9.439938e-003
9.439924e-003
9.439902e-003
9.439870e-003
9.439827e-003
9.439772e-003
9.439705e-003
9.439624e-003
9.439532e-003
9.439428e-003
9.439315e-003
9.439195e-003
9.439070e-003
9.438942e-003
9.438814e-003
9.438689e-003
9.438569e-003
9.438456e-003
9.438353e-003
9.438261e-003
9.438183e-003
9.438119e-003
9.438072e-003
9.438043e-003
9.438033e-003
9.438043e-003
9.438073e-003
9.438124e-003
9.438196e-003
9.438287e-003
9.438395e-003
9.438519e-003
9.438654e-003
9.438798e-003
9.438947e-003
9.439094e-003
9.439238e-003
9.439372e-003
9.439495e-003
9.439603e-003
9.439695e-003
9.439770e-003
9.439829e-003
9.439873e-003
9.439904e-003
9.439924e-003
9.439936e-003
9.439941e-003
9.439943e-003
9.439941e-003
9.439939e-003
9.439935e-003
9.439932e-003
9.439929e-003
9.439926e-003
9.439924e-003
9.439922e-003
9.439921e-003
9.439921e-003
9.439920e-003
9.439920e-003
9.439920e-003
9.439920e-003
9.439920e-003
9.439920e-003
9.439920e-003
9.439920e-003
9.439920e-003
9.439920e-003
9.439920e-003
9.439920e-003
9.439920e-003
9.439920e-003
9.439920e-003
9.439920e-003
9.439920e-003
9.439920e-003
9.439920e-003
9.439920e-003
9.439920e-003
9.439920e-003
9.439920e-003
9.439920e-003
9.439920e-003
9.439921e-003
9.439921e-003
9.439922e-003
9.439922e-003
9.439924e-003
9.439926e-003
9.439929e-003
9.439933e-003
9.439937e-003
9.439941e-003
9.439945e-003
9.439949e-003
9.439949e-003
9.439945e-003
9.439934e-003
9.439913e-003
9.439879e-003
9.439827e-003
9.439753e-003
9.439655e-003
9.439529e-003
9.439374e-003
9.439189e-003
9.438974e-003
9.438731e-003
9.438465e-003
9.438179e-003
9.437878e-003
9.437568e-003
9.437255e-003
9.436944e-003
9.436643e-003
9.436356e-003
9.436088e-003
9.435843e-003
9.435627e-003
9.435444e-003
9.435296e-003
9.435187e-003
9.435120e-003
9.435099e-003
9.435124e-003
9.435197e-003
9.435319e-003
9.435489e-003
9.435706e-003
9.435964e-003
9.436260e-003
9.436586e-003
9.436935e-003
9.437296e-003
9.437660e-003
9.438016e-003
9.438354e-003
9.438667e-003
9.438947e-003
9.439190e-003
9.439394e-003
9.439558e-003
9.439686e-003
9.439782e-003
9.439849e-003
9.439894e-003
9.439921e-003
9.439936e-003
9.439942e-003
9.439943e-003
9.439941e-003
9.439937e-003
9.439934e-003
9.439930e-003
9.439927e-003
9.439925e-003
9.439923e-003
9.439922e-003
9.439921e-003
9.439921e-003
9.439921e-003
9.439920e-003
9.439920e-003
9.439920e-003
9.439920e-003
9.439920e-003
9.439920e-003
9.439920e-003
9.439920e-003
9.439920e-003
9.439920e-003
9.439920e-003
9.439919e-003
9.439920e-003
9.439920e-003
9.439921e-003
9.439920e-003
9.439920e-003
9.439920e-003
9.439920e-003
9.439921e-003
9.439920e-003
9.439920e-003
9.439921e-003
9.439921e-003
9.439923e-003
9.439925e-003
9.439927e-003
9.439931e-003
9.439935e-003
9.439940e-003
9.439945e-003
9.439949e-003
9.439950e-003
9.439947e-003
9.439935e-003
9.439909e-003
9.439864e-003
9.439792e-003
9.439685e-003
9.439534e-003
9.439332e-003
9.439071e-003
9.438745e-003
9.438353e-003
9.437894e-003
9.437371e-003
9.436790e-003
9.436158e-003
9.435487e-003
9.434789e-003
9.434077e-003
9.433364e-003
9.432663e-003
9.431987e-003
9.431346e-003
9.430751e-003
9.430212e-003
9.429738e-003
9.429337e-003
9.429015e-003
9.428780e-003
9.428637e-003
9.428593e-003
9.428650e-003
9.428814e-003
9.429084e-003
9.429461e-003
9.429940e-003
9.430514e-003
9.431174e-003
9.431904e-003
9.432689e-003
9.433509e-003
9.434340e-003
9.435161e-003
9.435949e-003
9.436685e-003
9.437353e-003
9.437941e-003
9.438442e-003
9.438856e-003
9.439185e-003
9.439438e-003
9.439623e-003
9.439753e-003
9.439840e-003
9.439893e-003
9.439923e-003
9.439938e-003
9.439943e-003
9.439942e-003
9.439939e-003
9.439935e-003
9.439932e-003
9.439928e-003
9.439925e-003
9.439923e-003
9.439922e-003
9.439921e-003
9.439921e-003
9.439920e-003
9.439920e-003
9.439920e-003
9.439920e-003
9.439920e-003
9.439920e-003
9.439920e-003
9.439920e-003
9.439920e-003
9.439920e-003
9.439920e-003
9.439919e-003
9.439919e-003
9.439920e-003
9.439921e-003
9.439921e-003
9.439920e-003
9.439920e-003
9.439920e-003
9.439921e-003
9.439921e-003
9.439921e-003
9.439921e-003
9.439923e-003
9.439925e-003
9.439928e-003
9.439932e-003
9.439937e-003
9.439943e-003
9.439948e-003
9.439952e-003
9.439950e-003
9.439940e-003
9.439915e-003
9.439866e-003
9.439782e-003
9.439648e-003
9.439448e-003
9.439166e-003
9.438782e-003
9.438281e-003
9.437649e-003
9.436877e-003
9.435962e-003
9.434906e-003
9.433719e-003
9.432416e-003
9.431017e-003
9.429548e-003
9.428034e-003
9.426504e-003
9.424986e-003
9.423505e-003
9.422087e-003
9.420753e-003
9.419523e-003
9.418415e-003
9.417446e-003
9.416629e-003
9.415978e-003
9.415505e-003
9.415221e-003
9.415137e-003
9.415261e-003
9.415600e-003
9.416157e-003
9.416931e-003
9.417918e-003
9.419105e-003
9.420475e-003
9.422000e-003
9.423650e-003
9.425385e-003
9.427161e-003
9.428930e-003
9.430648e-003
9.432270e-003
9.433759e-003
9.435087e-003
9.436235e-003
9.437196e-003
9.437976e-003
9.438585e-003
9.439044e-003
9.439377e-003
9.439606e-003
9.439757e-003
9.439851e-003
9.439904e-003
9.439930e-003
9.439941e-003
9.439943e-003
9.439941e-003
9.439937e-003
9.439933e-003
9.439929e-003
9.439926e-003
9.439923e-003
9.439922e-003
9.439921e-003
9.439920e-003
9.439920e-003
9.439920e-003
9.439920e-003
9.439920e-003
9.439920e-003
9.439920e-003
9.439920e-003
9.439920e-003
9.439920e-003
9.439920e-003
9.439919e-003
9.439919e-003
9.439920e-003
9.439921e-003
9.439921e-003
9.439920e-003
9.439920e-003
9.439920e-003
9.439921e-003
9.439921e-003
9.439922e-003
9.439923e-003
9.439926e-003
9.439929e-003
9.439934e-003
9.439939e-003
9.439945e-003
9.439950e-003
9.439953e-003
9.439948e-003
9.439929e-003
9.439885e-003
9.439802e-003
9.439659e-003
9.439432e-003
9.439090e-003
9.438598e-003
9.437921e-003
9.437023e-003
9.435874e-003
9.434449e-003
9.432735e-003
9.430734e-003
9.428458e-003
9.425933e-003
9.423200e-003
9.420304e-003
9.417301e-003
9.414245e-003
9.411194e-003
9.408200e-003
9.405311e-003
9.402573e-003
9.400022e-003
9.397692e-003
9.395611e-003
9.393804e-003
9.392294e-003
9.391099e-003
9.390240e-003
9.389733e-003
9.389596e-003
9.389842e-003
9.390486e-003
9.391533e-003
9.392988e-003
9.394844e-003
9.397086e-003
9.399689e-003
9.402611e-003
9.405801e-003
9.409190e-003
9.412700e-003
9.416243e-003
9.419727e-003
9.423063e-003
9.426170e-003
9.428980e-003
9.431446e-003
9.433543e-003
9.435269e-003
9.436642e-003
9.437695e-003
9.438473e-003
9.439026e-003
9.439402e-003
9.439645e-003
9.439793e-003
9.439877e-003
9.439920e-003
9.439939e-003
9.439943e-003
9.439942e-003
9.439938e-003
9.439933e-003
9.439929e-003
9.439926e-003
9.439923e-003
9.439922e-003
9.439921e-003
9.439921e-003
9.439921e-003
9.439920e-003
9.439920e-003
9.439920e-003
9.439920e-003
9.439920e-003
9.439920e-003
9.439920e-003
9.439920e-003
9.439919e-003
9.439919e-003
9.439920e-003
9.439921e-003
9.439921e-003
9.439921e-003
9.439920e-003
9.439920e-003
9.439920e-003
9.439922e-003
9.439924e-003
9.439926e-003
9.439930e-003
9.439935e-003
9.439941e-003
9.439947e-003
9.439952e-003
9.439953e-003
9.439943e-003
9.439912e-003
9.439845e-003
9.439717e-003
9.439495e-003
9.439137e-003
9.438590e-003
9.437790e-003
9.436669e-003
9.435158e-003
9.433190e-003
9.430713e-003
9.427694e-003
9.424125e-003
9.420026e-003
9.415444e-003
9.410453e-003
9.405148e-003
9.399633e-003
9.394020e-003
9.388418e-003
9.382930e-003
9.377644e-003
9.372639e-003
9.367977e-003
9.363708e-003
9.359872e-003
9.356501e-003
9.353619e-003
9.351247e-003
9.349404e-003
9.348107e-003
9.347374e-003
9.347223e-003
9.347673e-003
9.348742e-003
9.350447e-003
9.352802e-003
9.355811e-003
9.359471e-003
9.363763e-003
9.368649e-003
9.374070e-003
9.379938e-003
9.386140e-003
9.392535e-003
9.398963e-003
9.405253e-003
9.411237e-003
9.416762e-003
9.421708e-003
9.425995e-003
9.429587e-003
9.432494e-003
9.434764e-003
9.436472e-003
9.437709e-003
9.438569e-003
9.439142e-003
9.439505e-003
9.439723e-003
9.439845e-003
9.439907e-003
9.439935e-003
9.439943e-003
9.439942e-003
9.439938e-003
9.439934e-003
9.439930e-003
9.439926e-003
9.439924e-003
9.439922e-003
9.439921e-003
9.439921e-003
9.439920e-003
9.439920e-003
9.439920e-003
9.439920e-003
9.439920e-003
9.439920e-003
9.439920e-003
9.439920e-003
9.439919e-003
9.439919e-003
9.439920e-003
9.439921e-003
9.439921e-003
9.439921e-003
9.439921e-003
9.439920e-003
9.439921e-003
9.439923e-003
9.439926e-003
9.439931e-003
9.439936e-003
9.439942e-003
9.439949e-003
9.439954e-003
9.439953e-003
9.439938e-003
9.439894e-003
9.439798e-003
9.439616e-003
9.439295e-003
9.438769e-003
9.437948e-003
9.436726e-003
9.434979e-003
9.432580e-003
9.429402e-003
9.425342e-003
9.420331e-003
9.414347e-003
9.407430e-003
9.399680e-003
9.391249e-003
9.382334e-003
9.373156e-003
9.363939e-003
9.354898e-003
9.346220e-003
9.338057e-003
9.330524e-003
9.323696e-003
9.317615e-003
9.312298e-003
9.307740e-003
9.303925e-003
9.300827e-003
9.298418e-003
9.296670e-003
9.295559e-003
9.295064e-003
9.295175e-003
9.295893e-003
9.297230e-003
9.299213e-003
9.301886e-003
9.305302e-003
9.309527e-003
9.314625e-003
9.320652e-003
9.327638e-003
9.335570e-003
9.344377e-003
9.353918e-003
9.363976e-003
9.374271e-003
9.384480e-003
9.394271e-003
9.403336e-003
9.411433e-003
9.418399e-003
9.424172e-003
9.428776e-003
9.432309e-003
9.434916e-003
9.436765e-003
9.438022e-003
9.438840e-003
9.439349e-003
9.439647e-003
9.439812e-003
9.439895e-003
9.439931e-003
9.439943e-003
9.439943e-003
9.439939e-003
9.439934e-003
9.439930e-003
9.439926e-003
9.439924e-003
9.439922e-003
9.439921e-003
9.439920e-003
9.439920e-003
9.439920e-003
9.439920e-003
9.439920e-003
9.439920e-003
9.439920e-003
9.439920e-003
9.439919e-003
9.439919e-003
9.439920e-003
9.439921e-003
9.439922e-003
9.439922e-003
9.439921e-003
9.439921e-003
9.439922e-003
9.439926e-003
9.439931e-003
9.439936e-003
9.439943e-003
9.439950e-003
9.439955e-003
9.439953e-003
9.439933e-003
9.439876e-003
9.439751e-003
9.439509e-003
9.439076e-003
9.438349e-003
9.437191e-003
9.435430e-003
9.432862e-003
9.429265e-003
9.424419e-003
9.418137e-003
9.410300e-003
9.400890e-003
9.390014e-003
9.377919e-003
9.364970e-003
9.351630e-003
9.338405e-003
9.325796e-003
9.314248e-003
9.304116e-003
9.295637e-003
9.288929e-003
9.283993e-003
9.280734e-003
9.278985e-003
9.278530e-003
9.279127e-003
9.280525e-003
9.282474e-003
9.284734e-003
9.287076e-003
9.289291e-003
9.291194e-003
9.292632e-003
9.293495e-003
9.293731e-003
9.293363e-003
9.292497e-003
9.291341e-003
9.290202e-003
9.289478e-003
9.289635e-003
9.291163e-003
9.294513e-003
9.300030e-003
9.307883e-003
9.318011e-003
9.330108e-003
9.343643e-003
9.357925e-003
9.372201e-003
9.385756e-003
9.398012e-003
9.408582e-003
9.417290e-003
9.424156e-003
9.429339e-003
9.433091e-003
9.435694e-003
9.437425e-003
9.438526e-003
9.439193e-003
9.439576e-003
9.439783e-003
9.439884e-003
9.439928e-003
9.439943e-003
9.439943e-003
9.439939e-003
9.439934e-003
9.439929e-003
9.439926e-003
9.439923e-003
9.439921e-003
9.439921e-003
9.439921e-003
9.439921e-003
9.439920e-003
9.439920e-003
9.439920e-003
9.439920e-003
9.439920e-003
9.439920e-003
9.439920e-003
9.439920e-003
9.439921e-003
9.439921e-003
9.439921e-003
9.439921e-003
9.439922e-003
9.439925e-003
9.439930e-003
9.439936e-003
9.439943e-003
9.439950e-003
9.439955e-003
9.439953e-003
9.439929e-003
9.439862e-003
9.439710e-003
9.439410e-003
9.438860e-003
9.437916e-003
9.436378e-003
9.433982e-003
9.430413e-003
9.425313e-003
9.418324e-003
9.409145e-003
9.397609e-003
9.383766e-003
9.367954e-003
9.350830e-003
9.333358e-003
9.316725e-003
9.302225e-003
9.291100e-003
9.284404e-003
9.282887e-003
9.286926e-003
9.296512e-003
9.311276e-003
9.330555e-003
9.353467e-003
9.379004e-003
9.406103e-003
9.433706e-003
9.460795e-003
9.486412e-003
9.509659e-003
9.529694e-003
9.545737e-003
9.557076e-003
9.563087e-003
9.563274e-003
9.557315e-003
9.545127e-003
9.526922e-003
9.503277e-003
9.475170e-003
9.443992e-003
9.411510e-003
9.379763e-003
9.350890e-003
9.326906e-003
9.309447e-003
9.299539e-003
9.297440e-003
9.302597e-003
9.313748e-003
9.329134e-003
9.346801e-003
9.364898e-003
9.381925e-003
9.396864e-003
9.409201e-003
9.418850e-003
9.426032e-003
9.431131e-003
9.434593e-003
9.436840e-003
9.438235e-003
9.439059e-003
9.439520e-003
9.439762e-003
9.439878e-003
9.439927e-003
9.439942e-003