# vtk DataFile Version 3.0
vtk output
ASCII
DATASET STRUCTURED_POINTS
DIMENSIONS 100 100 1
SPACING 1 1 1
ORIGIN 0 0 0
POINT_DATA 10000
SCALARS SFBox_profile double
LOOKUP_TABLE default 
9.439920e-003
9.439920e-003
9.439920e-003
9.439920e-003
9.439920e-003
9.439920e-003
9.439920e-003
9.439920e-003
9.439920e-003
9.439920e-003
9.439920e-003
9.439920e-003
9.439920e-003
9.439920e-003
9.439920e-003
9.439920e-003
9.439920e-003
9.439920e-003
9.439920e-003
9.439920e-003
9.439920e-003
9.439920e-003
9.439920e-003
9.439920e-003
9.439920e-003
9.439920e-003
9.439920e-003
9.439920e-003
9.439920e-003
9.439920e-003
9.439920e-003
9.439920e-003
9.439920e-003
9.439920e-003
9.439920e-003
9.439920e-003
9.439920e-003
9.439920e-003
9.439921e-003
9.439921e-003
9.439921e-003
9.439921e-003
9.439921e-003
9.439921e-003
9.439921e-003
9.439921e-003
9.439921e-003
9.439921e-003
9.439921e-003
9.439921e-003
9.439921e-003
9.439921e-003
9.439921e-003
9.439921e-003
9.439921e-003
9.439921e-003
9.439921e-003
9.439921e-003
9.439921e-003
9.439921e-003
9.439921e-003
9.439921e-003
9.439921e-003
9.439921e-003
9.439920e-003
9.439920e-003
9.439920e-003
9.439920e-003
9.439920e-003
9.439920e-003
9.439920e-003
9.439920e-003
9.439920e-003
9.439920e-003
9.439920e-003
9.439920e-003
9.439920e-003
9.439920e-003
9.439920e-003
9.439920e-003
9.439920e-003
9.439920e-003
9.439920e-003
9.439920e-003
9.439920e-003
9.439920e-003
9.439920e-003
9.439920e-003
9.439920e-003
9.439920e-003
9.439920e-003
9.439920e-003
9.439920e-003
9.439920e-003
9.439920e-003
9.439920e-003
9.439920e-003
9.439920e-003
9.439920e-003
9.439920e-003
9.439920e-003
9.439920e-003
9.439920e-003
9.439920e-003
9.439920e-003
9.439920e-003
9.439920e-003
9.439920e-003
9.439920e-003
9.439920e-003
9.439920e-003
9.439920e-003
9.439920e-003
9.439920e-003
9.439920e-003
9.439920e-003
9.439920e-003
9.439920e-003
9.439920e-003
9.439920e-003
9.439920e-003
9.439920e-003
9.439920e-003
9.439920e-003
9.439920e-003
9.439920e-003
9.439920e-003
9.439920e-003
9.439920e-003
9.439920e-003
9.439920e-003
9.439920e-003
9.439920e-003
9.439920e-003
9.439920e-003
9.439920e-003
9.439920e-003
9.439920e-003
9.439921e-003
9.439921e-003
9.439921e-003
9.439921e-003
9.439921e-003
9.439921e-003
9.439921e-003
9.439921e-003
9.439921e-003
9.439921e-003
9.439921e-003
9.439921e-003
9.439921e-003
9.439921e-003
9.439921e-003
9.439921e-003
9.439921e-003
9.439921e-003
9.439921e-003
9.439921e-003
9.439921e-003
9.439921e-003
9.439921e-003
9.439921e-003
9.439921e-003
9.439921e-003
9.439920e-003
9.439920e-003
9.439920e-003
9.439920e-003
9.439920e-003
9.439920e-003
9.439920e-003
9.439920e-003
9.439920e-003
9.439920e-003
9.439920e-003
9.439920e-003
9.439920e-003
9.439920e-003
9.439920e-003
9.439920e-003
9.439920e-003
9.439920e-003
9.439920e-003
9.439920e-003
9.439920e-003
9.439920e-003
9.439920e-003
9.439920e-003
9.439920e-003
9.439920e-003
9.439920e-003
9.439920e-003
9.439920e-003
9.439920e-003
9.439920e-003
9.439920e-003
9.439920e-003
9.439920e-003
9.439920e-003
9.439920e-003
9.439920e-003
9.439920e-003
9.439920e-003
9.439920e-003
9.439920e-003
9.439920e-003
9.439920e-003
9.439920e-003
9.439920e-003
9.439920e-003
9.439920e-003
9.439920e-003
9.439920e-003
9.439920e-003
9.439920e-003
9.439920e-003
9.439920e-003
9.439920e-003
9.439920e-003
9.439920e-003
9.439920e-003
9.439920e-003
9.439920e-003
9.439920e-003
9.439920e-003
9.439920e-003
9.439920e-003
9.439920e-003
9.439920e-003
9.439920e-003
9.439920e-003
9.439920e-003
9.439920e-003
9.439920e-003
9.439921e-003
9.439921e-003
9.439921e-003
9.439921e-003
9.439921e-003
9.439921e-003
9.439921e-003
9.439921e-003
9.439922e-003
9.439922e-003
9.439922e-003
9.439922e-003
9.439922e-003
9.439922e-003
9.439922e-003
9.439922e-003
9.439922e-003
9.439922e-003
9.439922e-003
9.439922e-003
9.439922e-003
9.439922e-003
9.439922e-003
9.439922e-003
9.439922e-003
9.439922e-003
9.439921e-003
9.439921e-003
9.439921e-003
9.439921e-003
9.439921e-003
9.439921e-003
9.439921e-003
9.439921e-003
9.439920e-003
9.439920e-003
9.439920e-003
9.439920e-003
9.439920e-003
9.439920e-003
9.439920e-003
9.439920e-003
9.439920e-003
9.439920e-003
9.439920e-003
9.439920e-003
9.439920e-003
9.439920e-003
9.439920e-003
9.439920e-003
9.439920e-003
9.439920e-003
9.439920e-003
9.439920e-003
9.439920e-003
9.439920e-003
9.439920e-003
9.439920e-003
9.439920e-003
9.439920e-003
9.439920e-003
9.439920e-003
9.439920e-003
9.439920e-003
9.439920e-003
9.439920e-003
9.439920e-003
9.439920e-003
9.439920e-003
9.439920e-003
9.439920e-003
9.439920e-003
9.439920e-003
9.439920e-003
9.439920e-003
9.439920e-003
9.439920e-003
9.439920e-003
9.439920e-003
9.439920e-003
9.439920e-003
9.439920e-003
9.439920e-003
9.439920e-003
9.439920e-003
9.439920e-003
9.439920e-003
9.439920e-003
9.439920e-003
9.439920e-003
9.439920e-003
9.439920e-003
9.439920e-003
9.439920e-003
9.439920e-003
9.439920e-003
9.439921e-003
9.439921e-003
9.439921e-003
9.439921e-003
9.439921e-003
9.439921e-003
9.439922e-003
9.439922e-003
9.439922e-003
9.439922e-003
9.439923e-003
9.439923e-003
9.439923e-003
9.439923e-003
9.439923e-003
9.439924e-003
9.439924e-003
9.439924e-003
9.439924e-003
9.439924e-003
9.439924e-003
9.439924e-003
9.439924e-003
9.439924e-003
9.439924e-003
9.439924e-003
9.439924e-003
9.439924e-003
9.439923e-003
9.439923e-003
9.439923e-003
9.439923e-003
9.439922e-003
9.439922e-003
9.439922e-003
9.439922e-003
9.439921e-003
9.439921e-003
9.439921e-003
9.439921e-003
9.439921e-003
9.439920e-003
9.439920e-003
9.439920e-003
9.439920e-003
9.439920e-003
9.439920e-003
9.439920e-003
9.439920e-003
9.439920e-003
9.439920e-003
9.439920e-003
9.439920e-003
9.439920e-003
9.439920e-003
9.439920e-003
9.439920e-003
9.439920e-003
9.439920e-003
9.439920e-003
9.439920e-003
9.439920e-003
9.439920e-003
9.439920e-003
9.439920e-003
9.439920e-003
9.439920e-003
9.439920e-003
9.439920e-003
9.439920e-003
9.439920e-003
9.439920e-003
9.439920e-003
9.439920e-003
9.439920e-003
9.439920e-003
9.439920e-003
9.439920e-003
9.439920e-003
9.439920e-003
9.439920e-003
9.439920e-003
9.439920e-003
9.439920e-003
9.439920e-003
9.439920e-003
9.439920e-003
9.439920e-003
9.439920e-003
9.439920e-003
9.439920e-003
9.439920e-003
9.439920e-003
9.439920e-003
9.439920e-003
9.439920e-003
9.439920e-003
9.439921e-003
9.439921e-003
9.439921e-003
9.439921e-003
9.439922e-003
9.439922e-003
9.439922e-003
9.439923e-003
9.439923e-003
9.439923e-003
9.439924e-003
9.439924e-003
9.439925e-003
9.439925e-003
9.439926e-003
9.439926e-003
9.439926e-003
9.439927e-003
9.439927e-003
9.439927e-003
9.439927e-003
9.439928e-003
9.439928e-003
9.439928e-003
9.439928e-003
9.439928e-003
9.439928e-003
9.439928e-003
9.439927e-003
9.439927e-003
9.439927e-003
9.439926e-003
9.439926e-003
9.439926e-003
9.439925e-003
9.439925e-003
9.439924e-003
9.439924e-003
9.439923e-003
9.439923e-003
9.439922e-003
9.439922e-003
9.439922e-003
9.439921e-003
9.439921e-003
9.439921e-003
9.439921e-003
9.439920e-003
9.439920e-003
9.439920e-003
9.439920e-003
9.439920e-003
9.439920e-003
9.439920e-003
9.439920e-003
9.439920e-003
9.439920e-003
9.439920e-003
9.439920e-003
9.439920e-003
9.439920e-003
9.439920e-003
9.439920e-003
9.439920e-003
9.439920e-003
9.439920e-003
9.439920e-003
9.439920e-003
9.439920e-003
9.439920e-003
9.439920e-003
9.439920e-003
9.439920e-003
9.439920e-003
9.439920e-003
9.439920e-003
9.439920e-003
9.439920e-003
9.439920e-003
9.439920e-003
9.439920e-003
9.439920e-003
9.439920e-003
9.439920e-003
9.439920e-003
9.439920e-003
9.439920e-003
9.439920e-003
9.439920e-003
9.439920e-003
9.439920e-003
9.439920e-003
9.439920e-003
9.439920e-003
9.439920e-003
9.439920e-003
9.439920e-003
9.439921e-003
9.439921e-003
9.439921e-003
9.439921e-003
9.439922e-003
9.439922e-003
9.439923e-003
9.439923e-003
9.439924e-003
9.439924e-003
9.439925e-003
9.439926e-003
9.439927e-003
9.439927e-003
9.439928e-003
9.439929e-003
9.439930e-003
9.439930e-003
9.439931e-003
9.439932e-003
9.439932e-003
9.439933e-003
9.439933e-003
9.439933e-003
9.439934e-003
9.439934e-003
9.439934e-003
9.439934e-003
9.439934e-003
9.439934e-003
9.439933e-003
9.439933e-003
9.439933e-003
9.439932e-003
9.439932e-003
9.439931e-003
9.439930e-003
9.439929e-003
9.439929e-003
9.439928e-003
9.439927e-003
9.439926e-003
9.439925e-003
9.439925e-003
9.439924e-003
9.439923e-003
9.439923e-003
9.439922e-003
9.439922e-003
9.439921e-003
9.439921e-003
9.439921e-003
9.439920e-003
9.439920e-003
9.439920e-003
9.439920e-003
9.439920e-003
9.439920e-003
9.439920e-003
9.439920e-003
9.439920e-003
9.439920e-003
9.439920e-003
9.439920e-003
9.439920e-003
9.439920e-003
9.439920e-003
9.439920e-003
9.439920e-003
9.439920e-003
9.439920e-003
9.439920e-003
9.439920e-003
9.439920e-003
9.439920e-003
9.439920e-003
9.439920e-003
9.439920e-003
9.439920e-003
9.439920e-003
9.439920e-003
9.439920e-003
9.439920e-003
9.439920e-003
9.439920e-003
9.439920e-003
9.439920e-003
9.439920e-003
9.439920e-003
9.439920e-003
9.439920e-003
9.439920e-003
9.439920e-003
9.439920e-003
9.439920e-003
9.439920e-003
9.439920e-003
9.439920e-003
9.439921e-003
9.439921e-003
9.439921e-003
9.439922e-003
9.439922e-003
9.439923e-003
9.439923e-003
9.439924e-003
9.439925e-003
9.439926e-003
9.439927e-003
9.439928e-003
9.439930e-003
9.439931e-003
9.439932e-003
9.439933e-003
9.439934e-003
9.439935e-003
9.439936e-003
9.439937e-003
9.439938e-003
9.439939e-003
9.439940e-003
9.439940e-003
9.439941e-003
9.439941e-003
9.439941e-003
9.439942e-003
9.439942e-003
9.439942e-003
9.439941e-003
9.439941e-003
9.439941e-003
9.439940e-003
9.439940e-003
9.439939e-003
9.439939e-003
9.439938e-003
9.439937e-003
9.439936e-003
9.439935e-003
9.439933e-003
9.439932e-003
9.439931e-003
9.439930e-003
9.439928e-003
9.439927e-003
9.439926e-003
9.439925e-003
9.439924e-003
9.439923e-003
9.439922e-003
9.439922e-003
9.439921e-003
9.439921e-003
9.439921e-003
9.439920e-003
9.439920e-003
9.439920e-003
9.439920e-003
9.439920e-003
9.439920e-003
9.439920e-003
9.439920e-003
9.439920e-003
9.439920e-003
9.439920e-003
9.439920e-003
9.439920e-003
9.439920e-003
9.439920e-003
9.439920e-003
9.439920e-003
9.439920e-003
9.439920e-003
9.439920e-003
9.439920e-003
9.439920e-003
9.439920e-003
9.439920e-003
9.439920e-003
9.439920e-003
9.439920e-003
9.439920e-003
9.439920e-003
9.439920e-003
9.439920e-003
9.439920e-003
9.439920e-003
9.439920e-003
9.439920e-003
9.439920e-003
9.439920e-003
9.439920e-003
9.439920e-003
9.439920e-003
9.439920e-003
9.439920e-003
9.439921e-003
9.439921e-003
9.439921e-003
9.439922e-003
9.439922e-003
9.439923e-003
9.439924e-003
9.439925e-003
9.439926e-003
9.439928e-003
9.439929e-003
9.439931e-003
9.439933e-003
9.439934e-003
9.439936e-003
9.439938e-003
9.439939e-003
9.439941e-003
9.439942e-003
9.439943e-003
9.439944e-003
9.439945e-003
9.439946e-003
9.439946e-003
9.439946e-003
9.439947e-003
9.439947e-003
9.439947e-003
9.439947e-003
9.439947e-003
9.439946e-003
9.439946e-003
9.439946e-003
9.439946e-003
9.439946e-003
9.439945e-003
9.439945e-003
9.439945e-003
9.439944e-003
9.439944e-003
9.439943e-003
9.439942e-003
9.439941e-003
9.439940e-003
9.439939e-003
9.439937e-003
9.439936e-003
9.439934e-003
9.439932e-003
9.439931e-003
9.439929e-003
9.439927e-003
9.439926e-003
9.439925e-003
9.439924e-003
9.439923e-003
9.439922e-003
9.439921e-003
9.439921e-003
9.439921e-003
9.439920e-003
9.439920e-003
9.439920e-003
9.439920e-003
9.439920e-003
9.439920e-003
9.439920e-003
9.439920e-003
9.439920e-003
9.439920e-003
9.439920e-003
9.439920e-003
9.439920e-003
9.439920e-003
9.439920e-003
9.439920e-003
9.439920e-003
9.439920e-003
9.439920e-003
9.439920e-003
9.439920e-003
9.439920e-003
9.439920e-003
9.439920e-003
9.439920e-003
9.439920e-003
9.439920e-003
9.439920e-003
9.439920e-003
9.439920e-003
9.439920e-003
9.439920e-003
9.439920e-003
9.439920e-003
9.439920e-003
9.439920e-003
9.439920e-003
9.439920e-003
9.439920e-003
9.439921e-003
9.439921e-003
9.439922e-003
9.439922e-003
9.439923e-003
9.439924e-003
9.439926e-003
9.439927e-003
9.439929e-003
9.439931e-003
9.439933e-003
9.439936e-003
9.439938e-003
9.439940e-003
9.439942e-003
9.439943e-003
9.439945e-003
9.439946e-003
9.439946e-003
9.439946e-003
9.439946e-003
9.439945e-003
9.439944e-003
9.439943e-003
9.439942e-003
9.439940e-003
9.439938e-003
9.439937e-003
9.439935e-003
9.439934e-003
9.439932e-003
9.439931e-003
9.439931e-003
9.439930e-003
9.439930e-003
9.439931e-003
9.439932e-003
9.439933e-003
9.439934e-003
9.439936e-003
9.439937e-003
9.439939e-003
9.439940e-003
9.439942e-003
9.439942e-003
9.439943e-003
9.439942e-003
9.439942e-003
9.439940e-003
9.439939e-003
9.439937e-003
9.439935e-003
9.439933e-003
9.439930e-003
9.439928e-003
9.439927e-003
9.439925e-003
9.439924e-003
9.439923e-003
9.439922e-003
9.439921e-003
9.439921e-003
9.439921e-003
9.439920e-003
9.439920e-003
9.439920e-003
9.439920e-003
9.439920e-003
9.439920e-003
9.439920e-003
9.439920e-003
9.439920e-003
9.439920e-003
9.439920e-003
9.439920e-003
9.439920e-003
9.439920e-003
9.439920e-003
9.439920e-003
9.439920e-003
9.439920e-003
9.439920e-003
9.439920e-003
9.439920e-003
9.439920e-003
9.439920e-003
9.439920e-003
9.439920e-003
9.439920e-003
9.439920e-003
9.439920e-003
9.439920e-003
9.439920e-003
9.439920e-003
9.439920e-003
9.439920e-003
9.439920e-003
9.439920e-003
9.439921e-003
9.439921e-003
9.439922e-003
9.439922e-003
9.439923e-003
9.439925e-003
9.439926e-003
9.439928e-003
9.439930e-003
9.439933e-003
9.439936e-003
9.439938e-003
9.439941e-003
9.439943e-003
9.439945e-003
9.439946e-003
9.439946e-003
9.439945e-003
9.439943e-003
9.439940e-003
9.439936e-003
9.439930e-003
9.439924e-003
9.439917e-003
9.439909e-003
9.439901e-003
9.439892e-003
9.439884e-003
9.439876e-003
9.439869e-003
9.439862e-003
9.439856e-003
9.439851e-003
9.439848e-003
9.439846e-003
9.439846e-003
9.439847e-003
9.439850e-003
9.439854e-003
9.439861e-003
9.439868e-003
9.439876e-003
9.439886e-003
9.439895e-003
9.439905e-003
9.439914e-003
9.439922e-003
9.439929e-003
9.439934e-003
9.439938e-003
9.439941e-003
9.439942e-003
9.439942e-003
9.439941e-003
9.439939e-003
9.439936e-003
9.439934e-003
9.439931e-003
9.439929e-003
9.439927e-003
9.439925e-003
9.439924e-003
9.439923e-003
9.439922e-003
9.439921e-003
9.439921e-003
9.439920e-003
9.439920e-003
9.439920e-003
9.439920e-003
9.439920e-003
9.439920e-003
9.439920e-003
9.439920e-003
9.439920e-003
9.439920e-003
9.439920e-003
9.439920e-003
9.439920e-003
9.439920e-003
9.439920e-003
9.439920e-003
9.439920e-003
9.439920e-003
9.439920e-003
9.439920e-003
9.439920e-003
9.439920e-003
9.439920e-003
9.439920e-003
9.439920e-003
9.439920e-003
9.439920e-003
9.439920e-003
9.439920e-003
9.439920e-003
9.439920e-003
9.439920e-003
9.439920e-003
9.439921e-003
9.439921e-003
9.439922e-003
9.439923e-003
9.439924e-003
9.439926e-003
9.439928e-003
9.439931e-003
9.439934e-003
9.439937e-003
9.439940e-003
9.439943e-003
9.439945e-003
9.439946e-003
9.439946e-003
9.439943e-003
9.439938e-003
9.439931e-003
9.439920e-003
9.439905e-003
9.439888e-003
9.439868e-003
9.439845e-003
9.439820e-003
9.439793e-003
9.439765e-003
9.439737e-003
9.439710e-003
9.439683e-003
9.439657e-003
9.439634e-003
9.439613e-003
9.439595e-003
9.439581e-003
9.439572e-003
9.439567e-003
9.439566e-003
9.439571e-003
9.439582e-003
9.439597e-003
9.439617e-003
9.439641e-003
9.439669e-003
9.439700e-003
9.439733e-003
9.439765e-003
9.439798e-003
9.439828e-003
9.439856e-003
9.439880e-003
9.439900e-003
9.439916e-003
9.439928e-003
9.439936e-003
9.439940e-003
9.439942e-003
9.439942e-003
9.439940e-003
9.439937e-003
9.439934e-003
9.439931e-003
9.439929e-003
9.439927e-003
9.439925e-003
9.439923e-003
9.439922e-003
9.439921e-003
9.439921e-003
9.439921e-003
9.439920e-003
9.439920e-003
9.439920e-003
9.439920e-003
9.439920e-003
9.439920e-003
9.439920e-003
9.439920e-003
9.439920e-003
9.439920e-003
9.439920e-003
9.439920e-003
9.439920e-003
9.439920e-003
9.439920e-003
9.439920e-003
9.439920e-003
9.439920e-003
9.439920e-003
9.439920e-003
9.439920e-003
9.439920e-003
9.439920e-003
9.439920e-003
9.439920e-003
9.439920e-003
9.439920e-003
9.439920e-003
9.439920e-003
9.439921e-003
9.439921e-003
9.439922e-003
9.439923e-003
9.439924e-003
9.439926e-003
9.439928e-003
9.439931e-003
9.439934e-003
9.439938e-003
9.439941e-003
9.439944e-003
9.439947e-003
9.439947e-003
9.439944e-003
9.439938e-003
9.439926e-003
9.439908e-003
9.439883e-003
9.439850e-003
9.439809e-003
9.439760e-003
9.439702e-003
9.439638e-003
9.439568e-003
9.439494e-003
9.439416e-003
9.439336e-003
9.439257e-003
9.439180e-003
9.439106e-003
9.439036e-003
9.438973e-003
9.438918e-003
9.438871e-003
9.438835e-003
9.438811e-003
9.438798e-003
9.438799e-003
9.438814e-003
9.438843e-003
9.438885e-003
9.438940e-003
9.439007e-003
9.439085e-003
9.439170e-003
9.439261e-003
9.439354e-003
9.439447e-003
9.439536e-003
9.439619e-003
9.439694e-003
9.439760e-003
9.439814e-003
9.439857e-003
9.439890e-003
9.439914e-003
9.439929e-003
9.439938e-003
9.439942e-003
9.439942e-003
9.439940e-003
9.439937e-003
9.439934e-003
9.439931e-003
9.439928e-003
9.439926e-003
9.439924e-003
9.439923e-003
9.439922e-003
9.439921e-003
9.439921e-003
9.439920e-003
9.439920e-003
9.439920e-003
9.439920e-003
9.439920e-003
9.439920e-003
9.439920e-003
9.439920e-003
9.439920e-003
9.439920e-003
9.439920e-003
9.439920e-003
9.439920e-003
9.439920e-003
9.439920e-003
9.439920e-003
9.439920e-003
9.439920e-003
9.439920e-003
9.439920e-003
9.439920e-003
9.439920e-003
9.439920e-003
9.439920e-003
9.439920e-003
9.439920e-003
9.439920e-003
9.439921e-003
9.439921e-003
9.439922e-003
9.439923e-003
9.439925e-003
9.439927e-003
9.439930e-003
9.439933e-003
9.439937e-003
9.439941e-003
9.439945e-003
9.439948e-003
9.439948e-003
9.439943e-003
9.439932e-003
9.439913e-003
9.439881e-003
9.439836e-003
9.439774e-003
9.439693e-003
9.439593e-003
9.439473e-003
9.439333e-003
9.439175e-003
9.439002e-003
9.438816e-003
9.438621e-003
9.438420e-003
9.438218e-003
9.438018e-003
9.437824e-003
9.437640e-003
9.437469e-003
9.437314e-003
9.437179e-003
9.437067e-003
9.436981e-003
9.436922e-003
9.436894e-003
9.436898e-003
9.436936e-003
9.437007e-003
9.437112e-003
9.437249e-003
9.437416e-003
9.437609e-003
9.437822e-003
9.438051e-003
9.438288e-003
9.438526e-003
9.438758e-003
9.438977e-003
9.439178e-003
9.439356e-003
9.439509e-003
9.439635e-003
9.439735e-003
9.439810e-003
9.439865e-003
9.439902e-003
9.439924e-003
9.439937e-003
9.439942e-003
9.439942e-003
9.439940e-003
9.439937e-003
9.439933e-003
9.439930e-003
9.439927e-003
9.439925e-003
9.439923e-003
9.439922e-003
9.439921e-003
9.439921e-003
9.439920e-003
9.439920e-003
9.439920e-003
9.439920e-003
9.439920e-003
9.439920e-003
9.439920e-003
9.439920e-003
9.439920e-003
9.439920e-003
9.439920e-003
9.439920e-003
9.439920e-003
9.439920e-003
9.439920e-003
9.439920e-003
9.439920e-003
9.439920e-003
9.439920e-003
9.439920e-003
9.439920e-003
9.439920e-003
9.439920e-003
9.439920e-003
9.439920e-003
9.439921e-003
9.439921e-003
9.439922e-003
9.439924e-003
9.439925e-003
9.439928e-003
9.439931e-003
9.439936e-003
9.439940e-003
9.439945e-003
9.439948e-003
9.439949e-003
9.439944e-003
9.439931e-003
9.439904e-003
9.439860e-003
9.439791e-003
9.439693e-003
9.439559e-003
9.439385e-003
9.439167e-003
9.438903e-003
9.438593e-003
9.438240e-003
9.437847e-003
9.437422e-003
9.436971e-003
9.436503e-003
9.436026e-003
9.435549e-003
9.435082e-003
9.434632e-003
9.434208e-003
9.433816e-003
9.433464e-003
9.433159e-003
9.432906e-003
9.432712e-003
9.432582e-003
9.432521e-003
9.432533e-003
9.432621e-003
9.432785e-003
9.433026e-003
9.433341e-003
9.433725e-003
9.434170e-003
9.434665e-003
9.435198e-003
9.435754e-003
9.436317e-003
9.436871e-003
9.437400e-003
9.437891e-003
9.438333e-003
9.438717e-003
9.439041e-003
9.439305e-003
9.439511e-003
9.439665e-003
9.439776e-003
9.439850e-003
9.439898e-003
9.439925e-003
9.439938e-003
9.439942e-003
9.439942e-003
9.439939e-003
9.439935e-003
9.439931e-003
9.439928e-003
9.439925e-003
9.439923e-003
9.439922e-003
9.439921e-003
9.439921e-003
9.439920e-003
9.439920e-003
9.439920e-003
9.439920e-003
9.439920e-003
9.439920e-003
9.439920e-003
9.439920e-003
9.439920e-003
9.439920e-003
9.439920e-003
9.439920e-003
9.439920e-003
9.439920e-003
9.439920e-003
9.439920e-003
9.439920e-003
9.439920e-003
9.439920e-003
9.439920e-003
9.439920e-003
9.439920e-003
9.439920e-003
9.439921e-003
9.439921e-003
9.439922e-003
9.439924e-003
9.439926e-003
9.439929e-003
9.439933e-003
9.439938e-003
9.439943e-003
9.439948e-003
9.439950e-003
9.439947e-003
9.439934e-003
9.439906e-003
9.439853e-003
9.439767e-003
9.439635e-003
9.439444e-003
9.439183e-003
9.438839e-003
9.438402e-003
9.437867e-003
9.437230e-003
9.436495e-003
9.435669e-003
9.434762e-003
9.433791e-003
9.432772e-003
9.431724e-003
9.430666e-003
9.429619e-003
9.428599e-003
9.427625e-003
9.426711e-003
9.425873e-003
9.425125e-003
9.424478e-003
9.423946e-003
9.423540e-003
9.423270e-003
9.423146e-003
9.423176e-003
9.423365e-003
9.423718e-003
9.424234e-003
9.424908e-003
9.425731e-003
9.426689e-003
9.427761e-003
9.428921e-003
9.430140e-003
9.431385e-003
9.432620e-003
9.433811e-003
9.434928e-003
9.435945e-003
9.436843e-003
9.437611e-003
9.438246e-003
9.438753e-003
9.439142e-003
9.439430e-003
9.439632e-003
9.439768e-003
9.439854e-003
9.439904e-003
9.439930e-003
9.439941e-003
9.439943e-003
9.439941e-003
9.439937e-003
9.439932e-003
9.439929e-003
9.439926e-003
9.439924e-003
9.439922e-003
9.439921e-003
9.439921e-003
9.439920e-003
9.439920e-003
9.439920e-003
9.439920e-003
9.439920e-003
9.439920e-003
9.439920e-003
9.439920e-003
9.439920e-003
9.439920e-003
9.439920e-003
9.439920e-003
9.439920e-003
9.439920e-003
9.439920e-003
9.439920e-003
9.439920e-003
9.439920e-003
9.439920e-003
9.439920e-003
9.439920e-003
9.439921e-003
9.439922e-003
9.439923e-003
9.439924e-003
9.439927e-003
9.439930e-003
9.439935e-003
9.439940e-003
9.439946e-003
9.439950e-003
9.439950e-003
9.439942e-003
9.439917e-003
9.439866e-003
9.439774e-003
9.439623e-003
9.439391e-003
9.439052e-003
9.438580e-003
9.437948e-003
9.437135e-003
9.436121e-003
9.434899e-003
9.433467e-003
9.431836e-003
9.430027e-003
9.428067e-003
9.425990e-003
9.423837e-003
9.421647e-003
9.419459e-003
9.417313e-003
9.415243e-003
9.413281e-003
9.411457e-003
9.409796e-003
9.408323e-003
9.407060e-003
9.406026e-003
9.405243e-003
9.404728e-003
9.404498e-003
9.404568e-003
9.404949e-003
9.405648e-003
9.406668e-003
9.408001e-003
9.409635e-003
9.411544e-003
9.413694e-003
9.416039e-003
9.418525e-003
9.421088e-003
9.423658e-003
9.426167e-003
9.428548e-003
9.430743e-003
9.432706e-003
9.434409e-003
9.435838e-003
9.436997e-003
9.437904e-003
9.438587e-003
9.439082e-003
9.439425e-003
9.439652e-003
9.439793e-003
9.439875e-003
9.439918e-003
9.439937e-003
9.439943e-003
9.439942e-003
9.439938e-003
9.439933e-003
9.439929e-003
9.439926e-003
9.439924e-003
9.439922e-003
9.439921e-003
9.439921e-003
9.439920e-003
9.439920e-003
9.439920e-003
9.439920e-003
9.439920e-003
9.439920e-003
9.439920e-003
9.439920e-003
9.439920e-003
9.439920e-003
9.439920e-003
9.439920e-003
9.439920e-003
9.439920e-003
9.439920e-003
9.439920e-003
9.439920e-003
9.439920e-003
9.439920e-003
9.439921e-003
9.439922e-003
9.439923e-003
9.439925e-003
9.439927e-003
9.439931e-003
9.439936e-003
9.439942e-003
9.439948e-003
9.439952e-003
9.439949e-003
9.439934e-003
9.439894e-003
9.439813e-003
9.439667e-003
9.439424e-003
9.439045e-003
9.438484e-003
9.437689e-003
9.436605e-003
9.435184e-003
9.433384e-003
9.431178e-003
9.428559e-003
9.425539e-003
9.422151e-003
9.418448e-003
9.414499e-003
9.410379e-003
9.406169e-003
9.401951e-003
9.397799e-003
9.393782e-003
9.389960e-003
9.386386e-003
9.383104e-003
9.380152e-003
9.377564e-003
9.375370e-003
9.373597e-003
9.372271e-003
9.371416e-003
9.371058e-003
9.371216e-003
9.371910e-003
9.373154e-003
9.374955e-003
9.377312e-003
9.380212e-003
9.383626e-003
9.387509e-003
9.391796e-003
9.396402e-003
9.401222e-003
9.406135e-003
9.411011e-003
9.415718e-003
9.420131e-003
9.424146e-003
9.427686e-003
9.430706e-003
9.433195e-003
9.435176e-003
9.436696e-003
9.437817e-003
9.438612e-003
9.439152e-003
9.439502e-003
9.439716e-003
9.439839e-003
9.439903e-003
9.439933e-003
9.439942e-003
9.439943e-003
9.439939e-003
9.439934e-003
9.439930e-003
9.439926e-003
9.439924e-003
9.439922e-003
9.439921e-003
9.439921e-003
9.439920e-003
9.439920e-003
9.439920e-003
9.439920e-003
9.439920e-003
9.439920e-003
9.439920e-003
9.439920e-003
9.439920e-003
9.439920e-003
9.439920e-003
9.439920e-003
9.439920e-003
9.439920e-003
9.439920e-003
9.439920e-003
9.439920e-003
9.439921e-003
9.439922e-003
9.439923e-003
9.439925e-003
9.439927e-003
9.439931e-003
9.439937e-003
9.439943e-003
9.439949e-003
9.439953e-003
9.439948e-003
9.439924e-003
9.439866e-003
9.439748e-003
9.439534e-003
9.439172e-003
9.438597e-003
9.437728e-003
9.436470e-003
9.434724e-003
9.432389e-003
9.429380e-003
9.425637e-003
9.421133e-003
9.415885e-003
9.409955e-003
9.403445e-003
9.396492e-003
9.389249e-003
9.381880e-003
9.374541e-003
9.367376e-003
9.360509e-003
9.354040e-003
9.348050e-003
9.342597e-003
9.337723e-003
9.333458e-003
9.329819e-003
9.326822e-003
9.324474e-003
9.322785e-003
9.321766e-003
9.321427e-003
9.321785e-003
9.322859e-003
9.324670e-003
9.327243e-003
9.330602e-003
9.334765e-003
9.339741e-003
9.345520e-003
9.352062e-003
9.359293e-003
9.367092e-003
9.375295e-003
9.383695e-003
9.392055e-003
9.400125e-003
9.407672e-003
9.414494e-003
9.420450e-003
9.425466e-003
9.429535e-003
9.432715e-003
9.435105e-003
9.436832e-003
9.438029e-003
9.438824e-003
9.439327e-003
9.439629e-003
9.439799e-003
9.439887e-003
9.439927e-003
9.439942e-003
9.439943e-003
9.439939e-003
9.439935e-003
9.439930e-003
9.439926e-003
9.439924e-003
9.439922e-003
9.439921e-003
9.439921e-003
9.439920e-003
9.439920e-003
9.439920e-003
9.439920e-003
9.439920e-003
9.439920e-003
9.439920e-003
9.439920e-003
9.439920e-003
9.439920e-003
9.439920e-003
9.439920e-003
9.439920e-003
9.439920e-003
9.439920e-003
9.439921e-003
9.439921e-003
9.439923e-003
9.439924e-003
9.439927e-003
9.439932e-003
9.439937e-003
9.439944e-003
9.439951e-003
9.439953e-003
9.439946e-003
9.439914e-003
9.439837e-003
9.439679e-003
9.439386e-003
9.438883e-003
9.438065e-003
9.436800e-003
9.434930e-003
9.432278e-003
9.428664e-003
9.423925e-003
9.417944e-003
9.410671e-003
9.402145e-003
9.392502e-003
9.381971e-003
9.370850e-003
9.359476e-003
9.348195e-003
9.337323e-003
9.327129e-003
9.317818e-003
9.309527e-003
9.302330e-003
9.296249e-003
9.291258e-003
9.287299e-003
9.284289e-003
9.282129e-003
9.280712e-003
9.279927e-003
9.279668e-003
9.279840e-003
9.280364e-003
9.281184e-003
9.282277e-003
9.283658e-003
9.285390e-003
9.287584e-003
9.290400e-003
9.294035e-003
9.298701e-003
9.304598e-003
9.311876e-003
9.320594e-003
9.330693e-003
9.341971e-003
9.354088e-003
9.366594e-003
9.378981e-003
9.390743e-003
9.401447e-003
9.410782e-003
9.418583e-003
9.424832e-003
9.429634e-003
9.433173e-003
9.435674e-003
9.437369e-003
9.438467e-003
9.439145e-003
9.439543e-003
9.439762e-003
9.439873e-003
9.439923e-003
9.439941e-003
9.439943e-003
9.439940e-003
9.439934e-003
9.439930e-003
9.439926e-003
9.439924e-003
9.439922e-003
9.439921e-003
9.439921e-003
9.439920e-003
9.439920e-003
9.439920e-003
9.439920e-003
9.439920e-003
9.439920e-003
9.439920e-003
9.439920e-003
9.439920e-003
9.439920e-003
9.439920e-003
9.439920e-003
9.439920e-003
9.439921e-003
9.439921e-003
9.439922e-003
9.439924e-003
9.439927e-003
9.439931e-003
9.439937e-003
9.439944e-003
9.439951e-003
9.439954e-003
9.439944e-003
9.439907e-003
9.439813e-003
9.439615e-003
9.439242e-003
9.438585e-003
9.437491e-003
9.435759e-003
9.433139e-003
9.429340e-003
9.424060e-003
9.417020e-003
9.408023e-003
9.397012e-003
9.384121e-003
9.369708e-003
9.354347e-003
9.338776e-003
9.323823e-003
9.310303e-003
9.298928e-003
9.290234e-003
9.284544e-003
9.281964e-003
9.282405e-003
9.285621e-003
9.291246e-003
9.298835e-003
9.307886e-003
9.317869e-003
9.328234e-003
9.338430e-003
9.347913e-003
9.356162e-003
9.362692e-003
9.367077e-003
9.368974e-003
9.368157e-003
9.364559e-003
9.358303e-003
9.349741e-003
9.339468e-003
9.328315e-003
9.317304e-003
9.307570e-003
9.300245e-003
9.296321e-003
9.296501e-003
9.301084e-003
9.309893e-003
9.322285e-003
9.337241e-003
9.353530e-003
9.369901e-003
9.385273e-003
9.398859e-003
9.410221e-003
9.419247e-003
9.426080e-003
9.431019e-003
9.434434e-003
9.436692e-003
9.438119e-003
9.438979e-003
9.439470e-003
9.439733e-003
9.439864e-003
9.439921e-003
9.439941e-003
9.439943e-003