# vtk DataFile Version 3.0
vtk output
ASCII
DATASET STRUCTURED_POINTS
DIMENSIONS 100 100 1
SPACING 1 1 1
ORIGIN 0 0 0
POINT_DATA 10000
SCALARS SFBox_profile double
LOOKUP_TABLE default 
9.439921e-003
9.439920e-003
9.439920e-003
9.439920e-003
9.439920e-003
9.439920e-003
9.439920e-003
9.439920e-003
9.439920e-003
9.439920e-003
9.439920e-003
9.439920e-003
9.439920e-003
9.439920e-003
9.439921e-003
9.439921e-003
9.439921e-003
9.439921e-003
9.439921e-003
9.439921e-003
9.439922e-003
9.439922e-003
9.439922e-003
9.439923e-003
9.439923e-003
9.439923e-003
9.439924e-003
9.439924e-003
9.439925e-003
9.439925e-003
9.439926e-003
9.439927e-003
9.439927e-003
9.439928e-003
9.439929e-003
9.439930e-003
9.439931e-003
9.439932e-003
9.439933e-003
9.439934e-003
9.439935e-003
9.439936e-003
9.439937e-003
9.439937e-003
9.439938e-003
9.439938e-003
9.439938e-003
9.439938e-003
9.439938e-003
9.439937e-003
9.439937e-003
9.439936e-003
9.439936e-003
9.439935e-003
9.439934e-003
9.439933e-003
9.439932e-003
9.439931e-003
9.439930e-003
9.439929e-003
9.439928e-003
9.439927e-003
9.439926e-003
9.439925e-003
9.439924e-003
9.439924e-003
9.439923e-003
9.439923e-003
9.439922e-003
9.439922e-003
9.439922e-003
9.439921e-003
9.439921e-003
9.439921e-003
9.439921e-003
9.439921e-003
9.439920e-003
9.439920e-003
9.439920e-003
9.439920e-003
9.439920e-003
9.439920e-003
9.439920e-003
9.439920e-003
9.439920e-003
9.439920e-003
9.439920e-003
9.439920e-003
9.439920e-003
9.439920e-003
9.439920e-003
9.439920e-003
9.439920e-003
9.439920e-003
9.439920e-003
9.439920e-003
9.439920e-003
9.439920e-003
9.439920e-003
9.439920e-003
9.439921e-003
9.439920e-003
9.439920e-003
9.439920e-003
9.439920e-003
9.439920e-003
9.439920e-003
9.439920e-003
9.439920e-003
9.439920e-003
9.439920e-003
9.439920e-003
9.439920e-003
9.439920e-003
9.439921e-003
9.439921e-003
9.439921e-003
9.439921e-003
9.439921e-003
9.439921e-003
9.439922e-003
9.439922e-003
9.439922e-003
9.439923e-003
9.439923e-003
9.439923e-003
9.439924e-003
9.439924e-003
9.439925e-003
9.439925e-003
9.439926e-003
9.439927e-003
9.439927e-003
9.439928e-003
9.439929e-003
9.439930e-003
9.439931e-003
9.439932e-003
9.439933e-003
9.439934e-003
9.439935e-003
9.439936e-003
9.439937e-003
9.439937e-003
9.439938e-003
9.439938e-003
9.439938e-003
9.439938e-003
9.439938e-003
9.439937e-003
9.439937e-003
9.439936e-003
9.439936e-003
9.439935e-003
9.439934e-003
9.439933e-003
9.439932e-003
9.439931e-003
9.439930e-003
9.439929e-003
9.439928e-003
9.439927e-003
9.439926e-003
9.439925e-003
9.439924e-003
9.439924e-003
9.439923e-003
9.439923e-003
9.439922e-003
9.439922e-003
9.439922e-003
9.439921e-003
9.439921e-003
9.439921e-003
9.439921e-003
9.439921e-003
9.439920e-003
9.439920e-003
9.439920e-003
9.439920e-003
9.439920e-003
9.439920e-003
9.439920e-003
9.439920e-003
9.439920e-003
9.439920e-003
9.439920e-003
9.439920e-003
9.439920e-003
9.439920e-003
9.439920e-003
9.439920e-003
9.439920e-003
9.439920e-003
9.439920e-003
9.439920e-003
9.439920e-003
9.439920e-003
9.439920e-003
9.439920e-003
9.439920e-003
9.439920e-003
9.439920e-003
9.439920e-003
9.439920e-003
9.439920e-003
9.439920e-003
9.439920e-003
9.439920e-003
9.439920e-003
9.439920e-003
9.439920e-003
9.439920e-003
9.439920e-003
9.439921e-003
9.439921e-003
9.439921e-003
9.439921e-003
9.439921e-003
9.439922e-003
9.439922e-003
9.439923e-003
9.439923e-003
9.439924e-003
9.439924e-003
9.439925e-003
9.439926e-003
9.439927e-003
9.439928e-003
9.439928e-003
9.439929e-003
9.439931e-003
9.439932e-003
9.439933e-003
9.439934e-003
9.439935e-003
9.439936e-003
9.439937e-003
9.439938e-003
9.439939e-003
9.439940e-003
9.439941e-003
9.439942e-003
9.439942e-003
9.439943e-003
9.439943e-003
9.439943e-003
9.439943e-003
9.439943e-003
9.439942e-003
9.439942e-003
9.439941e-003
9.439940e-003
9.439940e-003
9.439939e-003
9.439938e-003
9.439937e-003
9.439936e-003
9.439934e-003
9.439933e-003
9.439932e-003
9.439930e-003
9.439929e-003
9.439928e-003
9.439927e-003
9.439926e-003
9.439925e-003
9.439924e-003
9.439923e-003
9.439923e-003
9.439922e-003
9.439922e-003
9.439921e-003
9.439921e-003
9.439921e-003
9.439921e-003
9.439920e-003
9.439920e-003
9.439920e-003
9.439920e-003
9.439920e-003
9.439920e-003
9.439920e-003
9.439920e-003
9.439920e-003
9.439920e-003
9.439920e-003
9.439920e-003
9.439920e-003
9.439920e-003
9.439920e-003
9.439920e-003
9.439920e-003
9.439920e-003
9.439920e-003
9.439920e-003
9.439920e-003
9.439920e-003
9.439920e-003
9.439920e-003
9.439920e-003
9.439920e-003
9.439920e-003
9.439920e-003
9.439920e-003
9.439920e-003
9.439920e-003
9.439920e-003
9.439920e-003
9.439920e-003
9.439920e-003
9.439920e-003
9.439920e-003
9.439921e-003
9.439921e-003
9.439921e-003
9.439921e-003
9.439922e-003
9.439922e-003
9.439923e-003
9.439923e-003
9.439924e-003
9.439925e-003
9.439926e-003
9.439928e-003
9.439929e-003
9.439930e-003
9.439932e-003
9.439933e-003
9.439935e-003
9.439936e-003
9.439938e-003
9.439939e-003
9.439941e-003
9.439942e-003
9.439943e-003
9.439945e-003
9.439946e-003
9.439946e-003
9.439947e-003
9.439948e-003
9.439948e-003
9.439948e-003
9.439949e-003
9.439949e-003
9.439949e-003
9.439949e-003
9.439949e-003
9.439948e-003
9.439948e-003
9.439947e-003
9.439947e-003
9.439946e-003
9.439946e-003
9.439945e-003
9.439944e-003
9.439943e-003
9.439942e-003
9.439941e-003
9.439940e-003
9.439938e-003
9.439937e-003
9.439935e-003
9.439933e-003
9.439932e-003
9.439930e-003
9.439929e-003
9.439927e-003
9.439926e-003
9.439925e-003
9.439924e-003
9.439923e-003
9.439922e-003
9.439922e-003
9.439921e-003
9.439921e-003
9.439921e-003
9.439920e-003
9.439920e-003
9.439920e-003
9.439920e-003
9.439920e-003
9.439920e-003
9.439920e-003
9.439920e-003
9.439920e-003
9.439920e-003
9.439920e-003
9.439920e-003
9.439920e-003
9.439920e-003
9.439920e-003
9.439920e-003
9.439920e-003
9.439920e-003
9.439920e-003
9.439920e-003
9.439920e-003
9.439920e-003
9.439920e-003
9.439920e-003
9.439920e-003
9.439920e-003
9.439920e-003
9.439920e-003
9.439920e-003
9.439920e-003
9.439920e-003
9.439920e-003
9.439920e-003
9.439920e-003
9.439920e-003
9.439921e-003
9.439921e-003
9.439921e-003
9.439922e-003
9.439922e-003
9.439923e-003
9.439924e-003
9.439925e-003
9.439926e-003
9.439928e-003
9.439929e-003
9.439931e-003
9.439933e-003
9.439935e-003
9.439937e-003
9.439939e-003
9.439941e-003
9.439943e-003
9.439945e-003
9.439946e-003
9.439948e-003
9.439949e-003
9.439949e-003
9.439950e-003
9.439950e-003
9.439950e-003
9.439949e-003
9.439949e-003
9.439948e-003
9.439947e-003
9.439946e-003
9.439946e-003
9.439945e-003
9.439944e-003
9.439943e-003
9.439943e-003
9.439943e-003
9.439942e-003
9.439942e-003
9.439943e-003
9.439943e-003
9.439943e-003
9.439944e-003
9.439944e-003
9.439945e-003
9.439945e-003
9.439945e-003
9.439945e-003
9.439944e-003
9.439943e-003
9.439942e-003
9.439940e-003
9.439938e-003
9.439936e-003
9.439934e-003
9.439932e-003
9.439930e-003
9.439928e-003
9.439926e-003
9.439925e-003
9.439924e-003
9.439923e-003
9.439922e-003
9.439921e-003
9.439921e-003
9.439921e-003
9.439920e-003
9.439920e-003
9.439920e-003
9.439920e-003
9.439920e-003
9.439920e-003
9.439920e-003
9.439920e-003
9.439920e-003
9.439920e-003
9.439920e-003
9.439920e-003
9.439920e-003
9.439920e-003
9.439920e-003
9.439920e-003
9.439920e-003
9.439920e-003
9.439920e-003
9.439920e-003
9.439920e-003
9.439920e-003
9.439919e-003
9.439919e-003
9.439920e-003
9.439920e-003
9.439920e-003
9.439920e-003
9.439920e-003
9.439920e-003
9.439920e-003
9.439920e-003
9.439921e-003
9.439921e-003
9.439921e-003
9.439921e-003
9.439922e-003
9.439923e-003
9.439924e-003
9.439925e-003
9.439927e-003
9.439929e-003
9.439931e-003
9.439933e-003
9.439936e-003
9.439938e-003
9.439941e-003
9.439943e-003
9.439945e-003
9.439947e-003
9.439948e-003
9.439949e-003
9.439949e-003
9.439948e-003
9.439946e-003
9.439944e-003
9.439941e-003
9.439937e-003
9.439933e-003
9.439929e-003
9.439924e-003
9.439919e-003
9.439914e-003
9.439909e-003
9.439905e-003
9.439901e-003
9.439897e-003
9.439895e-003
9.439892e-003
9.439891e-003
9.439891e-003
9.439892e-003
9.439893e-003
9.439896e-003
9.439899e-003
9.439903e-003
9.439908e-003
9.439914e-003
9.439919e-003
9.439924e-003
9.439929e-003
9.439934e-003
9.439938e-003
9.439940e-003
9.439942e-003
9.439943e-003
9.439943e-003
9.439942e-003
9.439940e-003
9.439938e-003
9.439936e-003
9.439933e-003
9.439931e-003
9.439929e-003
9.439927e-003
9.439925e-003
9.439924e-003
9.439923e-003
9.439922e-003
9.439921e-003
9.439921e-003
9.439920e-003
9.439920e-003
9.439920e-003
9.439920e-003
9.439920e-003
9.439920e-003
9.439920e-003
9.439920e-003
9.439920e-003
9.439920e-003
9.439920e-003
9.439920e-003
9.439920e-003
9.439920e-003
9.439920e-003
9.439920e-003
9.439920e-003
9.439920e-003
9.439920e-003
9.439920e-003
9.439920e-003
9.439919e-003
9.439919e-003
9.439920e-003
9.439920e-003
9.439920e-003
9.439920e-003
9.439920e-003
9.439921e-003
9.439921e-003
9.439921e-003
9.439921e-003
9.439921e-003
9.439922e-003
9.439923e-003
9.439924e-003
9.439925e-003
9.439927e-003
9.439930e-003
9.439932e-003
9.439935e-003
9.439938e-003
9.439941e-003
9.439944e-003
9.439946e-003
9.439948e-003
9.439948e-003
9.439948e-003
9.439945e-003
9.439941e-003
9.439935e-003
9.439927e-003
9.439917e-003
9.439905e-003
9.439892e-003
9.439877e-003
9.439861e-003
9.439844e-003
9.439826e-003
9.439809e-003
9.439791e-003
9.439774e-003
9.439759e-003
9.439744e-003
9.439731e-003
9.439720e-003
9.439712e-003
9.439706e-003
9.439703e-003
9.439703e-003
9.439706e-003
9.439712e-003
9.439722e-003
9.439734e-003
9.439750e-003
9.439767e-003
9.439787e-003
9.439807e-003
9.439828e-003
9.439849e-003
9.439869e-003
9.439887e-003
9.439903e-003
9.439916e-003
9.439926e-003
9.439934e-003
9.439939e-003
9.439942e-003
9.439942e-003
9.439942e-003
9.439940e-003
9.439937e-003
9.439934e-003
9.439932e-003
9.439929e-003
9.439927e-003
9.439925e-003
9.439923e-003
9.439922e-003
9.439922e-003
9.439921e-003
9.439921e-003
9.439920e-003
9.439920e-003
9.439920e-003
9.439920e-003
9.439920e-003
9.439920e-003
9.439920e-003
9.439920e-003
9.439920e-003
9.439920e-003
9.439920e-003
9.439920e-003
9.439920e-003
9.439920e-003
9.439920e-003
9.439920e-003
9.439920e-003
9.439920e-003
9.439920e-003
9.439920e-003
9.439920e-003
9.439920e-003
9.439920e-003
9.439920e-003
9.439920e-003
9.439921e-003
9.439921e-003
9.439921e-003
9.439921e-003
9.439922e-003
9.439923e-003
9.439924e-003
9.439925e-003
9.439927e-003
9.439930e-003
9.439933e-003
9.439936e-003
9.439940e-003
9.439943e-003
9.439946e-003
9.439949e-003
9.439949e-003
9.439948e-003
9.439943e-003
9.439935e-003
9.439923e-003
9.439906e-003
9.439885e-003
9.439858e-003
9.439826e-003
9.439789e-003
9.439748e-003
9.439703e-003
9.439655e-003
9.439605e-003
9.439554e-003
9.439502e-003
9.439451e-003
9.439401e-003
9.439354e-003
9.439309e-003
9.439269e-003
9.439234e-003
9.439205e-003
9.439182e-003
9.439167e-003
9.439159e-003
9.439160e-003
9.439170e-003
9.439189e-003
9.439216e-003
9.439252e-003
9.439296e-003
9.439347e-003
9.439404e-003
9.439464e-003
9.439527e-003
9.439590e-003
9.439651e-003
9.439709e-003
9.439761e-003
9.439808e-003
9.439847e-003
9.439879e-003
9.439903e-003
9.439921e-003
9.439932e-003
9.439939e-003
9.439942e-003
9.439942e-003
9.439940e-003
9.439938e-003
9.439935e-003
9.439931e-003
9.439929e-003
9.439926e-003
9.439924e-003
9.439923e-003
9.439922e-003
9.439921e-003
9.439921e-003
9.439921e-003
9.439920e-003
9.439920e-003
9.439920e-003
9.439920e-003
9.439920e-003
9.439920e-003
9.439920e-003
9.439920e-003
9.439920e-003
9.439920e-003
9.439920e-003
9.439920e-003
9.439920e-003
9.439920e-003
9.439920e-003
9.439920e-003
9.439920e-003
9.439920e-003
9.439920e-003
9.439920e-003
9.439920e-003
9.439920e-003
9.439920e-003
9.439921e-003
9.439921e-003
9.439922e-003
9.439922e-003
9.439923e-003
9.439925e-003
9.439927e-003
9.439929e-003
9.439932e-003
9.439936e-003
9.439940e-003
9.439945e-003
9.439948e-003
9.439950e-003
9.439950e-003
9.439946e-003
9.439936e-003
9.439920e-003
9.439895e-003
9.439861e-003
9.439815e-003
9.439757e-003
9.439687e-003
9.439604e-003
9.439509e-003
9.439403e-003
9.439287e-003
9.439164e-003
9.439034e-003
9.438900e-003
9.438765e-003
9.438630e-003
9.438498e-003
9.438370e-003
9.438250e-003
9.438139e-003
9.438039e-003
9.437952e-003
9.437880e-003
9.437824e-003
9.437787e-003
9.437770e-003
9.437773e-003
9.437799e-003
9.437847e-003
9.437918e-003
9.438010e-003
9.438122e-003
9.438252e-003
9.438398e-003
9.438555e-003
9.438718e-003
9.438885e-003
9.439048e-003
9.439205e-003
9.439351e-003
9.439482e-003
9.439597e-003
9.439693e-003
9.439771e-003
9.439831e-003
9.439876e-003
9.439906e-003
9.439926e-003
9.439937e-003
9.439942e-003
9.439942e-003
9.439941e-003
9.439937e-003
9.439934e-003
9.439931e-003
9.439928e-003
9.439925e-003
9.439924e-003
9.439922e-003
9.439922e-003
9.439921e-003
9.439921e-003
9.439920e-003
9.439920e-003
9.439920e-003
9.439920e-003
9.439920e-003
9.439920e-003
9.439920e-003
9.439920e-003
9.439920e-003
9.439920e-003
9.439920e-003
9.439920e-003
9.439920e-003
9.439920e-003
9.439920e-003
9.439920e-003
9.439920e-003
9.439920e-003
9.439920e-003
9.439920e-003
9.439920e-003
9.439921e-003
9.439921e-003
9.439922e-003
9.439923e-003
9.439924e-003
9.439926e-003
9.439929e-003
9.439932e-003
9.439936e-003
9.439940e-003
9.439945e-003
9.439949e-003
9.439952e-003
9.439951e-003
9.439945e-003
9.439930e-003
9.439905e-003
9.439864e-003
9.439805e-003
9.439724e-003
9.439619e-003
9.439486e-003
9.439324e-003
9.439132e-003
9.438912e-003
9.438665e-003
9.438394e-003
9.438102e-003
9.437794e-003
9.437475e-003
9.437149e-003
9.436823e-003
9.436500e-003
9.436186e-003
9.435886e-003
9.435604e-003
9.435345e-003
9.435113e-003
9.434912e-003
9.434746e-003
9.434619e-003
9.434535e-003
9.434496e-003
9.434507e-003
9.434568e-003
9.434682e-003
9.434848e-003
9.435065e-003
9.435329e-003
9.435637e-003
9.435982e-003
9.436356e-003
9.436749e-003
9.437151e-003
9.437551e-003
9.437938e-003
9.438302e-003
9.438635e-003
9.438930e-003
9.439183e-003
9.439394e-003
9.439562e-003
9.439692e-003
9.439787e-003
9.439854e-003
9.439897e-003
9.439923e-003
9.439937e-003
9.439942e-003
9.439942e-003
9.439940e-003
9.439936e-003
9.439933e-003
9.439929e-003
9.439926e-003
9.439924e-003
9.439923e-003
9.439922e-003
9.439921e-003
9.439921e-003
9.439920e-003
9.439920e-003
9.439920e-003
9.439920e-003
9.439920e-003
9.439920e-003
9.439920e-003
9.439920e-003
9.439920e-003
9.439920e-003
9.439920e-003
9.439920e-003
9.439920e-003
9.439920e-003
9.439920e-003
9.439920e-003
9.439920e-003
9.439920e-003
9.439920e-003
9.439921e-003
9.439921e-003
9.439922e-003
9.439923e-003
9.439925e-003
9.439927e-003
9.439931e-003
9.439935e-003
9.439939e-003
9.439944e-003
9.439949e-003
9.439953e-003
9.439953e-003
9.439946e-003
9.439929e-003
9.439896e-003
9.439840e-003
9.439755e-003
9.439633e-003
9.439465e-003
9.439245e-003
9.438967e-003
9.438626e-003
9.438219e-003
9.437748e-003
9.437215e-003
9.436624e-003
9.435984e-003
9.435303e-003
9.434592e-003
9.433862e-003
9.433124e-003
9.432389e-003
9.431668e-003
9.430972e-003
9.430310e-003
9.429692e-003
9.429127e-003
9.428623e-003
9.428188e-003
9.427831e-003
9.427560e-003
9.427381e-003
9.427301e-003
9.427328e-003
9.427464e-003
9.427714e-003
9.428077e-003
9.428552e-003
9.429134e-003
9.429812e-003
9.430575e-003
9.431407e-003
9.432287e-003
9.433194e-003
9.434103e-003
9.434991e-003
9.435835e-003
9.436615e-003
9.437317e-003
9.437928e-003
9.438444e-003
9.438866e-003
9.439199e-003
9.439452e-003
9.439636e-003
9.439763e-003
9.439847e-003
9.439898e-003
9.439926e-003
9.439939e-003
9.439943e-003
9.439942e-003
9.439938e-003
9.439934e-003
9.439931e-003
9.439927e-003
9.439925e-003
9.439923e-003
9.439922e-003
9.439921e-003
9.439921e-003
9.439920e-003
9.439920e-003
9.439920e-003
9.439920e-003
9.439920e-003
9.439920e-003
9.439920e-003
9.439920e-003
9.439920e-003
9.439920e-003
9.439920e-003
9.439920e-003
9.439920e-003
9.439920e-003
9.439920e-003
9.439920e-003
9.439920e-003
9.439921e-003
9.439921e-003
9.439922e-003
9.439924e-003
9.439926e-003
9.439929e-003
9.439933e-003
9.439937e-003
9.439943e-003
9.439949e-003
9.439954e-003
9.439955e-003
9.439951e-003
9.439934e-003
9.439899e-003
9.439834e-003
9.439730e-003
9.439570e-003
9.439339e-003
9.439021e-003
9.438599e-003
9.438059e-003
9.437390e-003
9.436584e-003
9.435639e-003
9.434559e-003
9.433353e-003
9.432035e-003
9.430622e-003
9.429136e-003
9.427600e-003
9.426038e-003
9.424472e-003
9.422927e-003
9.421424e-003
9.419983e-003
9.418622e-003
9.417360e-003
9.416212e-003
9.415194e-003
9.414321e-003
9.413608e-003
9.413069e-003
9.412717e-003
9.412566e-003
9.412626e-003
9.412908e-003
9.413418e-003
9.414158e-003
9.415125e-003
9.416312e-003
9.417703e-003
9.419275e-003
9.420999e-003
9.422838e-003
9.424747e-003
9.426680e-003
9.428586e-003
9.430418e-003
9.432131e-003
9.433690e-003
9.435066e-003
9.436246e-003
9.437226e-003
9.438012e-003
9.438622e-003
9.439077e-003
9.439403e-003
9.439626e-003
9.439771e-003
9.439859e-003
9.439909e-003
9.439933e-003
9.439942e-003
9.439943e-003
9.439940e-003
9.439936e-003
9.439932e-003
9.439928e-003
9.439925e-003
9.439923e-003
9.439922e-003
9.439921e-003
9.439921e-003
9.439920e-003
9.439920e-003
9.439920e-003
9.439920e-003
9.439920e-003
9.439920e-003
9.439920e-003
9.439920e-003
9.439920e-003
9.439920e-003
9.439920e-003
9.439920e-003
9.439920e-003
9.439920e-003
9.439921e-003
9.439921e-003
9.439921e-003
9.439922e-003
9.439924e-003
9.439926e-003
9.439930e-003
9.439934e-003
9.439940e-003
9.439946e-003
9.439953e-003
9.439957e-003
9.439956e-003
9.439945e-003
9.439914e-003
9.439852e-003
9.439741e-003
9.439561e-003
9.439284e-003
9.438881e-003
9.438319e-003
9.437563e-003
9.436582e-003
9.435350e-003
9.433848e-003
9.432067e-003
9.430010e-003
9.427691e-003
9.425138e-003
9.422383e-003
9.419470e-003
9.416445e-003
9.413356e-003
9.410253e-003
9.407180e-003
9.404182e-003
9.401296e-003
9.398557e-003
9.395997e-003
9.393644e-003
9.391523e-003
9.389659e-003
9.388074e-003
9.386791e-003
9.385831e-003
9.385215e-003
9.384965e-003
9.385099e-003
9.385633e-003
9.386581e-003
9.387950e-003
9.389740e-003
9.391943e-003
9.394540e-003
9.397497e-003
9.400769e-003
9.404295e-003
9.408000e-003
9.411798e-003
9.415595e-003
9.419296e-003
9.422809e-003
9.426051e-003
9.428958e-003
9.431487e-003
9.433619e-003
9.435359e-003
9.436731e-003
9.437774e-003
9.438538e-003
9.439075e-003
9.439436e-003
9.439667e-003
9.439807e-003
9.439885e-003
9.439924e-003
9.439940e-003
9.439944e-003
9.439941e-003
9.439937e-003
9.439932e-003
9.439928e-003
9.439925e-003
9.439923e-003
9.439922e-003
9.439921e-003
9.439921e-003
9.439920e-003
9.439920e-003
9.439920e-003
9.439920e-003
9.439920e-003
9.439920e-003
9.439920e-003
9.439920e-003
9.439920e-003
9.439920e-003
9.439920e-003
9.439920e-003
9.439921e-003
9.439921e-003
9.439922e-003
9.439923e-003
9.439924e-003
9.439927e-003
9.439931e-003
9.439936e-003
9.439942e-003
9.439949e-003
9.439956e-003
9.439960e-003
9.439956e-003
9.439935e-003
9.439886e-003
9.439787e-003
9.439613e-003
9.439326e-003
9.438882e-003
9.438224e-003
9.437291e-003
9.436018e-003
9.434340e-003
9.432202e-003
9.429562e-003
9.426395e-003
9.422703e-003
9.418510e-003
9.413867e-003
9.408842e-003
9.403522e-003
9.398000e-003
9.392375e-003
9.386742e-003
9.381190e-003
9.375798e-003
9.370637e-003
9.365762e-003
9.361221e-003
9.357054e-003
9.353293e-003
9.349964e-003
9.347090e-003
9.344693e-003
9.342791e-003
9.341406e-003
9.340557e-003
9.340265e-003
9.340553e-003
9.341443e-003
9.342957e-003
9.345115e-003
9.347932e-003
9.351414e-003
9.355559e-003
9.360343e-003
9.365725e-003
9.371637e-003
9.377982e-003
9.384634e-003
9.391442e-003
9.398234e-003
9.404831e-003
9.411057e-003
9.416761e-003
9.421826e-003
9.426179e-003
9.429796e-003
9.432698e-003
9.434945e-003
9.436621e-003
9.437823e-003
9.438652e-003
9.439198e-003
9.439541e-003
9.439745e-003
9.439857e-003
9.439913e-003
9.439937e-003
9.439944e-003
9.439942e-003
9.439938e-003
9.439933e-003
9.439929e-003
9.439925e-003
9.439923e-003
9.439922e-003
9.439921e-003
9.439921e-003
9.439920e-003
9.439920e-003
9.439920e-003
9.439920e-003
9.439920e-003
9.439920e-003
9.439920e-003
9.439920e-003
9.439920e-003
9.439920e-003
9.439920e-003
9.439921e-003
9.439922e-003
9.439923e-003
9.439925e-003
9.439928e-003
9.439932e-003
9.439937e-003
9.439944e-003
9.439952e-003
9.439959e-003
9.439962e-003
9.439954e-003
9.439923e-003
9.439851e-003
9.439709e-003
9.439454e-003
9.439029e-003
9.438359e-003
9.437350e-003
9.435893e-003
9.433870e-003
9.431161e-003
9.427656e-003
9.423272e-003
9.417961e-003
9.411726e-003
9.404620e-003
9.396751e-003
9.388270e-003
9.379362e-003
9.370227e-003
9.361069e-003
9.352079e-003
9.343426e-003
9.335247e-003
9.327648e-003
9.320704e-003
9.314458e-003
9.308933e-003
9.304131e-003
9.300042e-003
9.296643e-003
9.293908e-003
9.291804e-003
9.290296e-003
9.289353e-003
9.288946e-003
9.289056e-003
9.289674e-003
9.290806e-003
9.292479e-003
9.294737e-003
9.297643e-003
9.301277e-003
9.305729e-003
9.311087e-003
9.317421e-003
9.324770e-003
9.333120e-003
9.342387e-003
9.352408e-003
9.362940e-003
9.373674e-003
9.384259e-003
9.394346e-003
9.403619e-003
9.411836e-003
9.418850e-003
9.424612e-003
9.429168e-003
9.432634e-003
9.435170e-003
9.436951e-003
9.438152e-003
9.438926e-003
9.439402e-003
9.439678e-003
9.439829e-003
9.439903e-003
9.439934e-003
9.439943e-003
9.439943e-003
9.439938e-003
9.439933e-003
9.439929e-003
9.439925e-003
9.439923e-003
9.439922e-003
9.439921e-003
9.439921e-003
9.439920e-003
9.439920e-003
9.439920e-003
9.439920e-003
9.439920e-003
9.439920e-003
9.439920e-003
9.439920e-003
9.439920e-003
9.439920e-003
9.439923e-003
9.439924e-003
9.439926e-003
9.439928e-003
9.439933e-003
9.439938e-003
9.439946e-003
9.439954e-003
9.439961e-003
9.439964e-003
9.439952e-003
9.439911e-003
9.439815e-003
9.439624e-003
9.439276e-003
9.438684e-003
9.437734e-003
9.436274e-003
9.434126e-003
9.431087e-003
9.426948e-003
9.421515e-003
9.414640e-003
9.406251e-003
9.396379e-003
9.385173e-003
9.372900e-003
9.359931e-003
9.346707e-003
9.333699e-003
9.321362e-003
9.310105e-003
9.300250e-003
9.292027e-003
9.285560e-003
9.280876e-003
9.277920e-003
9.276566e-003
9.276642e-003
9.277942e-003
9.280237e-003
9.283285e-003
9.286833e-003
9.290620e-003
9.294384e-003
9.297869e-003
9.300833e-003
9.303064e-003
9.304397e-003
9.304728e-003
9.304040e-003
9.302414e-003
9.300044e-003
9.297242e-003
9.294433e-003
9.292133e-003
9.290915e-003
9.291351e-003
9.293944e-003
9.299050e-003
9.306810e-003
9.317101e-003
9.329532e-003
9.343478e-003
9.358162e-003
9.372766e-003
9.386538e-003
9.398892e-003
9.409456e-003
9.418084e-003
9.424824e-003
9.429868e-003
9.433486e-003
9.435974e-003
9.437613e-003
9.438645e-003
9.439265e-003
9.439617e-003
9.439804e-003
9.439894e-003
9.439932e-003
9.439943e-003
9.439942e-003
9.439938e-003
9.439933e-003
9.439928e-003
9.439925e-003
9.439923e-003
9.439922e-003
9.439921e-003
9.439920e-003
9.439920e-003
9.439920e-003
9.439920e-003
9.439920e-003
9.439920e-003
9.439920e-003
9.439920e-003
9.439920e-003
9.439920e-003
9.439926e-003
9.439927e-003
9.439930e-003
9.439934e-003
9.439940e-003
9.439947e-003
9.439956e-003
9.439964e-003
9.439966e-003
9.439951e-003
9.439901e-003
9.439782e-003
9.439542e-003
9.439095e-003
9.438322e-003
9.437050e-003
9.435056e-003
9.432060e-003
9.427739e-003
9.421750e-003
9.413778e-003
9.403596e-003
9.391135e-003
9.376555e-003
9.360293e-003
9.343073e-003
9.325872e-003
9.309834e-003
9.296163e-003
9.285991e-003
9.280272e-003
9.279695e-003
9.284636e-003
9.295150e-003
9.310991e-003
9.331659e-003
9.356461e-003
9.384572e-003
9.415088e-003
9.447074e-003
9.479580e-003
9.511654e-003
9.542340e-003
9.570676e-003
9.595699e-003
9.616457e-003
9.632040e-003
9.641613e-003
9.644476e-003
9.640122e-003
9.628304e-003
9.609104e-003
9.582993e-003
9.550881e-003
9.514129e-003
9.474534e-003
9.434249e-003
9.395644e-003
9.361105e-003
9.332776e-003
9.312298e-003
9.300577e-003
9.297652e-003
9.302689e-003
9.314131e-003
9.329959e-003
9.348027e-003
9.366379e-003
9.383479e-003
9.398333e-003
9.410479e-003
9.419886e-003
9.426821e-003
9.431700e-003
9.434982e-003
9.437093e-003
9.438390e-003
9.439149e-003
9.439569e-003
9.439787e-003
9.439889e-003
9.439931e-003
9.439943e-003
9.439942e-003
9.439937e-003
9.439932e-003
9.439928e-003
9.439925e-003
9.439923e-003
9.439922e-003
9.439921e-003
9.439920e-003
9.439920e-003
9.439920e-003
9.439920e-003
9.439920e-003
9.439920e-003
9.439920e-003
9.439920e-003
9.439920e-003
9.439930e-003
9.439932e-003
9.439936e-003
9.439941e-003
9.439949e-003
9.439958e-003
9.439966e-003
9.439968e-003
9.439952e-003
9.439896e-003
9.439759e-003
9.439475e-003
9.438936e-003
9.437981e-003
9.436375e-003
9.433798e-003
9.429841e-003
9.424017e-003
9.415803e-003
9.404724e-003
9.390477e-003
9.373095e-003
9.353129e-003
9.331786e-003
9.310991e-003
9.293328e-003
9.281833e-003
9.279699e-003
9.289910e-003
9.314910e-003
9.356343e-003
9.414908e-003
9.490338e-003
9.581469e-003
9.686396e-003
9.802656e-003
9.927433e-003
1.005774e-002
1.019056e-002
1.032294e-002
1.045202e-002
1.057504e-002
1.068926e-002
1.079199e-002
1.088050e-002
1.095211e-002
1.100420e-002
1.103431e-002
1.104029e-002
1.102045e-002
1.097375e-002
1.090000e-002
1.080009e-002
1.067613e-002
1.053160e-002
1.037138e-002
1.020169e-002
1.002977e-002
9.863391e-003
9.710221e-003
9.576979e-003
9.468660e-003
9.387914e-003
9.334751e-003
9.306678e-003
9.299244e-003
9.306884e-003
9.323867e-003
9.345115e-003
9.366742e-003
9.386235e-003
9.402337e-003
9.414749e-003
9.423771e-003
9.429996e-003
9.434089e-003
9.436658e-003
9.438196e-003
9.439072e-003
9.439544e-003
9.439781e-003
9.439889e-003
9.439931e-003
9.439943e-003
9.439942e-003
9.439937e-003
9.439931e-003
9.439927e-003
9.439924e-003
9.439922e-003
9.439921e-003
9.439921e-003
9.439920e-003
9.439920e-003
9.439920e-003
9.439920e-003
9.439920e-003
9.439920e-003
9.439920e-003
9.439920e-003
9.439936e-003
9.439939e-003
9.439944e-003
9.439951e-003
9.439960e-003
9.439969e-003
9.439972e-003
9.439956e-003
9.439897e-003
9.439749e-003
9.439435e-003
9.438822e-003
9.437708e-003
9.435789e-003
9.432636e-003
9.427682e-003
9.420237e-003
9.409547e-003
9.394940e-003
9.376080e-003
9.353316e-003
9.328122e-003
9.303493e-003
9.284195e-003
9.276707e-003
9.288796e-003
9.328750e-003
9.404408e-003
9.522185e-003
9.686289e-003
9.898270e-003
1.015693e-002
1.045856e-002
1.079737e-002
1.116611e-002
1.155661e-002
1.196036e-002
1.236895e-002
1.277437e-002
1.316915e-002
1.354636e-002
1.389946e-002
1.422218e-002
1.450834e-002
1.475173e-002
1.494612e-002
1.508536e-002
1.516353e-002
1.517520e-002
1.511583e-002
1.498219e-002
1.477282e-002
1.448858e-002
1.413320e-002
1.371377e-002
1.324107e-002
1.272965e-002
1.219751e-002
1.166519e-002
1.115433e-002
1.068560e-002
1.027654e-002
9.939392e-003
9.679726e-003
9.495943e-003
9.380050e-003
9.319466e-003
9.299450e-003
9.305554e-003
9.325522e-003
9.350318e-003
9.374244e-003
9.394416e-003
9.409934e-003
9.421060e-003
9.428585e-003
9.433417e-003
9.436372e-003
9.438094e-003
9.439047e-003
9.439545e-003
9.439787e-003
9.439894e-003
9.439934e-003
9.439943e-003
9.439941e-003
9.439936e-003
9.439931e-003
9.439927e-003
9.439924e-003
9.439922e-003
9.439921e-003
9.439920e-003
9.439920e-003
9.439920e-003
9.439920e-003
9.439920e-003
9.439920e-003
9.439920e-003
9.439920e-003
9.439945e-003
9.439948e-003
9.439954e-003
9.439963e-003
9.439972e-003
9.439976e-003
9.439962e-003
9.439905e-003
9.439756e-003
9.439428e-003
9.438770e-003
9.437542e-003
9.435372e-003
9.431716e-003
9.425836e-003
9.416799e-003
9.403577e-003
9.385273e-003
9.361584e-003
9.333519e-003
9.304364e-003
9.280720e-003
9.273288e-003
9.297033e-003
9.370423e-003
9.513676e-003
9.746319e-003
1.008454e-002
1.053895e-002
1.111320e-002
1.180363e-002
1.259993e-002
1.348649e-002
1.444404e-002
1.545135e-002
1.648677e-002
1.752940e-002
1.855995e-002
1.956116e-002
2.051783e-002
2.141656e-002
2.224523e-002
2.299246e-002
2.364714e-002
2.419802e-002
2.463363e-002
2.494225e-002
2.511223e-002
2.513235e-002
2.499247e-002
2.468426e-002
2.420220e-002
2.354466e-002
2.271523e-002
2.172406e-002
2.058921e-002
1.933759e-002
1.800530e-002
1.663673e-002
1.528222e-002
1.399415e-002
1.282171e-002
1.180518e-002
1.097090e-002
1.032807e-002
9.868446e-003
9.569088e-003
9.397584e-003
9.318311e-003
9.298137e-003
9.310294e-003
9.335915e-003
9.363562e-003
9.387561e-003
9.406003e-003
9.419034e-003
9.427660e-003
9.433062e-003
9.436277e-003
9.438098e-003
9.439077e-003
9.439572e-003
9.439805e-003
9.439903e-003
9.439937e-003
9.439943e-003