# vtk DataFile Version 3.0
vtk output
ASCII
DATASET STRUCTURED_POINTS
DIMENSIONS 100 100 1
SPACING 1 1 1
ORIGIN 0 0 0
POINT_DATA 10000
SCALARS SFBox_profile double
LOOKUP_TABLE default 
9.439925e-003
9.439923e-003
9.439921e-003
9.439919e-003
9.439918e-003
9.439919e-003
9.439920e-003
9.439921e-003
9.439921e-003
9.439920e-003
9.439920e-003
9.439920e-003
9.439920e-003
9.439921e-003
9.439920e-003
9.439920e-003
9.439919e-003
9.439919e-003
9.439920e-003
9.439920e-003
9.439920e-003
9.439920e-003
9.439920e-003
9.439921e-003
9.439921e-003
9.439921e-003
9.439921e-003
9.439921e-003
9.439922e-003
9.439922e-003
9.439923e-003
9.439923e-003
9.439924e-003
9.439925e-003
9.439925e-003
9.439926e-003
9.439927e-003
9.439928e-003
9.439928e-003
9.439929e-003
9.439930e-003
9.439931e-003
9.439931e-003
9.439932e-003
9.439932e-003
9.439933e-003
9.439933e-003
9.439933e-003
9.439934e-003
9.439934e-003
9.439934e-003
9.439934e-003
9.439934e-003
9.439934e-003
9.439933e-003
9.439933e-003
9.439933e-003
9.439932e-003
9.439932e-003
9.439931e-003
9.439930e-003
9.439929e-003
9.439929e-003
9.439928e-003
9.439927e-003
9.439926e-003
9.439925e-003
9.439925e-003
9.439924e-003
9.439923e-003
9.439923e-003
9.439922e-003
9.439922e-003
9.439921e-003
9.439921e-003
9.439921e-003
9.439921e-003
9.439920e-003
9.439920e-003
9.439920e-003
9.439920e-003
9.439920e-003
9.439920e-003
9.439920e-003
9.439920e-003
9.439920e-003
9.439920e-003
9.439920e-003
9.439920e-003
9.439920e-003
9.439920e-003
9.439920e-003
9.439920e-003
9.439920e-003
9.439920e-003
9.439920e-003
9.439920e-003
9.439920e-003
9.439920e-003
9.439920e-003
9.439925e-003
9.439923e-003
9.439921e-003
9.439919e-003
9.439918e-003
9.439919e-003
9.439920e-003
9.439921e-003
9.439921e-003
9.439920e-003
9.439920e-003
9.439920e-003
9.439920e-003
9.439921e-003
9.439920e-003
9.439920e-003
9.439919e-003
9.439919e-003
9.439920e-003
9.439920e-003
9.439920e-003
9.439920e-003
9.439920e-003
9.439921e-003
9.439921e-003
9.439921e-003
9.439921e-003
9.439921e-003
9.439922e-003
9.439922e-003
9.439923e-003
9.439923e-003
9.439924e-003
9.439925e-003
9.439925e-003
9.439926e-003
9.439927e-003
9.439928e-003
9.439928e-003
9.439929e-003
9.439930e-003
9.439931e-003
9.439931e-003
9.439932e-003
9.439932e-003
9.439933e-003
9.439933e-003
9.439933e-003
9.439934e-003
9.439934e-003
9.439934e-003
9.439934e-003
9.439934e-003
9.439934e-003
9.439933e-003
9.439933e-003
9.439933e-003
9.439932e-003
9.439932e-003
9.439931e-003
9.439930e-003
9.439929e-003
9.439929e-003
9.439928e-003
9.439927e-003
9.439926e-003
9.439925e-003
9.439925e-003
9.439924e-003
9.439923e-003
9.439923e-003
9.439922e-003
9.439922e-003
9.439921e-003
9.439921e-003
9.439921e-003
9.439921e-003
9.439920e-003
9.439920e-003
9.439920e-003
9.439920e-003
9.439920e-003
9.439920e-003
9.439920e-003
9.439920e-003
9.439920e-003
9.439920e-003
9.439920e-003
9.439920e-003
9.439920e-003
9.439920e-003
9.439920e-003
9.439920e-003
9.439920e-003
9.439920e-003
9.439920e-003
9.439920e-003
9.439920e-003
9.439920e-003
9.439920e-003
9.439921e-003
9.439921e-003
9.439920e-003
9.439920e-003
9.439920e-003
9.439920e-003
9.439920e-003
9.439920e-003
9.439920e-003
9.439920e-003
9.439920e-003
9.439920e-003
9.439920e-003
9.439920e-003
9.439920e-003
9.439920e-003
9.439920e-003
9.439920e-003
9.439920e-003
9.439920e-003
9.439920e-003
9.439920e-003
9.439920e-003
9.439921e-003
9.439921e-003
9.439922e-003
9.439922e-003
9.439922e-003
9.439923e-003
9.439924e-003
9.439924e-003
9.439925e-003
9.439926e-003
9.439927e-003
9.439927e-003
9.439928e-003
9.439929e-003
9.439930e-003
9.439931e-003
9.439932e-003
9.439933e-003
9.439934e-003
9.439934e-003
9.439935e-003
9.439935e-003
9.439936e-003
9.439937e-003
9.439937e-003
9.439937e-003
9.439937e-003
9.439937e-003
9.439937e-003
9.439937e-003
9.439937e-003
9.439937e-003
9.439936e-003
9.439936e-003
9.439936e-003
9.439935e-003
9.439934e-003
9.439933e-003
9.439932e-003
9.439932e-003
9.439931e-003
9.439930e-003
9.439929e-003
9.439928e-003
9.439927e-003
9.439926e-003
9.439925e-003
9.439924e-003
9.439923e-003
9.439923e-003
9.439922e-003
9.439922e-003
9.439921e-003
9.439921e-003
9.439921e-003
9.439920e-003
9.439920e-003
9.439920e-003
9.439920e-003
9.439920e-003
9.439920e-003
9.439920e-003
9.439920e-003
9.439920e-003
9.439920e-003
9.439920e-003
9.439920e-003
9.439920e-003
9.439920e-003
9.439920e-003
9.439920e-003
9.439920e-003
9.439920e-003
9.439920e-003
9.439920e-003
9.439920e-003
9.439920e-003
9.439917e-003
9.439918e-003
9.439919e-003
9.439921e-003
9.439921e-003
9.439921e-003
9.439920e-003
9.439920e-003
9.439920e-003
9.439920e-003
9.439920e-003
9.439920e-003
9.439920e-003
9.439920e-003
9.439920e-003
9.439920e-003
9.439921e-003
9.439921e-003
9.439921e-003
9.439920e-003
9.439920e-003
9.439921e-003
9.439921e-003
9.439921e-003
9.439922e-003
9.439923e-003
9.439924e-003
9.439924e-003
9.439925e-003
9.439927e-003
9.439928e-003
9.439929e-003
9.439930e-003
9.439931e-003
9.439932e-003
9.439934e-003
9.439935e-003
9.439936e-003
9.439937e-003
9.439938e-003
9.439939e-003
9.439940e-003
9.439941e-003
9.439941e-003
9.439942e-003
9.439943e-003
9.439943e-003
9.439943e-003
9.439944e-003
9.439944e-003
9.439944e-003
9.439944e-003
9.439944e-003
9.439943e-003
9.439943e-003
9.439943e-003
9.439942e-003
9.439942e-003
9.439941e-003
9.439940e-003
9.439939e-003
9.439938e-003
9.439937e-003
9.439936e-003
9.439935e-003
9.439934e-003
9.439932e-003
9.439931e-003
9.439930e-003
9.439928e-003
9.439927e-003
9.439926e-003
9.439925e-003
9.439924e-003
9.439923e-003
9.439922e-003
9.439922e-003
9.439921e-003
9.439921e-003
9.439920e-003
9.439920e-003
9.439920e-003
9.439920e-003
9.439920e-003
9.439920e-003
9.439920e-003
9.439920e-003
9.439920e-003
9.439920e-003
9.439920e-003
9.439920e-003
9.439920e-003
9.439920e-003
9.439920e-003
9.439920e-003
9.439920e-003
9.439920e-003
9.439920e-003
9.439920e-003
9.439920e-003
9.439915e-003
9.439917e-003
9.439919e-003
9.439921e-003
9.439922e-003
9.439921e-003
9.439920e-003
9.439919e-003
9.439919e-003
9.439920e-003
9.439920e-003
9.439920e-003
9.439920e-003
9.439919e-003
9.439920e-003
9.439920e-003
9.439921e-003
9.439921e-003
9.439921e-003
9.439921e-003
9.439921e-003
9.439922e-003
9.439923e-003
9.439923e-003
9.439924e-003
9.439925e-003
9.439927e-003
9.439928e-003
9.439930e-003
9.439931e-003
9.439933e-003
9.439935e-003
9.439937e-003
9.439938e-003
9.439940e-003
9.439941e-003
9.439943e-003
9.439944e-003
9.439945e-003
9.439946e-003
9.439946e-003
9.439947e-003
9.439947e-003
9.439948e-003
9.439948e-003
9.439948e-003
9.439948e-003
9.439948e-003
9.439947e-003
9.439947e-003
9.439947e-003
9.439947e-003
9.439947e-003
9.439946e-003
9.439946e-003
9.439946e-003
9.439946e-003
9.439946e-003
9.439946e-003
9.439945e-003
9.439945e-003
9.439944e-003
9.439944e-003
9.439943e-003
9.439942e-003
9.439940e-003
9.439939e-003
9.439937e-003
9.439936e-003
9.439934e-003
9.439932e-003
9.439930e-003
9.439929e-003
9.439927e-003
9.439926e-003
9.439924e-003
9.439923e-003
9.439923e-003
9.439922e-003
9.439921e-003
9.439921e-003
9.439920e-003
9.439920e-003
9.439920e-003
9.439920e-003
9.439920e-003
9.439920e-003
9.439920e-003
9.439920e-003
9.439920e-003
9.439920e-003
9.439920e-003
9.439920e-003
9.439920e-003
9.439920e-003
9.439920e-003
9.439920e-003
9.439920e-003
9.439920e-003
9.439920e-003
9.439917e-003
9.439918e-003
9.439920e-003
9.439921e-003
9.439921e-003
9.439920e-003
9.439919e-003
9.439919e-003
9.439920e-003
9.439921e-003
9.439921e-003
9.439921e-003
9.439920e-003
9.439920e-003
9.439920e-003
9.439920e-003
9.439921e-003
9.439921e-003
9.439921e-003
9.439921e-003
9.439922e-003
9.439924e-003
9.439925e-003
9.439927e-003
9.439928e-003
9.439930e-003
9.439932e-003
9.439934e-003
9.439936e-003
9.439938e-003
9.439940e-003
9.439942e-003
9.439944e-003
9.439946e-003
9.439947e-003
9.439947e-003
9.439947e-003
9.439947e-003
9.439946e-003
9.439945e-003
9.439944e-003
9.439942e-003
9.439940e-003
9.439938e-003
9.439936e-003
9.439933e-003
9.439931e-003
9.439929e-003
9.439928e-003
9.439926e-003
9.439925e-003
9.439925e-003
9.439924e-003
9.439925e-003
9.439925e-003
9.439927e-003
9.439928e-003
9.439930e-003
9.439932e-003
9.439934e-003
9.439936e-003
9.439938e-003
9.439940e-003
9.439942e-003
9.439943e-003
9.439943e-003
9.439943e-003
9.439943e-003
9.439942e-003
9.439940e-003
9.439938e-003
9.439936e-003
9.439934e-003
9.439932e-003
9.439930e-003
9.439928e-003
9.439926e-003
9.439925e-003
9.439924e-003
9.439923e-003
9.439922e-003
9.439921e-003
9.439921e-003
9.439921e-003
9.439920e-003
9.439920e-003
9.439920e-003
9.439920e-003
9.439920e-003
9.439920e-003
9.439920e-003
9.439920e-003
9.439920e-003
9.439920e-003
9.439920e-003
9.439920e-003
9.439920e-003
9.439920e-003
9.439920e-003
9.439920e-003
9.439921e-003
9.439921e-003
9.439921e-003
9.439920e-003
9.439920e-003
9.439919e-003
9.439919e-003
9.439919e-003
9.439920e-003
9.439921e-003
9.439921e-003
9.439921e-003
9.439920e-003
9.439920e-003
9.439920e-003
9.439921e-003
9.439921e-003
9.439922e-003
9.439922e-003
9.439923e-003
9.439925e-003
9.439927e-003
9.439929e-003
9.439931e-003
9.439934e-003
9.439936e-003
9.439939e-003
9.439942e-003
9.439944e-003
9.439946e-003
9.439947e-003
9.439947e-003
9.439946e-003
9.439945e-003
9.439941e-003
9.439937e-003
9.439931e-003
9.439924e-003
9.439916e-003
9.439908e-003
9.439898e-003
9.439888e-003
9.439878e-003
9.439868e-003
9.439859e-003
9.439850e-003
9.439841e-003
9.439834e-003
9.439828e-003
9.439823e-003
9.439820e-003
9.439818e-003
9.439818e-003
9.439820e-003
9.439823e-003
9.439829e-003
9.439836e-003
9.439844e-003
9.439854e-003
9.439864e-003
9.439875e-003
9.439886e-003
9.439897e-003
9.439908e-003
9.439917e-003
9.439925e-003
9.439932e-003
9.439937e-003
9.439940e-003
9.439942e-003
9.439943e-003
9.439942e-003
9.439941e-003
9.439938e-003
9.439936e-003
9.439933e-003
9.439931e-003
9.439929e-003
9.439927e-003
9.439925e-003
9.439924e-003
9.439922e-003
9.439922e-003
9.439921e-003
9.439921e-003
9.439920e-003
9.439920e-003
9.439920e-003
9.439920e-003
9.439920e-003
9.439920e-003
9.439920e-003
9.439920e-003
9.439920e-003
9.439920e-003
9.439920e-003
9.439920e-003
9.439920e-003
9.439920e-003
9.439920e-003
9.439924e-003
9.439922e-003
9.439921e-003
9.439919e-003
9.439919e-003
9.439919e-003
9.439920e-003
9.439920e-003
9.439920e-003
9.439920e-003
9.439920e-003
9.439920e-003
9.439920e-003
9.439921e-003
9.439921e-003
9.439922e-003
9.439922e-003
9.439923e-003
9.439925e-003
9.439927e-003
9.439929e-003
9.439932e-003
9.439935e-003
9.439938e-003
9.439941e-003
9.439944e-003
9.439947e-003
9.439948e-003
9.439947e-003
9.439945e-003
9.439940e-003
9.439932e-003
9.439921e-003
9.439907e-003
9.439889e-003
9.439868e-003
9.439844e-003
9.439817e-003
9.439788e-003
9.439757e-003
9.439725e-003
9.439693e-003
9.439661e-003
9.439630e-003
9.439600e-003
9.439572e-003
9.439547e-003
9.439525e-003
9.439507e-003
9.439493e-003
9.439484e-003
9.439480e-003
9.439481e-003
9.439487e-003
9.439499e-003
9.439516e-003
9.439537e-003
9.439564e-003
9.439594e-003
9.439628e-003
9.439663e-003
9.439700e-003
9.439737e-003
9.439773e-003
9.439807e-003
9.439838e-003
9.439865e-003
9.439889e-003
9.439907e-003
9.439922e-003
9.439932e-003
9.439938e-003
9.439942e-003
9.439943e-003
9.439942e-003
9.439940e-003
9.439937e-003
9.439934e-003
9.439931e-003
9.439929e-003
9.439926e-003
9.439925e-003
9.439923e-003
9.439922e-003
9.439921e-003
9.439921e-003
9.439920e-003
9.439920e-003
9.439920e-003
9.439920e-003
9.439920e-003
9.439920e-003
9.439920e-003
9.439920e-003
9.439920e-003
9.439920e-003
9.439920e-003
9.439920e-003
9.439920e-003
9.439920e-003
9.439924e-003
9.439922e-003
9.439920e-003
9.439918e-003
9.439919e-003
9.439920e-003
9.439921e-003
9.439921e-003
9.439920e-003
9.439920e-003
9.439919e-003
9.439920e-003
9.439921e-003
9.439922e-003
9.439922e-003
9.439923e-003
9.439925e-003
9.439927e-003
9.439929e-003
9.439932e-003
9.439935e-003
9.439939e-003
9.439943e-003
9.439946e-003
9.439948e-003
9.439949e-003
9.439946e-003
9.439940e-003
9.439928e-003
9.439910e-003
9.439885e-003
9.439852e-003
9.439811e-003
9.439761e-003
9.439702e-003
9.439636e-003
9.439562e-003
9.439483e-003
9.439399e-003
9.439312e-003
9.439222e-003
9.439133e-003
9.439046e-003
9.438961e-003
9.438882e-003
9.438808e-003
9.438742e-003
9.438686e-003
9.438639e-003
9.438604e-003
9.438580e-003
9.438570e-003
9.438574e-003
9.438591e-003
9.438623e-003
9.438668e-003
9.438727e-003
9.438798e-003
9.438880e-003
9.438970e-003
9.439068e-003
9.439169e-003
9.439272e-003
9.439374e-003
9.439472e-003
9.439563e-003
9.439646e-003
9.439719e-003
9.439781e-003
9.439831e-003
9.439870e-003
9.439900e-003
9.439920e-003
9.439933e-003
9.439940e-003
9.439943e-003
9.439942e-003
9.439940e-003
9.439937e-003
9.439934e-003
9.439931e-003
9.439928e-003
9.439926e-003
9.439924e-003
9.439923e-003
9.439922e-003
9.439921e-003
9.439921e-003
9.439920e-003
9.439920e-003
9.439920e-003
9.439920e-003
9.439920e-003
9.439920e-003
9.439920e-003
9.439920e-003
9.439920e-003
9.439920e-003
9.439920e-003
9.439920e-003
9.439921e-003
9.439920e-003
9.439919e-003
9.439919e-003
9.439919e-003
9.439921e-003
9.439922e-003
9.439921e-003
9.439920e-003
9.439919e-003
9.439919e-003
9.439920e-003
9.439922e-003
9.439923e-003
9.439924e-003
9.439926e-003
9.439928e-003
9.439931e-003
9.439935e-003
9.439940e-003
9.439944e-003
9.439947e-003
9.439949e-003
9.439949e-003
9.439945e-003
9.439933e-003
9.439913e-003
9.439882e-003
9.439836e-003
9.439774e-003
9.439694e-003
9.439593e-003
9.439473e-003
9.439332e-003
9.439171e-003
9.438993e-003
9.438799e-003
9.438592e-003
9.438376e-003
9.438155e-003
9.437931e-003
9.437709e-003
9.437493e-003
9.437287e-003
9.437093e-003
9.436915e-003
9.436757e-003
9.436621e-003
9.436510e-003
9.436426e-003
9.436372e-003
9.436349e-003
9.436359e-003
9.436402e-003
9.436479e-003
9.436590e-003
9.436733e-003
9.436905e-003
9.437105e-003
9.437328e-003
9.437569e-003
9.437822e-003
9.438080e-003
9.438338e-003
9.438589e-003
9.438826e-003
9.439045e-003
9.439240e-003
9.439411e-003
9.439554e-003
9.439670e-003
9.439761e-003
9.439829e-003
9.439878e-003
9.439910e-003
9.439929e-003
9.439939e-003
9.439943e-003
9.439942e-003
9.439940e-003
9.439936e-003
9.439933e-003
9.439930e-003
9.439927e-003
9.439925e-003
9.439923e-003
9.439922e-003
9.439921e-003
9.439921e-003
9.439920e-003
9.439920e-003
9.439920e-003
9.439920e-003
9.439920e-003
9.439920e-003
9.439920e-003
9.439920e-003
9.439920e-003
9.439920e-003
9.439920e-003
9.439919e-003
9.439919e-003
9.439919e-003
9.439920e-003
9.439920e-003
9.439921e-003
9.439921e-003
9.439921e-003
9.439920e-003
9.439920e-003
9.439920e-003
9.439922e-003
9.439923e-003
9.439925e-003
9.439927e-003
9.439929e-003
9.439933e-003
9.439938e-003
9.439943e-003
9.439948e-003
9.439951e-003
9.439950e-003
9.439945e-003
9.439930e-003
9.439903e-003
9.439857e-003
9.439787e-003
9.439687e-003
9.439553e-003
9.439379e-003
9.439161e-003
9.438897e-003
9.438587e-003
9.438230e-003
9.437832e-003
9.437395e-003
9.436926e-003
9.436432e-003
9.435921e-003
9.435402e-003
9.434882e-003
9.434371e-003
9.433876e-003
9.433406e-003
9.432967e-003
9.432567e-003
9.432212e-003
9.431908e-003
9.431661e-003
9.431476e-003
9.431356e-003
9.431307e-003
9.431331e-003
9.431430e-003
9.431605e-003
9.431855e-003
9.432178e-003
9.432569e-003
9.433023e-003
9.433531e-003
9.434083e-003
9.434666e-003
9.435268e-003
9.435872e-003
9.436465e-003
9.437032e-003
9.437560e-003
9.438040e-003
9.438464e-003
9.438828e-003
9.439129e-003
9.439372e-003
9.439559e-003
9.439699e-003
9.439798e-003
9.439864e-003
9.439906e-003
9.439929e-003
9.439940e-003
9.439943e-003
9.439942e-003
9.439939e-003
9.439935e-003
9.439931e-003
9.439928e-003
9.439925e-003
9.439924e-003
9.439922e-003
9.439921e-003
9.439921e-003
9.439920e-003
9.439920e-003
9.439920e-003
9.439920e-003
9.439920e-003
9.439920e-003
9.439920e-003
9.439920e-003
9.439920e-003
9.439920e-003
9.439918e-003
9.439919e-003
9.439920e-003
9.439921e-003
9.439921e-003
9.439920e-003
9.439920e-003
9.439920e-003
9.439920e-003
9.439921e-003
9.439922e-003
9.439924e-003
9.439926e-003
9.439928e-003
9.439931e-003
9.439935e-003
9.439941e-003
9.439946e-003
9.439951e-003
9.439953e-003
9.439948e-003
9.439933e-003
9.439902e-003
9.439845e-003
9.439755e-003
9.439618e-003
9.439423e-003
9.439159e-003
9.438813e-003
9.438377e-003
9.437843e-003
9.437207e-003
9.436471e-003
9.435639e-003
9.434719e-003
9.433723e-003
9.432667e-003
9.431565e-003
9.430437e-003
9.429299e-003
9.428171e-003
9.427069e-003
9.426009e-003
9.425008e-003
9.424080e-003
9.423239e-003
9.422496e-003
9.421863e-003
9.421350e-003
9.420968e-003
9.420724e-003
9.420625e-003
9.420679e-003
9.420889e-003
9.421257e-003
9.421783e-003
9.422462e-003
9.423289e-003
9.424251e-003
9.425333e-003
9.426514e-003
9.427772e-003
9.429077e-003
9.430400e-003
9.431709e-003
9.432975e-003
9.434167e-003
9.435263e-003
9.436243e-003
9.437095e-003
9.437814e-003
9.438402e-003
9.438868e-003
9.439223e-003
9.439484e-003
9.439667e-003
9.439789e-003
9.439866e-003
9.439910e-003
9.439933e-003
9.439942e-003
9.439943e-003
9.439941e-003
9.439937e-003
9.439932e-003
9.439929e-003
9.439926e-003
9.439924e-003
9.439923e-003
9.439922e-003
9.439921e-003
9.439920e-003
9.439920e-003
9.439920e-003
9.439920e-003
9.439920e-003
9.439920e-003
9.439920e-003
9.439920e-003
9.439920e-003
9.439918e-003
9.439919e-003
9.439921e-003
9.439922e-003
9.439921e-003
9.439920e-003
9.439919e-003
9.439920e-003
9.439921e-003
9.439923e-003
9.439925e-003
9.439926e-003
9.439929e-003
9.439933e-003
9.439938e-003
9.439944e-003
9.439950e-003
9.439954e-003
9.439953e-003
9.439941e-003
9.439912e-003
9.439854e-003
9.439753e-003
9.439592e-003
9.439348e-003
9.438998e-003
9.438515e-003
9.437877e-003
9.437060e-003
9.436048e-003
9.434829e-003
9.433400e-003
9.431768e-003
9.429948e-003
9.427963e-003
9.425839e-003
9.423612e-003
9.421317e-003
9.418990e-003
9.416670e-003
9.414390e-003
9.412184e-003
9.410082e-003
9.408112e-003
9.406300e-003
9.404667e-003
9.403236e-003
9.402024e-003
9.401048e-003
9.400325e-003
9.399868e-003
9.399691e-003
9.399803e-003
9.400214e-003
9.400927e-003
9.401945e-003
9.403263e-003
9.404870e-003
9.406750e-003
9.408877e-003
9.411218e-003
9.413729e-003
9.416361e-003
9.419057e-003
9.421755e-003
9.424393e-003
9.426909e-003
9.429251e-003
9.431374e-003
9.433245e-003
9.434847e-003
9.436179e-003
9.437250e-003
9.438084e-003
9.438709e-003
9.439161e-003
9.439473e-003
9.439680e-003
9.439808e-003
9.439883e-003
9.439922e-003
9.439939e-003
9.439944e-003
9.439942e-003
9.439938e-003
9.439934e-003
9.439930e-003
9.439926e-003
9.439924e-003
9.439923e-003
9.439922e-003
9.439921e-003
9.439920e-003
9.439920e-003
9.439920e-003
9.439920e-003
9.439920e-003
9.439920e-003
9.439920e-003
9.439920e-003
9.439918e-003
9.439919e-003
9.439921e-003
9.439922e-003
9.439921e-003
9.439920e-003
9.439919e-003
9.439921e-003
9.439923e-003
9.439925e-003
9.439927e-003
9.439930e-003
9.439934e-003
9.439940e-003
9.439947e-003
9.439953e-003
9.439956e-003
9.439951e-003
9.439930e-003
9.439881e-003
9.439787e-003
9.439623e-003
9.439358e-003
9.438954e-003
9.438365e-003
9.437543e-003
9.436437e-003
9.435000e-003
9.433194e-003
9.430991e-003
9.428380e-003
9.425368e-003
9.421982e-003
9.418262e-003
9.414266e-003
9.410061e-003
9.405718e-003
9.401311e-003
9.396913e-003
9.392593e-003
9.388411e-003
9.384422e-003
9.380675e-003
9.377211e-003
9.374063e-003
9.371263e-003
9.368835e-003
9.366802e-003
9.365184e-003
9.364001e-003
9.363270e-003
9.363007e-003
9.363227e-003
9.363945e-003
9.365170e-003
9.366911e-003
9.369167e-003
9.371933e-003
9.375193e-003
9.378919e-003
9.383067e-003
9.387580e-003
9.392381e-003
9.397378e-003
9.402464e-003
9.407523e-003
9.412436e-003
9.417088e-003
9.421378e-003
9.425225e-003
9.428575e-003
9.431405e-003
9.433720e-003
9.435552e-003
9.436952e-003
9.437984e-003
9.438715e-003
9.439212e-003
9.439534e-003
9.439733e-003
9.439847e-003
9.439907e-003
9.439934e-003
9.439943e-003
9.439943e-003
9.439939e-003
9.439935e-003
9.439930e-003
9.439927e-003
9.439924e-003
9.439923e-003
9.439922e-003
9.439921e-003
9.439920e-003
9.439920e-003
9.439920e-003
9.439920e-003
9.439920e-003
9.439920e-003
9.439920e-003
9.439918e-003
9.439919e-003
9.439920e-003
9.439921e-003
9.439921e-003
9.439921e-003
9.439921e-003
9.439923e-003
9.439925e-003
9.439927e-003
9.439930e-003
9.439935e-003
9.439941e-003
9.439948e-003
9.439955e-003
9.439957e-003
9.439947e-003
9.439915e-003
9.439842e-003
9.439701e-003
9.439455e-003
9.439051e-003
9.438425e-003
9.437496e-003
9.436177e-003
9.434372e-003
9.431989e-003
9.428948e-003
9.425192e-003
9.420694e-003
9.415465e-003
9.409555e-003
9.403050e-003
9.396068e-003
9.388746e-003
9.381234e-003
9.373679e-003
9.366222e-003
9.358990e-003
9.352090e-003
9.345608e-003
9.339612e-003
9.334150e-003
9.329253e-003
9.324939e-003
9.321216e-003
9.318085e-003
9.315544e-003
9.313590e-003
9.312221e-003
9.311436e-003
9.311241e-003
9.311644e-003
9.312660e-003
9.314308e-003
9.316612e-003
9.319601e-003
9.323303e-003
9.327741e-003
9.332931e-003
9.338870e-003
9.345530e-003
9.352849e-003
9.360725e-003
9.369018e-003
9.377544e-003
9.386095e-003
9.394441e-003
9.402361e-003
9.409655e-003
9.416164e-003
9.421787e-003
9.426483e-003
9.430272e-003
9.433222e-003
9.435436e-003
9.437036e-003
9.438148e-003
9.438889e-003
9.439360e-003
9.439645e-003
9.439806e-003
9.439890e-003
9.439929e-003
9.439942e-003
9.439944e-003
9.439940e-003
9.439935e-003
9.439930e-003
9.439927e-003
9.439924e-003
9.439923e-003
9.439921e-003
9.439921e-003
9.439920e-003
9.439920e-003
9.439920e-003
9.439920e-003
9.439920e-003
9.439920e-003
9.439920e-003
9.439920e-003
9.439920e-003
9.439920e-003
9.439921e-003
9.439922e-003
9.439923e-003
9.439925e-003
9.439927e-003
9.439931e-003
9.439936e-003
9.439942e-003
9.439950e-003
9.439957e-003
9.439958e-003
9.439943e-003
9.439899e-003
9.439798e-003
9.439604e-003
9.439259e-003
9.438683e-003
9.437770e-003
9.436392e-003
9.434394e-003
9.431611e-003
9.427876e-003
9.423040e-003
9.416996e-003
9.409702e-003
9.401190e-003
9.391584e-003
9.381084e-003
9.369961e-003
9.358527e-003
9.347110e-003
9.336024e-003
9.325550e-003
9.315918e-003
9.307296e-003
9.299793e-003
9.293457e-003
9.288281e-003
9.284214e-003
9.281168e-003
9.279028e-003
9.277661e-003
9.276929e-003
9.276696e-003
9.276833e-003
9.277225e-003
9.277774e-003
9.278406e-003
9.279075e-003
9.279768e-003
9.280509e-003
9.281365e-003
9.282452e-003
9.283929e-003
9.285997e-003
9.288883e-003
9.292820e-003
9.298018e-003
9.304635e-003
9.312742e-003
9.322300e-003
9.333141e-003
9.344975e-003
9.357402e-003
9.369956e-003
9.382151e-003
9.393543e-003
9.403772e-003
9.412600e-003
9.419925e-003
9.425768e-003
9.430249e-003
9.433553e-003
9.435894e-003
9.437487e-003
9.438525e-003
9.439171e-003
9.439553e-003
9.439765e-003
9.439874e-003
9.439923e-003
9.439941e-003
9.439944e-003
9.439940e-003
9.439935e-003
9.439930e-003
9.439927e-003
9.439924e-003
9.439922e-003
9.439921e-003
9.439921e-003
9.439920e-003
9.439920e-003
9.439920e-003
9.439920e-003
9.439920e-003
9.439922e-003
9.439921e-003
9.439920e-003
9.439920e-003
9.439921e-003
9.439923e-003
9.439925e-003
9.439927e-003
9.439931e-003
9.439936e-003
9.439943e-003
9.439952e-003
9.439959e-003
9.439958e-003
9.439940e-003
9.439884e-003
9.439757e-003
9.439507e-003
9.439052e-003
9.438279e-003
9.437028e-003
9.435096e-003
9.432239e-003
9.428181e-003
9.422641e-003
9.415369e-003
9.406196e-003
9.395085e-003
9.382171e-003
9.367790e-003
9.352474e-003
9.336908e-003
9.321875e-003
9.308173e-003
9.296540e-003
9.287582e-003
9.281733e-003
9.279234e-003
9.280132e-003
9.284294e-003
9.291438e-003
9.301151e-003
9.312924e-003
9.326178e-003
9.340293e-003
9.354634e-003
9.368577e-003
9.381526e-003
9.392927e-003
9.402281e-003
9.409156e-003
9.413197e-003
9.414142e-003
9.411841e-003
9.406285e-003
9.397626e-003
9.386207e-003
9.372574e-003
9.357477e-003
9.341849e-003
9.326757e-003
9.313323e-003
9.302628e-003
9.295600e-003
9.292899e-003
9.294829e-003
9.301282e-003
9.311735e-003
9.325311e-003
9.340893e-003
9.357278e-003
9.373336e-003
9.388145e-003
9.401075e-003
9.411807e-003
9.420304e-003
9.426734e-003
9.431394e-003
9.434629e-003
9.436783e-003
9.438154e-003
9.438987e-003
9.439469e-003
9.439730e-003
9.439861e-003
9.439920e-003
9.439941e-003
9.439944e-003
9.439940e-003
9.439935e-003
9.439930e-003
9.439926e-003
9.439924e-003
9.439922e-003
9.439921e-003
9.439921e-003
9.439920e-003
9.439920e-003
9.439920e-003
9.439920e-003
9.439924e-003
9.439922e-003
9.439920e-003
9.439920e-003
9.439922e-003
9.439924e-003
9.439927e-003
9.439931e-003
9.439936e-003
9.439943e-003
9.439952e-003
9.439960e-003
9.439960e-003
9.439939e-003
9.439874e-003
9.439724e-003
9.439422e-003
9.438861e-003
9.437882e-003
9.436262e-003
9.433704e-003
9.429837e-003
9.424234e-003
9.416454e-003
9.406110e-003
9.392981e-003
9.377123e-003
9.358994e-003
9.339530e-003
9.320150e-003
9.302685e-003
9.289203e-003
9.281798e-003
9.282355e-003
9.292347e-003
9.312701e-003
9.343732e-003
9.385159e-003
9.436174e-003
9.495530e-003
9.561646e-003
9.632697e-003
9.706697e-003
9.781574e-003
9.855234e-003
9.925625e-003
9.990783e-003
1.004887e-002
1.009818e-002
1.013720e-002
1.016457e-002
1.017915e-002
1.018004e-002
1.016665e-002
1.013876e-002
1.009663e-002
1.004106e-002
9.973510e-003
9.896126e-003
9.811718e-003
9.723681e-003
9.635825e-003
9.552113e-003
9.476347e-003
9.411811e-003
9.360928e-003
9.324989e-003
9.303998e-003
9.296694e-003
9.300764e-003
9.313211e-003
9.330820e-003
9.350601e-003
9.370131e-003
9.387741e-003
9.402517e-003
9.414182e-003
9.422910e-003
9.429129e-003
9.433359e-003
9.436110e-003
9.437820e-003
9.438834e-003
9.439405e-003
9.439707e-003
9.439854e-003
9.439919e-003
9.439941e-003
9.439944e-003
9.439940e-003
9.439934e-003
9.439929e-003
9.439926e-003
9.439923e-003
9.439922e-003
9.439921e-003
9.439920e-003
9.439920e-003
9.439920e-003
9.439920e-003
9.439924e-003
9.439923e-003
9.439921e-003
9.439921e-003
9.439923e-003
9.439927e-003
9.439931e-003
9.439936e-003
9.439943e-003
9.439952e-003
9.439961e-003
9.439962e-003
9.439941e-003
9.439871e-003
9.439706e-003
9.439364e-003
9.438711e-003
9.437543e-003
9.435561e-003
9.432356e-003
9.427399e-003
9.420068e-003
9.409709e-003
9.395776e-003
9.378041e-003
9.356874e-003
9.333542e-003
9.310457e-003
9.291261e-003
9.280686e-003
9.284163e-003
9.307240e-003
9.354913e-003
9.431026e-003
9.537830e-003
9.675786e-003
9.843601e-003
1.003844e-002
1.025626e-002
1.049217e-002
1.074072e-002
1.099618e-002
1.125271e-002
1.150452e-002
1.174603e-002
1.197191e-002
1.217718e-002
1.235726e-002
1.250797e-002
1.262552e-002
1.270653e-002
1.274805e-002
1.274765e-002
1.270352e-002
1.261471e-002
1.248132e-002
1.230484e-002
1.208836e-002
1.183682e-002
1.155707e-002
1.125784e-002
1.094940e-002
1.064306e-002
1.035043e-002
1.008249e-002
9.848561e-003
9.655376e-003
9.506314e-003
9.401076e-003
9.335876e-003
9.304183e-003
9.297851e-003
9.308418e-003
9.328256e-003
9.351351e-003
9.373611e-003
9.392752e-003
9.407902e-003
9.419128e-003
9.426991e-003
9.432228e-003
9.435554e-003
9.437570e-003
9.438735e-003
9.439372e-003
9.439700e-003
9.439855e-003
9.439920e-003
9.439941e-003
9.439944e-003
9.439939e-003
9.439933e-003
9.439928e-003
9.439925e-003
9.439923e-003
9.439922e-003
9.439921e-003
9.439920e-003
9.439920e-003
9.439920e-003
9.439922e-003
9.439922e-003
9.439922e-003
9.439923e-003
9.439926e-003
9.439930e-003
9.439935e-003
9.439942e-003
9.439951e-003
9.439960e-003
9.439963e-003
9.439944e-003
9.439876e-003
9.439706e-003
9.439342e-003
9.438626e-003
9.437310e-003
9.435018e-003
9.431216e-003
9.425195e-003
9.416093e-003
9.403000e-003
9.385192e-003
9.362536e-003
9.336096e-003
9.308853e-003
9.286393e-003
9.277297e-003
9.293000e-003
9.346965e-003
9.453256e-003
9.624760e-003
9.871463e-003
1.019913e-002
1.060865e-002
1.109604e-002
1.165314e-002
1.226854e-002
1.292876e-002
1.361926e-002
1.432520e-002
1.503202e-002
1.572579e-002
1.639334e-002
1.702246e-002
1.760196e-002
1.812165e-002
1.857231e-002
1.894563e-002
1.923404e-002
1.943068e-002
1.952933e-002
1.952453e-002
1.941181e-002
1.918807e-002
1.885217e-002
1.840556e-002
1.785301e-002
1.720331e-002
1.646979e-002
1.567053e-002
1.482819e-002
1.396925e-002
1.312271e-002
1.231813e-002
1.158321e-002
1.094103e-002
1.040758e-002
9.989858e-003
9.685295e-003
9.482646e-003
9.364285e-003
9.309391e-003
9.297256e-003
9.309953e-003
9.333865e-003
9.360010e-003
9.383429e-003
9.402098e-003
9.415807e-003
9.425242e-003
9.431387e-003
9.435195e-003
9.437442e-003
9.438704e-003
9.439375e-003