# vtk DataFile Version 3.0
vtk output
ASCII
DATASET STRUCTURED_POINTS
DIMENSIONS 100 100 1
SPACING 1 1 1
ORIGIN 0 0 0
POINT_DATA 10000
SCALARS SFBox_profile double
LOOKUP_TABLE default 
9.439935e-003
9.439930e-003
9.439922e-003
9.439916e-003
9.439915e-003
9.439917e-003
9.439920e-003
9.439922e-003
9.439921e-003
9.439920e-003
9.439919e-003
9.439920e-003
9.439922e-003
9.439922e-003
9.439920e-003
9.439918e-003
9.439917e-003
9.439918e-003
9.439920e-003
9.439921e-003
9.439921e-003
9.439920e-003
9.439920e-003
9.439921e-003
9.439922e-003
9.439922e-003
9.439921e-003
9.439921e-003
9.439921e-003
9.439922e-003
9.439923e-003
9.439923e-003
9.439924e-003
9.439924e-003
9.439925e-003
9.439927e-003
9.439928e-003
9.439928e-003
9.439929e-003
9.439930e-003
9.439931e-003
9.439932e-003
9.439932e-003
9.439933e-003
9.439933e-003
9.439934e-003
9.439934e-003
9.439935e-003
9.439935e-003
9.439935e-003
9.439935e-003
9.439935e-003
9.439935e-003
9.439935e-003
9.439934e-003
9.439934e-003
9.439933e-003
9.439933e-003
9.439932e-003
9.439931e-003
9.439931e-003
9.439930e-003
9.439929e-003
9.439928e-003
9.439927e-003
9.439926e-003
9.439925e-003
9.439924e-003
9.439924e-003
9.439923e-003
9.439923e-003
9.439922e-003
9.439921e-003
9.439921e-003
9.439921e-003
9.439921e-003
9.439921e-003
9.439921e-003
9.439920e-003
9.439920e-003
9.439921e-003
9.439921e-003
9.439920e-003
9.439919e-003
9.439919e-003
9.439919e-003
9.439920e-003
9.439921e-003
9.439921e-003
9.439920e-003
9.439920e-003
9.439920e-003
9.439920e-003
9.439920e-003
9.439920e-003
9.439919e-003
9.439919e-003
9.439920e-003
9.439920e-003
9.439921e-003
9.439935e-003
9.439930e-003
9.439922e-003
9.439916e-003
9.439915e-003
9.439917e-003
9.439920e-003
9.439922e-003
9.439921e-003
9.439920e-003
9.439919e-003
9.439920e-003
9.439922e-003
9.439922e-003
9.439920e-003
9.439918e-003
9.439917e-003
9.439918e-003
9.439920e-003
9.439921e-003
9.439921e-003
9.439920e-003
9.439920e-003
9.439921e-003
9.439922e-003
9.439922e-003
9.439921e-003
9.439921e-003
9.439921e-003
9.439922e-003
9.439923e-003
9.439923e-003
9.439924e-003
9.439924e-003
9.439925e-003
9.439927e-003
9.439928e-003
9.439928e-003
9.439929e-003
9.439930e-003
9.439931e-003
9.439932e-003
9.439932e-003
9.439933e-003
9.439933e-003
9.439934e-003
9.439934e-003
9.439935e-003
9.439935e-003
9.439935e-003
9.439935e-003
9.439935e-003
9.439935e-003
9.439935e-003
9.439934e-003
9.439934e-003
9.439933e-003
9.439933e-003
9.439932e-003
9.439931e-003
9.439931e-003
9.439930e-003
9.439929e-003
9.439928e-003
9.439927e-003
9.439926e-003
9.439925e-003
9.439924e-003
9.439924e-003
9.439923e-003
9.439923e-003
9.439922e-003
9.439921e-003
9.439921e-003
9.439921e-003
9.439921e-003
9.439921e-003
9.439921e-003
9.439920e-003
9.439920e-003
9.439921e-003
9.439921e-003
9.439920e-003
9.439919e-003
9.439919e-003
9.439919e-003
9.439920e-003
9.439921e-003
9.439921e-003
9.439920e-003
9.439920e-003
9.439920e-003
9.439920e-003
9.439920e-003
9.439920e-003
9.439919e-003
9.439919e-003
9.439920e-003
9.439920e-003
9.439921e-003
9.439924e-003
9.439922e-003
9.439920e-003
9.439918e-003
9.439919e-003
9.439920e-003
9.439921e-003
9.439921e-003
9.439921e-003
9.439919e-003
9.439919e-003
9.439919e-003
9.439920e-003
9.439921e-003
9.439920e-003
9.439920e-003
9.439919e-003
9.439920e-003
9.439921e-003
9.439921e-003
9.439921e-003
9.439920e-003
9.439920e-003
9.439920e-003
9.439921e-003
9.439922e-003
9.439922e-003
9.439922e-003
9.439923e-003
9.439924e-003
9.439925e-003
9.439925e-003
9.439926e-003
9.439927e-003
9.439928e-003
9.439929e-003
9.439930e-003
9.439930e-003
9.439931e-003
9.439932e-003
9.439933e-003
9.439934e-003
9.439934e-003
9.439935e-003
9.439935e-003
9.439936e-003
9.439936e-003
9.439937e-003
9.439937e-003
9.439937e-003
9.439937e-003
9.439937e-003
9.439937e-003
9.439937e-003
9.439937e-003
9.439936e-003
9.439936e-003
9.439935e-003
9.439935e-003
9.439934e-003
9.439933e-003
9.439932e-003
9.439931e-003
9.439930e-003
9.439930e-003
9.439929e-003
9.439928e-003
9.439926e-003
9.439926e-003
9.439925e-003
9.439924e-003
9.439923e-003
9.439922e-003
9.439922e-003
9.439921e-003
9.439921e-003
9.439921e-003
9.439920e-003
9.439920e-003
9.439920e-003
9.439920e-003
9.439920e-003
9.439920e-003
9.439920e-003
9.439920e-003
9.439920e-003
9.439920e-003
9.439920e-003
9.439920e-003
9.439920e-003
9.439920e-003
9.439920e-003
9.439920e-003
9.439920e-003
9.439920e-003
9.439920e-003
9.439920e-003
9.439920e-003
9.439920e-003
9.439920e-003
9.439910e-003
9.439913e-003
9.439918e-003
9.439922e-003
9.439923e-003
9.439922e-003
9.439921e-003
9.439920e-003
9.439919e-003
9.439919e-003
9.439919e-003
9.439919e-003
9.439919e-003
9.439919e-003
9.439920e-003
9.439921e-003
9.439922e-003
9.439921e-003
9.439921e-003
9.439921e-003
9.439920e-003
9.439920e-003
9.439921e-003
9.439921e-003
9.439921e-003
9.439922e-003
9.439923e-003
9.439924e-003
9.439926e-003
9.439927e-003
9.439928e-003
9.439929e-003
9.439930e-003
9.439931e-003
9.439933e-003
9.439934e-003
9.439935e-003
9.439936e-003
9.439937e-003
9.439938e-003
9.439938e-003
9.439939e-003
9.439940e-003
9.439940e-003
9.439941e-003
9.439942e-003
9.439942e-003
9.439942e-003
9.439943e-003
9.439943e-003
9.439943e-003
9.439943e-003
9.439943e-003
9.439942e-003
9.439942e-003
9.439942e-003
9.439941e-003
9.439941e-003
9.439940e-003
9.439940e-003
9.439939e-003
9.439938e-003
9.439937e-003
9.439936e-003
9.439935e-003
9.439933e-003
9.439932e-003
9.439931e-003
9.439930e-003
9.439928e-003
9.439927e-003
9.439926e-003
9.439925e-003
9.439924e-003
9.439923e-003
9.439922e-003
9.439921e-003
9.439921e-003
9.439920e-003
9.439920e-003
9.439920e-003
9.439920e-003
9.439920e-003
9.439921e-003
9.439921e-003
9.439921e-003
9.439920e-003
9.439920e-003
9.439920e-003
9.439919e-003
9.439920e-003
9.439920e-003
9.439920e-003
9.439920e-003
9.439920e-003
9.439921e-003
9.439921e-003
9.439920e-003
9.439920e-003
9.439919e-003
9.439904e-003
9.439910e-003
9.439918e-003
9.439924e-003
9.439925e-003
9.439923e-003
9.439919e-003
9.439918e-003
9.439919e-003
9.439920e-003
9.439921e-003
9.439920e-003
9.439919e-003
9.439918e-003
9.439920e-003
9.439921e-003
9.439922e-003
9.439921e-003
9.439920e-003
9.439920e-003
9.439921e-003
9.439922e-003
9.439923e-003
9.439923e-003
9.439924e-003
9.439925e-003
9.439926e-003
9.439928e-003
9.439930e-003
9.439932e-003
9.439933e-003
9.439935e-003
9.439937e-003
9.439939e-003
9.439940e-003
9.439941e-003
9.439943e-003
9.439944e-003
9.439945e-003
9.439946e-003
9.439946e-003
9.439947e-003
9.439947e-003
9.439947e-003
9.439947e-003
9.439947e-003
9.439947e-003
9.439947e-003
9.439947e-003
9.439947e-003
9.439947e-003
9.439946e-003
9.439946e-003
9.439946e-003
9.439946e-003
9.439946e-003
9.439946e-003
9.439946e-003
9.439945e-003
9.439945e-003
9.439945e-003
9.439944e-003
9.439944e-003
9.439943e-003
9.439941e-003
9.439940e-003
9.439939e-003
9.439937e-003
9.439935e-003
9.439934e-003
9.439932e-003
9.439930e-003
9.439929e-003
9.439927e-003
9.439925e-003
9.439924e-003
9.439923e-003
9.439922e-003
9.439922e-003
9.439921e-003
9.439920e-003
9.439920e-003
9.439920e-003
9.439921e-003
9.439921e-003
9.439921e-003
9.439920e-003
9.439920e-003
9.439920e-003
9.439920e-003
9.439920e-003
9.439920e-003
9.439920e-003
9.439920e-003
9.439920e-003
9.439921e-003
9.439921e-003
9.439920e-003
9.439920e-003
9.439919e-003
9.439910e-003
9.439915e-003
9.439920e-003
9.439924e-003
9.439924e-003
9.439920e-003
9.439917e-003
9.439917e-003
9.439919e-003
9.439922e-003
9.439923e-003
9.439922e-003
9.439919e-003
9.439918e-003
9.439919e-003
9.439921e-003
9.439921e-003
9.439921e-003
9.439920e-003
9.439920e-003
9.439922e-003
9.439924e-003
9.439926e-003
9.439927e-003
9.439928e-003
9.439929e-003
9.439932e-003
9.439935e-003
9.439937e-003
9.439938e-003
9.439940e-003
9.439942e-003
9.439944e-003
9.439946e-003
9.439947e-003
9.439947e-003
9.439947e-003
9.439947e-003
9.439947e-003
9.439945e-003
9.439944e-003
9.439942e-003
9.439940e-003
9.439937e-003
9.439935e-003
9.439933e-003
9.439930e-003
9.439928e-003
9.439927e-003
9.439925e-003
9.439924e-003
9.439924e-003
9.439924e-003
9.439924e-003
9.439925e-003
9.439927e-003
9.439928e-003
9.439930e-003
9.439932e-003
9.439935e-003
9.439937e-003
9.439939e-003
9.439941e-003
9.439942e-003
9.439943e-003
9.439943e-003
9.439943e-003
9.439943e-003
9.439942e-003
9.439940e-003
9.439938e-003
9.439936e-003
9.439934e-003
9.439932e-003
9.439930e-003
9.439928e-003
9.439926e-003
9.439925e-003
9.439924e-003
9.439923e-003
9.439922e-003
9.439921e-003
9.439920e-003
9.439920e-003
9.439920e-003
9.439920e-003
9.439920e-003
9.439920e-003
9.439920e-003
9.439920e-003
9.439921e-003
9.439920e-003
9.439920e-003
9.439919e-003
9.439919e-003
9.439920e-003
9.439921e-003
9.439920e-003
9.439920e-003
9.439920e-003
9.439922e-003
9.439922e-003
9.439922e-003
9.439922e-003
9.439920e-003
9.439918e-003
9.439917e-003
9.439917e-003
9.439920e-003
9.439922e-003
9.439923e-003
9.439922e-003
9.439920e-003
9.439919e-003
9.439920e-003
9.439921e-003
9.439921e-003
9.439921e-003
9.439921e-003
9.439922e-003
9.439925e-003
9.439928e-003
9.439930e-003
9.439932e-003
9.439933e-003
9.439936e-003
9.439939e-003
9.439942e-003
9.439944e-003
9.439945e-003
9.439946e-003
9.439947e-003
9.439946e-003
9.439944e-003
9.439941e-003
9.439936e-003
9.439930e-003
9.439923e-003
9.439914e-003
9.439905e-003
9.439895e-003
9.439884e-003
9.439873e-003
9.439863e-003
9.439853e-003
9.439843e-003
9.439834e-003
9.439827e-003
9.439821e-003
9.439816e-003
9.439813e-003
9.439812e-003
9.439813e-003
9.439816e-003
9.439820e-003
9.439826e-003
9.439834e-003
9.439844e-003
9.439854e-003
9.439865e-003
9.439876e-003
9.439888e-003
9.439899e-003
9.439910e-003
9.439919e-003
9.439927e-003
9.439933e-003
9.439938e-003
9.439941e-003
9.439942e-003
9.439942e-003
9.439942e-003
9.439940e-003
9.439938e-003
9.439936e-003
9.439933e-003
9.439931e-003
9.439929e-003
9.439927e-003
9.439925e-003
9.439924e-003
9.439922e-003
9.439921e-003
9.439921e-003
9.439920e-003
9.439920e-003
9.439920e-003
9.439920e-003
9.439920e-003
9.439921e-003
9.439921e-003
9.439921e-003
9.439920e-003
9.439919e-003
9.439919e-003
9.439920e-003
9.439920e-003
9.439920e-003
9.439920e-003
9.439920e-003
9.439930e-003
9.439927e-003
9.439922e-003
9.439918e-003
9.439917e-003
9.439918e-003
9.439920e-003
9.439920e-003
9.439921e-003
9.439921e-003
9.439921e-003
9.439921e-003
9.439921e-003
9.439920e-003
9.439921e-003
9.439921e-003
9.439922e-003
9.439923e-003
9.439925e-003
9.439927e-003
9.439929e-003
9.439932e-003
9.439935e-003
9.439938e-003
9.439941e-003
9.439944e-003
9.439947e-003
9.439948e-003
9.439948e-003
9.439945e-003
9.439940e-003
9.439932e-003
9.439921e-003
9.439906e-003
9.439887e-003
9.439864e-003
9.439839e-003
9.439811e-003
9.439780e-003
9.439747e-003
9.439712e-003
9.439678e-003
9.439644e-003
9.439611e-003
9.439579e-003
9.439550e-003
9.439524e-003
9.439502e-003
9.439485e-003
9.439472e-003
9.439464e-003
9.439462e-003
9.439465e-003
9.439473e-003
9.439488e-003
9.439507e-003
9.439532e-003
9.439561e-003
9.439594e-003
9.439629e-003
9.439666e-003
9.439705e-003
9.439742e-003
9.439779e-003
9.439813e-003
9.439843e-003
9.439870e-003
9.439893e-003
9.439911e-003
9.439924e-003
9.439933e-003
9.439939e-003
9.439942e-003
9.439943e-003
9.439942e-003
9.439939e-003
9.439936e-003
9.439933e-003
9.439931e-003
9.439929e-003
9.439926e-003
9.439924e-003
9.439923e-003
9.439922e-003
9.439921e-003
9.439921e-003
9.439920e-003
9.439920e-003
9.439920e-003
9.439920e-003
9.439920e-003
9.439920e-003
9.439920e-003
9.439920e-003
9.439920e-003
9.439920e-003
9.439920e-003
9.439920e-003
9.439920e-003
9.439921e-003
9.439931e-003
9.439926e-003
9.439919e-003
9.439915e-003
9.439916e-003
9.439920e-003
9.439923e-003
9.439923e-003
9.439921e-003
9.439918e-003
9.439918e-003
9.439919e-003
9.439921e-003
9.439922e-003
9.439922e-003
9.439923e-003
9.439925e-003
9.439927e-003
9.439930e-003
9.439933e-003
9.439935e-003
9.439938e-003
9.439942e-003
9.439945e-003
9.439948e-003
9.439948e-003
9.439946e-003
9.439940e-003
9.439929e-003
9.439911e-003
9.439886e-003
9.439852e-003
9.439810e-003
9.439758e-003
9.439696e-003
9.439627e-003
9.439549e-003
9.439465e-003
9.439376e-003
9.439283e-003
9.439188e-003
9.439094e-003
9.439002e-003
9.438913e-003
9.438830e-003
9.438753e-003
9.438686e-003
9.438629e-003
9.438584e-003
9.438551e-003
9.438531e-003
9.438525e-003
9.438534e-003
9.438558e-003
9.438596e-003
9.438648e-003
9.438714e-003
9.438792e-003
9.438879e-003
9.438975e-003
9.439077e-003
9.439182e-003
9.439287e-003
9.439390e-003
9.439488e-003
9.439579e-003
9.439660e-003
9.439731e-003
9.439791e-003
9.439840e-003
9.439877e-003
9.439904e-003
9.439923e-003
9.439935e-003
9.439941e-003
9.439943e-003
9.439942e-003
9.439939e-003
9.439936e-003
9.439933e-003
9.439930e-003
9.439928e-003
9.439926e-003
9.439924e-003
9.439923e-003
9.439922e-003
9.439921e-003
9.439921e-003
9.439920e-003
9.439920e-003
9.439919e-003
9.439920e-003
9.439920e-003
9.439921e-003
9.439921e-003
9.439920e-003
9.439920e-003
9.439919e-003
9.439920e-003
9.439920e-003
9.439926e-003
9.439922e-003
9.439917e-003
9.439915e-003
9.439917e-003
9.439922e-003
9.439925e-003
9.439924e-003
9.439921e-003
9.439917e-003
9.439917e-003
9.439919e-003
9.439922e-003
9.439924e-003
9.439924e-003
9.439925e-003
9.439927e-003
9.439931e-003
9.439936e-003
9.439940e-003
9.439943e-003
9.439946e-003
9.439949e-003
9.439949e-003
9.439946e-003
9.439935e-003
9.439915e-003
9.439884e-003
9.439839e-003
9.439777e-003
9.439696e-003
9.439594e-003
9.439470e-003
9.439324e-003
9.439157e-003
9.438970e-003
9.438767e-003
9.438550e-003
9.438322e-003
9.438088e-003
9.437851e-003
9.437618e-003
9.437390e-003
9.437174e-003
9.436972e-003
9.436789e-003
9.436628e-003
9.436492e-003
9.436383e-003
9.436305e-003
9.436259e-003
9.436247e-003
9.436270e-003
9.436327e-003
9.436420e-003
9.436546e-003
9.436705e-003
9.436893e-003
9.437107e-003
9.437342e-003
9.437593e-003
9.437854e-003
9.438118e-003
9.438379e-003
9.438630e-003
9.438866e-003
9.439082e-003
9.439273e-003
9.439439e-003
9.439577e-003
9.439689e-003
9.439775e-003
9.439839e-003
9.439884e-003
9.439914e-003
9.439932e-003
9.439940e-003
9.439943e-003
9.439942e-003
9.439939e-003
9.439936e-003
9.439933e-003
9.439930e-003
9.439927e-003
9.439925e-003
9.439923e-003
9.439922e-003
9.439922e-003
9.439921e-003
9.439920e-003
9.439919e-003
9.439919e-003
9.439920e-003
9.439921e-003
9.439921e-003
9.439920e-003
9.439920e-003
9.439919e-003
9.439920e-003
9.439920e-003
9.439920e-003
9.439919e-003
9.439918e-003
9.439918e-003
9.439920e-003
9.439922e-003
9.439923e-003
9.439922e-003
9.439920e-003
9.439918e-003
9.439919e-003
9.439922e-003
9.439924e-003
9.439926e-003
9.439927e-003
9.439928e-003
9.439932e-003
9.439937e-003
9.439943e-003
9.439948e-003
9.439950e-003
9.439950e-003
9.439946e-003
9.439933e-003
9.439907e-003
9.439862e-003
9.439793e-003
9.439695e-003
9.439562e-003
9.439387e-003
9.439167e-003
9.438898e-003
9.438580e-003
9.438212e-003
9.437799e-003
9.437344e-003
9.436854e-003
9.436336e-003
9.435798e-003
9.435251e-003
9.434704e-003
9.434166e-003
9.433647e-003
9.433155e-003
9.432700e-003
9.432288e-003
9.431928e-003
9.431625e-003
9.431384e-003
9.431212e-003
9.431111e-003
9.431086e-003
9.431138e-003
9.431268e-003
9.431477e-003
9.431762e-003
9.432119e-003
9.432544e-003
9.433030e-003
9.433565e-003
9.434140e-003
9.434742e-003
9.435356e-003
9.435968e-003
9.436563e-003
9.437127e-003
9.437650e-003
9.438121e-003
9.438534e-003
9.438886e-003
9.439177e-003
9.439409e-003
9.439587e-003
9.439718e-003
9.439811e-003
9.439873e-003
9.439911e-003
9.439932e-003
9.439941e-003
9.439943e-003
9.439942e-003
9.439938e-003
9.439934e-003
9.439931e-003
9.439927e-003
9.439925e-003
9.439924e-003
9.439923e-003
9.439922e-003
9.439921e-003
9.439920e-003
9.439920e-003
9.439920e-003
9.439921e-003
9.439921e-003
9.439920e-003
9.439920e-003
9.439920e-003
9.439920e-003
9.439920e-003
9.439916e-003
9.439918e-003
9.439921e-003
9.439922e-003
9.439921e-003
9.439920e-003
9.439919e-003
9.439919e-003
9.439920e-003
9.439921e-003
9.439923e-003
9.439925e-003
9.439927e-003
9.439929e-003
9.439931e-003
9.439934e-003
9.439939e-003
9.439945e-003
9.439951e-003
9.439953e-003
9.439949e-003
9.439936e-003
9.439907e-003
9.439854e-003
9.439767e-003
9.439633e-003
9.439442e-003
9.439180e-003
9.438836e-003
9.438399e-003
9.437859e-003
9.437212e-003
9.436458e-003
9.435602e-003
9.434651e-003
9.433616e-003
9.432513e-003
9.431359e-003
9.430175e-003
9.428980e-003
9.427794e-003
9.426637e-003
9.425529e-003
9.424486e-003
9.423526e-003
9.422663e-003
9.421910e-003
9.421280e-003
9.420782e-003
9.420427e-003
9.420222e-003
9.420173e-003
9.420284e-003
9.420559e-003
9.420996e-003
9.421593e-003
9.422345e-003
9.423241e-003
9.424268e-003
9.425408e-003
9.426639e-003
9.427936e-003
9.429270e-003
9.430610e-003
9.431927e-003
9.433189e-003
9.434370e-003
9.435447e-003
9.436405e-003
9.437232e-003
9.437927e-003
9.438491e-003
9.438935e-003
9.439272e-003
9.439518e-003
9.439690e-003
9.439804e-003
9.439875e-003
9.439915e-003
9.439935e-003
9.439943e-003
9.439943e-003
9.439940e-003
9.439936e-003
9.439931e-003
9.439928e-003
9.439926e-003
9.439924e-003
9.439923e-003
9.439922e-003
9.439921e-003
9.439920e-003
9.439920e-003
9.439920e-003
9.439920e-003
9.439920e-003
9.439920e-003
9.439920e-003
9.439920e-003
9.439920e-003
9.439912e-003
9.439917e-003
9.439923e-003
9.439925e-003
9.439923e-003
9.439918e-003
9.439916e-003
9.439917e-003
9.439921e-003
9.439924e-003
9.439926e-003
9.439927e-003
9.439929e-003
9.439932e-003
9.439937e-003
9.439943e-003
9.439949e-003
9.439954e-003
9.439953e-003
9.439944e-003
9.439917e-003
9.439863e-003
9.439768e-003
9.439613e-003
9.439377e-003
9.439035e-003
9.438561e-003
9.437930e-003
9.437117e-003
9.436101e-003
9.434870e-003
9.433419e-003
9.431751e-003
9.429880e-003
9.427829e-003
9.425625e-003
9.423305e-003
9.420907e-003
9.418471e-003
9.416040e-003
9.413652e-003
9.411345e-003
9.409154e-003
9.407110e-003
9.405242e-003
9.403574e-003
9.402129e-003
9.400927e-003
9.399984e-003
9.399315e-003
9.398933e-003
9.398849e-003
9.399069e-003
9.399600e-003
9.400443e-003
9.401595e-003
9.403048e-003
9.404787e-003
9.406792e-003
9.409032e-003
9.411471e-003
9.414062e-003
9.416754e-003
9.419489e-003
9.422205e-003
9.424840e-003
9.427338e-003
9.429646e-003
9.431724e-003
9.433546e-003
9.435098e-003
9.436379e-003
9.437405e-003
9.438199e-003
9.438791e-003
9.439217e-003
9.439511e-003
9.439703e-003
9.439822e-003
9.439890e-003
9.439925e-003
9.439940e-003
9.439944e-003
9.439942e-003
9.439937e-003
9.439933e-003
9.439929e-003
9.439926e-003
9.439924e-003
9.439923e-003
9.439922e-003
9.439921e-003
9.439920e-003
9.439919e-003
9.439919e-003
9.439920e-003
9.439920e-003
9.439920e-003
9.439920e-003
9.439920e-003
9.439910e-003
9.439916e-003
9.439923e-003
9.439925e-003
9.439923e-003
9.439918e-003
9.439916e-003
9.439919e-003
9.439923e-003
9.439927e-003
9.439928e-003
9.439929e-003
9.439932e-003
9.439938e-003
9.439946e-003
9.439953e-003
9.439957e-003
9.439953e-003
9.439934e-003
9.439889e-003
9.439801e-003
9.439646e-003
9.439394e-003
9.439005e-003
9.438434e-003
9.437631e-003
9.436544e-003
9.435123e-003
9.433324e-003
9.431115e-003
9.428480e-003
9.425422e-003
9.421963e-003
9.418145e-003
9.414024e-003
9.409668e-003
9.405155e-003
9.400566e-003
9.395980e-003
9.391474e-003
9.387116e-003
9.382970e-003
9.379088e-003
9.375517e-003
9.372295e-003
9.369455e-003
9.367023e-003
9.365021e-003
9.363469e-003
9.362383e-003
9.361778e-003
9.361667e-003
9.362062e-003
9.362972e-003
9.364404e-003
9.366359e-003
9.368833e-003
9.371815e-003
9.375283e-003
9.379202e-003
9.383525e-003
9.388185e-003
9.393103e-003
9.398183e-003
9.403315e-003
9.408385e-003
9.413274e-003
9.417874e-003
9.422088e-003
9.425844e-003
9.429097e-003
9.431830e-003
9.434053e-003
9.435804e-003
9.437135e-003
9.438112e-003
9.438801e-003
9.439267e-003
9.439568e-003
9.439752e-003
9.439857e-003
9.439912e-003
9.439936e-003
9.439944e-003
9.439943e-003
9.439939e-003
9.439934e-003
9.439929e-003
9.439926e-003
9.439924e-003
9.439923e-003
9.439922e-003
9.439921e-003
9.439920e-003
9.439919e-003
9.439920e-003
9.439921e-003
9.439921e-003
9.439920e-003
9.439920e-003
9.439912e-003
9.439916e-003
9.439921e-003
9.439923e-003
9.439922e-003
9.439920e-003
9.439920e-003
9.439922e-003
9.439926e-003
9.439929e-003
9.439930e-003
9.439932e-003
9.439938e-003
9.439946e-003
9.439955e-003
9.439959e-003
9.439951e-003
9.439921e-003
9.439854e-003
9.439723e-003
9.439491e-003
9.439108e-003
9.438507e-003
9.437612e-003
9.436331e-003
9.434568e-003
9.432224e-003
9.429214e-003
9.425471e-003
9.420960e-003
9.415683e-003
9.409684e-003
9.403046e-003
9.395888e-003
9.388350e-003
9.380593e-003
9.372775e-003
9.365052e-003
9.357564e-003
9.350431e-003
9.343751e-003
9.337597e-003
9.332023e-003
9.327060e-003
9.322726e-003
9.319024e-003
9.315952e-003
9.313503e-003
9.311669e-003
9.310443e-003
9.309820e-003
9.309804e-003
9.310399e-003
9.311620e-003
9.313486e-003
9.316019e-003
9.319248e-003
9.323199e-003
9.327893e-003
9.333340e-003
9.339530e-003
9.346424e-003
9.353951e-003
9.361997e-003
9.370411e-003
9.379004e-003
9.387561e-003
9.395857e-003
9.403677e-003
9.410832e-003
9.417178e-003
9.422629e-003
9.427156e-003
9.430790e-003
9.433606e-003
9.435710e-003
9.437224e-003
9.438271e-003
9.438966e-003
9.439407e-003
9.439671e-003
9.439820e-003
9.439897e-003
9.439932e-003
9.439944e-003
9.439944e-003
9.439940e-003
9.439934e-003
9.439929e-003
9.439926e-003
9.439924e-003
9.439923e-003
9.439922e-003
9.439921e-003
9.439920e-003
9.439920e-003
9.439921e-003
9.439921e-003
9.439920e-003
9.439919e-003
9.439918e-003
9.439918e-003
9.439919e-003
9.439920e-003
9.439920e-003
9.439922e-003
9.439923e-003
9.439926e-003
9.439928e-003
9.439931e-003
9.439934e-003
9.439940e-003
9.439948e-003
9.439956e-003
9.439960e-003
9.439948e-003
9.439907e-003
9.439814e-003
9.439633e-003
9.439310e-003
9.438765e-003
9.437896e-003
9.436573e-003
9.434644e-003
9.431940e-003
9.428286e-003
9.423525e-003
9.417536e-003
9.410259e-003
9.401715e-003
9.392012e-003
9.381349e-003
9.369999e-003
9.358290e-003
9.346571e-003
9.335187e-003
9.324449e-003
9.314615e-003
9.305878e-003
9.298359e-003
9.292108e-003
9.287111e-003
9.283301e-003
9.280564e-003
9.278757e-003
9.277721e-003
9.277292e-003
9.277311e-003
9.277635e-003
9.278137e-003
9.278720e-003
9.279313e-003
9.279881e-003
9.280428e-003
9.281002e-003
9.281696e-003
9.282650e-003
9.284051e-003
9.286119e-003
9.289092e-003
9.293205e-003
9.298657e-003
9.305583e-003
9.314022e-003
9.323897e-003
9.335006e-003
9.347024e-003
9.359535e-003
9.372065e-003
9.384139e-003
9.395331e-003
9.405309e-003
9.413866e-003
9.420924e-003
9.426524e-003
9.430798e-003
9.433936e-003
9.436151e-003
9.437652e-003
9.438626e-003
9.439230e-003
9.439585e-003
9.439782e-003
9.439882e-003
9.439927e-003
9.439943e-003
9.439944e-003
9.439940e-003
9.439934e-003
9.439929e-003
9.439926e-003
9.439924e-003
9.439923e-003
9.439922e-003
9.439921e-003
9.439921e-003
9.439920e-003
9.439920e-003
9.439920e-003
9.439920e-003
9.439927e-003
9.439923e-003
9.439919e-003
9.439917e-003
9.439919e-003
9.439923e-003
9.439926e-003
9.439928e-003
9.439930e-003
9.439934e-003
9.439941e-003
9.439950e-003
9.439959e-003
9.439961e-003
9.439945e-003
9.439894e-003
9.439777e-003
9.439544e-003
9.439119e-003
9.438390e-003
9.437203e-003
9.435359e-003
9.432613e-003
9.428688e-003
9.423296e-003
9.416172e-003
9.407124e-003
9.396085e-003
9.383166e-003
9.368683e-003
9.353161e-003
9.337305e-003
9.321939e-003
9.307928e-003
9.296088e-003
9.287112e-003
9.281508e-003
9.279573e-003
9.281375e-003
9.286770e-003
9.295425e-003
9.306847e-003
9.320421e-003
9.335451e-003
9.351198e-003
9.366921e-003
9.381903e-003
9.395479e-003
9.407055e-003
9.416118e-003
9.422246e-003
9.425121e-003
9.424544e-003
9.420452e-003
9.412937e-003
9.402271e-003
9.388920e-003
9.373552e-003
9.357026e-003
9.340361e-003
9.324673e-003
9.311091e-003
9.300659e-003
9.294223e-003
9.292331e-003
9.295158e-003
9.302468e-003
9.313631e-003
9.327700e-003
9.343526e-003
9.359919e-003
9.375794e-003
9.390291e-003
9.402845e-003
9.413195e-003
9.421340e-003
9.427474e-003
9.431899e-003
9.434960e-003
9.436990e-003
9.438278e-003
9.439058e-003
9.439507e-003
9.439749e-003
9.439870e-003
9.439924e-003
9.439942e-003
9.439944e-003
9.439940e-003
9.439934e-003
9.439929e-003
9.439926e-003
9.439924e-003
9.439922e-003
9.439921e-003
9.439921e-003
9.439920e-003
9.439920e-003
9.439920e-003
9.439920e-003
9.439933e-003
9.439927e-003
9.439920e-003
9.439917e-003
9.439920e-003
9.439925e-003
9.439929e-003
9.439931e-003
9.439934e-003
9.439940e-003
9.439951e-003
9.439961e-003
9.439963e-003
9.439945e-003
9.439886e-003
9.439748e-003
9.439468e-003
9.438944e-003
9.438024e-003
9.436492e-003
9.434059e-003
9.430358e-003
9.424962e-003
9.417421e-003
9.407328e-003
9.394420e-003
9.378705e-003
9.360586e-003
9.340956e-003
9.321231e-003
9.303284e-003
9.289298e-003
9.281545e-003
9.282135e-003
9.292788e-003
9.314650e-003
9.348203e-003
9.393242e-003
9.448928e-003
9.513871e-003
9.586244e-003
9.663896e-003
9.744466e-003
9.825493e-003
9.904516e-003
9.979160e-003
1.004721e-002
1.010665e-002
1.015569e-002
1.019280e-002
1.021669e-002
1.022635e-002
1.022111e-002
1.020065e-002
1.016506e-002
1.011498e-002
1.005162e-002
9.976829e-003
9.893125e-003
9.803634e-003
9.711977e-003
9.622066e-003
9.537834e-003
9.462912e-003
9.400295e-003
9.352035e-003
9.319017e-003
9.300860e-003
9.295997e-003
9.301918e-003
9.315559e-003
9.333743e-003
9.353604e-003
9.372876e-003
9.390045e-003
9.404322e-003
9.415517e-003
9.423847e-003
9.429755e-003
9.433760e-003
9.436355e-003
9.437964e-003
9.438914e-003
9.439447e-003
9.439727e-003
9.439864e-003
9.439922e-003
9.439942e-003
9.439944e-003
9.439940e-003
9.439934e-003
9.439929e-003
9.439925e-003
9.439923e-003
9.439922e-003
9.439921e-003
9.439920e-003
9.439920e-003
9.439920e-003
9.439921e-003
9.439933e-003
9.439927e-003
9.439920e-003
9.439918e-003
9.439922e-003
9.439928e-003
9.439932e-003
9.439935e-003
9.439940e-003
9.439949e-003
9.439960e-003
9.439964e-003
9.439947e-003
9.439883e-003
9.439731e-003
9.439415e-003
9.438808e-003
9.437713e-003
9.435845e-003
9.432805e-003
9.428077e-003
9.421042e-003
9.411037e-003
9.397483e-003
9.380084e-003
9.359110e-003
9.335713e-003
9.312197e-003
9.292168e-003
9.280438e-003
9.282689e-003
9.304895e-003
9.352633e-003
9.430405e-003
9.541102e-003
9.685696e-003
9.863181e-003
1.007073e-002
1.030402e-002
1.055756e-002
1.082509e-002
1.109988e-002
1.137504e-002
1.164374e-002
1.189945e-002
1.213607e-002
1.234805e-002
1.253044e-002
1.267891e-002
1.278973e-002
1.285974e-002
1.288640e-002
1.286782e-002
1.280292e-002
1.269156e-002
1.253481e-002
1.233517e-002
1.209678e-002
1.182559e-002
1.152937e-002
1.121757e-002
1.090090e-002
1.059078e-002
1.029857e-002
1.003462e-002
9.807371e-003
9.622471e-003
9.482189e-003
9.385233e-003
9.327075e-003
9.300764e-003
9.298069e-003
9.310710e-003
9.331407e-003
9.354548e-003
9.376401e-003
9.394958e-003
9.409521e-003
9.420246e-003
9.427724e-003
9.432686e-003
9.435828e-003
9.437726e-003
9.438819e-003
9.439415e-003
9.439720e-003
9.439864e-003
9.439924e-003
9.439943e-003
9.439944e-003
9.439939e-003
9.439933e-003
9.439928e-003
9.439925e-003
9.439923e-003
9.439921e-003
9.439920e-003
9.439920e-003
9.439920e-003
9.439921e-003
9.439926e-003
9.439923e-003
9.439920e-003
9.439921e-003
9.439926e-003
9.439931e-003
9.439936e-003
9.439941e-003
9.439949e-003
9.439959e-003
9.439964e-003
9.439950e-003
9.439889e-003
9.439732e-003
9.439395e-003
9.438730e-003
9.437501e-003
9.435345e-003
9.431749e-003
9.426022e-003
9.417315e-003
9.404707e-003
9.387421e-003
9.365210e-003
9.338943e-003
9.311341e-003
9.287716e-003
9.276470e-003
9.289093e-003
9.339477e-003
9.442570e-003
9.612570e-003
9.861063e-003
1.019546e-002
1.061807e-002
1.112586e-002
1.171093e-002
1.236144e-002
1.306272e-002
1.379845e-002
1.455157e-002
1.530505e-002
1.604246e-002
1.674834e-002
1.740854e-002
1.801034e-002
1.854252e-002
1.899534e-002
1.936036e-002
1.963032e-002
1.979897e-002
1.986103e-002
1.981225e-002
1.964964e-002
1.937185e-002
1.897967e-002
1.847672e-002
1.787003e-002
1.717069e-002
1.639420e-002
1.556052e-002
1.469369e-002
1.382094e-002
1.297119e-002
1.217307e-002
1.145253e-002
1.083030e-002
1.031965e-002
9.924901e-003
9.641248e-003
9.455904e-003
9.350537e-003
9.304400e-003
9.297420e-003
9.312590e-003
9.337237e-003
9.363165e-003
9.385967e-003
9.403953e-003
9.417068e-003
9.426050e-003
9.431880e-003
9.435481e-003
9.437601e-003
9.438788e-003
9.439416e-003