# vtk DataFile Version 3.0
vtk output
ASCII
DATASET STRUCTURED_POINTS
DIMENSIONS 100 100 1
SPACING 1 1 1
ORIGIN 0 0 0
POINT_DATA 10000
SCALARS SFBox_profile double
LOOKUP_TABLE default 
0.000000e+000
0.000000e+000
0.000000e+000
0.000000e+000
0.000000e+000
0.000000e+000
0.000000e+000
0.000000e+000
0.000000e+000
0.000000e+000
0.000000e+000
0.000000e+000
0.000000e+000
0.000000e+000
0.000000e+000
0.000000e+000
0.000000e+000
0.000000e+000
0.000000e+000
0.000000e+000
0.000000e+000
0.000000e+000
0.000000e+000
0.000000e+000
0.000000e+000
0.000000e+000
0.000000e+000
0.000000e+000
0.000000e+000
0.000000e+000
0.000000e+000
0.000000e+000
0.000000e+000
0.000000e+000
0.000000e+000
0.000000e+000
0.000000e+000
0.000000e+000
0.000000e+000
0.000000e+000
0.000000e+000
0.000000e+000
0.000000e+000
0.000000e+000
0.000000e+000
0.000000e+000
0.000000e+000
0.000000e+000
0.000000e+000
0.000000e+000
0.000000e+000
0.000000e+000
0.000000e+000
0.000000e+000
0.000000e+000
0.000000e+000
0.000000e+000
0.000000e+000
0.000000e+000
0.000000e+000
0.000000e+000
0.000000e+000
0.000000e+000
0.000000e+000
0.000000e+000
0.000000e+000
0.000000e+000
0.000000e+000
0.000000e+000
0.000000e+000
0.000000e+000
0.000000e+000
0.000000e+000
0.000000e+000
0.000000e+000
0.000000e+000
0.000000e+000
0.000000e+000
0.000000e+000
0.000000e+000
0.000000e+000
0.000000e+000
0.000000e+000
0.000000e+000
0.000000e+000
0.000000e+000
0.000000e+000
0.000000e+000
0.000000e+000
0.000000e+000
0.000000e+000
0.000000e+000
0.000000e+000
0.000000e+000
0.000000e+000
0.000000e+000
0.000000e+000
0.000000e+000
0.000000e+000
0.000000e+000
2.653270e-011
1.806082e-011
9.409269e-012
5.205620e-012
3.197591e-012
-1.294026e-012
-9.148335e-012
-1.652005e-011
-1.909704e-011
-1.576821e-011
-8.351212e-012
3.172883e-013
6.982371e-012
8.359369e-012
3.516892e-012
-3.734335e-012
-6.877674e-012
-2.733326e-012
5.138125e-012
1.017256e-011
9.345824e-012
4.786751e-012
-1.890595e-013
-3.826970e-012
-3.783631e-012
4.840163e-012
2.562346e-011
5.459593e-011
8.036410e-011
9.207139e-011
8.679669e-011
6.915125e-011
4.568362e-011
2.115156e-011
-1.592966e-012
-2.136089e-011
-3.877116e-011
-5.414173e-011
-6.380472e-011
-6.028444e-011
-3.826878e-011
8.601213e-014
4.746064e-011
9.858949e-011
1.532688e-010
2.122556e-010
2.728653e-010
3.303928e-010
3.821107e-010
4.270627e-010
4.621259e-010
4.813156e-010
4.808892e-010
4.638590e-010
4.375059e-010
4.066605e-010
3.710069e-010
3.288888e-010
2.815295e-010
2.319996e-010
1.813671e-010
1.283331e-010
7.308773e-011
1.968388e-011
-2.675931e-011
-6.423779e-011
-9.374950e-011
-1.155314e-010
-1.275751e-010
-1.288574e-010
-1.224695e-010
-1.134181e-010
-1.031252e-010
-8.752584e-011
-6.136043e-011
-2.371733e-011
2.101544e-011
6.643471e-011
1.067262e-010
1.361826e-010
1.482462e-010
1.372486e-010
1.021393e-010
4.878498e-011
-1.116630e-011
-6.400983e-011
-9.833622e-011
-1.084716e-010
-9.568124e-011
-6.638796e-011
-2.849026e-011
1.129414e-011
4.713415e-011
7.235814e-011
7.976849e-011
6.520447e-011
3.145258e-011
-1.139268e-011
-4.983383e-011
-7.221428e-011
1.430405e-011
1.099303e-011
7.987371e-012
6.410064e-012
3.818010e-012
-2.083817e-012
-9.761198e-012
-1.487156e-011
-1.452004e-011
-9.541464e-012
-2.762359e-012
3.513530e-012
7.644635e-012
7.819657e-012
3.299033e-012
-3.278153e-012
-6.732067e-012
-3.988911e-012
2.644953e-012
7.940972e-012
9.050085e-012
7.188018e-012
4.600206e-012
2.186213e-012
1.158399e-012
4.968825e-012
1.680748e-011
3.503947e-011
5.323164e-011
6.580959e-011
7.279045e-011
7.842914e-011
8.658006e-011
9.848849e-011
1.136128e-010
1.300580e-010
1.441847e-010
1.523653e-010
1.547304e-010
1.559030e-010
1.603733e-010
1.677129e-010
1.738703e-010
1.767990e-010
1.788544e-010
1.832789e-010
1.903211e-010
1.982128e-010
2.064545e-010
2.157168e-010
2.245198e-010
2.284256e-010
2.240728e-010
2.130894e-010
2.005755e-010
1.900083e-010
1.809306e-010
1.715845e-010
1.620636e-010
1.536880e-010
1.462301e-010
1.375886e-010
1.265492e-010
1.145907e-010
1.041054e-010
9.562950e-011
8.800673e-011
8.093945e-011
7.578998e-011
7.311279e-011
7.047752e-011
6.421125e-011
5.340713e-011
4.127032e-011
3.215833e-011
2.793691e-011
2.758225e-011
2.935496e-011
3.208069e-011
3.427984e-011
3.337600e-011
2.693773e-011
1.479598e-011
-4.490317e-013
-1.501734e-011
-2.591261e-011
-3.176163e-011
-3.262893e-011
-2.942170e-011
-2.302201e-011
-1.345874e-011
-1.338736e-013
1.636922e-011
3.234792e-011
4.140794e-011
3.791451e-011
2.103008e-011
-3.970236e-012
-2.807066e-011
-4.261965e-011
-2.277528e-012
7.594552e-014
3.310545e-012
5.027563e-012
3.001116e-012
-2.468335e-012
-7.909415e-012
-9.325454e-012
-5.737424e-012
2.224178e-013
5.163623e-012
7.668374e-012
7.964624e-012
6.010991e-012
1.458246e-012
-4.354210e-012
-7.884764e-012
-6.199125e-012
-2.915487e-014
6.921673e-012
1.164221e-011
1.390885e-011
1.484551e-011
1.490663e-011
1.427871e-011
1.435959e-011
1.734694e-011
2.444250e-011
3.580865e-011
5.265966e-011
7.811782e-011
1.149706e-010
1.630838e-010
2.197048e-010
2.814306e-010
3.444575e-010
4.032840e-010
4.513589e-010
4.844360e-010
5.026555e-010
5.083828e-010
5.026398e-010
4.849281e-010
4.562582e-010
4.206855e-010
3.831034e-010
3.465115e-010
3.123069e-010
2.823313e-010
2.589874e-010
2.431062e-010
2.329354e-010
2.261243e-010
2.223011e-010
2.230508e-010
2.296513e-010
2.415956e-010
2.573512e-010
2.757418e-010
2.959960e-010
3.168052e-010
3.360756e-010
3.518019e-010
3.628215e-010
3.685584e-010
3.684509e-010
3.621047e-010
3.498687e-010
3.326530e-010
3.108551e-010
2.837579e-010
2.503657e-010
2.107891e-010
1.665514e-010
1.196976e-010
7.213015e-011
2.599175e-011
-1.585476e-011
-5.038807e-011
-7.545601e-011
-8.978006e-011
-9.194180e-011
-8.021269e-011
-5.446973e-011
-1.874771e-011
1.842261e-011
4.693934e-011
5.944676e-011
5.423975e-011
3.545024e-011
1.104915e-011
-1.021139e-011
-2.195929e-011
-2.244693e-011
-1.476043e-011
-4.676549e-012
2.653229e-012
5.168607e-012
4.159073e-012
2.545876e-012
-1.219663e-011
-8.856474e-012
-4.614915e-012
-1.732610e-012
-1.132568e-012
-1.863673e-012
-1.797134e-012
6.507631e-013
5.050067e-012
9.172401e-012
1.085663e-011
9.649174e-012
6.530350e-012
2.366956e-012
-2.616253e-012
-7.599972e-012
-1.020548e-011
-7.837294e-012
-2.511880e-013
9.821752e-012
1.900808e-011
2.603285e-011
3.194998e-011
3.814201e-011
4.475589e-011
5.118471e-011
5.775413e-011
6.698976e-011
8.361248e-011
1.130757e-010
1.590204e-010
2.211782e-010
2.957573e-010
3.783585e-010
4.665156e-010
5.590470e-010
6.531650e-010
7.431314e-010
8.223495e-010
8.865615e-010
9.347952e-010
9.678112e-010
9.865709e-010
9.923225e-010
9.872890e-010
9.744367e-010
9.565222e-010
9.357277e-010
9.142091e-010
8.945641e-010
8.793271e-010
8.698047e-010
8.653729e-010
8.639868e-010
8.635813e-010
8.631515e-010
8.625243e-010
8.611921e-010
8.576763e-010
8.502535e-010
8.380466e-010
8.209241e-010
7.983027e-010
7.686133e-010
7.304147e-010
6.838588e-010
6.306331e-010
5.725134e-010
5.104707e-010
4.453920e-010
3.791425e-010
3.141764e-010
2.518709e-010
1.916151e-010
1.320071e-010
7.308627e-011
1.732047e-011
-3.162659e-011
-7.093788e-011
-9.927686e-011
-1.154391e-010
-1.168237e-010
-1.001014e-010
-6.442610e-011
-1.476875e-011
3.778767e-011
7.971354e-011
1.004789e-010
9.637590e-011
7.092328e-011
3.261490e-011
-8.055751e-012
-4.111204e-011
-5.915512e-011
-5.911866e-011
-4.312596e-011
-1.758982e-011
9.370306e-012
3.078223e-011
4.235681e-011
-8.934849e-012
-1.036100e-011
-1.193673e-011
-1.173257e-011
-8.165577e-012
-1.525858e-012
5.874551e-012
1.141966e-011
1.392293e-011
1.366254e-011
1.128178e-011
7.247481e-012
2.193606e-012
-2.904387e-012
-7.127094e-012
-9.705491e-012
-9.490025e-012
-4.942785e-012
4.546283e-012
1.746442e-011
3.121961e-011
4.493421e-011
6.078695e-011
8.187481e-011
1.087604e-010
1.388678e-010
1.698766e-010
2.036137e-010
2.460800e-010
3.031795e-010
3.760667e-010
4.602863e-010
5.492953e-010
6.392588e-010
7.313449e-010
8.299552e-010
9.383696e-010
1.055160e-009
1.174192e-009
1.288215e-009
1.392927e-009
1.487990e-009
1.574564e-009
1.652428e-009
1.719720e-009
1.774873e-009
1.817823e-009
1.849217e-009
1.869477e-009
1.879677e-009
1.882894e-009
1.883144e-009
1.881984e-009
1.876613e-009
1.862186e-009
1.835965e-009
1.798508e-009
1.750981e-009
1.692653e-009
1.621975e-009
1.539337e-009
1.447289e-009
1.347868e-009
1.241008e-009
1.126414e-009
1.006131e-009
8.839974e-010
7.627987e-010
6.434060e-010
5.273526e-010
4.191281e-010
3.244190e-010
2.458119e-010
1.809962e-010
1.255980e-010
7.739241e-011
3.742980e-011
7.516090e-012
-1.260365e-011
-2.537791e-011
-3.315145e-011
-3.603340e-011
-3.194534e-011
-1.877995e-011
3.013450e-012
2.932503e-011
5.354799e-011
6.916716e-011
7.195720e-011
6.065331e-011
3.659919e-011
3.683583e-012
-3.122020e-011
-5.873938e-011
-6.976829e-011
-5.968719e-011
-3.124753e-011
6.100103e-012
4.004050e-011
5.993408e-011
3.942209e-012
-3.901421e-012
-1.390384e-011
-1.927337e-011
-1.535873e-011
-3.361443e-012
1.004345e-011
1.793352e-011
1.818498e-011
1.341650e-011
7.023422e-012
5.523099e-013
-5.301651e-012
-9.008217e-012
-8.915077e-012
-5.063418e-012
1.076543e-012
8.854228e-012
1.944333e-011
3.436842e-011
5.430747e-011
8.045549e-011
1.162322e-010
1.655980e-010
2.288938e-010
3.016198e-010
3.788393e-010
4.606531e-010
5.520502e-010
6.567762e-010
7.718052e-010
8.881268e-010
9.966321e-010
1.093619e-009
1.182379e-009
1.271004e-009
1.367818e-009
1.476258e-009
1.592397e-009
1.707959e-009
1.816886e-009
1.919091e-009
2.017532e-009
2.112487e-009
2.199926e-009
2.275126e-009
2.335982e-009
2.382106e-009
2.412627e-009
2.427303e-009
2.429538e-009
2.425742e-009
2.419954e-009
2.409826e-009
2.389215e-009
2.354416e-009
2.306502e-009
2.247688e-009
2.177392e-009
2.093205e-009
1.994637e-009
1.883966e-009
1.763362e-009
1.633037e-009
1.493239e-009
1.346702e-009
1.197411e-009
1.047383e-009
8.967023e-010
7.476031e-010
6.071272e-010
4.839685e-010
3.824831e-010
3.005904e-010
2.335820e-010
1.790642e-010
1.378224e-010
1.107835e-010
9.617457e-011
8.948377e-011
8.526949e-011
7.884557e-011
6.732983e-011
5.044869e-011
3.081979e-011
1.302401e-011
1.594552e-012
-1.037882e-012
4.202929e-012
1.283604e-011
1.796651e-011
1.319938e-011
-3.342820e-012
-2.640522e-011
-4.509135e-011
-4.852170e-011
-3.233837e-011
-1.751920e-012
3.072714e-011
5.131286e-011
1.475565e-011
4.799481e-012
-9.403502e-012
-1.985389e-011
-1.937973e-011
-7.491867e-012
8.275189e-012
1.840891e-011
1.877894e-011
1.182320e-011
2.015924e-012
-7.572206e-012
-1.429232e-011
-1.445813e-011
-5.618079e-012
9.985496e-012
2.653638e-011
4.045039e-011
5.440386e-011
7.518331e-011
1.088284e-010
1.590836e-010
2.291831e-010
3.219151e-010
4.364263e-010
5.667941e-010
7.062271e-010
8.526653e-010
1.008307e-009
1.172754e-009
1.337657e-009
1.488924e-009
1.613729e-009
1.705615e-009
1.765376e-009
1.799640e-009
1.817811e-009
1.826651e-009
1.825423e-009
1.807343e-009
1.767604e-009
1.709658e-009
1.642434e-009
1.572134e-009
1.498688e-009
1.419995e-009
1.336873e-009
1.252387e-009
1.168716e-009
1.088010e-009
1.016326e-009
9.635343e-010
9.371200e-010
9.369030e-010
9.573372e-010
9.943434e-010
1.048060e-009
1.118791e-009
1.202292e-009
1.290344e-009
1.374860e-009
1.449777e-009
1.509543e-009
1.548209e-009
1.561295e-009
1.547304e-009
1.505937e-009
1.435630e-009
1.335112e-009
1.208309e-009
1.066273e-009
9.225759e-010
7.864284e-010
6.605156e-010
5.447547e-010
4.406914e-010
3.519394e-010
2.815881e-010
2.302051e-010
1.956229e-010
1.730324e-010
1.548834e-010
1.322714e-010
9.874932e-011
5.434725e-011
6.385583e-012
-3.388604e-011
-5.653172e-011
-5.715732e-011
-3.876938e-011
-1.110495e-011
1.274734e-011
2.204350e-011
1.404708e-011
-4.114286e-012
-1.953582e-011
-2.153462e-011
-8.367499e-012
1.184241e-011
2.647582e-011
1.289725e-011
8.314882e-012
-1.500633e-012
-1.292037e-011
-1.788718e-011
-1.145141e-011
2.541784e-012
1.471994e-011
1.820266e-011
1.240724e-011
7.472616e-013
-1.209224e-011
-1.993112e-011
-1.555884e-011
4.620101e-012
3.598337e-011
6.845562e-011
9.609944e-011
1.238786e-010
1.643865e-010
2.288124e-010
3.220243e-010
4.446298e-010
5.958735e-010
7.725215e-010
9.670070e-010
1.169847e-009
1.374021e-009
1.574524e-009
1.762402e-009
1.920725e-009
2.027930e-009
2.064864e-009
2.018845e-009
1.884061e-009
1.661836e-009
1.360296e-009
9.898150e-010
5.561101e-010
5.929906e-011
-4.980257e-010
-1.102577e-009
-1.732369e-009
-2.366600e-009
-2.991463e-009
-3.596508e-009
-4.168813e-009
-4.693060e-009
-5.155222e-009
-5.542588e-009
-5.840145e-009
-6.030390e-009
-6.099257e-009
-6.041623e-009
-5.859861e-009
-5.558073e-009
-5.140040e-009
-4.613357e-009
-3.994181e-009
-3.306999e-009
-2.580522e-009
-1.844291e-009
-1.127374e-009
-4.569403e-010
1.440296e-010
6.576398e-010
1.069660e-009
1.369001e-009
1.551117e-009
1.622869e-009
1.602803e-009
1.514944e-009
1.381124e-009
1.218003e-009
1.039084e-009
8.571459e-010
6.840746e-010
5.294608e-010
4.002005e-010
3.004505e-010
2.301122e-010
1.827261e-010
1.462643e-010
1.083586e-010
6.283285e-011
1.257303e-011
-3.305031e-011
-6.363313e-011
-7.244336e-011
-5.892906e-011
-2.937467e-011
4.414916e-012
2.919601e-011
3.635727e-011
2.652300e-011
8.882377e-012
-5.002144e-012
-8.669764e-012
-4.087687e-012
1.326950e-012
-2.911648e-012
3.903385e-012
6.404002e-012
-3.304369e-013
-9.781061e-012
-1.193154e-011
-3.944476e-012
8.058551e-012
1.565480e-011
1.439401e-011
5.000949e-012
-7.528880e-012
-1.427750e-011
-4.765298e-012
2.662196e-011
7.532782e-011
1.301860e-010
1.849267e-010
2.464632e-010
3.309735e-010
4.519665e-010
6.125925e-010
8.076795e-010
1.029155e-009
1.266959e-009
1.506329e-009
1.727409e-009
1.907950e-009
2.024028e-009
2.047134e-009
1.942947e-009
1.675939e-009
1.216089e-009
5.419380e-010
-3.591310e-010
-1.488808e-009
-2.835257e-009
-4.376247e-009
-6.087732e-009
-7.948119e-009
-9.932102e-009
-1.200187e-008
-1.410794e-008
-1.619961e-008
-1.823281e-008
-2.016815e-008
-2.196493e-008
-2.358038e-008
-2.497336e-008
-2.610586e-008
-2.694102e-008
-2.744347e-008
-2.758439e-008
-2.734677e-008
-2.672543e-008
-2.572413e-008
-2.435542e-008
-2.264498e-008
-2.063593e-008
-1.838873e-008
-1.597711e-008
-1.348268e-008
-1.098948e-008
-8.578540e-009
-6.323275e-009
-4.286976e-009
-2.521463e-009
-1.063960e-009
6.850274e-011
8.833323e-010
1.410481e-009
1.694328e-009
1.784298e-009
1.728857e-009
1.573029e-009
1.356847e-009
1.113742e-009
8.701691e-010
6.468282e-010
4.593427e-010
3.164506e-010
2.172730e-010
1.516345e-010
1.052035e-010
6.650209e-011
3.090256e-011
-3.582204e-013
-2.377338e-011
-3.633282e-011
-3.653246e-011
-2.502631e-011
-5.640666e-012
1.465836e-011
2.827550e-011
3.085590e-011
2.341426e-011
1.093445e-011
-1.151377e-012
-9.625393e-012
-1.372291e-011
-2.536089e-011
-5.259328e-012
1.351076e-011
1.630899e-011
5.258817e-012
-6.857451e-012
-9.924782e-012
-3.463777e-012
6.304412e-012
1.283529e-011
1.322433e-011
9.837779e-012
1.092991e-011
2.837582e-011
7.117702e-011
1.394127e-010
2.260264e-010
3.267442e-010
4.484119e-010
6.060479e-010
8.105536e-010
1.058756e-009
1.333459e-009
1.609084e-009
1.853815e-009
2.026470e-009
2.074024e-009
1.933679e-009
1.536795e-009
8.117186e-010
-3.124732e-010
-1.898974e-009
-3.996016e-009
-6.633807e-009
-9.823898e-009
-1.355594e-008
-1.779331e-008
-2.247532e-008
-2.752780e-008
-3.287229e-008
-3.842477e-008
-4.408881e-008
-4.975567e-008
-5.531395e-008
-6.065865e-008
-6.569115e-008
-7.031372e-008
-7.442773e-008
-7.793685e-008
-8.075032e-008
-8.278394e-008
-8.396199e-008
-8.422222e-008
-8.352131e-008
-8.183785e-008
-7.917390e-008
-7.555839e-008
-7.105248e-008
-6.575369e-008
-5.979626e-008
-5.334683e-008
-4.659629e-008
-3.974864e-008
-3.300876e-008
-2.657140e-008
-2.061189e-008
-1.527684e-008
-1.067385e-008
-6.862044e-009
-3.848014e-009
-1.589756e-009
-7.456640e-012
1.002866e-009
1.556045e-009
1.766043e-009
1.736625e-009
1.555736e-009
1.294257e-009
1.007638e-009
7.373787e-010
5.106232e-010
3.391474e-010
2.207605e-010
1.444548e-010
9.716399e-011
6.830202e-011
5.031158e-011
3.716953e-011
2.408206e-011
9.183550e-012
-5.114822e-012
-1.359018e-011
-1.211074e-011
-1.129621e-012
1.367553e-011
2.398499e-011
2.326121e-011
1.084903e-011
-6.811618e-012
-1.946524e-011
-4.645475e-011
-1.500132e-011
1.986936e-011
3.529911e-011
2.629183e-011
4.231541e-012
-1.475008e-011
-2.051743e-011
-1.218788e-011
4.782299e-012
2.358828e-011
4.092031e-011
6.061380e-011
9.387786e-011
1.544222e-010
2.512864e-010
3.859157e-010
5.568052e-010
7.663875e-010
1.020658e-009
1.318602e-009
1.639198e-009
1.935677e-009
2.137716e-009
2.154102e-009
1.871313e-009
1.151994e-009
-1.605688e-010
-2.231817e-009
-5.223150e-009
-9.279105e-009
-1.451456e-008
-2.100424e-008
-2.877770e-008
-3.781811e-008
-4.805996e-008
-5.938626e-008
-7.163286e-008
-8.460342e-008
-9.808654e-008
-1.118639e-007
-1.257094e-007
-1.393896e-007
-1.526710e-007
-1.653292e-007
-1.771494e-007
-1.879218e-007
-1.974389e-007
-2.054975e-007
-2.119037e-007
-2.164783e-007
-2.190614e-007
-2.195194e-007
-2.177536e-007
-2.137074e-007
-2.073761e-007
-1.988149e-007
-1.881481e-007
-1.755751e-007
-1.613723e-007
-1.458894e-007
-1.295370e-007
-1.127679e-007
-9.605299e-008
-7.985635e-008
-6.460952e-008
-5.068394e-008
-3.836510e-008
-2.783334e-008
-1.915609e-008
-1.229237e-008
-7.107623e-009
-3.396671e-009
-9.122970e-010
6.049003e-010
1.401218e-009
1.693467e-009
1.661732e-009
1.448270e-009
1.159129e-009
8.667582e-010
6.136148e-010
4.175058e-010
2.789367e-010
1.891468e-010
1.362523e-010
1.077809e-010
9.087053e-011
7.340384e-011
4.770777e-011
1.455440e-011
-1.667191e-011
-3.340921e-011
-2.838553e-011
-5.789092e-012
1.954483e-011
3.070419e-011
2.021806e-011
-3.887023e-012
-2.333729e-011
-6.234274e-011
-2.439481e-011
2.276436e-011
5.179667e-011
4.917236e-011
2.047401e-011
-1.498754e-011
-3.639725e-011
-3.236875e-011
-4.303566e-012
3.819045e-011
8.569521e-011
1.365718e-010
2.005308e-010
2.961423e-010
4.425956e-010
6.504327e-010
9.179078e-010
1.233954e-009
1.579632e-009
1.918953e-009
2.180501e-009
2.241437e-009
1.922483e-009
9.910641e-010
-8.345328e-010
-3.879856e-009
-8.500915e-009
-1.505941e-008
-2.389137e-008
-3.527641e-008
-4.941169e-008
-6.639320e-008
-8.620688e-008
-1.087288e-007
-1.337298e-007
-1.608828e-007
-1.897769e-007
-2.199443e-007
-2.508907e-007
-2.821196e-007
-3.131419e-007
-3.434790e-007
-3.726664e-007
-4.002592e-007
-4.258318e-007
-4.489732e-007
-4.692821e-007
-4.863675e-007
-4.998548e-007
-5.093950e-007
-5.146737e-007
-5.154232e-007
-5.114368e-007
-5.025860e-007
-4.888399e-007
-4.702834e-007
-4.471347e-007
-4.197579e-007
-3.886728e-007
-3.545535e-007
-3.182145e-007
-2.805814e-007
-2.426494e-007
-2.054337e-007
-1.699097e-007
-1.369490e-007
-1.072584e-007
-8.133410e-008
-5.943665e-008
-4.158891e-008
-2.759500e-008
-1.708054e-008
-9.550378e-009
-4.453821e-009
-1.243540e-009
5.813518e-010
1.449729e-009
1.707050e-009
1.614525e-009
1.356161e-009
1.050848e-009
7.664894e-010
5.342914e-010
3.620657e-010
2.449417e-010
1.717689e-010
1.277365e-010
9.648492e-011
6.455107e-011
2.704243e-011
-9.893248e-012
-3.328695e-011
-3.303327e-011
-1.108844e-011
1.694754e-011
3.082509e-011
2.011268e-011
-7.062919e-012
-2.948178e-011
-6.939962e-011
-3.347611e-011
1.696315e-011
5.676051e-011
6.530344e-011
3.888288e-011
-4.987070e-012
-3.794814e-011
-3.828012e-011
-1.119955e-012
6.479239e-011
1.479832e-010
2.441877e-010
3.617936e-010
5.216226e-010
7.486778e-010
1.056533e-009
1.432379e-009
1.830587e-009
2.170425e-009
2.324014e-009
2.088906e-009
1.157937e-009
-8.956862e-010
-4.613526e-009
-1.063541e-008
-1.967567e-008
-3.248574e-008
-4.979759e-008
-7.225491e-008
-1.003468e-007
-1.343557e-007
-1.743249e-007
-2.200484e-007
-2.710824e-007
-3.267746e-007
-3.863000e-007
-4.487060e-007
-5.129640e-007
-5.780269e-007
-6.428755e-007
-7.065444e-007
-7.681282e-007
-8.267784e-007
-8.817004e-007
-9.321470e-007
-9.774100e-007
-1.016810e-006
-1.049691e-006
-1.075428e-006
-1.093429e-006
-1.103157e-006
-1.104137e-006
-1.095987e-006
-1.078441e-006
-1.051388e-006
-1.014901e-006
-9.692779e-007
-9.150675e-007
-8.531031e-007
-7.845176e-007
-7.107397e-007
-6.334620e-007
-5.545840e-007
-4.761270e-007
-4.001205e-007
-3.284691e-007
-2.628162e-007
-2.044286e-007
-1.541146e-007
-1.121868e-007
-7.847347e-008
-5.238169e-008
-3.300577e-008
-1.925950e-008
-1.000520e-008
-4.158632e-009
-7.615836e-010
9.774411e-010
1.670773e-009
1.762181e-009
1.552372e-009
1.230198e-009
9.030277e-010
6.232999e-010
4.097383e-010
2.618389e-010
1.680381e-010
1.107642e-010
7.195342e-011
3.936868e-011
1.053270e-011
-8.978868e-012
-1.264973e-011
-1.087936e-012
1.512612e-011
2.119164e-011
9.158514e-012
-1.468974e-011
-3.363074e-011
-5.876260e-011
-3.796277e-011
-2.393110e-013
4.140002e-011
6.441074e-011
5.385505e-011
1.824817e-011
-1.422655e-011
-1.522260e-011
2.849832e-011
1.156805e-010
2.405561e-010
4.011544e-010
6.036303e-010
8.637026e-010
1.199570e-009
1.609759e-009
2.041635e-009
2.364961e-009
2.353585e-009
1.660793e-009
-2.229964e-010
-4.017633e-009
-1.067835e-008
-2.138337e-008
-3.748901e-008
-6.045992e-008
-9.177112e-008
-1.327789e-007
-1.845753e-007
-2.478554e-007
-3.228240e-007
-4.091519e-007
-5.059877e-007
-6.120183e-007
-7.255673e-007
-8.447095e-007
-9.673857e-007
-1.091511e-006
-1.215076e-006
-1.336218e-006
-1.453265e-006
-1.564736e-006
-1.669319e-006
-1.765848e-006
-1.853276e-006
-1.930656e-006
-1.997113e-006
-2.051823e-006
-2.094008e-006
-2.122924e-006
-2.137869e-006
-2.138192e-006
-2.123312e-006
-2.092753e-006
-2.046188e-006
-1.983499e-006
-1.904830e-006
-1.810670e-006
-1.701932e-006
-1.580027e-006
-1.446923e-006
-1.305159e-006
-1.157810e-006
-1.008397e-006
-8.607113e-007
-7.185810e-007
-5.855848e-007
-4.647697e-007
-3.584043e-007
-2.678087e-007
-1.932914e-007
-1.342126e-007
-8.916019e-008
-5.620268e-008
-3.316016e-008
-1.784735e-008
-8.258892e-009
-2.687194e-009
2.257229e-010
1.492017e-009
1.820068e-009
1.674842e-009
1.340461e-009
9.757462e-010
6.586093e-010
4.179959e-010
2.545757e-010
1.538712e-010
9.577451e-011
6.200941e-011
4.057956e-011
2.618103e-011
1.738578e-011
1.296315e-011
9.824210e-012
3.939521e-012
-6.603734e-012
-1.923099e-011
-2.800422e-011
-2.060202e-011
-2.975849e-011
-2.467387e-011
4.605967e-012
4.140027e-011
5.990779e-011
5.227074e-011
3.667084e-011
4.280669e-011
9.479715e-011
2.068451e-010
3.870435e-010
6.390182e-010
9.617508e-010
1.350710e-009
1.790268e-009
2.220798e-009
2.480347e-009
2.240643e-009
9.518583e-010
-2.212329e-009
-8.422156e-009
-1.925843e-008
-3.674024e-008
-6.328228e-008
-1.015762e-007
-1.544052e-007
-2.243976e-007
-3.137350e-007
-4.238550e-007
-5.552102e-007
-7.071360e-007
-8.778504e-007
-1.064582e-006
-1.263800e-006
-1.471505e-006
-1.683532e-006
-1.895811e-006
-2.104577e-006
-2.306513e-006
-2.498837e-006
-2.679316e-006
-2.846221e-006
-2.998250e-006
-3.134448e-006
-3.254138e-006
-3.356859e-006
-3.442308e-006
-3.510276e-006
-3.560597e-006
-3.593088e-006
-3.607499e-006
-3.603464e-006
-3.580479e-006
-3.537886e-006
-3.474901e-006
-3.390660e-006
-3.284314e-006
-3.155163e-006
-3.002862e-006
-2.827649e-006
-2.630600e-006
-2.413859e-006
-2.180814e-006
-1.936156e-006
-1.685764e-006
-1.436404e-006
-1.195218e-006
-9.690865e-007
-7.639510e-007
-5.842155e-007
-4.323527e-007
-3.087963e-007
-2.121343e-007
-1.395364e-007
-8.730117e-008
-5.140182e-008
-2.794048e-008
-1.346492e-008
-5.138883e-009
-7.846745e-010
1.166631e-009
1.777012e-009
1.720311e-009
1.394369e-009
1.013945e-009
6.802256e-010
4.284903e-010
2.588964e-010
1.558170e-010
9.928330e-011
7.056899e-011
5.420500e-011
3.923844e-011
2.097843e-011
1.586401e-012
-1.281426e-011
-1.781579e-011
-1.496221e-011
-1.067566e-011
4.286409e-011
-4.999602e-012
-4.669464e-011
-4.329881e-011
2.025933e-012
5.648392e-011
9.236906e-011
1.102229e-010
1.363513e-010
2.076351e-010
3.596634e-010
6.187519e-010
9.921113e-010
1.458880e-009
1.964765e-009
2.404573e-009
2.565386e-009
2.022148e-009
8.871470e-012
-4.705913e-009
-1.393318e-008
-3.017097e-008
-5.668359e-008
-9.749540e-008
-1.572399e-007
-2.408373e-007
-3.530128e-007
-4.976946e-007
-6.773698e-007
-8.925166e-007
-1.141251e-006
-1.419286e-006
-1.720231e-006
-2.036167e-006
-2.358384e-006
-2.678167e-006
-2.987482e-006
-3.279478e-006
-3.548782e-006
-3.791593e-006
-4.005632e-006
-4.189971e-006
-4.344802e-006
-4.471193e-006
-4.570876e-006
-4.646087e-006
-4.699446e-006
-4.733826e-006
-4.752221e-006
-4.757583e-006
-4.752639e-006
-4.739672e-006
-4.720308e-006
-4.695297e-006
-4.664332e-006
-4.625907e-006
-4.577253e-006
-4.514381e-006
-4.432259e-006
-4.325183e-006
-4.187323e-006
-4.013458e-006
-3.799833e-006
-3.545060e-006
-3.250909e-006
-2.922808e-006
-2.569859e-006
-2.204246e-006
-1.840052e-006
-1.491618e-006
-1.171769e-006
-8.902773e-007
-6.529010e-007
-4.611722e-007
-3.129048e-007
-2.031935e-007
-1.256004e-007
-7.325432e-008
-3.968839e-008
-1.935551e-008
-7.847337e-009
-1.889967e-009
7.976117e-010
1.706674e-009
1.748995e-009
1.441867e-009
1.053266e-009
7.049964e-010
4.396578e-010
2.606364e-010
1.538182e-010
9.793205e-011
6.961303e-011
4.841861e-011
2.332007e-011
-3.387981e-012
-2.037091e-011
-1.904789e-011
-3.544895e-012
1.096361e-011
1.104755e-010
2.950316e-011
-5.659078e-011
-8.425887e-011
-3.844610e-011
4.958255e-011
1.365654e-010
2.035215e-010
2.697785e-010
3.836781e-010
6.020970e-010
9.663408e-010
1.475753e-009
2.061930e-009
2.561733e-009
2.667109e-009
1.815919e-009
-9.927852e-010
-7.434880e-009
-2.010298e-008
-4.271871e-008
-8.028783e-008
-1.391415e-007
-2.267611e-007
-3.512727e-007
-5.205529e-007
-7.409867e-007
-1.016044e-006
-1.344950e-006
-1.721798e-006
-2.135397e-006
-2.570002e-006
-3.006810e-006
-3.425939e-006
-3.808485e-006
-4.138301e-006
-4.403249e-006
-4.595797e-006
-4.713019e-006
-4.756128e-006
-4.729761e-006
-4.641159e-006
-4.499392e-006
-4.314726e-006
-4.098186e-006
-3.861286e-006
-3.615860e-006
-3.373909e-006
-3.147381e-006
-2.947871e-006
-2.786196e-006
-2.671886e-006
-2.612586e-006
-2.613420e-006
-2.676353e-006
-2.799589e-006
-2.977060e-006
-3.198099e-006
-3.447382e-006
-3.705275e-006
-3.948711e-006
-4.152670e-006
-4.292311e-006
-4.345646e-006
-4.296484e-006
-4.137174e-006
-3.870555e-006
-3.510469e-006
-3.080484e-006
-2.610802e-006
-2.133898e-006
-1.679813e-006
-1.272192e-006
-9.259525e-007
-6.469006e-007
-4.330679e-007
-2.770622e-007
-1.686464e-007
-9.693401e-008
-5.190110e-008
-2.519524e-008
-1.038630e-008
-2.853974e-009
5.123112e-010
1.673696e-009
1.784376e-009
1.475369e-009
1.064361e-009
6.945818e-010
4.174726e-010
2.377590e-010
1.368343e-010
8.577625e-011
5.561571e-011
2.763424e-011
-1.285994e-013
-1.674352e-011
-1.249653e-011
7.958504e-012
2.643399e-011
1.522789e-010
6.016113e-011
-4.817252e-011
-1.003977e-010
-6.266596e-011
4.831988e-011
1.869431e-010
3.195705e-010
4.553636e-010
6.470141e-010
9.631297e-010
1.444848e-009
2.054725e-009
2.617433e-009
2.741356e-009
1.692828e-009
-1.817345e-009
-9.957873e-009
-2.618610e-008
-5.567014e-008
-1.056292e-007
-1.854786e-007
-3.066179e-007
-4.816376e-007
-7.227236e-007
-1.039190e-006
-1.434377e-006
-1.902545e-006
-2.426630e-006
-2.977768e-006
-3.517063e-006
-3.999482e-006
-4.379098e-006
-4.614569e-006
-4.673734e-006
-4.536600e-006
-4.196414e-006
-3.658991e-006
-2.940748e-006
-2.066049e-006
-1.064453e-006
3.173013e-008
1.189299e-006
2.375370e-006
3.557981e-006
4.706233e-006
5.790207e-006
6.780868e-006
7.650097e-006
8.370962e-006
8.918231e-006
9.269138e-006
9.404362e-006
9.309188e-006
8.974828e-006
8.399884e-006
7.591897e-006
6.568890e-006
5.360703e-006
4.009832e-006
2.571351e-006
1.111441e-006
-2.959125e-007
-1.574310e-006
-2.652232e-006
-3.471509e-006
-3.995561e-006
-4.215550e-006
-4.152599e-006
-3.854881e-006
-3.389691e-006
-2.832091e-006
-2.252859e-006
-1.708720e-006
-1.236986e-006
-8.551588e-007
-5.644350e-007
-3.551662e-007
-2.123353e-007
-1.198169e-007
-6.302447e-008
-3.013563e-008
-1.233270e-008
-3.490316e-009
3.717549e-010
1.673203e-009
1.789150e-009
1.449633e-009
1.013932e-009
6.388335e-010
3.735893e-010
2.123534e-010
1.246983e-010
7.560176e-011
3.986155e-011
9.866013e-012
-7.557786e-012
-4.648597e-012
1.397890e-011
3.113803e-011
1.485635e-010
7.706728e-011
-1.855353e-011
-7.990394e-011
-5.742175e-011
6.172560e-011
2.489184e-010
4.660704e-010
7.086434e-010
1.019450e-009
1.456653e-009
2.026513e-009
2.591550e-009
2.746138e-009
1.635330e-009
-2.317884e-009
-1.181719e-008
-3.125147e-008
-6.736801e-008
-1.299271e-007
-2.321054e-007
-3.903114e-007
-6.229641e-007
-9.477083e-007
-1.376699e-006
-1.910147e-006
-2.529296e-006
-3.190926e-006
-3.825829e-006
-4.342921e-006