# vtk DataFile Version 3.0
vtk output
ASCII
DATASET STRUCTURED_POINTS
DIMENSIONS 100 100 1
SPACING 1 1 1
ORIGIN 0 0 0
POINT_DATA 10000
SCALARS SFBox_profile double
LOOKUP_TABLE default 
0.000000e+000
0.000000e+000
0.000000e+000
0.000000e+000
0.000000e+000
0.000000e+000
0.000000e+000
0.000000e+000
0.000000e+000
0.000000e+000
0.000000e+000
0.000000e+000
0.000000e+000
0.000000e+000
0.000000e+000
0.000000e+000
0.000000e+000
0.000000e+000
0.000000e+000
0.000000e+000
0.000000e+000
0.000000e+000
0.000000e+000
0.000000e+000
0.000000e+000
0.000000e+000
0.000000e+000
0.000000e+000
0.000000e+000
0.000000e+000
0.000000e+000
0.000000e+000
0.000000e+000
0.000000e+000
0.000000e+000
0.000000e+000
0.000000e+000
0.000000e+000
0.000000e+000
0.000000e+000
0.000000e+000
0.000000e+000
0.000000e+000
0.000000e+000
0.000000e+000
0.000000e+000
0.000000e+000
0.000000e+000
0.000000e+000
0.000000e+000
0.000000e+000
0.000000e+000
0.000000e+000
0.000000e+000
0.000000e+000
0.000000e+000
0.000000e+000
0.000000e+000
0.000000e+000
0.000000e+000
0.000000e+000
0.000000e+000
0.000000e+000
0.000000e+000
0.000000e+000
0.000000e+000
0.000000e+000
0.000000e+000
0.000000e+000
0.000000e+000
0.000000e+000
0.000000e+000
0.000000e+000
0.000000e+000
0.000000e+000
0.000000e+000
0.000000e+000
0.000000e+000
0.000000e+000
0.000000e+000
0.000000e+000
0.000000e+000
0.000000e+000
0.000000e+000
0.000000e+000
0.000000e+000
0.000000e+000
0.000000e+000
0.000000e+000
0.000000e+000
0.000000e+000
0.000000e+000
0.000000e+000
0.000000e+000
0.000000e+000
0.000000e+000
0.000000e+000
0.000000e+000
0.000000e+000
0.000000e+000
9.697504e-010
9.646649e-010
9.553462e-010
9.434945e-010
9.316458e-010
9.231471e-010
9.221125e-010
9.333491e-010
9.622381e-010
1.014559e-009
1.096240e-009
1.213011e-009
1.369955e-009
1.570939e-009
1.817918e-009
2.110130e-009
2.443193e-009
2.808146e-009
3.190502e-009
3.569393e-009
3.916909e-009
4.197759e-009
4.369380e-009
4.382620e-009
4.183112e-009
3.713390e-009
2.915778e-009
1.735996e-009
1.273227e-010
-1.944895e-009
-4.498714e-009
-7.531428e-009
-1.101617e-008
-1.489973e-008
-1.910189e-008
-2.351671e-008
-2.801567e-008
-3.245286e-008
-3.667190e-008
-4.051417e-008
-4.382785e-008
-4.647704e-008
-4.835029e-008
-4.936779e-008
-4.948659e-008
-4.870352e-008
-4.705532e-008
-4.461619e-008
-4.149284e-008
-3.781755e-008
-3.373975e-008
-2.941690e-008
-2.500539e-008
-2.065210e-008
-1.648726e-008
-1.261907e-008
-9.130234e-009
-6.076527e-009
-3.487312e-009
-1.367627e-009
2.984429e-010
1.543578e-009
2.412642e-009
2.958116e-009
3.235871e-009
3.301534e-009
3.207588e-009
3.001277e-009
2.723286e-009
2.407130e-009
2.079135e-009
1.758858e-009
1.459825e-009
1.190450e-009
9.550131e-010
7.546310e-010
5.881402e-010
4.528640e-010
3.452428e-010
2.613247e-010
1.971277e-010
1.488871e-010
1.132091e-010
8.715165e-011
6.824962e-011
5.450308e-011
4.434114e-011
3.657167e-011
3.032716e-011
2.500830e-011
2.023141e-011
1.578159e-011
1.156922e-011
7.595062e-012
3.918850e-012
6.332323e-013
-2.155777e-012
-4.346965e-012
-5.855608e-012
-6.623360e-012
9.535954e-010
9.504541e-010
9.450709e-010
9.392354e-010
9.356051e-010
9.376643e-010
9.496514e-010
9.764459e-010
1.023390e-009
1.096032e-009
1.199772e-009
1.339374e-009
1.518350e-009
1.738182e-009
1.997392e-009
2.290480e-009
2.606743e-009
2.929062e-009
3.232729e-009
3.484428e-009
3.641531e-009
3.651858e-009
3.454072e-009
2.978887e-009
2.151202e-009
8.932540e-010
-8.712184e-010
-3.211899e-009
-6.186119e-009
-9.832714e-009
-1.416596e-008
-1.917011e-008
-2.479509e-008
-3.095392e-008
-3.752233e-008
-4.434092e-008
-5.122009e-008
-5.794745e-008
-6.429768e-008
-7.004404e-008
-7.497085e-008
-7.888607e-008
-8.163286e-008
-8.309942e-008
-8.322603e-008
-8.200897e-008
-7.950069e-008
-7.580651e-008
-7.107789e-008
-6.550295e-008
-5.929499e-008
-5.267995e-008
-4.588380e-008
-3.912075e-008
-3.258311e-008
-2.643347e-008
-2.079948e-008
-1.577137e-008
-1.140213e-008
-7.710011e-009
-4.682738e-009
-2.283082e-009
-4.550038e-010
8.700596e-010
1.767293e-009
2.313316e-009
2.581953e-009
2.641057e-009
2.550408e-009
2.360567e-009
2.112578e-009
1.838315e-009
1.561291e-009
1.297769e-009
1.057999e-009
8.474771e-010
6.681195e-010
5.193088e-010
3.987699e-010
3.032699e-010
2.291528e-010
1.727191e-010
1.304823e-010
9.932101e-011
7.655531e-011
5.996523e-011
4.777550e-011
3.861426e-011
3.146143e-011
2.559303e-011
2.052608e-011
1.596654e-011
1.176473e-011
7.874765e-012
4.321370e-012
1.170864e-012
-1.490017e-012
-3.574518e-012
-5.007103e-012
-5.735425e-012
9.259854e-010
9.268566e-010
9.295859e-010
9.361265e-010
9.493500e-010
9.729620e-010
1.011362e-009
1.069433e-009
1.152218e-009
1.264485e-009
1.410103e-009
1.591253e-009
1.807403e-009
2.054066e-009
2.321335e-009
2.592230e-009
2.840918e-009
3.030929e-009
3.113489e-009
3.026196e-009
2.692243e-009
2.020466e-009
9.064743e-010
-7.649067e-010
-3.115675e-009
-6.269102e-009
-1.034263e-008
-1.543942e-008
-2.163894e-008
-2.898715e-008
-3.748705e-008
-4.709040e-008
-5.769156e-008
-6.912419e-008
-8.116167e-008
-9.352162e-008
-1.058747e-007
-1.178574e-007
-1.290885e-007
-1.391880e-007
-1.477970e-007
-1.545979e-007
-1.593328e-007
-1.618188e-007
-1.619589e-007
-1.597482e-007
-1.552743e-007
-1.487119e-007
-1.403121e-007
-1.303880e-007
-1.192959e-007
-1.074160e-007
-9.513152e-008
-8.280953e-008
-7.078428e-008
-5.934354e-008
-4.871933e-008
-3.908289e-008
-3.054389e-008
-2.315350e-008
-1.691056e-008
-1.176993e-008
-7.652173e-009
-4.453692e-009
-2.056407e-009
-3.364996e-010
8.282650e-010
1.552861e-009
1.941002e-009
2.082738e-009
2.053429e-009
1.913854e-009
1.711148e-009
1.480295e-009
1.245931e-009
1.024235e-009
8.247697e-010
6.521476e-010
5.074757e-010
3.895368e-010
2.957237e-010
2.227332e-010
1.670618e-010
1.253321e-010
9.449038e-011
7.190652e-011
5.540541e-011
4.325535e-011
3.412648e-011
2.703822e-011
2.129994e-011
1.645488e-011
1.222586e-011
8.469525e-012
5.136933e-012
2.239009e-012
-1.782071e-013
-2.057344e-012
-3.343154e-012
-3.995072e-012
8.964646e-010
9.036502e-010
9.191192e-010
9.450214e-010
9.844575e-010
1.041305e-009
1.119945e-009
1.224849e-009
1.359992e-009
1.528037e-009
1.729246e-009
1.960078e-009
2.211432e-009
2.466544e-009
2.698536e-009
2.867722e-009
2.918760e-009
2.777873e-009
2.350389e-009
1.518945e-009
1.427372e-010
-1.941745e-009
-4.918081e-009
-8.985002e-009
-1.434894e-008
-2.121391e-008
-2.976899e-008
-4.017361e-008
-5.254160e-008
-6.692487e-008
-8.329809e-008
-1.015458e-007
-1.214531e-007
-1.427024e-007
-1.648752e-007
-1.874620e-007
-2.098782e-007
-2.314876e-007
-2.516301e-007
-2.696534e-007
-2.849468e-007
-2.969730e-007
-3.052986e-007
-3.096173e-007
-3.097685e-007
-3.057457e-007
-2.976976e-007
-2.859193e-007
-2.708360e-007
-2.529790e-007
-2.329567e-007
-2.114221e-007
-1.890395e-007
-1.664516e-007
-1.442512e-007
-1.229569e-007
-1.029963e-007
-8.469493e-008
-6.827395e-008
-5.385291e-008
-4.145894e-008
-3.103978e-008
-2.247955e-008
-1.561554e-008
-1.025484e-008
-6.189607e-009
-3.210131e-009
-1.115283e-009
2.798180e-010
1.138856e-009
1.601789e-009
1.784320e-009
1.778920e-009
1.656916e-009
1.471226e-009
1.259368e-009
1.046477e-009
8.481083e-010
6.727115e-010
5.237207e-010
4.012291e-010
3.032871e-010
2.268544e-010
1.684721e-010
1.246996e-010
9.238104e-011
6.878114e-011
5.163493e-011
3.913999e-011
2.991430e-011
2.293967e-011
1.749633e-011
1.310252e-011
9.457332e-012
6.391604e-012
3.827407e-012
1.743711e-012
1.514708e-013
-9.269847e-013
-1.470938e-012
8.796676e-010
8.957780e-010
9.291900e-010
9.821911e-010
1.057961e-009
1.160226e-009
1.292726e-009
1.458441e-009
1.658501e-009
1.890707e-009
2.147594e-009
2.413965e-009
2.663859e-009
2.856968e-009
2.934536e-009
2.814918e-009
2.389002e-009
1.515880e-009
1.921116e-011
-2.315128e-009
-5.739436e-009
-1.054192e-008
-1.704110e-008
-2.557623e-008
-3.649350e-008
-5.012787e-008
-6.678092e-008
-8.669562e-008
-1.100293e-007
-1.368270e-007
-1.669968e-007
-2.002900e-007
-2.362896e-007
-2.744062e-007
-3.138865e-007
-3.538326e-007
-3.932323e-007
-4.309994e-007
-4.660216e-007
-4.972123e-007
-5.235640e-007
-5.441989e-007
-5.584137e-007
-5.657159e-007
-5.658489e-007
-5.588061e-007
-5.448305e-007
-5.244028e-007
-4.982165e-007
-4.671425e-007
-4.321850e-007
-3.944315e-007
-3.549995e-007
-3.149841e-007
-2.754095e-007
-2.371875e-007
-2.010854e-007
-1.677052e-007
-1.374745e-007
-1.106484e-007
-8.732127e-008
-6.744679e-008
-5.086253e-008
-3.731791e-008
-2.650220e-008
-1.807094e-008
-1.166912e-008
-6.950132e-009
-3.590173e-009
-1.297996e-009
1.795123e-010
1.055335e-009
1.503140e-009
1.660126e-009
1.631157e-009
1.493557e-009
1.302050e-009
1.093476e-009
8.910347e-010
7.079323e-010
5.503683e-010
4.198987e-010
3.152209e-010
2.334684e-010
1.711047e-010
1.245022e-010
9.028982e-011
6.553055e-011
4.778938e-011
3.512860e-011
2.606324e-011
1.949479e-011
1.464182e-011
1.097146e-011
8.137844e-012
5.929954e-012
4.229889e-012
2.978524e-012
2.151426e-012
1.739514e-012
8.955632e-010
9.235166e-010
9.806073e-010
1.069017e-009
1.191527e-009
1.350859e-009
1.548676e-009
1.784156e-009
2.052019e-009
2.339900e-009
2.624945e-009
2.869553e-009
3.016212e-009
2.981466e-009
2.649151e-009
1.863174e-009
4.202746e-010
-1.936592e-009
-5.523437e-009
-1.071798e-008
-1.795884e-008
-2.773997e-008
-4.059933e-008
-5.710081e-008
-7.780904e-008
-1.032571e-007
-1.339084e-007
-1.701136e-007
-2.120661e-007
-2.597596e-007
-3.129503e-007
-3.711299e-007
-4.335116e-007
-4.990335e-007
-5.663799e-007
-6.340211e-007
-7.002708e-007
-7.633549e-007
-8.214906e-007
-8.729666e-007
-9.162221e-007
-9.499176e-007
-9.729944e-007
-9.847208e-007
-9.847228e-007
-9.729997e-007
-9.499229e-007
-9.162202e-007
-8.729449e-007
-8.214302e-007
-7.632306e-007
-7.000533e-007
-6.336810e-007
-5.658925e-007
-4.983846e-007
-4.327017e-007
-3.701772e-007
-3.118913e-007
-2.586465e-007
-2.109628e-007
-1.690893e-007
-1.330314e-007
-1.025877e-007
-7.739447e-008
-5.697187e-008
-4.076845e-008
-2.820167e-008
-1.869173e-008
-1.168804e-008
-6.687937e-009
-3.248258e-009
-9.906126e-010
3.983891e-010
1.170675e-009
1.522755e-009
1.603178e-009
1.520483e-009
1.350987e-009
1.145933e-009
9.377267e-010
7.451526e-010
5.775573e-010
4.380825e-010
3.260640e-010
2.387413e-010
1.724157e-010
1.231925e-010
8.741610e-011
6.189374e-011
4.397908e-011
3.156694e-011
2.304449e-011
1.721504e-011
1.322097e-011
1.046779e-011
8.556862e-012
7.233231e-012
6.339693e-012
5.784065e-012
5.517619e-012
9.695172e-010
1.012398e-009
1.099075e-009
1.231030e-009
1.409564e-009
1.634583e-009
1.902780e-009
2.205081e-009
2.523161e-009
2.824871e-009
3.058398e-009
3.145046e-009
2.970611e-009
2.375448e-009
1.143513e-009
-1.009081e-009
-4.445213e-009
-9.616473e-009
-1.707004e-008
-2.745100e-008
-4.149829e-008
-6.003228e-008
-8.393233e-008
-1.141031e-007
-1.514290e-007
-1.967177e-007
-2.506345e-007
-3.136312e-007
-3.858745e-007
-4.671812e-007
-5.569655e-007
-6.542080e-007
-7.574506e-007
-8.648212e-007
-9.740899e-007
-1.082753e-006
-1.188139e-006
-1.287528e-006
-1.378272e-006
-1.457910e-006
-1.524269e-006
-1.575537e-006
-1.610328e-006
-1.627710e-006
-1.627228e-006
-1.608910e-006
-1.573262e-006
-1.521252e-006
-1.454291e-006
-1.374190e-006
-1.283109e-006
-1.183482e-006
-1.077930e-006
-9.691458e-007
-8.597854e-007
-7.523478e-007
-6.490706e-007
-5.518419e-007
-4.621405e-007
-3.810048e-007
-3.090341e-007
-2.464160e-007
-1.929775e-007
-1.482507e-007
-1.115461e-007
-8.202680e-008
-5.877760e-008
-4.086478e-008
-2.738420e-008
-1.749675e-008
-1.045168e-008
-5.598931e-009
-2.392592e-009
-3.873601e-010
7.697028e-010
1.350324e-009
1.557467e-009
1.537859e-009
1.393741e-009
1.193311e-009
9.795824e-010
7.776160e-010
6.001953e-010
4.521221e-010
3.333451e-010
2.411482e-010
1.716071e-010
1.205068e-010
8.386893e-011
5.821890e-011
4.068145e-011
2.897504e-011
2.135294e-011
1.651804e-011
1.353536e-011
1.175098e-011
1.071908e-011
1.014777e-011
9.853587e-012
9.730769e-012
1.131876e-009
1.192538e-009
1.313961e-009
1.495700e-009
1.735430e-009
2.026762e-009
2.356044e-009
2.697892e-009
3.009206e-009
3.221379e-009
3.230507e-009
2.885421e-009
1.973599e-009
2.051909e-010
-2.804261e-009
-7.551434e-009
-1.466172e-008
-2.490264e-008
-3.919172e-008
-5.859598e-008
-8.431985e-008
-1.176784e-007
-1.600535e-007
-2.128306e-007
-2.773169e-007
-3.546422e-007
-4.456473e-007
-5.507682e-007
-6.699261e-007
-8.024354e-007
-9.469442e-007
-1.101417e-006
-1.263172e-006
-1.428969e-006
-1.595151e-006
-1.757825e-006
-1.913057e-006
-2.057072e-006
-2.186426e-006
-2.298137e-006
-2.389767e-006
-2.459454e-006
-2.505891e-006
-2.528294e-006
-2.526349e-006
-2.500177e-006
-2.450319e-006
-2.377739e-006
-2.283856e-006
-2.170575e-006
-2.040299e-006
-1.895922e-006
-1.740762e-006
-1.578462e-006
-1.412834e-006
-1.247680e-006
-1.086599e-006
-9.328130e-007
-7.890122e-007
-6.572577e-007
-5.389322e-007
-4.347456e-007
-3.447873e-007
-2.686147e-007
-2.053641e-007
-1.538695e-007
-1.127804e-007
-8.066557e-008
-5.610139e-008
-3.773833e-008
-2.434770e-008
-1.484921e-008
-8.322671e-009
-4.007087e-009
-1.290702e-009
3.046839e-010
1.142433e-009
1.490611e-009
1.540780e-009
1.425031e-009
1.230674e-009
1.012413e-009
8.020427e-010
6.159159e-010
4.604739e-010
3.362062e-010
2.403655e-010
1.687438e-010
1.167676e-010
8.011735e-011
5.502974e-011
3.840333e-011
2.778692e-011
2.130904e-011
1.758198e-011
1.560622e-011
1.468055e-011
1.432938e-011
1.424481e-011
1.424446e-011
1.416606e-009
1.496851e-009
1.655568e-009
1.888091e-009
2.184505e-009
2.525866e-009
2.878689e-009
3.187358e-009
3.364057e-009
3.275843e-009
2.728574e-009
1.447559e-009
-9.449022e-010
-4.954515e-009
-1.124141e-008
-2.064615e-008
-3.421277e-008
-5.320534e-008
-7.911381e-008
-1.136441e-007
-1.586875e-007
-2.162636e-007
-2.884335e-007
-3.771812e-007
-4.842640e-007
-6.110379e-007
-7.582706e-007
-9.259567e-007
-1.113160e-006
-1.317904e-006
-1.537142e-006
-1.766816e-006
-2.002023e-006
-2.237276e-006
-2.466840e-006
-2.685112e-006
-2.886981e-006
-3.068143e-006
-3.225297e-006
-3.356219e-006
-3.459698e-006
-3.535349e-006
-3.583357e-006
-3.604187e-006
-3.598340e-006
-3.566189e-006
-3.507932e-006
-3.423676e-006
-3.313621e-006
-3.178313e-006
-3.018905e-006
-2.837379e-006
-2.636661e-006
-2.420624e-006
-2.193948e-006
-1.961868e-006
-1.729843e-006
-1.503195e-006
-1.286757e-006
-1.084599e-006
-8.998237e-007
-7.344820e-007
-5.895778e-007
-4.651595e-007
-3.604720e-007
-2.741411e-007
-2.043677e-007
-1.491125e-007
-1.062550e-007
-7.372155e-008
-4.957862e-008
-3.209334e-008
-1.976524e-008
-1.133498e-008
-5.775914e-009
-2.274201e-009
-2.022065e-010
9.107644e-010
1.407587e-009
1.530323e-009
1.443959e-009
1.256386e-009
1.034559e-009
8.171098e-010
6.238600e-010
4.627371e-010
3.346299e-010
2.366574e-010
1.642663e-010
1.124972e-010
7.668479e-011
5.278853e-011
3.749843e-011
2.821542e-011
2.296512e-011
2.029227e-011
1.915661e-011
1.883688e-011
1.885789e-011
1.893503e-011
1.858306e-009
1.957360e-009
2.149943e-009
2.423086e-009
2.752364e-009
3.095496e-009
3.383111e-009
3.506142e-009
3.299299e-009
2.520105e-009
8.231535e-010
-2.270410e-009
-7.407712e-009
-1.544203e-008
-2.747159e-008
-4.487585e-008
-6.934463e-008
-1.028938e-007
-1.478600e-007
-2.068657e-007
-2.827454e-007
-3.784249e-007
-4.967477e-007
-6.402476e-007
-8.108733e-007
-1.009681e-006
-1.236526e-006
-1.489781e-006
-1.766146e-006
-2.060579e-006
-2.366411e-006
-2.675647e-006
-2.979480e-006
-3.268952e-006
-3.535718e-006
-3.772798e-006
-3.975210e-006
-4.140384e-006
-4.268271e-006
-4.361124e-006
-4.422962e-006
-4.458805e-006
-4.473777e-006
-4.472239e-006
-4.457068e-006
-4.429219e-006
-4.387613e-006
-4.329391e-006
-4.250474e-006
-4.146354e-006
-4.012964e-006
-3.847512e-006
-3.649136e-006
-3.419275e-006
-3.161731e-006
-2.882401e-006
-2.588748e-006
-2.289115e-006
-1.991967e-006
-1.705189e-006
-1.435520e-006
-1.188173e-006
-9.666548e-007
-7.727819e-007
-6.068398e-007
-4.678489e-007
-3.538775e-007
-2.623626e-007
-1.904036e-007
-1.350077e-007
-9.327973e-008
-6.255239e-008
-4.046617e-008
-2.500512e-008
-1.450001e-008
-7.608369e-009
-3.280136e-009
-7.162239e-010
6.748424e-010
1.318396e-009
1.510923e-009
1.452007e-009
1.270584e-009
1.045729e-009
8.225582e-010
6.239860e-010
4.591146e-010
3.290136e-010
2.305359e-010
1.587185e-010
1.081992e-010
7.397816e-011
5.176400e-011
3.807306e-011
3.019237e-011
2.608148e-011
2.425493e-011
2.366864e-011
2.362575e-011
2.370322e-011
2.486586e-009
2.598504e-009
2.809844e-009
3.092407e-009
3.395633e-009
3.636030e-009
3.682055e-009
3.333687e-009
2.295918e-009
1.455566e-010
-3.708947e-009
-1.007435e-008
-2.002486e-008
-3.495730e-008
-5.664493e-008
-8.728351e-008
-1.295210e-007
-1.864594e-007
-2.616147e-007
-3.588196e-007
-4.820535e-007
-6.351854e-007
-8.216240e-007
-1.043879e-006
-1.303054e-006
-1.598314e-006
-1.926398e-006
-2.281249e-006
-2.653878e-006
-3.032538e-006
-3.403280e-006
-3.750906e-006
-4.060267e-006
-4.317791e-006
-4.513034e-006
-4.640056e-006
-4.698364e-006
-4.693257e-006
-4.635468e-006
-4.540091e-006
-4.424918e-006
-4.308385e-006
-4.207390e-006
-4.135277e-006
-4.100249e-006
-4.104401e-006
-4.143520e-006
-4.207653e-006
-4.282384e-006
-4.350644e-006
-4.394817e-006
-4.398867e-006
-4.350207e-006
-4.241065e-006
-4.069197e-006
-3.837883e-006
-3.555256e-006
-3.233125e-006
-2.885495e-006
-2.527018e-006
-2.171588e-006
-1.831242e-006
-1.515444e-006
-1.230776e-006
-9.809685e-007
-7.672152e-007
-5.886407e-007
-4.428440e-007
-3.264345e-007
-2.355052e-007
-1.660167e-007
-1.140792e-007
-7.614059e-008
-4.909179e-008
-3.030782e-008
-1.764223e-008
-9.390841e-009
-4.238050e-009
-1.195745e-009
4.578871e-010
1.235109e-009
1.488318e-009
1.451605e-009
1.274179e-009
1.046290e-009
8.186792e-010
6.166823e-010
4.501115e-010
3.199281e-010
2.225661e-010
1.525917e-010
1.042369e-010
7.219642e-011
5.197307e-011
3.995828e-011
3.337761e-011
3.017544e-011
2.888828e-011
2.852811e-011
2.849050e-011
3.316470e-009
3.425912e-009
3.620022e-009
3.844029e-009
4.002350e-009
3.941559e-009
3.426187e-009
2.106370e-009
-5.236465e-010
-5.176770e-009
-1.283407e-008
-2.481439e-008
-4.284966e-008
-6.916084e-008
-1.065260e-007
-1.583284e-007
-2.285682e-007
-3.218153e-007
-4.430790e-007
-5.975646e-007
-7.902916e-007
-1.025553e-006
-1.306215e-006
-1.632881e-006
-2.002979e-006
-2.409896e-006
-2.842290e-006
-3.283776e-006
-3.713166e-006
-4.105413e-006
-4.433314e-006
-4.669922e-006
-4.791461e-006
-4.780395e-006
-4.628235e-006
-4.337619e-006
-3.923283e-006
-3.411670e-006
-2.839151e-006
-2.248993e-006
-1.687454e-006
-1.199439e-006
-8.242282e-007
-5.917428e-007
-5.197299e-007
-6.121206e-007
-8.587126e-007
-1.236196e-006
-1.710426e-006
-2.239740e-006
-2.778985e-006
-3.283839e-006
-3.714943e-006
-4.041368e-006
-4.242997e-006
-4.311580e-006
-4.250394e-006
-4.072658e-006
-3.799027e-006
-3.454602e-006
-3.065904e-006
-2.658217e-006
-2.253567e-006
-1.869469e-006
-1.518426e-006
-1.208065e-006
-9.417302e-007
-7.193339e-007
-5.382974e-007
-3.944453e-007
-2.827721e-007
-1.980402e-007
-1.352057e-007
-8.968854e-008
-5.751531e-008
-3.536730e-008
-2.056276e-008
-1.099897e-008
-5.073406e-009
-1.598210e-009
2.828632e-010
1.169316e-009
1.467924e-009
1.445112e-009
1.268212e-009
1.036846e-009
8.060186e-010
6.025471e-010
4.363593e-010
3.079746e-010
2.132492e-010
1.462327e-010
1.007684e-010
7.129661e-011
5.317750e-011
4.274608e-011
3.723503e-011
3.464516e-011
3.361280e-011
3.329658e-011
4.332998e-009
4.408646e-009
4.514417e-009
4.550931e-009
4.347813e-009
3.636817e-009
2.014005e-009
-1.110314e-009
-6.574947e-009
-1.554484e-008
-2.960083e-008
-5.083897e-008
-8.197336e-008
-1.264315e-007
-1.884259e-007
-2.729779e-007
-3.858607e-007
-5.334221e-007
-7.222365e-007
-9.585386e-007
-1.247396e-006
-1.591603e-006
-1.990318e-006
-2.437542e-006
-2.920594e-006
-3.418862e-006
-3.903135e-006
-4.335874e-006
-4.672731e-006
-4.865454e-006
-4.866152e-006
-4.632569e-006
-4.133786e-006
-3.355540e-006
-2.304323e-006
-1.009471e-006
4.771996e-007
2.084342e-006
3.726277e-006
5.309788e-006
6.741640e-006
7.935962e-006
8.820755e-006
9.343039e-006
9.472408e-006
9.202942e-006
8.553483e-006
7.566346e-006
6.304423e-006
4.846753e-006
3.282667e-006
1.704865e-006
2.020116e-007
-1.148375e-006
-2.285864e-006
-3.171126e-006
-3.787502e-006
-4.140037e-006
-4.252246e-006
-4.161281e-006
-3.912294e-006
-3.552888e-006
-3.128349e-006
-2.678121e-006
-2.233731e-006
-1.818058e-006
-1.445710e-006
-1.124148e-006
-8.551900e-007
-6.366190e-007
-4.636498e-007
-3.301529e-007
-2.295781e-007
-1.555898e-007
-1.024551e-007
-6.523893e-008
-3.986034e-008
-2.305940e-008
-1.231135e-008
-5.716668e-009
-1.885917e-009
1.689181e-010
1.130014e-009
1.453627e-009
1.434131e-009
1.253458e-009
1.017995e-009
7.852118e-010
5.822604e-010
4.185130e-010
2.936991e-010
2.029578e-010
1.398024e-010
9.773396e-011
7.101266e-011
5.494292e-011
4.589363e-011
4.119751e-011
3.901330e-011
3.819578e-011
5.467749e-009
5.452394e-009
5.342242e-009
4.965429e-009
4.031066e-009
2.087801e-009
-1.533971e-009
-7.797682e-009
-1.805478e-008
-3.415691e-008
-5.858278e-008
-9.457249e-008
-1.462558e-007
-2.187524e-007
-3.182107e-007
-4.517378e-007
-6.271574e-007
-8.525186e-007
-1.135268e-006
-1.481010e-006
-1.891793e-006
-2.363963e-006
-2.885671e-006
-3.434324e-006
-3.974393e-006
-4.456120e-006
-4.815779e-006
-4.978040e-006
-4.860795e-006
-4.382427e-006
-3.470988e-006
-2.074255e-006
-1.691948e-007
2.230762e-006
5.072096e-006
8.262155e-006
1.167483e-005
1.516022e-005
1.855680e-005
2.170423e-005
2.445490e-005
2.668290e-005
2.828983e-005
2.920776e-005
2.940000e-005
2.886106e-005
2.761620e-005
2.572118e-005
2.326147e-005
2.035029e-005
1.712434e-005
1.373656e-005
1.034617e-005
7.106695e-006
4.153612e-006
1.593543e-006
-5.033354e-007
-2.106479e-006
-3.223458e-006
-3.894262e-006
-4.182667e-006
-4.166249e-006
-3.926637e-006
-3.541285e-006
-3.077559e-006
-2.589387e-006
-2.116255e-006
-1.684048e-006
-1.307063e-006
-9.905943e-007
-7.335650e-007
-5.308826e-007
-3.753346e-007
-2.589824e-007
-1.740907e-007
-1.136757e-007
-7.176751e-008
-4.347839e-008
-2.494797e-008
-1.322340e-008
-6.111902e-009
-2.031116e-009
1.285167e-010
1.122079e-009
1.447011e-009
1.419137e-009
1.230245e-009
9.902221e-010
7.569031e-010
5.565147e-010
3.971873e-010
2.775436e-010
1.919071e-010
1.332773e-010
9.489228e-011
7.093790e-011
5.677691e-011
4.893208e-011
4.496892e-011
4.335692e-011
6.564502e-009
6.360575e-009
5.819434e-009
4.654716e-009
2.386584e-009
-1.720735e-009
-8.745135e-009
-2.021777e-008
-3.825883e-008
-6.573472e-008
-1.064281e-007
-1.652046e-007
-2.481471e-007
-3.626133e-007
-5.171490e-007
-7.211639e-007
-9.842505e-007
-1.315006e-006
-1.719220e-006
-2.197319e-006
-2.741066e-006
-3.329670e-006
-3.925688e-006
-4.471386e-006
-4.886495e-006
-5.068425e-006
-4.895983e-006
-4.237302e-006
-2.962022e-006
-9.569283e-007
1.856783e-006
5.507244e-006
9.959711e-006
1.511129e-005
2.079450e-005
2.679004e-005
3.284719e-005
3.870848e-005
4.413419e-005
4.892208e-005
5.291893e-005
5.602248e-005
5.817479e-005
5.935040e-005
5.954351e-005
5.875878e-005
5.700861e-005
5.431775e-005
5.073353e-005
4.633817e-005
4.125850e-005
3.566918e-005
2.978684e-005
2.385512e-005
1.812301e-005
1.282032e-005
8.135100e-006
4.197014e-006
1.069241e-006
-1.250375e-006
-2.820133e-006
-3.739718e-006
-4.132988e-006
-4.131255e-006
-3.859377e-006
-3.425957e-006
-2.917979e-006
-2.399408e-006
-1.912774e-006
-1.482583e-006
-1.119516e-006
-8.245938e-007
-5.927997e-007
-4.159227e-007
-2.845921e-007
-1.895956e-007
-1.226321e-007
-7.665691e-008
-4.595962e-008
-2.608274e-008
-1.365971e-008
-6.223840e-009
-2.019789e-009
1.655853e-010
1.145461e-009
1.447061e-009
1.399397e-009
1.198438e-009
9.538929e-010
7.217265e-010
5.259840e-010
3.729301e-010
2.598351e-010
1.801731e-010
1.265045e-010
9.192743e-011
7.069607e-011
5.838532e-011
5.184142e-011
4.905853e-011
7.330867e-009
6.779941e-009
5.461520e-009
2.912940e-009
-1.634527e-009
-9.347619e-009
-2.191635e-008
-4.171260e-008
-7.197864e-008
-1.170362e-007
-1.824965e-007
-2.754345e-007
-4.044703e-007
-5.796637e-007
-8.120922e-007
-1.112934e-006
-1.491844e-006
-1.954390e-006
-2.498368e-006
-3.108944e-006
-3.752798e-006
-4.371852e-006
-4.877591e-006
-5.147468e-006
-5.025197e-006
-4.326753e-006
-2.853396e-006
-4.120367e-007
3.158291e-006
7.956871e-006
1.399338e-005
2.116736e-005
2.926094e-005
3.794903e-005
4.682839e-005
5.546298e-005
6.343862e-005
7.041691e-005
7.617728e-005
8.063760e-005
8.384825e-005
8.596050e-005
8.717605e-005
8.768918e-005
8.763474e-005
8.705383e-005
8.588501e-005
8.398289e-005
8.115987e-005
7.724127e-005
7.212106e-005
6.580545e-005
5.843426e-005
5.027569e-005
4.169608e-005
3.311206e-005
2.493555e-005
1.752295e-005
1.113722e-005
5.928201e-006
1.931667e-006
-9.157890e-007
-2.751413e-006
-3.756586e-006
-4.128261e-006
-4.055531e-006
-3.703422e-006
-3.204237e-006
-2.655425e-006
-2.122214e-006
-1.643033e-006
-1.235999e-006
-9.052222e-007
-6.461427e-007
-4.496377e-007
-3.048762e-007
-2.011206e-007
-1.287226e-007
-7.955951e-008
-4.711731e-008
-2.637311e-008
-1.358319e-008
-6.042453e-009
-1.853607e-009
2.749024e-010
1.195171e-009
1.450359e-009
1.373171e-009
1.157579e-009
9.093236e-010
6.803268e-010
4.913265e-010
3.462280e-010
2.408146e-010
1.677633e-010
1.193328e-010
8.865829e-011
7.025720e-011
6.013299e-011
5.570660e-011
7.272530e-009
6.127087e-009
3.493885e-009
-1.354766e-009
-9.618886e-009
-2.310274e-008
-4.439162e-008
-7.707005e-008
-1.259709e-007
-1.974320e-007
-2.995179e-007
-4.421296e-007
-6.368842e-007
-8.965841e-007
-1.234026e-006
-1.659834e-006
-2.178974e-006
-2.785626e-006
-3.456301e-006
-4.141410e-006
-4.756080e-006
-5.171757e-006
-5.210909e-006
-4.647775e-006
-3.218231e-006
-6.412529e-007
3.347131e-006
8.948981e-006
1.625349e-005
2.518805e-005
3.548200e-005
4.665483e-005
5.803847e-005
6.883870e-005
7.823241e-005
8.548831e-005
9.009014e-005
9.183694e-005
9.089638e-005
8.779567e-005
8.334705e-005
7.851966e-005
7.428076e-005
7.143539e-005
7.049301e-005
7.158391e-005
7.443918e-005
7.843715e-005
8.270888e-005
8.628491e-005
8.825780e-005
8.793117e-005
8.492774e-005
7.923712e-005
7.119756e-005
6.141980e-005
5.067341e-005
3.976144e-005
2.940811e-005
2.017738e-005
1.243090e-005
6.324056e-006
1.832430e-006
-1.203085e-006
-3.024246e-006
-3.906440e-006
-4.119262e-006
-3.899745e-006
-3.438274e-006
-2.875082e-006
-2.304196e-006
-1.781562e-006
-1.334611e-006
-9.713634e-007
-6.879951e-007
-4.745051e-007
-3.185698e-007
-2.079040e-007
-1.315217e-007
-8.026115e-008
-4.686088e-008
-2.579445e-008
-1.299982e-008
-5.584367e-009
-1.549790e-009
4.428068e-010
1.262052e-009
1.451694e-009
1.338122e-009
1.107125e-009
8.568963e-010
6.334098e-010
4.532131e-010
3.175517e-010
2.207280e-010
1.547740e-010
1.118652e-010
8.542059e-011
7.049759e-011
6.384676e-011
5.606907e-009
3.492555e-009
-1.264021e-009
-9.779866e-009
-2.388406e-008
-4.630154e-008
-8.089392e-008
-1.329456e-007
-2.094689e-007
-3.194769e-007
-4.741315e-007
-6.866152e-007
-9.714914e-007
-1.343214e-006
-1.813349e-006
-2.385993e-006
-3.050920e-006
-3.774190e-006
-4.486478e-006
-5.070200e-006
-5.347673e-006
-5.073842e-006
-3.938208e-006
-1.581077e-006
2.371397e-006
8.251114e-006
1.627247e-005
2.644434e-005
3.848297e-005
5.174482e-005
6.520225e-005
7.748384e-005
8.699344e-005
9.210718e-005
9.142696e-005
8.404829e-005
6.978718e-005
4.931104e-005
2.413587e-005
-3.518944e-006
-3.099463e-005
-5.552774e-005
-7.459746e-005
-8.623288e-005
-8.924288e-005
-8.334875e-005
-6.921240e-005
-4.836005e-005
-2.300609e-005
4.210707e-006
3.055308e-005
5.353091e-005
7.121170e-005
8.243993e-005
8.692446e-005
8.518200e-005
7.835736e-005
6.796853e-005
5.563525e-005
4.284441e-005
3.078694e-005
2.027808e-005
1.175340e-005
5.320353e-006
8.413422e-007
-1.974407e-006
-3.486914e-006
-4.059711e-006
-4.016142e-006
-3.616618e-006
-3.052697e-006
-2.452552e-006
-1.892556e-006
-1.410783e-006
-1.019612e-006
-7.160058e-007
-4.890205e-007
-3.247889e-007
-2.094804e-007
-1.308248e-007
-7.870485e-008
-4.520656e-008
-2.439132e-008
-1.195816e-008
-4.890904e-009
-1.138889e-009
6.490952e-010
1.334172e-009
1.444979e-009
1.291852e-009
1.046728e-009
7.971930e-010
5.818128e-010
4.123968e-010
2.874662e-010
2.000127e-010
1.416942e-010
1.049201e-010
8.374710e-011
7.417404e-011
1.153750e-009
-2.479866e-009
-1.054274e-008
-2.471110e-008
-4.771030e-008
-8.356214e-008
-1.378979e-007
-2.183080e-007
-3.346685e-007
-4.993365e-007
-7.270280e-007
-1.034082e-006
-1.436671e-006
-1.947369e-006
-2.569359e-006
-3.287591e-006
-4.056448e-006
-4.784173e-006
-5.315498e-006
-5.415622e-006