# vtk DataFile Version 3.0
vtk output
ASCII
DATASET STRUCTURED_POINTS
DIMENSIONS 100 100 1
SPACING 1 1 1
ORIGIN 0 0 0
POINT_DATA 10000
SCALARS SFBox_profile double
LOOKUP_TABLE default 
9.439921e-003
9.439921e-003
9.439920e-003
9.439919e-003
9.439919e-003
9.439920e-003
9.439920e-003
9.439920e-003
9.439920e-003
9.439920e-003
9.439921e-003
9.439920e-003
9.439920e-003
9.439920e-003
9.439919e-003
9.439919e-003
9.439919e-003
9.439920e-003
9.439921e-003
9.439921e-003
9.439921e-003
9.439921e-003
9.439921e-003
9.439920e-003
9.439920e-003
9.439920e-003
9.439920e-003
9.439919e-003
9.439919e-003
9.439919e-003
9.439919e-003
9.439919e-003
9.439920e-003
9.439920e-003
9.439920e-003
9.439920e-003
9.439921e-003
9.439921e-003
9.439921e-003
9.439921e-003
9.439922e-003
9.439922e-003
9.439922e-003
9.439922e-003
9.439922e-003
9.439922e-003
9.439922e-003
9.439923e-003
9.439923e-003
9.439923e-003
9.439923e-003
9.439923e-003
9.439923e-003
9.439923e-003
9.439923e-003
9.439922e-003
9.439922e-003
9.439922e-003
9.439922e-003
9.439922e-003
9.439922e-003
9.439921e-003
9.439921e-003
9.439921e-003
9.439921e-003
9.439921e-003
9.439920e-003
9.439920e-003
9.439920e-003
9.439920e-003
9.439920e-003
9.439919e-003
9.439919e-003
9.439919e-003
9.439920e-003
9.439920e-003
9.439920e-003
9.439920e-003
9.439920e-003
9.439920e-003
9.439921e-003
9.439921e-003
9.439920e-003
9.439920e-003
9.439919e-003
9.439919e-003
9.439920e-003
9.439920e-003
9.439920e-003
9.439920e-003
9.439920e-003
9.439920e-003
9.439920e-003
9.439920e-003
9.439920e-003
9.439920e-003
9.439920e-003
9.439920e-003
9.439920e-003
9.439920e-003
9.439921e-003
9.439921e-003
9.439920e-003
9.439919e-003
9.439919e-003
9.439920e-003
9.439920e-003
9.439920e-003
9.439920e-003
9.439920e-003
9.439921e-003
9.439920e-003
9.439920e-003
9.439920e-003
9.439919e-003
9.439919e-003
9.439919e-003
9.439920e-003
9.439921e-003
9.439921e-003
9.439921e-003
9.439921e-003
9.439921e-003
9.439920e-003
9.439920e-003
9.439920e-003
9.439920e-003
9.439919e-003
9.439919e-003
9.439919e-003
9.439919e-003
9.439919e-003
9.439920e-003
9.439920e-003
9.439920e-003
9.439920e-003
9.439921e-003
9.439921e-003
9.439921e-003
9.439921e-003
9.439922e-003
9.439922e-003
9.439922e-003
9.439922e-003
9.439922e-003
9.439922e-003
9.439922e-003
9.439923e-003
9.439923e-003
9.439923e-003
9.439923e-003
9.439923e-003
9.439923e-003
9.439923e-003
9.439923e-003
9.439922e-003
9.439922e-003
9.439922e-003
9.439922e-003
9.439922e-003
9.439922e-003
9.439921e-003
9.439921e-003
9.439921e-003
9.439921e-003
9.439921e-003
9.439920e-003
9.439920e-003
9.439920e-003
9.439920e-003
9.439920e-003
9.439919e-003
9.439919e-003
9.439919e-003
9.439920e-003
9.439920e-003
9.439920e-003
9.439920e-003
9.439920e-003
9.439920e-003
9.439921e-003
9.439921e-003
9.439920e-003
9.439920e-003
9.439919e-003
9.439919e-003
9.439920e-003
9.439920e-003
9.439920e-003
9.439920e-003
9.439920e-003
9.439920e-003
9.439920e-003
9.439920e-003
9.439920e-003
9.439920e-003
9.439920e-003
9.439920e-003
9.439920e-003
9.439920e-003
9.439920e-003
9.439920e-003
9.439920e-003
9.439920e-003
9.439920e-003
9.439920e-003
9.439920e-003
9.439920e-003
9.439920e-003
9.439920e-003
9.439920e-003
9.439920e-003
9.439920e-003
9.439920e-003
9.439920e-003
9.439920e-003
9.439920e-003
9.439920e-003
9.439920e-003
9.439920e-003
9.439920e-003
9.439920e-003
9.439920e-003
9.439920e-003
9.439920e-003
9.439920e-003
9.439920e-003
9.439920e-003
9.439921e-003
9.439921e-003
9.439921e-003
9.439921e-003
9.439921e-003
9.439921e-003
9.439921e-003
9.439921e-003
9.439921e-003
9.439921e-003
9.439921e-003
9.439921e-003
9.439922e-003
9.439922e-003
9.439922e-003
9.439922e-003
9.439922e-003
9.439922e-003
9.439922e-003
9.439922e-003
9.439922e-003
9.439922e-003
9.439922e-003
9.439922e-003
9.439922e-003
9.439922e-003
9.439922e-003
9.439922e-003
9.439922e-003
9.439922e-003
9.439922e-003
9.439922e-003
9.439922e-003
9.439921e-003
9.439921e-003
9.439921e-003
9.439921e-003
9.439921e-003
9.439921e-003
9.439921e-003
9.439921e-003
9.439921e-003
9.439921e-003
9.439921e-003
9.439920e-003
9.439920e-003
9.439920e-003
9.439920e-003
9.439920e-003
9.439920e-003
9.439920e-003
9.439920e-003
9.439920e-003
9.439920e-003
9.439920e-003
9.439920e-003
9.439920e-003
9.439920e-003
9.439920e-003
9.439920e-003
9.439920e-003
9.439920e-003
9.439920e-003
9.439920e-003
9.439920e-003
9.439920e-003
9.439920e-003
9.439920e-003
9.439920e-003
9.439920e-003
9.439920e-003
9.439920e-003
9.439919e-003
9.439920e-003
9.439920e-003
9.439920e-003
9.439921e-003
9.439921e-003
9.439920e-003
9.439920e-003
9.439920e-003
9.439919e-003
9.439919e-003
9.439919e-003
9.439920e-003
9.439921e-003
9.439921e-003
9.439921e-003
9.439921e-003
9.439920e-003
9.439920e-003
9.439919e-003
9.439919e-003
9.439919e-003
9.439919e-003
9.439920e-003
9.439920e-003
9.439920e-003
9.439921e-003
9.439921e-003
9.439922e-003
9.439922e-003
9.439922e-003
9.439922e-003
9.439922e-003
9.439922e-003
9.439922e-003
9.439922e-003
9.439922e-003
9.439923e-003
9.439923e-003
9.439923e-003
9.439923e-003
9.439923e-003
9.439923e-003
9.439923e-003
9.439924e-003
9.439924e-003
9.439924e-003
9.439924e-003
9.439924e-003
9.439924e-003
9.439924e-003
9.439924e-003
9.439924e-003
9.439924e-003
9.439924e-003
9.439924e-003
9.439924e-003
9.439923e-003
9.439923e-003
9.439923e-003
9.439923e-003
9.439923e-003
9.439922e-003
9.439922e-003
9.439922e-003
9.439922e-003
9.439922e-003
9.439922e-003
9.439922e-003
9.439922e-003
9.439922e-003
9.439921e-003
9.439921e-003
9.439921e-003
9.439921e-003
9.439920e-003
9.439920e-003
9.439920e-003
9.439919e-003
9.439919e-003
9.439919e-003
9.439920e-003
9.439920e-003
9.439920e-003
9.439921e-003
9.439921e-003
9.439921e-003
9.439920e-003
9.439920e-003
9.439920e-003
9.439920e-003
9.439920e-003
9.439920e-003
9.439920e-003
9.439920e-003
9.439920e-003
9.439920e-003
9.439920e-003
9.439920e-003
9.439920e-003
9.439919e-003
9.439920e-003
9.439920e-003
9.439921e-003
9.439921e-003
9.439920e-003
9.439920e-003
9.439920e-003
9.439920e-003
9.439920e-003
9.439920e-003
9.439920e-003
9.439920e-003
9.439920e-003
9.439921e-003
9.439921e-003
9.439920e-003
9.439920e-003
9.439920e-003
9.439920e-003
9.439920e-003
9.439920e-003
9.439920e-003
9.439920e-003
9.439920e-003
9.439921e-003
9.439921e-003
9.439921e-003
9.439921e-003
9.439922e-003
9.439922e-003
9.439922e-003
9.439923e-003
9.439923e-003
9.439924e-003
9.439924e-003
9.439925e-003
9.439925e-003
9.439926e-003
9.439926e-003
9.439927e-003
9.439927e-003
9.439928e-003
9.439928e-003
9.439929e-003
9.439929e-003
9.439929e-003
9.439929e-003
9.439930e-003
9.439930e-003
9.439930e-003
9.439930e-003
9.439930e-003
9.439930e-003
9.439929e-003
9.439929e-003
9.439929e-003
9.439928e-003
9.439928e-003
9.439927e-003
9.439927e-003
9.439926e-003
9.439926e-003
9.439925e-003
9.439924e-003
9.439924e-003
9.439923e-003
9.439923e-003
9.439922e-003
9.439922e-003
9.439922e-003
9.439921e-003
9.439921e-003
9.439921e-003
9.439921e-003
9.439920e-003
9.439920e-003
9.439920e-003
9.439920e-003
9.439920e-003
9.439920e-003
9.439920e-003
9.439920e-003
9.439920e-003
9.439920e-003
9.439920e-003
9.439920e-003
9.439920e-003
9.439920e-003
9.439920e-003
9.439920e-003
9.439920e-003
9.439920e-003
9.439920e-003
9.439920e-003
9.439920e-003
9.439920e-003
9.439920e-003
9.439920e-003
9.439920e-003
9.439919e-003
9.439920e-003
9.439920e-003
9.439921e-003
9.439920e-003
9.439920e-003
9.439919e-003
9.439920e-003
9.439920e-003
9.439921e-003
9.439921e-003
9.439920e-003
9.439920e-003
9.439920e-003
9.439920e-003
9.439920e-003
9.439920e-003
9.439920e-003
9.439920e-003
9.439921e-003
9.439921e-003
9.439921e-003
9.439921e-003
9.439921e-003
9.439921e-003
9.439921e-003
9.439921e-003
9.439921e-003
9.439922e-003
9.439922e-003
9.439923e-003
9.439924e-003
9.439925e-003
9.439926e-003
9.439927e-003
9.439928e-003
9.439929e-003
9.439930e-003
9.439931e-003
9.439932e-003
9.439933e-003
9.439934e-003
9.439935e-003
9.439935e-003
9.439936e-003
9.439937e-003
9.439937e-003
9.439937e-003
9.439938e-003
9.439938e-003
9.439938e-003
9.439938e-003
9.439938e-003
9.439937e-003
9.439937e-003
9.439937e-003
9.439936e-003
9.439935e-003
9.439935e-003
9.439934e-003
9.439933e-003
9.439932e-003
9.439931e-003
9.439930e-003
9.439929e-003
9.439928e-003
9.439927e-003
9.439925e-003
9.439924e-003
9.439923e-003
9.439922e-003
9.439922e-003
9.439921e-003
9.439921e-003
9.439921e-003
9.439921e-003
9.439921e-003
9.439921e-003
9.439921e-003
9.439921e-003
9.439921e-003
9.439920e-003
9.439920e-003
9.439920e-003
9.439920e-003
9.439920e-003
9.439920e-003
9.439920e-003
9.439920e-003
9.439920e-003
9.439920e-003
9.439920e-003
9.439920e-003
9.439920e-003
9.439920e-003
9.439920e-003
9.439920e-003
9.439920e-003
9.439920e-003
9.439920e-003
9.439920e-003
9.439920e-003
9.439920e-003
9.439920e-003
9.439920e-003
9.439919e-003
9.439919e-003
9.439920e-003
9.439920e-003
9.439921e-003
9.439921e-003
9.439920e-003
9.439920e-003
9.439919e-003
9.439919e-003
9.439919e-003
9.439920e-003
9.439920e-003
9.439920e-003
9.439921e-003
9.439921e-003
9.439922e-003
9.439922e-003
9.439922e-003
9.439922e-003
9.439922e-003
9.439923e-003
9.439924e-003
9.439924e-003
9.439925e-003
9.439927e-003
9.439928e-003
9.439930e-003
9.439931e-003
9.439933e-003
9.439934e-003
9.439936e-003
9.439937e-003
9.439938e-003
9.439939e-003
9.439940e-003
9.439941e-003
9.439942e-003
9.439943e-003
9.439944e-003
9.439944e-003
9.439944e-003
9.439945e-003
9.439945e-003
9.439945e-003
9.439945e-003
9.439945e-003
9.439945e-003
9.439944e-003
9.439944e-003
9.439944e-003
9.439943e-003
9.439942e-003
9.439942e-003
9.439941e-003
9.439940e-003
9.439939e-003
9.439938e-003
9.439936e-003
9.439935e-003
9.439933e-003
9.439932e-003
9.439930e-003
9.439929e-003
9.439927e-003
9.439926e-003
9.439925e-003
9.439924e-003
9.439923e-003
9.439922e-003
9.439921e-003
9.439921e-003
9.439921e-003
9.439921e-003
9.439921e-003
9.439921e-003
9.439920e-003
9.439920e-003
9.439920e-003
9.439920e-003
9.439919e-003
9.439919e-003
9.439920e-003
9.439920e-003
9.439921e-003
9.439921e-003
9.439920e-003
9.439920e-003
9.439920e-003
9.439920e-003
9.439920e-003
9.439920e-003
9.439920e-003
9.439920e-003
9.439920e-003
9.439921e-003
9.439920e-003
9.439920e-003
9.439920e-003
9.439920e-003
9.439920e-003
9.439920e-003
9.439920e-003
9.439920e-003
9.439920e-003
9.439920e-003
9.439920e-003
9.439920e-003
9.439920e-003
9.439920e-003
9.439920e-003
9.439920e-003
9.439921e-003
9.439921e-003
9.439921e-003
9.439921e-003
9.439921e-003
9.439922e-003
9.439922e-003
9.439923e-003
9.439925e-003
9.439926e-003
9.439928e-003
9.439930e-003
9.439932e-003
9.439934e-003
9.439936e-003
9.439937e-003
9.439939e-003
9.439941e-003
9.439942e-003
9.439943e-003
9.439944e-003
9.439945e-003
9.439946e-003
9.439946e-003
9.439946e-003
9.439946e-003
9.439946e-003
9.439946e-003
9.439946e-003
9.439945e-003
9.439945e-003
9.439945e-003
9.439944e-003
9.439944e-003
9.439944e-003
9.439944e-003
9.439943e-003
9.439943e-003
9.439943e-003
9.439943e-003
9.439944e-003
9.439944e-003
9.439944e-003
9.439943e-003
9.439943e-003
9.439943e-003
9.439942e-003
9.439941e-003
9.439940e-003
9.439938e-003
9.439937e-003
9.439935e-003
9.439933e-003
9.439931e-003
9.439930e-003
9.439928e-003
9.439926e-003
9.439925e-003
9.439923e-003
9.439922e-003
9.439922e-003
9.439921e-003
9.439921e-003
9.439921e-003
9.439920e-003
9.439920e-003
9.439920e-003
9.439920e-003
9.439920e-003
9.439920e-003
9.439920e-003
9.439920e-003
9.439920e-003
9.439920e-003
9.439920e-003
9.439920e-003
9.439920e-003
9.439920e-003
9.439920e-003
9.439920e-003
9.439920e-003
9.439920e-003
9.439920e-003
9.439921e-003
9.439920e-003
9.439919e-003
9.439919e-003
9.439920e-003
9.439921e-003
9.439921e-003
9.439920e-003
9.439920e-003
9.439919e-003
9.439919e-003
9.439920e-003
9.439920e-003
9.439920e-003
9.439921e-003
9.439921e-003
9.439921e-003
9.439921e-003
9.439921e-003
9.439921e-003
9.439921e-003
9.439922e-003
9.439923e-003
9.439925e-003
9.439927e-003
9.439929e-003
9.439932e-003
9.439934e-003
9.439937e-003
9.439939e-003
9.439941e-003
9.439943e-003
9.439945e-003
9.439946e-003
9.439946e-003
9.439946e-003
9.439946e-003
9.439945e-003
9.439943e-003
9.439941e-003
9.439938e-003
9.439936e-003
9.439932e-003
9.439929e-003
9.439926e-003
9.439923e-003
9.439920e-003
9.439917e-003
9.439915e-003
9.439913e-003
9.439912e-003
9.439912e-003
9.439912e-003
9.439912e-003
9.439913e-003
9.439915e-003
9.439918e-003
9.439921e-003
9.439924e-003
9.439927e-003
9.439931e-003
9.439934e-003
9.439937e-003
9.439939e-003
9.439941e-003
9.439942e-003
9.439943e-003
9.439942e-003
9.439941e-003
9.439940e-003
9.439938e-003
9.439936e-003
9.439933e-003
9.439931e-003
9.439929e-003
9.439927e-003
9.439925e-003
9.439923e-003
9.439922e-003
9.439921e-003
9.439921e-003
9.439920e-003
9.439921e-003
9.439921e-003
9.439921e-003
9.439920e-003
9.439920e-003
9.439920e-003
9.439920e-003
9.439920e-003
9.439920e-003
9.439920e-003
9.439920e-003
9.439920e-003
9.439920e-003
9.439920e-003
9.439920e-003
9.439920e-003
9.439920e-003
9.439920e-003
9.439921e-003
9.439920e-003
9.439919e-003
9.439919e-003
9.439920e-003
9.439921e-003
9.439921e-003
9.439920e-003
9.439919e-003
9.439919e-003
9.439919e-003
9.439920e-003
9.439920e-003
9.439921e-003
9.439921e-003
9.439921e-003
9.439921e-003
9.439921e-003
9.439922e-003
9.439922e-003
9.439923e-003
9.439925e-003
9.439927e-003
9.439930e-003
9.439933e-003
9.439935e-003
9.439938e-003
9.439941e-003
9.439943e-003
9.439945e-003
9.439946e-003
9.439946e-003
9.439945e-003
9.439942e-003
9.439938e-003
9.439932e-003
9.439924e-003
9.439915e-003
9.439904e-003
9.439893e-003
9.439880e-003
9.439867e-003
9.439854e-003
9.439841e-003
9.439829e-003
9.439817e-003
9.439806e-003
9.439797e-003
9.439790e-003
9.439784e-003
9.439780e-003
9.439779e-003
9.439779e-003
9.439783e-003
9.439788e-003
9.439796e-003
9.439806e-003
9.439818e-003
9.439831e-003
9.439846e-003
9.439861e-003
9.439876e-003
9.439890e-003
9.439903e-003
9.439914e-003
9.439924e-003
9.439931e-003
9.439937e-003
9.439940e-003
9.439942e-003
9.439942e-003
9.439941e-003
9.439939e-003
9.439936e-003
9.439934e-003
9.439931e-003
9.439929e-003
9.439927e-003
9.439925e-003
9.439923e-003
9.439922e-003
9.439921e-003
9.439921e-003
9.439921e-003
9.439921e-003
9.439921e-003
9.439921e-003
9.439920e-003
9.439920e-003
9.439920e-003
9.439919e-003
9.439920e-003
9.439920e-003
9.439921e-003
9.439921e-003
9.439920e-003
9.439920e-003
9.439920e-003
9.439920e-003
9.439920e-003
9.439920e-003
9.439920e-003
9.439920e-003
9.439920e-003
9.439920e-003
9.439921e-003
9.439921e-003
9.439920e-003
9.439920e-003
9.439919e-003
9.439920e-003
9.439920e-003
9.439921e-003
9.439921e-003
9.439921e-003
9.439921e-003
9.439921e-003
9.439922e-003
9.439924e-003
9.439926e-003
9.439928e-003
9.439931e-003
9.439934e-003
9.439937e-003
9.439940e-003
9.439943e-003
9.439945e-003
9.439946e-003
9.439946e-003
9.439944e-003
9.439938e-003
9.439930e-003
9.439917e-003
9.439900e-003
9.439879e-003
9.439853e-003
9.439823e-003
9.439790e-003
9.439753e-003
9.439714e-003
9.439673e-003
9.439632e-003
9.439591e-003
9.439552e-003
9.439514e-003
9.439479e-003
9.439448e-003
9.439422e-003
9.439400e-003
9.439384e-003
9.439374e-003
9.439370e-003
9.439374e-003
9.439384e-003
9.439401e-003
9.439426e-003
9.439456e-003
9.439492e-003
9.439533e-003
9.439578e-003
9.439625e-003
9.439672e-003
9.439719e-003
9.439763e-003
9.439803e-003
9.439839e-003
9.439869e-003
9.439894e-003
9.439913e-003
9.439926e-003
9.439935e-003
9.439940e-003
9.439941e-003
9.439941e-003
9.439939e-003
9.439937e-003
9.439934e-003
9.439932e-003
9.439929e-003
9.439926e-003
9.439925e-003
9.439923e-003
9.439922e-003
9.439921e-003
9.439920e-003
9.439920e-003
9.439920e-003
9.439921e-003
9.439920e-003
9.439920e-003
9.439920e-003
9.439920e-003
9.439920e-003
9.439920e-003
9.439920e-003
9.439920e-003
9.439920e-003
9.439920e-003
9.439920e-003
9.439920e-003
9.439920e-003
9.439920e-003
9.439920e-003
9.439920e-003
9.439920e-003
9.439920e-003
9.439920e-003
9.439920e-003
9.439920e-003
9.439920e-003
9.439921e-003
9.439921e-003
9.439921e-003
9.439921e-003
9.439921e-003
9.439921e-003
9.439922e-003
9.439924e-003
9.439927e-003
9.439930e-003
9.439934e-003
9.439937e-003
9.439941e-003
9.439944e-003
9.439947e-003
9.439948e-003
9.439946e-003
9.439940e-003
9.439930e-003
9.439912e-003
9.439885e-003
9.439849e-003
9.439803e-003
9.439745e-003
9.439676e-003
9.439596e-003
9.439507e-003
9.439409e-003
9.439304e-003
9.439195e-003
9.439083e-003
9.438972e-003
9.438862e-003
9.438757e-003
9.438658e-003
9.438568e-003
9.438487e-003
9.438419e-003
9.438364e-003
9.438323e-003
9.438299e-003
9.438291e-003
9.438301e-003
9.438329e-003
9.438375e-003
9.438439e-003
9.438520e-003
9.438615e-003
9.438724e-003
9.438843e-003
9.438969e-003
9.439098e-003
9.439227e-003
9.439351e-003
9.439467e-003
9.439572e-003
9.439664e-003
9.439742e-003
9.439805e-003
9.439854e-003
9.439890e-003
9.439914e-003
9.439930e-003
9.439938e-003
9.439942e-003
9.439942e-003
9.439940e-003
9.439937e-003
9.439934e-003
9.439931e-003
9.439928e-003
9.439926e-003
9.439924e-003
9.439922e-003
9.439921e-003
9.439920e-003
9.439920e-003
9.439920e-003
9.439920e-003
9.439920e-003
9.439920e-003
9.439920e-003
9.439920e-003
9.439920e-003
9.439920e-003
9.439920e-003
9.439920e-003
9.439920e-003
9.439920e-003
9.439920e-003
9.439919e-003
9.439920e-003
9.439921e-003
9.439921e-003
9.439920e-003
9.439919e-003
9.439919e-003
9.439920e-003
9.439921e-003
9.439921e-003
9.439921e-003
9.439921e-003
9.439921e-003
9.439921e-003
9.439922e-003
9.439923e-003
9.439926e-003
9.439928e-003
9.439932e-003
9.439936e-003
9.439940e-003
9.439944e-003
9.439947e-003
9.439949e-003
9.439946e-003
9.439938e-003
9.439921e-003
9.439893e-003
9.439849e-003
9.439786e-003
9.439701e-003
9.439592e-003
9.439457e-003
9.439295e-003
9.439107e-003
9.438895e-003
9.438661e-003
9.438409e-003
9.438143e-003
9.437870e-003
9.437593e-003
9.437319e-003
9.437052e-003
9.436797e-003
9.436560e-003
9.436344e-003
9.436154e-003
9.435992e-003
9.435862e-003
9.435768e-003
9.435712e-003
9.435695e-003
9.435720e-003
9.435788e-003
9.435899e-003
9.436053e-003
9.436247e-003
9.436478e-003
9.436742e-003
9.437032e-003
9.437340e-003
9.437658e-003
9.437978e-003
9.438290e-003
9.438586e-003
9.438857e-003
9.439100e-003
9.439310e-003
9.439485e-003
9.439626e-003
9.439734e-003
9.439814e-003
9.439870e-003
9.439906e-003
9.439928e-003
9.439938e-003
9.439942e-003
9.439942e-003
9.439939e-003
9.439936e-003
9.439932e-003
9.439929e-003
9.439926e-003
9.439924e-003
9.439922e-003
9.439921e-003
9.439921e-003
9.439920e-003
9.439920e-003
9.439921e-003
9.439921e-003
9.439920e-003
9.439920e-003
9.439920e-003
9.439919e-003
9.439920e-003
9.439920e-003
9.439920e-003
9.439920e-003
9.439920e-003
9.439919e-003
9.439920e-003
9.439921e-003
9.439921e-003
9.439920e-003
9.439919e-003
9.439919e-003
9.439920e-003
9.439921e-003
9.439921e-003
9.439921e-003
9.439920e-003
9.439921e-003
9.439923e-003
9.439925e-003
9.439928e-003
9.439931e-003
9.439934e-003
9.439938e-003
9.439943e-003
9.439947e-003
9.439949e-003
9.439947e-003
9.439938e-003
9.439918e-003
9.439880e-003
9.439819e-003
9.439726e-003
9.439595e-003
9.439418e-003
9.439189e-003
9.438903e-003
9.438557e-003
9.438152e-003
9.437689e-003
9.437173e-003
9.436613e-003
9.436016e-003
9.435395e-003
9.434761e-003
9.434124e-003
9.433498e-003
9.432894e-003
9.432321e-003
9.431790e-003
9.431309e-003
9.430887e-003
9.430530e-003
9.430246e-003
9.430040e-003
9.429918e-003
9.429884e-003
9.429942e-003
9.430095e-003
9.430344e-003
9.430688e-003
9.431122e-003
9.431640e-003
9.432234e-003
9.432889e-003
9.433591e-003
9.434320e-003
9.435058e-003
9.435785e-003
9.436480e-003
9.437128e-003
9.437713e-003
9.438227e-003
9.438663e-003
9.439021e-003
9.439306e-003
9.439522e-003
9.439680e-003
9.439790e-003
9.439862e-003
9.439906e-003
9.439929e-003
9.439940e-003
9.439942e-003
9.439941e-003
9.439938e-003
9.439934e-003
9.439930e-003
9.439927e-003
9.439925e-003
9.439923e-003
9.439922e-003
9.439921e-003
9.439920e-003
9.439920e-003
9.439921e-003
9.439921e-003
9.439920e-003
9.439919e-003
9.439919e-003
9.439920e-003
9.439920e-003
9.439921e-003
9.439920e-003
9.439920e-003
9.439919e-003
9.439920e-003
9.439920e-003
9.439921e-003
9.439920e-003
9.439920e-003
9.439920e-003
9.439920e-003
9.439921e-003
9.439921e-003
9.439921e-003
9.439921e-003
9.439922e-003
9.439925e-003
9.439929e-003
9.439933e-003
9.439937e-003
9.439941e-003
9.439946e-003
9.439950e-003
9.439950e-003
9.439943e-003
9.439923e-003
9.439882e-003
9.439809e-003
9.439693e-003
9.439518e-003
9.439269e-003
9.438931e-003
9.438487e-003
9.437927e-003
9.437241e-003
9.436426e-003
9.435485e-003
9.434425e-003
9.433259e-003
9.432007e-003
9.430688e-003
9.429328e-003
9.427952e-003
9.426584e-003
9.425248e-003
9.423968e-003
9.422764e-003
9.421654e-003
9.420655e-003
9.419782e-003
9.419049e-003
9.418467e-003
9.418048e-003
9.417802e-003
9.417738e-003
9.417864e-003
9.418184e-003
9.418702e-003
9.419416e-003
9.420321e-003
9.421405e-003
9.422651e-003
9.424034e-003
9.425525e-003
9.427087e-003
9.428680e-003
9.430263e-003
9.431794e-003
9.433235e-003
9.434553e-003
9.435724e-003
9.436733e-003
9.437576e-003
9.438256e-003
9.438785e-003
9.439183e-003
9.439469e-003
9.439665e-003
9.439793e-003
9.439871e-003
9.439914e-003
9.439935e-003
9.439942e-003
9.439942e-003
9.439939e-003
9.439935e-003
9.439932e-003
9.439929e-003
9.439926e-003
9.439923e-003
9.439922e-003
9.439920e-003
9.439920e-003
9.439920e-003
9.439921e-003
9.439920e-003
9.439920e-003
9.439920e-003
9.439920e-003
9.439920e-003
9.439920e-003
9.439920e-003
9.439920e-003
9.439920e-003
9.439920e-003
9.439919e-003
9.439920e-003
9.439920e-003
9.439921e-003
9.439921e-003
9.439921e-003
9.439921e-003
9.439921e-003
9.439921e-003
9.439923e-003
9.439925e-003
9.439929e-003
9.439933e-003
9.439938e-003
9.439943e-003
9.439948e-003
9.439952e-003
9.439949e-003
9.439934e-003
9.439898e-003
9.439826e-003
9.439702e-003
9.439502e-003
9.439199e-003
9.438763e-003
9.438160e-003
9.437360e-003
9.436333e-003
9.435059e-003
9.433523e-003
9.431726e-003
9.429678e-003
9.427403e-003
9.424934e-003
9.422314e-003
9.419591e-003
9.416815e-003
9.414037e-003
9.411306e-003
9.408668e-003
9.406164e-003
9.403829e-003
9.401695e-003
9.399790e-003
9.398137e-003
9.396759e-003
9.395673e-003
9.394898e-003
9.394450e-003
9.394344e-003
9.394595e-003
9.395211e-003
9.396200e-003
9.397563e-003
9.399292e-003
9.401372e-003
9.403777e-003
9.406467e-003
9.409391e-003
9.412486e-003
9.415679e-003
9.418889e-003
9.422033e-003
9.425031e-003
9.427811e-003
9.430316e-003
9.432506e-003
9.434361e-003
9.435881e-003
9.437087e-003
9.438008e-003
9.438686e-003
9.439165e-003
9.439489e-003
9.439696e-003
9.439822e-003
9.439892e-003
9.439927e-003
9.439941e-003
9.439943e-003
9.439941e-003
9.439936e-003
9.439932e-003
9.439929e-003
9.439926e-003
9.439923e-003
9.439922e-003
9.439921e-003
9.439920e-003
9.439920e-003
9.439920e-003
9.439920e-003
9.439920e-003
9.439920e-003
9.439920e-003
9.439920e-003
9.439920e-003
9.439920e-003
9.439921e-003
9.439920e-003
9.439919e-003
9.439919e-003
9.439920e-003
9.439921e-003
9.439921e-003
9.439921e-003
9.439921e-003
9.439922e-003
9.439924e-003
9.439926e-003
9.439930e-003
9.439934e-003
9.439939e-003
9.439945e-003
9.439950e-003
9.439952e-003
9.439946e-003
9.439921e-003
9.439863e-003
9.439752e-003
9.439556e-003
9.439238e-003
9.438751e-003
9.438036e-003
9.437033e-003
9.435677e-003
9.433908e-003
9.431677e-003
9.428953e-003
9.425724e-003
9.422007e-003
9.417841e-003
9.413291e-003
9.408439e-003
9.403379e-003
9.398213e-003
9.393039e-003
9.387952e-003
9.383038e-003
9.378369e-003
9.374008e-003
9.370005e-003
9.366401e-003
9.363228e-003
9.360512e-003
9.358277e-003
9.356543e-003
9.355328e-003
9.354652e-003
9.354532e-003
9.354988e-003
9.356036e-003
9.357690e-003
9.359959e-003
9.362845e-003
9.366338e-003
9.370415e-003
9.375034e-003
9.380131e-003
9.385618e-003
9.391384e-003
9.397294e-003
9.403200e-003
9.408945e-003
9.414380e-003
9.419371e-003
9.423817e-003
9.427651e-003
9.430849e-003
9.433426e-003
9.435430e-003
9.436933e-003
9.438016e-003
9.438766e-003
9.439263e-003
9.439576e-003
9.439763e-003
9.439866e-003
9.439917e-003
9.439938e-003
9.439943e-003
9.439941e-003
9.439937e-003
9.439933e-003
9.439929e-003
9.439926e-003
9.439923e-003
9.439922e-003
9.439921e-003
9.439920e-003
9.439920e-003
9.439921e-003
9.439920e-003
9.439920e-003
9.439920e-003
9.439920e-003
9.439920e-003
9.439920e-003
9.439922e-003
9.439920e-003
9.439919e-003
9.439919e-003
9.439920e-003
9.439921e-003
9.439921e-003
9.439921e-003
9.439921e-003
9.439923e-003
9.439927e-003
9.439931e-003
9.439935e-003
9.439940e-003
9.439946e-003
9.439952e-003
9.439953e-003
9.439942e-003
9.439905e-003
9.439822e-003
9.439661e-003
9.439376e-003
9.438906e-003
9.438170e-003
9.437072e-003
9.435500e-003
9.433334e-003
9.430461e-003
9.426780e-003
9.422224e-003
9.416768e-003
9.410438e-003
9.403318e-003
9.395536e-003
9.387264e-003
9.378697e-003
9.370037e-003
9.361480e-003
9.353201e-003
9.345348e-003
9.338036e-003
9.331347e-003
9.325333e-003
9.320021e-003
9.315419e-003
9.311523e-003
9.308319e-003
9.305794e-003
9.303931e-003
9.302718e-003
9.302148e-003
9.302219e-003
9.302938e-003
9.304321e-003
9.306394e-003
9.309191e-003
9.312754e-003
9.317130e-003
9.322361e-003
9.328475e-003
9.335474e-003
9.343318e-003
9.351914e-003
9.361107e-003
9.370679e-003
9.380367e-003
9.389873e-003
9.398904e-003
9.407196e-003
9.414546e-003
9.420830e-003
9.426006e-003
9.430114e-003
9.433251e-003
9.435556e-003
9.437183e-003
9.438285e-003
9.438999e-003
9.439440e-003
9.439697e-003
9.439837e-003
9.439906e-003
9.439935e-003
9.439943e-003
9.439942e-003
9.439937e-003
9.439933e-003
9.439929e-003
9.439926e-003
9.439924e-003
9.439922e-003
9.439920e-003
9.439920e-003
9.439921e-003
9.439921e-003
9.439920e-003
9.439919e-003
9.439919e-003
9.439920e-003
9.439921e-003
9.439921e-003
9.439920e-003
9.439919e-003
9.439919e-003
9.439920e-003
9.439921e-003
9.439921e-003
9.439921e-003
9.439922e-003
9.439926e-003
9.439930e-003
9.439936e-003
9.439941e-003
9.439948e-003
9.439953e-003
9.439953e-003
9.439938e-003
9.439890e-003
9.439780e-003
9.439564e-003
9.439176e-003
9.438524e-003
9.437481e-003
9.435890e-003
9.433565e-003
9.430300e-003
9.425890e-003
9.420157e-003
9.412978e-003
9.404321e-003
9.394261e-003
9.382995e-003
9.370833e-003
9.358168e-003
9.345443e-003
9.333104e-003
9.321557e-003
9.311134e-003
9.302078e-003
9.294526e-003
9.288517e-003
9.284005e-003
9.280874e-003
9.278960e-003
9.278070e-003
9.278000e-003
9.278546e-003
9.279514e-003
9.280726e-003
9.282019e-003
9.283255e-003
9.284323e-003
9.285148e-003
9.285699e-003
9.286006e-003
9.286165e-003
9.286352e-003
9.286823e-003
9.287902e-003
9.289961e-003
9.293379e-003
9.298486e-003
9.305510e-003
9.314516e-003
9.325374e-003
9.337751e-003
9.351137e-003
9.364908e-003
9.378406e-003
9.391028e-003
9.402302e-003
9.411930e-003
9.419802e-003
9.425966e-003
9.430595e-003
9.433929e-003
9.436232e-003
9.437756e-003
9.438721e-003
9.439303e-003
9.439635e-003
9.439812e-003
9.439898e-003
9.439933e-003
9.439943e-003
9.439942e-003
9.439937e-003
9.439933e-003
9.439929e-003
9.439926e-003
9.439923e-003
9.439921e-003
9.439920e-003
9.439921e-003
9.439921e-003
9.439920e-003
9.439920e-003
9.439919e-003
9.439920e-003
9.439921e-003
9.439920e-003
9.439920e-003
9.439920e-003
9.439920e-003
9.439921e-003
9.439921e-003
9.439922e-003
9.439923e-003
9.439925e-003
9.439929e-003
9.439935e-003
9.439941e-003
9.439948e-003
9.439954e-003
9.439954e-003
9.439935e-003
9.439878e-003
9.439743e-003
9.439474e-003
9.438979e-003
9.438126e-003
9.436733e-003
9.434559e-003
9.431310e-003
9.426656e-003
9.420258e-003
9.411824e-003
9.401171e-003
9.388303e-003
9.373472e-003
9.357211e-003
9.340322e-003
9.323817e-003
9.308813e-003
9.296404e-003
9.287541e-003
9.282927e-003
9.282964e-003
9.287725e-003
9.296978e-003
9.310229e-003
9.326783e-003
9.345810e-003
9.366412e-003
9.387679e-003
9.408730e-003
9.428733e-003
9.446922e-003
9.462594e-003
9.475109e-003
9.483898e-003
9.488471e-003
9.488445e-003
9.483584e-003
9.473847e-003
9.459445e-003
9.440896e-003
9.419056e-003
9.395130e-003
9.370621e-003
9.347239e-003
9.326736e-003
9.310715e-003
9.300417e-003
9.296537e-003
9.299114e-003
9.307519e-003
9.320557e-003
9.336660e-003
9.354148e-003
9.371474e-003
9.387419e-003
9.401194e-003
9.412443e-003
9.421166e-003
9.427615e-003
9.432169e-003
9.435246e-003
9.437234e-003
9.438461e-003
9.439183e-003
9.439585e-003
9.439794e-003
9.439892e-003
9.439932e-003
9.439943e-003