# vtk DataFile Version 3.0
vtk output
ASCII
DATASET STRUCTURED_POINTS
DIMENSIONS 100 100 1
SPACING 1 1 1
ORIGIN 0 0 0
POINT_DATA 10000
SCALARS SFBox_profile double
LOOKUP_TABLE default 
0.000000e+000
0.000000e+000
0.000000e+000
0.000000e+000
0.000000e+000
0.000000e+000
0.000000e+000
0.000000e+000
0.000000e+000
0.000000e+000
0.000000e+000
0.000000e+000
0.000000e+000
0.000000e+000
0.000000e+000
0.000000e+000
0.000000e+000
0.000000e+000
0.000000e+000
0.000000e+000
0.000000e+000
0.000000e+000
0.000000e+000
0.000000e+000
0.000000e+000
0.000000e+000
0.000000e+000
0.000000e+000
0.000000e+000
0.000000e+000
0.000000e+000
0.000000e+000
0.000000e+000
0.000000e+000
0.000000e+000
0.000000e+000
0.000000e+000
0.000000e+000
0.000000e+000
0.000000e+000
0.000000e+000
0.000000e+000
0.000000e+000
0.000000e+000
0.000000e+000
0.000000e+000
0.000000e+000
0.000000e+000
0.000000e+000
0.000000e+000
0.000000e+000
0.000000e+000
0.000000e+000
0.000000e+000
0.000000e+000
0.000000e+000
0.000000e+000
0.000000e+000
0.000000e+000
0.000000e+000
0.000000e+000
0.000000e+000
0.000000e+000
0.000000e+000
0.000000e+000
0.000000e+000
0.000000e+000
0.000000e+000
0.000000e+000
0.000000e+000
0.000000e+000
0.000000e+000
0.000000e+000
0.000000e+000
0.000000e+000
0.000000e+000
0.000000e+000
0.000000e+000
0.000000e+000
0.000000e+000
0.000000e+000
0.000000e+000
0.000000e+000
0.000000e+000
0.000000e+000
0.000000e+000
0.000000e+000
0.000000e+000
0.000000e+000
0.000000e+000
0.000000e+000
0.000000e+000
0.000000e+000
0.000000e+000
0.000000e+000
0.000000e+000
0.000000e+000
0.000000e+000
0.000000e+000
0.000000e+000
2.309483e-010
1.730004e-010
7.339373e-011
-4.250923e-011
-1.452206e-010
-2.074651e-010
-2.114032e-010
-1.550793e-010
-5.516916e-011
5.668361e-011
1.440338e-010
1.787513e-010
1.516479e-010
7.637240e-011
-1.496274e-011
-8.371664e-011
-1.012015e-010
-6.300839e-011
8.039744e-012
7.497622e-011
1.084622e-010
1.010463e-010
6.377510e-011
1.212026e-011
-4.275742e-011
-9.145153e-011
-1.224262e-010
-1.268860e-010
-1.072606e-010
-7.652310e-011
-4.762284e-011
-2.626638e-011
-1.452043e-011
-1.551164e-011
-2.796569e-011
-3.735477e-011
-2.071277e-011
3.345226e-011
1.103763e-010
1.769892e-010
2.057899e-010
1.925839e-010
1.558638e-010
1.236609e-010
1.188211e-010
1.479957e-010
1.972864e-010
2.390040e-010
2.492491e-010
2.250498e-010
1.865983e-010
1.619611e-010
1.670456e-010
1.965143e-010
2.303525e-010
2.484613e-010
2.423090e-010
2.175206e-010
1.879407e-010
1.660424e-010
1.556614e-010
1.510635e-010
1.421160e-010
1.214287e-010
8.860357e-011
4.942795e-011
1.163546e-011
-1.923127e-011
-4.120849e-011
-5.458111e-011
-6.001190e-011
-5.812339e-011
-5.044262e-011
-3.996142e-011
-3.017690e-011
-2.339400e-011
-1.991030e-011
-1.856773e-011
-1.772929e-011
-1.576668e-011
-1.123296e-011
-3.352204e-012
7.285039e-012
1.856969e-011
2.763813e-011
3.198181e-011
3.017772e-011
2.214200e-011
9.263080e-012
-5.550233e-012
-1.835000e-011
-2.542903e-011
-2.490629e-011
-1.766757e-011
-7.018023e-012
2.827550e-012
8.672164e-012
9.727872e-012
7.728053e-012
5.630317e-012
1.197948e-010
9.131681e-011
4.145566e-011
-1.842039e-011
-7.419036e-011
-1.114201e-010
-1.187971e-010
-9.204327e-011
-3.696869e-011
3.031599e-011
8.754211e-011
1.142837e-010
1.006833e-010
5.251929e-011
-1.036102e-011
-6.199571e-011
-8.142634e-011
-6.215798e-011
-1.525117e-011
3.638027e-011
7.000841e-011
7.414644e-011
5.149060e-011
1.336252e-011
-2.769489e-011
-6.114573e-011
-7.854816e-011
-7.522349e-011
-5.362732e-011
-2.334980e-011
4.205937e-012
2.124870e-011
2.414860e-011
1.204349e-011
-1.086794e-011
-3.172431e-011
-3.298275e-011
-5.492319e-012
4.104111e-011
8.239120e-011
9.653613e-011
7.829735e-011
4.118418e-011
8.036240e-012
-1.697987e-012
1.791284e-011
5.550455e-011
8.817389e-011
9.579312e-011
7.500226e-011
4.164719e-011
1.903147e-011
2.143905e-011
4.566536e-011
7.544785e-011
9.344873e-011
9.166881e-011
7.443158e-011
5.377803e-011
4.120800e-011
4.102371e-011
4.896531e-011
5.626550e-011
5.575984e-011
4.579617e-011
2.986482e-011
1.321099e-011
-5.128018e-013
-1.029276e-011
-1.661004e-011
-1.994077e-011
-2.040674e-011
-1.846258e-011
-1.535527e-011
-1.263537e-011
-1.123593e-011
-1.106689e-011
-1.136106e-011
-1.123836e-011
-1.000388e-011
-7.222833e-012
-2.837889e-012
2.673036e-012
8.334276e-012
1.295924e-011
1.549870e-011
1.527148e-011
1.210349e-011
6.462953e-012
-4.897137e-013
-7.097831e-012
-1.167761e-011
-1.307258e-011
-1.107865e-011
-6.575423e-012
-1.260503e-012
3.051039e-012
5.310350e-012
5.732655e-012
5.441661e-012
-5.138389e-011
-3.428727e-011
-7.600535e-012
1.823714e-011
3.411414e-011
3.556092e-011
2.420716e-011
7.032784e-012
-6.696551e-012
-1.008618e-011
-2.578405e-012
9.631057e-012
1.745421e-011
1.434451e-011
-5.174435e-013
-2.247626e-011
-4.332237e-011
-5.357391e-011
-4.618441e-011
-2.176835e-011
8.895197e-012
3.009234e-011
3.206755e-011
1.795020e-011
-1.322414e-013
-1.117964e-011
-1.108759e-011
-5.017809e-013
1.878521e-011
4.303684e-011
6.435957e-011
7.311137e-011
6.406929e-011
3.973477e-011
7.962519e-012
-2.217912e-011
-4.277347e-011
-4.908687e-011
-4.290648e-011
-3.391348e-011
-3.484370e-011
-5.249705e-011
-8.217652e-011
-1.105172e-010
-1.242495e-010
-1.184541e-010
-9.947380e-011
-8.125750e-011
-7.699222e-011
-9.064362e-011
-1.141307e-010
-1.327597e-010
-1.353126e-010
-1.212783e-010
-1.002106e-010
-8.451826e-011
-8.143510e-011
-8.935845e-011
-9.997400e-011
-1.039174e-010
-9.617260e-011
-7.811686e-011
-5.550668e-011
-3.432577e-011
-1.759326e-011
-5.025348e-012
5.044606e-012
1.363046e-011
2.051570e-011
2.497206e-011
2.661075e-011
2.562957e-011
2.262201e-011
1.837461e-011
1.373075e-011
9.415466e-012
5.887426e-012
3.327222e-012
1.671228e-012
5.508927e-013
-6.988745e-013
-2.704137e-012
-5.503845e-012
-8.310125e-012
-9.910874e-012
-9.396989e-012
-6.617636e-012
-2.151303e-012
2.932312e-012
7.253805e-012
9.377267e-012
8.352008e-012
4.381117e-012
-9.581762e-013
-5.349450e-012
-6.941931e-012
-5.311181e-012
-1.547758e-012
2.460682e-012
4.958284e-012
-2.026240e-010
-1.460894e-010
-5.283306e-011
4.833262e-011
1.286067e-010
1.670522e-010
1.557201e-010
1.015954e-010
2.475788e-011
-4.795665e-011
-9.275140e-011
-9.816840e-011
-6.910073e-011
-2.364179e-011
1.505995e-011
2.838372e-011
1.058977e-011
-2.715263e-011
-6.146113e-011
-7.097770e-011
-5.142119e-011
-1.778072e-011
9.955985e-012
2.377281e-011
3.011720e-011
3.780832e-011
4.801807e-011
5.741715e-011
6.611996e-011
7.676310e-011
8.667477e-011
8.699820e-011
7.223951e-011
4.709647e-011
2.052634e-011
-4.519671e-012
-3.133963e-011
-6.052638e-011
-8.581601e-011
-1.009441e-010
-1.076351e-010
-1.138784e-010
-1.253328e-010
-1.406251e-010
-1.544013e-010
-1.625719e-010
-1.644482e-010
-1.623163e-010
-1.605584e-010
-1.638253e-010
-1.736623e-010
-1.862466e-010
-1.944617e-010
-1.933125e-010
-1.838371e-010
-1.720839e-010
-1.644448e-010
-1.633376e-010
-1.660638e-010
-1.668693e-010
-1.604025e-010
-1.444148e-010
-1.203031e-010
-9.158682e-011
-6.179969e-011
-3.336282e-011
-7.731820e-012
1.403657e-011
3.106706e-011
4.273131e-011
4.871158e-011
4.916420e-011
4.508878e-011
3.845030e-011
3.154953e-011
2.596612e-011
2.202492e-011
1.914766e-011
1.642559e-011
1.277300e-011
6.978026e-012
-1.680248e-012
-1.247106e-011
-2.293188e-011
-2.983584e-011
-3.072983e-011
-2.494367e-011
-1.368588e-011
3.730272e-013
1.365642e-011
2.248993e-011
2.427914e-011
1.870156e-011
8.143801e-012
-3.098104e-012
-1.063473e-011
-1.196828e-011
-7.657541e-012
-9.847632e-013
3.801955e-012
-2.624955e-010
-1.934828e-010
-7.690737e-011
5.473127e-011
1.660541e-010
2.275168e-010
2.229726e-010
1.547271e-010
4.458871e-011
-7.098503e-011
-1.525323e-010
-1.730873e-010
-1.303329e-010
-4.809405e-011
3.450947e-011
8.088899e-011
7.337898e-011
2.109910e-011
-4.494806e-011
-8.904621e-011
-9.159803e-011
-5.897064e-011
-1.398077e-011
2.392054e-011
4.953434e-011
6.603587e-011
7.453014e-011
7.366224e-011
6.636856e-011
5.990034e-011
5.730079e-011
5.387186e-011
4.534207e-011
3.529273e-011
2.901750e-011
2.203009e-011
1.837429e-012
-3.632180e-011
-7.991717e-011
-1.090759e-010
-1.145451e-010
-1.037390e-010
-9.157627e-011
-8.911901e-011
-9.960714e-011
-1.195510e-010
-1.404616e-010
-1.525122e-010
-1.512644e-010
-1.421023e-010
-1.363037e-010
-1.413104e-010
-1.546355e-010
-1.668736e-010
-1.698910e-010
-1.624380e-010
-1.496154e-010
-1.383297e-010
-1.327062e-010
-1.320021e-010
-1.315625e-010
-1.258588e-010
-1.116059e-010
-8.913083e-011
-6.160261e-011
-3.318493e-011
-7.407104e-012
1.363915e-011
2.922250e-011
3.929298e-011
4.386600e-011
4.316541e-011
3.837824e-011
3.193116e-011
2.654501e-011
2.376162e-011
2.332729e-011
2.380186e-011
2.345415e-011
2.062610e-011
1.390890e-011
2.800419e-012
-1.140628e-011
-2.549540e-011
-3.541947e-011
-3.795613e-011
-3.195676e-011
-1.874617e-011
-1.771796e-012
1.437014e-011
2.533161e-011
2.841550e-011
2.341518e-011
1.262948e-011
1.411165e-013
-9.491884e-012
-1.299711e-011
-1.004272e-011
-3.672054e-012
1.301436e-012
-2.034074e-010
-1.559187e-010
-7.089847e-011
3.349518e-011
1.313690e-010
1.944494e-010
2.012706e-010
1.461286e-010
4.376937e-011
-7.270750e-011
-1.618055e-010
-1.898005e-010
-1.467412e-010
-5.282684e-011
5.033554e-011
1.193808e-010
1.286155e-010
7.988450e-011
1.153708e-013
-7.172002e-011
-1.037085e-010
-8.712668e-011
-3.850272e-011
1.475467e-011
5.277597e-011
7.001366e-011
6.904310e-011
5.381470e-011
3.012013e-011
7.123649e-012
-6.977018e-012
-1.007815e-011
-4.120568e-012
9.856355e-012
2.930969e-011
4.317323e-011
3.480656e-011
-1.970288e-012
-5.140209e-011
-8.519793e-011
-8.501865e-011
-5.551520e-011
-1.789829e-011
5.721200e-012
3.731000e-012
-2.110232e-011
-5.338604e-011
-7.309994e-011
-6.864079e-011
-4.601660e-011
-2.464347e-011
-2.194525e-011
-4.024979e-011
-6.681054e-011
-8.493358e-011
-8.561334e-011
-7.157100e-011
-5.327599e-011
-4.143742e-011
-4.084909e-011
-4.857955e-011
-5.683834e-011
-5.821111e-011
-4.973818e-011
-3.359635e-011
-1.476326e-011
2.129211e-012
1.465535e-011
2.245810e-011
2.593824e-011
2.530870e-011
2.089395e-011
1.404930e-011
7.319705e-012
3.319141e-012
3.301921e-012
6.691187e-012
1.169111e-011
1.614408e-011
1.805567e-011
1.595901e-011
9.403901e-012
-6.529156e-013
-1.193987e-011
-2.146177e-011
-2.635043e-011
-2.481454e-011
-1.700121e-011
-5.258715e-012
6.688489e-012
1.536025e-011
1.888526e-011
1.726325e-011
1.176714e-011
4.351090e-012
-2.629652e-012
-6.921139e-012
-7.472521e-012
-5.337557e-012
-3.155330e-012
-5.409518e-011
-5.044864e-011
-3.555128e-011
-3.402770e-012
4.129456e-011
8.221957e-011
9.933570e-011
7.969670e-011
2.470001e-011
-4.883423e-011
-1.134512e-010
-1.410013e-010
-1.155318e-010
-4.306398e-011
4.901223e-011
1.241162e-010
1.529247e-010
1.251629e-010
5.337941e-011
-3.093766e-011
-8.977328e-011
-9.797116e-011
-5.857486e-011
1.866292e-013
4.602143e-011
6.276436e-011
5.249683e-011
2.415250e-011
-1.400565e-011
-5.228899e-011
-7.797600e-011
-8.104424e-011
-6.040440e-011
-2.323782e-011
1.879024e-011
5.075043e-011
5.740713e-011
3.361568e-011
-5.709573e-012
-3.089995e-011
-1.832788e-011
3.162004e-011
9.539760e-011
1.429931e-010
1.558132e-010
1.356041e-010
1.024746e-010
8.320436e-011
9.418804e-011
1.295044e-010
1.646746e-010
1.748094e-010
1.525990e-010
1.118253e-010
7.549621e-011
5.981488e-011
6.564576e-011
8.096628e-011
9.017042e-011
8.354565e-011
6.175832e-011
3.370524e-011
1.000754e-011
-3.200835e-012
-6.360555e-012
-4.049241e-012
-8.573482e-013
1.061890e-012
1.599837e-012
9.343878e-013
-1.352492e-012
-5.599761e-012
-1.105103e-011
-1.587647e-011
-1.823142e-011
-1.723355e-011
-1.316056e-011
-7.094561e-012
-4.687860e-013
5.383430e-012
9.629810e-012
1.199153e-011
1.234150e-011
1.038606e-011
6.010412e-012
4.965020e-015
-5.804010e-012
-9.464457e-012
-1.007875e-011
-8.108256e-012
-4.627050e-012
-4.553595e-013
3.899736e-012
7.669644e-012
9.590883e-012
8.541944e-012
4.503204e-012
-1.167689e-012
-6.422841e-012
-9.506330e-012
1.187851e-010
7.849283e-011
1.752475e-011
-3.803316e-011
-6.832445e-011
-6.772684e-011
-4.471216e-011
-1.554054e-011
3.522416e-012
2.574863e-012
-1.735419e-011
-4.290499e-011
-5.344458e-011
-3.285204e-011
1.877990e-011
8.256641e-011
1.296307e-010
1.353781e-010
9.221146e-011
1.625284e-011
-5.677158e-011
-8.991359e-011
-6.946762e-011
-1.519860e-011
3.573354e-011
5.672118e-011
4.442119e-011
8.993788e-012
-3.896934e-011
-8.843632e-011
-1.228544e-010
-1.256229e-010
-9.287125e-011
-3.695903e-011
2.311400e-011
7.147078e-011
9.759286e-011
9.812170e-011
8.306665e-011
7.663853e-011
1.031980e-010
1.674059e-010
2.480951e-010
3.124301e-010
3.377088e-010
3.244634e-010
2.945988e-010
2.777072e-010
2.928218e-010
3.356623e-010
3.808401e-010
3.993182e-010
3.786393e-010
3.303421e-010
2.799288e-010
2.488524e-010
2.421671e-010
2.485556e-010
2.499050e-010
2.328202e-010
1.953176e-010
1.458942e-010
9.683246e-011
5.680227e-011
2.763175e-011
6.446675e-012
-9.886609e-012
-2.222459e-011
-2.995945e-011
-3.312751e-011
-3.312764e-011
-3.167474e-011
-2.968565e-011
-2.731569e-011
-2.461041e-011
-2.174733e-011
-1.882988e-011
-1.579373e-011
-1.244228e-011
-8.257224e-012
-2.258702e-012
6.356816e-012
1.690887e-011
2.655133e-011
3.130913e-011
2.831905e-011
1.761484e-011
2.265253e-012
-1.300467e-011
-2.367521e-011
-2.686848e-011
-2.198788e-011
-1.072773e-011
3.292200e-012
1.527410e-011
2.064262e-011
1.702474e-011
5.885605e-012
-7.532310e-012
-1.653906e-011
2.463409e-010
1.797022e-010
6.648980e-011
-5.980795e-011
-1.596996e-010
-2.015118e-010
-1.750277e-010
-9.625681e-011
-4.346486e-013
7.285630e-011
9.640134e-011
6.793944e-011
1.205073e-011
-3.281191e-011
-3.696129e-011
2.719938e-012
6.202305e-011
1.048181e-010
1.037196e-010
5.559797e-011
-1.471621e-011
-6.713555e-011
-7.224388e-011
-3.269058e-011
2.018984e-011
5.253540e-011
5.066900e-011
2.070162e-011
-2.489250e-011
-7.247811e-011
-1.037207e-010
-9.980916e-011
-5.571870e-011
1.379975e-011
8.635465e-011
1.472069e-010
1.909953e-010
2.157752e-010
2.246048e-010
2.321407e-010
2.598896e-010
3.179982e-010
3.926014e-010
4.541862e-010
4.794397e-010
4.669722e-010
4.366984e-010
4.168298e-010
4.272550e-010
4.673392e-010
5.153216e-010
5.418292e-010
5.296019e-010
4.847310e-010
4.308626e-010
3.919439e-010
3.772949e-010
3.785668e-010
3.778980e-010
3.598298e-010
3.193996e-010
2.627360e-010
2.012731e-010
1.443111e-010
9.517278e-011
5.283007e-011
1.614854e-011
-1.375434e-011
-3.467576e-011
-4.573700e-011
-4.817841e-011
-4.432897e-011
-3.654833e-011
-2.711657e-011
-1.832574e-011
-1.202731e-011
-9.059500e-012
-9.173339e-012
-1.119073e-011
-1.294650e-011
-1.146371e-011
-4.161886e-012
9.230214e-012
2.552442e-011
3.883259e-011
4.300862e-011
3.459352e-011
1.490885e-011
-9.853833e-012
-3.097297e-011
-4.101498e-011
-3.699018e-011
-2.118809e-011
1.947611e-013
1.932527e-011
2.908976e-011
2.561763e-011
1.055317e-011
-8.638726e-012
-2.183148e-011
2.865011e-010
2.153696e-010
8.686445e-011
-6.868797e-011
-2.035680e-010
-2.686647e-010
-2.386300e-010
-1.274988e-010
1.700449e-011
1.359381e-010
1.848248e-010
1.515402e-010
6.077718e-011
-3.775466e-011
-9.467547e-011
-8.698673e-011
-2.820889e-011
4.298411e-011
8.570037e-011
7.754994e-011
2.559232e-011
-3.671029e-011
-6.917297e-011
-5.255185e-011
-1.983637e-012
4.787448e-011
7.134491e-011
6.558850e-011
4.260991e-011
1.769044e-011
7.065965e-012
2.602972e-011
7.906052e-011
1.533661e-010
2.286476e-010
2.929638e-010
3.449622e-010
3.838422e-010
4.065537e-010
4.175261e-010
4.330903e-010
4.683136e-010
5.200312e-010
5.670914e-010
5.879523e-010
5.772220e-010
5.480552e-010
5.229422e-010
5.210099e-010
5.470571e-010
5.870750e-010
6.153317e-010
6.110751e-010
5.729076e-010
5.189049e-010
4.727984e-010
4.481386e-010
4.419598e-010
4.399760e-010
4.271813e-010
3.963112e-010
3.499263e-010
2.962990e-010
2.429342e-010
1.926991e-010
1.449044e-010
9.911185e-011
5.740054e-011
2.329047e-011
-7.191415e-013
-1.431805e-011
-1.889102e-011
-1.672014e-011
-1.063837e-011
-3.667251e-012
1.631637e-012
3.654756e-012
1.866197e-012
-3.112080e-012
-9.269556e-012
-1.343805e-011
-1.241999e-011
-4.550566e-012
9.149717e-012
2.466909e-011
3.576204e-011
3.619306e-011
2.319239e-011
1.711600e-013
-2.388616e-011
-3.879630e-011
-3.855053e-011
-2.405105e-011
-1.987324e-012
1.850455e-011
2.931271e-011
2.622213e-011
1.097468e-011
-8.668430e-012
-2.221845e-011
2.326154e-010
1.734742e-010
6.572040e-011
-6.653584e-011
-1.831083e-010
-2.396518e-010
-2.101708e-010
-1.039538e-010
3.682268e-011
1.570932e-010
2.126019e-010
1.857238e-010
9.090466e-011
-3.011876e-011
-1.249138e-010
-1.550607e-010
-1.152372e-010
-3.367523e-011
4.479528e-011
8.117831e-011
6.074617e-011
1.899774e-012
-5.229139e-011
-6.185918e-011
-1.882988e-011
5.013202e-011
1.105430e-010
1.474198e-010
1.674386e-010
1.837572e-010
2.067736e-010
2.448402e-010
3.022792e-010
3.736112e-010
4.463577e-010
5.125818e-010
5.728186e-010
6.267682e-010
6.672022e-010
6.892902e-010
7.021311e-010
7.233420e-010
7.610539e-010
8.051218e-010
8.367346e-010
8.439891e-010
8.290108e-010
8.052136e-010
7.898643e-010
7.944458e-010
8.157970e-010
8.354377e-010
8.312255e-010
7.935148e-010
7.318666e-010
6.669170e-010
6.155956e-010
5.818848e-010
5.580571e-010
5.325953e-010
4.980562e-010
4.542984e-010
4.062569e-010
3.589046e-010
3.136750e-010
2.689331e-010
2.231941e-010
1.775335e-010
1.351982e-010
9.949839e-011
7.212981e-011
5.280789e-011
3.981215e-011
3.088293e-011
2.406684e-011
1.810544e-011
1.224351e-011
5.990122e-012
-7.221044e-013
-7.282773e-012
-1.260965e-011
-1.558452e-011
-1.511626e-011
-1.011146e-011
-3.370474e-013
1.192708e-011
2.140188e-011
2.225159e-011
1.235396e-011
-4.190558e-012
-1.895868e-011
-2.436864e-011
-1.816708e-011
-4.208434e-012
1.026895e-011
1.847407e-011
1.698151e-011
7.043543e-012
-5.925173e-012
-1.486937e-011
1.054659e-010
7.010864e-011
1.299888e-011
-4.835075e-011
-9.780127e-011
-1.209965e-010
-1.064976e-010
-5.170315e-011
3.119084e-011
1.162596e-010
1.721738e-010
1.731475e-010
1.101284e-010
3.114351e-014
-1.148494e-010
-1.844662e-010
-1.785003e-010
-1.040593e-010
-1.079850e-012
7.925705e-011
1.003835e-010
6.059637e-011
-3.029651e-012
-3.658621e-011
-7.195353e-012
7.558695e-011
1.760548e-010
2.667126e-010
3.431453e-010
4.116960e-010
4.757522e-010
5.376076e-010
6.035975e-010
6.791198e-010
7.623888e-010
8.486872e-010
9.367639e-010
1.024474e-009
1.101311e-009
1.154475e-009
1.184474e-009
1.208676e-009
1.245558e-009
1.297461e-009
1.349772e-009
1.383794e-009
1.389329e-009
1.369807e-009
1.340463e-009
1.319964e-009
1.317557e-009
1.324660e-009
1.320089e-009
1.286104e-009
1.221226e-009
1.139233e-009
1.057411e-009
9.853955e-010
9.222820e-010
8.612660e-010
7.964139e-010
7.267046e-010
6.554998e-010
5.868782e-010
5.222676e-010
4.600825e-010
3.981404e-010
3.363088e-010
2.771569e-010
2.244052e-010
1.805577e-010
1.454032e-010
1.163896e-010
9.050956e-011
6.612842e-011
4.337422e-011
2.328203e-011
6.946518e-012
-4.778007e-012
-1.164174e-011
-1.468205e-011
-1.620268e-011
-1.820414e-011
-2.034813e-011
-1.974436e-011
-1.341723e-011
-1.585777e-012
1.132070e-011
1.920858e-011
1.858322e-011
1.098843e-011
1.580712e-012
-4.769193e-012
-6.435215e-012
-4.923492e-012
-2.625507e-012
-9.134292e-013
8.829940e-014
6.920918e-013
1.022620e-012
-5.945020e-011
-5.795903e-011
-4.115208e-011
-4.825078e-012
3.213172e-011
4.326560e-011
2.255441e-011
-6.505098e-012
-1.051100e-011
2.530634e-011
8.415953e-011
1.271730e-010
1.166039e-010
4.055682e-011
-7.390941e-011
-1.711405e-010
-1.989543e-010
-1.410028e-010
-2.582626e-011
9.089151e-011
1.564816e-010
1.491491e-010
9.235241e-011
4.353129e-011
5.673389e-011
1.461552e-010
2.845071e-010
4.346775e-010
5.768347e-010
7.064794e-010
8.208099e-010
9.187757e-010
1.009176e-009
1.106492e-009
1.217299e-009
1.337016e-009
1.458514e-009
1.575010e-009
1.673584e-009
1.736632e-009
1.758036e-009
1.754686e-009
1.755323e-009
1.776833e-009
1.812393e-009
1.839966e-009
1.839582e-009
1.806191e-009
1.753165e-009
1.705464e-009
1.684239e-009
1.691996e-009
1.710772e-009
1.715869e-009
1.693132e-009
1.645354e-009
1.585061e-009
1.522732e-009
1.460368e-009
1.393101e-009
1.315044e-009
1.224176e-009
1.123277e-009
1.017287e-009
9.098163e-010
8.016652e-010
6.922676e-010
5.825793e-010
4.768505e-010
3.815621e-010
3.020159e-010
2.392151e-010
1.896466e-010
1.480283e-010
1.104555e-010
7.560041e-011
4.411129e-011
1.771811e-011
-1.470066e-012
-1.214179e-011
-1.530248e-011
-1.466314e-011
-1.489474e-011
-1.863099e-011
-2.436102e-011
-2.694146e-011
-2.094326e-011
-5.024534e-012
1.587194e-011
3.276528e-011
3.805011e-011
2.989041e-011
1.242800e-011
-7.315917e-012
-2.259898e-011
-2.850825e-011
-2.290200e-011
-7.747200e-012
1.037972e-011
2.262007e-011
-2.216174e-010
-1.681360e-010
-6.449009e-011
6.503001e-011
1.678538e-010
1.911678e-010
1.244962e-010
1.393549e-011
-6.946587e-011
-7.980280e-011
-2.317682e-011
5.347109e-011
9.488153e-011
6.898502e-011
-1.512787e-011
-1.102650e-010
-1.574592e-010
-1.219028e-010
-1.341091e-011
1.214005e-010
2.257151e-010
2.620823e-010
2.346888e-010
1.923306e-010
2.011046e-010
3.001377e-010
4.786062e-010
6.947353e-010
9.110614e-010
1.108137e-009
1.276051e-009
1.410267e-009
1.517931e-009
1.615371e-009
1.711899e-009
1.800853e-009
1.868620e-009
1.904429e-009
1.896915e-009
1.831052e-009
1.701292e-009
1.527988e-009
1.351993e-009
1.207869e-009
1.102441e-009
1.017487e-009
9.294241e-010
8.282687e-010
7.258293e-010
6.511344e-010
6.346584e-010
6.892704e-010
8.016084e-010
9.414543e-010
1.081051e-009
1.207999e-009
1.323309e-009
1.430298e-009
1.525712e-009
1.599175e-009
1.638885e-009
1.637833e-009
1.596245e-009
1.519604e-009
1.414538e-009
1.285828e-009
1.136702e-009
9.719391e-010
8.008107e-010
6.365218e-010
4.917169e-010
3.733931e-010
2.812833e-010
2.104034e-010
1.548597e-010
1.100673e-010
7.323018e-011
4.327916e-011
2.052825e-011
5.614108e-012
-1.907466e-012
-4.302441e-012
-5.317307e-012
-8.845776e-012
-1.665224e-011
-2.597581e-011
-2.956008e-011
-2.008480e-011
3.196583e-012
3.144316e-011
5.051403e-011
4.968687e-011
2.809831e-011
-5.124415e-012
-3.567681e-011
-5.026654e-011
-4.204046e-011
-1.420904e-011
2.007166e-011
4.335696e-011
-3.412687e-010
-2.282641e-010
-4.467663e-011
1.432234e-010
2.650522e-010
2.743778e-010
1.741573e-010
1.944324e-011
-1.123378e-010
-1.656177e-010
-1.328853e-010
-4.833526e-011
3.708562e-011
7.996082e-011
6.251976e-011
3.030378e-012
-5.094610e-011
-5.004622e-011
2.592788e-011
1.567628e-010
2.950388e-010
3.926570e-010
4.299474e-010
4.346975e-010
4.715100e-010
5.980961e-010
8.225482e-010
1.102319e-009
1.380474e-009
1.616025e-009
1.785399e-009
1.874499e-009
1.880511e-009
1.812360e-009
1.677299e-009
1.468561e-009
1.171782e-009
7.790375e-010
2.897404e-010
-2.957646e-010
-9.691487e-010
-1.696915e-009
-2.419812e-009
-3.078380e-009
-3.640957e-009
-4.108075e-009
-4.494060e-009
-4.804966e-009
-5.026812e-009
-5.127282e-009
-5.069796e-009
-4.834256e-009
-4.431391e-009
-3.899007e-009
-3.283096e-009
-2.620052e-009
-1.933151e-009
-1.241575e-009
-5.700944e-010
4.968875e-011
5.862717e-010
1.016974e-009
1.332570e-009
1.535941e-009
1.636698e-009
1.645825e-009
1.573979e-009
1.434120e-009
1.245127e-009
1.031714e-009
8.192669e-010
6.272037e-010
4.657003e-010
3.370198e-010
2.388312e-010
1.667892e-010
1.158975e-010
8.124357e-011
5.825204e-011
4.269635e-011
3.115438e-011
2.173649e-011
1.370792e-011
5.793339e-012
-4.374501e-012
-1.752036e-011
-2.906831e-011
-2.995003e-011
-1.366530e-011
1.596137e-011
4.423066e-011
5.410487e-011
3.749479e-011
8.822123e-013
-3.798410e-011
-5.937596e-011
-5.164335e-011
-1.763704e-011
2.565649e-011
5.534611e-011
-3.839443e-010
-2.263918e-010
1.218168e-012
1.953539e-010
2.922040e-010
2.799032e-010
1.800003e-010
3.067751e-011
-1.193026e-010
-2.193918e-010
-2.347567e-010
-1.621321e-010
-3.365591e-011
9.373546e-011
1.634623e-010
1.524543e-010
9.036978e-011
4.355600e-011
7.191667e-011
1.927092e-010
3.752321e-010
5.631190e-010
7.098556e-010
8.119543e-010
9.161059e-010
1.083302e-009
1.332902e-009
1.618937e-009
1.858913e-009
1.977269e-009
1.920869e-009
1.651500e-009
1.143663e-009
3.889665e-010
-6.104689e-010
-1.855326e-009
-3.347924e-009
-5.077548e-009
-7.014959e-009
-9.120654e-009
-1.134610e-008
-1.362025e-008
-1.584388e-008
-1.791006e-008
-1.973546e-008
-2.127328e-008
-2.250086e-008
-2.339865e-008
-2.393666e-008
-2.407341e-008
-2.376714e-008
-2.299617e-008
-2.177732e-008
-2.016806e-008
-1.824987e-008
-1.610727e-008
-1.381859e-008
-1.146103e-008
-9.118557e-009
-6.881253e-009
-4.834620e-009
-3.045699e-009
-1.553959e-009
-3.707649e-010
5.138894e-010
1.122344e-009
1.483494e-009
1.632430e-009
1.612318e-009
1.473133e-009
1.265334e-009
1.031948e-009
8.039550e-010
6.003974e-010
4.310993e-010
2.995548e-010
2.050037e-010
1.434289e-010
1.076402e-010
8.776490e-011
7.372181e-011
5.893893e-011
4.207355e-011
2.474446e-011
7.756624e-012
-9.538778e-012
-2.578607e-011
-3.479211e-011
-2.861571e-011
-5.588126e-012
2.433175e-011
4.353881e-011
3.839258e-011
9.423989e-012
-2.785728e-011
-5.199116e-011
-4.823014e-011
-1.735385e-011
2.417003e-011
5.314248e-011
-3.273710e-010
-1.701127e-010
3.773693e-011
1.875174e-010
2.426734e-010
2.267399e-010
1.637592e-010
5.340600e-011
-9.743930e-011
-2.410916e-010
-3.046412e-010
-2.419284e-010
-7.147796e-011
1.295209e-010
2.684204e-010
2.918830e-010
2.204970e-010
1.377254e-010
1.376702e-010
2.701771e-010
5.202586e-010
8.255500e-010
1.113688e-009
1.341964e-009
1.517996e-009
1.677356e-009
1.825032e-009
1.892087e-009
1.749657e-009
1.259068e-009
3.044347e-010
-1.206493e-009
-3.344226e-009
-6.147914e-009
-9.622224e-009
-1.374837e-008
-1.848907e-008
-2.377706e-008
-2.950709e-008
-3.554611e-008
-4.174520e-008
-4.793502e-008
-5.391814e-008
-5.948317e-008
-6.443718e-008
-6.862877e-008
-7.194642e-008
-7.430261e-008
-7.562083e-008
-7.583263e-008
-7.488613e-008
-7.276515e-008
-6.951042e-008
-6.522731e-008
-6.007290e-008
-5.423310e-008
-4.790738e-008
-4.130711e-008
-3.465772e-008
-2.819173e-008
-2.212939e-008
-1.665419e-008
-1.189370e-008
-7.912706e-009
-4.719241e-009
-2.277809e-009
-5.222422e-010
6.361558e-010
1.303149e-009
1.593931e-009
1.621686e-009
1.485889e-009
1.265002e-009
1.015129e-009
7.729631e-010
5.605669e-010
3.898947e-010
2.654331e-010
1.846629e-010
1.381634e-010
1.118976e-010
9.215536e-011
7.054557e-011
4.559298e-011
2.004296e-011
-3.206249e-012
-2.245821e-011
-3.517810e-011
-3.664095e-011
-2.331434e-011
1.067916e-012
2.396316e-011
3.107418e-011
1.711804e-011
-9.190247e-012
-3.053833e-011
-3.261325e-011
-1.345201e-011
1.539345e-011
3.619808e-011
-1.716276e-010
-7.862379e-011
3.539421e-011
1.073614e-010
1.338530e-010
1.431250e-010
1.344872e-010
7.023651e-011
-6.629553e-011
-2.218305e-010
-2.994212e-010
-2.353662e-010
-4.902693e-011
1.731135e-010
3.337432e-010
3.793040e-010
3.286630e-010
2.644478e-010
2.883037e-010
4.657676e-010
7.957192e-010
1.215495e-009
1.627839e-009
1.935539e-009
2.069746e-009
1.985946e-009
1.615448e-009
8.102543e-010
-6.614362e-010
-3.064638e-009
-6.644236e-009
-1.160373e-008
-1.809693e-008
-2.620909e-008
-3.594092e-008
-4.721339e-008
-5.987901e-008
-7.371958e-008
-8.844282e-008
-1.036993e-007
-1.191101e-007
-1.342778e-007
-1.487841e-007
-1.621989e-007
-1.741140e-007
-1.841767e-007
-1.921020e-007
-1.976645e-007
-2.006882e-007
-2.010430e-007
-1.986518e-007
-1.935100e-007
-1.857094e-007
-1.754526e-007
-1.630449e-007
-1.488717e-007
-1.333763e-007
-1.170485e-007
-1.004153e-007
-8.402046e-008
-6.838774e-008
-5.397517e-008
-4.113450e-008
-3.008770e-008
-2.092502e-008
-1.362009e-008
-8.052394e-009
-4.030136e-009
-1.312611e-009
3.653691e-010
1.267279e-009
1.631286e-009
1.654266e-009
1.485557e-009
1.229402e-009
9.531454e-010
6.973552e-010
4.844219e-010
3.240114e-010
2.157594e-010
1.507376e-010
1.137673e-010
8.824838e-011
6.261559e-011
3.419229e-011
6.952493e-012
-1.450897e-011
-2.845508e-011
-3.437782e-011
-3.075928e-011
-1.710140e-011
1.942273e-012
1.688721e-011
1.985658e-011
1.103425e-011
-1.541594e-012
-8.575638e-012
-6.319014e-012
1.731690e-012
8.433358e-012
5.288921e-011
2.624576e-011
-8.761835e-012
-2.545411e-011
-4.839086e-012
4.466677e-011
8.186709e-011
5.933900e-011
-3.098006e-011
-1.379596e-010
-1.853489e-010
-1.301512e-010
1.109640e-011
1.842219e-010
3.341601e-010
4.279092e-010
4.676850e-010
4.990910e-010
5.987031e-010
8.340085e-010
1.218329e-009
1.686666e-009
2.096744e-009
2.249799e-009
1.922902e-009
8.862777e-010
-1.124421e-009
-4.463582e-009
-9.594646e-009
-1.703840e-008
-2.728988e-008
-4.075777e-008
-5.772805e-008
-7.832679e-008