# vtk DataFile Version 3.0
vtk output
ASCII
DATASET STRUCTURED_POINTS
DIMENSIONS 100 100 1
SPACING 1 1 1
ORIGIN 0 0 0
POINT_DATA 10000
SCALARS SFBox_profile double
LOOKUP_TABLE default 
9.439926e-003
9.439927e-003
9.439930e-003
9.439934e-003
9.439939e-003
9.439947e-003
9.439957e-003
9.439968e-003
9.439981e-003
9.439991e-003
9.439994e-003
9.439982e-003
9.439942e-003
9.439855e-003
9.439697e-003
9.439436e-003
9.439032e-003
9.438441e-003
9.437613e-003
9.436499e-003
9.435052e-003
9.433233e-003
9.431015e-003
9.428383e-003
9.425339e-003
9.421900e-003
9.418099e-003
9.413979e-003
9.409591e-003
9.404990e-003
9.400234e-003
9.395376e-003
9.390463e-003
9.385540e-003
9.380640e-003
9.375793e-003
9.371021e-003
9.366341e-003
9.361767e-003
9.357309e-003
9.352976e-003
9.348776e-003
9.344714e-003
9.340800e-003
9.337038e-003
9.333437e-003
9.330005e-003
9.326750e-003
9.323682e-003
9.320812e-003
9.318154e-003
9.315725e-003
9.313544e-003
9.311636e-003
9.310032e-003
9.308765e-003
9.307877e-003
9.307413e-003
9.307424e-003
9.307964e-003
9.309088e-003
9.310852e-003
9.313307e-003
9.316500e-003
9.320464e-003
9.325219e-003
9.330765e-003
9.337075e-003
9.344096e-003
9.351740e-003
9.359886e-003
9.368380e-003
9.377038e-003
9.385656e-003
9.394025e-003
9.401941e-003
9.409223e-003
9.415732e-003
9.421373e-003
9.426111e-003
9.429959e-003
9.432979e-003
9.435265e-003
9.436931e-003
9.438096e-003
9.438877e-003
9.439374e-003
9.439672e-003
9.439839e-003
9.439922e-003
9.439957e-003
9.439966e-003
9.439962e-003
9.439953e-003
9.439944e-003
9.439936e-003
9.439931e-003
9.439927e-003
9.439924e-003
9.439923e-003
9.439926e-003
9.439927e-003
9.439930e-003
9.439934e-003
9.439939e-003
9.439947e-003
9.439957e-003
9.439968e-003
9.439981e-003
9.439991e-003
9.439994e-003
9.439982e-003
9.439942e-003
9.439855e-003
9.439697e-003
9.439436e-003
9.439032e-003
9.438441e-003
9.437613e-003
9.436499e-003
9.435052e-003
9.433233e-003
9.431015e-003
9.428383e-003
9.425339e-003
9.421900e-003
9.418099e-003
9.413979e-003
9.409591e-003
9.404990e-003
9.400234e-003
9.395376e-003
9.390463e-003
9.385540e-003
9.380640e-003
9.375793e-003
9.371021e-003
9.366341e-003
9.361767e-003
9.357309e-003
9.352976e-003
9.348776e-003
9.344714e-003
9.340800e-003
9.337038e-003
9.333437e-003
9.330005e-003
9.326750e-003
9.323682e-003
9.320812e-003
9.318154e-003
9.315725e-003
9.313544e-003
9.311636e-003
9.310032e-003
9.308765e-003
9.307877e-003
9.307413e-003
9.307424e-003
9.307964e-003
9.309088e-003
9.310852e-003
9.313307e-003
9.316500e-003
9.320464e-003
9.325219e-003
9.330765e-003
9.337075e-003
9.344096e-003
9.351740e-003
9.359886e-003
9.368380e-003
9.377038e-003
9.385656e-003
9.394025e-003
9.401941e-003
9.409223e-003
9.415732e-003
9.421373e-003
9.426111e-003
9.429959e-003
9.432979e-003
9.435265e-003
9.436931e-003
9.438096e-003
9.438877e-003
9.439374e-003
9.439672e-003
9.439839e-003
9.439922e-003
9.439957e-003
9.439966e-003
9.439962e-003
9.439953e-003
9.439944e-003
9.439936e-003
9.439931e-003
9.439927e-003
9.439924e-003
9.439923e-003
9.439929e-003
9.439930e-003
9.439933e-003
9.439937e-003
9.439944e-003
9.439952e-003
9.439962e-003
9.439972e-003
9.439979e-003
9.439979e-003
9.439961e-003
9.439911e-003
9.439807e-003
9.439618e-003
9.439304e-003
9.438814e-003
9.438086e-003
9.437052e-003
9.435638e-003
9.433776e-003
9.431403e-003
9.428472e-003
9.424959e-003
9.420862e-003
9.416207e-003
9.411040e-003
9.405431e-003
9.399462e-003
9.393222e-003
9.386803e-003
9.380290e-003
9.373762e-003
9.367284e-003
9.360912e-003
9.354689e-003
9.348646e-003
9.342808e-003
9.337189e-003
9.331801e-003
9.326649e-003
9.321737e-003
9.317067e-003
9.312638e-003
9.308448e-003
9.304498e-003
9.300787e-003
9.297313e-003
9.294079e-003
9.291087e-003
9.288342e-003
9.285852e-003
9.283626e-003
9.281679e-003
9.280029e-003
9.278698e-003
9.277711e-003
9.277100e-003
9.276898e-003
9.277144e-003
9.277880e-003
9.279153e-003
9.281011e-003
9.283507e-003
9.286695e-003
9.290631e-003
9.295366e-003
9.300950e-003
9.307416e-003
9.314778e-003
9.323021e-003
9.332084e-003
9.341856e-003
9.352170e-003
9.362803e-003
9.373488e-003
9.383932e-003
9.393843e-003
9.402959e-003
9.411074e-003
9.418054e-003
9.423852e-003
9.428496e-003
9.432080e-003
9.434744e-003
9.436646e-003
9.437950e-003
9.438804e-003
9.439338e-003
9.439652e-003
9.439824e-003
9.439910e-003
9.439945e-003
9.439955e-003
9.439953e-003
9.439946e-003
9.439939e-003
9.439933e-003
9.439928e-003
9.439926e-003
9.439924e-003
9.439933e-003
9.439935e-003
9.439939e-003
9.439944e-003
9.439952e-003
9.439961e-003
9.439969e-003
9.439973e-003
9.439966e-003
9.439934e-003
9.439859e-003
9.439708e-003
9.439438e-003
9.438988e-003
9.438278e-003
9.437213e-003
9.435678e-003
9.433552e-003
9.430714e-003
9.427055e-003
9.422493e-003
9.416984e-003
9.410534e-003
9.403201e-003
9.395093e-003
9.386357e-003
9.377170e-003
9.367720e-003
9.358193e-003
9.348763e-003
9.339577e-003
9.330757e-003
9.322393e-003
9.314551e-003
9.307270e-003
9.300573e-003
9.294470e-003
9.288959e-003
9.284031e-003
9.279670e-003
9.275857e-003
9.272564e-003
9.269761e-003
9.267417e-003
9.265496e-003
9.263964e-003
9.262787e-003
9.261937e-003
9.261384e-003
9.261105e-003
9.261078e-003
9.261283e-003
9.261701e-003
9.262311e-003
9.263089e-003
9.264008e-003
9.265034e-003
9.266130e-003
9.267257e-003
9.268376e-003
9.269455e-003
9.270475e-003
9.271444e-003
9.272403e-003
9.273443e-003
9.274709e-003
9.276406e-003
9.278790e-003
9.282153e-003
9.286793e-003
9.292966e-003
9.300848e-003
9.310481e-003
9.321748e-003
9.334359e-003
9.347869e-003
9.361727e-003
9.375337e-003
9.388139e-003
9.399675e-003
9.409638e-003
9.417887e-003
9.424439e-003
9.429433e-003
9.433086e-003
9.435650e-003
9.437376e-003
9.438486e-003
9.439167e-003
9.439563e-003
9.439778e-003
9.439886e-003
9.439932e-003
9.439947e-003
9.439947e-003
9.439942e-003
9.439936e-003
9.439931e-003
9.439928e-003
9.439926e-003
9.439941e-003
9.439943e-003
9.439948e-003
9.439955e-003
9.439963e-003
9.439971e-003
9.439972e-003
9.439959e-003
9.439913e-003
9.439809e-003
9.439602e-003
9.439230e-003
9.438600e-003
9.437594e-003
9.436055e-003
9.433801e-003
9.430626e-003
9.426320e-003
9.420694e-003
9.413609e-003
9.405006e-003
9.394928e-003
9.383540e-003
9.371116e-003
9.358028e-003
9.344704e-003
9.331594e-003
9.319129e-003
9.307685e-003
9.297568e-003
9.288995e-003
9.282102e-003
9.276951e-003
9.273544e-003
9.271844e-003
9.271786e-003
9.273294e-003
9.276285e-003
9.280669e-003
9.286350e-003
9.293224e-003
9.301173e-003
9.310067e-003
9.319769e-003
9.330137e-003
9.341025e-003
9.352295e-003
9.363814e-003
9.375455e-003
9.387098e-003
9.398622e-003
9.409902e-003
9.420795e-003
9.431137e-003
9.440734e-003
9.449351e-003
9.456714e-003
9.462505e-003
9.466374e-003
9.467951e-003
9.466871e-003
9.462809e-003
9.455523e-003
9.444905e-003
9.431043e-003
9.414265e-003
9.395186e-003
9.374710e-003
9.354008e-003
9.334441e-003
9.317435e-003
9.304324e-003
9.296174e-003
9.293629e-003
9.296796e-003
9.305218e-003
9.317928e-003
9.333597e-003
9.350738e-003
9.367923e-003
9.383972e-003
9.398064e-003
9.409772e-003
9.419016e-003
9.425976e-003
9.430983e-003
9.434430e-003
9.436701e-003
9.438131e-003
9.438990e-003
9.439479e-003
9.439741e-003
9.439869e-003
9.439925e-003
9.439943e-003
9.439945e-003
9.439941e-003
9.439936e-003
9.439932e-003
9.439930e-003
9.439952e-003
9.439955e-003
9.439961e-003
9.439968e-003
9.439975e-003
9.439975e-003
9.439957e-003
9.439900e-003
9.439768e-003
9.439505e-003
9.439024e-003
9.438195e-003
9.436844e-003
9.434736e-003
9.431584e-003
9.427061e-003
9.420823e-003
9.412562e-003
9.402068e-003
9.389300e-003
9.374452e-003
9.357999e-003
9.340693e-003
9.323519e-003
9.307607e-003
9.294120e-003
9.284136e-003
9.278555e-003
9.278033e-003
9.282959e-003
9.293465e-003
9.309460e-003
9.330686e-003
9.356777e-003
9.387319e-003
9.421894e-003
9.460109e-003
9.501601e-003
9.546030e-003
9.593061e-003
9.642347e-003
9.693515e-003
9.746163e-003
9.799866e-003
9.854184e-003
9.908680e-003
9.962926e-003
1.001652e-002
1.006907e-002
1.012020e-002
1.016951e-002
1.021660e-002
1.026098e-002
1.030208e-002
1.033920e-002
1.037152e-002
1.039802e-002
1.041757e-002
1.042887e-002
1.043053e-002
1.042114e-002
1.039936e-002
1.036405e-002
1.031447e-002
1.025042e-002
1.017246e-002
1.008206e-002
9.981674e-003
9.874772e-003
9.765662e-003
9.659210e-003
9.560402e-003
9.473826e-003
9.403124e-003
9.350538e-003
9.316619e-003
9.300194e-003
9.298617e-003
9.308245e-003
9.325066e-003
9.345303e-003
9.365881e-003
9.384669e-003
9.400490e-003
9.412958e-003
9.422239e-003
9.428802e-003
9.433226e-003
9.436075e-003
9.437827e-003
9.438853e-003
9.439423e-003
9.439720e-003
9.439862e-003
9.439923e-003
9.439943e-003
9.439945e-003
9.439941e-003
9.439937e-003
9.439935e-003
9.439967e-003
9.439971e-003
9.439977e-003
9.439982e-003
9.439981e-003
9.439960e-003
9.439894e-003
9.439740e-003
9.439428e-003
9.438844e-003
9.437817e-003
9.436104e-003
9.433374e-003
9.429203e-003
9.423095e-003
9.414524e-003
9.403026e-003
9.388328e-003
9.370522e-003
9.350235e-003
9.328767e-003
9.308124e-003
9.290933e-003
9.280216e-003
9.279079e-003
9.290370e-003
9.316382e-003
9.358651e-003
9.417877e-003
9.493960e-003
9.586122e-003
9.693079e-003
9.813242e-003
9.944904e-003
1.008640e-002
1.023622e-002
1.039304e-002
1.055576e-002
1.072338e-002
1.089500e-002
1.106969e-002
1.124650e-002
1.142439e-002
1.160228e-002
1.177907e-002
1.195365e-002
1.212497e-002
1.229203e-002
1.245388e-002
1.260957e-002
1.275814e-002
1.289854e-002
1.302949e-002
1.314950e-002
1.325671e-002
1.334883e-002
1.342315e-002
1.347648e-002
1.350521e-002
1.350537e-002
1.347285e-002
1.340359e-002
1.329394e-002
1.314109e-002
1.294353e-002
1.270160e-002
1.241798e-002
1.209806e-002
1.175015e-002
1.138527e-002
1.101664e-002
1.065873e-002
1.032594e-002
1.003111e-002
9.784019e-003
9.590234e-003
9.450474e-003
9.360764e-003
9.313360e-003
9.298258e-003
9.304922e-003
9.323824e-003
9.347473e-003
9.370798e-003
9.390977e-003
9.406924e-003
9.418671e-003
9.426832e-003
9.432214e-003
9.435596e-003
9.437622e-003
9.438778e-003
9.439402e-003
9.439718e-003
9.439865e-003
9.439925e-003
9.439944e-003
9.439946e-003
9.439943e-003
9.439941e-003
9.439986e-003
9.439990e-003
9.439993e-003
9.439991e-003
9.439967e-003
9.439896e-003
9.439729e-003
9.439380e-003
9.438712e-003
9.437512e-003
9.435461e-003
9.432114e-003
9.426886e-003
9.419068e-003
9.407899e-003
9.392725e-003
9.373262e-003
9.349970e-003
9.324493e-003
9.300045e-003
9.281614e-003
9.275841e-003
9.290520e-003
9.333782e-003
9.413135e-003
9.534557e-003
9.701850e-003
9.916359e-003
1.017704e-002
1.048084e-002
1.082323e-002
1.119878e-002
1.160177e-002
1.202667e-002
1.246848e-002
1.292295e-002
1.338664e-002
1.385679e-002
1.433113e-002
1.480765e-002
1.528440e-002
1.575936e-002
1.623038e-002
1.669521e-002
1.715156e-002
1.759720e-002
1.802999e-002
1.844794e-002
1.884920e-002
1.923193e-002
1.959422e-002
1.993392e-002
2.024844e-002
2.053455e-002
2.078822e-002
2.100445e-002
2.117716e-002
2.129912e-002
2.136205e-002
2.135671e-002
2.127326e-002
2.110165e-002
2.083235e-002
2.045717e-002
1.997034e-002
1.936970e-002
1.865800e-002
1.784403e-002
1.694349e-002
1.597922e-002
1.498068e-002
1.398239e-002
1.302136e-002
1.213369e-002
1.135064e-002
1.069489e-002
1.017776e-002
9.798055e-003
9.543096e-003
9.391682e-003
9.318289e-003
9.297436e-003
9.307148e-003
9.330884e-003
9.357865e-003
9.382221e-003
9.401588e-003
9.415708e-003
9.425333e-003
9.431535e-003
9.435333e-003
9.437547e-003
9.438774e-003
9.439418e-003
9.439733e-003
9.439875e-003
9.439930e-003
9.439947e-003
9.439949e-003
9.439948e-003
9.440009e-003
9.440010e-003
9.440005e-003
9.439981e-003
9.439909e-003
9.439736e-003
9.439368e-003
9.438648e-003
9.437320e-003
9.434997e-003
9.431112e-003
9.424900e-003
9.415404e-003
9.401582e-003
9.382559e-003
9.358118e-003
9.329467e-003
9.300232e-003
9.277494e-003
9.272516e-003
9.300765e-003
9.380950e-003
9.533114e-003
9.776103e-003
1.012502e-002
1.058923e-002
1.117139e-002
1.186751e-002
1.266795e-002
1.355900e-002
1.452465e-002
1.554818e-002
1.661358e-002
1.770652e-002
1.881496e-002
1.992939e-002
2.104265e-002
2.214951e-002
2.324602e-002
2.432899e-002
2.539541e-002
2.644217e-002
2.746595e-002
2.846327e-002
2.943058e-002
3.036448e-002
3.126182e-002
3.211975e-002
3.293564e-002
3.370694e-002
3.443092e-002
3.510434e-002
3.572310e-002
3.628187e-002
3.677374e-002
3.718991e-002
3.751946e-002
3.774922e-002
3.786374e-002
3.784546e-002
3.767507e-002
3.733216e-002
3.679616e-002
3.604765e-002
3.507019e-002
3.385245e-002
3.239082e-002
3.069214e-002
2.877631e-002
2.667835e-002
2.444922e-002
2.215493e-002
1.987326e-002
1.768796e-002
1.568046e-002
1.392030e-002
1.245593e-002
1.130822e-002
1.046864e-002
9.902922e-003
9.559368e-003
9.379374e-003
9.307372e-003
9.297748e-003
9.317792e-003
9.347153e-003
9.375169e-003
9.397590e-003
9.413735e-003
9.424514e-003
9.431289e-003
9.435326e-003
9.437613e-003
9.438843e-003
9.439467e-003
9.439763e-003
9.439891e-003
9.439939e-003
9.439954e-003
9.439956e-003
9.440032e-003
9.440025e-003
9.440001e-003
9.439931e-003
9.439762e-003
9.439395e-003
9.438659e-003
9.437269e-003
9.434775e-003
9.430501e-003
9.423499e-003
9.412545e-003
9.396274e-003
9.373555e-003
9.344310e-003
9.310921e-003
9.280285e-003
9.266231e-003
9.291622e-003
9.389144e-003
9.599863e-003
9.969215e-003
1.054098e-002
1.135061e-002
1.241966e-002
1.375264e-002
1.533683e-002
1.714494e-002
1.913938e-002
2.127728e-002
2.351496e-002
2.581154e-002
2.813134e-002
3.044521e-002
3.273092e-002
3.497275e-002
3.716051e-002
3.928816e-002
4.135235e-002
4.335108e-002
4.528269e-002
4.714533e-002
4.893668e-002
5.065412e-002
5.229495e-002
5.385662e-002
5.533700e-002
5.673431e-002
5.804711e-002
5.927393e-002
6.041294e-002
6.146140e-002
6.241520e-002
6.326828e-002
6.401216e-002
6.463544e-002
6.512348e-002
6.545805e-002
6.561718e-002
6.557509e-002
6.530234e-002
6.476624e-002
6.393150e-002
6.276153e-002
6.122024e-002
5.927470e-002
5.689885e-002
5.407815e-002
5.081524e-002
4.713608e-002
4.309585e-002
3.878323e-002
3.432129e-002
2.986293e-002
2.557935e-002
2.164157e-002
1.819725e-002
1.534825e-002
1.313512e-002
1.153395e-002
1.046682e-002
9.822608e-003
9.481137e-003
9.333758e-003
9.295617e-003
9.308934e-003
9.339588e-003
9.370586e-003
9.395427e-003
9.413022e-003
9.424493e-003
9.431510e-003
9.435573e-003
9.437806e-003
9.438970e-003
9.439542e-003
9.439803e-003
9.439911e-003
9.439951e-003
9.439963e-003
9.440047e-003
9.440025e-003
9.439961e-003
9.439804e-003
9.439456e-003
9.438743e-003
9.437363e-003
9.434824e-003
9.430365e-003
9.422872e-003
9.410863e-003
9.392622e-003
9.366705e-003
9.333153e-003
9.295820e-003
9.266117e-003
9.267981e-003
9.342953e-003
9.553309e-003
9.980745e-003
1.071899e-002
1.186074e-002
1.348165e-002
1.562581e-002
1.829686e-002
2.145704e-002
2.503386e-002
2.893179e-002
3.304571e-002
3.727279e-002
4.152128e-002
4.571551e-002
4.979777e-002
5.372777e-002
5.748068e-002
6.104427e-002
6.441572e-002
6.759839e-002
7.059906e-002
7.342573e-002
7.608617e-002
7.858720e-002
8.093454e-002
8.313303e-002
8.518696e-002
8.710042e-002
8.887751e-002
9.052235e-002
9.203893e-002
9.343081e-002
9.470068e-002
9.584993e-002
9.687813e-002
9.778258e-002
9.855786e-002
9.919536e-002
9.968292e-002
1.000044e-001
1.001391e-001
1.000615e-001
9.974066e-002
9.913948e-002
9.821433e-002
9.691462e-002
9.518291e-002
9.295569e-002
9.016564e-002
8.674581e-002
8.263671e-002
7.779673e-002
7.221644e-002
6.593544e-002
5.905930e-002
5.177125e-002
4.433212e-002
3.706208e-002
3.030174e-002
2.435818e-002
1.944960e-002
1.566713e-002
1.296779e-002
1.120042e-002
1.015348e-002
9.606355e-003
9.368382e-003
9.298035e-003
9.304086e-003
9.335677e-003
9.368955e-003
9.395374e-003
9.413666e-003
9.425271e-003
9.432164e-003
9.436036e-003
9.438099e-003
9.439139e-003
9.439632e-003
9.439849e-003
9.439935e-003
9.439964e-003
9.440043e-003
9.439993e-003
9.439855e-003
9.439542e-003
9.438885e-003
9.437583e-003
9.435131e-003
9.430713e-003
9.423099e-003
9.410581e-003
9.391090e-003
9.362790e-003
9.325677e-003
9.284977e-003
9.257196e-003
9.279059e-003
9.418020e-003
9.780742e-003
1.051404e-002
1.179322e-002
1.379630e-002
1.666864e-002
2.048807e-002
2.524213e-002
3.082535e-002
3.705692e-002
4.371193e-002
5.055612e-002
5.737514e-002
6.399334e-002
7.028165e-002
7.615682e-002
8.157531e-002
8.652479e-002
9.101523e-002
9.507095e-002
9.872421e-002
1.020104e-001
1.049645e-001
1.076197e-001
1.100057e-001
1.121490e-001
1.140729e-001
1.157983e-001
1.173436e-001
1.187253e-001
1.199583e-001
1.210560e-001
1.220303e-001
1.228913e-001
1.236478e-001
1.243068e-001
1.248734e-001
1.253511e-001
1.257414e-001
1.260438e-001
1.262556e-001
1.263714e-001
1.263828e-001
1.262778e-001
1.260393e-001
1.256442e-001
1.250612e-001
1.242483e-001
1.231501e-001
1.216940e-001
1.197870e-001
1.173128e-001
1.141311e-001
1.100826e-001
1.050022e-001
9.874404e-002
9.122140e-002
8.245605e-002
7.262684e-002
6.209819e-002
5.140622e-002
4.118764e-002
3.205944e-002
2.448592e-002
1.868411e-002
1.460524e-002
1.199337e-002
1.048760e-002
9.722968e-003
9.398093e-003
9.300932e-003
9.302592e-003
9.335604e-003
9.370440e-003
9.397433e-003
9.415574e-003
9.426731e-003
9.433153e-003
9.436647e-003
9.438447e-003
9.439325e-003
9.439726e-003
9.439894e-003
9.439953e-003
9.440000e-003
9.439900e-003
9.439636e-003
9.439061e-003
9.437894e-003
9.435642e-003
9.431484e-003
9.424132e-003
9.411720e-003
9.391867e-003
9.362269e-003
9.322559e-003
9.278694e-003
9.251562e-003
9.291092e-003
9.495070e-003
1.002753e-002
1.112666e-002
1.308978e-002
1.622763e-002
2.079258e-002
2.690109e-002
3.448018e-002
4.326199e-002
5.283075e-002
6.270397e-002
7.241835e-002
8.159463e-002
8.996989e-002
9.739946e-002
1.038393e-001
1.093193e-001
1.139169e-001
1.177329e-001
1.208749e-001
1.234460e-001
1.255393e-001
1.272359e-001
1.286053e-001
1.297062e-001
1.305882e-001
1.312927e-001
1.318540e-001
1.323005e-001
1.326551e-001
1.329361e-001
1.331583e-001
1.333331e-001
1.334695e-001
1.335746e-001
1.336538e-001
1.337115e-001
1.337512e-001
1.337756e-001
1.337868e-001
1.337863e-001
1.337748e-001
1.337524e-001
1.337181e-001
1.336698e-001
1.336032e-001
1.335121e-001
1.333866e-001
1.332122e-001
1.329676e-001
1.326214e-001
1.321267e-001
1.314132e-001
1.303744e-001
1.288514e-001
1.266144e-001
1.233530e-001
1.186890e-001
1.122304e-001
1.036763e-001
9.296234e-002
8.039854e-002
6.672264e-002
5.300247e-002
4.038834e-002
2.980683e-002
2.173571e-002
1.615665e-002
1.267858e-002
1.074085e-002
9.795112e-003
9.410561e-003
9.301258e-003
9.304086e-003
9.339355e-003
9.374877e-003
9.401333e-003
9.418480e-003
9.428668e-003
9.434340e-003
9.437324e-003
9.438810e-003
9.439508e-003
9.439811e-003
9.439921e-003
9.439889e-003
9.439706e-003
9.439237e-003
9.438245e-003
9.436278e-003
9.432556e-003
9.425806e-003
9.414099e-003
9.394828e-003
9.365200e-003
9.324121e-003
9.277180e-003
9.247425e-003
9.294943e-003
9.546147e-003
1.022741e-002
1.168760e-002
1.438506e-002
1.881610e-002
2.538256e-002
3.423305e-002
4.514567e-002
5.751911e-002
7.049198e-002
8.314407e-002
9.469538e-002
1.046327e-001
1.127397e-001
1.190501e-001
1.237626e-001
1.271562e-001
1.295247e-001
1.311344e-001
1.322039e-001
1.328995e-001
1.333420e-001
1.336165e-001
1.337825e-001
1.338816e-001
1.339422e-001
1.339827e-001
1.340141e-001
1.340418e-001
1.340673e-001
1.340895e-001
1.341066e-001
1.341168e-001
1.341189e-001
1.341126e-001
1.340987e-001
1.340789e-001
1.340554e-001
1.340314e-001
1.340101e-001
1.339955e-001
1.339914e-001
1.340022e-001
1.340319e-001
1.340844e-001
1.341627e-001
1.342679e-001
1.343986e-001
1.345488e-001
1.347065e-001
1.348515e-001
1.349546e-001
1.349778e-001
1.348779e-001
1.346116e-001
1.341400e-001
1.334210e-001
1.323770e-001
1.308278e-001
1.283994e-001
1.244603e-001
1.181799e-001
1.088015e-001
9.608279e-002
8.065703e-002
6.402362e-002
4.809545e-002
3.453406e-002
2.424747e-002
1.728561e-002
1.308531e-002
1.084079e-002
9.798649e-003
9.400484e-003
9.298852e-003
9.308835e-003
9.346731e-003
9.381786e-003
9.406583e-003
9.422003e-003
9.430833e-003
9.435579e-003
9.437990e-003
9.439147e-003
9.439662e-003
9.439853e-003
9.439671e-003
9.439358e-003
9.438574e-003
9.436944e-003
9.433775e-003
9.427878e-003
9.417373e-003
9.399558e-003
9.371224e-003
9.330299e-003
9.280803e-003
9.244728e-003
9.285885e-003
9.549786e-003
1.031645e-002
1.204718e-002
1.538564e-002
2.106293e-002
2.967993e-002
4.141093e-002
5.576320e-002
7.155933e-002
8.721623e-002
1.012143e-001
1.125270e-001
1.208166e-001
1.263534e-001
1.297577e-001
1.317219e-001
1.328241e-001
1.334622e-001
1.338649e-001
1.341365e-001
1.343073e-001
1.343746e-001
1.343306e-001
1.341737e-001
1.339103e-001
1.335520e-001
1.331119e-001
1.326028e-001
1.320359e-001
1.314216e-001
1.307693e-001
1.300885e-001
1.293886e-001
1.286791e-001
1.279696e-001
1.272690e-001
1.265864e-001
1.259305e-001
1.253099e-001
1.247337e-001
1.242116e-001
1.237549e-001
1.233762e-001
1.230904e-001
1.229146e-001
1.228686e-001
1.229744e-001
1.232557e-001
1.237369e-001
1.244408e-001
1.253852e-001
1.265784e-001
1.280114e-001
1.296485e-001
1.314159e-001
1.331891e-001
1.347846e-001
1.359646e-001
1.364729e-001
1.361171e-001
1.348697e-001
1.328549e-001
1.300481e-001
1.257910e-001
1.186767e-001
1.072910e-001
9.143731e-002
7.273614e-002
5.398273e-002
3.781474e-002
2.569352e-002
1.772175e-002
1.310401e-002
1.075750e-002
9.732589e-003
9.372368e-003
9.296517e-003
9.317449e-003
9.357231e-003
9.390417e-003
9.412559e-003
9.425728e-003
9.432984e-003
9.436743e-003
9.438582e-003
9.439417e-003
9.439732e-003
9.439294e-003
9.438790e-003
9.437539e-003
9.434980e-003
9.430079e-003
9.421106e-003
9.405430e-003
9.379602e-003
9.340559e-003
9.289914e-003
9.245448e-003
9.266642e-003
9.502237e-003
1.026211e-002
1.209621e-002
1.582816e-002
2.245626e-002
3.284316e-002
4.722021e-002
6.472796e-002
8.335881e-002
1.005380e-001
1.141396e-001
1.233289e-001
1.286740e-001
1.315063e-001
1.330806e-001
1.341022e-001
1.347450e-001
1.349292e-001
1.345689e-001
1.336666e-001
1.322979e-001
1.305693e-001
1.285874e-001
1.264449e-001
1.242155e-001
1.219543e-001
1.197006e-001
1.174814e-001
1.153148e-001
1.132133e-001
1.111860e-001
1.092402e-001
1.073816e-001
1.056149e-001
1.039437e-001
1.023708e-001
1.008982e-001
9.952745e-002
9.826027e-002
9.709905e-002
9.604750e-002
9.511138e-002
9.429914e-002
9.362259e-002
9.309757e-002
9.274453e-002
9.258917e-002
9.266305e-002
9.300415e-002
9.365730e-002
9.467436e-002
9.611388e-002
9.803956e-002
1.005169e-001
1.036066e-001
1.073522e-001
1.117597e-001
1.167647e-001
1.221835e-001
1.276533e-001
1.325844e-001
1.361889e-001
1.376904e-001
1.367662e-001
1.339055e-001
1.298429e-001
1.239975e-001
1.140917e-001
9.842862e-002
7.823956e-002
5.720299e-002
3.904994e-002
2.575931e-002
1.735762e-002
1.273061e-002
1.051686e-002
9.619465e-003
9.338073e-003
9.298258e-003
9.330186e-003
9.369964e-003
9.399848e-003
9.418616e-003
9.429281e-003
9.434928e-003
9.437738e-003
9.439036e-003
9.439533e-003
9.438699e-003
9.437921e-003
9.436011e-003
9.432150e-003
9.424859e-003
9.411732e-003
9.389332e-003
9.353857e-003
9.304339e-003
9.252365e-003
9.246077e-003
9.419911e-003
1.007974e-002
1.181493e-002
1.558297e-002
2.264539e-002
3.419806e-002
5.064535e-002
7.079635e-002
9.165871e-002
1.094678e-001
1.216811e-001
1.284180e-001
1.318196e-001
1.339048e-001
1.352378e-001
1.353925e-001
1.339845e-001
1.310826e-001
1.270668e-001
1.223891e-001
1.174341e-001
1.124758e-001
1.076857e-001
1.031572e-001
9.893180e-002
9.501776e-002
9.140487e-002
8.807358e-002
8.500122e-002
8.216557e-002
7.954676e-002
7.712777e-002
7.489427e-002
7.283406e-002
7.093644e-002
6.919176e-002
6.759116e-002
6.612652e-002
6.479064e-002
6.357754e-002
6.248283e-002
6.150420e-002
6.064183e-002
5.989886e-002
5.928187e-002
5.880142e-002
5.847259e-002
5.831571e-002
5.835720e-002
5.863075e-002
5.917871e-002
6.005387e-002
6.132174e-002
6.306298e-002
6.537606e-002
6.837942e-002
7.221177e-002
7.702799e-002
8.298520e-002
9.020967e-002
9.873006e-002
1.083603e-001
1.185277e-001
1.280939e-001
1.353497e-001
1.385450e-001
1.371595e-001
1.327463e-001
1.268306e-001
1.175816e-001
1.018252e-001
8.020095e-002
5.734713e-002
3.802128e-002
2.443475e-002
1.628713e-002
1.206771e-002
1.018862e-002
9.494489e-003
9.310776e-003
9.306934e-003
9.346403e-003
9.383702e-003
9.409146e-003
9.424210e-003
9.432386e-003
9.436531e-003
9.438475e-003
9.439228e-003
9.437820e-003
9.436668e-003
9.433861e-003
9.428250e-003
9.417799e-003
9.399335e-003
9.368753e-003
9.322989e-003
9.267165e-003
9.234359e-003
9.331207e-003
9.825861e-003
1.128364e-002
1.471007e-002
2.156768e-002
3.343072e-002
5.108191e-002
7.326471e-002
9.608172e-002
1.144291e-001
1.254486e-001
1.307443e-001
1.337986e-001
1.357161e-001
1.352546e-001
1.315301e-001
1.250156e-001
1.168668e-001
1.081825e-001
9.971597e-002
9.187899e-002
8.484102e-002
7.862683e-002
7.318615e-002
6.843646e-002
6.428667e-002
6.064922e-002
5.744570e-002
5.460891e-002
5.208308e-002
4.982299e-002
4.779247e-002
4.596272e-002
4.431068e-002
4.281748e-002
4.146739e-002
4.024691e-002
3.914430e-002
3.814930e-002
3.725309e-002
3.644828e-002
3.572911e-002
3.509155e-002
3.453357e-002
3.405528e-002
3.365923e-002
3.335065e-002
3.313788e-002
3.303284e-002
3.305174e-002
3.321605e-002
3.355392e-002
3.410205e-002
3.490835e-002
3.603559e-002
3.756628e-002
3.960917e-002
4.230763e-002
4.584943e-002
5.047630e-002
5.648768e-002
6.422630e-002
7.402083e-002
8.604555e-002
1.000492e-001
1.149455e-001
1.284352e-001
1.372465e-001
1.389397e-001
1.347154e-001
1.281856e-001
1.186919e-001
1.019643e-001
7.856930e-002
5.440984e-002
3.492427e-002
2.201508e-002
1.477014e-002
1.128227e-002
9.856434e-003
9.390175e-003
9.299138e-003
9.322806e-003
9.364545e-003
9.397125e-003
9.417538e-003
9.428962e-003
9.434870e-003
9.437683e-003
9.438783e-003
9.436592e-003
9.434948e-003
9.430967e-003
9.423097e-003
9.408649e-003
9.383682e-003
9.343922e-003
9.289237e-003
9.237851e-003
9.262968e-003
9.572061e-003
1.064796e-002
1.343768e-002
1.947730e-002
3.067866e-002
4.841217e-002
7.185369e-002
9.665596e-002
1.162751e-001
1.270690e-001
1.319469e-001
1.351197e-001
1.357712e-001
1.313120e-001
1.218508e-001
1.095744e-001
9.673364e-002
8.476443e-002
7.430703e-002
6.549201e-002
5.819542e-002
5.219887e-002
4.727202e-002
4.320766e-002
3.983232e-002
3.700584e-002
3.461708e-002
3.257882e-002
3.082321e-002
2.929779e-002
2.796223e-002
2.678550e-002
2.574366e-002
2.481796e-002
2.399344e-002
2.325791e-002
2.260114e-002
2.201448e-002
2.149051e-002
2.102295e-002
2.060656e-002
2.023719e-002
1.991176e-002
1.962836e-002
1.938629e-002
1.918613e-002
1.902995e-002
1.892140e-002
1.886607e-002
1.887182e-002
1.894947e-002
1.911359e-002
1.938390e-002
1.978706e-002
2.035956e-002
2.115177e-002
2.223405e-002
2.370583e-002
2.570888e-002
2.844599e-002
3.220547e-002
3.738779e-002
4.452159e-002
5.423604e-002
6.712362e-002
8.339145e-002
1.022155e-001
1.209300e-001
1.348478e-001
1.394811e-001
1.354561e-001
1.282454e-001
1.177556e-001
9.888119e-002
7.341499e-002
4.878046e-002
3.033205e-002
1.901105e-002
1.313846e-002
1.054196e-002
9.586338e-003
9.324988e-003
9.304769e-003
9.343674e-003
9.382636e-003
9.409113e-003
9.424518e-003
9.432668e-003
9.436608e-003
9.438166e-003
9.434957e-003
9.432688e-003
9.427231e-003
9.416559e-003
9.397279e-003
9.364843e-003
9.315833e-003
9.256770e-003
9.229827e-003
9.375226e-003
1.005786e-002
1.207189e-002
1.686094e-002
2.651008e-002
4.303843e-002
6.660480e-002
9.330474e-002
1.154102e-001
1.273529e-001
1.323355e-001
1.355229e-001
1.344057e-001
1.255016e-001
1.105032e-001
9.344312e-002
7.741740e-002
6.386175e-002
5.304200e-002
4.465951e-002
3.824218e-002
3.333205e-002
2.955091e-002
2.660852e-002
2.428985e-002
2.243782e-002
2.093802e-002
1.970676e-002
1.868253e-002
1.781991e-002
1.708518e-002
1.645328e-002
1.590542e-002
1.542744e-002
1.500841e-002
1.463979e-002
1.431472e-002
1.402753e-002
1.377352e-002
1.354870e-002
1.334972e-002
1.317381e-002
1.301874e-002
1.288281e-002
1.276489e-002
1.266435e-002
1.258118e-002
1.251597e-002
1.246999e-002
1.244537e-002
1.244520e-002
1.247387e-002
1.253751e-002
1.264462e-002
1.280713e-002
1.304194e-002
1.337335e-002
1.383699e-002
1.448610e-002
1.540169e-002
1.670903e-002
1.860362e-002
2.138995e-002
2.553337e-002
3.171392e-002
4.084111e-002
5.393103e-002
7.167164e-002
9.349105e-002
1.162448e-001
1.336818e-001
1.395334e-001
1.348846e-001
1.270066e-001
1.145186e-001
9.229379e-002
6.505581e-002