# vtk DataFile Version 3.0
vtk output
ASCII
DATASET STRUCTURED_POINTS
DIMENSIONS 100 100 1
SPACING 1 1 1
ORIGIN 0 0 0
POINT_DATA 10000
SCALARS SFBox_profile double
LOOKUP_TABLE default 
0.000000e+000
0.000000e+000
0.000000e+000
0.000000e+000
0.000000e+000
0.000000e+000
0.000000e+000
0.000000e+000
0.000000e+000
0.000000e+000
0.000000e+000
0.000000e+000
0.000000e+000
0.000000e+000
0.000000e+000
0.000000e+000
0.000000e+000
0.000000e+000
0.000000e+000
0.000000e+000
0.000000e+000
0.000000e+000
0.000000e+000
0.000000e+000
0.000000e+000
0.000000e+000
0.000000e+000
0.000000e+000
0.000000e+000
0.000000e+000
0.000000e+000
0.000000e+000
0.000000e+000
0.000000e+000
0.000000e+000
0.000000e+000
0.000000e+000
0.000000e+000
0.000000e+000
0.000000e+000
0.000000e+000
0.000000e+000
0.000000e+000
0.000000e+000
0.000000e+000
0.000000e+000
0.000000e+000
0.000000e+000
0.000000e+000
0.000000e+000
0.000000e+000
0.000000e+000
0.000000e+000
0.000000e+000
0.000000e+000
0.000000e+000
0.000000e+000
0.000000e+000
0.000000e+000
0.000000e+000
0.000000e+000
0.000000e+000
0.000000e+000
0.000000e+000
0.000000e+000
0.000000e+000
0.000000e+000
0.000000e+000
0.000000e+000
0.000000e+000
0.000000e+000
0.000000e+000
0.000000e+000
0.000000e+000
0.000000e+000
0.000000e+000
0.000000e+000
0.000000e+000
0.000000e+000
0.000000e+000
0.000000e+000
0.000000e+000
0.000000e+000
0.000000e+000
0.000000e+000
0.000000e+000
0.000000e+000
0.000000e+000
0.000000e+000
0.000000e+000
0.000000e+000
0.000000e+000
0.000000e+000
0.000000e+000
0.000000e+000
0.000000e+000
0.000000e+000
0.000000e+000
0.000000e+000
0.000000e+000
-1.317065e-011
8.855587e-012
2.117395e-011
5.243243e-012
-2.112766e-011
-2.526835e-011
-7.016509e-013
2.384276e-011
2.080262e-011
-1.598210e-012
-1.331348e-011
-4.809690e-012
3.113958e-012
-5.192773e-012
-1.524399e-011
-6.964415e-012
1.136529e-011
1.549771e-011
3.534378e-012
-2.992584e-012
4.557125e-012
9.687728e-012
4.103162e-013
-1.152437e-011
-1.160931e-011
-4.868450e-012
-3.952543e-012
-7.667191e-012
-5.615967e-012
3.072347e-012
9.192542e-012
8.955182e-012
8.477750e-012
1.223506e-011
1.635225e-011
1.626355e-011
1.408110e-011
1.421129e-011
1.641678e-011
1.761917e-011
1.736252e-011
1.754954e-011
1.890941e-011
2.077366e-011
2.268421e-011
2.418439e-011
2.470544e-011
2.495567e-011
2.645150e-011
2.881595e-011
2.985372e-011
2.893511e-011
2.783913e-011
2.776937e-011
2.797616e-011
2.742046e-011
2.570006e-011
2.297375e-011
2.069884e-011
2.057887e-011
2.103776e-011
1.829534e-011
1.332234e-011
1.237873e-011
1.652312e-011
1.755885e-011
1.115020e-011
6.059233e-012
1.001999e-011
1.423153e-011
6.600127e-012
-5.555767e-012
-5.583860e-012
2.234326e-012
-2.567678e-012
-1.825805e-011
-1.797586e-011
2.465956e-012
9.769549e-012
-9.365508e-012
-1.593918e-011
1.577563e-011
4.130623e-011
1.396743e-011
-2.671461e-011
-1.361652e-011
2.656803e-011
8.850523e-012
-5.742288e-011
-6.240061e-011
2.957174e-011
1.040277e-010
5.494571e-011
-6.021839e-011
-9.990717e-011
-2.567202e-011
6.505961e-011
7.389816e-011
5.725163e-012
-6.093145e-011
-1.340718e-012
-7.472934e-012
-6.493692e-012
5.128674e-012
1.493534e-011
1.128149e-011
-1.822624e-012
-1.154226e-011
-1.233248e-011
-8.333656e-012
-2.757864e-012
5.721567e-012
1.468124e-011
1.570786e-011
6.143837e-012
-4.530452e-012
-7.371369e-012
-6.227102e-012
-8.858408e-012
-1.260755e-011
-9.627519e-012
-1.295773e-012
4.132052e-012
5.224684e-012
7.670413e-012
1.235817e-011
1.353445e-011
9.264438e-012
4.846159e-012
4.037318e-012
4.149787e-012
2.438293e-012
1.550687e-012
5.083441e-012
1.177798e-011
1.796769e-011
2.328512e-011
3.018891e-011
3.924349e-011
4.834180e-011
5.603291e-011
6.289940e-011
6.984669e-011
7.693352e-011
8.364718e-011
8.919768e-011
9.307809e-011
9.590354e-011
9.875001e-011
1.013143e-010
1.021069e-010
1.007690e-010
9.864093e-011
9.669381e-011
9.441414e-011
9.084872e-011
8.553596e-011
7.880191e-011
7.202497e-011
6.637072e-011
6.048965e-011
5.181009e-011
4.122014e-011
3.296680e-011
2.791150e-011
2.148362e-011
1.179344e-011
4.452113e-012
3.913208e-012
5.417788e-012
3.023673e-012
7.344773e-013
5.633853e-012
1.357599e-011
1.427883e-011
9.127241e-012
8.882890e-012
1.281926e-011
8.053183e-012
-6.199160e-012
-1.420728e-011
-1.111752e-011
-1.160157e-011
-1.990108e-011
-1.705367e-011
5.936060e-012
2.798461e-011
2.931023e-011
1.712965e-011
2.031766e-012
-2.072829e-011
-4.333692e-011
-3.274999e-011
1.934736e-011
6.063597e-011
3.561145e-011
-3.266797e-011
-6.161860e-011
-1.448222e-011
4.946353e-011
1.626142e-011
-1.080504e-011
-2.476410e-011
-4.668641e-012
2.475759e-011
2.573318e-011
-3.298625e-012
-2.603208e-011
-1.666718e-011
7.471016e-012
1.368414e-011
5.134175e-013
-5.497073e-012
5.306826e-012
1.188759e-011
1.509529e-013
-1.290942e-011
-8.408949e-012
3.654734e-012
3.494400e-012
-5.646950e-012
-6.309017e-012
2.969143e-012
8.335586e-012
5.374725e-012
3.544542e-012
7.825207e-012
1.216917e-011
1.233037e-011
1.274173e-011
1.776593e-011
2.499291e-011
3.085925e-011
3.672249e-011
4.542824e-011
5.597909e-011
6.555993e-011
7.428837e-011
8.432861e-011
9.574141e-011
1.063520e-010
1.151642e-010
1.233848e-010
1.320576e-010
1.405321e-010
1.476428e-010
1.531884e-010
1.577299e-010
1.615728e-010
1.643936e-010
1.656537e-010
1.651850e-010
1.633512e-010
1.606111e-010
1.569283e-010
1.517043e-010
1.445149e-010
1.358999e-010
1.269213e-010
1.178145e-010
1.078592e-010
9.688465e-011
8.578678e-011
7.505426e-011
6.421756e-011
5.351961e-011
4.424396e-011
3.624921e-011
2.772434e-011
1.917401e-011
1.410515e-011
1.279797e-011
1.011206e-011
4.479410e-012
2.862726e-012
8.235075e-012
9.946111e-012
7.525299e-013
-5.315021e-012
5.321224e-012
1.466317e-011
-2.130429e-012
-2.597398e-011
-1.612816e-011
1.434455e-011
9.792885e-012
-2.539560e-011
-1.621510e-011
5.081388e-011
7.377765e-011
-1.293468e-011
-1.100517e-010
-7.813097e-011
5.530279e-011
1.235645e-010
4.513795e-011
-7.797528e-011
-1.026604e-010
-1.255294e-011
8.476850e-011
1.590902e-011
4.949880e-012
-8.911430e-012
-1.392762e-011
-6.319369e-012
2.587518e-012
1.476575e-012
-2.264027e-012
6.352394e-012
2.096395e-011
1.644567e-011
-1.161725e-011
-3.191106e-011
-1.969611e-011
5.518409e-012
1.032925e-011
-1.217584e-012
8.961289e-014
1.622780e-011
2.039080e-011
5.064180e-012
-6.583382e-012
-1.644850e-012
4.348647e-012
-9.622811e-013
-5.761379e-012
3.269819e-012
1.938403e-011
3.014747e-011
3.767003e-011
5.130930e-011
7.035426e-011
8.648194e-011
9.811012e-011
1.113759e-010
1.288188e-010
1.462763e-010
1.611691e-010
1.762879e-010
1.938474e-010
2.116899e-010
2.274805e-010
2.421622e-010
2.571471e-010
2.714946e-010
2.838207e-010
2.943490e-010
3.034985e-010
3.106175e-010
3.152678e-010
3.178977e-010
3.184874e-010
3.162418e-010
3.110016e-010
3.033680e-010
2.934152e-010
2.809767e-010
2.667565e-010
2.512323e-010
2.335097e-010
2.137156e-010
1.946896e-010
1.778728e-010
1.600390e-010
1.390178e-010
1.195797e-010
1.064992e-010
9.469649e-011
7.629155e-011
5.564201e-011
4.394792e-011
3.838987e-011
2.418180e-011
2.346316e-012
-6.548751e-012
1.738979e-012
1.953062e-012
-1.614034e-011
-2.084160e-011
7.910377e-012
3.140024e-011
1.245040e-011
-1.030702e-011
1.586390e-011
4.996587e-011
1.185916e-011
-6.813552e-011
-7.452298e-011
8.230379e-012
6.362019e-011
2.794029e-011
-2.040264e-011
-8.268527e-012
1.733753e-011
-4.643485e-012
-3.347485e-011
-8.251825e-012
3.380127e-011
2.048593e-011
-2.615592e-011
-1.203129e-011
1.381256e-011
2.102436e-011
-4.421555e-012
-2.694238e-011
-1.555374e-011
1.226898e-011
1.949458e-011
3.422626e-012
-7.059778e-012
-9.051188e-013
1.934975e-012
-8.044067e-012
-1.085394e-011
4.252298e-012
1.483764e-011
3.554999e-012
-1.050048e-011
-5.570350e-012
6.128194e-012
4.288955e-012
-2.611432e-012
4.108480e-012
1.906072e-011
2.561436e-011
2.686121e-011
3.780864e-011
5.794224e-011
7.446541e-011
8.614356e-011
1.042440e-010
1.324204e-010
1.621438e-010
1.886436e-010
2.178539e-010
2.545481e-010
2.942614e-010
3.314091e-010
3.672801e-010
4.051822e-010
4.437658e-010
4.798052e-010
5.130927e-010
5.446013e-010
5.733454e-010
5.981487e-010
6.194931e-010
6.373709e-010
6.502274e-010
6.576296e-010
6.610290e-010
6.607703e-010
6.552527e-010
6.437747e-010
6.274077e-010
6.068854e-010
5.823628e-010
5.546189e-010
5.235754e-010
4.874283e-010
4.467998e-010
4.066041e-010
3.689862e-010
3.288746e-010
2.834029e-010
2.403339e-010
2.073030e-010
1.781601e-010
1.433459e-010
1.092574e-010
8.961398e-011
7.972978e-011
6.162397e-011
3.667765e-011
2.605550e-011
3.090905e-011
2.474450e-011
1.014006e-012
-9.742585e-012
4.678281e-012
9.591278e-012
-1.321242e-011
-2.317477e-011
8.139883e-012
3.674617e-011
1.822974e-011
-1.535618e-011
-1.957494e-011
-1.599222e-011
-2.794419e-011
-1.060753e-011
5.720157e-011
8.471522e-011
-5.267561e-012
-1.174341e-010
-8.938763e-011
6.271938e-011
1.414071e-010
3.648037e-011
-1.169289e-010
-3.072330e-011
3.133552e-012
2.605750e-011
1.346336e-011
-1.071619e-011
-1.001161e-011
1.178152e-011
1.511018e-011
-1.425895e-011
-3.665655e-011
-1.472296e-011
2.606504e-011
3.293525e-011
5.684685e-012
-9.656212e-012
7.388698e-013
4.236010e-012
-1.202079e-011
-1.939423e-011
-2.958224e-012
1.437764e-011
1.708020e-011
2.138773e-011
4.030008e-011
6.171731e-011
7.523780e-011
9.081259e-011
1.182080e-010
1.511313e-010
1.829092e-010
2.199908e-010
2.693734e-010
3.259347e-010
3.819482e-010
4.393280e-010
5.033255e-010
5.713175e-010
6.364638e-010
6.976569e-010
7.583339e-010
8.187352e-010
8.756019e-010
9.272255e-010
9.738989e-010
1.015321e-009
1.051089e-009
1.081667e-009
1.106463e-009
1.123468e-009
1.132454e-009
1.135561e-009
1.133505e-009
1.124366e-009
1.106996e-009
1.082480e-009
1.051849e-009
1.015358e-009
9.735776e-010
9.261992e-010
8.714709e-010
8.102149e-010
7.472639e-010
6.845897e-010
6.176316e-010
5.443827e-010
4.724045e-010
4.086520e-010
3.485602e-010
2.859822e-010
2.277003e-010
1.841658e-010
1.511858e-010
1.175434e-010
8.630661e-011
6.847180e-011
5.916462e-011
4.437717e-011
2.784871e-011
2.203601e-011
1.766311e-011
-1.059652e-012
-1.949095e-011
-1.693656e-011
-1.226310e-011
-2.484790e-011
-1.640049e-011
4.309856e-011
8.294390e-011
2.121983e-011
-7.734029e-011
-7.353138e-011
2.521639e-011
7.003339e-011
5.955807e-012
-5.493889e-011
-2.542945e-011
3.624052e-011
4.319787e-011
5.400384e-013
-3.618717e-011
-4.030138e-012
-1.085919e-011
-3.509602e-012
1.394609e-011
1.521483e-011
-1.915886e-012
-9.870058e-012
6.588643e-014
2.478959e-012
-1.156624e-011
-1.198448e-011
1.323700e-011
2.486354e-011
-2.434390e-012
-2.872339e-011
-1.291532e-011
1.784578e-011
1.885794e-011
4.006752e-012
1.233607e-011
3.719579e-011
4.702815e-011
4.643103e-011
6.392711e-011
1.011962e-010
1.386359e-010
1.753915e-010
2.277476e-010
2.980632e-010
3.736940e-010
4.506412e-010
5.361811e-010
6.311585e-010
7.270687e-010
8.199715e-010
9.138929e-010
1.009907e-009
1.102414e-009
1.187597e-009
1.267422e-009
1.343643e-009
1.413963e-009
1.475597e-009
1.528274e-009
1.572938e-009
1.610405e-009
1.641159e-009
1.664518e-009
1.679041e-009
1.685075e-009
1.684953e-009
1.679627e-009
1.667426e-009
1.647005e-009
1.619087e-009
1.584656e-009
1.543637e-009
1.495477e-009
1.439213e-009
1.373890e-009
1.300550e-009
1.221792e-009
1.137825e-009
1.046393e-009
9.484633e-010
8.492914e-010
7.514900e-010
6.529070e-010
5.542834e-010
4.616402e-010
3.774967e-010
2.988636e-010
2.278549e-010
1.718300e-010
1.281740e-010
8.641963e-011
5.166015e-011
4.008741e-011
4.221117e-011
2.861887e-011
6.584754e-012
1.543672e-011
4.213163e-011
1.988826e-011
-4.784545e-011
-6.171023e-011
1.157101e-011
6.604032e-011
2.839084e-011
-2.458731e-011
-1.862496e-011
-8.751969e-012
-3.751535e-011
-2.364757e-011
6.617087e-011
9.452260e-011
-2.577220e-011
-1.345408e-010
-5.147563e-011
1.146653e-010
3.866681e-011
-1.320969e-011
-3.602805e-011
-2.858065e-012
2.613178e-011
3.615411e-012
-2.987170e-011
-1.350334e-011
3.158503e-011
3.488955e-011
-7.201310e-012
-2.922661e-011
-9.785045e-012
2.916848e-012
-1.002039e-011
-7.501091e-012
2.332170e-011
3.944357e-011
2.604341e-011
2.441867e-011
5.490047e-011
8.740303e-011
1.067490e-010
1.407310e-010
2.066849e-010
2.854345e-010
3.629644e-010
4.536551e-010
5.685742e-010
6.947327e-010
8.185100e-010
9.445257e-010
1.079634e-009
1.216580e-009
1.344518e-009
1.463046e-009
1.576003e-009
1.680143e-009
1.768744e-009
1.840851e-009
1.899830e-009
1.946354e-009
1.978406e-009
1.996088e-009
2.002486e-009
2.000850e-009
1.993068e-009
1.980124e-009
1.963076e-009
1.944021e-009
1.925844e-009
1.910334e-009
1.897105e-009
1.885047e-009
1.874047e-009
1.864440e-009
1.855018e-009
1.842212e-009
1.821881e-009
1.792011e-009
1.752303e-009
1.700483e-009
1.632024e-009
1.545783e-009
1.446095e-009
1.335865e-009
1.212971e-009
1.078834e-009
9.435543e-010
8.141244e-010
6.857249e-010
5.566540e-010
4.414358e-010
3.509064e-010
2.710584e-010
1.880533e-010
1.208358e-010
9.063607e-011
7.279815e-011
3.356495e-011
2.089361e-013
1.966292e-011
5.977082e-011
4.780537e-011
-3.237857e-012
-2.189909e-011
-1.471586e-011
-3.531079e-011
-4.397960e-011
2.690163e-011
9.559233e-011
2.948769e-011
-9.659800e-011
-7.859250e-011
7.309562e-011
1.197654e-010
-2.582998e-011
-1.462943e-010
-5.229801e-011
1.233341e-010
3.580147e-011
-4.183331e-012
-3.206133e-011
-1.530967e-011
1.820925e-011
1.683708e-011
-1.724519e-011
-2.453061e-011
1.516144e-011
3.771441e-011
-1.467672e-012
-4.212976e-011
-1.642398e-011
3.364986e-011
3.231119e-011
-1.316183e-013
2.845296e-012
3.460619e-011
4.844834e-011
5.595073e-011
9.898178e-011
1.697933e-010
2.367604e-010
3.094305e-010
4.155619e-010
5.479333e-010
6.831151e-010
8.245180e-010
9.875773e-010
1.164068e-009
1.332482e-009
1.488111e-009
1.637418e-009
1.773339e-009
1.877866e-009
1.943637e-009
1.975713e-009
1.975018e-009
1.934872e-009
1.853719e-009
1.739531e-009
1.600407e-009
1.439596e-009
1.261174e-009
1.073865e-009
8.873788e-010
7.091497e-010
5.457352e-010
4.042933e-010
2.916971e-010
2.137347e-010
1.750766e-010
1.783047e-010
2.229850e-010
3.069795e-010
4.279465e-010
5.812407e-010
7.569544e-010
9.425009e-010
1.128223e-009
1.306179e-009
1.463641e-009
1.585294e-009
1.664045e-009
1.701539e-009
1.695778e-009
1.639999e-009
1.538805e-009
1.411161e-009
1.268890e-009
1.108243e-009
9.339422e-010
7.707843e-010
6.331059e-010
5.056202e-010
3.789114e-010
2.761961e-010
2.115534e-010
1.553075e-010
8.506210e-011
3.081075e-011
1.658182e-011
1.115894e-011
-1.931580e-012
1.708243e-011
6.146369e-011
4.162003e-011
-5.254510e-011
-8.669617e-011
3.490493e-012
8.488698e-011
4.346403e-011
-3.646414e-011
-4.161924e-011
-6.781485e-012
1.738994e-012
8.214553e-012
2.826128e-011
1.345636e-011
-3.056273e-011
-1.739082e-011
1.189542e-011
1.296325e-011
-1.370858e-011
-1.172121e-011
2.152907e-011
2.244900e-011
-1.933441e-011
-3.312571e-011
2.977155e-012
2.006591e-011
-6.610753e-012
-9.857008e-012
3.123952e-011
4.482510e-011
9.413281e-012
2.319180e-012
5.926261e-011
1.208528e-010
1.555911e-010
2.118931e-010
3.195257e-010
4.468108e-010
5.762492e-010
7.341824e-010
9.306610e-010
1.138276e-009
1.339015e-009
1.538647e-009
1.729101e-009
1.878232e-009
1.962103e-009
1.976150e-009
1.911041e-009
1.744617e-009
1.464246e-009
1.077158e-009
5.931049e-010
1.379554e-011
-6.543234e-010
-1.390858e-009
-2.171768e-009
-2.978887e-009
-3.794282e-009
-4.593847e-009
-5.351682e-009
-6.045418e-009
-6.654314e-009
-7.157164e-009
-7.535022e-009
-7.773096e-009
-7.859313e-009
-7.785137e-009
-7.549213e-009
-7.157382e-009
-6.619358e-009
-5.949765e-009
-5.172643e-009
-4.319580e-009
-3.422407e-009
-2.512893e-009
-1.628651e-009
-8.092426e-010
-8.330579e-011
5.323052e-010
1.020683e-009
1.366471e-009
1.573187e-009
1.663469e-009
1.656475e-009
1.562097e-009
1.402619e-009
1.215829e-009
1.025281e-009
8.322337e-010
6.468386e-010
4.938327e-010
3.756374e-010
2.722528e-010
1.874770e-010
1.383404e-010
9.608423e-011
2.183154e-011
-3.911469e-011
-1.288781e-011
5.670464e-011
6.060988e-011
8.654099e-012
-9.274652e-012
-6.536153e-012
-4.023820e-011
-4.167385e-011
4.954409e-011
9.039704e-011
-3.653854e-011
-1.391541e-010
-5.920314e-012
1.733986e-010
8.341741e-011
-1.545056e-010
-5.830327e-011
2.381453e-011
5.621317e-011
-2.892321e-012
-4.807976e-011
-3.541294e-012
4.844474e-011
1.125797e-011
-5.058709e-011
-2.541034e-011
4.164678e-011
3.538606e-011
-1.729083e-011
-1.094757e-011
4.112474e-011
5.936757e-011
6.656277e-011
1.329308e-010
2.349630e-010
3.158572e-010
4.058654e-010
5.633547e-010
7.716376e-010
9.854446e-010
1.209884e-009
1.461583e-009
1.707893e-009
1.896720e-009
2.001344e-009
1.998141e-009
1.837007e-009
1.464839e-009
8.539575e-010
-1.150763e-011
-1.153230e-009
-2.583266e-009
-4.286980e-009
-6.235320e-009
-8.400421e-009
-1.074775e-008
-1.322557e-008
-1.577412e-008
-1.833771e-008
-2.086093e-008
-2.328193e-008
-2.553761e-008
-2.757031e-008
-2.932579e-008
-3.075088e-008
-3.179827e-008
-3.243047e-008
-3.261802e-008
-3.234010e-008
-3.159035e-008
-3.037976e-008
-2.873372e-008
-2.669168e-008
-2.431098e-008
-2.166583e-008
-1.884073e-008
-1.592750e-008
-1.302523e-008
-1.023238e-008
-7.634064e-009
-5.299536e-009
-3.286284e-009
-1.632989e-009
-3.468853e-010
5.914591e-010
1.211632e-009
1.552917e-009
1.673302e-009
1.636782e-009
1.491778e-009
1.279141e-009
1.047853e-009
8.318630e-010
6.290219e-010
4.427837e-010
3.141156e-010
2.562765e-010
2.058677e-010
1.168732e-010
4.004347e-011
1.832990e-011
1.278009e-012
-2.935967e-011
4.921837e-012
8.855474e-011
5.959324e-011
-9.076144e-011
-1.231116e-010
4.730896e-011
1.506641e-010
6.946234e-012
-1.439017e-010
-4.663649e-011
1.268925e-010
7.775237e-011
-1.052763e-010
-3.422913e-011
1.034713e-011
4.310919e-011
1.371553e-011
-4.319137e-011
-3.689501e-011
2.890846e-011
4.261654e-011
-1.862694e-011
-3.620946e-011
2.747850e-011
5.213268e-011
-4.479302e-012
-1.746019e-011
6.933077e-011
1.501636e-010
1.745873e-010
2.338963e-010
3.779731e-010
5.487003e-010
7.255719e-010
9.619415e-010
1.261635e-009
1.557240e-009
1.806806e-009
2.001090e-009
2.083879e-009
1.948279e-009
1.500482e-009
6.678463e-010
-6.392459e-010
-2.520676e-009
-5.045187e-009
-8.243874e-009
-1.213136e-008
-1.670311e-008
-2.191581e-008
-2.769027e-008
-3.393040e-008
-4.052677e-008
-4.735022e-008
-5.425827e-008
-6.110795e-008
-6.775708e-008
-7.406064e-008
-7.987565e-008
-8.506774e-008
-8.950994e-008
-9.308153e-008
-9.567493e-008
-9.720234e-008
-9.759584e-008
-9.680871e-008
-9.482309e-008
-9.165656e-008
-8.736333e-008
-8.203463e-008
-7.580016e-008
-6.882601e-008
-6.130991e-008
-5.347612e-008
-4.556502e-008
-3.781535e-008
-3.044902e-008
-2.366360e-008
-1.762129e-008
-1.243060e-008
-8.138709e-009
-4.742498e-009
-2.196631e-009
-4.092892e-010
7.469720e-010
1.400811e-009
1.667341e-009
1.667798e-009
1.524046e-009
1.309523e-009
1.045213e-009
7.681693e-010
5.462439e-010
3.972134e-010
2.773545e-010
1.831543e-010
1.513149e-010
1.334108e-010
3.743663e-011
-7.610135e-011
-5.345748e-011
6.817899e-011
9.012232e-011
-1.287834e-011
-6.699225e-011
-1.309785e-011
3.558318e-011
2.657431e-011
4.574162e-012
-2.121715e-011
-4.501673e-011
-1.476894e-011
4.966143e-011
3.799639e-011
-2.984131e-011
-3.036869e-011
2.924663e-011
2.316927e-011
-3.868409e-011
-2.787508e-011
4.055152e-011
3.273401e-011
-3.128377e-011
-1.692420e-011
5.315513e-011
6.025669e-011
4.545169e-011
1.217464e-010
2.435661e-010
3.189757e-010
4.144494e-010
6.324424e-010
9.299312e-010
1.223092e-009
1.524308e-009
1.846625e-009
2.096738e-009
2.145340e-009
1.892145e-009
1.201704e-009
-1.383531e-010
-2.353720e-009
-5.635549e-009
-1.016647e-008
-1.612866e-008
-2.365459e-008
-3.279367e-008
-4.352862e-008
-5.578923e-008
-6.943786e-008
-8.426472e-008
-1.000117e-007
-1.163950e-007
-1.331092e-007
-1.498312e-007
-1.662342e-007
-1.819979e-007
-1.968099e-007
-2.103682e-007
-2.223864e-007
-2.325952e-007
-2.407445e-007
-2.466109e-007
-2.500071e-007
-2.507867e-007
-2.488499e-007
-2.441541e-007
-2.367245e-007
-2.266627e-007
-2.141526e-007
-1.994618e-007
-1.829370e-007
-1.649998e-007
-1.461392e-007
-1.268887e-007
-1.077921e-007
-8.937564e-008
-7.212621e-008
-5.645604e-008
-4.266312e-008
-3.091948e-008
-2.128320e-008
-1.369891e-008
-7.994108e-009
-3.914760e-009
-1.186303e-009
4.658148e-010
1.329528e-009
1.675678e-009
1.695781e-009
1.510904e-009
1.234282e-009
9.576972e-010
6.948040e-010
4.393347e-010
2.582482e-010
2.067638e-010
2.004138e-010
1.285528e-010
2.865891e-011
-1.333537e-011
-1.823041e-011
-1.136152e-011
4.561424e-011
8.584969e-011
-1.596710e-011
-1.338718e-010
-2.905298e-011
1.556397e-010
7.116861e-011
-1.627071e-010
-1.139701e-010
1.482964e-010
8.721910e-011
-5.473592e-011
-9.489215e-011
2.494742e-011
9.108127e-011
-6.225872e-012
-7.851514e-011
4.728119e-012
7.358852e-011
2.814812e-012
-4.294419e-011
5.388957e-011
1.461995e-010
1.445476e-010
1.902515e-010
3.628659e-010
5.636636e-010
7.669483e-010
1.070142e-009
1.467179e-009
1.829877e-009
2.086004e-009
2.195636e-009
1.985411e-009
1.156897e-009
-6.015851e-010
-3.630247e-009
-8.364437e-009
-1.528567e-008
-2.482777e-008
-3.736134e-008
-5.320089e-008
-7.255090e-008
-9.544500e-008
-1.217513e-007
-1.512058e-007
-1.834164e-007
-2.178625e-007
-2.539317e-007
-2.909698e-007
-3.283044e-007
-3.652517e-007
-4.011339e-007
-4.353009e-007
-4.671366e-007
-4.960562e-007
-5.215087e-007
-5.429819e-007
-5.600076e-007
-5.721669e-007
-5.791015e-007
-5.805249e-007
-5.762378e-007
-5.661446e-007
-5.502704e-007
-5.287791e-007
-5.019923e-007
-4.703981e-007
-4.346504e-007
-3.955642e-007
-3.541055e-007
-3.113561e-007
-2.684575e-007
-2.265550e-007
-1.867417e-007
-1.499816e-007
-1.170303e-007
-8.839600e-008
-6.433331e-008
-4.483368e-008
-2.962996e-008
-1.826184e-008
-1.017033e-008
-4.749274e-009
-1.373064e-009
5.349098e-010
1.437231e-009
1.701235e-009
1.631885e-009
1.422835e-009
1.133642e-009
8.017611e-010
5.181693e-010
3.322819e-010
2.071959e-010
1.389106e-010
1.498427e-010
1.356214e-010
-1.157560e-011
-1.288706e-010
-6.377487e-012
1.631150e-010
5.335572e-011
-1.667838e-010
-9.043676e-011
1.561029e-010
1.175391e-010
-1.315759e-010
-1.214737e-010
1.163670e-010
5.134903e-011
-1.825352e-011
-7.040303e-011
-1.242841e-011
7.706570e-011
3.340775e-011
-7.295793e-011
-3.553094e-011
8.142312e-011
6.361436e-011
-1.379623e-011
6.320558e-011
2.202606e-010
2.786073e-010
3.422436e-010
5.922998e-010
9.534190e-010
1.286817e-009
1.635494e-009
2.029312e-009
2.290177e-009
2.167038e-009
1.416245e-009
-3.623503e-010
-3.800161e-009
-9.637597e-009
-1.866648e-008
-3.178292e-008
-4.994484e-008
-7.402126e-008
-1.046983e-007
-1.424552e-007
-1.875034e-007
-2.397070e-007
-2.985796e-007
-3.633491e-007
-4.330067e-007
-5.063420e-007
-5.820137e-007
-6.586420e-007
-7.348638e-007
-8.093539e-007
-8.808493e-007
-9.481787e-007
-1.010268e-006
-1.066127e-006
-1.114844e-006
-1.155591e-006
-1.187617e-006
-1.210252e-006
-1.222916e-006
-1.225130e-006
-1.216542e-006
-1.196949e-006
-1.166333e-006
-1.124885e-006
-1.073049e-006
-1.011556e-006
-9.414427e-007
-8.640654e-007
-7.810961e-007
-6.944866e-007
-6.063956e-007
-5.190929e-007
-4.348405e-007
-3.557398e-007
-2.835719e-007
-2.196793e-007
-1.648908e-007
-1.194760e-007
-8.315477e-008
-5.519723e-008
-3.456640e-008
-2.004138e-008
-1.034129e-008
-4.269764e-009
-8.020789e-010
9.240557e-010
1.605228e-009
1.714321e-009
1.524999e-009
1.228558e-009
9.439394e-010
6.557309e-010
3.420016e-010
1.411620e-010
1.626147e-010
2.226757e-010
9.543093e-011
-8.732139e-011
-6.459167e-011
7.909782e-011
7.986800e-011
-3.784166e-011
-6.135577e-011
1.555461e-011
4.202223e-011
-8.265124e-013
-1.958162e-011
3.354726e-013
-5.946270e-011
6.506151e-011
4.071637e-011
-6.636019e-011
-2.356087e-011
6.445238e-011
4.948348e-012
-5.566306e-011
4.112682e-011
1.219675e-010
7.551226e-011
1.059056e-010
3.037603e-010
4.912515e-010
6.498811e-010
9.733769e-010
1.453702e-009
1.881442e-009
2.179870e-009
2.313983e-009
1.953659e-009
4.950483e-010
-2.769807e-009
-8.762482e-009
-1.877768e-008
-3.438826e-008
-5.728831e-008
-8.925675e-008
-1.320701e-007
-1.872628e-007
-2.559052e-007
-3.385036e-007
-4.349292e-007
-5.443492e-007
-6.652556e-007
-7.956095e-007
-9.330035e-007
-1.074800e-006
-1.218281e-006
-1.360810e-006
-1.499931e-006
-1.633410e-006
-1.759260e-006
-1.875754e-006
-1.981413e-006
-2.074965e-006
-2.155314e-006
-2.221511e-006
-2.272726e-006
-2.308223e-006
-2.327348e-006
-2.329525e-006
-2.314270e-006
-2.281213e-006
-2.230138e-006
-2.161037e-006
-2.074179e-006
-1.970194e-006
-1.850170e-006
-1.715733e-006
-1.569110e-006
-1.413153e-006
-1.251302e-006
-1.087482e-006
-9.259064e-007
-7.708080e-007
-6.261158e-007
-4.951404e-007
-3.803003e-007
-2.829300e-007
-2.032300e-007
-1.403761e-007
-9.272991e-008
-5.809808e-008
-3.403927e-008
-1.816589e-008
-8.328666e-009
-2.687534e-009
2.187589e-010
1.433921e-009
1.694087e-009
1.556422e-009
1.337672e-009
1.059305e-009
6.828114e-010
3.435598e-010
1.935409e-010
1.757963e-010
1.522948e-010
8.861822e-011
8.237329e-013
-6.474667e-011
-1.094656e-011
1.068456e-010
5.886156e-011
-1.200364e-010
-9.572757e-011
1.162432e-010
1.102334e-010
-1.108633e-010
-1.519775e-010
1.174629e-010
1.409976e-010
-9.184057e-011
-1.241341e-010
7.839727e-011
1.100176e-010
-4.464068e-011
-2.185012e-011
1.640767e-010
2.170387e-010
2.202927e-010
4.435322e-010
8.008237e-010
1.110396e-009
1.483048e-009
1.995626e-009
2.391338e-009
2.335230e-009
1.489442e-009
-8.630215e-010
-5.976886e-009
-1.547448e-008
-3.137393e-008
-5.628540e-008
-9.333208e-008
-1.458343e-007
-2.170510e-007
-3.099199e-007
-4.266405e-007
-5.682508e-007
-7.344081e-007
-9.233466e-007
-1.131941e-006
-1.355925e-006
-1.590282e-006
-1.829689e-006
-2.068886e-006
-2.302983e-006
-2.527696e-006
-2.739480e-006
-2.935544e-006
-3.113817e-006
-3.272877e-006
-3.411866e-006
-3.530368e-006
-3.628300e-006
-3.705799e-006
-3.763103e-006
-3.800451e-006
-3.817992e-006
-3.815703e-006
-3.793327e-006
-3.750345e-006
-3.685988e-006
-3.599291e-006
-3.489200e-006
-3.354743e-006
-3.195290e-006
-3.010841e-006
-2.802332e-006
-2.571922e-006
-2.323214e-006
-2.061330e-006
-1.792781e-006
-1.525089e-006
-1.266208e-006
-1.023787e-006
-8.043740e-007
-6.127333e-007
-4.514443e-007
-3.208351e-007
-2.192149e-007
-1.433494e-007
-8.910536e-008
-5.208467e-008
-2.807938e-008
-1.337230e-008
-4.968300e-009
-6.586549e-010
1.158489e-009
1.665689e-009
1.621267e-009
1.373980e-009
1.061045e-009
7.456580e-010
4.251802e-010
1.562212e-010
1.027936e-010
2.153514e-010
1.561163e-010
-1.064049e-010
-1.355256e-010
1.344764e-010
1.659705e-010
-1.361879e-010
-1.728681e-010
1.410363e-010
1.654870e-010
-1.496249e-010
-1.225500e-010
6.860753e-011
1.305616e-010
-4.465342e-011
-1.340211e-010
4.940495e-011
1.637648e-010
1.133808e-011
-3.651496e-011
2.061204e-010
3.948024e-010
4.345742e-010
6.821841e-010
1.198844e-009
1.678298e-009
2.060083e-009
2.414043e-009
2.349504e-009
1.045451e-009
-2.518705e-009
-9.898079e-009
-2.358335e-008
-4.694703e-008
-8.415524e-008
-1.402624e-007
-2.210242e-007
-3.322597e-007
-4.791046e-007
-6.652930e-007
-8.923629e-007
-1.158957e-006
-1.460563e-006
-1.789776e-006
-2.136932e-006
-2.491018e-006
-2.840759e-006
-3.175670e-006
-3.486844e-006
-3.767425e-006
-4.012798e-006
-4.220550e-006
-4.390249e-006
-4.523127e-006
-4.621759e-006
-4.689753e-006
-4.731454e-006
-4.751645e-006
-4.755257e-006
-4.747072e-006
-4.731428e-006
-4.711929e-006
-4.691160e-006
-4.670408e-006
-4.649435e-006
-4.626324e-006
-4.597423e-006
-4.557422e-006
-4.499608e-006
-4.416377e-006
-4.299957e-006
-4.143321e-006
-3.941241e-006
-3.691387e-006
-3.395257e-006
-3.058721e-006
-2.691979e-006
-2.308836e-006
-1.925275e-006
-1.557512e-006
-1.219926e-006
-9.233572e-007
-6.740910e-007
-4.736692e-007
-3.195154e-007
-2.061458e-007
-1.265294e-007
-7.323750e-008
-3.931757e-008
-1.890281e-008
-7.447778e-009
-1.613552e-009
9.287030e-010
1.679258e-009
1.601659e-009
1.342644e-009
1.133316e-009
8.100896e-010
3.437893e-010
9.659440e-011
2.084875e-010
2.518035e-010
-5.360095e-012
-1.469202e-010
5.225493e-011
1.544742e-010
-4.984987e-011
-1.267237e-010
7.252839e-011
1.084674e-010
-9.445518e-011
3.880506e-011
-7.487648e-011
4.825314e-012
7.869083e-011
-3.999759e-011
-4.044149e-011
1.297276e-010
1.279090e-010
5.401905e-011
2.641175e-010
5.886701e-010
7.651678e-010
1.062451e-009
1.680902e-009
2.273689e-009
2.502813e-009
2.184820e-009
5.511309e-010
-4.062627e-009
-1.398301e-008
-3.248534e-008
-6.443757e-008
-1.164113e-007
-1.963770e-007
-3.134011e-007
-4.769630e-007
-6.955042e-007
-9.745734e-007
-1.315063e-006
-1.711759e-006
-2.152568e-006
-2.618926e-006
-3.087502e-006
-3.532760e-006
-3.929808e-006