# vtk DataFile Version 3.0
vtk output
ASCII
DATASET STRUCTURED_POINTS
DIMENSIONS 100 100 1
SPACING 1 1 1
ORIGIN 0 0 0
POINT_DATA 10000
SCALARS SFBox_profile double
LOOKUP_TABLE default 
0.000000e+000
0.000000e+000
0.000000e+000
0.000000e+000
0.000000e+000
0.000000e+000
0.000000e+000
0.000000e+000
0.000000e+000
0.000000e+000
0.000000e+000
0.000000e+000
0.000000e+000
0.000000e+000
0.000000e+000
0.000000e+000
0.000000e+000
0.000000e+000
0.000000e+000
0.000000e+000
0.000000e+000
0.000000e+000
0.000000e+000
0.000000e+000
0.000000e+000
0.000000e+000
0.000000e+000
0.000000e+000
0.000000e+000
0.000000e+000
0.000000e+000
0.000000e+000
0.000000e+000
0.000000e+000
0.000000e+000
0.000000e+000
0.000000e+000
0.000000e+000
0.000000e+000
0.000000e+000
0.000000e+000
0.000000e+000
0.000000e+000
0.000000e+000
0.000000e+000
0.000000e+000
0.000000e+000
0.000000e+000
0.000000e+000
0.000000e+000
0.000000e+000
0.000000e+000
0.000000e+000
0.000000e+000
0.000000e+000
0.000000e+000
0.000000e+000
0.000000e+000
0.000000e+000
0.000000e+000
0.000000e+000
0.000000e+000
0.000000e+000
0.000000e+000
0.000000e+000
0.000000e+000
0.000000e+000
0.000000e+000
0.000000e+000
0.000000e+000
0.000000e+000
0.000000e+000
0.000000e+000
0.000000e+000
0.000000e+000
0.000000e+000
0.000000e+000
0.000000e+000
0.000000e+000
0.000000e+000
0.000000e+000
0.000000e+000
0.000000e+000
0.000000e+000
0.000000e+000
0.000000e+000
0.000000e+000
0.000000e+000
0.000000e+000
0.000000e+000
0.000000e+000
0.000000e+000
0.000000e+000
0.000000e+000
0.000000e+000
0.000000e+000
0.000000e+000
0.000000e+000
0.000000e+000
0.000000e+000
2.170720e-014
8.523302e-015
-9.364950e-015
-2.134408e-014
-1.942786e-014
-5.208769e-015
1.147558e-014
1.919575e-014
1.491728e-014
4.069616e-015
-7.034566e-015
-1.312258e-014
-1.301004e-014
-8.261666e-015
-2.143513e-015
2.365250e-015
5.981498e-015
1.044819e-014
1.404883e-014
1.269661e-014
6.020529e-015
-2.926090e-015
-9.980777e-015
-1.314882e-014
-1.380541e-014
-1.219775e-014
-8.271857e-015
-3.572275e-015
7.788456e-016
5.409256e-015
1.065875e-014
1.391938e-014
1.494460e-014
1.385129e-014
1.249105e-014
1.080967e-014
9.726332e-015
8.136892e-015
4.516524e-015
-2.259662e-017
-3.423739e-015
-4.285896e-015
-4.943790e-015
-6.328967e-015
-7.863330e-015
-8.629861e-015
-8.612297e-015
-9.040340e-015
-9.864117e-015
-9.217498e-015
-7.913854e-015
-7.013315e-015
-6.269986e-015
-5.567857e-015
-4.285680e-015
-2.678458e-015
-7.843571e-016
1.750724e-015
4.510236e-015
6.474160e-015
8.109570e-015
9.320407e-015
9.839523e-015
1.041805e-014
1.063056e-014
9.528140e-015
7.207514e-015
4.206226e-015
6.652480e-017
-3.649036e-015
-7.222350e-015
-9.123173e-015
-9.863900e-015
-9.557504e-015
-6.646638e-015
-1.319519e-015
4.450171e-015
7.573757e-015
7.197539e-015
5.368490e-015
3.100773e-015
6.665223e-016
-2.487856e-015
-6.061603e-015
-7.523541e-015
-5.652208e-015
-9.951260e-016
3.786206e-015
7.284276e-015
8.025870e-015
2.872440e-015
-4.097896e-015
-7.927298e-015
-6.185852e-015
-1.143445e-015
3.813094e-015
7.486588e-015
6.061512e-015
-8.743191e-017
-6.397055e-015
3.776014e-015
1.684805e-015
-1.375681e-015
-3.817955e-015
-3.551241e-015
1.268064e-016
3.120072e-015
3.577171e-015
8.924700e-016
-1.775318e-015
-2.205963e-015
-1.487354e-015
5.197213e-016
3.118771e-015
4.013888e-015
1.908151e-015
-1.864222e-015
-3.630171e-015
-3.399886e-015
-2.684963e-015
-2.214203e-015
-1.644780e-015
2.569107e-016
2.195681e-015
3.854944e-015
4.806440e-015
5.522013e-015
4.373626e-015
1.683504e-015
-1.090102e-015
-2.668267e-015
-3.917268e-015
-5.574579e-015
-7.066008e-015
-8.622271e-015
-9.124691e-015
-8.969216e-015
-8.218948e-015
-7.054515e-015
-6.615196e-015
-6.056182e-015
-4.387811e-015
-3.772635e-015
-4.037180e-015
-4.392582e-015
-3.965406e-015
-3.086552e-015
-3.227065e-015
-3.970394e-015
-4.000534e-015
-3.441086e-015
-3.623015e-015
-4.061900e-015
-3.984271e-015
-3.782176e-015
-4.063635e-015
-4.733455e-015
-5.318274e-015
-5.350149e-015
-5.273821e-015
-5.762580e-015
-5.548125e-015
-5.261462e-015
-5.152824e-015
-4.156659e-015
-2.956014e-015
-1.589052e-015
-1.383894e-016
1.220333e-015
2.404932e-015
3.488701e-015
4.298166e-015
3.638537e-015
1.949567e-015
3.182765e-016
-9.027519e-016
-9.417832e-016
-1.588618e-015
-1.719590e-015
-1.493859e-015
-1.141033e-016
1.538221e-015
2.312124e-015
1.276278e-015
-8.396246e-017
-6.774547e-016
-8.661059e-016
-9.144613e-016
7.454790e-017
1.844833e-015
1.075700e-015
-1.116990e-015
-1.884605e-015
-7.407721e-016
2.412982e-016
3.488510e-016
1.205371e-015
1.296010e-015
-5.790092e-016
-3.035594e-015
-1.777662e-014
-6.444543e-015
8.289331e-015
1.671011e-014
1.490166e-014
5.065347e-015
-6.964960e-015
-1.501104e-014
-1.453790e-014
-6.260662e-015
3.992421e-015
1.056225e-014
1.244595e-014
1.136500e-014
7.558795e-015
-5.338796e-017
-8.742401e-015
-1.477252e-014
-1.660547e-014
-1.382774e-014
-6.997703e-015
1.981009e-015
1.032980e-014
1.561051e-014
1.701716e-014
1.594336e-014
1.322505e-014
7.527354e-015
-4.892372e-016
-8.146307e-015
-1.434339e-014
-1.850152e-014
-2.092883e-014
-2.166544e-014
-2.075623e-014
-1.981796e-014
-1.819014e-014
-1.550045e-014
-1.202493e-014
-8.335175e-015
-5.196843e-015
-3.038630e-015
-2.575893e-015
-2.822007e-015
-2.248681e-015
-1.276585e-015
-7.485784e-016
-1.086849e-015
-1.940117e-015
-1.802423e-015
-1.587100e-015
-3.032342e-015
-4.462405e-015
-4.507074e-015
-4.364826e-015
-5.443824e-015
-7.773341e-015
-9.910520e-015
-1.124994e-014
-1.301112e-014
-1.432583e-014
-1.455199e-014
-1.466345e-014
-1.474194e-014
-1.404133e-014
-1.214137e-014
-8.710525e-015
-4.608121e-015
1.123049e-017
4.684792e-015
9.171004e-015
1.217056e-014
1.294706e-014
1.045123e-014
6.102712e-015
5.112645e-016
-4.488859e-015
-7.973485e-015
-9.274311e-015
-7.177247e-015
-3.959768e-015
6.422362e-016
5.142326e-015
7.081096e-015
7.025368e-015
4.953675e-015
1.667051e-016
-5.296807e-015
-7.541322e-015
-5.233055e-015
-7.299301e-016
2.761851e-015
5.403618e-015
5.551937e-015
1.926799e-015
-3.873466e-015
-6.483141e-015
-3.857420e-015
6.519940e-016
3.490869e-015
-2.579018e-014
-9.020607e-015
1.192575e-014
2.369042e-014
1.992586e-014
4.903801e-015
-1.218778e-014
-2.064130e-014
-1.613536e-014
-3.399019e-015
8.487523e-015
1.292473e-014
1.003511e-014
5.609183e-015
1.439992e-015
-2.567870e-015
-6.486393e-015
-9.206656e-015
-9.428918e-015
-7.139517e-015
-1.558911e-015
5.688547e-015
1.128021e-014
1.222694e-014
9.312167e-015
5.168780e-015
1.466663e-015
-2.689300e-015
-7.457838e-015
-1.090929e-014
-1.262189e-014
-1.298835e-014
-1.199653e-014
-9.261951e-015
-6.093261e-015
-3.832266e-015
-2.832198e-015
-2.765194e-015
-3.024752e-015
-3.160495e-015
-3.977332e-015
-6.047291e-015
-8.960326e-015
-1.086332e-014
-1.181113e-014
-1.255511e-014
-1.330364e-014
-1.469836e-014
-1.483800e-014
-1.407060e-014
-1.326591e-014
-1.397519e-014
-1.396457e-014
-1.190849e-014
-9.903798e-015
-9.602824e-015
-9.726206e-015
-8.957940e-015
-7.883713e-015
-8.001457e-015
-8.344282e-015
-7.511832e-015
-6.652927e-015
-7.049311e-015
-7.878509e-015
-7.502507e-015
-6.577032e-015
-5.117263e-015
-3.673973e-015
-1.250564e-015
1.513501e-015
3.818732e-015
5.429856e-015
6.404554e-015
5.519628e-015
2.542843e-015
-1.428156e-015
-4.418603e-015
-5.686686e-015
-5.433850e-015
-4.014846e-015
-1.613338e-015
1.477722e-015
4.384685e-015
6.168198e-015
6.244309e-015
2.339229e-015
-4.172272e-015
-8.133296e-015
-7.160333e-015
-2.363606e-015
3.413891e-015
7.864107e-015
8.107185e-015
2.631964e-015
-5.542270e-015
-9.393356e-015
-5.403709e-015
2.684656e-015
8.646250e-015
-1.312887e-014
-4.204581e-015
6.222625e-015
1.118979e-014
7.909643e-015
-5.514704e-016
-8.172328e-015
-9.580923e-015
-2.972711e-015
5.865489e-015
9.448994e-015
4.940230e-015
-3.453663e-015
-8.937991e-015
-8.239331e-015
-3.502452e-015
2.454589e-015
7.461000e-015
9.712888e-015
8.936816e-015
7.129668e-015
5.338566e-015
1.564025e-015
-5.213323e-015
-1.286259e-014
-1.812617e-014
-1.909545e-014
-1.657663e-014
-1.136769e-014
-4.685316e-015
2.815411e-015
8.731252e-015
1.287919e-014
1.545547e-014
1.580285e-014
1.360994e-014
8.432012e-015
1.383830e-015
-7.315157e-015
-1.557071e-014
-2.326594e-014
-3.135105e-014
-3.826024e-014
-4.253308e-014
-4.511131e-014
-4.794368e-014
-4.999304e-014
-5.120258e-014
-5.043258e-014
-4.738076e-014
-4.458135e-014
-4.289455e-014
-3.928611e-014
-3.401971e-014
-2.889772e-014
-2.488379e-014
-2.066732e-014
-1.451426e-014
-8.623789e-015
-5.256041e-015
-2.899852e-015
2.655843e-016
3.213747e-015
3.903083e-015
3.258633e-015
2.247940e-015
9.328023e-016
-1.873330e-015
-5.033345e-015
-8.009263e-015
-9.557504e-015
-1.032859e-014
-9.114282e-015
-4.788099e-015
-4.558170e-017
3.107278e-015
4.304888e-015
4.752663e-015
4.535172e-015
2.675766e-015
8.194726e-018
-2.702744e-015
-4.401906e-015
-4.165116e-015
-1.291547e-015
2.579272e-015
4.354544e-015
1.895140e-015
-1.778137e-015
-3.242677e-015
-2.186881e-015
3.742214e-016
2.893474e-015
3.938861e-015
1.661169e-015
-2.993311e-015
-5.516466e-015
-3.221427e-015
2.080539e-015
5.957212e-015
1.062123e-014
4.318549e-015
-3.942421e-015
-9.877778e-015
-1.027655e-014
-5.662399e-015
1.729257e-015
8.225797e-015
1.187782e-014
1.091874e-014
4.622342e-015
-5.472664e-015
-1.417382e-014
-1.676073e-014
-1.165999e-014
-1.833214e-015
9.133057e-015
1.741354e-014
1.976886e-014
1.519310e-014
6.804624e-015
-2.505420e-015
-1.187683e-014
-2.075840e-014
-2.670026e-014
-2.726231e-014
-2.142800e-014
-1.101662e-014
1.273892e-015
1.306719e-014
2.031920e-014
2.225646e-014
1.855239e-014
1.025391e-014
-1.776185e-015
-1.620150e-014
-3.124523e-014
-4.637506e-014
-6.072794e-014
-7.224803e-014
-8.194209e-014
-9.036483e-014
-9.660203e-014
-9.971238e-014
-1.016451e-013
-1.035585e-013
-1.051020e-013
-1.049630e-013
-1.025461e-013
-9.867090e-014
-9.456026e-014
-9.035854e-014
-8.475907e-014
-7.658635e-014
-6.863221e-014
-6.148732e-014
-5.313094e-014
-4.229456e-014
-3.222210e-014
-2.479662e-014
-1.883762e-014
-1.222312e-014
-5.935185e-015
-1.747345e-015
6.606676e-016
2.209342e-015
2.734096e-015
4.919657e-016
-2.587385e-015
-6.160916e-015
-9.937842e-015
-1.393920e-014
-1.489351e-014
-1.123737e-014
-5.004722e-015
3.922191e-016
4.358881e-015
8.262009e-015
1.013334e-014
8.852682e-015
4.829425e-015
-7.190881e-016
-6.244182e-015
-9.436724e-015
-7.982809e-015
-2.022299e-015
3.597988e-015
6.410192e-015
4.926136e-015
2.552817e-015
-3.300764e-016
-3.154423e-015
-4.375451e-015
-2.578278e-015
2.183131e-016
2.200018e-015
2.597486e-015
1.129910e-015
-9.192318e-016
-2.760424e-015
2.639963e-014
9.475014e-015
-1.167538e-014
-2.277805e-014
-1.855356e-014
-3.890813e-015
1.134635e-014
1.781578e-014
1.388793e-014
3.833477e-015
-5.431248e-015
-1.040795e-014
-1.094940e-014
-7.755777e-015
-2.839788e-015
2.801750e-015
8.558864e-015
1.245961e-014
1.082550e-014
3.374859e-015
-7.386281e-015
-1.630623e-014
-2.092189e-014
-1.996585e-014
-1.344719e-014
-2.324141e-015
1.082181e-014
2.185595e-014
2.607111e-014
2.194312e-014
8.315135e-015
-1.260259e-014
-3.703292e-014
-6.268037e-014
-8.728244e-014
-1.086850e-013
-1.247575e-013
-1.360796e-013
-1.430479e-013
-1.456025e-013
-1.461624e-013
-1.465571e-013
-1.464621e-013
-1.456030e-013
-1.450461e-013
-1.456888e-013
-1.459191e-013
-1.458111e-013
-1.458931e-013
-1.450689e-013
-1.438145e-013
-1.415973e-013
-1.380404e-013
-1.322103e-013
-1.257326e-013
-1.191985e-013
-1.099147e-013
-9.783368e-014
-8.557981e-014
-7.415362e-014
-6.271399e-014
-5.109719e-014
-3.952160e-014
-2.964777e-014
-2.113722e-014
-1.380367e-014
-7.211941e-015
-2.119010e-015
1.104540e-015
2.145591e-015
9.178403e-016
-3.032559e-015
-6.600668e-015
-7.601603e-015
-6.771755e-015
-5.424092e-015
-2.690818e-015
1.497455e-015
5.991039e-015
7.197756e-015
5.669682e-015
2.346819e-015
-1.693569e-015
-5.455534e-015
-6.867599e-015
-4.517916e-015
7.888471e-017
3.748042e-015
6.180775e-015
5.806725e-015
2.551950e-015
-3.002201e-015
-7.821697e-015
-7.540021e-015
-1.189198e-015
6.041780e-015
8.886509e-015
5.322954e-015
-2.848027e-015
-8.807453e-015
2.148624e-014
5.645829e-015
-1.204857e-014
-1.841869e-014
-1.117947e-014
3.197267e-015
1.393022e-014
1.326127e-014
1.915523e-015
-1.003477e-014
-1.347733e-014
-6.922242e-015
3.507566e-015
1.087732e-014
1.183792e-014
8.257672e-015
2.853358e-015
-2.351029e-015
-9.459926e-015
-1.884196e-014
-2.622082e-014
-2.531942e-014
-1.317288e-014
7.303141e-015
2.860489e-014
4.459471e-014
4.806567e-014
3.586862e-014
7.147449e-015
-3.341386e-014
-7.868428e-014
-1.207728e-013
-1.532488e-013
-1.744148e-013
-1.849034e-013
-1.850092e-013
-1.775494e-013
-1.664782e-013
-1.547127e-013
-1.430900e-013
-1.341139e-013
-1.289006e-013
-1.262840e-013
-1.259126e-013
-1.272884e-013
-1.298862e-013
-1.325769e-013
-1.361669e-013
-1.416864e-013
-1.476033e-013
-1.527609e-013
-1.580047e-013
-1.624437e-013
-1.657655e-013
-1.680726e-013
-1.678415e-013
-1.654159e-013
-1.593710e-013
-1.511077e-013
-1.402112e-013
-1.265145e-013
-1.099520e-013
-9.293048e-014
-7.666441e-014
-6.156647e-014
-4.590343e-014
-3.098134e-014
-1.742773e-014
-5.196626e-015
5.094838e-015
1.117049e-014
1.182470e-014
8.432446e-015
2.675332e-015
-4.430529e-015
-1.054174e-014
-1.261322e-014
-9.434773e-015
-4.247516e-015
-7.680672e-017
2.343349e-015
4.137270e-015
5.193934e-015
3.999143e-015
4.917489e-016
-2.779723e-015
-4.564103e-015
-2.876650e-015
9.926503e-016
4.768276e-015
5.122593e-015
8.373925e-016
-5.202481e-015
-6.925495e-015
-2.468123e-015
4.231596e-015
8.544986e-015
6.113554e-015
-1.196137e-015
-7.741032e-015
6.326952e-016
-2.787746e-015
-4.391715e-015
-1.353130e-015
3.957293e-015
7.861505e-015
7.572240e-015
3.698846e-016
-1.075186e-014
-1.725924e-014
-1.258980e-014
1.017804e-015
1.551727e-014
2.266000e-014
2.001259e-014
8.593558e-015
-6.137280e-015
-2.002548e-014
-3.073306e-014
-3.471295e-014
-2.714283e-014
-4.666451e-015
2.683201e-014
5.467107e-014
6.442325e-014
4.819556e-014
5.239687e-015
-5.532233e-014
-1.203656e-013
-1.753090e-013
-2.098903e-013
-2.196119e-013
-2.062376e-013
-1.770344e-013
-1.414615e-013
-1.062699e-013
-7.713106e-014
-5.805560e-014
-4.904848e-014
-4.722160e-014
-5.029510e-014
-5.591409e-014
-6.119502e-014
-6.545485e-014
-6.792444e-014
-6.861421e-014
-6.706511e-014
-6.658372e-014
-6.940742e-014
-7.441751e-014
-8.188116e-014
-9.154379e-014
-1.047062e-013
-1.197192e-013
-1.348603e-013
-1.488085e-013
-1.609431e-013
-1.710826e-013
-1.773510e-013
-1.781676e-013
-1.729936e-013
-1.626982e-013
-1.489690e-013
-1.334191e-013
-1.157538e-013
-9.651594e-014
-7.704193e-014
-5.790121e-014
-3.831141e-014
-1.867586e-014
-6.141373e-016
1.286531e-014
1.881412e-014
1.597828e-014
5.989088e-015
-6.511330e-015
-1.477512e-014
-1.670565e-014
-1.322753e-014
-8.297011e-015
-2.598444e-015
3.411505e-015
8.848562e-015
1.058480e-014
6.876182e-015
-3.645540e-016
-6.304681e-015
-7.886749e-015
-4.530926e-015
4.175895e-016
4.297949e-015
4.654868e-015
1.248739e-015
-2.404806e-015
-2.939751e-015
-9.049203e-016
1.626692e-015
2.270274e-015
7.833993e-016
-1.272248e-015
-1.892219e-014
-8.171460e-015
6.876182e-015
1.645229e-014
1.447991e-014
4.783238e-015
-4.478668e-015
-1.026874e-014
-1.235214e-014
-9.420895e-015
-2.274701e-015
6.635923e-015
1.517467e-014
1.836786e-014
1.268490e-014
-2.974229e-015
-2.264166e-014
-3.703227e-014
-3.578197e-014
-1.533392e-014
2.098490e-014
5.868999e-014
7.715525e-014
5.936978e-014
6.808338e-016
-8.610370e-014
-1.767738e-013
-2.444976e-013
-2.704027e-013
-2.475345e-013
-1.863800e-013
-1.066771e-013
-2.912432e-014
2.981031e-014
6.104119e-014
6.439289e-014
4.516001e-014
1.260511e-014
-2.236497e-014
-4.924039e-014
-6.120911e-014
-5.563978e-014
-3.259138e-014
2.973488e-015
4.509865e-014
8.977428e-014
1.313259e-013
1.641417e-013
1.839095e-013
1.904108e-013
1.842259e-013
1.652204e-013
1.356454e-013
9.754129e-014
5.658468e-014
1.501746e-014
-2.567092e-014
-6.399573e-014
-9.796053e-014
-1.250142e-013
-1.442980e-013
-1.560690e-013
-1.615221e-013
-1.602980e-013
-1.534045e-013
-1.420429e-013
-1.295130e-013
-1.170720e-013
-1.018929e-013
-8.231875e-014
-5.629551e-014
-2.687026e-014
9.200088e-016
1.936077e-014
2.341829e-014
1.572197e-014
2.238832e-015
-9.860213e-015
-1.640923e-014
-1.576261e-014
-9.641638e-015
-6.882967e-016
7.197106e-015
1.063229e-014
8.060998e-015
1.514585e-015
-3.942638e-015
-6.213825e-015
-5.741546e-015
-3.471444e-015
2.410814e-016
4.270627e-015
5.984317e-015
3.644175e-015
-1.035458e-015
-5.171473e-015
-6.039485e-015
-3.286045e-015
1.638618e-015
5.109583e-015
-2.415108e-014
-6.520220e-015
1.477481e-014
2.292628e-014
1.272393e-014
-5.050909e-015
-1.504682e-014
-1.256291e-014
-2.058945e-015
7.613873e-015
1.128693e-014
9.573677e-015
5.942901e-015
4.130358e-016
-1.113025e-014
-2.904712e-014
-4.217963e-014
-3.285506e-014
6.470907e-015
6.239102e-014
1.039563e-013
9.669886e-014
2.524062e-014
-9.593351e-014
-2.263559e-013
-3.181897e-013
-3.361331e-013
-2.723636e-013
-1.458352e-013
3.953390e-015
1.312090e-013
1.991310e-013
1.944985e-013
1.269624e-013
2.131515e-014
-9.078441e-014
-1.784213e-013
-2.190078e-013
-1.988772e-013
-1.148387e-013
2.708961e-014
2.139393e-013
4.281577e-013
6.495255e-013
8.587893e-013
1.039852e-012
1.181622e-012
1.273853e-012
1.311239e-012
1.295993e-012
1.233197e-012
1.129935e-012
9.956534e-013
8.426488e-013
6.839585e-013
5.292151e-013
3.852246e-013
2.580177e-013
1.505807e-013
6.355177e-014
-4.828214e-015
-5.576512e-014
-9.196186e-014
-1.140789e-013
-1.251183e-013
-1.284338e-013
-1.305521e-013
-1.344207e-013
-1.396264e-013
-1.425217e-013
-1.366234e-013
-1.140638e-013
-7.486442e-014
-2.725212e-014
1.503762e-014
3.938512e-014
3.984005e-014
2.083854e-014
-3.232052e-015
-1.832154e-014
-2.003242e-014
-1.178207e-014
-1.146481e-015
5.268961e-015
5.506618e-015
2.871573e-015
1.868686e-015
1.348485e-015
-1.163177e-015
-4.766415e-015
-5.071076e-015
-2.617716e-016
5.886305e-015
7.385540e-015
2.999292e-015
-4.440720e-015
-8.614248e-015
-6.144002e-015
1.220333e-015
7.506537e-015
-1.394766e-014
-5.759734e-016
1.415508e-014
1.498732e-014
1.438474e-015
-1.408145e-014
-1.781999e-014
-7.636515e-015
9.345994e-015
2.115686e-014
2.176488e-014
1.094823e-014
-6.058133e-015
-2.618158e-014
-4.464402e-014
-5.061039e-014
-2.641511e-014
3.316396e-014
1.044084e-013
1.384105e-013
8.790924e-014
-5.320271e-014
-2.378215e-013
-3.823854e-013
-4.118249e-013
-3.010448e-013
-8.619585e-014
1.519990e-013
3.258795e-013
3.745465e-013
2.789166e-013
6.693079e-014
-1.956272e-013
-4.278787e-013
-5.599998e-013
-5.435054e-013
-3.565252e-013
-2.938233e-015
4.960636e-013
1.103934e-012
1.780667e-012
2.484256e-012
3.174576e-012
3.812208e-012
4.362904e-012
4.800569e-012
5.104160e-012
5.258446e-012
5.257017e-012
5.105645e-012
4.817170e-012
4.413071e-012
3.920438e-012
3.373080e-012
2.804774e-012
2.247086e-012
1.727476e-012
1.268277e-012
8.819609e-013
5.716629e-013
3.344778e-013
1.625837e-013
4.569626e-014
-2.582357e-014
-6.123427e-014
-7.185099e-014
-6.973831e-014
-6.625607e-014
-7.243993e-014
-9.601200e-014
-1.334122e-013
-1.667356e-013
-1.745312e-013
-1.436573e-013
-7.844099e-014
-2.483736e-015
5.159063e-014
6.330435e-014
3.913857e-014
3.115952e-015
-2.230620e-014
-2.778858e-014
-1.849220e-014
-5.872952e-015
1.708007e-015
5.178755e-015
7.932628e-015
8.986473e-015
4.486167e-015
-3.617160e-015
-7.947030e-015
-5.201614e-015
1.606742e-015
6.727212e-015
5.476043e-015
-2.337992e-016
-5.568074e-015
-5.652642e-015
-5.249381e-018
6.244742e-015
2.814977e-015
4.347822e-015
4.560326e-015
-3.819012e-016
-8.482409e-015
-1.359984e-014
-1.023860e-014
-2.736978e-016
1.310883e-014
2.348507e-014
2.246592e-014
4.346521e-015
-2.669180e-014
-5.656721e-014
-5.945119e-014
-1.608852e-014
6.889927e-014
1.481727e-013
1.504963e-013
2.755712e-014
-1.956877e-013
-4.173533e-013
-5.071614e-013
-3.846121e-013
-7.414733e-014
2.968938e-013
5.602634e-013
5.859646e-013
3.416631e-013
-9.840505e-014
-5.896202e-013
-9.662694e-013
-1.087019e-012
-8.642211e-013
-2.753774e-013
6.487833e-013
1.851023e-012
3.259940e-012
4.805281e-012
6.422171e-012
8.053780e-012
9.648562e-012
1.115546e-011
1.252058e-011
1.368888e-011
1.461006e-011
1.523794e-011
1.553624e-011
1.548424e-011
1.508104e-011
1.434550e-011
1.331446e-011
1.204385e-011
1.060180e-011
9.064263e-012
7.507115e-012
6.003680e-012
4.618442e-012
3.398874e-012
2.372344e-012
1.549231e-012
9.227631e-013
4.722960e-013
1.717571e-013
-6.264132e-015
-8.747695e-014
-9.564034e-014
-5.375826e-014
6.142394e-015
4.580489e-014
3.424014e-014
-3.394143e-014
-1.328935e-013
-2.134849e-013
-2.274648e-013
-1.627926e-013
-5.343191e-014
4.217499e-014
8.178241e-014
6.280714e-014
1.522953e-014
-2.446984e-014
-3.618594e-014
-2.475954e-014
-7.004859e-015
5.516592e-015
1.141487e-014
1.143850e-014
6.304157e-015
-1.782690e-015
-7.107207e-015
-6.836157e-015
-2.890528e-015
1.743352e-015
4.740304e-015
3.654367e-015
-1.329684e-016
-2.611888e-015
-1.047601e-015
1.401828e-015
1.638182e-014
4.883418e-015
-8.036802e-015
-1.403569e-014
-1.045718e-014
-1.934262e-015
5.000078e-015
7.895115e-015
1.071079e-014
1.342888e-014
5.590752e-015
-2.199981e-014
-5.711170e-014
-6.225949e-014
-2.836318e-015
1.088107e-013
1.946062e-013
1.498282e-013
-6.963380e-014
-3.835340e-013
-6.035368e-013
-5.502615e-013
-1.815885e-013
3.531365e-013
7.819153e-013
8.509560e-013
4.625546e-013
-2.734825e-013
-1.084558e-012
-1.643705e-012
-1.687219e-012
-1.081044e-012
1.758905e-013
1.985728e-012
4.206760e-012
6.707819e-012
9.399472e-012
1.223381e-011
1.518951e-011
1.825038e-011
2.138737e-011
2.454449e-011
2.763231e-011
3.053057e-011
3.310241e-011
3.521095e-011
3.673109e-011
3.756234e-011
3.764296e-011
3.695492e-011
3.552370e-011
3.341713e-011
3.074050e-011
2.762644e-011
2.422447e-011
2.068884e-011
1.717244e-011
1.381541e-011
1.073368e-011
8.012714e-012
5.707225e-012
3.835824e-012
2.382239e-012
1.305130e-012
5.493121e-013
5.999060e-014
-2.079203e-013
-2.869411e-013
-2.142484e-013
-5.060106e-014
1.192182e-013
2.089055e-013
1.635547e-013
-2.448581e-016
-1.935037e-013
-3.050438e-013
-2.767012e-013
-1.394490e-013
1.638377e-014
1.043453e-013
9.737757e-014
3.426898e-014
-2.360681e-014
-4.144779e-014
-2.670676e-014
-4.792869e-015
8.535228e-015
1.007653e-014
5.363937e-015
1.107603e-016
-1.785943e-015
-3.112790e-015
-4.333384e-015
-3.678960e-015
1.912081e-016
4.098673e-015
4.530619e-015
1.477506e-015
-1.812181e-015
-3.941337e-015
2.074508e-014
2.032183e-015
-1.689755e-014
-1.954583e-014
-5.445342e-015
1.262896e-014
2.052412e-014
1.574886e-014
6.166246e-015
-7.472800e-015
-3.245889e-014
-6.163043e-014
-5.998830e-014
1.400286e-014
1.456239e-013
2.305319e-013
1.323784e-013
-1.868740e-013
-5.732401e-013
-7.377261e-013
-4.605429e-013
2.060717e-013
9.104830e-013
1.190716e-012
7.614306e-013
-2.945279e-013
-1.546246e-012
-2.412169e-012
-2.405712e-012
-1.301310e-012
8.338859e-013
3.739192e-012
7.107188e-012
1.071262e-011
1.447390e-011
1.845302e-011
2.280237e-011
2.768561e-011
3.320706e-011
3.936984e-011
4.606073e-011
5.305937e-011
6.006096e-011
6.671226e-011
7.265152e-011
7.754598e-011
8.111582e-011
8.315684e-011
8.355638e-011
8.229794e-011
7.945576e-011
7.518510e-011
6.971236e-011
6.331248e-011
5.628643e-011
4.893993e-011
4.156709e-011
3.443322e-011
2.776060e-011
2.172147e-011
1.643797e-011
1.197504e-011
8.337503e-012
5.476783e-012
3.299729e-012
1.691976e-012
5.465135e-013
-2.044205e-013
-5.903486e-013
-6.317957e-013
-3.895220e-013
-3.541917e-015
3.264142e-013
4.258384e-013
2.509323e-013
-7.438260e-014
-3.418026e-013
-3.989244e-013
-2.459645e-013
-1.968070e-014
1.257492e-013
1.326636e-013
5.354523e-014
-2.141456e-014
-4.598691e-014
-2.999125e-014
-6.059217e-015
5.206294e-015
5.926854e-015
4.641858e-015
5.260937e-015
3.417794e-015
-2.706864e-015
-7.022206e-015
-4.937068e-015
2.164239e-015
6.811347e-015
5.156203e-015
-1.253600e-015
-6.357373e-015
1.588048e-014
-1.449624e-015
-1.817691e-014
-1.739997e-014
1.864376e-016
2.016265e-014
2.838632e-014
1.983348e-014
-4.925142e-015
-4.177739e-014
-7.569449e-014
-6.604465e-014
2.790623e-014
1.799699e-013
2.566757e-013
9.439992e-014
-3.242350e-013
-7.533857e-013
-7.954978e-013
-2.233967e-013
7.413557e-013
1.470943e-012
1.321217e-012
1.048989e-013
-1.698022e-012
-3.153285e-012
-3.348434e-012
-1.826941e-012
1.272347e-012
5.384410e-012
9.856305e-012
1.426736e-011
1.859660e-011
2.320126e-011
2.866418e-011
3.559308e-011
4.444613e-011
5.541723e-011
6.839976e-011
8.301563e-011
9.867918e-011
1.146739e-010
1.302263e-010
1.445725e-010
1.570147e-010
1.669624e-010
1.739583e-010
1.776979e-010
1.780432e-010
1.750250e-010
1.688333e-010
1.598023e-010
1.483909e-010
1.351518e-010
1.206884e-010
1.056156e-010
9.052051e-011
7.592427e-011
6.225450e-011
4.983339e-011
3.887760e-011
2.950251e-011
2.172875e-011
1.549052e-011
1.063868e-011
6.947301e-012
4.152053e-012
2.016591e-012
4.046379e-013
-6.888518e-013
-1.185497e-012
-1.056611e-012
-4.579428e-013
2.531867e-013
6.771881e-013
6.063372e-013
1.596882e-013
-3.166285e-013
-5.106937e-013
-3.660989e-013
-7.180914e-014
1.357629e-013
1.601548e-013
6.840184e-014
-2.248987e-014
-5.221023e-014
-3.471273e-014
-8.577169e-015
5.776584e-015
1.011708e-014
1.081812e-014
7.849362e-015
-2.385697e-016
-7.844248e-015
-7.791989e-015
-7.420732e-016
6.326925e-015
6.595807e-015
7.350439e-016
-5.587373e-015
5.643878e-015
-3.097177e-015
-1.066209e-014
-8.918692e-015
3.405217e-015
1.867512e-014
2.533993e-014
1.068520e-014
-3.088007e-014
-7.858107e-014
-7.642871e-014
2.902036e-014
2.047693e-013
2.818737e-013
5.963216e-014
-4.592748e-013
-9.194388e-013
-7.995543e-013
1.094578e-013
1.338012e-012
1.910146e-012
1.044194e-012
-1.139623e-012
-3.500440e-012
-4.479658e-012
-3.006364e-012
9.222960e-013
6.333840e-012
1.191934e-011
1.678972e-011
2.093672e-011
2.524561e-011
3.115160e-011
4.015480e-011
5.340164e-011
7.145097e-011
9.422618e-011
1.211034e-010
1.510680e-010
1.828773e-010
2.152007e-010
2.467162e-010
2.761750e-010
3.024478e-010
3.245594e-010
3.417133e-010
3.533073e-010
3.589494e-010
3.584726e-010
3.519411e-010
3.396488e-010
3.221124e-010
3.000611e-010
2.744073e-010
2.462015e-010
2.165704e-010
1.866484e-010
1.574952e-010
1.300211e-010
1.049346e-010
8.271422e-011
6.361254e-011
4.768959e-011
3.485489e-011
2.488951e-011
1.743803e-011
1.200403e-011
7.992001e-012
4.829142e-012
2.148511e-012
-6.708354e-014
-1.531261e-012
-1.933416e-012
-1.295047e-012
-1.225322e-013
8.239238e-013
1.012186e-012
4.863557e-013
-2.330320e-013
-6.099843e-013
-4.946679e-013
-1.316692e-013
1.427091e-013
1.860863e-013
8.028187e-014
-2.566723e-014
-5.820501e-014
-3.580647e-014
-5.041368e-015
1.106185e-014
1.317843e-014
8.330964e-015
9.505833e-016
-5.434066e-015
-6.998570e-015
-2.699275e-015
2.914507e-015
4.794080e-015
1.449967e-015
-3.188684e-015
-6.662901e-015
-2.137008e-015
2.382597e-015
4.446051e-015
7.186914e-015
1.198017e-014
8.705665e-015
-1.936173e-014
-6.665029e-014
-7.709202e-014
2.169701e-014
2.110633e-013
3.019093e-013
4.629344e-014
-5.560002e-013
-1.049121e-012
-7.729577e-013
4.653280e-013
1.899525e-012
2.155012e-012
3.717657e-013
-2.798394e-012
-5.293664e-012
-4.915523e-012
-8.244506e-013
5.888941e-012
1.294530e-011
1.837092e-011
2.175534e-011
2.459623e-011
2.970431e-011
4.014698e-011
5.828716e-011
8.526455e-011
1.209580e-010
1.642759e-010
2.135512e-010
2.668825e-010
3.223506e-010
3.781188e-010
4.324620e-010
4.837687e-010
5.305508e-010
5.714690e-010
6.053732e-010
6.313322e-010
6.486506e-010
6.568706e-010
6.557708e-010
6.453615e-010
6.258860e-010
5.978374e-010
5.619876e-010
5.194071e-010
4.714665e-010
4.198046e-010
3.662553e-010
3.127255e-010
2.610448e-010
2.128111e-010
1.692566e-010
1.311690e-010
9.890022e-011
7.245168e-011
5.158375e-011
3.588569e-011
2.475503e-011
1.731569e-011
1.239207e-011
8.690440e-012
5.218679e-012
1.721839e-012
-1.238170e-012
-2.767011e-012
-2.446599e-012
-8.382089e-013
7.997970e-013
1.409555e-012
8.641143e-013
-1.147342e-013
-6.978275e-013
-6.116328e-013
-1.742344e-013
1.611703e-013
2.100780e-013
8.413534e-014
-3.252741e-014
-6.068089e-014
-3.144820e-014
4.123853e-016
1.172885e-014
8.711086e-015
2.845335e-015
-1.194619e-015
-3.247014e-015
-2.915465e-015
-1.202425e-015
9.343202e-016
1.077001e-015
3.486342e-016
-1.873463e-014
-8.398682e-016
1.586552e-014
1.984606e-014
1.261942e-014
3.143734e-016
-2.413764e-014
-6.266520e-014
-7.500580e-014
1.322961e-014
2.043653e-013
3.122001e-013
5.204751e-014
-6.044252e-013
-1.134537e-012
-7.395094e-013
7.824249e-013
2.370832e-012
2.223279e-012
-5.542268e-013
-4.587425e-012
-6.695260e-012
-4.140162e-012
3.134104e-012