# vtk DataFile Version 3.0
vtk output
ASCII
DATASET STRUCTURED_POINTS
DIMENSIONS 100 100 1
SPACING 1 1 1
ORIGIN 0 0 0
POINT_DATA 10000
SCALARS SFBox_profile double
LOOKUP_TABLE default 
0.000000e+000
0.000000e+000
0.000000e+000
0.000000e+000
0.000000e+000
0.000000e+000
0.000000e+000
0.000000e+000
0.000000e+000
0.000000e+000
0.000000e+000
0.000000e+000
0.000000e+000
0.000000e+000
0.000000e+000
0.000000e+000
0.000000e+000
0.000000e+000
0.000000e+000
0.000000e+000
0.000000e+000
0.000000e+000
0.000000e+000
0.000000e+000
0.000000e+000
0.000000e+000
0.000000e+000
0.000000e+000
0.000000e+000
0.000000e+000
0.000000e+000
0.000000e+000
0.000000e+000
0.000000e+000
0.000000e+000
0.000000e+000
0.000000e+000
0.000000e+000
0.000000e+000
0.000000e+000
0.000000e+000
0.000000e+000
0.000000e+000
0.000000e+000
0.000000e+000
0.000000e+000
0.000000e+000
0.000000e+000
0.000000e+000
0.000000e+000
0.000000e+000
0.000000e+000
0.000000e+000
0.000000e+000
0.000000e+000
0.000000e+000
0.000000e+000
0.000000e+000
0.000000e+000
0.000000e+000
0.000000e+000
0.000000e+000
0.000000e+000
0.000000e+000
0.000000e+000
0.000000e+000
0.000000e+000
0.000000e+000
0.000000e+000
0.000000e+000
0.000000e+000
0.000000e+000
0.000000e+000
0.000000e+000
0.000000e+000
0.000000e+000
0.000000e+000
0.000000e+000
0.000000e+000
0.000000e+000
0.000000e+000
0.000000e+000
0.000000e+000
0.000000e+000
0.000000e+000
0.000000e+000
0.000000e+000
0.000000e+000
0.000000e+000
0.000000e+000
0.000000e+000
0.000000e+000
0.000000e+000
0.000000e+000
0.000000e+000
0.000000e+000
0.000000e+000
0.000000e+000
0.000000e+000
0.000000e+000
-1.631738e-014
-1.625623e-014
-1.590018e-014
-1.602617e-014
-1.637593e-014
-1.635858e-014
-1.511609e-014
-1.336662e-014
-1.115615e-014
-7.318072e-015
-2.757701e-015
3.795868e-015
1.213512e-014
2.217288e-014
3.343297e-014
4.451590e-014
5.600562e-014
6.945060e-014
8.285828e-014
9.496253e-014
1.064241e-013
1.148331e-013
1.213683e-013
1.256437e-013
1.266861e-013
1.235477e-013
1.158948e-013
1.044836e-013
8.877390e-014
6.822567e-014
4.385367e-014
1.573489e-014
-1.577745e-014
-4.962407e-014
-8.542530e-014
-1.221787e-013
-1.585797e-013
-1.939244e-013
-2.277858e-013
-2.599749e-013
-2.890515e-013
-3.153959e-013
-3.383308e-013
-3.576886e-013
-3.743322e-013
-3.863617e-013
-3.953460e-013
-4.019156e-013
-4.068513e-013
-4.078547e-013
-4.059246e-013
-4.017873e-013
-3.949514e-013
-3.855351e-013
-3.734636e-013
-3.583600e-013
-3.402720e-013
-3.193111e-013
-2.962809e-013
-2.714514e-013
-2.437255e-013
-2.141645e-013
-1.853128e-013
-1.584138e-013
-1.314670e-013
-1.046410e-013
-7.957342e-014
-5.773954e-014
-3.960648e-014
-2.437821e-014
-1.235159e-014
-2.633234e-015
4.950109e-015
9.502241e-015
1.182265e-014
1.333121e-014
1.379416e-014
1.292355e-014
1.080827e-014
8.683017e-015
7.363977e-015
6.406410e-015
4.363773e-015
3.263524e-015
2.583296e-015
6.783528e-016
3.737247e-017
1.852576e-016
2.739781e-017
-8.182799e-016
-1.320265e-015
-1.160454e-015
-9.323380e-016
-9.000287e-016
-8.293387e-016
-2.282571e-016
3.641510e-016
5.927008e-016
1.002562e-016
-4.355565e-016
-1.754145e-014
-1.766093e-014
-1.708608e-014
-1.650257e-014
-1.588153e-014
-1.509614e-014
-1.327685e-014
-1.086493e-014
-7.632924e-015
-2.691781e-015
3.465186e-015
1.152536e-014
2.100281e-014
3.132354e-014
4.348331e-014
5.545463e-014
6.803311e-014
8.167953e-014
9.388808e-014
1.044014e-013
1.135540e-013
1.200549e-013
1.231336e-013
1.227743e-013
1.181998e-013
1.087631e-013
9.480987e-014
7.636824e-014
5.328666e-014
2.579173e-014
-4.993976e-015
-3.806214e-014
-7.234830e-014
-1.066785e-013
-1.405531e-013
-1.721177e-013
-2.004594e-013
-2.245317e-013
-2.439216e-013
-2.587283e-013
-2.686971e-013
-2.739047e-013
-2.752027e-013
-2.731354e-013
-2.696291e-013
-2.642421e-013
-2.585383e-013
-2.546751e-013
-2.532299e-013
-2.528322e-013
-2.549845e-013
-2.596165e-013
-2.655891e-013
-2.717363e-013
-2.778903e-013
-2.833269e-013
-2.856560e-013
-2.849011e-013
-2.803325e-013
-2.726946e-013
-2.594031e-013
-2.418089e-013
-2.209068e-013
-1.981554e-013
-1.729597e-013
-1.465691e-013
-1.204424e-013
-9.559468e-014
-7.276052e-014
-5.284936e-014
-3.607068e-014
-2.147970e-014
-9.743866e-015
-1.396593e-015
4.007070e-015
8.028376e-015
1.004955e-014
1.119468e-014
1.030282e-014
9.273474e-015
8.438205e-015
7.300009e-015
5.550757e-015
3.709348e-015
2.753299e-015
1.461147e-015
4.051338e-016
2.342636e-016
-8.167293e-017
-5.051623e-016
-9.286517e-016
-4.511690e-016
-3.028175e-017
1.624894e-016
-3.139090e-016
-4.915013e-016
-3.221490e-016
1.492621e-016
3.116756e-016
-2.293413e-016
-1.859789e-014
-1.864864e-014
-1.820802e-014
-1.707199e-014
-1.539625e-014
-1.344967e-014
-9.752756e-015
-4.908324e-015
5.309013e-016
7.821294e-015
1.677680e-014
2.760126e-014
3.941863e-014
5.180195e-014
6.506413e-014
7.848590e-014
9.197013e-014
1.048325e-013
1.149710e-013
1.217870e-013
1.258571e-013
1.254780e-013
1.201960e-013
1.091578e-013
9.279651e-014
7.068334e-014
4.400264e-014
1.223031e-014
-2.332892e-014
-6.101102e-014
-9.796193e-014
-1.326618e-013
-1.624561e-013
-1.855390e-013
-1.993160e-013
-2.014980e-013
-1.911413e-013
-1.675590e-013
-1.304843e-013
-8.174703e-014
-2.259687e-014
4.440097e-014
1.159460e-013
1.876679e-013
2.552419e-013
3.161506e-013
3.660233e-013
4.013227e-013
4.205337e-013
4.227763e-013
4.068654e-013
3.737922e-013
3.265429e-013
2.673355e-013
1.999677e-013
1.271213e-013
5.391853e-014
-1.554131e-014
-7.820928e-014
-1.320382e-013
-1.742509e-013
-2.040292e-013
-2.205889e-013
-2.253258e-013
-2.203196e-013
-2.065782e-013
-1.865994e-013
-1.625472e-013
-1.360849e-013
-1.097045e-013
-8.470604e-014
-6.207072e-014
-4.195269e-014
-2.597806e-014
-1.389593e-014
-4.825491e-015
2.152434e-015
6.903408e-015
8.473333e-015
8.954285e-015
8.909399e-015
8.199246e-015
6.672473e-015
4.872914e-015
3.987121e-015
2.564865e-015
1.420814e-015
9.283698e-016
3.953760e-016
1.145677e-016
-6.493612e-016
-4.778404e-016
2.728612e-016
6.770518e-016
2.783149e-017
-1.052468e-015
-1.124892e-015
-5.606734e-016
-3.325573e-016
-6.159678e-016
-2.018517e-014
-1.963027e-014
-1.845500e-014
-1.665587e-014
-1.357067e-014
-9.566490e-015
-3.060627e-015
5.207065e-015
1.403182e-014
2.513644e-014
3.791571e-014
5.197911e-014
6.731841e-014
8.296778e-014
9.817957e-014
1.123631e-013
1.252001e-013
1.347645e-013
1.397986e-013
1.390995e-013
1.331139e-013
1.197712e-013
9.935766e-014
7.143317e-014
3.665305e-014
-4.382920e-015
-4.892195e-014
-9.507405e-014
-1.393776e-013
-1.773032e-013
-2.030252e-013
-2.120794e-013
-1.995645e-013
-1.609469e-013
-9.087211e-014
1.465285e-014
1.562286e-013
3.328285e-013
5.418271e-013
7.784223e-013
1.036500e-012
1.306599e-012
1.578206e-012
1.840069e-012
2.080144e-012
2.289256e-012
2.457130e-012
2.574678e-012
2.636621e-012
2.640505e-012
2.585412e-012
2.473932e-012
2.311920e-012
2.106978e-012
1.868907e-012
1.608097e-012
1.336678e-012
1.066252e-012
8.080128e-013
5.693821e-013
3.580188e-013
1.788433e-013
3.534073e-014
-7.342817e-014
-1.496380e-013
-1.961800e-013
-2.177101e-013
-2.196092e-013
-2.065532e-013
-1.834675e-013
-1.552015e-013
-1.257650e-013
-9.652948e-014
-7.003808e-014
-4.780739e-014
-2.972550e-014
-1.530040e-014
-4.436263e-015
1.711381e-015
5.374900e-015
7.806765e-015
8.277309e-015
8.068708e-015
7.228235e-015
6.386027e-015
5.086502e-015
3.729948e-015
2.644445e-015
2.009536e-015
8.644019e-016
-4.192935e-016
-9.598767e-016
-1.252579e-016
4.602113e-016
1.947986e-016
-9.837291e-016
-1.130313e-015
-3.139090e-016
-2.208845e-016
-7.833686e-016
-2.094953e-014
-1.962572e-014
-1.705182e-014
-1.296351e-014
-8.074411e-015
-1.175416e-015
8.757611e-015
2.133501e-014
3.521887e-014
5.043976e-014
6.733792e-014
8.571927e-014
1.049732e-013
1.236824e-013
1.401200e-013
1.530693e-013
1.609070e-013
1.630463e-013
1.575225e-013
1.435278e-013
1.196875e-013
8.575808e-014
4.255002e-014
-8.976034e-015
-6.643051e-014
-1.259964e-013
-1.818562e-013
-2.261183e-013
-2.500254e-013
-2.436605e-013
-1.942814e-013
-9.001256e-014
7.926588e-014
3.244591e-013
6.541947e-013
1.073320e-012
1.581715e-012
2.174135e-012
2.840427e-012
3.566920e-012
4.333171e-012
5.115660e-012
5.887192e-012
6.618515e-012
7.282046e-012
7.851577e-012
8.303230e-012
8.616660e-012
8.778345e-012
8.781498e-012
8.625573e-012
8.317572e-012
7.869796e-012
7.301929e-012
6.638338e-012
5.905811e-012
5.133613e-012
4.351308e-012
3.586481e-012
2.862446e-012
2.199800e-012
1.613767e-012
1.113356e-012
7.020195e-013
3.773076e-013
1.344752e-013
-3.590610e-014
-1.451345e-013
-2.045997e-013
-2.257833e-013
-2.209798e-013
-2.001378e-013
-1.694792e-013
-1.348619e-013
-1.017319e-013
-7.258097e-014
-4.749253e-014
-2.728062e-014
-1.287699e-014
-2.786757e-015
3.657740e-015
7.369832e-015
8.936504e-015
8.972283e-015
8.548576e-015
7.370482e-015
5.800341e-015
4.416899e-015
3.191533e-015
1.969854e-015
7.687753e-016
-2.033204e-016
-4.214619e-016
3.672195e-017
-1.243905e-016
-1.074368e-015
-5.071139e-016
3.183977e-016
5.452128e-016
-4.893002e-017
-2.049416e-014
-1.795323e-014
-1.306283e-014
-6.065602e-015
2.715786e-015
1.367403e-014
2.831683e-014
4.637878e-014
6.598505e-014
8.665125e-014
1.084389e-013
1.311302e-013
1.529079e-013
1.720465e-013
1.860227e-013
1.928365e-013
1.904786e-013
1.778958e-013
1.537872e-013
1.168638e-013
6.636583e-014
3.019145e-015
-6.895085e-014
-1.450365e-013
-2.174985e-013
-2.754005e-013
-3.033265e-013
-2.834052e-013
-1.939819e-013
-1.133851e-014
2.915791e-013
7.403044e-013
1.358747e-012
2.166687e-012
3.177957e-012
4.398325e-012
5.822626e-012
7.433212e-012
9.202441e-012
1.109200e-011
1.305203e-011
1.502442e-011
1.694572e-011
1.875023e-011
2.037301e-011
2.175406e-011
2.283981e-011
2.358668e-011
2.396433e-011
2.395776e-011
2.356568e-011
2.280411e-011
2.170164e-011
2.030239e-011
1.866056e-011
1.683814e-011
1.490283e-011
1.292206e-011
1.096095e-011
9.078025e-012
7.323882e-012
5.737801e-012
4.345356e-012
3.160190e-012
2.184703e-012
1.409940e-012
8.195767e-013
3.904438e-013
9.716671e-014
-8.686382e-014
-1.881482e-013
-2.300830e-013
-2.315406e-013
-2.082374e-013
-1.740911e-013
-1.355057e-013
-9.887569e-014
-6.657059e-014
-4.054627e-014
-2.102347e-014
-7.024253e-015
1.810043e-015
7.600116e-015
9.921393e-015
1.032970e-014
9.281714e-015
7.842110e-015
6.169186e-015
4.647183e-015
3.923370e-015
3.028903e-015
1.161690e-015
-5.023107e-017
-1.614702e-016
-4.461817e-016
-8.729237e-016
-1.202087e-015
-5.196906e-016
-1.222221e-016
-4.474827e-016
-1.498533e-014
-1.137320e-014
-4.064381e-015
6.465824e-015
2.016992e-014
3.652121e-014
5.750117e-014
8.195709e-014
1.080233e-013
1.345862e-013
1.612461e-013
1.864768e-013
2.080266e-013
2.223773e-013
2.275453e-013
2.207764e-013
1.994304e-013
1.621711e-013
1.075722e-013
3.626382e-014
-5.010264e-014
-1.463943e-013
-2.417057e-013
-3.214414e-013
-3.660363e-013
-3.471628e-013
-2.296647e-013
2.836627e-014
4.760767e-013
1.166659e-012
2.155797e-012
3.497308e-012
5.237688e-012
7.413152e-012
1.004457e-011
1.313360e-011
1.665795e-011
2.057090e-011
2.480155e-011
2.925686e-011
3.382245e-011
3.836878e-011
4.275669e-011
4.684499e-011
5.049571e-011
5.358083e-011
5.598922e-011
5.763184e-011
5.844703e-011
5.840272e-011
5.749894e-011
5.576698e-011
5.326911e-011
5.009682e-011
4.636323e-011
4.220045e-011
3.775158e-011
3.316398e-011
2.857986e-011
2.413202e-011
1.993569e-011
1.608382e-011
1.264300e-011
9.654488e-012
7.132999e-012
5.069413e-012
3.434659e-012
2.185051e-012
1.268375e-012
6.276705e-013
2.059868e-013
-4.895144e-014
-1.835885e-013
-2.359882e-013
-2.373955e-013
-2.096534e-013
-1.689871e-013
-1.265732e-013
-8.741654e-014
-5.502665e-014
-2.982806e-014
-1.189579e-014
-2.182497e-017
7.004456e-015
1.006776e-014
1.096808e-014
1.010766e-014
8.466394e-015
7.024188e-015
6.278257e-015
4.996513e-015
2.723592e-015
1.002529e-015
1.811377e-016
-3.035007e-016
-5.613240e-016
-9.373253e-016
-1.226807e-015
-1.021026e-015
-1.204690e-015
-1.498291e-015
3.391027e-015
1.326182e-014
2.810064e-014
4.759482e-014
7.117253e-014
9.924968e-014
1.303982e-013
1.626441e-013
1.942525e-013
2.234134e-013
2.479632e-013
2.632344e-013
2.659481e-013
2.527497e-013
2.209084e-013
1.676004e-013
9.134346e-014
-6.649770e-015
-1.207419e-013
-2.423792e-013
-3.554567e-013
-4.332699e-013
-4.389275e-013
-3.246474e-013
-2.522324e-014
5.383392e-013
1.459091e-012
2.841006e-012
4.796675e-012
7.437082e-012
1.086658e-011
1.517125e-011
2.041081e-011
2.660968e-011
3.374896e-011
4.176104e-011
5.052843e-011
5.988571e-011
6.962441e-011
7.949944e-011
8.923951e-011
9.856061e-011
1.071775e-010
1.148175e-010
1.212306e-010
1.262032e-010
1.295655e-010
1.312001e-010
1.310485e-010
1.291118e-010
1.254516e-010
1.201893e-010
1.135005e-010
1.056062e-010
9.676487e-011
8.726104e-011
7.738966e-011
6.744441e-011
5.770255e-011
4.841121e-011
3.977675e-011
3.195752e-011
2.505998e-011
1.913555e-011
1.418615e-011
1.016831e-011
7.005835e-012
4.599503e-012
2.834375e-012
1.593442e-012
7.639632e-013
2.438864e-013
-5.290097e-014
-1.974787e-013
-2.450329e-013
-2.363929e-013
-2.003956e-013
-1.541804e-013
-1.087372e-013
-6.953219e-014
-3.862202e-014
-1.684105e-014
-2.131682e-015
6.618263e-015
1.114199e-014
1.229927e-014
1.136121e-014
1.019873e-014
8.750672e-015
6.755956e-015
4.619861e-015
2.820303e-015
1.423850e-015
3.940750e-016
5.537023e-017
-5.595892e-016
-1.397027e-015
-1.423048e-015
-1.430420e-015
2.259572e-014
2.966537e-014
4.321356e-014
6.317675e-014
8.930754e-014
1.207414e-013
1.565183e-013
1.938602e-013
2.308003e-013
2.647386e-013
2.919018e-013
3.080514e-013
3.082917e-013
2.877382e-013
2.428126e-013
1.698859e-013
6.807756e-014
-6.059078e-014
-2.078963e-013
-3.581989e-013
-4.840296e-013
-5.435016e-013
-4.755631e-013
-1.952116e-013
4.087018e-013
1.475775e-012
3.176436e-012
5.704801e-012
9.272918e-012
1.410046e-011
2.040022e-011
2.836029e-011
3.812397e-011
4.977371e-011
6.331320e-011
7.865725e-011
9.562479e-011
1.139401e-010
1.332400e-010
1.530888e-010
1.729923e-010
1.924231e-010
2.108408e-010
2.277175e-010
2.425574e-010
2.549163e-010
2.644209e-010
2.707804e-010
2.737970e-010
2.733739e-010
2.695180e-010
2.623397e-010
2.520526e-010
2.389643e-010
2.234655e-010
2.060188e-010
1.871401e-010
1.673758e-010
1.472813e-010
1.273966e-010
1.082175e-010
9.017631e-011
7.362237e-011
5.880896e-011
4.588654e-011
3.490473e-011
2.582081e-011
1.851661e-011
1.281746e-011
8.511233e-012
5.368608e-012
3.163317e-012
1.683658e-012
7.447956e-013
1.920730e-013
-9.998548e-014
-2.247850e-013
-2.517532e-013
-2.270819e-013
-1.801772e-013
-1.291761e-013
-8.364872e-014
-4.760204e-014
-2.088318e-014
-2.629982e-015
7.664084e-015
1.286782e-014
1.440175e-014
1.352615e-014
1.159237e-014
9.259596e-015
7.144751e-015
5.040749e-015
3.158357e-015
1.524898e-015
6.215406e-016
-1.855395e-016
-1.008015e-015
-1.120989e-015
-6.187867e-016
6.085548e-014
7.047365e-014
8.866548e-014
1.150565e-013
1.482493e-013
1.874010e-013
2.294318e-013
2.712382e-013
3.097545e-013
3.406547e-013
3.574860e-013
3.539663e-013
3.243071e-013
2.639968e-013
1.691239e-013
3.764661e-014
-1.269262e-013
-3.112987e-013
-4.913241e-013
-6.256759e-013
-6.471017e-013
-4.574237e-013
7.984159e-014
1.150594e-012
2.991090e-012
5.894215e-012
1.020275e-011
1.630207e-011
2.459828e-011
3.549861e-011
4.937647e-011
6.653653e-011
8.717743e-011
1.113625e-010
1.389928e-010
1.697950e-010
2.033199e-010
2.389544e-010
2.759475e-010
3.134439e-010
3.505215e-010
3.862355e-010
4.196586e-010
4.499155e-010
4.762148e-010
4.978723e-010
5.143327e-010
5.251760e-010
5.301282e-010
5.290646e-010
5.220106e-010
5.091398e-010
4.907741e-010
4.673761e-010
4.395406e-010
4.079863e-010
3.735351e-010
3.370872e-010
2.995899e-010
2.620012e-010
2.252442e-010
1.901645e-010
1.574867e-010
1.277830e-010
1.014464e-010
7.868414e-011
5.951981e-011
4.381793e-011
3.131245e-011
2.164477e-011
1.440322e-011
9.159581e-012
5.501885e-012
3.056556e-012
1.501856e-012
5.739752e-013
6.785769e-014
-1.713379e-013
-2.519078e-013
-2.468524e-013
-2.032074e-013
-1.485777e-013
-9.738665e-014
-5.478314e-014
-2.386603e-014
-3.584730e-015
8.594547e-015
1.462011e-014
1.606578e-014
1.477992e-014
1.260046e-014
1.022714e-014
7.791370e-015
4.959433e-015
2.935879e-015
1.131766e-015
3.674036e-016
-7.603835e-016
-7.918254e-016
-2.377980e-016
1.194837e-013
1.319173e-013
1.543898e-013
1.870321e-013
2.275956e-013
2.729788e-013
3.191894e-013
3.614089e-013
3.946655e-013
4.124555e-013
4.056469e-013
3.661325e-013
2.877267e-013
1.667289e-013
1.922150e-015
-2.028021e-013
-4.298041e-013
-6.420282e-013
-7.772436e-013
-7.378982e-013
-3.735230e-013
5.304488e-013
2.265807e-012
5.215930e-012
9.861112e-012
1.677907e-011
2.662977e-011
4.012916e-011
5.800466e-011
8.094219e-011
1.095201e-010
1.441397e-010
1.849611e-010
2.318565e-010
2.843803e-010
3.417691e-010
4.029673e-010
4.666792e-010
5.314405e-010
5.956984e-010
6.578946e-010
7.165401e-010
7.702789e-010
8.179299e-010
8.585119e-010
8.912530e-010
9.155859e-010
9.311317e-010
9.376801e-010
9.351729e-010
9.236888e-010
9.034374e-010
8.747631e-010
8.381548e-010
7.942615e-010
7.439083e-010
6.881072e-010
6.280524e-010
5.651018e-010
5.007368e-010
4.365001e-010
3.739151e-010
3.143999e-010
2.591810e-010
2.092217e-010
1.651723e-010
1.273463e-010
9.573568e-011
7.004904e-011
4.977313e-011
3.424465e-011
2.272264e-011
1.445692e-011
8.740454e-012
4.944931e-012
2.540924e-012
1.103604e-012
3.077901e-013
-8.361143e-014
-2.355268e-013
-2.591193e-013
-2.229260e-013
-1.655288e-013
-1.082098e-013
-6.145619e-014
-2.727650e-014
-4.027952e-015
9.844848e-015
1.601092e-014
1.731999e-014
1.618613e-014
1.431697e-014
1.111098e-014
7.782913e-015
5.280140e-015
2.678055e-015
1.138705e-015
-3.958747e-016
-1.303569e-015
-1.526264e-015
2.040031e-013
2.181240e-013
2.447696e-013
2.827943e-013
3.287766e-013
3.775559e-013
4.229825e-013
4.577895e-013
4.747343e-013
4.644315e-013
4.158751e-013
3.192703e-013
1.688997e-013
-3.504177e-014
-2.848944e-013
-5.586746e-013
-8.066227e-013
-9.401422e-013
-8.171906e-013
-2.216360e-013
1.164577e-012
3.784588e-012
8.230369e-012
1.525869e-011
2.579378e-011
4.091385e-011
6.180746e-011
8.970445e-011
1.257762e-010
1.710179e-010
2.261167e-010
2.913296e-010
3.663828e-010
4.504177e-010
5.419899e-010
6.391330e-010
7.394782e-010
8.404157e-010
9.392843e-010
1.033556e-009
1.121000e-009
1.199798e-009
1.268621e-009
1.326634e-009
1.373458e-009
1.409089e-009
1.433787e-009
1.447956e-009
1.452027e-009
1.446360e-009
1.431182e-009
1.406561e-009
1.372431e-009
1.328659e-009
1.275148e-009
1.211962e-009
1.139454e-009
1.058381e-009
9.699659e-010
8.759180e-010
7.783741e-010
6.797773e-010
5.827063e-010
4.896714e-010
4.029155e-010
3.242395e-010
2.548841e-010
1.954794e-010
1.460650e-010
1.061681e-010
7.492245e-011
5.120590e-011
3.377944e-011
2.140481e-011
1.293236e-011
7.358936e-012
3.855741e-012
1.770178e-012
6.139601e-013
3.580433e-014
-2.048617e-013
-2.642137e-013
-2.370720e-013
-1.786211e-013
-1.177003e-013
-6.631732e-014
-2.805604e-014
-2.902550e-015
1.138854e-014
1.781894e-014
1.903932e-014
1.788269e-014
1.508892e-014
1.160147e-014
8.318292e-015
4.919752e-015
2.590885e-015
4.901353e-016
-8.089557e-016
-1.581125e-015
3.175972e-013
3.335891e-013
3.631519e-013
4.042498e-013
4.518040e-013
4.981348e-013
5.343365e-013
5.501167e-013
5.339749e-013
4.746996e-013
3.595311e-013
1.802502e-013
-6.596257e-014
-3.673751e-013
-6.934491e-013
-9.818417e-013
-1.113712e-012
-8.946328e-013
-2.059391e-014
1.957736e-012
5.682720e-012
1.202845e-011
2.213443e-011
3.741820e-011
5.955632e-011
9.042577e-011
1.319843e-010
1.861006e-010
2.543342e-010
3.376850e-010
4.363463e-010
5.495019e-010
6.752050e-010
8.103791e-010
9.509557e-010
1.092155e-009
1.228871e-009
1.356128e-009
1.469541e-009
1.565724e-009
1.642583e-009
1.699469e-009
1.737168e-009
1.757744e-009
1.764243e-009
1.760304e-009
1.749729e-009
1.736035e-009
1.722056e-009
1.709621e-009
1.699342e-009
1.690544e-009
1.681346e-009
1.668887e-009
1.649685e-009
1.620094e-009
1.576799e-009
1.517306e-009
1.440334e-009
1.346074e-009
1.236256e-009
1.114018e-009
9.835947e-010
8.498594e-010
7.178113e-010
5.920730e-010
4.764714e-010
3.737642e-010
2.855258e-010
2.121887e-010
1.532111e-010
1.073171e-010
7.277141e-011
4.763441e-011
2.997424e-011
1.801698e-011
1.023755e-011
5.397480e-012
2.541839e-012
9.646182e-013
1.725628e-013
-1.664143e-013
-2.641651e-013
-2.474641e-013
-1.885314e-013
-1.231185e-013
-6.699169e-014
-2.634604e-014
-3.915379e-016
1.418708e-014
2.040715e-014
2.166742e-014
1.949230e-014
1.561953e-014
1.189464e-014
8.046591e-015
4.742810e-015
2.764141e-015
9.606790e-016
-3.952242e-016
4.649986e-013
4.819145e-013
5.126698e-013
5.524494e-013
5.947711e-013
6.287085e-013
6.421847e-013
6.203407e-013
5.488614e-013
4.137227e-013
2.031709e-013
-8.593162e-014
-4.428670e-013
-8.300081e-013
-1.165863e-012
-1.302433e-012
-9.838963e-013
1.939066e-013
2.846961e-012
7.864807e-012
1.648482e-011
3.034912e-011
5.153594e-011
8.254201e-011
1.261878e-010
1.854290e-010
2.630538e-010
3.612774e-010
4.812619e-010
6.226128e-010
7.829366e-010
9.575568e-010
1.139470e-009
1.319615e-009
1.487472e-009
1.631955e-009
1.742514e-009
1.810288e-009
1.829184e-009
1.796716e-009
1.714478e-009
1.588216e-009
1.427458e-009
1.244771e-009
1.054720e-009
8.726198e-010
7.132218e-010
5.894312e-010
5.111705e-010
4.844814e-010
5.109464e-010
5.874885e-010
7.065861e-010
8.569033e-010
1.024305e-009
1.193170e-009
1.347887e-009
1.474378e-009
1.561458e-009
1.601868e-009
1.592855e-009
1.536193e-009
1.437678e-009
1.306177e-009
1.152380e-009
9.874760e-010
8.219264e-010
6.645196e-010
5.217859e-010
3.978002e-010
2.943220e-010
2.111785e-010
1.467827e-010
9.867340e-011
6.400190e-011
3.991021e-011
2.379223e-011
1.343541e-011
7.070650e-012
3.356541e-012
1.325839e-012
3.107550e-013
-1.274095e-013
-2.616407e-013
-2.548581e-013
-1.944264e-013
-1.247530e-013
-6.604453e-014
-2.368454e-014
3.197388e-015
1.751341e-014
2.332300e-014
2.360489e-014
2.027878e-014
1.615187e-014
1.214010e-014
8.104270e-015
4.971793e-015
2.799269e-015
1.108998e-015
6.498206e-013
6.656167e-013
6.930145e-013
7.252734e-013
7.516679e-013
7.588208e-013
7.294565e-013
6.458738e-013
4.900614e-013
2.476286e-013
-8.734108e-014
-5.029672e-013
-9.578316e-013
-1.354874e-012
-1.510707e-012
-1.107441e-012
3.740520e-013
3.735379e-012
1.016408e-011
2.134009e-011
3.953382e-011
6.766693e-011
1.092979e-010
1.684806e-010
2.494559e-010
3.561281e-010
4.913251e-010
6.558696e-010
8.475528e-010
1.060163e-009
1.282760e-009
1.499415e-009
1.689600e-009
1.829337e-009
1.893098e-009
1.856303e-009
1.698139e-009
1.404349e-009
9.695881e-010
3.990353e-010
-2.909989e-010
-1.073539e-009
-1.912451e-009
-2.764828e-009
-3.584009e-009
-4.322969e-009
-4.937773e-009
-5.390865e-009
-5.653925e-009
-5.710114e-009
-5.555522e-009
-5.199680e-009
-4.665065e-009
-3.985550e-009
-3.203879e-009
-2.368309e-009
-1.528691e-009
-7.323580e-010
-2.024820e-011
5.762893e-010
1.037611e-009
1.356563e-009
1.537853e-009
1.596169e-009
1.553361e-009
1.435171e-009
1.268001e-009
1.076166e-009
8.799365e-010
6.944879e-010
5.297112e-010
3.907069e-010
2.787122e-010
1.922118e-010
1.280187e-010
8.218990e-011
5.070666e-011
2.990968e-011
1.672610e-011
8.736353e-012
4.139755e-012
1.658241e-012
4.308820e-013
-9.575059e-014
-2.610743e-013
-2.596791e-013
-1.961709e-013
-1.230692e-013
-6.160082e-014
-1.842724e-014
8.123786e-015
2.175112e-014
2.651077e-014
2.514533e-014
2.139334e-014
1.707886e-014
1.209348e-014
8.180815e-015
5.513244e-015
3.561246e-015
8.729494e-013
8.841416e-013
9.013604e-013
9.151302e-013
9.106948e-013
8.698373e-013
7.720166e-013
5.956024e-013
3.219322e-013
-5.906726e-014
-5.375935e-013
-1.066954e-012
-1.539259e-012
-1.740568e-012
-1.287025e-012
4.572851e-013
4.498012e-012
1.235250e-011
2.621172e-011
4.909188e-011
8.493890e-011
1.386220e-010
2.157291e-010
3.220704e-010
4.627969e-010
6.410764e-010
8.563446e-010
1.102244e-009
1.364507e-009
1.619154e-009
1.831478e-009
1.956272e-009
1.939687e-009
1.722848e-009
1.247101e-009
4.603953e-010
-6.759330e-010
-2.180887e-009
-4.048922e-009
-6.247164e-009
-8.715153e-009
-1.136717e-008
-1.409693e-008
-1.678407e-008
-1.930195e-008
-2.152595e-008
-2.334171e-008
-2.465284e-008
-2.538745e-008
-2.550334e-008
-2.499125e-008
-2.387617e-008
-2.221630e-008
-2.009959e-008
-1.763804e-008
-1.495988e-008
-1.220029e-008
-9.491251e-009
-6.951693e-009
-4.678914e-009
-2.742251e-009
-1.179835e-009
1.266626e-012
8.216520e-010
1.323590e-009
1.563460e-009
1.603811e-009
1.506175e-009
1.325491e-009
1.106560e-009
8.825897e-010
6.754937e-010
4.974245e-010
3.529707e-010
2.414975e-010
1.592643e-010
1.011090e-010
6.162805e-011
3.589855e-011
1.982621e-011
1.023539e-011
4.803525e-012
1.917691e-012
5.141418e-013
-7.887173e-014
-2.618920e-013
-2.598214e-013
-1.930001e-013
-1.172555e-013
-5.529380e-014
-1.224187e-014
1.313388e-014
2.566292e-014
2.852804e-014
2.659924e-014
2.252763e-014
1.725255e-014
1.262583e-014
9.045358e-015
6.855269e-015
1.129780e-012
1.131860e-012
1.129518e-012
1.109707e-012
1.053750e-012
9.384497e-013
7.400830e-013
4.351470e-013
8.529061e-015
-5.341122e-013
-1.146541e-012
-1.710885e-012
-1.987468e-012
-1.537751e-012
3.884433e-013
5.002299e-012
1.416784e-011
3.063136e-011
5.824515e-011
1.021369e-010
1.687195e-010
2.654046e-010
3.998361e-010
5.784537e-010
8.042159e-010
1.073424e-009
1.371742e-009
1.669775e-009
1.918845e-009
2.047881e-009
1.962458e-009
1.546986e-009
6.707274e-010
-8.022465e-010
-2.999785e-009
-6.026401e-009
-9.947931e-009
-1.477823e-008
-2.046982e-008
-2.690991e-008
-3.392242e-008
-4.127571e-008
-4.869529e-008
-5.588004e-008
-6.252040e-008
-6.831728e-008
-7.300006e-008
-7.634306e-008
-7.817944e-008
-7.841187e-008
-7.701964e-008
-7.406140e-008
-6.967335e-008
-6.406243e-008
-5.749441e-008
-5.027739e-008
-4.274142e-008
-3.521573e-008
-2.800555e-008
-2.137103e-008
-1.551046e-008
-1.055001e-008
-6.541115e-009
-3.465667e-009
-1.247876e-009
2.292947e-010
1.105805e-009
1.527048e-009
1.629393e-009
1.530127e-009
1.322144e-009
1.072915e-009
8.266898e-010
6.086447e-010
4.297809e-010
2.916513e-010
1.903251e-010
1.193609e-010
7.178285e-011
4.122003e-011
2.242734e-011
1.140052e-011
5.265721e-012
2.068969e-012
5.459941e-013
-8.108220e-014
-2.659760e-013
-2.585199e-013
-1.863803e-013
-1.078286e-013
-4.531459e-014
-3.756034e-015
1.963454e-014
2.976229e-014
3.144042e-014
2.861087e-014
2.324732e-014
1.818388e-014
1.452058e-014
1.173505e-014
1.411496e-012
1.399041e-012
1.364610e-012
1.292216e-012
1.158879e-012
9.369251e-013
6.000856e-013
1.281376e-013
-4.794985e-013
-1.179861e-012
-1.853204e-012
-2.242628e-012
-1.864707e-012
1.266158e-013
5.132050e-012
1.535471e-011
3.410539e-011
6.612066e-011
1.178199e-010
1.973505e-010
3.142053e-010
4.780986e-010
6.967331e-010
9.720751e-010
1.294862e-009
1.637306e-009
1.944392e-009
2.124711e-009
2.042420e-009
1.512401e-009
3.009323e-010
-1.866145e-009
-5.286624e-009
-1.025679e-008
-1.703988e-008
-2.583167e-008
-3.672781e-008
-4.969750e-008
-6.456770e-008
-8.102005e-008
-9.860131e-008
-1.167455e-007
-1.348058e-007
-1.520913e-007
-1.679075e-007
-1.815948e-007
-1.925650e-007
-2.003329e-007
-2.045429e-007
-2.049885e-007
-2.016264e-007
-1.945816e-007
-1.841453e-007
-1.707628e-007
-1.550119e-007
-1.375713e-007
-1.191804e-007
-1.005922e-007
-8.252280e-008
-6.560363e-008
-5.034021e-008
-3.708348e-008
-2.601720e-008
-1.716291e-008
-1.040099e-008
-5.504031e-009
-2.176660e-009
-9.570493e-011
1.054872e-009
1.557903e-009
1.647372e-009
1.502660e-009
1.250708e-009
9.733775e-010
7.173069e-010
5.040633e-010
3.390981e-010
2.187859e-010
1.353967e-010
8.023193e-011
4.533896e-011
2.424556e-011
1.209419e-011
5.467333e-012
2.088960e-012
5.198113e-013
-1.034493e-013
-2.734255e-013
-2.534179e-013
-1.741933e-013
-9.419172e-014
-3.274044e-014
6.158778e-015
2.651728e-014
3.482660e-014
3.448941e-014
3.010577e-014
2.536065e-014
2.136753e-014
1.881120e-014
1.705581e-012
1.670153e-012
1.587934e-012
1.438564e-012
1.195555e-012
8.284084e-013
3.134139e-013
-3.576437e-013
-1.149325e-012
-1.945451e-012
-2.484548e-012
-2.256386e-012
-3.429008e-013
4.810699e-012
1.570764e-011
3.619088e-011
7.187161e-011
1.305004e-010
2.220797e-010
3.583896e-010
5.514339e-010
8.101606e-010
1.134698e-009
1.507399e-009
1.880254e-009
2.158863e-009
2.184113e-009
1.713962e-009
4.090228e-010
-2.173410e-009
-6.572051e-009
-1.339720e-008
-2.328769e-008
-3.685090e-008
-5.459167e-008
-7.683874e-008
-1.036795e-007
-1.349133e-007
-1.700308e-007
-2.082226e-007
-2.484156e-007
-2.893326e-007
-3.295659e-007
-3.676571e-007
-4.021772e-007