# vtk DataFile Version 3.0
vtk output
ASCII
DATASET STRUCTURED_POINTS
DIMENSIONS 100 100 1
SPACING 1 1 1
ORIGIN 0 0 0
POINT_DATA 10000
SCALARS SFBox_profile double
LOOKUP_TABLE default 
0.000000e+000
0.000000e+000
0.000000e+000
0.000000e+000
0.000000e+000
0.000000e+000
0.000000e+000
0.000000e+000
0.000000e+000
0.000000e+000
0.000000e+000
0.000000e+000
0.000000e+000
0.000000e+000
0.000000e+000
0.000000e+000
0.000000e+000
0.000000e+000
0.000000e+000
0.000000e+000
0.000000e+000
0.000000e+000
0.000000e+000
0.000000e+000
0.000000e+000
0.000000e+000
0.000000e+000
0.000000e+000
0.000000e+000
0.000000e+000
0.000000e+000
0.000000e+000
0.000000e+000
0.000000e+000
0.000000e+000
0.000000e+000
0.000000e+000
0.000000e+000
0.000000e+000
0.000000e+000
0.000000e+000
0.000000e+000
0.000000e+000
0.000000e+000
0.000000e+000
0.000000e+000
0.000000e+000
0.000000e+000
0.000000e+000
0.000000e+000
0.000000e+000
0.000000e+000
0.000000e+000
0.000000e+000
0.000000e+000
0.000000e+000
0.000000e+000
0.000000e+000
0.000000e+000
0.000000e+000
0.000000e+000
0.000000e+000
0.000000e+000
0.000000e+000
0.000000e+000
0.000000e+000
0.000000e+000
0.000000e+000
0.000000e+000
0.000000e+000
0.000000e+000
0.000000e+000
0.000000e+000
0.000000e+000
0.000000e+000
0.000000e+000
0.000000e+000
0.000000e+000
0.000000e+000
0.000000e+000
0.000000e+000
0.000000e+000
0.000000e+000
0.000000e+000
0.000000e+000
0.000000e+000
0.000000e+000
0.000000e+000
0.000000e+000
0.000000e+000
0.000000e+000
0.000000e+000
0.000000e+000
0.000000e+000
0.000000e+000
0.000000e+000
0.000000e+000
0.000000e+000
0.000000e+000
0.000000e+000
-8.375055e-010
-2.476202e-010
4.265844e-010
6.936975e-010
4.735423e-010
6.151804e-011
-2.239645e-010
-3.088254e-010
-3.107117e-010
-3.091910e-010
-2.375825e-010
-1.050762e-012
3.511566e-010
6.164638e-010
6.082871e-010
3.220262e-010
-6.955835e-011
-3.746634e-010
-5.296612e-010
-5.989394e-010
-6.485586e-010
-6.383358e-010
-4.501427e-010
-2.546176e-011
5.315368e-010
9.987313e-010
1.192599e-009
1.086529e-009
7.840776e-010
3.944016e-010
-4.737971e-011
-5.388950e-010
-1.019666e-009
-1.357119e-009
-1.437628e-009
-1.260376e-009
-9.260609e-010
-5.355489e-010
-1.155254e-010
3.518185e-010
8.464675e-010
1.286184e-009
1.592168e-009
1.762266e-009
1.860409e-009
1.935888e-009
1.971856e-009
1.923196e-009
1.790818e-009
1.635023e-009
1.509664e-009
1.400567e-009
1.247177e-009
1.021064e-009
7.621717e-010
5.268324e-010
3.144684e-010
6.888075e-011
-2.440532e-010
-5.798903e-010
-8.548253e-010
-1.035054e-009
-1.164595e-009
-1.294466e-009
-1.401516e-009
-1.403308e-009
-1.258383e-009
-1.030968e-009
-8.342292e-010
-7.096591e-010
-5.810168e-010
-3.402334e-010
2.853958e-011
4.272332e-010
7.511730e-010
1.002373e-009
1.266753e-009
1.555963e-009
1.680412e-009
1.331555e-009
3.638867e-010
-9.629461e-010
-2.051420e-009
-2.353487e-009
-1.758632e-009
-6.234258e-010
5.632610e-010
1.497157e-009
2.026405e-009
1.919717e-009
9.066280e-010
-8.653783e-010
-2.481084e-009
-2.681679e-009
-9.685878e-010
1.633878e-009
3.132153e-009
2.202100e-009
-5.278826e-010
-2.856887e-009
-6.424620e-011
7.564904e-011
1.633452e-010
5.376641e-011
-1.774475e-010
-3.015111e-010
-1.703292e-010
1.294648e-010
3.562846e-010
3.369218e-010
1.082742e-010
-1.453350e-010
-2.707345e-010
-2.563564e-010
-1.887896e-010
-1.333005e-010
-7.319248e-011
4.292668e-011
2.153156e-010
3.676675e-010
4.072414e-010
3.050849e-010
1.145813e-010
-8.536118e-011
-2.574882e-010
-4.119575e-010
-5.508492e-010
-6.233332e-010
-5.529590e-010
-3.142905e-010
2.605512e-011
3.539580e-010
5.927433e-010
7.386046e-010
8.160108e-010
8.158770e-010
6.949358e-010
4.351651e-010
8.612138e-011
-2.662373e-010
-5.697787e-010
-8.333989e-010
-1.083192e-009
-1.306835e-009
-1.456977e-009
-1.507334e-009
-1.487818e-009
-1.452188e-009
-1.417995e-009
-1.353864e-009
-1.228749e-009
-1.058912e-009
-8.918970e-010
-7.482124e-010
-5.965250e-010
-3.958072e-010
-1.517232e-010
8.483223e-011
2.758094e-010
4.365697e-010
6.063438e-010
7.857887e-010
9.226951e-010
9.674259e-010
9.306815e-010
8.705008e-010
8.222332e-010
7.570878e-010
6.216315e-010
4.114618e-010
1.880944e-010
1.364732e-011
-1.231161e-010
-2.994082e-010
-5.667468e-010
-8.673635e-010
-1.050841e-009
-9.850769e-010
-6.594162e-010
-1.837026e-010
3.055113e-010
7.214831e-010
1.001966e-009
1.035655e-009
6.860138e-010
-3.885939e-011
-8.360308e-010
-1.213968e-009
-8.653829e-010
1.028704e-011
7.932449e-010
9.316969e-010
4.031946e-010
-2.911164e-010
-5.938821e-010
-3.684156e-010
5.398021e-011
2.541490e-010
1.267218e-010
-7.962244e-011
7.111869e-010
3.138605e-010
-2.182144e-010
-5.857934e-010
-6.323189e-010
-3.815361e-010
3.245444e-011
4.388473e-010
6.713043e-010
6.153767e-010
2.747966e-010
-2.028490e-010
-5.967695e-010
-7.438285e-010
-6.246759e-010
-3.394145e-010
-1.018250e-011
2.949943e-010
5.605922e-010
7.691574e-010
8.626743e-010
7.627716e-010
4.319435e-010
-8.023462e-011
-6.462357e-010
-1.115468e-009
-1.370800e-009
-1.353880e-009
-1.063671e-009
-5.507249e-010
8.697495e-011
7.215288e-010
1.232332e-009
1.542067e-009
1.624713e-009
1.486957e-009
1.151395e-009
6.596989e-010
8.051266e-011
-5.036804e-010
-1.028270e-009
-1.465751e-009
-1.812857e-009
-2.064646e-009
-2.209253e-009
-2.247505e-009
-2.206789e-009
-2.125373e-009
-2.023141e-009
-1.894161e-009
-1.728918e-009
-1.535846e-009
-1.333816e-009
-1.126788e-009
-8.960234e-010
-6.219433e-010
-3.083920e-010
2.079882e-011
3.462885e-010
6.653052e-010
9.762920e-010
1.258854e-009
1.477967e-009
1.608696e-009
1.650733e-009
1.616631e-009
1.512731e-009
1.339708e-009
1.110273e-009
8.553037e-010
6.025645e-010
3.484259e-010
5.606049e-011
-3.135527e-010
-7.657151e-010
-1.259296e-009
-1.713183e-009
-2.007107e-009
-1.976392e-009
-1.446120e-009
-3.487386e-010
1.117654e-009
2.439089e-009
2.978586e-009
2.357772e-009
7.573005e-010
-1.129078e-009
-2.474026e-009
-2.734213e-009
-1.834130e-009
-1.267956e-010
1.696789e-009
2.743925e-009
2.289683e-009
3.621769e-010
-1.948672e-009
-3.020575e-009
-1.926713e-009
6.427176e-010
2.752343e-009
7.801452e-010
1.584347e-010
-4.931671e-010
-6.387940e-010
-2.737219e-010
1.753287e-010
3.328428e-010
1.959636e-010
1.749169e-011
-2.435834e-011
2.066970e-011
9.625734e-012
-9.129915e-011
-1.772092e-010
-1.456904e-010
-1.979785e-011
8.195640e-011
7.708582e-011
1.000822e-012
-4.113854e-011
8.464065e-012
9.942050e-011
1.283058e-010
4.869372e-011
-7.873995e-011
-1.457370e-010
-1.008833e-010
8.512205e-012
9.240077e-011
1.032769e-010
6.138921e-011
7.932944e-012
-4.659176e-011
-1.195664e-010
-2.135391e-010
-2.934403e-010
-3.117334e-010
-2.491986e-010
-1.249252e-010
2.960716e-011
1.976249e-010
3.772377e-010
5.629481e-010
7.355382e-010
8.717026e-010
9.599793e-010
1.004971e-009
1.017297e-009
1.001493e-009
9.539147e-010
8.712324e-010
7.595297e-010
6.333217e-010
5.042854e-010
3.719472e-010
2.288459e-010
7.654092e-011
-6.697269e-011
-1.809821e-010
-2.629958e-010
-3.294452e-010
-3.910167e-010
-4.324420e-010
-4.269109e-010
-3.728136e-010
-3.061162e-010
-2.651474e-010
-2.445046e-010
-1.960963e-010
-8.337704e-011
7.252992e-011
2.133537e-010
3.112041e-010
3.995102e-010
5.161887e-010
6.118021e-010
5.382907e-010
1.727672e-010
-4.141057e-010
-9.225880e-010
-1.010977e-009
-5.765817e-010
1.357287e-010
7.303680e-010
9.762673e-010
9.013703e-010
5.837065e-010
-3.207674e-011
-9.493054e-010
-1.744780e-009
-1.625967e-009
-1.837524e-010
1.833724e-009
2.778973e-009
1.530826e-009
-1.188526e-009
-3.126105e-009
-2.460220e-009
3.817549e-010
2.941570e-009
2.016055e-010
-2.141100e-010
-4.727928e-010
-1.554477e-010
4.988731e-010
8.302876e-010
4.530258e-010
-3.482298e-010
-9.100036e-010
-8.192519e-010
-2.329742e-010
3.625401e-010
6.219980e-010
5.610658e-010
3.939450e-010
2.513939e-010
8.617867e-011
-1.919295e-010
-5.500930e-010
-8.228747e-010
-8.524423e-010
-6.196432e-010
-2.371530e-010
1.686687e-010
5.498637e-010
9.097381e-010
1.206185e-009
1.316036e-009
1.118796e-009
6.160295e-010
-4.476801e-011
-6.703169e-010
-1.141486e-009
-1.437886e-009
-1.567999e-009
-1.507048e-009
-1.217668e-009
-7.178374e-010
-1.040057e-010
5.042075e-010
1.037362e-009
1.490787e-009
1.876349e-009
2.176874e-009
2.355938e-009
2.404132e-009
2.360431e-009
2.280410e-009
2.187578e-009
2.063444e-009
1.885261e-009
1.664125e-009
1.436524e-009
1.219575e-009
9.863270e-010
6.956979e-010
3.444832e-010
-2.213772e-011
-3.576057e-010
-6.618838e-010
-9.676472e-010
-1.277679e-009
-1.533150e-009
-1.661482e-009
-1.653365e-009
-1.573866e-009
-1.486803e-009
-1.380425e-009
-1.188483e-009
-8.865220e-010
-5.436407e-010
-2.528179e-010
-8.656831e-012
3.186033e-010
8.526224e-010
1.535942e-009
2.093285e-009
2.198270e-009
1.708409e-009
7.548411e-010
-3.835241e-010
-1.458698e-009
-2.267477e-009
-2.518087e-009
-1.842976e-009
-1.628209e-010
1.880347e-009
3.038595e-009
2.346260e-009
1.067332e-010
-2.088855e-009
-2.591653e-009
-1.142184e-009
8.900792e-010
1.783366e-009
1.030380e-009
-3.379202e-010
-9.246609e-010
-3.735895e-010
4.200355e-010
-3.804557e-010
-3.525174e-010
-1.282094e-010
3.317189e-010
7.524505e-010
7.391891e-010
1.821801e-010
-5.619896e-010
-9.417584e-010
-6.915229e-010
-5.107723e-011
4.803592e-010
5.900874e-010
3.631332e-010
1.043602e-010
1.042949e-011
2.693277e-011
-1.843272e-011
-1.972367e-010
-4.068791e-010
-4.853500e-010
-3.680170e-010
-1.277776e-010
1.175126e-010
3.117971e-010
4.685128e-010
5.911596e-010
6.197631e-010
4.802603e-010
1.838321e-010
-1.461822e-010
-3.644644e-010
-4.197365e-010
-3.733511e-010
-3.086710e-010
-2.415984e-010
-1.314048e-010
3.466481e-011
1.952928e-010
2.659248e-010
2.239320e-010
1.257967e-010
3.897248e-011
-2.751148e-011
-1.135287e-010
-2.382724e-010
-3.605453e-010
-4.182455e-010
-3.973547e-010
-3.448992e-010
-3.099282e-010
-2.854284e-010
-2.231730e-010
-1.031471e-010
2.992269e-011
1.113283e-010
1.290543e-010
1.329384e-010
1.660679e-010
2.037873e-010
1.807600e-010
7.684947e-011
-4.640090e-011
-1.106801e-010
-1.115814e-010
-1.208622e-010
-1.923928e-010
-2.874418e-010
-3.184751e-010
-2.659880e-010
-2.244076e-010
-3.062584e-010
-4.995538e-010
-6.388270e-010
-5.351781e-010
-1.404136e-010
4.163370e-010
9.413958e-010
1.297454e-009
1.394957e-009
1.100879e-009
2.660685e-010
-1.034217e-009
-2.269006e-009
-2.607592e-009
-1.532701e-009
5.693782e-010
2.480799e-009
2.976435e-009
1.737090e-009
-4.361068e-010
-2.230550e-009
-2.670780e-009
-1.594835e-009
3.643358e-010
2.103019e-009
2.567279e-009
1.386116e-009
-7.427950e-010
-2.387040e-009
-4.959060e-010
-7.285539e-011
3.574136e-010
4.285717e-010
1.495188e-010
-1.814062e-010
-2.989965e-010
-1.666386e-010
7.888453e-011
2.736601e-010
3.052676e-010
1.343385e-010
-1.775895e-010
-4.635497e-010
-5.369692e-010
-3.309994e-010
4.098877e-011
3.748780e-010
5.330250e-010
5.221858e-010
4.349227e-010
3.331715e-010
1.948652e-010
-3.420652e-011
-3.504207e-010
-6.636822e-010
-8.587511e-010
-8.781637e-010
-7.397848e-010
-4.823367e-010
-1.175127e-010
3.465397e-010
8.435940e-010
1.241363e-009
1.418609e-009
1.350588e-009
1.107335e-009
7.688834e-010
3.579765e-010
-1.356613e-010
-6.815753e-010
-1.187745e-009
-1.565419e-009
-1.802111e-009
-1.953344e-009
-2.064078e-009
-2.116665e-009
-2.066603e-009
-1.916044e-009
-1.728238e-009
-1.562010e-009
-1.407887e-009
-1.206951e-009
-9.296726e-010
-6.158705e-010
-3.257014e-010
-6.512200e-011
2.169783e-010
5.537612e-010
9.027269e-010
1.181365e-009
1.354009e-009
1.460732e-009
1.551456e-009
1.610183e-009
1.569261e-009
1.399556e-009
1.162495e-009
9.521829e-010
7.901199e-010
5.959412e-010
2.701781e-010
-2.034930e-010
-7.448075e-010
-1.248739e-009
-1.638430e-009
-1.830851e-009
-1.681061e-009
-1.037123e-009
7.353924e-011
1.298638e-009
2.070123e-009
1.961242e-009
1.003757e-009
-3.250199e-010
-1.409992e-009
-1.792837e-009
-1.277967e-009
8.319754e-013
1.435632e-009
2.020949e-009
1.027375e-009
-1.079620e-009
-2.576918e-009
-1.866126e-009
7.725784e-010
3.031553e-009
2.636687e-009
-2.715113e-010
-3.039798e-009
-2.644338e-010
3.246750e-010
6.759903e-010
2.191144e-010
-6.629789e-010
-1.060162e-009
-5.315095e-010
4.611068e-010
1.074920e-009
8.972557e-010
2.050190e-010
-4.403659e-010
-7.083901e-010
-6.355949e-010
-4.130360e-010
-1.639050e-010
8.676664e-011
3.254226e-010
5.038926e-010
5.743872e-010
5.325028e-010
4.063243e-010
2.127148e-010
-5.550078e-011
-3.888731e-010
-7.159247e-010
-9.177338e-010
-9.034239e-010
-6.743509e-010
-3.122692e-010
8.880637e-011
4.682718e-010
7.834375e-010
9.790797e-010
1.003888e-009
8.618804e-010
6.268031e-010
3.877919e-010
1.843404e-010
6.015020e-012
-1.499339e-010
-2.443691e-010
-2.338029e-010
-1.301287e-010
-2.743451e-013
9.940343e-011
1.730792e-010
2.578753e-010
3.571724e-010
4.237118e-010
4.154670e-010
3.510747e-010
2.913993e-010
2.700668e-010
2.624230e-010
2.316728e-010
1.895969e-010
1.905496e-010
2.658706e-010
3.844611e-010
4.904382e-010
5.673176e-010
6.447619e-010
7.419768e-010
8.264433e-010
8.455523e-010
7.912336e-010
7.139098e-010
6.684092e-010
6.607920e-010
6.576380e-010
6.318114e-010
5.708586e-010
4.326645e-010
1.230235e-010
-4.320486e-010
-1.157188e-009
-1.778327e-009
-1.946527e-009
-1.460812e-009
-4.007612e-010
9.290461e-010
2.129053e-009
2.747989e-009
2.311514e-009
5.982470e-010
-1.856253e-009
-3.619920e-009
-3.200811e-009
-4.869592e-010
2.654198e-009
3.681837e-009
1.721046e-009
-1.412797e-009
-2.844869e-009
-1.468379e-009
9.937197e-010
1.902413e-009
5.427324e-010
-1.232308e-009
-7.522451e-011
4.068378e-010
5.957350e-010
2.292800e-011
-8.199528e-010
-1.012873e-009
-2.714691e-010
7.112853e-010
1.010527e-009
4.228300e-010
-4.044372e-010
-7.064021e-010
-3.321887e-010
2.434611e-010
4.898357e-010
2.970191e-010
-5.643912e-011
-2.668213e-010
-2.665600e-010
-1.816666e-010
-1.306663e-010
-1.103387e-010
-5.054753e-011
7.283961e-011
2.079746e-010
2.970171e-010
3.436375e-010
3.912627e-010
4.447684e-010
4.411718e-010
3.120192e-010
6.362718e-011
-2.198661e-010
-4.480940e-010
-5.811313e-010
-6.143083e-010
-5.333402e-010
-3.120853e-010
4.599544e-011
4.876739e-010
9.454249e-010
1.383618e-009
1.796511e-009
2.168147e-009
2.456960e-009
2.630092e-009
2.699102e-009
2.704333e-009
2.666186e-009
2.568007e-009
2.391840e-009
2.155408e-009
1.898160e-009
1.636197e-009
1.349613e-009
1.020213e-009
6.671886e-010
3.319112e-010
3.481583e-011
-2.345789e-010
-4.827575e-010
-6.860494e-010
-8.138214e-010
-8.682652e-010
-8.811475e-010
-8.692996e-010
-8.132169e-010
-6.927768e-010
-5.283724e-010
-3.584197e-010
-1.711597e-010
1.125007e-010
5.535721e-010
1.083661e-009
1.498241e-009
1.585066e-009
1.268956e-009
6.316573e-010
-1.874564e-010
-1.050670e-009
-1.734156e-009
-1.837778e-009
-9.796340e-010
7.086304e-010
2.280812e-009
2.457780e-009
7.629463e-010
-1.734977e-009
-3.061203e-009
-2.032053e-009
5.799371e-010
2.663382e-009
2.639572e-009
7.642918e-010
-1.321210e-009
-2.153869e-009
-1.525945e-009
-2.479935e-010
8.121322e-010
1.322566e-009
-4.545372e-011
9.099590e-011
1.350210e-010
-2.307451e-011
-1.887661e-010
-9.649473e-011
2.106125e-010
3.526074e-010
3.774218e-011
-5.319143e-010
-7.866390e-010
-3.664992e-010
4.701835e-010
1.062975e-009
9.632637e-010
3.098045e-010
-3.727668e-010
-6.785358e-010
-6.087788e-010
-4.323970e-010
-3.520877e-010
-3.330597e-010
-2.113796e-010
9.180808e-011
4.838813e-010
8.001950e-010
9.507308e-010
9.551184e-010
8.579595e-010
6.531069e-010
3.146863e-010
-1.146922e-010
-5.033893e-010
-7.155807e-010
-7.069967e-010
-5.279428e-010
-2.466947e-010
1.065212e-010
5.204328e-010
9.571908e-010
1.352030e-009
1.656614e-009
1.865893e-009
1.998689e-009
2.066831e-009
2.073891e-009
2.034050e-009
1.974255e-009
1.914388e-009
1.855903e-009
1.794410e-009
1.733105e-009
1.674360e-009
1.604802e-009
1.502675e-009
1.361069e-009
1.191686e-009
1.001043e-009
7.766882e-010
5.110797e-010
2.318113e-010
-1.298005e-011
-2.049297e-010
-3.724932e-010
-5.415145e-010
-6.816332e-010
-7.313921e-010
-6.844061e-010
-6.229612e-010
-6.340393e-010
-6.918711e-010
-6.518196e-010
-3.806451e-010
1.150875e-010
7.037174e-010
1.255124e-009
1.705456e-009
1.962278e-009
1.785221e-009
8.879551e-010
-7.025097e-010
-2.363820e-009
-3.100521e-009
-2.268276e-009
-2.063403e-010
1.875331e-009
2.740033e-009
1.974307e-009
1.715547e-010
-1.530304e-009
-2.091740e-009
-1.114932e-009
7.919075e-010
2.154630e-009
1.642202e-009
-5.726432e-010
-2.562908e-009
-2.289084e-009
2.358576e-010
2.688939e-009
5.454664e-011
-2.934710e-010
-4.410543e-010
-4.798325e-011
5.738355e-010
8.108783e-010
4.106067e-010
-3.047087e-010
-8.001451e-010
-7.785471e-010
-3.140126e-010
2.892289e-010
6.906273e-010
6.749685e-010
2.774539e-010
-2.133313e-010
-4.517206e-010
-3.091975e-010
2.920544e-011
2.505304e-010
1.992655e-010
-1.255067e-011
-1.520466e-010
-9.697005e-011
7.549225e-011
2.008589e-010
1.986085e-010
1.263499e-010
8.659983e-011
1.139067e-010
1.704115e-010
2.337446e-010
3.506656e-010
5.835189e-010
9.186672e-010
1.254616e-009
1.486295e-009
1.585987e-009
1.594683e-009
1.551462e-009
1.453289e-009
1.283089e-009
1.055803e-009
8.218503e-010
6.306865e-010
5.017797e-010
4.291709e-010
4.030771e-010
4.229211e-010
4.958066e-010
6.271169e-010
8.092706e-010
1.017377e-009
1.222118e-009
1.412857e-009
1.602227e-009
1.797397e-009
1.969663e-009
2.069195e-009
2.078299e-009
2.035818e-009
1.989845e-009
1.930920e-009
1.797721e-009
1.561380e-009
1.283045e-009
1.057300e-009
8.970572e-010
7.037442e-010
3.733532e-010
-7.974954e-011
-5.282088e-010
-8.560605e-010
-1.042118e-009
-1.094929e-009
-9.332611e-010
-4.072766e-010
4.929148e-010
1.447835e-009
1.901197e-009
1.440744e-009
1.534769e-010
-1.367824e-009
-2.351162e-009
-2.213836e-009
-8.059254e-010
1.388772e-009
3.166270e-009
3.085214e-009
6.853381e-010
-2.530841e-009
-3.856023e-009
-1.867308e-009
1.745229e-009
3.474774e-009
1.615137e-009
-1.724395e-009
-2.834227e-009
-6.019984e-010
2.201700e-009
3.876848e-010
-3.912977e-010
-8.064115e-010
-1.852107e-010
7.951274e-010
9.769666e-010
1.480124e-010
-7.537506e-010
-7.854371e-010
-1.971978e-011
6.773553e-010
6.500909e-010
2.926412e-011
-5.841818e-010
-7.556702e-010
-4.796831e-010
9.817857e-013
4.490877e-010
7.201748e-010
7.482612e-010
5.517514e-010
2.434949e-010
-2.798375e-011
-1.848762e-010
-2.674339e-010
-3.646047e-010
-4.964269e-010
-5.722001e-010
-4.688158e-010
-1.447028e-010
3.304814e-010
8.514181e-010
1.361053e-009
1.848405e-009
2.281467e-009
2.577527e-009
2.659216e-009
2.529768e-009
2.274385e-009
1.985658e-009
1.699376e-009
1.405325e-009
1.104199e-009
8.356544e-010
6.490473e-010
5.579865e-010
5.312123e-010
5.261850e-010
5.280821e-010
5.567306e-010
6.379836e-010
7.703495e-010
9.232237e-010
1.071802e-009
1.230486e-009
1.440055e-009
1.714197e-009
2.007154e-009
2.249906e-009
2.419424e-009
2.554745e-009
2.692469e-009
2.800164e-009
2.799420e-009
2.659607e-009
2.445405e-009
2.250260e-009
2.090997e-009
1.892009e-009
1.576308e-009
1.145756e-009
6.509209e-010
1.020694e-010
-5.398797e-010
-1.251647e-009
-1.843726e-009
-2.017889e-009
-1.570512e-009
-5.563124e-010
7.285839e-010
1.873199e-009
2.430068e-009
1.982158e-009
4.173055e-010
-1.634969e-009
-2.790683e-009
-1.859038e-009
7.890922e-010
2.993439e-009
2.572767e-009
-3.343011e-010
-3.021422e-009
-2.826262e-009
3.417201e-012
2.510799e-009
2.273806e-009
6.173386e-012
-1.524246e-009
-8.795246e-010
5.245167e-010
7.288577e-010
-1.800361e-010
-7.823285e-010
-3.572714e-010
4.278637e-010
4.827760e-010
-2.420276e-010
-7.129865e-010
-1.798304e-010
8.455922e-010
1.194619e-009
4.082745e-010
-7.838380e-010
-1.311962e-009
-8.445952e-010
5.432794e-011
6.409136e-010
6.644980e-010
3.864470e-010
1.557041e-010
9.236612e-011
1.137946e-010
1.212570e-010
9.692132e-011
6.608365e-011
4.081848e-011
3.008857e-011
8.007303e-011
2.634307e-010
6.094403e-010
1.054628e-009
1.479881e-009
1.798613e-009
1.999315e-009
2.104512e-009
2.111541e-009
1.994993e-009
1.761172e-009
1.473264e-009
1.205550e-009
9.792007e-010
7.565374e-010
4.975611e-010
2.089658e-010
-6.914657e-011
-3.160214e-010
-5.557896e-010
-8.255676e-010
-1.124146e-009
-1.401067e-009
-1.599722e-009
-1.706508e-009
-1.749794e-009
-1.749471e-009
-1.678047e-009
-1.484864e-009
-1.159595e-009
-7.580299e-010
-3.539887e-010
2.684757e-011
4.088745e-010
8.023069e-010
1.158362e-009
1.406968e-009
1.531912e-009
1.587381e-009
1.636097e-009
1.691214e-009
1.733031e-009
1.763097e-009
1.803449e-009
1.827654e-009
1.719225e-009
1.339657e-009
6.566894e-010
-2.018770e-010
-1.022837e-009
-1.607230e-009
-1.769032e-009
-1.288192e-009
-3.306517e-011
1.696770e-009
2.977575e-009
2.716083e-009
6.564364e-010
-2.001946e-009
-3.298427e-009
-2.185180e-009
4.053948e-010
2.317957e-009
2.118856e-009
2.994427e-010
-1.384351e-009
-1.601893e-009
-4.601125e-010
8.966337e-010
1.397759e-009
7.948887e-010
-3.606281e-010
-1.227378e-009
6.533668e-010
7.889208e-011
-4.026973e-010
-3.614644e-010
-8.123218e-011
-6.621362e-011
-2.964488e-010
-2.600943e-010
2.780525e-010
8.256760e-010
6.913686e-010
-1.333422e-010
-8.607520e-010
-7.472724e-010
9.301454e-011
8.267980e-010
7.824124e-010
7.275725e-011
-6.316588e-010
-8.012551e-010
-4.523853e-010
3.677776e-011
3.606758e-010
5.044304e-010
6.274127e-010
8.389115e-010
1.113275e-009
1.372877e-009
1.588904e-009
1.776948e-009
1.920555e-009
1.943258e-009
1.774210e-009
1.423473e-009
9.687697e-010
4.698910e-010
-8.391870e-011
-7.380820e-010
-1.507982e-009
-2.372197e-009
-3.322642e-009
-4.392810e-009
-5.618733e-009
-6.980098e-009
-8.396204e-009
-9.781262e-009
-1.108980e-008
-1.229908e-008
-1.335762e-008
-1.417240e-008
-1.465839e-008
-1.479400e-008
-1.461587e-008
-1.416038e-008
-1.342555e-008
-1.240102e-008
-1.112528e-008
-9.693234e-009
-8.201612e-009
-6.702639e-009
-5.223966e-009
-3.820515e-009
-2.578359e-009
-1.559028e-009
-7.602518e-010
-1.481256e-010
2.894804e-010
5.551158e-010
7.110386e-010
8.979230e-010
1.241477e-009
1.731405e-009
2.211008e-009
2.494673e-009
2.480085e-009
2.136374e-009
1.423375e-009
3.158555e-010
-1.010804e-009
-2.040089e-009
-2.112941e-009
-9.615752e-010
8.722254e-010
2.240739e-009
2.182031e-009
6.567202e-010
-1.384490e-009
-2.600929e-009
-2.078351e-009
2.939000e-011
2.338819e-009
2.963912e-009
1.098188e-009
-1.815079e-009
-3.013123e-009
-1.187747e-009
1.792877e-009
2.661379e-009
4.551173e-010
-2.231239e-009
1.150938e-011
1.731439e-010
1.712084e-010
-1.113523e-010
-3.744610e-010
-2.933369e-010
5.995549e-011
3.186999e-010
2.464577e-010
-6.502373e-011
-3.528893e-010
-3.958754e-010
-1.045253e-010
4.214907e-010
8.601421e-010
8.287002e-010
2.300319e-010
-5.682193e-010
-9.997890e-010
-7.926229e-010
-1.812258e-010
3.661790e-010
5.923116e-010
6.208407e-010
7.450650e-010
1.110873e-009
1.609410e-009
2.026882e-009
2.243484e-009
2.273725e-009
2.150166e-009
1.821474e-009
1.185763e-009
1.949798e-010
-1.118491e-009
-2.729067e-009
-4.702290e-009
-7.165240e-009
-1.019908e-008
-1.378027e-008
-1.782196e-008
-2.223848e-008
-2.694298e-008
-3.179378e-008
-3.657767e-008
-4.106549e-008
-4.507689e-008
-4.848123e-008
-5.115017e-008
-5.294061e-008
-5.374110e-008
-5.352472e-008
-5.233995e-008
-5.025392e-008
-4.732557e-008
-4.364199e-008
-3.936005e-008
-3.468518e-008
-2.980776e-008
-2.488003e-008
-2.005870e-008
-1.553779e-008
-1.150159e-008
-8.045163e-009
-5.172830e-009
-2.887526e-009
-1.247395e-009
-2.908331e-010
9.323050e-011
1.788358e-010
2.580068e-010
4.886829e-010
8.888161e-010
1.434003e-009
2.084159e-009
2.681152e-009
2.882071e-009
2.321355e-009
9.457666e-010
-7.936116e-010
-2.140665e-009
-2.491574e-009
-1.713841e-009
-1.380417e-010
1.569303e-009
2.491142e-009
1.803549e-009
-3.901452e-010
-2.493048e-009
-2.393783e-009
2.532407e-010
2.974500e-009
2.703919e-009
-5.754195e-010
-3.298352e-009
-2.298835e-009
1.215619e-009
2.955629e-009
8.892104e-010
-2.154290e-009
-8.553539e-010
1.416626e-010
7.545320e-010
2.616990e-010
-4.826342e-010
-3.581704e-010
4.441099e-010
7.439637e-010
1.611946e-011
-9.255520e-010
-9.959749e-010
-1.281004e-010
7.876361e-010
9.866951e-010
5.106177e-010
-1.009078e-010
-4.372756e-010
-4.251180e-010
-1.568015e-010
2.424557e-010
6.032834e-010
7.542568e-010
6.744574e-010
5.606287e-010
6.698852e-010
1.075950e-009
1.593538e-009
1.941368e-009
1.957818e-009
1.643445e-009
1.010703e-009
-6.902639e-011
-1.851464e-009
-4.579582e-009
-8.397684e-009
-1.340408e-008
-1.973529e-008
-2.753814e-008
-3.684146e-008
-4.747405e-008
-5.911645e-008
-7.141176e-008
-8.400896e-008
-9.652386e-008
-1.085142e-007
-1.195317e-007
-1.291988e-007
-1.372231e-007
-1.433532e-007
-1.473555e-007
-1.490550e-007
-1.483822e-007
-1.453651e-007
-1.400844e-007
-1.326691e-007
-1.233458e-007
-1.124673e-007
-1.004615e-007
-8.775293e-008
-7.475089e-008
-6.189925e-008
-4.968095e-008
-3.851563e-008
-2.864579e-008
-2.015218e-008
-1.308734e-008
-7.557031e-009
-3.637693e-009
-1.232271e-009
-5.105028e-011
2.636538e-010
4.042623e-011
-3.781093e-010
-5.755516e-010
-1.856606e-010
8.285184e-010
2.034727e-009
2.764112e-009
2.571906e-009
1.511413e-009
3.168570e-012
-1.451539e-009
-2.342077e-009
-2.103385e-009
-4.508434e-010
1.914828e-009
3.228974e-009
2.043721e-009
-9.463335e-010
-2.998451e-009
-2.019631e-009
8.974055e-010
2.463316e-009
1.019365e-009
-1.438854e-009
-1.816169e-009
1.163836e-010
1.585768e-009
6.825870e-010
-1.093046e-009
-1.381898e-009
1.454093e-010
1.160559e-009
5.322095e-010
-5.869691e-010
-5.656952e-010
4.391545e-010
8.634148e-010
1.542695e-011
-9.933609e-010
-8.136449e-010
3.555918e-010
1.095988e-009
5.801140e-010
-5.335831e-010
-1.034779e-009
-5.194588e-010
4.096736e-010
1.001352e-009
1.065485e-009
8.866568e-010
7.585085e-010
7.685531e-010
9.072938e-010
1.176248e-009
1.524830e-009
1.760886e-009
1.604218e-009
8.257269e-010
-7.191296e-010
-3.223893e-009
-7.076676e-009
-1.283611e-008
-2.105035e-008
-3.210252e-008
-4.620565e-008
-6.347062e-008
-8.389499e-008
-1.072561e-007
-1.330439e-007
-1.605352e-007
-1.889399e-007
-2.174809e-007
-2.453720e-007
-2.717919e-007
-2.959325e-007
-3.170818e-007
-3.346485e-007
-3.481252e-007
-3.570682e-007
-3.611375e-007
-3.601445e-007
-3.540480e-007
-3.429266e-007
-3.269993e-007
-3.066910e-007
-2.826560e-007
-2.557099e-007
-2.267393e-007
-1.966835e-007
-1.665655e-007
-1.374537e-007
-1.103011e-007
-8.578049e-008
-6.426415e-008
-4.593858e-008
-3.089544e-008
-1.910457e-008
-1.036183e-008
-4.346311e-009
-7.441919e-010
7.479198e-010
6.008409e-010
-3.967056e-010
-1.278292e-009
-1.313892e-009
-3.667320e-010
1.116741e-009
2.446511e-009
3.042086e-009
2.588605e-009
1.109299e-009
-8.783289e-010
-2.322493e-009
-2.150397e-009
-2.579750e-010
1.984653e-009
2.642301e-009
1.031220e-009
-1.423075e-009
-2.472300e-009
-1.293434e-009
7.540139e-010
1.692007e-009
9.606708e-010
-3.307870e-010
-9.017275e-010
-5.510275e-010
8.746320e-011
4.736698e-010
-1.228831e-009
2.125855e-010
1.184036e-009
5.598596e-010
-6.531756e-010
-8.540050e-010
2.714545e-011
6.636471e-010
2.886205e-010
-3.483218e-010
-2.075928e-010
5.181866e-010
7.043151e-010
-1.110290e-010
-1.059790e-009
-1.025538e-009
2.236563e-011
1.083335e-009
1.319424e-009
8.651015e-010
4.685358e-010
6.280716e-010
1.230065e-009
1.861152e-009
2.222419e-009
2.184003e-009
1.570539e-009
1.349237e-011
-3.009269e-009
-8.098807e-009
-1.596615e-008
-2.750100e-008
-4.371385e-008
-6.552459e-008
-9.355118e-008
-1.280423e-007
-1.689224e-007
-2.158121e-007
-2.679752e-007
-3.242910e-007
-3.833465e-007
-4.436022e-007
-5.035044e-007
-5.615003e-007
-6.160383e-007
-6.656290e-007
-7.089363e-007
-7.448145e-007
-7.722867e-007
-7.905365e-007
-7.989511e-007
-7.971674e-007
-7.850710e-007
-7.627814e-007
-7.306901e-007
-6.895356e-007
-6.404318e-007
-5.848055e-007
-5.243136e-007
-4.608136e-007
-3.963539e-007
-3.330769e-007
-2.730040e-007
-2.178100e-007
-1.687040e-007
-1.264123e-007
-9.117663e-008
-6.275160e-008
-4.049349e-008
-2.360217e-008
-1.139686e-008
-3.407371e-009
8.039008e-010
1.927272e-009
1.039832e-009
-5.344300e-010
-1.565588e-009
-1.305566e-009
2.268205e-010
2.227251e-009
3.496359e-009
3.164931e-009
1.327534e-009
-9.423925e-010
-2.297065e-009
-2.016247e-009
-4.346772e-010
1.313498e-009
1.976615e-009
9.873348e-010
-9.551280e-010
-2.138410e-009
-1.260516e-009
1.017218e-009
2.346416e-009
1.149675e-009
-1.336747e-009
-2.241824e-009
-4.762065e-010
1.811286e-009
-4.788563e-010
1.835270e-010
6.603236e-010
3.453241e-010
-4.228011e-010
-7.973701e-010
-4.232630e-010
2.242897e-010
5.057008e-010
3.574102e-010
1.755673e-010
1.448501e-010
3.671040e-011
-2.803926e-010
-4.697127e-010
-1.296149e-010
5.764345e-010
1.002382e-009
7.820631e-010
3.005423e-010
2.811021e-010
1.005411e-009
2.051784e-009
2.717369e-009
2.515913e-009
1.201794e-009
-1.600906e-009
-6.712195e-009