# vtk DataFile Version 3.0
vtk output
ASCII
DATASET STRUCTURED_POINTS
DIMENSIONS 100 100 1
SPACING 1 1 1
ORIGIN 0 0 0
POINT_DATA 10000
SCALARS SFBox_profile double
LOOKUP_TABLE default 
0.000000e+000
0.000000e+000
0.000000e+000
0.000000e+000
0.000000e+000
0.000000e+000
0.000000e+000
0.000000e+000
0.000000e+000
0.000000e+000
0.000000e+000
0.000000e+000
0.000000e+000
0.000000e+000
0.000000e+000
0.000000e+000
0.000000e+000
0.000000e+000
0.000000e+000
0.000000e+000
0.000000e+000
0.000000e+000
0.000000e+000
0.000000e+000
0.000000e+000
0.000000e+000
0.000000e+000
0.000000e+000
0.000000e+000
0.000000e+000
0.000000e+000
0.000000e+000
0.000000e+000
0.000000e+000
0.000000e+000
0.000000e+000
0.000000e+000
0.000000e+000
0.000000e+000
0.000000e+000
0.000000e+000
0.000000e+000
0.000000e+000
0.000000e+000
0.000000e+000
0.000000e+000
0.000000e+000
0.000000e+000
0.000000e+000
0.000000e+000
0.000000e+000
0.000000e+000
0.000000e+000
0.000000e+000
0.000000e+000
0.000000e+000
0.000000e+000
0.000000e+000
0.000000e+000
0.000000e+000
0.000000e+000
0.000000e+000
0.000000e+000
0.000000e+000
0.000000e+000
0.000000e+000
0.000000e+000
0.000000e+000
0.000000e+000
0.000000e+000
0.000000e+000
0.000000e+000
0.000000e+000
0.000000e+000
0.000000e+000
0.000000e+000
0.000000e+000
0.000000e+000
0.000000e+000
0.000000e+000
0.000000e+000
0.000000e+000
0.000000e+000
0.000000e+000
0.000000e+000
0.000000e+000
0.000000e+000
0.000000e+000
0.000000e+000
0.000000e+000
0.000000e+000
0.000000e+000
0.000000e+000
0.000000e+000
0.000000e+000
0.000000e+000
0.000000e+000
0.000000e+000
0.000000e+000
0.000000e+000
3.575775e-011
8.797985e-012
-1.706530e-011
-2.081694e-011
-2.949462e-012
1.487935e-011
1.316101e-011
-3.157515e-012
-1.268488e-011
-6.204912e-012
3.573457e-012
3.546923e-012
-5.929744e-013
3.348927e-012
1.131362e-011
7.992652e-012
-8.118641e-012
-2.042249e-011
-1.654045e-011
-2.228972e-012
9.938217e-012
1.547550e-011
1.681889e-011
1.455849e-011
6.897129e-012
-4.548429e-012
-1.445612e-011
-1.931511e-011
-1.958076e-011
-1.684068e-011
-1.193415e-011
-5.792218e-012
1.890723e-014
4.436527e-012
7.821456e-012
1.075265e-011
1.285841e-011
1.388776e-011
1.428260e-011
1.413681e-011
1.347779e-011
1.289510e-011
1.247792e-011
1.175852e-011
1.086871e-011
1.008936e-011
9.148182e-012
7.957054e-012
6.872158e-012
6.015223e-012
5.158527e-012
4.222494e-012
3.458650e-012
2.946085e-012
2.449633e-012
2.090956e-012
2.127477e-012
2.219095e-012
2.064726e-012
1.715912e-012
7.624316e-013
-1.279535e-012
-4.307623e-012
-8.446814e-012
-1.427825e-011
-2.203185e-011
-3.143224e-011
-4.177621e-011
-5.190180e-011
-6.015938e-011
-6.364607e-011
-5.818470e-011
-4.057311e-011
-1.035648e-011
3.083972e-011
7.851605e-011
1.205137e-010
1.359794e-010
1.067631e-010
3.297238e-011
-6.493270e-011
-1.560406e-010
-2.022680e-010
-1.595611e-010
-1.059374e-011
1.795347e-010
2.720877e-010
1.743233e-010
-4.791585e-011
-2.190937e-010
-2.205695e-010
-7.817310e-011
9.938250e-011
2.069240e-010
1.711341e-010
-1.039945e-011
-2.077144e-010
-2.228586e-010
-8.645791e-012
2.253336e-010
-1.142284e-011
4.444954e-013
6.866770e-012
1.896775e-012
-4.844363e-012
-3.250753e-012
3.145405e-012
3.924190e-012
-1.448376e-012
-2.846347e-012
3.541124e-012
7.408998e-012
-2.545420e-013
-1.215288e-011
-1.407921e-011
-3.569455e-012
9.499327e-012
1.647740e-011
1.604300e-011
9.437161e-012
-2.460801e-012
-1.607179e-011
-2.446746e-011
-2.297273e-011
-1.323289e-011
-1.625516e-013
1.246501e-011
2.228263e-011
2.731059e-011
2.667763e-011
2.145936e-011
1.396605e-011
6.157658e-012
-1.051036e-012
-7.122947e-012
-1.172535e-011
-1.508357e-011
-1.727284e-011
-1.801955e-011
-1.767098e-011
-1.680768e-011
-1.540307e-011
-1.358401e-011
-1.177522e-011
-9.852836e-012
-7.576468e-012
-5.192690e-012
-2.904717e-012
-6.661201e-013
1.479848e-012
3.358375e-012
4.862205e-012
6.078317e-012
7.013426e-012
7.422766e-012
7.356149e-012
7.130354e-012
6.803092e-012
6.674989e-012
7.448264e-012
9.381046e-012
1.257571e-011
1.759920e-011
2.481652e-011
3.420789e-011
4.574543e-011
5.884470e-011
7.193759e-011
8.257382e-011
8.727485e-011
8.191238e-011
6.262210e-011
2.662176e-011
-2.572092e-011
-8.730980e-011
-1.428561e-010
-1.724036e-010
-1.575687e-010
-8.823383e-011
2.791435e-011
1.555008e-010
2.356704e-010
2.148003e-010
8.412714e-011
-1.010196e-010
-2.418594e-010
-2.473761e-010
-9.452456e-011
1.303817e-010
2.614297e-010
1.822533e-010
-4.284814e-011
-2.045348e-010
-1.585891e-010
1.893527e-011
1.293500e-010
8.590560e-011
-1.242973e-011
-4.405252e-011
-1.912330e-011
-5.888231e-011
-1.137470e-011
3.007034e-011
3.072309e-011
-4.879499e-013
-2.380874e-011
-1.492616e-011
8.590441e-012
1.496730e-011
1.717634e-012
-6.849380e-012
-4.327358e-013
4.070607e-012
-5.257716e-012
-1.410598e-011
-5.336195e-012
1.347744e-011
2.092773e-011
1.061123e-011
-4.891006e-012
-1.381345e-011
-1.566914e-011
-1.325305e-011
-6.349469e-012
4.106223e-012
1.334746e-011
1.710008e-011
1.516163e-011
9.837028e-012
3.084904e-012
-3.806470e-012
-9.174598e-012
-1.166043e-011
-1.162428e-011
-1.031782e-011
-8.424760e-012
-6.173470e-012
-3.562561e-012
-4.781958e-013
2.664666e-012
5.290328e-012
7.437879e-012
9.224309e-012
1.053688e-011
1.151596e-011
1.233440e-011
1.289887e-011
1.311429e-011
1.292392e-011
1.233439e-011
1.146395e-011
1.035424e-011
9.059114e-012
7.675175e-012
6.083433e-012
4.196658e-012
2.047250e-012
-5.535294e-013
-3.606292e-012
-6.715644e-012
-9.764157e-012
-1.274620e-011
-1.532723e-011
-1.722040e-011
-1.791047e-011
-1.619992e-011
-1.104699e-011
-1.943512e-012
1.162544e-011
2.969618e-011
5.055867e-011
7.010949e-011
8.203092e-011
7.877237e-011
5.343258e-011
2.999927e-012
-6.615338e-011
-1.329853e-010
-1.649926e-010
-1.342668e-010
-3.572214e-011
1.045860e-010
2.278886e-010
2.518842e-010
1.179230e-010
-1.298944e-010
-3.228821e-010
-2.867114e-010
-2.286718e-011
2.571630e-010
3.216024e-010
1.336249e-010
-1.377255e-010
-2.828084e-010
-2.024754e-010
4.095602e-011
2.547860e-010
2.434449e-010
-2.193262e-012
-2.514095e-010
-3.054257e-011
-1.283669e-011
1.355444e-011
2.693170e-011
1.028991e-011
-1.909097e-011
-2.396866e-011
2.060450e-012
2.220752e-011
8.720093e-012
-1.664750e-011
-1.678021e-011
6.388738e-012
2.026541e-011
1.164659e-011
-2.077127e-012
-7.329249e-012
-1.084374e-011
-1.776524e-011
-1.753969e-011
-1.865304e-012
1.946222e-011
3.062902e-011
2.728953e-011
1.515436e-011
-3.147052e-013
-1.620371e-011
-2.882399e-011
-3.399975e-011
-3.068702e-011
-2.154177e-011
-9.655494e-012
3.098187e-012
1.499009e-011
2.469663e-011
3.230266e-011
3.839704e-011
4.320302e-011
4.689869e-011
4.959210e-011
5.137465e-011
5.266463e-011
5.379638e-011
5.472041e-011
5.530382e-011
5.542284e-011
5.503611e-011
5.421907e-011
5.292460e-011
5.115661e-011
4.911899e-011
4.684205e-011
4.429624e-011
4.167580e-011
3.910853e-011
3.667498e-011
3.444677e-011
3.208828e-011
2.912791e-011
2.533224e-011
2.035874e-011
1.381572e-011
5.320089e-012
-5.984790e-012
-2.084562e-011
-3.906466e-011
-6.003795e-011
-8.265703e-011
-1.038674e-010
-1.183556e-010
-1.196276e-010
-1.008671e-010
-5.609825e-011
1.621941e-011
1.070806e-010
1.929899e-010
2.405851e-010
2.196603e-010
1.165942e-010
-5.461717e-011
-2.389382e-010
-3.399370e-010
-2.694249e-010
-3.484172e-011
2.290683e-010
3.484438e-010
2.447262e-010
-1.234083e-011
-2.554620e-010
-3.108296e-010
-1.104420e-010
1.994860e-010
3.149100e-010
8.453879e-011
-2.421930e-010
-2.584333e-010
6.306874e-011
2.879098e-010
1.039902e-010
-2.240173e-010
7.417112e-011
2.646075e-012
-4.326408e-011
-2.368780e-011
1.721278e-011
2.155132e-011
-5.289020e-012
-1.514291e-011
3.853778e-012
1.433948e-011
-3.035582e-012
-1.776005e-011
-2.875720e-012
2.012426e-011
1.709439e-011
-6.948670e-012
-2.114224e-011
-1.471095e-011
-1.769459e-012
7.407659e-012
1.440481e-011
1.782132e-011
1.119983e-011
-4.417087e-012
-1.856267e-011
-2.281568e-011
-1.743160e-011
-6.693869e-012
6.684191e-012
2.077971e-011
3.243853e-011
3.928658e-011
4.169896e-011
4.140307e-011
4.018951e-011
3.974468e-011
4.073503e-011
4.275752e-011
4.561455e-011
4.948792e-011
5.439455e-011
6.023532e-011
6.677608e-011
7.357781e-011
8.017716e-011
8.620277e-011
9.155743e-011
9.631762e-011
1.003204e-010
1.033308e-010
1.052989e-010
1.060444e-010
1.053526e-010
1.032753e-010
9.994727e-011
9.570021e-011
9.114980e-011
8.671904e-011
8.265644e-011
7.928317e-011
7.683188e-011
7.570317e-011
7.640212e-011
7.859424e-011
8.115135e-011
8.273959e-011
8.121683e-011
7.343491e-011
5.625928e-011
2.704705e-011
-1.570324e-011
-6.951197e-011
-1.244215e-010
-1.628421e-010
-1.644236e-010
-1.138415e-010
-9.163669e-012
1.287450e-010
2.483569e-010
2.767517e-010
1.626261e-010
-6.719354e-011
-2.954963e-010
-3.744519e-010
-2.194895e-010
1.144271e-010
4.158818e-010
4.236187e-010
6.412406e-011
-3.838233e-010
-4.833390e-010
-1.110562e-010
3.433588e-010
3.969561e-010
4.652493e-011
-2.597858e-010
-2.154364e-010
7.985120e-012
9.903401e-011
4.876664e-011
1.124981e-010
1.869594e-011
-6.403374e-011
-6.183486e-011
8.256109e-012
5.595770e-011
2.763962e-011
-2.726610e-011
-3.242839e-011
7.269307e-012
2.663679e-011
4.588944e-012
-1.676367e-011
-1.055520e-011
4.833632e-013
-3.267132e-012
-4.986917e-012
1.078902e-011
2.691372e-011
2.085348e-011
-2.943927e-012
-2.416382e-011
-3.217364e-011
-2.802945e-011
-1.364793e-011
8.920386e-012
3.246647e-011
4.792544e-011
5.228335e-011
4.883347e-011
4.153258e-011
3.319980e-011
2.694411e-011
2.545339e-011
2.966282e-011
3.892592e-011
5.155029e-011
6.588738e-011
8.140811e-011
9.799168e-011
1.149328e-010
1.313142e-010
1.465032e-010
1.601559e-010
1.721050e-010
1.821802e-010
1.902793e-010
1.963879e-010
2.003111e-010
2.018031e-010
2.008532e-010
1.974996e-010
1.917671e-010
1.836924e-010
1.731721e-010
1.602399e-010
1.453201e-010
1.290070e-010
1.120939e-010
9.539058e-011
7.933579e-011
6.469445e-011
5.315890e-011
4.656652e-011
4.647938e-011
5.437021e-011
7.107194e-011
9.633952e-011
1.283199e-010
1.613961e-010
1.844769e-010
1.828083e-010
1.423435e-010
5.485937e-011
-7.488139e-011
-2.199376e-010
-3.278574e-010
-3.351000e-010
-2.013992e-010
5.200835e-011
3.265048e-010
4.722394e-010
3.638302e-010
9.795254e-012
-3.838786e-010
-5.164330e-010
-2.521655e-010
2.048426e-010
4.604529e-010
2.993354e-010
-1.083638e-010
-3.754699e-010
-2.608204e-010
1.097851e-010
3.518887e-010
1.966192e-010
-1.923473e-010
-3.547324e-010
-7.815970e-011
2.999429e-010
-3.508185e-011
1.676956e-011
2.278498e-011
-1.724756e-011
-2.389468e-011
1.925886e-011
3.663703e-011
-7.041635e-012
-4.286985e-011
-1.287442e-011
3.448625e-011
2.739208e-011
-1.645656e-011
-3.026206e-011
-4.304591e-012
1.711006e-011
1.429937e-011
6.197487e-012
2.530303e-012
-6.993694e-012
-2.114862e-011
-2.206477e-011
-2.929496e-012
2.218420e-011
3.770504e-011
4.071985e-011
3.507292e-011
2.414088e-011
1.287522e-011
8.468479e-012
1.530991e-011
3.304026e-011
5.940690e-011
9.182903e-011
1.272860e-010
1.629990e-010
1.972532e-010
2.297393e-010
2.610509e-010
2.912368e-010
3.194020e-010
3.447757e-010
3.671793e-010
3.866666e-010
4.032534e-010
4.166965e-010
4.265579e-010
4.325162e-010
4.343661e-010
4.320040e-010
4.255691e-010
4.154026e-010
4.019552e-010
3.856315e-010
3.665847e-010
3.447996e-010
3.201327e-010
2.924765e-010
2.622750e-010
2.301217e-010
1.957506e-010
1.585121e-010
1.184096e-010
7.607698e-011
3.275290e-011
-9.556241e-012
-4.803941e-011
-7.783418e-011
-9.092475e-011
-7.816459e-011
-3.296726e-011
4.548193e-011
1.475775e-010
2.474184e-010
3.032046e-010
2.707777e-010
1.272535e-010
-1.046122e-010
-3.416187e-010
-4.534455e-010
-3.277874e-010
2.516270e-011
4.149900e-010
5.616681e-010
3.122556e-010
-1.949428e-010
-5.854268e-010
-5.151952e-010
1.734830e-011
5.685224e-010
5.776828e-010
-2.170232e-011
-5.885400e-010
-4.486228e-010
2.140785e-010
5.240419e-010
1.041154e-010
-3.802945e-010
-2.204410e-010
2.642838e-010
-2.234992e-010
1.297026e-012
1.414971e-010
7.292455e-011
-6.004109e-011
-7.451445e-011
1.063072e-011
4.841783e-011
1.604135e-012
-3.130746e-011
-1.389023e-012
2.555726e-011
3.958596e-012
-1.865758e-011
-3.975268e-013
2.319633e-011
9.330728e-012
-2.263875e-011
-3.158172e-011
-1.392457e-011
8.974490e-012
2.740747e-011
4.124908e-011
4.401300e-011
3.058296e-011
1.048925e-011
3.483527e-013
8.789992e-012
3.498724e-011
7.504235e-011
1.240932e-010
1.765200e-010
2.279727e-010
2.763934e-010
3.214779e-010
3.642573e-010
4.064100e-010
4.492737e-010
4.931099e-010
5.369393e-010
5.794780e-010
6.201592e-010
6.587014e-010
6.944375e-010
7.265035e-010
7.540077e-010
7.760858e-010
7.921865e-010
8.020916e-010
8.056405e-010
8.026398e-010
7.929798e-010
7.767883e-010
7.544977e-010
7.268848e-010
6.949200e-010
6.591638e-010
6.197829e-010
5.775641e-010
5.340004e-010
4.902156e-010
4.465240e-010
4.024238e-010
3.566423e-010
3.077555e-010
2.538648e-010
1.913116e-010
1.159401e-010
2.676160e-011
-7.140811e-011
-1.659454e-010
-2.342839e-010
-2.461434e-010
-1.741443e-010
-1.042167e-011
2.157575e-010
4.261803e-010
5.052624e-010
3.561844e-010
-1.232248e-011
-4.368085e-010
-6.579364e-010
-4.823347e-010
4.505685e-011
5.886898e-010
7.017193e-010
2.141359e-010
-4.832972e-010
-6.997200e-010
-1.842481e-010
4.887873e-010
5.424768e-010
-2.986206e-011
-4.647157e-010
-2.654009e-010
1.850233e-010
2.797200e-010
3.896982e-011
-1.050591e-010
-5.653009e-011
-1.437850e-010
-1.738283e-011
1.003124e-010
8.668907e-011
-3.788709e-011
-1.043524e-010
-2.349694e-011
7.860418e-011
5.760064e-011
-3.278510e-011
-5.206163e-011
3.045319e-012
3.089815e-011
5.995512e-012
-1.149892e-011
-1.412664e-012
-5.204469e-014
-1.419009e-011
-1.035638e-011
1.840473e-011
3.967233e-011
3.340531e-011
1.402501e-011
2.584880e-012
7.001807e-012
2.981925e-011
7.330978e-011
1.327737e-010
1.964941e-010
2.551424e-010
3.068671e-010
3.546800e-010
4.026570e-010
4.541890e-010
5.117756e-010
5.769357e-010
6.493304e-010
7.264177e-010
8.046232e-010
8.809103e-010
9.536039e-010
1.021933e-009
1.084810e-009
1.140657e-009
1.188295e-009
1.227208e-009
1.257195e-009
1.278277e-009
1.290628e-009
1.294312e-009
1.289128e-009
1.274714e-009
1.250689e-009
1.216781e-009
1.173285e-009
1.121338e-009
1.062168e-009
9.964582e-010
9.249799e-010
8.493926e-010
7.725597e-010
6.982996e-010
6.299691e-010
5.697184e-010
5.200205e-010
4.838390e-010
4.611955e-010
4.462122e-010
4.269749e-010
3.864846e-010
3.053934e-010
1.689862e-010
-2.167715e-011
-2.369872e-010
-4.112146e-010
-4.545505e-010
-2.970548e-010
4.815536e-011
4.461346e-010
6.718433e-010
5.272335e-010
7.552527e-012
-5.945708e-010
-8.102743e-010
-3.770478e-010
4.128872e-010
8.551460e-010
4.976569e-010
-3.286430e-010
-7.873020e-010
-4.164341e-010
3.542360e-010
6.679791e-010
2.056642e-010
-4.429113e-010
-4.839740e-010
9.096353e-011
4.909902e-010
1.846971e-010
-3.676392e-010
2.357281e-010
-4.108263e-011
-1.454287e-010
-1.137147e-011
8.044686e-011
8.599876e-012
-5.071266e-011
9.190378e-012
5.696080e-011
-1.474651e-012
-5.797038e-011
-1.756439e-011
4.069027e-011
2.341960e-011
-2.552362e-011
-2.664968e-011
8.018452e-012
2.631529e-011
2.413183e-011
2.244864e-011
1.851838e-011
5.794455e-012
3.652852e-012
3.493839e-011
9.572695e-011
1.653708e-010
2.307935e-010
2.899911e-010
3.445691e-010
3.992189e-010
4.629099e-010
5.440499e-010
6.449408e-010
7.619002e-010
8.890938e-010
1.020787e-009
1.150991e-009
1.273736e-009
1.384885e-009
1.482984e-009
1.568077e-009
1.640098e-009
1.698485e-009
1.743107e-009
1.774941e-009
1.795606e-009
1.806620e-009
1.809180e-009
1.804266e-009
1.792753e-009
1.775406e-009
1.752804e-009
1.725065e-009
1.691335e-009
1.650018e-009
1.599807e-009
1.540001e-009
1.469852e-009
1.387954e-009
1.292411e-009
1.182543e-009
1.060570e-009
9.303154e-010
7.951603e-010
6.597664e-010
5.332006e-010
4.285433e-010
3.596070e-010
3.373551e-010
3.658676e-010
4.362511e-010
5.186292e-010
5.584531e-010
4.886566e-010
2.631528e-010
-9.910484e-011
-4.847969e-010
-7.024100e-010
-5.689079e-010
-5.712008e-011
5.878657e-010
9.198063e-010
6.090021e-010
-2.035109e-010
-8.917436e-010
-8.243583e-010
4.776612e-012
8.309874e-010
7.869887e-010
-1.213633e-010
-8.588039e-010
-5.150736e-010
4.616081e-010
7.491266e-010
-1.230850e-011
-6.579442e-010
-2.529914e-010
4.656365e-010
3.259211e-010
-3.485088e-010
4.788152e-010
-5.131617e-011
-3.276482e-010
-1.028443e-010
1.926682e-010
1.521774e-010
-7.216713e-011
-1.208743e-010
8.455928e-012
6.554112e-011
-4.182207e-013
-3.254598e-011
1.159340e-011
2.665003e-011
-1.304185e-011
-2.455524e-011
1.493932e-011
3.964606e-011
2.001746e-011
-1.299799e-012
1.117555e-011
5.038496e-011
1.036696e-010
1.696217e-010
2.403135e-010
3.028070e-010
3.597971e-010
4.298957e-010
5.289083e-010
6.608121e-010
8.218904e-010
1.003741e-009
1.193313e-009
1.376149e-009
1.541287e-009
1.682336e-009
1.795409e-009
1.878396e-009
1.931760e-009
1.957943e-009
1.959477e-009
1.938494e-009
1.898158e-009
1.843592e-009
1.780898e-009
1.715817e-009
1.653407e-009
1.598019e-009
1.553240e-009
1.521978e-009
1.506301e-009
1.507307e-009
1.525017e-009
1.557516e-009
1.600232e-009
1.646768e-009
1.690538e-009
1.725787e-009
1.747077e-009
1.747751e-009
1.720609e-009
1.661314e-009
1.569318e-009
1.444599e-009
1.285652e-009
1.092121e-009
8.688671e-010
6.277487e-010
3.883309e-010
1.808362e-010
4.788475e-011
3.481430e-011
1.651955e-010
4.111779e-010
6.740558e-010
7.946924e-010
6.176871e-010
1.094560e-010
-5.375505e-010
-9.370889e-010
-7.428759e-010
3.026070e-011
8.717407e-010
1.063687e-009
3.171137e-010
-7.749373e-010
-1.122949e-009
-2.876966e-010
8.361624e-010
9.316285e-010
-7.243846e-011
-8.388539e-010
-4.319514e-010
4.183866e-010
5.057254e-010
-7.874570e-011
-3.406212e-010
-5.592064e-011
1.317325e-010
1.956796e-011
1.394620e-010
7.727003e-012
-1.231599e-010
-7.844404e-011
1.007480e-010
1.360372e-010
-4.202053e-011
-1.491477e-010
-2.548932e-011
1.093910e-010
5.875599e-011
-5.006225e-011
-4.425004e-011
2.020971e-011
2.589035e-011
-2.317384e-012
3.634755e-012
2.412316e-011
2.273573e-011
2.988129e-011
8.377327e-011
1.652392e-010
2.368850e-010
2.967269e-010
3.668141e-010
4.641102e-010
5.991130e-010
7.787859e-010
9.971839e-010
1.233086e-009
1.461170e-009
1.660900e-009
1.817026e-009
1.918674e-009
1.959238e-009
1.934805e-009
1.842604e-009
1.681767e-009
1.454730e-009
1.167155e-009
8.273751e-010
4.470673e-010
4.222016e-011
-3.681356e-010
-7.649153e-010
-1.130334e-009
-1.447442e-009
-1.700617e-009
-1.876832e-009
-1.966437e-009
-1.964135e-009
-1.869487e-009
-1.686140e-009
-1.421638e-009
-1.088437e-009
-7.043897e-010
-2.915082e-010
1.273737e-010
5.317758e-010
9.030960e-010
1.223089e-009
1.476946e-009
1.658500e-009
1.769824e-009
1.815028e-009
1.795889e-009
1.712393e-009
1.562392e-009
1.338593e-009
1.032219e-009
6.490608e-010
2.294643e-010
-1.402476e-010
-3.369376e-010
-2.468002e-010
1.485456e-010
6.903825e-010
1.051655e-009
8.977479e-010
1.558974e-010
-7.895887e-010
-1.229732e-009
-6.802290e-010
5.208293e-010
1.286774e-009
7.900749e-010
-5.124688e-010
-1.199448e-009
-4.977889e-010
7.111435e-010
9.433053e-010
1.320925e-012
-8.145165e-010
-4.837391e-010
4.188154e-010
6.341547e-010
-3.110677e-011
-5.597935e-010
-2.328210e-010
4.083803e-010
-5.963096e-010
1.462169e-010
3.866951e-010
5.334295e-012
-2.218921e-010
-3.864767e-011
1.020571e-010
5.386270e-012
-4.974417e-011
3.783921e-011
5.758289e-011
-3.830482e-011
-6.704327e-011
1.388027e-011
5.961303e-011
2.119698e-011
-4.997419e-012
2.971019e-011
8.186614e-011
1.292637e-010
1.935588e-010
2.767367e-010
3.637385e-010
4.695986e-010
6.292909e-010
8.526451e-010
1.116900e-009
1.389461e-009
1.639584e-009
1.837893e-009
1.958133e-009
1.978684e-009
1.879817e-009
1.640975e-009
1.241004e-009
6.611026e-010
-1.102335e-010
-1.072972e-009
-2.214401e-009
-3.509814e-009
-4.923423e-009
-6.409898e-009
-7.917113e-009
-9.390216e-009
-1.077547e-008
-1.202150e-008
-1.307954e-008
-1.390588e-008
-1.446472e-008
-1.472947e-008
-1.468477e-008
-1.432857e-008
-1.367200e-008
-1.273831e-008
-1.156239e-008
-1.019123e-008
-8.684435e-009
-7.110806e-009
-5.539718e-009
-4.034539e-009
-2.652538e-009
-1.443762e-009
-4.425891e-010
3.405069e-010
9.171249e-010
1.313291e-009
1.565441e-009
1.715983e-009
1.799106e-009
1.821790e-009
1.753773e-009
1.535654e-009
1.112326e-009
4.926578e-010
-1.905832e-010
-6.763046e-010
-6.787277e-010
-9.553265e-011
7.925210e-010
1.349628e-009
9.980431e-010
-1.832884e-010
-1.278906e-009
-1.231698e-009
3.166680e-011
1.277137e-009
1.135193e-009
-2.760318e-010
-1.289659e-009
-6.586118e-010
7.485868e-010
1.013553e-009
-1.440474e-010
-9.366898e-010
-2.266368e-010
7.274531e-010
3.813250e-010
-5.512500e-010
-4.245451e-010
4.555690e-010
-9.284775e-010
2.332785e-010
6.583992e-010
2.529661e-011
-4.633556e-010
-1.547910e-010
2.746103e-010
1.821327e-010
-1.136875e-010
-1.222448e-010
3.372661e-011
4.672808e-011
-2.405083e-011
-2.957910e-012
5.497909e-011
4.314864e-011
2.191392e-011
7.789530e-011
1.740482e-010
2.485412e-010
3.215766e-010
4.424932e-010
6.241561e-010
8.607979e-010
1.146636e-009
1.455616e-009
1.737286e-009
1.941738e-009
2.030877e-009
1.964485e-009
1.686968e-009
1.128834e-009
2.161475e-010
-1.120311e-009
-2.937015e-009
-5.267982e-009
-8.115432e-009
-1.144727e-008
-1.520125e-008
-1.928919e-008
-2.360045e-008
-2.800814e-008
-3.237665e-008
-3.656797e-008
-4.044664e-008
-4.388348e-008
-4.675946e-008
-4.897138e-008
-5.043595e-008
-5.109115e-008
-5.089905e-008
-4.985039e-008
-4.796794e-008
-4.530774e-008
-4.195732e-008
-3.803211e-008
-3.367436e-008
-2.905147e-008
-2.434445e-008
-1.972978e-008
-1.536819e-008
-1.140163e-008
-7.945926e-009
-5.076141e-009
-2.818515e-009
-1.155145e-009
-2.903355e-011
6.567799e-010
1.034831e-009
1.253195e-009
1.440008e-009
1.658059e-009
1.863711e-009
1.901028e-009
1.570065e-009
7.823519e-010
-2.624155e-010
-1.044116e-009
-9.956211e-010
-1.224784e-011
1.223649e-009
1.598820e-009
5.747020e-010
-1.035000e-009
-1.599106e-009
-4.108823e-010
1.223106e-009
1.311173e-009
-2.440844e-010
-1.327870e-009
-5.048961e-010
8.787344e-010
7.776700e-010
-4.027589e-010
-6.929873e-010
1.210974e-010
4.684629e-010
-5.030407e-011
-2.581258e-010
1.144142e-010
-2.579975e-010
7.561956e-011
2.339526e-010
3.647217e-012
-2.409140e-010
-8.298928e-011
2.214063e-010
1.598327e-010
-1.449575e-010
-1.844228e-010
4.808584e-011
1.444846e-010
2.445599e-011
-4.440460e-011
2.395149e-011
8.591153e-011
1.028948e-010
1.646614e-010
2.851818e-010
4.120342e-010
5.607875e-010
7.916946e-010
1.105834e-009
1.446501e-009
1.759487e-009
1.999658e-009
2.103541e-009
1.982683e-009
1.525884e-009
5.901404e-010
-1.001268e-009
-3.437044e-009
-6.886706e-009
-1.147980e-008
-1.729522e-008
-2.435026e-008
-3.259144e-008
-4.189663e-008
-5.208482e-008
-6.292376e-008
-7.413786e-008
-8.542232e-008
-9.645865e-008
-1.069265e-007
-1.165142e-007
-1.249288e-007
-1.319064e-007
-1.372201e-007
-1.406874e-007
-1.421732e-007
-1.415954e-007
-1.389314e-007
-1.342257e-007
-1.275964e-007
-1.192378e-007
-1.094117e-007
-9.843760e-008
-8.668747e-008
-7.457278e-008
-6.251443e-008
-5.090749e-008
-4.009949e-008
-3.037809e-008
-2.195313e-008
-1.494011e-008
-9.363470e-009
-5.175003e-009
-2.266636e-009
-4.716247e-010
4.377252e-010
7.481883e-010
7.895969e-010
8.816972e-010
1.224578e-009
1.765188e-009
2.151960e-009
1.909213e-009
8.343990e-010
-6.326784e-010
-1.494191e-009
-9.456505e-010
6.771852e-010
1.834251e-009
1.181758e-009
-7.370742e-010
-1.753548e-009
-6.220053e-010
1.189272e-009
1.296419e-009
-2.983918e-010
-1.237216e-009
-3.225490e-010
8.488503e-010
5.778936e-010
-4.350534e-010
-5.899837e-010
1.036648e-010
4.809320e-010
1.394657e-010
-3.218171e-010
1.040783e-009
-3.350058e-010
-6.646916e-010
9.178323e-011
4.042073e-010
1.916890e-011
-1.762483e-010
-1.924343e-011
2.315483e-011
-4.358666e-011
3.158165e-011
1.144046e-010
2.806300e-011
-5.366307e-011
3.459976e-011
1.710601e-010
2.344270e-010
3.029892e-010
4.662946e-010
7.022712e-010
9.839845e-010
1.325742e-009
1.700498e-009
2.017728e-009
2.178734e-009
2.077825e-009
1.544384e-009
3.169734e-010
-1.934453e-009
-5.581019e-009
-1.100984e-008
-1.858554e-008
-2.860748e-008
-4.128119e-008
-5.670019e-008
-7.482614e-008
-9.547475e-008
-1.183203e-007
-1.429124e-007
-1.686943e-007
-1.950275e-007
-2.212257e-007
-2.465887e-007
-2.704267e-007
-2.920826e-007
-3.109516e-007
-3.264958e-007
-3.382551e-007
-3.458570e-007
-3.490268e-007
-3.475990e-007
-3.415279e-007
-3.308962e-007
-3.159295e-007
-2.970092e-007
-2.746696e-007
-2.495783e-007
-2.225150e-007
-1.943509e-007
-1.660067e-007
-1.383849e-007
-1.123021e-007
-8.844436e-008
-6.732862e-008
-4.926633e-008
-3.435157e-008
-2.249067e-008
-1.345674e-008
-6.945611e-009
-2.622693e-009
-1.457821e-010
8.595955e-010
8.651056e-010
4.732262e-010
3.182092e-010
7.973130e-010
1.757089e-009
2.439193e-009
1.975504e-009
2.840331e-010
-1.456506e-009
-1.632224e-009
4.896910e-011
1.812532e-009
1.555398e-009
-5.012178e-010
-1.788232e-009
-6.658041e-010
1.227090e-009
1.220381e-009
-4.958586e-010
-1.242206e-009
-3.680412e-011
1.019795e-009
3.086304e-010
-7.785418e-010
-4.118257e-010
6.112689e-010
4.591324e-010
-5.108784e-010
1.786158e-009
-6.798412e-010
-1.208298e-009
3.032586e-010
8.928990e-010
-6.156455e-011
-6.118494e-010
-7.896088e-011
3.500082e-010
1.211157e-010
-1.225074e-010
-3.553078e-011
6.886282e-011
5.885332e-011
1.195055e-010
2.742012e-010
3.997693e-010
5.292322e-010
7.828455e-010
1.154117e-009
1.552841e-009
1.923839e-009
2.204835e-009
2.243772e-009
1.795258e-009
5.174687e-010
-2.070757e-009
-6.597839e-009
-1.378734e-008
-2.439855e-008
-3.918023e-008
-5.881329e-008
-8.383907e-008
-1.145924e-007
-1.511470e-007
-1.932736e-007
-2.404277e-007
-2.917730e-007
-3.462286e-007
-4.025270e-007
-4.592834e-007
-5.150712e-007
-5.684829e-007
-6.181752e-007
-6.629053e-007
-7.015573e-007
-7.331574e-007
-7.568818e-007
-7.720653e-007
-7.782149e-007
-7.750286e-007
-7.624143e-007
-7.405042e-007
-7.096747e-007
-6.705768e-007
-6.241562e-007
-5.716428e-007
-5.145132e-007
-4.544500e-007
-3.932854e-007
-3.328986e-007
-2.750810e-007
-2.214141e-007
-1.731706e-007
-1.312268e-007
-9.599880e-008
-6.744008e-008
-4.510445e-008
-2.825583e-008
-1.601409e-008
-7.523334e-009
-2.087936e-009
8.067569e-010
1.633549e-009
1.061507e-009
9.016892e-011
-1.910781e-010
7.313548e-010
2.197865e-009
2.687407e-009
1.263204e-009
-1.076380e-009
-1.999248e-009
-4.320100e-010
1.752623e-009
1.726088e-009
-5.041621e-010
-1.834531e-009
-4.470392e-010
1.405931e-009
8.969071e-010
-8.923776e-010
-9.562099e-010
5.238305e-010
8.249011e-010
-3.337468e-010
-6.364422e-010
2.897204e-010
4.655901e-010
-3.424376e-010
1.034253e-009
-5.158077e-010
-7.184999e-010
3.663080e-010
6.249621e-010
-2.286425e-010
-5.614861e-010
7.978165e-011
4.715297e-010
7.325604e-011
-2.881419e-010
-8.470373e-011
2.226346e-010
2.459652e-010
2.169896e-010
3.744040e-010
6.282550e-010
9.003009e-010
1.266822e-009
1.729299e-009
2.145118e-009
2.352972e-009
2.154898e-009
1.168394e-009
-1.236280e-009
-5.915952e-009
-1.395089e-008
-2.663717e-008
-4.542539e-008
-7.182384e-008
-1.072847e-007
-1.530599e-007
-2.100348e-007
-2.785776e-007
-3.584357e-007
-4.486997e-007
-5.478413e-007
-6.538151e-007
-7.641951e-007
-8.763281e-007
-9.874915e-007
-1.095032e-006
-1.196460e-006
-1.289514e-006
-1.372197e-006
-1.442791e-006
-1.499852e-006
-1.542194e-006
-1.568875e-006
-1.579198e-006
-1.572713e-006
-1.549252e-006
-1.508952e-006
-1.452290e-006
-1.380137e-006
-1.293819e-006
-1.195171e-006
-1.086527e-006
-9.706815e-007
-8.508274e-007
-7.304329e-007
-6.130276e-007
-5.019471e-007
-4.000933e-007
-3.097230e-007
-2.322761e-007
-1.682885e-007
-1.174170e-007
-7.855288e-008
-5.000400e-008
-2.975012e-008
-1.577572e-008
-6.424240e-009
-6.397651e-010
2.096099e-009
2.233754e-009
7.807494e-010
-5.676092e-010
-3.029132e-010
1.510936e-009
2.930219e-009
1.996438e-009
-7.054523e-010
-2.169136e-009
-6.103710e-010
1.796206e-009
1.627124e-009
-7.694141e-010
-1.708632e-009
3.939516e-011
1.408936e-009
3.324292e-010
-1.003872e-009
-4.117283e-010
6.536818e-010
3.365149e-010
-3.811644e-010
-1.980245e-010
1.597334e-010
3.103930e-011
-9.708742e-010
2.930586e-010
6.236500e-010
-2.993120e-011
-3.623023e-010
-1.125828e-010
1.223488e-010
1.629022e-010
9.369651e-011
-8.395235e-011
-1.534456e-010
8.244612e-011
3.459700e-010
3.491114e-010
3.204232e-010
5.697486e-010
1.010816e-009
1.445496e-009
1.873342e-009
2.286725e-009
2.449573e-009
1.949549e-009
1.978156e-010
-3.742431e-009
-1.126312e-008
-2.418577e-008
-4.473144e-008
-7.549565e-008
-1.193287e-007
-1.790931e-007
-2.573439e-007
-3.559775e-007
-4.759009e-007
-6.167886e-007
-7.769845e-007