# vtk DataFile Version 3.0
vtk output
ASCII
DATASET STRUCTURED_POINTS
DIMENSIONS 100 100 1
SPACING 1 1 1
ORIGIN 0 0 0
POINT_DATA 10000
SCALARS SFBox_profile double
LOOKUP_TABLE default 
0.000000e+000
0.000000e+000
0.000000e+000
0.000000e+000
0.000000e+000
0.000000e+000
0.000000e+000
0.000000e+000
0.000000e+000
0.000000e+000
0.000000e+000
0.000000e+000
0.000000e+000
0.000000e+000
0.000000e+000
0.000000e+000
0.000000e+000
0.000000e+000
0.000000e+000
0.000000e+000
0.000000e+000
0.000000e+000
0.000000e+000
0.000000e+000
0.000000e+000
0.000000e+000
0.000000e+000
0.000000e+000
0.000000e+000
0.000000e+000
0.000000e+000
0.000000e+000
0.000000e+000
0.000000e+000
0.000000e+000
0.000000e+000
0.000000e+000
0.000000e+000
0.000000e+000
0.000000e+000
0.000000e+000
0.000000e+000
0.000000e+000
0.000000e+000
0.000000e+000
0.000000e+000
0.000000e+000
0.000000e+000
0.000000e+000
0.000000e+000
0.000000e+000
0.000000e+000
0.000000e+000
0.000000e+000
0.000000e+000
0.000000e+000
0.000000e+000
0.000000e+000
0.000000e+000
0.000000e+000
0.000000e+000
0.000000e+000
0.000000e+000
0.000000e+000
0.000000e+000
0.000000e+000
0.000000e+000
0.000000e+000
0.000000e+000
0.000000e+000
0.000000e+000
0.000000e+000
0.000000e+000
0.000000e+000
0.000000e+000
0.000000e+000
0.000000e+000
0.000000e+000
0.000000e+000
0.000000e+000
0.000000e+000
0.000000e+000
0.000000e+000
0.000000e+000
0.000000e+000
0.000000e+000
0.000000e+000
0.000000e+000
0.000000e+000
0.000000e+000
0.000000e+000
0.000000e+000
0.000000e+000
0.000000e+000
0.000000e+000
0.000000e+000
0.000000e+000
0.000000e+000
0.000000e+000
0.000000e+000
4.862230e-008
3.098624e-008
5.791794e-009
-1.341490e-008
-1.821926e-008
-1.002233e-008
2.187786e-009
8.998540e-009
7.206994e-009
1.021029e-009
-2.733685e-009
-1.045647e-009
2.944684e-009
3.700249e-009
-6.773780e-010
-6.287666e-009
-7.459744e-009
-2.800715e-009
3.229960e-009
5.034445e-009
1.799229e-009
-1.898932e-009
-1.431156e-009
2.702234e-009
5.723069e-009
4.280890e-009
1.990590e-010
-2.043480e-009
-7.821452e-010
1.151477e-009
3.637268e-010
-2.733206e-009
-4.594642e-009
-3.124155e-009
-1.396139e-010
1.263278e-009
7.138361e-010
6.828636e-010
2.878872e-009
5.951642e-009
7.434113e-009
7.007027e-009
6.634798e-009
7.674562e-009
9.124059e-009
9.263361e-009
8.119410e-009
7.289717e-009
7.620140e-009
8.158719e-009
7.707855e-009
6.532314e-009
5.798576e-009
5.782880e-009
5.561511e-009
4.508468e-009
3.238084e-009
2.605645e-009
2.372731e-009
1.603928e-009
1.820503e-010
-8.885776e-010
-8.982172e-010
-4.666296e-010
-6.199197e-010
-1.235488e-009
-1.170923e-009
3.192444e-011
1.313759e-009
1.414317e-009
5.617992e-010
1.612806e-010
8.586813e-010
1.633580e-009
1.203590e-009
-1.318375e-010
-7.267874e-010
3.125898e-010
1.855910e-009
1.974927e-009
1.993463e-010
-1.918490e-009
-2.545576e-009
-1.501266e-009
-1.950210e-010
1.617090e-010
-1.260279e-010
1.522918e-010
1.416846e-009
2.540981e-009
1.944031e-009
-5.922676e-010
-3.309300e-009
-3.827156e-009
-1.322526e-009
2.483047e-009
4.559603e-009
3.092064e-009
-8.779882e-010
-4.199590e-009
2.382191e-009
9.305993e-010
-9.186545e-010
-1.812668e-009
-1.069334e-009
7.974599e-010
2.354934e-009
2.225373e-009
1.946743e-010
-2.388159e-009
-3.487452e-009
-2.088405e-009
7.346824e-010
2.631541e-009
2.168866e-009
2.620784e-010
-8.007820e-010
1.258322e-010
1.731857e-009
1.739653e-009
-3.868855e-010
-2.673132e-009
-2.842119e-009
-9.803446e-010
5.604777e-010
-1.334406e-012
-1.722781e-009
-2.140403e-009
-3.655221e-010
1.805534e-009
2.157235e-009
7.825236e-010
-2.123832e-010
4.433825e-010
1.561534e-009
1.171461e-009
-8.370056e-010
-2.636729e-009
-2.931620e-009
-2.553491e-009
-3.114037e-009
-4.721108e-009
-5.913256e-009
-5.746216e-009
-5.025271e-009
-5.056647e-009
-5.828472e-009
-6.178235e-009
-5.541731e-009
-4.699555e-009
-4.556454e-009
-4.852640e-009
-4.653639e-009
-3.770491e-009
-2.978669e-009
-2.800168e-009
-2.738556e-009
-2.086453e-009
-1.034083e-009
-3.996247e-010
-4.115661e-010
-3.907358e-010
1.898897e-010
8.615763e-010
8.122969e-010
9.538075e-011
-3.869234e-010
-1.336467e-010
2.613297e-010
-2.012769e-011
-8.127673e-010
-1.142116e-009
-5.619068e-010
1.924530e-010
1.452757e-010
-6.426302e-010
-1.153893e-009
-7.171018e-010
1.802074e-010
5.671354e-010
2.107104e-010
-1.728362e-010
1.015556e-010
8.080659e-010
1.087722e-009
4.724403e-010
-5.742381e-010
-1.150817e-009
-8.172579e-010
4.652700e-011
6.753763e-010
6.181621e-010
5.822415e-011
-4.346165e-010
-4.289715e-010
1.579037e-011
4.396861e-010
4.224733e-010
-1.938801e-011
-4.522449e-010
-4.498784e-008
-2.921735e-008
-6.503117e-009
1.123047e-008
1.647859e-008
1.026028e-008
8.763086e-011
-6.300255e-009
-6.333118e-009
-3.032705e-009
-8.467109e-010
-1.222530e-009
-1.989322e-009
-5.344370e-010
2.969471e-009
5.689199e-009
5.196575e-009
1.979782e-009
-1.227007e-009
-2.309243e-009
-1.612207e-009
-1.005587e-009
-1.616736e-009
-2.856658e-009
-3.472091e-009
-2.996471e-009
-1.927707e-009
-8.428364e-010
1.745028e-010
1.233039e-009
2.196427e-009
2.798631e-009
2.980387e-009
2.819343e-009
2.210292e-009
9.313953e-010
-9.140437e-010
-2.804387e-009
-4.329960e-009
-5.629132e-009
-7.054557e-009
-8.518291e-009
-9.495034e-009
-9.726081e-009
-9.607154e-009
-9.666845e-009
-9.869980e-009
-9.749169e-009
-9.156864e-009
-8.521491e-009
-8.231938e-009
-8.066763e-009
-7.515345e-009
-6.519543e-009
-5.551004e-009
-4.922535e-009
-4.346295e-009
-3.370885e-009
-2.047152e-009
-8.707395e-010
-1.225453e-010
4.266261e-010
1.060558e-009
1.619658e-009
1.686792e-009
1.167654e-009
4.368185e-010
-1.188869e-010
-4.921176e-010
-8.812770e-010
-1.282097e-009
-1.446734e-009
-1.224615e-009
-7.806652e-010
-4.317608e-010
-3.745903e-010
-6.120435e-010
-1.006545e-009
-1.278384e-009
-1.050841e-009
-1.307597e-010
1.169330e-009
2.130101e-009
2.201443e-009
1.464872e-009
4.372511e-010
-5.239492e-010
-1.426626e-009
-2.199571e-009
-2.286816e-009
-1.050802e-009
1.275629e-009
3.247440e-009
3.185181e-009
7.473900e-010
-2.453539e-009
-3.971612e-009
-2.524605e-009
8.666343e-010
3.618373e-009
-4.849298e-008
-3.023879e-008
-4.422047e-009
1.457969e-008
1.803462e-008
8.096983e-009
-4.784722e-009
-1.031145e-008
-5.997172e-009
2.081450e-009
5.752765e-009
2.377671e-009
-3.375884e-009
-4.934791e-009
-7.030794e-010
4.591645e-009
5.234366e-009
6.639743e-010
-4.157755e-009
-4.317976e-009
-1.634983e-010
3.501943e-009
2.970984e-009
-5.250728e-010
-2.777628e-009
-1.601371e-009
1.066898e-009
1.986800e-009
4.949999e-010
-1.160693e-009
-9.107830e-010
7.442025e-010
1.747955e-009
1.172422e-009
1.132405e-010
3.161033e-011
9.675321e-010
1.783911e-009
1.765350e-009
1.384953e-009
1.480066e-009
2.158259e-009
2.813835e-009
2.996759e-009
2.896574e-009
2.947605e-009
3.239880e-009
3.489108e-009
3.456698e-009
3.203284e-009
2.934289e-009
2.749839e-009
2.610585e-009
2.452866e-009
2.240852e-009
1.943727e-009
1.563562e-009
1.199737e-009
9.990378e-010
9.849273e-010
9.898297e-010
8.400844e-010
5.950327e-010
5.006744e-010
6.556953e-010
8.108208e-010
6.267651e-010
1.281396e-010
-2.463592e-010
-1.510720e-010
1.999953e-010
2.602739e-010
-1.242527e-010
-4.193800e-010
-3.729756e-011
7.979332e-010
1.110280e-009
2.767641e-010
-1.078388e-009
-1.593605e-009
-6.574466e-010
8.313179e-010
1.409395e-009
6.767441e-010
-3.011325e-010
-3.274507e-010
4.301251e-010
6.188383e-010
-5.684584e-010
-2.144236e-009
-2.164383e-009
9.545920e-011
2.998315e-009
3.843406e-009
1.460117e-009
-2.458417e-009
-4.667468e-009
-3.188290e-009
9.093740e-010
4.343172e-009
-7.077335e-009
-2.825694e-009
2.780700e-009
5.697291e-009
3.511191e-009
-2.414169e-009
-7.381276e-009
-6.809446e-009
-3.281897e-010
7.256460e-009
9.716021e-009
4.979663e-009
-2.763890e-009
-6.912807e-009
-4.773021e-009
5.055231e-011
1.808379e-009
-1.079881e-009
-4.479736e-009
-3.493432e-009
1.758543e-009
6.221515e-009
5.735122e-009
1.717569e-009
-7.760059e-010
8.652352e-010
3.946220e-009
4.063432e-009
4.938103e-010
-3.195646e-009
-3.686456e-009
-1.688334e-009
-4.618468e-010
-1.431454e-009
-2.601484e-009
-1.440311e-009
1.852265e-009
4.829781e-009
5.997775e-009
6.383473e-009
7.719817e-009
1.001595e-008
1.171487e-008
1.188582e-008
1.133162e-008
1.131695e-008
1.190733e-008
1.214025e-008
1.151236e-008
1.059605e-008
1.009721e-008
9.886090e-009
9.342854e-009
8.331072e-009
7.313306e-009
6.551257e-009
5.699432e-009
4.406184e-009
2.949900e-009
1.892253e-009
1.260526e-009
5.330058e-010
-4.880180e-010
-1.217340e-009
-1.020665e-009
-1.671219e-010
4.053972e-010
2.963074e-010
1.667726e-010
7.759147e-010
1.790285e-009
2.058105e-009
1.120017e-009
-1.958565e-011
-2.241564e-014
1.202908e-009
2.151894e-009
1.633598e-009
1.063937e-010
-8.841986e-010
-6.043872e-010
7.614343e-012
-4.051338e-010
-1.785431e-009
-2.526024e-009
-1.291545e-009
1.286527e-009
3.035418e-009
2.396417e-009
3.182564e-012
-1.963366e-009
-1.904522e-009
-2.185176e-010
1.299822e-009
1.281082e-009
-2.903523e-011
-1.216150e-009
-1.139509e-009
5.678164e-011
1.191700e-009
3.797857e-008
2.482714e-008
6.272199e-009
-7.865744e-009
-1.232480e-008
-8.755296e-009
-2.607791e-009
1.872729e-009
3.939739e-009
4.723846e-009
4.587020e-009
2.788067e-009
-5.982868e-010
-3.581403e-009
-3.946588e-009
-1.858039e-009
1.071432e-010
-5.951722e-011
-1.370615e-009
-1.180252e-009
1.220184e-009
3.390680e-009
2.731521e-009
-1.415305e-011
-1.411766e-009
4.001035e-010
3.213720e-009
3.382335e-009
3.739240e-010
-2.550669e-009
-2.415815e-009
-1.271271e-010
9.623707e-010
-5.139732e-010
-2.320140e-009
-1.742605e-009
8.575942e-010
2.691786e-009
2.259760e-009
1.077535e-009
1.340310e-009
2.949572e-009
3.877721e-009
3.063686e-009
1.735415e-009
1.550674e-009
2.382089e-009
2.765138e-009
2.093853e-009
1.354228e-009
1.545250e-009
2.251505e-009
2.376325e-009
1.784771e-009
1.403240e-009
1.745460e-009
2.138256e-009
1.764980e-009
9.006416e-010
4.806524e-010
6.792534e-010
6.537002e-010
-1.397181e-010
-1.012818e-009
-9.293639e-010
1.584894e-011
6.653088e-010
3.799412e-010
-7.978218e-011
3.509760e-010
1.456444e-009
1.882393e-009
8.921103e-010
-5.805986e-010
-9.947998e-010
-3.062310e-011
1.119268e-009
1.267649e-009
5.690448e-010
6.669350e-011
2.020570e-010
2.688856e-010
-5.441041e-010
-1.915456e-009
-2.534378e-009
-1.472158e-009
7.859001e-010
2.723319e-009
3.075714e-009
1.717545e-009
-4.680356e-010
-2.294647e-009
-2.865997e-009
-1.874511e-009
2.364442e-010
2.309403e-009
2.995590e-009
1.689210e-009
-8.355209e-010
-2.819471e-009
4.586185e-008
2.702118e-008
1.490130e-009
-1.529827e-008
-1.560058e-008
-4.045679e-009
7.381065e-009
9.557716e-009
2.910699e-009
-4.777260e-009
-6.567137e-009
-2.407443e-009
2.325454e-009
3.221748e-009
9.670108e-010
-6.504616e-010
3.760887e-010
2.376993e-009
2.667925e-009
8.415121e-010
-1.280430e-009
-2.258606e-009
-2.428938e-009
-2.610143e-009
-2.550255e-009
-1.516749e-009
9.231408e-011
8.861783e-010
4.450549e-010
1.871551e-010
1.536865e-009
3.752138e-009
4.589161e-009
3.158789e-009
1.122126e-009
4.812114e-010
9.117197e-010
2.963542e-010
-2.271825e-009
-5.163215e-009
-6.363771e-009
-6.084603e-009
-6.258127e-009
-7.757145e-009
-9.269246e-009
-9.271514e-009
-8.170300e-009
-7.612076e-009
-8.112848e-009
-8.450568e-009
-7.563042e-009
-6.088494e-009
-5.361702e-009
-5.450160e-009
-5.116882e-009
-3.676717e-009
-1.978262e-009
-1.132666e-009
-9.326957e-010
-2.722943e-010
1.120579e-009
2.214925e-009
2.137224e-009
1.410467e-009
1.189407e-009
1.627999e-009
1.723780e-009
8.244098e-010
-3.682474e-010
-6.964394e-010
-7.296717e-011
4.393034e-010
2.144629e-011
-9.382393e-010
-1.468926e-009
-1.224785e-009
-6.929563e-010
-3.630310e-010
-1.467707e-010
2.600123e-010
7.839121e-010
1.038684e-009
8.521561e-010
4.296758e-010
-5.721780e-012
-4.356657e-010
-7.677148e-010
-6.087995e-010
2.996642e-010
1.405017e-009
1.501545e-009
-4.554709e-011
-2.247737e-009
-3.033226e-009
-1.196394e-009
2.128669e-009
4.157547e-009
2.909497e-009
-8.404204e-010
-4.057139e-009
1.433476e-008
5.410883e-009
-5.860160e-009
-1.097706e-008
-5.943067e-009
5.169972e-009
1.295283e-008
1.036620e-008
-8.800112e-010
-1.147161e-008
-1.278108e-008
-4.670408e-009
4.883846e-009
7.923424e-009
3.949163e-009
-8.525626e-010
-1.067542e-009
2.382379e-009
4.334021e-009
1.871816e-009
-2.600935e-009
-4.711986e-009
-3.183494e-009
-6.093587e-010
1.826669e-010
-7.929916e-010
-1.510158e-009
-7.376891e-010
9.392137e-010
2.476422e-009
3.614959e-009
4.493277e-009
4.877599e-009
4.490260e-009
3.727209e-009
3.271961e-009
3.014938e-009
2.083376e-009
2.087627e-010
-1.567840e-009
-2.111730e-009
-1.731497e-009
-1.763349e-009
-2.681636e-009
-3.433203e-009
-2.996788e-009
-1.924923e-009
-1.607639e-009
-2.304871e-009
-2.802063e-009
-2.184011e-009
-1.144317e-009
-9.484285e-010
-1.588864e-009
-1.803766e-009
-8.834050e-010
3.695848e-010
8.542301e-010
7.332951e-010
1.107326e-009
2.356250e-009
3.560481e-009
3.756632e-009
3.172466e-009
2.754643e-009
2.798697e-009
2.641976e-009
1.722887e-009
4.218968e-010
-4.098138e-010
-4.422920e-010
-6.316830e-011
2.348142e-010
2.807234e-010
6.996341e-011
-4.028137e-010
-9.584404e-010
-1.165582e-009
-7.752229e-010
-1.090869e-010
3.143429e-010
5.287687e-010
1.094252e-009
2.100938e-009
2.541690e-009
1.232472e-009
-1.528293e-009
-3.663846e-009
-3.159148e-009
-2.365310e-010
2.602883e-009
2.922669e-009
6.993665e-010
-1.749940e-009
-2.125277e-009
-3.323715e-010
1.626518e-009
1.770111e-009
6.170645e-011
-1.684725e-009
-2.404616e-008
-1.647988e-008
-6.107016e-009
1.922027e-009
5.924971e-009
7.151242e-009
6.496501e-009
3.257063e-009
-2.459433e-009
-7.427187e-009
-7.281308e-009
-1.407780e-009
5.233749e-009
6.551124e-009
1.708267e-009
-3.891366e-009
-4.534897e-009
-3.890000e-010
3.190647e-009
2.239109e-009
-1.307206e-009
-2.397930e-009
7.973336e-010
4.832143e-009
5.382605e-009
2.338566e-009
-5.249215e-010
-3.120432e-010
1.945599e-009
3.232869e-009
2.349398e-009
8.050757e-010
4.385245e-010
1.327403e-009
2.312472e-009
2.711814e-009
2.828024e-009
3.135992e-009
3.701975e-009
4.416940e-009
5.223725e-009
5.911599e-009
6.117576e-009
5.833534e-009
5.599621e-009
5.817614e-009
6.078815e-009
5.641338e-009
4.530108e-009
3.638620e-009
3.549886e-009
3.719258e-009
3.239842e-009
2.135595e-009
1.332315e-009
1.353859e-009
1.616279e-009
1.297952e-009
5.038150e-010
9.410278e-011
5.010428e-010
1.212501e-009
1.528239e-009
1.425740e-009
1.409908e-009
1.744873e-009
2.168105e-009
2.296601e-009
2.022783e-009
1.496463e-009
9.888776e-010
8.494352e-010
1.301516e-009
2.055424e-009
2.334410e-009
1.633320e-009
4.155386e-010
-3.030639e-010
-1.726901e-010
4.169943e-011
-4.601959e-010
-1.232116e-009
-9.381916e-010
8.423777e-010
2.620557e-009
2.333389e-009
-3.061072e-010
-3.178241e-009
-3.718369e-009
-1.406321e-009
1.819871e-009
3.477364e-009
2.656488e-009
3.852246e-010
-1.635718e-009
-2.371535e-009
-1.798059e-009
-4.786981e-010
9.014481e-010
1.762269e-009
-3.797232e-008
-1.995906e-008
2.529505e-009
1.417652e-008
1.035251e-008
-9.112304e-010
-8.047490e-009
-6.373584e-009
-9.007583e-011
4.236531e-009
4.423342e-009
2.851274e-009
1.773057e-009
5.544813e-010
-2.114845e-009
-5.018067e-009
-5.231852e-009
-2.053239e-009
1.528624e-009
2.276434e-009
7.625468e-010
5.673969e-010
3.452617e-009
6.813540e-009
6.876516e-009
3.549573e-009
5.997047e-010
9.327083e-010
3.091004e-009
3.340000e-009
4.151600e-010
-3.148842e-009
-4.405005e-009
-3.423282e-009
-2.622903e-009
-3.483108e-009
-5.059602e-009
-5.720333e-009
-5.313934e-009
-5.068651e-009
-5.903812e-009
-7.560152e-009
-9.285430e-009
-1.074903e-008
-1.208956e-008
-1.346938e-008
-1.489331e-008
-1.628625e-008
-1.748198e-008
-1.821504e-008
-1.835049e-008
-1.809520e-008
-1.778032e-008
-1.742809e-008
-1.673386e-008
-1.553525e-008
-1.410722e-008
-1.285586e-008
-1.184231e-008
-1.077077e-008
-9.388241e-009
-7.739703e-009
-6.047022e-009
-4.485176e-009
-3.091178e-009
-1.757825e-009
-3.021017e-010
1.284924e-009
2.589468e-009
3.002099e-009
2.423763e-009
1.620286e-009
1.542004e-009
2.235751e-009
2.744612e-009
2.287624e-009
1.278275e-009
7.891794e-010
1.074941e-009
1.120565e-009
-5.592446e-011
-1.945404e-009
-2.866207e-009
-1.803314e-009
4.043695e-010
1.909297e-009
1.688081e-009
3.155685e-010
-8.996037e-010
-1.150111e-009
-4.723184e-010
6.544976e-010
1.600112e-009
1.640339e-009
3.468298e-010
-1.711595e-009
-2.945697e-009
-2.002183e-009
7.243966e-010
3.096908e-009
-2.437666e-008
-8.135092e-009
1.075338e-008
1.698322e-008
6.721383e-009
-9.632371e-009
-1.733977e-008
-1.050636e-008
3.627427e-009
1.263145e-008
1.056882e-008
1.992568e-009
-4.449364e-009
-4.817299e-009
-1.924020e-009
-1.432403e-010
-3.260079e-010
-3.857102e-010
7.739780e-010
1.858372e-009
1.628811e-009
9.701261e-010
1.436099e-009
2.671690e-009
2.801247e-009
1.338121e-009
2.139960e-010
1.103077e-009
2.704990e-009
2.028193e-009
-1.801161e-009
-6.351127e-009
-9.014811e-009
-1.031534e-008
-1.306374e-008
-1.866357e-008
-2.549268e-008
-3.122293e-008
-3.570902e-008
-4.073407e-008
-4.737252e-008
-5.463970e-008
-6.089989e-008
-6.578623e-008
-7.015978e-008
-7.458015e-008
-7.852709e-008
-8.118132e-008
-8.242571e-008
-8.275094e-008
-8.243676e-008
-8.121549e-008
-7.874255e-008
-7.510202e-008
-7.068903e-008
-6.573437e-008
-6.015757e-008
-5.391557e-008
-4.733232e-008
-4.092318e-008
-3.490868e-008
-2.907377e-008
-2.322590e-008
-1.767836e-008
-1.303861e-008
-9.465701e-009
-6.389164e-009
-3.216014e-009
-2.159545e-010
1.640303e-009
1.848430e-009
1.112177e-009
6.533317e-010
9.077888e-010
1.247745e-009
1.034341e-009
5.635137e-010
6.502894e-010
1.437584e-009
2.034434e-009
1.477635e-009
-1.732102e-010
-1.864939e-009
-2.513639e-009
-1.761645e-009
1.215949e-011
1.984478e-009
3.090594e-009
2.434965e-009
1.033652e-010
-2.393920e-009
-3.042512e-009
-1.200092e-009
1.494267e-009
2.514780e-009
9.882147e-010
-1.346542e-009
-1.975636e-009
-3.356695e-010
1.607117e-009
-1.563497e-009
3.313134e-009
8.373301e-009
7.994572e-009
7.162817e-010
-8.505418e-009
-1.181760e-008
-5.694449e-009
4.898433e-009
1.047853e-008
6.137369e-009
-3.474836e-009
-8.890510e-009
-5.451045e-009
2.536788e-009
7.247294e-009
5.682738e-009
1.583650e-009
-1.502967e-010
1.018859e-009
2.004766e-009
8.234983e-010
-1.244278e-009
-2.067836e-009
-1.507940e-009
-9.674675e-010
-1.184893e-009
-1.859756e-009
-3.203246e-009
-6.407780e-009
-1.203370e-008
-1.895828e-008
-2.591265e-008
-3.357879e-008
-4.400802e-008
-5.785660e-008
-7.322658e-008
-8.782064e-008
-1.015272e-007
-1.159716e-007
-1.317828e-007
-1.473696e-007
-1.607457e-007
-1.717621e-007
-1.817736e-007
-1.914272e-007
-1.996695e-007
-2.051355e-007
-2.078197e-007
-2.087915e-007
-2.085466e-007
-2.063212e-007
-2.011811e-007
-1.932760e-007
-1.835883e-007
-1.726557e-007
-1.600736e-007
-1.454172e-007
-1.292720e-007
-1.129557e-007
-9.730767e-008
-8.216968e-008
-6.722648e-008
-5.302727e-008
-4.075513e-008
-3.099570e-008
-2.312289e-008
-1.613008e-008
-9.846265e-009
-5.005252e-009
-2.164869e-009
-9.162559e-010
-3.149483e-010
1.686353e-010
4.140686e-010
2.528154e-010
-4.527453e-011
-1.425643e-012
5.697319e-010
1.438012e-009
2.176181e-009
2.315523e-009
1.469685e-009
-2.679823e-010
-1.927416e-009
-2.080195e-009
-1.857075e-010
2.421617e-009
3.342577e-009
1.360735e-009
-2.099482e-009
-4.067246e-009
-2.808969e-009
5.005264e-010
2.971770e-009
2.805533e-009
7.914092e-010
-9.077746e-010
-1.134426e-009
-6.220034e-010
1.541850e-008
6.395280e-009
-3.626229e-009
-6.885781e-009
-3.077395e-009
2.086834e-009
4.014826e-009
3.132615e-009
1.926250e-009
5.724986e-010
-2.465687e-009
-6.311302e-009
-6.879210e-009
-1.670735e-009
5.947624e-009
9.389978e-009
6.024842e-009
1.516960e-010
-2.051561e-009
5.604096e-010
3.614832e-009
3.106353e-009
-1.135715e-010
-2.403750e-009
-2.433844e-009
-2.647936e-009
-6.026671e-009
-1.302816e-008
-2.228041e-008
-3.309622e-008
-4.616567e-008
-6.224422e-008
-8.138575e-008
-1.036067e-007
-1.292487e-007
-1.580526e-007
-1.885164e-007
-2.190058e-007
-2.492896e-007
-2.801692e-007
-3.115199e-007
-3.415219e-007
-3.683194e-007
-3.918825e-007
-4.134627e-007
-4.333643e-007
-4.500858e-007
-4.619583e-007
-4.689791e-007
-4.723681e-007
-4.725673e-007
-4.684643e-007
-4.588265e-007
-4.439072e-007
-4.250760e-007
-4.030972e-007
-3.774620e-007
-3.476369e-007
-3.144775e-007
-2.799129e-007
-2.453865e-007
-2.111421e-007
-1.771902e-007
-1.445160e-007
-1.148661e-007
-8.941799e-008
-6.804579e-008
-4.996972e-008
-3.478114e-008
-2.260057e-008
-1.348204e-008
-7.061086e-009
-2.800946e-009
-2.691577e-010
9.451448e-010
1.322086e-009
1.202500e-009
6.728469e-010
-5.595706e-011
-2.823381e-010
7.007100e-010
2.548868e-009
3.670882e-009
2.622612e-009
-2.039589e-010
-2.624748e-009
-2.682902e-009
-5.795233e-010
1.561550e-009
1.819311e-009
2.350723e-010
-1.486284e-009
-1.769905e-009
-5.326997e-010
1.042097e-009
1.753011e-009
1.305645e-009
2.361789e-010
-7.574206e-010
-1.294801e-009
2.531666e-008
6.543961e-009
-1.359486e-008
-1.757364e-008
-4.284328e-009
1.171320e-008
1.592635e-008
7.242300e-009
-3.995230e-009
-8.394118e-009
-5.658929e-009
-1.309012e-009
1.169494e-009
2.579775e-009
3.965247e-009
3.830348e-009
8.303039e-010
-2.760429e-009
-2.827197e-009
1.342127e-009
5.584740e-009
5.538310e-009
1.444181e-009
-3.157139e-009
-6.884622e-009
-1.287323e-008
-2.527901e-008
-4.489417e-008
-6.939769e-008
-9.721596e-008
-1.296395e-007
-1.689531e-007
-2.156681e-007
-2.682918e-007
-3.250733e-007
-3.849954e-007
-4.472617e-007
-5.108097e-007
-5.746605e-007
-6.381138e-007
-7.001318e-007
-7.589655e-007
-8.130057e-007
-8.618506e-007
-9.058997e-007
-9.447921e-007
-9.768390e-007
-1.000374e-006
-1.015232e-006
-1.022308e-006
-1.021777e-006
-1.012452e-006
-9.931609e-007
-9.642578e-007
-9.272199e-007
-8.829735e-007
-8.312762e-007
-7.719618e-007
-7.063066e-007
-6.367148e-007
-5.652614e-007
-4.930592e-007
-4.211059e-007
-3.512401e-007
-2.858690e-007
-2.269117e-007
-1.752933e-007
-1.312990e-007
-9.493639e-008
-6.582024e-008
-4.311284e-008
-2.594311e-008
-1.375151e-008
-5.944735e-009
-1.381476e-009
1.304963e-009
2.749247e-009
2.667155e-009
1.004226e-009
-9.935365e-010
-1.446594e-009
2.546429e-010
2.598943e-009
3.354823e-009
1.747162e-009
-9.289473e-010
-2.688584e-009
-2.539941e-009
-9.077557e-010
1.061958e-009
2.275504e-009
2.106771e-009
6.822962e-010
-1.027566e-009
-1.764816e-009
-1.050535e-009
2.928316e-010
9.352635e-010
4.313217e-010
-3.613110e-010
2.973183e-008
9.800095e-009
-1.200731e-008
-1.717596e-008
-4.152534e-009
1.165992e-008
1.441213e-008
3.203949e-009
-9.020774e-009
-1.026757e-008
-1.211016e-009
7.775103e-009
8.791744e-009
3.378022e-009
-1.850926e-009
-3.323999e-009
-2.478740e-009
-1.438502e-009
3.794515e-011
2.507365e-009
4.016039e-009
1.431930e-009
-6.029453e-009
-1.666120e-008
-3.009800e-008
-4.970650e-008
-7.997112e-008
-1.223352e-007
-1.750616e-007
-2.370247e-007
-3.100568e-007
-3.967447e-007
-4.968070e-007
-6.067333e-007
-7.227121e-007
-8.428523e-007
-9.663861e-007
-1.091724e-006
-1.216098e-006
-1.336739e-006
-1.451657e-006
-1.559313e-006
-1.658223e-006
-1.747179e-006
-1.825390e-006
-1.891988e-006
-1.945667e-006
-1.985204e-006
-2.010246e-006
-2.021089e-006
-2.017595e-006
-1.998777e-006
-1.963732e-006
-1.912691e-006
-1.846742e-006
-1.766680e-006
-1.672647e-006
-1.565102e-006
-1.445774e-006
-1.317382e-006
-1.182677e-006
-1.044164e-006
-9.046802e-007
-7.677183e-007
-6.369066e-007
-5.153712e-007
-4.057145e-007
-3.101525e-007
-2.300290e-007
-1.651139e-007
-1.138326e-007
-7.444078e-008
-4.570719e-008
-2.626069e-008
-1.375647e-008
-5.454739e-009
2.045077e-010
3.107684e-009
2.906084e-009
6.633700e-010
-1.371999e-009
-1.572078e-009
-1.250543e-010
1.575224e-009
2.311857e-009
1.709547e-009
1.094047e-010
-1.587153e-009
-2.118685e-009
-7.086948e-010
1.851909e-009
3.386896e-009
2.267073e-009
-7.446593e-010
-3.018158e-009
-2.684170e-009
-4.958563e-010
1.206475e-009
1.168137e-009
3.593340e-010
2.262434e-008
1.162781e-008
-1.435399e-009
-6.814551e-009
-2.756374e-009
3.408164e-009
3.279705e-009
-3.485041e-009
-8.801891e-009
-5.354356e-009
4.747996e-009
1.186188e-008
9.282379e-009
2.973897e-010
-5.991695e-009
-4.595038e-009
1.228183e-009
5.106722e-009
4.354539e-009
4.759797e-010
-5.362311e-009
-1.494961e-008
-3.116231e-008
-5.573029e-008
-9.023080e-008
-1.381459e-007
-2.040822e-007
-2.908393e-007
-3.985070e-007
-5.267601e-007
-6.766495e-007
-8.488522e-007
-1.040615e-006
-1.245748e-006
-1.457966e-006
-1.673426e-006
-1.889668e-006
-2.103045e-006
-2.308361e-006
-2.501016e-006
-2.678670e-006
-2.840531e-006
-2.985677e-006
-3.112650e-006
-3.220334e-006
-3.308498e-006
-3.377340e-006
-3.426914e-006
-3.457147e-006
-3.468041e-006
-3.459476e-006
-3.430944e-006
-3.381756e-006
-3.311460e-006
-3.219828e-006
-3.106512e-006
-2.971088e-006
-2.813640e-006
-2.635203e-006
-2.437639e-006
-2.223479e-006
-1.996271e-006
-1.760975e-006
-1.523575e-006
-1.290146e-006
-1.066447e-006
-8.582482e-007
-6.712499e-007
-5.097813e-007
-3.753747e-007
-2.669013e-007
-1.821519e-007
-1.189094e-007
-7.441579e-008
-4.454836e-008
-2.452908e-008
-1.080376e-008
-1.952856e-009
2.352499e-009
2.933502e-009
1.459353e-009
-3.294051e-010
-1.240106e-009
-6.908034e-010
1.126993e-009
2.963500e-009
3.107686e-009
1.038447e-009
-1.604656e-009
-2.373957e-009
-6.200898e-010
1.659744e-009
1.970928e-009
9.217141e-011
-1.785963e-009
-1.678453e-009
-8.503528e-012
1.157047e-009
7.123008e-010
-3.098465e-010
-1.735216e-009
3.417324e-009
7.702912e-009
6.168235e-009
1.970410e-010
-4.997862e-009
-6.376615e-009
-4.820701e-009
-1.984428e-009
1.782139e-009
5.593971e-009
6.571058e-009
2.767245e-009
-2.959124e-009
-4.576057e-009
4.836080e-010
7.645680e-009
9.449627e-009
2.687083e-009
-1.021728e-008
-2.669444e-008
-4.916986e-008
-8.419461e-008
-1.381236e-007
-2.152807e-007
-3.196645e-007
-4.561711e-007
-6.289385e-007
-8.391459e-007
-1.085040e-006
-1.363159e-006
-1.668125e-006
-1.991379e-006
-2.321735e-006
-2.648408e-006
-2.963426e-006
-3.260924e-006
-3.534988e-006
-3.779606e-006
-3.991040e-006
-4.169410e-006
-4.317274e-006
-4.436992e-006
-4.529972e-006
-4.598089e-006
-4.644783e-006
-4.674250e-006
-4.689853e-006
-4.693608e-006
-4.686833e-006
-4.670645e-006
-4.645610e-006
-4.611108e-006
-4.565110e-006
-4.504429e-006
-4.425121e-006
-4.322888e-006
-4.193398e-006
-4.032455e-006
-3.836336e-006
-3.602742e-006
-3.332178e-006
-3.028746e-006
-2.699640e-006
-2.354056e-006
-2.002720e-006
-1.657966e-006
-1.332944e-006
-1.039282e-006
-7.846265e-007
-5.720554e-007
-4.013656e-007
-2.703534e-007
-1.748813e-007
-1.086804e-007
-6.432750e-008
-3.511666e-008
-1.624850e-008
-4.669802e-009
1.581610e-009
3.762138e-009
2.872473e-009
4.358852e-010
-1.314304e-009
-6.994771e-010
1.768300e-009
3.604174e-009
2.787935e-009
-8.531514e-011
-2.447249e-009
-2.487025e-009
-8.273937e-010
5.917887e-010
7.895822e-010
4.432458e-010
5.302536e-010
9.328701e-010
7.435017e-010
-3.352737e-010
-1.416013e-009
-3.362731e-008
-1.275839e-008
9.415813e-009
1.451369e-008
3.255856e-009
-8.468139e-009
-8.435653e-009
5.748504e-010
7.489331e-009
6.433001e-009
8.826462e-010
-3.118549e-009
-3.565262e-009
-1.744348e-009
1.457383e-009
5.470483e-009
7.361201e-009
2.311898e-009
-1.242090e-008
-3.611111e-008
-6.887981e-008
-1.167853e-007
-1.912650e-007
-3.037262e-007
-4.617754e-007
-6.702633e-007
-9.334317e-007
-1.253629e-006
-1.627521e-006
-2.044181e-006
-2.486697e-006
-2.934883e-006
-3.367035e-006
-3.761599e-006
-4.099958e-006
-4.369014e-006
-4.561497e-006
-4.674576e-006
-4.709350e-006
-4.671856e-006
-4.573289e-006
-4.427652e-006
-4.248565e-006
-4.048285e-006
-3.839123e-006
-3.634500e-006
-3.447752e-006
-3.290040e-006
-3.169685e-006
-3.093091e-006
-3.065430e-006
-3.089880e-006
-3.166186e-006
-3.289863e-006
-3.452397e-006
-3.641849e-006
-3.843252e-006
-4.038735e-006
-4.207838e-006
-4.328710e-006
-4.380587e-006
-4.346987e-006
-4.218331e-006
-3.993182e-006
-3.678491e-006
-3.289586e-006
-2.849544e-006
-2.386762e-006
-1.930465e-006
-1.505855e-006
-1.131067e-006
-8.165201e-007
-5.655626e-007
-3.754311e-007
-2.386442e-007
-1.450663e-007
-8.403256e-008
-4.574860e-008
-2.210282e-008
-7.449668e-009
9.887989e-010
4.094382e-009
2.958123e-009
1.431144e-010
-1.378209e-009
-4.477369e-010
1.557002e-009
2.430651e-009
1.374732e-009
-5.442065e-010
-1.766143e-009
-1.632754e-009
-5.488570e-010
6.923531e-010
1.469292e-009
1.503564e-009
8.800466e-010
-2.494517e-011
-7.880773e-010
-1.185207e-009
-4.991022e-008
-2.263956e-008
7.052511e-009
1.564304e-008
3.813888e-009
-8.362759e-009
-5.819665e-009
6.468664e-009
1.283513e-008
6.417618e-009
-4.588409e-009
-8.463614e-009
-2.982982e-009
4.641603e-009
7.324631e-009
3.780294e-009
-4.740700e-009