# vtk DataFile Version 3.0
vtk output
ASCII
DATASET STRUCTURED_POINTS
DIMENSIONS 100 100 1
SPACING 1 1 1
ORIGIN 0 0 0
POINT_DATA 10000
SCALARS SFBox_profile double
LOOKUP_TABLE default 
0.000000e+000
0.000000e+000
0.000000e+000
0.000000e+000
0.000000e+000
0.000000e+000
0.000000e+000
0.000000e+000
0.000000e+000
0.000000e+000
0.000000e+000
0.000000e+000
0.000000e+000
0.000000e+000
0.000000e+000
0.000000e+000
0.000000e+000
0.000000e+000
0.000000e+000
0.000000e+000
0.000000e+000
0.000000e+000
0.000000e+000
0.000000e+000
0.000000e+000
0.000000e+000
0.000000e+000
0.000000e+000
0.000000e+000
0.000000e+000
0.000000e+000
0.000000e+000
0.000000e+000
0.000000e+000
0.000000e+000
0.000000e+000
0.000000e+000
0.000000e+000
0.000000e+000
0.000000e+000
0.000000e+000
0.000000e+000
0.000000e+000
0.000000e+000
0.000000e+000
0.000000e+000
0.000000e+000
0.000000e+000
0.000000e+000
0.000000e+000
0.000000e+000
0.000000e+000
0.000000e+000
0.000000e+000
0.000000e+000
0.000000e+000
0.000000e+000
0.000000e+000
0.000000e+000
0.000000e+000
0.000000e+000
0.000000e+000
0.000000e+000
0.000000e+000
0.000000e+000
0.000000e+000
0.000000e+000
0.000000e+000
0.000000e+000
0.000000e+000
0.000000e+000
0.000000e+000
0.000000e+000
0.000000e+000
0.000000e+000
0.000000e+000
0.000000e+000
0.000000e+000
0.000000e+000
0.000000e+000
0.000000e+000
0.000000e+000
0.000000e+000
0.000000e+000
0.000000e+000
0.000000e+000
0.000000e+000
0.000000e+000
0.000000e+000
0.000000e+000
0.000000e+000
0.000000e+000
0.000000e+000
0.000000e+000
0.000000e+000
0.000000e+000
0.000000e+000
0.000000e+000
0.000000e+000
0.000000e+000
-5.169805e-009
-3.308855e-009
-7.379214e-010
1.122747e-009
1.576144e-009
9.517194e-010
1.033594e-010
-3.331366e-010
-2.950457e-010
-1.094663e-010
-8.454436e-011
-2.523213e-010
-3.995679e-010
-2.870217e-010
1.245814e-010
5.999286e-010
7.810566e-010
4.837086e-010
-1.044610e-010
-5.436584e-010
-5.227527e-010
-1.506857e-010
1.542618e-010
9.174856e-011
-2.159465e-010
-3.729456e-010
-1.543140e-010
2.456315e-010
4.381251e-010
2.792093e-010
2.062177e-011
5.293182e-012
2.695202e-010
5.160039e-010
4.771300e-010
2.270331e-010
7.463413e-011
1.827309e-010
3.830640e-010
4.020362e-010
2.017153e-010
1.149414e-011
2.780307e-011
1.743766e-010
2.205675e-010
8.702546e-011
-6.280290e-011
-5.152511e-011
7.806432e-011
1.317274e-010
3.069252e-011
-8.868994e-011
-7.228514e-011
3.392082e-011
4.719935e-011
-9.286098e-011
-2.270357e-010
-1.818699e-010
-4.373920e-012
9.578937e-011
2.684892e-011
-5.896531e-011
2.702137e-011
2.384409e-010
3.275894e-010
1.574981e-010
-1.105489e-010
-2.096528e-010
-1.030889e-010
-2.799145e-011
-1.774445e-010
-4.209475e-010
-4.311747e-010
-7.990824e-011
3.793942e-010
5.735871e-010
4.084824e-010
1.346666e-010
1.983823e-011
3.832750e-011
-4.890948e-011
-3.365689e-010
-5.903514e-010
-4.773157e-010
4.093157e-011
6.010194e-010
7.514301e-010
3.693211e-010
-2.325978e-010
-5.922273e-010
-4.843523e-010
-6.339327e-011
3.148748e-010
3.911366e-010
1.697691e-010
-1.356572e-010
-2.895378e-010
-2.001280e-010
3.804589e-011
2.312096e-010
-1.747189e-009
-9.569537e-010
6.732585e-011
6.723045e-010
6.012963e-010
1.057620e-010
-3.483577e-010
-4.566600e-010
-2.308571e-010
1.024283e-010
2.987881e-010
2.453964e-010
1.365492e-011
-1.958544e-010
-2.059306e-010
-2.153658e-011
1.589454e-010
1.323473e-010
-8.776073e-011
-2.643174e-010
-1.836971e-010
1.005395e-010
3.099542e-010
2.409338e-010
-1.003537e-011
-1.560444e-010
-4.406625e-011
1.765855e-010
2.332716e-010
4.545025e-011
-1.894634e-010
-2.324190e-010
-7.711372e-011
5.791747e-011
-1.109840e-012
-1.801844e-010
-2.586747e-010
-1.407867e-010
3.622015e-011
8.060936e-011
-1.893793e-011
-9.273691e-011
-1.339573e-011
1.458944e-010
2.139791e-010
1.433706e-010
6.260455e-011
9.932704e-011
2.134147e-010
2.585834e-010
1.835279e-010
1.002375e-010
1.296140e-010
2.355131e-010
2.730404e-010
1.860625e-010
8.512491e-011
9.715320e-011
1.887645e-010
2.057682e-010
8.223822e-011
-6.071524e-011
-6.602948e-011
5.246004e-011
1.238038e-010
4.434372e-011
-7.936566e-011
-6.338529e-011
1.089105e-010
2.474624e-010
1.820003e-010
-2.636691e-011
-1.563627e-010
-9.446646e-011
3.373497e-011
3.070979e-011
-1.180367e-010
-2.194594e-010
-1.104296e-010
1.330310e-010
2.689043e-010
1.589008e-010
-7.932275e-011
-2.053689e-010
-1.130762e-010
7.470957e-011
1.574728e-010
6.752049e-011
-8.374172e-011
-1.435739e-010
-7.012425e-011
5.110557e-011
1.113413e-010
7.704684e-011
-3.391101e-012
-6.185225e-011
-6.629885e-011
-2.896727e-011
1.832106e-011
4.854605e-011
2.795896e-009
2.024980e-009
8.472189e-010
-2.187527e-010
-7.955485e-010
-8.355222e-010
-5.666789e-010
-2.521788e-010
9.951743e-012
2.639841e-010
5.123981e-010
6.158872e-010
4.196466e-010
-3.573381e-011
-4.841975e-010
-6.507363e-010
-4.894280e-010
-1.888357e-010
4.144709e-011
1.514520e-010
2.181888e-010
2.888835e-010
3.157225e-010
2.453869e-010
1.175498e-010
3.040686e-011
2.146893e-011
2.532705e-011
-3.593126e-011
-1.485434e-010
-2.220924e-010
-2.009545e-010
-1.299096e-010
-9.527881e-011
-1.194150e-010
-1.384037e-010
-8.482945e-011
2.953713e-011
1.297749e-010
1.681295e-010
1.772652e-010
2.245706e-010
3.261944e-010
4.257724e-010
4.622081e-010
4.424825e-010
4.302731e-010
4.652560e-010
5.140252e-010
5.144528e-010
4.579313e-010
4.048387e-010
4.119897e-010
4.629201e-010
4.892045e-010
4.548179e-010
3.948229e-010
3.598676e-010
3.418483e-010
2.812999e-010
1.493084e-010
-3.132892e-012
-9.519727e-011
-1.038008e-010
-7.790211e-011
-6.394529e-011
-4.164822e-011
4.546130e-011
2.037858e-010
3.580734e-010
4.146935e-010
3.428496e-010
1.824481e-010
-1.388558e-011
-2.193862e-010
-4.076411e-010
-5.145471e-010
-4.599511e-010
-2.214157e-010
1.203646e-010
4.181567e-010
5.430771e-010
4.456788e-010
1.653888e-010
-1.870316e-010
-4.569279e-010
-5.014948e-010
-2.780563e-010
9.484457e-011
3.851507e-010
4.040026e-010
1.546247e-010
-1.631887e-010
-3.106085e-010
-1.988322e-010
5.110042e-011
2.220680e-010
1.831384e-010
-1.270040e-011
-1.860760e-010
5.427281e-009
3.501907e-009
7.844990e-010
-1.250607e-009
-1.772783e-009
-1.038515e-009
-4.545273e-012
5.079887e-010
3.822680e-010
8.231618e-011
5.913644e-011
3.027806e-010
4.386727e-010
1.891701e-010
-3.150114e-010
-6.713384e-010
-6.003972e-010
-1.825357e-010
2.582749e-010
4.505570e-010
3.588445e-010
1.409731e-010
-1.607096e-011
-2.842768e-011
5.400515e-011
1.099483e-010
5.710829e-011
-6.606060e-011
-1.271537e-010
-3.038982e-011
1.754939e-010
3.410542e-010
3.777710e-010
3.540126e-010
4.069175e-010
5.732173e-010
7.454120e-010
8.051751e-010
7.647803e-010
7.422422e-010
8.103573e-010
9.142523e-010
9.527645e-010
9.070323e-010
8.522734e-010
8.526118e-010
8.854316e-010
8.854656e-010
8.342369e-010
7.732167e-010
7.368318e-010
7.086873e-010
6.581915e-010
5.945387e-010
5.547962e-010
5.444931e-010
5.211954e-010
4.500697e-010
3.543368e-010
2.858743e-010
2.525555e-010
2.044374e-010
1.047495e-010
-7.307231e-012
-5.294283e-011
-1.131562e-011
4.830814e-011
5.068552e-011
1.462487e-011
3.639050e-011
1.631836e-010
3.074466e-010
3.179286e-010
1.403592e-010
-1.137712e-010
-2.741298e-010
-2.765067e-010
-2.002553e-010
-1.425537e-010
-8.823048e-011
5.852690e-011
3.098026e-010
4.998981e-010
4.064246e-010
-8.857904e-012
-4.936669e-010
-6.778733e-010
-3.915510e-010
1.663600e-010
5.770084e-010
5.434500e-010
1.256678e-010
-3.273937e-010
-4.735998e-010
-2.416437e-010
1.435855e-010
3.663167e-010
2.701870e-010
-3.967451e-011
-2.997384e-010
4.434217e-009
2.509513e-009
-8.305267e-011
-1.746461e-009
-1.674579e-009
-3.406610e-010
9.953642e-010
1.318582e-009
5.811645e-010
-4.278376e-010
-8.615434e-010
-5.152404e-010
1.307588e-010
4.595859e-010
2.813791e-010
-8.847826e-011
-2.193501e-010
1.108978e-011
3.463585e-010
4.366114e-010
1.718985e-010
-2.324180e-010
-4.414697e-010
-2.977137e-010
4.975302e-011
2.944151e-010
2.680740e-010
1.040921e-010
9.536610e-011
3.779432e-010
7.755627e-010
9.889066e-010
9.286738e-010
8.095905e-010
8.894198e-010
1.161322e-009
1.370602e-009
1.331614e-009
1.150171e-009
1.079849e-009
1.204129e-009
1.348356e-009
1.319382e-009
1.151053e-009
1.043899e-009
1.097567e-009
1.195020e-009
1.176300e-009
1.051498e-009
9.683120e-010
9.957257e-010
1.029773e-009
9.455773e-010
7.761836e-010
6.677282e-010
6.762031e-010
6.917341e-010
5.980524e-010
4.457373e-010
3.931812e-010
4.870290e-010
5.814740e-010
5.174343e-010
3.308384e-010
2.080196e-010
2.355612e-010
2.722721e-010
1.254406e-010
-1.814105e-010
-3.963572e-010
-3.186008e-010
-3.539959e-011
1.771135e-010
1.731528e-010
8.843035e-011
1.399535e-010
3.237050e-010
3.899510e-010
1.428219e-010
-2.863305e-010
-5.279111e-010
-3.495492e-010
8.952427e-011
3.864977e-010
2.914544e-010
-6.016626e-011
-3.048203e-010
-2.159967e-010
9.516497e-011
3.183441e-010
2.513347e-010
-2.979554e-011
-2.714910e-010
-2.819548e-010
-7.918195e-011
1.572152e-010
2.498841e-010
1.514125e-010
-4.659602e-011
-1.969273e-010
5.238833e-010
-1.171479e-010
-8.743703e-010
-1.090954e-009
-4.872285e-010
5.893314e-010
1.384568e-009
1.295074e-009
3.453577e-010
-8.074783e-010
-1.371104e-009
-1.022974e-009
-1.223203e-010
6.360293e-010
8.029106e-010
4.785753e-010
1.093737e-010
2.192152e-011
1.507403e-010
1.861824e-010
-4.954437e-011
-3.916370e-010
-4.927810e-010
-1.836315e-010
3.368022e-010
6.840146e-010
6.686399e-010
4.826013e-010
4.840211e-010
7.999180e-010
1.181994e-009
1.287886e-009
1.076760e-009
8.588689e-010
9.321194e-010
1.233936e-009
1.428624e-009
1.323190e-009
1.098093e-009
1.070178e-009
1.293529e-009
1.504149e-009
1.467899e-009
1.274827e-009
1.205207e-009
1.358064e-009
1.534520e-009
1.516527e-009
1.355944e-009
1.289679e-009
1.408708e-009
1.534893e-009
1.467000e-009
1.253951e-009
1.123205e-009
1.167706e-009
1.223262e-009
1.104374e-009
8.735313e-010
7.695233e-010
8.834065e-010
1.019797e-009
9.407628e-010
6.763922e-010
4.868110e-010
5.152024e-010
5.842997e-010
4.131072e-010
-1.220287e-011
-3.869094e-010
-4.307776e-010
-2.030923e-010
-3.021554e-012
1.079426e-011
-1.360524e-013
2.001093e-010
5.611734e-010
7.307783e-010
4.298280e-010
-2.069087e-010
-7.179876e-010
-7.417837e-010
-3.300739e-010
1.526584e-010
3.909471e-010
3.515756e-010
2.009262e-010
7.527185e-011
-2.163161e-011
-1.284666e-010
-2.117214e-010
-1.867670e-010
-3.771121e-011
1.286813e-010
1.750918e-010
7.326700e-011
-6.586569e-011
-1.069241e-010
-2.688511e-011
6.984530e-011
-3.756627e-009
-2.500851e-009
-7.388065e-010
6.051797e-010
1.075680e-009
8.635753e-010
4.454274e-010
1.081809e-010
-1.766773e-010
-4.932017e-010
-7.197217e-010
-6.081939e-010
-1.086796e-010
4.721093e-010
7.103063e-010
4.683507e-010
2.194976e-011
-2.311617e-010
-1.610632e-010
2.275903e-011
6.713547e-011
-1.816588e-011
1.080828e-011
3.181299e-010
7.634234e-010
1.033493e-009
9.858396e-010
8.114386e-010
8.218560e-010
1.094179e-009
1.381370e-009
1.401148e-009
1.174135e-009
1.009382e-009
1.142966e-009
1.456837e-009
1.622530e-009
1.501414e-009
1.310071e-009
1.343330e-009
1.601947e-009
1.796545e-009
1.721284e-009
1.515112e-009
1.474378e-009
1.665427e-009
1.845674e-009
1.792288e-009
1.599002e-009
1.548163e-009
1.733292e-009
1.937400e-009
1.925001e-009
1.751181e-009
1.674010e-009
1.794683e-009
1.915033e-009
1.804710e-009
1.515710e-009
1.317988e-009
1.340288e-009
1.397783e-009
1.240376e-009
8.946691e-010
6.449996e-010
6.722669e-010
8.178580e-010
7.779158e-010
4.782375e-010
1.543159e-010
4.620586e-011
1.064070e-010
8.814547e-011
-1.115872e-010
-2.983261e-010
-2.125282e-010
1.386577e-010
4.533026e-010
4.414484e-010
1.118529e-010
-2.641547e-010
-4.298202e-010
-3.405589e-010
-1.150681e-010
1.245733e-010
3.132467e-010
3.873203e-010
2.670412e-010
-4.603108e-011
-3.802427e-010
-4.782322e-010
-2.257556e-010
2.024113e-010
4.605815e-010
3.332289e-010
-6.240391e-011
-3.743847e-010
-3.322684e-010
1.008465e-011
3.286855e-010
-5.775709e-009
-3.165358e-009
2.611704e-010
2.307992e-009
2.016492e-009
2.260060e-010
-1.325077e-009
-1.491905e-009
-5.007335e-010
5.504081e-010
8.290849e-010
4.127893e-010
-5.209177e-011
-1.375856e-010
1.113287e-011
1.881117e-011
-2.024961e-010
-3.755370e-010
-2.313753e-010
1.709533e-010
5.428621e-010
7.072631e-010
7.518858e-010
8.507146e-010
1.023692e-009
1.138859e-009
1.122819e-009
1.085672e-009
1.193922e-009
1.454060e-009
1.685432e-009
1.727166e-009
1.630930e-009
1.598199e-009
1.727327e-009
1.876231e-009
1.819831e-009
1.522770e-009
1.192042e-009
1.032317e-009
9.996795e-010
8.662748e-010
5.235674e-010
1.402845e-010
-3.543778e-011
1.665736e-011
7.036556e-011
-4.612547e-011
-2.186929e-010
-1.902915e-010
1.053293e-010
4.562067e-010
6.449049e-010
7.197139e-010
9.064352e-010
1.281928e-009
1.646428e-009
1.764901e-009
1.657227e-009
1.556124e-009
1.594975e-009
1.641002e-009
1.488898e-009
1.152818e-009
8.725679e-010
8.303406e-010
9.449063e-010
9.939394e-010
8.870961e-010
7.382354e-010
6.692164e-010
6.247020e-010
4.414742e-010
7.318688e-011
-3.194126e-010
-5.171171e-010
-4.412797e-010
-1.862773e-010
1.010145e-010
3.185329e-010
4.007991e-010
2.982492e-010
3.355618e-011
-2.389101e-010
-3.098667e-010
-1.102147e-010
1.812198e-010
2.768019e-010
6.166747e-011
-2.698375e-010
-3.851109e-010
-1.384306e-010
2.719158e-010
4.770434e-010
2.797790e-010
-1.582630e-010
-4.583405e-010
-3.618208e-010
4.258747e-011
3.997266e-010
-4.423373e-009
-1.965677e-009
1.144613e-009
2.688371e-009
1.738987e-009
-6.664188e-010
-2.442875e-009
-2.198252e-009
-3.105611e-010
1.562710e-009
2.017867e-009
1.029838e-009
-2.916637e-010
-8.917534e-010
-6.454596e-010
-1.664380e-010
2.074490e-011
-2.754764e-011
7.039348e-011
4.812843e-010
9.858866e-010
1.275042e-009
1.279396e-009
1.173886e-009
1.146143e-009
1.241305e-009
1.405819e-009
1.589920e-009
1.762897e-009
1.871527e-009
1.848040e-009
1.671083e-009
1.383180e-009
1.021094e-009
5.418429e-010
-1.511811e-010
-1.095929e-009
-2.200898e-009
-3.309178e-009
-4.337911e-009
-5.336022e-009
-6.384697e-009
-7.448852e-009
-8.360331e-009
-8.968856e-009
-9.289063e-009
-9.459653e-009
-9.553692e-009
-9.472654e-009
-9.064379e-009
-8.323550e-009
-7.419682e-009
-6.511878e-009
-5.585303e-009
-4.519921e-009
-3.301763e-009
-2.101083e-009
-1.114792e-009
-3.748095e-010
2.384493e-010
8.083545e-010
1.267913e-009
1.495449e-009
1.481370e-009
1.352425e-009
1.240498e-009
1.173758e-009
1.108931e-009
1.026904e-009
9.541091e-010
9.024360e-010
8.328959e-010
6.934586e-010
4.671804e-010
1.700987e-010
-1.639461e-010
-4.560432e-010
-5.595874e-010
-3.424939e-010
1.486853e-010
6.270692e-010
7.447946e-010
3.941273e-010
-1.676226e-010
-5.248749e-010
-4.607320e-010
-1.207624e-010
1.624399e-010
1.888423e-010
3.808053e-011
-6.790063e-011
-9.782130e-012
1.283277e-010
1.741561e-010
5.327523e-011
-1.406879e-010
-2.400877e-010
-1.558373e-010
4.907694e-011
2.153964e-010
-5.161540e-010
1.345607e-010
9.312058e-010
1.161633e-009
4.404701e-010
-8.502610e-010
-1.704079e-009
-1.302073e-009
1.653168e-010
1.539670e-009
1.700556e-009
5.995209e-010
-7.269831e-010
-1.176840e-009
-5.730064e-010
3.464824e-010
7.980206e-010
6.843898e-010
4.929120e-010
6.448366e-010
1.081874e-009
1.449906e-009
1.536948e-009
1.453797e-009
1.448594e-009
1.635311e-009
1.901067e-009
2.005992e-009
1.740212e-009
1.027203e-009
-7.295639e-011
-1.460353e-009
-3.122409e-009
-5.167565e-009
-7.710960e-009
-1.072190e-008
-1.400551e-008
-1.734618e-008
-2.065107e-008
-2.393574e-008
-2.718528e-008
-3.026392e-008
-3.297018e-008
-3.515892e-008
-3.679137e-008
-3.787853e-008
-3.840233e-008
-3.830205e-008
-3.752632e-008
-3.608688e-008
-3.406353e-008
-3.156473e-008
-2.868513e-008
-2.549696e-008
-2.207675e-008
-1.853556e-008
-1.501944e-008
-1.167796e-008
-8.628434e-009
-5.941136e-009
-3.646845e-009
-1.755108e-009
-2.751842e-010
7.723180e-010
1.374142e-009
1.573806e-009
1.502427e-009
1.332525e-009
1.174858e-009
1.026701e-009
8.449643e-010
6.646696e-010
5.998721e-010
6.928608e-010
7.913467e-010
6.498573e-010
1.990578e-010
-3.123194e-010
-5.062301e-010
-2.376464e-010
2.455793e-010
5.249301e-010
3.911122e-010
3.054794e-013
-3.186879e-010
-3.699611e-010
-2.035955e-010
1.326227e-011
1.669683e-010
2.330660e-010
2.092145e-010
8.709106e-011
-9.588719e-011
-2.270402e-010
-1.967176e-010
-1.873812e-011
1.549703e-010
1.696379e-010
2.260854e-011
-1.298263e-010
3.967496e-009
2.000692e-009
-3.786379e-010
-1.520242e-009
-1.078630e-009
-5.755797e-012
6.297811e-010
6.005844e-010
3.527766e-010
2.075526e-010
2.237381e-011
-3.805150e-010
-7.451067e-010
-5.794444e-010
2.167327e-010
1.122431e-009
1.493513e-009
1.215504e-009
7.710802e-010
6.973165e-010
1.077476e-009
1.574829e-009
1.853950e-009
1.872701e-009
1.785071e-009
1.645281e-009
1.241651e-009
1.882872e-010
-1.838705e-009
-4.921608e-009
-8.919297e-009
-1.366976e-008
-1.918974e-008
-2.565269e-008
-3.313864e-008
-4.142369e-008
-5.006853e-008
-5.872541e-008
-6.730689e-008
-7.581701e-008
-8.406442e-008
-9.162495e-008
-9.809973e-008
-1.033402e-007
-1.073688e-007
-1.101243e-007
-1.113763e-007
-1.109116e-007
-1.087391e-007
-1.050548e-007
-1.000353e-007
-9.374395e-008
-8.625834e-008
-7.782884e-008
-6.884470e-008
-5.965110e-008
-5.045658e-008
-4.143928e-008
-3.288614e-008
-2.515134e-008
-1.846230e-008
-1.281585e-008
-8.105390e-009
-4.324640e-009
-1.584259e-009
9.099611e-011
9.276466e-010
1.300535e-009
1.459596e-009
1.410999e-009
1.101344e-009
6.730324e-010
4.482577e-010
6.202249e-010
1.006908e-009
1.185680e-009
8.979789e-010
2.960352e-010
-2.231331e-010
-3.953534e-010
-2.743723e-010
-8.143920e-011
4.380113e-011
1.057354e-010
1.311231e-010
8.955562e-011
-2.913661e-011
-1.240097e-010
-5.928371e-011
1.500576e-010
2.906191e-010
1.553339e-010
-1.998335e-010
-4.549350e-010
-3.294786e-010
1.095491e-010
4.735853e-010
4.161301e-010
-2.078781e-011
-4.317556e-010
6.951445e-009
2.994886e-009
-1.720251e-009
-3.665142e-009
-1.972540e-009
1.179992e-009
2.879929e-009
2.049397e-009
-7.312530e-011
-1.561359e-009
-1.589532e-009
-7.168964e-010
1.405460e-010
6.404122e-010
9.732068e-010
1.281486e-009
1.425114e-009
1.286378e-009
1.061837e-009
1.101282e-009
1.509097e-009
2.004226e-009
2.164664e-009
1.725898e-009
6.076326e-010
-1.298973e-009
-4.309104e-009
-8.897030e-009
-1.547299e-008
-2.418748e-008
-3.493963e-008
-4.758553e-008
-6.213228e-008
-7.867941e-008
-9.712762e-008
-1.169784e-007
-1.374991e-007
-1.581064e-007
-1.785229e-007
-1.985111e-007
-2.175261e-007
-2.347531e-007
-2.495143e-007
-2.615448e-007
-2.707955e-007
-2.770363e-007
-2.797909e-007
-2.786941e-007
-2.738085e-007
-2.654999e-007
-2.540566e-007
-2.395674e-007
-2.222088e-007
-2.025454e-007
-1.814292e-007
-1.596183e-007
-1.375951e-007
-1.157836e-007
-9.483176e-008
-7.553878e-008
-5.847771e-008
-4.376845e-008
-3.127216e-008
-2.094684e-008
-1.291296e-008
-7.164797e-009
-3.326729e-009
-8.015118e-010
8.405349e-010
1.692880e-009
1.757239e-009
1.283755e-009
7.731436e-010
6.218693e-010
8.207414e-010
1.044758e-009
1.011561e-009
7.089787e-010
3.039117e-010
-6.657845e-011
-3.471720e-010
-4.677417e-010
-3.272193e-010
5.685406e-011
4.407599e-010
5.098247e-010
1.926301e-010
-2.224057e-010
-3.504778e-010
-1.042035e-010
2.118347e-010
2.273392e-010
-8.902562e-011
-3.862480e-010
-3.041429e-010
1.301696e-010
5.052713e-010
4.340523e-010
-4.752907e-011
-4.992751e-010
6.932928e-009
2.898704e-009
-1.892194e-009
-3.774261e-009
-1.818280e-009
1.622237e-009
3.287966e-009
1.951513e-009
-7.993444e-010
-2.401120e-009
-1.736981e-009
1.800798e-010
1.579610e-009
1.663866e-009
1.003130e-009
5.805628e-010
7.838632e-010
1.317874e-009
1.784721e-009
2.075928e-009
2.211822e-009
1.993916e-009
9.301141e-010
-1.557108e-009
-5.950808e-009
-1.267457e-008
-2.223269e-008
-3.524420e-008
-5.230045e-008
-7.376688e-008
-9.971034e-008
-1.300095e-007
-1.645000e-007
-2.029407e-007
-2.447895e-007
-2.890631e-007
-3.345231e-007
-3.800551e-007
-4.248161e-007
-4.679740e-007
-5.083912e-007
-5.447205e-007
-5.758641e-007
-6.012461e-007
-6.205520e-007
-6.332769e-007
-6.386916e-007
-6.362950e-007
-6.261784e-007
-6.088372e-007
-5.846969e-007
-5.539950e-007
-5.171817e-007
-4.753053e-007
-4.298616e-007
-3.822817e-007
-3.336862e-007
-2.851539e-007
-2.380650e-007
-1.939800e-007
-1.541258e-007
-1.190676e-007
-8.890535e-008
-6.368530e-008
-4.349209e-008
-2.815318e-008
-1.700655e-008
-9.100830e-009
-3.643915e-009
-2.104329e-010
1.473888e-009
1.849330e-009
1.544905e-009
1.111446e-009
8.073682e-010
6.551708e-010
6.229241e-010
6.773799e-010
7.075924e-010
5.393183e-010
1.248278e-010
-3.121600e-010
-4.255863e-010
-1.003651e-010
3.748056e-010
5.508636e-010
2.559694e-010
-2.324625e-010
-4.691360e-010
-2.801464e-010
9.361985e-011
2.746008e-010
1.337798e-010
-1.143037e-010
-1.735548e-010
1.547784e-011
2.304813e-010
2.192341e-010
-2.975229e-011
-2.759234e-010
3.362954e-009
1.570598e-009
-6.276611e-010
-1.579033e-009
-7.442968e-010
8.317241e-010
1.479284e-009
5.098647e-010
-1.080627e-009
-1.596971e-009
-3.741885e-010
1.543523e-009
2.485850e-009
1.826578e-009
4.927585e-010
-9.363482e-011
6.068970e-010
1.936888e-009
2.844027e-009
2.725588e-009
1.468865e-009
-1.120952e-009
-5.755119e-009
-1.357335e-008
-2.578478e-008
-4.346008e-008
-6.758584e-008
-9.917082e-008
-1.391812e-007
-1.883025e-007
-2.467154e-007
-3.140575e-007
-3.895390e-007
-4.720268e-007
-5.599926e-007
-6.514678e-007
-7.442129e-007
-8.360528e-007
-9.250603e-007
-1.009409e-006
-1.087152e-006
-1.156308e-006
-1.215260e-006
-1.262968e-006
-1.298721e-006
-1.321712e-006
-1.331020e-006
-1.326050e-006
-1.306872e-006
-1.274022e-006
-1.228039e-006
-1.169386e-006
-1.098895e-006
-1.018180e-006
-9.294870e-007
-8.351728e-007
-7.374490e-007
-6.386351e-007
-5.414489e-007
-4.488013e-007
-3.631947e-007
-2.863103e-007
-2.191119e-007
-1.621618e-007
-1.156710e-007
-7.925620e-008
-5.181850e-008
-3.182054e-008
-1.775300e-008
-8.380585e-009
-2.665056e-009
3.731848e-010
1.626187e-009
1.785662e-009
1.353552e-009
7.673726e-010
4.220074e-010
4.976593e-010
8.114637e-010
9.601401e-010
6.968816e-010
1.740307e-010
-2.121478e-010
-2.152508e-010
4.101936e-011
2.252552e-010
1.408713e-010
-1.117038e-010
-2.806389e-010
-2.204379e-010
3.495104e-013
2.008392e-010
2.527586e-010
1.543547e-010
-7.938683e-012
-1.348428e-010
-1.650994e-010
-9.485328e-011
2.467291e-011
1.140860e-010
-2.877678e-009
-9.218466e-010
1.200942e-009
1.763352e-009
7.019634e-010
-6.807879e-010
-1.261504e-009
-9.863152e-010
-3.674276e-010
3.541725e-010
1.213727e-009
1.963715e-009
2.042203e-009
1.290164e-009
4.229731e-010
4.514820e-010
1.591188e-009
2.883908e-009
2.906063e-009
6.785626e-010
-4.235653e-009
-1.244234e-008
-2.538050e-008
-4.529643e-008
-7.469508e-008
-1.158603e-007
-1.707508e-007
-2.410822e-007
-3.282483e-007
-4.329816e-007
-5.549674e-007
-6.927051e-007
-8.436996e-007
-1.004794e-006
-1.172404e-006
-1.342637e-006
-1.511465e-006
-1.675042e-006
-1.829971e-006
-1.973334e-006
-2.102554e-006
-2.215366e-006
-2.310011e-006
-2.385338e-006
-2.440581e-006
-2.475009e-006
-2.487849e-006
-2.478589e-006
-2.447226e-006
-2.394099e-006
-2.319553e-006
-2.223933e-006
-2.108031e-006
-1.973511e-006
-1.822876e-006
-1.659130e-006
-1.485649e-006
-1.306405e-006
-1.126125e-006
-9.499674e-007
-7.828452e-007
-6.288907e-007
-4.912921e-007
-3.722774e-007
-2.729635e-007
-1.931563e-007
-1.314094e-007
-8.542659e-008
-5.255223e-008
-3.008588e-008
-1.545223e-008
-6.399698e-009
-1.214720e-009
1.260102e-009
1.881817e-009
1.490514e-009
9.074234e-010
6.602899e-010
7.817146e-010
9.537379e-010
8.822147e-010
5.465965e-010
1.414459e-010
-1.404521e-010
-2.337989e-010
-1.732701e-010
-3.150617e-011
9.713436e-011
1.195761e-010
2.141658e-011
-8.441365e-011
-4.951518e-011
1.323616e-010
2.713025e-010
1.621132e-010
-1.667145e-010
-4.264763e-010
-3.381350e-010
6.513457e-011
4.352195e-010
-9.178077e-009
-3.746401e-009
2.391786e-009
4.416448e-009
1.793339e-009
-1.925423e-009
-3.105287e-009
-1.310940e-009
1.172069e-009
2.223433e-009
1.728342e-009
9.035482e-010
6.512655e-010
9.712517e-010
1.559231e-009
2.285003e-009
2.857127e-009
2.323218e-009
-8.051187e-010
-8.033522e-009
-2.080697e-008
-4.111131e-008
-7.209174e-008
-1.179793e-007
-1.833622e-007
-2.724025e-007
-3.884158e-007
-5.337015e-007
-7.092775e-007
-9.144109e-007
-1.146204e-006
-1.399599e-006
-1.667915e-006
-1.943693e-006
-2.219430e-006
-2.488036e-006
-2.743115e-006
-2.979293e-006
-3.192546e-006
-3.380304e-006
-3.541245e-006
-3.674960e-006
-3.781735e-006
-3.862406e-006
-3.918078e-006
-3.949746e-006
-3.958037e-006
-3.943211e-006
-3.905230e-006
-3.843650e-006
-3.757463e-006
-3.645212e-006
-3.505464e-006
-3.337343e-006
-3.140860e-006
-2.917110e-006
-2.668603e-006
-2.399691e-006
-2.116724e-006
-1.827696e-006
-1.541516e-006
-1.267200e-006
-1.013093e-006
-7.860541e-007
-5.906865e-007
-4.289127e-007
-3.001216e-007
-2.017223e-007
-1.297578e-007
-7.943450e-008
-4.570093e-008
-2.394134e-008
-1.053134e-008
-2.927141e-009
6.914250e-010
1.821524e-009
1.730324e-009
1.299692e-009
9.417741e-010
7.385650e-010
6.492289e-010
5.942234e-010
4.563940e-010
1.582118e-010
-2.018925e-010
-3.644888e-010
-1.599384e-010
2.508870e-010
4.704413e-010
2.624637e-010
-1.710262e-010
-3.804059e-010
-1.547398e-010
2.343307e-010
3.255539e-010
-1.173559e-011
-4.139509e-010
-4.140351e-010
3.686557e-011
4.964814e-010
-1.196956e-008
-5.243193e-009
2.387508e-009
4.984024e-009
1.937824e-009
-2.256705e-009
-3.093807e-009
-3.319916e-010
2.667877e-009
3.022476e-009
1.086455e-009
-5.965108e-010
-2.456498e-010
1.679147e-009
3.456917e-009
3.726897e-009
1.836841e-009
-3.040611e-009
-1.273057e-008
-3.014748e-008
-5.913215e-008
-1.046053e-007
-1.728255e-007
-2.711220e-007
-4.069067e-007
-5.863771e-007
-8.133923e-007
-1.088641e-006
-1.409009e-006
-1.767183e-006
-2.151764e-006
-2.548168e-006
-2.940272e-006
-3.312387e-006
-3.650964e-006
-3.945633e-006
-4.189629e-006
-4.379925e-006
-4.517231e-006
-4.605697e-006
-4.652161e-006
-4.665097e-006
-4.653652e-006
-4.626941e-006
-4.593466e-006
-4.560469e-006
-4.533294e-006
-4.514908e-006
-4.505650e-006
-4.503090e-006
-4.501990e-006
-4.494529e-006
-4.470861e-006
-4.419969e-006
-4.330767e-006
-4.193458e-006
-4.001086e-006
-3.750981e-006
-3.445709e-006
-3.093332e-006
-2.706982e-006
-2.303705e-006
-1.902520e-006
-1.521858e-006
-1.177037e-006
-8.785682e-007
-6.316434e-007
-4.365357e-007
-2.894546e-007
-1.836711e-007
-1.109336e-007
-6.299598e-008
-3.277673e-008
-1.477852e-008
-4.900159e-009
-1.119254e-010
1.717512e-009
1.947572e-009
1.423947e-009
7.654719e-010
4.200742e-010
4.902136e-010
6.718793e-010
5.628702e-010
1.121203e-010
-2.904705e-010
-2.370480e-010
2.118165e-010
5.485817e-010
3.613798e-010
-2.001169e-010
-5.720512e-010
-3.865041e-010
1.335417e-010
4.313237e-010
2.288036e-010
-1.916539e-010
-3.349107e-010
-5.766945e-011
2.901097e-010
-8.829778e-009
-3.973960e-009
1.477881e-009
3.239771e-009
1.034128e-009
-1.662454e-009
-1.592199e-009
1.002444e-009
3.127994e-009
2.605228e-009
3.637457e-010
-8.342090e-010
5.140784e-010
3.155166e-009
4.354852e-009
1.992347e-009
-4.974544e-009
-1.795459e-008
-4.041787e-008
-7.844474e-008
-1.402727e-007
-2.357231e-007
-3.757641e-007
-5.716489e-007
-8.331008e-007
-1.165717e-006
-1.568301e-006
-2.030883e-006
-2.534007e-006
-3.049611e-006
-3.543568e-006
-3.979599e-006
-4.323846e-006
-4.549193e-006
-4.638375e-006
-4.585356e-006
-4.395069e-006
-4.082134e-006
-3.669133e-006
-3.184614e-006
-2.660773e-006
-2.130994e-006
-1.627693e-006
-1.180786e-006
-8.165951e-007
-5.568414e-007
-4.175524e-007
-4.080768e-007
-5.303751e-007
-7.785795e-007
-1.138748e-006
-1.588850e-006
-2.099176e-006
-2.633437e-006
-3.150860e-006
-3.609361e-006
-3.969550e-006
-4.198986e-006
-4.276127e-006
-4.193470e-006
-3.959330e-006
-3.597440e-006
-3.143769e-006
-2.640876e-006
-2.131214e-006
-1.651214e-006
-1.227381e-006
-8.747328e-007
-5.973166e-007
-3.903752e-007
-2.435706e-007
-1.443512e-007
-8.051520e-008
-4.155360e-008
-1.907442e-008
-6.861928e-009
-7.784352e-010
1.641317e-009
1.912527e-009
1.236789e-009
6.183109e-010
5.460082e-010
8.126310e-010
8.724530e-010
4.737973e-010
-7.526656e-011
-2.759857e-010
-9.902952e-012
3.345267e-010
3.082804e-010
-9.716329e-011
-4.542804e-010
-3.836322e-010
3.759624e-011
3.833754e-010
3.494062e-010
4.813567e-011
-1.730107e-010
-1.395093e-010
-4.976708e-012
-5.730789e-010
-1.581881e-010
2.016682e-010
8.042435e-011
-3.577156e-010
-4.088079e-010
4.062805e-010
1.630948e-009
2.181195e-009
1.568407e-009
6.668802e-010
9.070550e-010
2.539344e-009
3.801028e-009
1.819337e-009
-6.005122e-009
-2.203269e-008
-5.016989e-008
-9.788199e-008
-1.768317e-007
-3.019791e-007
-4.899830e-007
-7.572829e-007
-1.117233e-006
-1.575572e-006