# vtk DataFile Version 3.0
vtk output
ASCII
DATASET STRUCTURED_POINTS
DIMENSIONS 100 100 1
SPACING 1 1 1
ORIGIN 0 0 0
POINT_DATA 10000
SCALARS SFBox_profile double
LOOKUP_TABLE default 
9.439905e-003
9.439910e-003
9.439918e-003
9.439924e-003
9.439927e-003
9.439925e-003
9.439921e-003
9.439916e-003
9.439914e-003
9.439916e-003
9.439920e-003
9.439923e-003
9.439924e-003
9.439923e-003
9.439921e-003
9.439920e-003
9.439919e-003
9.439919e-003
9.439918e-003
9.439918e-003
9.439918e-003
9.439918e-003
9.439920e-003
9.439922e-003
9.439923e-003
9.439923e-003
9.439922e-003
9.439921e-003
9.439921e-003
9.439920e-003
9.439919e-003
9.439918e-003
9.439918e-003
9.439917e-003
9.439918e-003
9.439918e-003
9.439919e-003
9.439919e-003
9.439919e-003
9.439920e-003
9.439921e-003
9.439921e-003
9.439921e-003
9.439922e-003
9.439922e-003
9.439922e-003
9.439922e-003
9.439922e-003
9.439922e-003
9.439922e-003
9.439922e-003
9.439922e-003
9.439922e-003
9.439922e-003
9.439922e-003
9.439922e-003
9.439921e-003
9.439921e-003
9.439920e-003
9.439920e-003
9.439920e-003
9.439919e-003
9.439919e-003
9.439918e-003
9.439918e-003
9.439918e-003
9.439919e-003
9.439919e-003
9.439920e-003
9.439920e-003
9.439921e-003
9.439921e-003
9.439922e-003
9.439922e-003
9.439921e-003
9.439920e-003
9.439920e-003
9.439919e-003
9.439919e-003
9.439919e-003
9.439918e-003
9.439919e-003
9.439919e-003
9.439921e-003
9.439922e-003
9.439922e-003
9.439921e-003
9.439920e-003
9.439919e-003
9.439919e-003
9.439919e-003
9.439920e-003
9.439920e-003
9.439920e-003
9.439920e-003
9.439920e-003
9.439920e-003
9.439920e-003
9.439920e-003
9.439920e-003
9.439905e-003
9.439910e-003
9.439918e-003
9.439924e-003
9.439927e-003
9.439925e-003
9.439921e-003
9.439916e-003
9.439914e-003
9.439916e-003
9.439920e-003
9.439923e-003
9.439924e-003
9.439923e-003
9.439921e-003
9.439920e-003
9.439919e-003
9.439919e-003
9.439918e-003
9.439918e-003
9.439918e-003
9.439918e-003
9.439920e-003
9.439922e-003
9.439923e-003
9.439923e-003
9.439922e-003
9.439921e-003
9.439921e-003
9.439920e-003
9.439919e-003
9.439918e-003
9.439918e-003
9.439917e-003
9.439918e-003
9.439918e-003
9.439919e-003
9.439919e-003
9.439919e-003
9.439920e-003
9.439921e-003
9.439921e-003
9.439921e-003
9.439922e-003
9.439922e-003
9.439922e-003
9.439922e-003
9.439922e-003
9.439922e-003
9.439922e-003
9.439922e-003
9.439922e-003
9.439922e-003
9.439922e-003
9.439922e-003
9.439922e-003
9.439921e-003
9.439921e-003
9.439920e-003
9.439920e-003
9.439920e-003
9.439919e-003
9.439919e-003
9.439918e-003
9.439918e-003
9.439918e-003
9.439919e-003
9.439919e-003
9.439920e-003
9.439920e-003
9.439921e-003
9.439921e-003
9.439922e-003
9.439922e-003
9.439921e-003
9.439920e-003
9.439920e-003
9.439919e-003
9.439919e-003
9.439919e-003
9.439918e-003
9.439919e-003
9.439919e-003
9.439921e-003
9.439922e-003
9.439922e-003
9.439921e-003
9.439920e-003
9.439919e-003
9.439919e-003
9.439919e-003
9.439920e-003
9.439920e-003
9.439920e-003
9.439920e-003
9.439920e-003
9.439920e-003
9.439920e-003
9.439920e-003
9.439920e-003
9.439918e-003
9.439919e-003
9.439919e-003
9.439920e-003
9.439921e-003
9.439921e-003
9.439920e-003
9.439920e-003
9.439919e-003
9.439920e-003
9.439920e-003
9.439921e-003
9.439920e-003
9.439920e-003
9.439919e-003
9.439919e-003
9.439920e-003
9.439921e-003
9.439921e-003
9.439921e-003
9.439920e-003
9.439920e-003
9.439920e-003
9.439920e-003
9.439920e-003
9.439919e-003
9.439919e-003
9.439919e-003
9.439919e-003
9.439920e-003
9.439920e-003
9.439920e-003
9.439920e-003
9.439921e-003
9.439921e-003
9.439921e-003
9.439921e-003
9.439921e-003
9.439920e-003
9.439920e-003
9.439920e-003
9.439920e-003
9.439920e-003
9.439920e-003
9.439920e-003
9.439920e-003
9.439920e-003
9.439920e-003
9.439919e-003
9.439919e-003
9.439920e-003
9.439920e-003
9.439920e-003
9.439920e-003
9.439920e-003
9.439920e-003
9.439920e-003
9.439920e-003
9.439920e-003
9.439920e-003
9.439921e-003
9.439921e-003
9.439921e-003
9.439921e-003
9.439921e-003
9.439921e-003
9.439921e-003
9.439920e-003
9.439920e-003
9.439920e-003
9.439919e-003
9.439920e-003
9.439920e-003
9.439920e-003
9.439920e-003
9.439920e-003
9.439920e-003
9.439920e-003
9.439921e-003
9.439921e-003
9.439920e-003
9.439920e-003
9.439920e-003
9.439920e-003
9.439920e-003
9.439920e-003
9.439920e-003
9.439920e-003
9.439920e-003
9.439920e-003
9.439920e-003
9.439920e-003
9.439920e-003
9.439920e-003
9.439920e-003
9.439920e-003
9.439920e-003
9.439920e-003
9.439920e-003
9.439920e-003
9.439933e-003
9.439929e-003
9.439922e-003
9.439916e-003
9.439914e-003
9.439916e-003
9.439920e-003
9.439924e-003
9.439925e-003
9.439924e-003
9.439921e-003
9.439918e-003
9.439916e-003
9.439917e-003
9.439918e-003
9.439919e-003
9.439921e-003
9.439922e-003
9.439923e-003
9.439923e-003
9.439922e-003
9.439921e-003
9.439920e-003
9.439918e-003
9.439917e-003
9.439917e-003
9.439917e-003
9.439918e-003
9.439919e-003
9.439920e-003
9.439921e-003
9.439922e-003
9.439923e-003
9.439923e-003
9.439923e-003
9.439923e-003
9.439922e-003
9.439922e-003
9.439921e-003
9.439921e-003
9.439920e-003
9.439920e-003
9.439919e-003
9.439919e-003
9.439919e-003
9.439918e-003
9.439918e-003
9.439918e-003
9.439918e-003
9.439918e-003
9.439918e-003
9.439918e-003
9.439918e-003
9.439919e-003
9.439919e-003
9.439919e-003
9.439919e-003
9.439920e-003
9.439920e-003
9.439921e-003
9.439921e-003
9.439922e-003
9.439922e-003
9.439922e-003
9.439922e-003
9.439922e-003
9.439922e-003
9.439921e-003
9.439921e-003
9.439920e-003
9.439919e-003
9.439918e-003
9.439918e-003
9.439918e-003
9.439918e-003
9.439919e-003
9.439920e-003
9.439921e-003
9.439922e-003
9.439922e-003
9.439922e-003
9.439921e-003
9.439920e-003
9.439919e-003
9.439918e-003
9.439918e-003
9.439919e-003
9.439920e-003
9.439921e-003
9.439921e-003
9.439921e-003
9.439920e-003
9.439920e-003
9.439919e-003
9.439919e-003
9.439920e-003
9.439920e-003
9.439920e-003
9.439920e-003
9.439920e-003
9.439937e-003
9.439931e-003
9.439923e-003
9.439915e-003
9.439912e-003
9.439914e-003
9.439920e-003
9.439924e-003
9.439926e-003
9.439924e-003
9.439920e-003
9.439917e-003
9.439916e-003
9.439917e-003
9.439919e-003
9.439921e-003
9.439921e-003
9.439921e-003
9.439921e-003
9.439922e-003
9.439922e-003
9.439921e-003
9.439919e-003
9.439918e-003
9.439918e-003
9.439918e-003
9.439919e-003
9.439919e-003
9.439920e-003
9.439920e-003
9.439921e-003
9.439921e-003
9.439922e-003
9.439922e-003
9.439922e-003
9.439921e-003
9.439921e-003
9.439921e-003
9.439921e-003
9.439921e-003
9.439921e-003
9.439921e-003
9.439921e-003
9.439921e-003
9.439921e-003
9.439921e-003
9.439921e-003
9.439921e-003
9.439922e-003
9.439922e-003
9.439921e-003
9.439921e-003
9.439921e-003
9.439921e-003
9.439921e-003
9.439921e-003
9.439921e-003
9.439921e-003
9.439921e-003
9.439921e-003
9.439921e-003
9.439921e-003
9.439921e-003
9.439921e-003
9.439921e-003
9.439921e-003
9.439921e-003
9.439921e-003
9.439921e-003
9.439920e-003
9.439920e-003
9.439919e-003
9.439919e-003
9.439919e-003
9.439919e-003
9.439919e-003
9.439920e-003
9.439920e-003
9.439921e-003
9.439921e-003
9.439921e-003
9.439921e-003
9.439921e-003
9.439919e-003
9.439918e-003
9.439918e-003
9.439919e-003
9.439920e-003
9.439921e-003
9.439921e-003
9.439921e-003
9.439920e-003
9.439919e-003
9.439919e-003
9.439920e-003
9.439920e-003
9.439920e-003
9.439920e-003
9.439920e-003
9.439920e-003
9.439926e-003
9.439925e-003
9.439921e-003
9.439919e-003
9.439917e-003
9.439918e-003
9.439920e-003
9.439921e-003
9.439922e-003
9.439921e-003
9.439919e-003
9.439918e-003
9.439919e-003
9.439921e-003
9.439922e-003
9.439922e-003
9.439920e-003
9.439919e-003
9.439918e-003
9.439918e-003
9.439919e-003
9.439920e-003
9.439920e-003
9.439920e-003
9.439921e-003
9.439922e-003
9.439923e-003
9.439922e-003
9.439922e-003
9.439921e-003
9.439920e-003
9.439920e-003
9.439919e-003
9.439919e-003
9.439919e-003
9.439919e-003
9.439920e-003
9.439921e-003
9.439922e-003
9.439922e-003
9.439923e-003
9.439924e-003
9.439925e-003
9.439925e-003
9.439926e-003
9.439926e-003
9.439926e-003
9.439926e-003
9.439927e-003
9.439927e-003
9.439926e-003
9.439926e-003
9.439926e-003
9.439926e-003
9.439925e-003
9.439925e-003
9.439924e-003
9.439923e-003
9.439923e-003
9.439922e-003
9.439921e-003
9.439920e-003
9.439920e-003
9.439920e-003
9.439919e-003
9.439919e-003
9.439919e-003
9.439920e-003
9.439920e-003
9.439921e-003
9.439922e-003
9.439922e-003
9.439921e-003
9.439921e-003
9.439921e-003
9.439921e-003
9.439920e-003
9.439919e-003
9.439919e-003
9.439919e-003
9.439919e-003
9.439920e-003
9.439921e-003
9.439920e-003
9.439920e-003
9.439920e-003
9.439920e-003
9.439920e-003
9.439920e-003
9.439920e-003
9.439920e-003
9.439920e-003
9.439920e-003
9.439920e-003
9.439920e-003
9.439920e-003
9.439920e-003
9.439920e-003
9.439920e-003
9.439920e-003
9.439909e-003
9.439913e-003
9.439919e-003
9.439924e-003
9.439925e-003
9.439923e-003
9.439920e-003
9.439917e-003
9.439917e-003
9.439917e-003
9.439919e-003
9.439921e-003
9.439922e-003
9.439923e-003
9.439923e-003
9.439922e-003
9.439919e-003
9.439917e-003
9.439916e-003
9.439917e-003
9.439918e-003
9.439920e-003
9.439921e-003
9.439922e-003
9.439922e-003
9.439923e-003
9.439924e-003
9.439923e-003
9.439922e-003
9.439920e-003
9.439920e-003
9.439919e-003
9.439920e-003
9.439920e-003
9.439920e-003
9.439921e-003
9.439922e-003
9.439923e-003
9.439924e-003
9.439925e-003
9.439926e-003
9.439927e-003
9.439928e-003
9.439929e-003
9.439929e-003
9.439929e-003
9.439930e-003
9.439930e-003
9.439930e-003
9.439930e-003
9.439930e-003
9.439930e-003
9.439929e-003
9.439929e-003
9.439929e-003
9.439928e-003
9.439927e-003
9.439927e-003
9.439926e-003
9.439925e-003
9.439924e-003
9.439922e-003
9.439922e-003
9.439921e-003
9.439920e-003
9.439920e-003
9.439919e-003
9.439919e-003
9.439920e-003
9.439921e-003
9.439922e-003
9.439922e-003
9.439922e-003
9.439922e-003
9.439922e-003
9.439921e-003
9.439920e-003
9.439919e-003
9.439918e-003
9.439918e-003
9.439918e-003
9.439919e-003
9.439920e-003
9.439921e-003
9.439921e-003
9.439921e-003
9.439921e-003
9.439920e-003
9.439919e-003
9.439919e-003
9.439919e-003
9.439919e-003
9.439921e-003
9.439921e-003
9.439921e-003
9.439920e-003
9.439919e-003
9.439919e-003
9.439920e-003
9.439920e-003
9.439900e-003
9.439907e-003
9.439918e-003
9.439926e-003
9.439928e-003
9.439925e-003
9.439920e-003
9.439915e-003
9.439915e-003
9.439917e-003
9.439920e-003
9.439922e-003
9.439923e-003
9.439922e-003
9.439921e-003
9.439920e-003
9.439919e-003
9.439919e-003
9.439919e-003
9.439919e-003
9.439920e-003
9.439921e-003
9.439921e-003
9.439921e-003
9.439921e-003
9.439921e-003
9.439921e-003
9.439921e-003
9.439921e-003
9.439921e-003
9.439921e-003
9.439922e-003
9.439924e-003
9.439925e-003
9.439926e-003
9.439927e-003
9.439928e-003
9.439929e-003
9.439930e-003
9.439930e-003
9.439930e-003
9.439931e-003
9.439931e-003
9.439932e-003
9.439932e-003
9.439932e-003
9.439932e-003
9.439933e-003
9.439933e-003
9.439933e-003
9.439933e-003
9.439932e-003
9.439932e-003
9.439932e-003
9.439932e-003
9.439931e-003
9.439931e-003
9.439930e-003
9.439930e-003
9.439929e-003
9.439928e-003
9.439927e-003
9.439927e-003
9.439926e-003
9.439925e-003
9.439924e-003
9.439923e-003
9.439922e-003
9.439921e-003
9.439921e-003
9.439921e-003
9.439920e-003
9.439920e-003
9.439921e-003
9.439921e-003
9.439921e-003
9.439921e-003
9.439920e-003
9.439920e-003
9.439919e-003
9.439919e-003
9.439919e-003
9.439920e-003
9.439920e-003
9.439921e-003
9.439921e-003
9.439921e-003
9.439920e-003
9.439919e-003
9.439919e-003
9.439919e-003
9.439920e-003
9.439921e-003
9.439921e-003
9.439921e-003
9.439920e-003
9.439919e-003
9.439919e-003
9.439920e-003
9.439920e-003
9.439907e-003
9.439911e-003
9.439918e-003
9.439923e-003
9.439925e-003
9.439923e-003
9.439919e-003
9.439917e-003
9.439918e-003
9.439920e-003
9.439922e-003
9.439922e-003
9.439920e-003
9.439918e-003
9.439917e-003
9.439918e-003
9.439920e-003
9.439922e-003
9.439923e-003
9.439923e-003
9.439922e-003
9.439921e-003
9.439921e-003
9.439920e-003
9.439919e-003
9.439918e-003
9.439919e-003
9.439920e-003
9.439921e-003
9.439923e-003
9.439925e-003
9.439927e-003
9.439929e-003
9.439931e-003
9.439932e-003
9.439933e-003
9.439934e-003
9.439935e-003
9.439936e-003
9.439936e-003
9.439936e-003
9.439937e-003
9.439937e-003
9.439938e-003
9.439938e-003
9.439938e-003
9.439938e-003
9.439938e-003
9.439939e-003
9.439938e-003
9.439938e-003
9.439938e-003
9.439938e-003
9.439938e-003
9.439937e-003
9.439937e-003
9.439936e-003
9.439936e-003
9.439935e-003
9.439935e-003
9.439934e-003
9.439933e-003
9.439932e-003
9.439932e-003
9.439930e-003
9.439929e-003
9.439927e-003
9.439925e-003
9.439924e-003
9.439922e-003
9.439921e-003
9.439920e-003
9.439919e-003
9.439919e-003
9.439919e-003
9.439920e-003
9.439921e-003
9.439921e-003
9.439922e-003
9.439922e-003
9.439921e-003
9.439920e-003
9.439919e-003
9.439919e-003
9.439919e-003
9.439920e-003
9.439920e-003
9.439920e-003
9.439920e-003
9.439920e-003
9.439920e-003
9.439920e-003
9.439920e-003
9.439920e-003
9.439920e-003
9.439920e-003
9.439920e-003
9.439920e-003
9.439920e-003
9.439920e-003
9.439924e-003
9.439923e-003
9.439920e-003
9.439919e-003
9.439918e-003
9.439918e-003
9.439919e-003
9.439921e-003
9.439922e-003
9.439923e-003
9.439923e-003
9.439921e-003
9.439918e-003
9.439916e-003
9.439916e-003
9.439918e-003
9.439921e-003
9.439923e-003
9.439924e-003
9.439923e-003
9.439922e-003
9.439921e-003
9.439920e-003
9.439920e-003
9.439920e-003
9.439920e-003
9.439921e-003
9.439923e-003
9.439925e-003
9.439928e-003
9.439930e-003
9.439932e-003
9.439934e-003
9.439936e-003
9.439937e-003
9.439939e-003
9.439940e-003
9.439941e-003
9.439942e-003
9.439943e-003
9.439943e-003
9.439944e-003
9.439944e-003
9.439944e-003
9.439944e-003
9.439944e-003
9.439944e-003
9.439944e-003
9.439944e-003
9.439943e-003
9.439943e-003
9.439943e-003
9.439943e-003
9.439943e-003
9.439943e-003
9.439943e-003
9.439942e-003
9.439942e-003
9.439941e-003
9.439940e-003
9.439939e-003
9.439938e-003
9.439937e-003
9.439936e-003
9.439934e-003
9.439933e-003
9.439931e-003
9.439930e-003
9.439928e-003
9.439926e-003
9.439924e-003
9.439922e-003
9.439921e-003
9.439920e-003
9.439920e-003
9.439919e-003
9.439920e-003
9.439921e-003
9.439922e-003
9.439922e-003
9.439922e-003
9.439921e-003
9.439919e-003
9.439919e-003
9.439919e-003
9.439919e-003
9.439919e-003
9.439920e-003
9.439920e-003
9.439921e-003
9.439921e-003
9.439921e-003
9.439920e-003
9.439919e-003
9.439919e-003
9.439920e-003
9.439921e-003
9.439921e-003
9.439920e-003
9.439920e-003
9.439939e-003
9.439932e-003
9.439922e-003
9.439915e-003
9.439913e-003
9.439916e-003
9.439920e-003
9.439923e-003
9.439924e-003
9.439922e-003
9.439920e-003
9.439919e-003
9.439918e-003
9.439918e-003
9.439919e-003
9.439920e-003
9.439921e-003
9.439922e-003
9.439922e-003
9.439920e-003
9.439919e-003
9.439919e-003
9.439921e-003
9.439922e-003
9.439924e-003
9.439925e-003
9.439927e-003
9.439929e-003
9.439932e-003
9.439934e-003
9.439935e-003
9.439937e-003
9.439938e-003
9.439940e-003
9.439941e-003
9.439943e-003
9.439943e-003
9.439944e-003
9.439944e-003
9.439943e-003
9.439942e-003
9.439940e-003
9.439938e-003
9.439936e-003
9.439933e-003
9.439930e-003
9.439928e-003
9.439926e-003
9.439925e-003
9.439925e-003
9.439925e-003
9.439926e-003
9.439927e-003
9.439929e-003
9.439931e-003
9.439934e-003
9.439936e-003
9.439938e-003
9.439940e-003
9.439941e-003
9.439941e-003
9.439941e-003
9.439941e-003
9.439939e-003
9.439938e-003
9.439937e-003
9.439935e-003
9.439934e-003
9.439932e-003
9.439930e-003
9.439928e-003
9.439927e-003
9.439925e-003
9.439924e-003
9.439922e-003
9.439921e-003
9.439920e-003
9.439920e-003
9.439920e-003
9.439921e-003
9.439921e-003
9.439920e-003
9.439920e-003
9.439920e-003
9.439920e-003
9.439919e-003
9.439919e-003
9.439919e-003
9.439920e-003
9.439921e-003
9.439922e-003
9.439921e-003
9.439919e-003
9.439918e-003
9.439919e-003
9.439920e-003
9.439921e-003
9.439921e-003
9.439920e-003
9.439919e-003
9.439939e-003
9.439932e-003
9.439922e-003
9.439914e-003
9.439913e-003
9.439917e-003
9.439922e-003
9.439924e-003
9.439922e-003
9.439919e-003
9.439917e-003
9.439918e-003
9.439920e-003
9.439922e-003
9.439923e-003
9.439922e-003
9.439921e-003
9.439919e-003
9.439918e-003
9.439918e-003
9.439918e-003
9.439920e-003
9.439923e-003
9.439926e-003
9.439929e-003
9.439932e-003
9.439934e-003
9.439936e-003
9.439938e-003
9.439940e-003
9.439941e-003
9.439942e-003
9.439943e-003
9.439944e-003
9.439943e-003
9.439941e-003
9.439937e-003
9.439932e-003
9.439924e-003
9.439915e-003
9.439905e-003
9.439893e-003
9.439881e-003
9.439868e-003
9.439856e-003
9.439845e-003
9.439836e-003
9.439829e-003
9.439825e-003
9.439824e-003
9.439825e-003
9.439830e-003
9.439837e-003
9.439846e-003
9.439856e-003
9.439868e-003
9.439881e-003
9.439893e-003
9.439904e-003
9.439914e-003
9.439923e-003
9.439930e-003
9.439935e-003
9.439938e-003
9.439939e-003
9.439940e-003
9.439940e-003
9.439939e-003
9.439937e-003
9.439935e-003
9.439933e-003
9.439932e-003
9.439930e-003
9.439928e-003
9.439926e-003
9.439923e-003
9.439921e-003
9.439920e-003
9.439919e-003
9.439919e-003
9.439919e-003
9.439920e-003
9.439921e-003
9.439921e-003
9.439921e-003
9.439920e-003
9.439919e-003
9.439919e-003
9.439920e-003
9.439920e-003
9.439921e-003
9.439920e-003
9.439919e-003
9.439919e-003
9.439920e-003
9.439920e-003
9.439921e-003
9.439921e-003
9.439920e-003
9.439919e-003
9.439926e-003
9.439923e-003
9.439919e-003
9.439917e-003
9.439918e-003
9.439921e-003
9.439923e-003
9.439922e-003
9.439919e-003
9.439916e-003
9.439916e-003
9.439918e-003
9.439922e-003
9.439925e-003
9.439924e-003
9.439922e-003
9.439919e-003
9.439918e-003
9.439918e-003
9.439920e-003
9.439922e-003
9.439924e-003
9.439927e-003
9.439930e-003
9.439933e-003
9.439936e-003
9.439938e-003
9.439941e-003
9.439944e-003
9.439946e-003
9.439946e-003
9.439945e-003
9.439941e-003
9.439935e-003
9.439924e-003
9.439908e-003
9.439887e-003
9.439861e-003
9.439830e-003
9.439795e-003
9.439757e-003
9.439717e-003
9.439676e-003
9.439636e-003
9.439599e-003
9.439567e-003
9.439540e-003
9.439520e-003
9.439508e-003
9.439504e-003
9.439509e-003
9.439523e-003
9.439544e-003
9.439572e-003
9.439606e-003
9.439644e-003
9.439685e-003
9.439726e-003
9.439766e-003
9.439803e-003
9.439837e-003
9.439867e-003
9.439891e-003
9.439910e-003
9.439924e-003
9.439933e-003
9.439939e-003
9.439941e-003
9.439941e-003
9.439940e-003
9.439938e-003
9.439936e-003
9.439934e-003
9.439931e-003
9.439929e-003
9.439926e-003
9.439924e-003
9.439922e-003
9.439921e-003
9.439919e-003
9.439919e-003
9.439919e-003
9.439921e-003
9.439922e-003
9.439922e-003
9.439921e-003
9.439920e-003
9.439919e-003
9.439919e-003
9.439919e-003
9.439920e-003
9.439920e-003
9.439920e-003
9.439920e-003
9.439921e-003
9.439920e-003
9.439920e-003
9.439920e-003
9.439920e-003
9.439920e-003
9.439909e-003
9.439913e-003
9.439918e-003
9.439922e-003
9.439924e-003
9.439924e-003
9.439922e-003
9.439919e-003
9.439918e-003
9.439917e-003
9.439918e-003
9.439920e-003
9.439922e-003
9.439923e-003
9.439922e-003
9.439920e-003
9.439919e-003
9.439919e-003
9.439922e-003
9.439925e-003
9.439928e-003
9.439930e-003
9.439932e-003
9.439934e-003
9.439937e-003
9.439940e-003
9.439943e-003
9.439945e-003
9.439946e-003
9.439944e-003
9.439937e-003
9.439924e-003
9.439902e-003
9.439870e-003
9.439827e-003
9.439771e-003
9.439702e-003
9.439621e-003
9.439529e-003
9.439428e-003
9.439320e-003
9.439210e-003
9.439099e-003
9.438993e-003
9.438896e-003
9.438811e-003
9.438741e-003
9.438690e-003
9.438659e-003
9.438651e-003
9.438665e-003
9.438701e-003
9.438757e-003
9.438832e-003
9.438922e-003
9.439023e-003
9.439133e-003
9.439245e-003
9.439357e-003
9.439464e-003
9.439563e-003
9.439652e-003
9.439729e-003
9.439793e-003
9.439843e-003
9.439881e-003
9.439908e-003
9.439926e-003
9.439936e-003
9.439940e-003
9.439941e-003
9.439940e-003
9.439937e-003
9.439935e-003
9.439932e-003
9.439930e-003
9.439928e-003
9.439926e-003
9.439924e-003
9.439922e-003
9.439920e-003
9.439920e-003
9.439920e-003
9.439921e-003
9.439921e-003
9.439921e-003
9.439920e-003
9.439920e-003
9.439920e-003
9.439919e-003
9.439919e-003
9.439920e-003
9.439921e-003
9.439921e-003
9.439921e-003
9.439920e-003
9.439919e-003
9.439919e-003
9.439920e-003
9.439921e-003
9.439901e-003
9.439908e-003
9.439919e-003
9.439925e-003
9.439926e-003
9.439922e-003
9.439918e-003
9.439917e-003
9.439919e-003
9.439921e-003
9.439922e-003
9.439922e-003
9.439920e-003
9.439919e-003
9.439919e-003
9.439919e-003
9.439920e-003
9.439923e-003
9.439927e-003
9.439931e-003
9.439933e-003
9.439935e-003
9.439937e-003
9.439940e-003
9.439943e-003
9.439947e-003
9.439947e-003
9.439944e-003
9.439933e-003
9.439912e-003
9.439878e-003
9.439825e-003
9.439750e-003
9.439649e-003
9.439521e-003
9.439364e-003
9.439177e-003
9.438962e-003
9.438723e-003
9.438466e-003
9.438195e-003
9.437920e-003
9.437648e-003
9.437390e-003
9.437154e-003
9.436948e-003
9.436781e-003
9.436659e-003
9.436586e-003
9.436567e-003
9.436602e-003
9.436689e-003
9.436826e-003
9.437007e-003
9.437226e-003
9.437475e-003
9.437744e-003
9.438023e-003
9.438302e-003
9.438574e-003
9.438829e-003
9.439062e-003
9.439267e-003
9.439442e-003
9.439586e-003
9.439701e-003
9.439788e-003
9.439850e-003
9.439893e-003
9.439919e-003
9.439934e-003
9.439940e-003
9.439941e-003
9.439939e-003
9.439936e-003
9.439934e-003
9.439932e-003
9.439930e-003
9.439928e-003
9.439925e-003
9.439923e-003
9.439922e-003
9.439920e-003
9.439919e-003
9.439919e-003
9.439919e-003
9.439920e-003
9.439921e-003
9.439921e-003
9.439920e-003
9.439919e-003
9.439919e-003
9.439921e-003
9.439921e-003
9.439921e-003
9.439920e-003
9.439918e-003
9.439919e-003
9.439920e-003
9.439922e-003
9.439905e-003
9.439912e-003
9.439922e-003
9.439926e-003
9.439924e-003
9.439919e-003
9.439915e-003
9.439916e-003
9.439921e-003
9.439925e-003
9.439925e-003
9.439922e-003
9.439918e-003
9.439917e-003
9.439918e-003
9.439921e-003
9.439924e-003
9.439927e-003
9.439930e-003
9.439934e-003
9.439937e-003
9.439940e-003
9.439944e-003
9.439948e-003
9.439950e-003
9.439947e-003
9.439935e-003
9.439909e-003
9.439862e-003
9.439788e-003
9.439677e-003
9.439523e-003
9.439315e-003
9.439049e-003
9.438719e-003
9.438324e-003
9.437864e-003
9.437345e-003
9.436774e-003
9.436165e-003
9.435533e-003
9.434895e-003
9.434271e-003
9.433680e-003
9.433144e-003
9.432679e-003
9.432304e-003
9.432030e-003
9.431869e-003
9.431828e-003
9.431907e-003
9.432105e-003
9.432415e-003
9.432826e-003
9.433324e-003
9.433892e-003
9.434509e-003
9.435154e-003
9.435806e-003
9.436445e-003
9.437052e-003
9.437611e-003
9.438111e-003
9.438546e-003
9.438911e-003
9.439208e-003
9.439441e-003
9.439617e-003
9.439744e-003
9.439831e-003
9.439887e-003
9.439919e-003
9.439936e-003
9.439941e-003
9.439942e-003
9.439940e-003
9.439937e-003
9.439933e-003
9.439930e-003
9.439928e-003
9.439926e-003
9.439924e-003
9.439922e-003
9.439920e-003
9.439919e-003
9.439919e-003
9.439920e-003
9.439922e-003
9.439922e-003
9.439921e-003
9.439919e-003
9.439919e-003
9.439920e-003
9.439921e-003
9.439921e-003
9.439920e-003
9.439919e-003
9.439919e-003
9.439920e-003
9.439921e-003
9.439916e-003
9.439920e-003
9.439924e-003
9.439924e-003
9.439921e-003
9.439916e-003
9.439915e-003
9.439917e-003
9.439922e-003
9.439925e-003
9.439924e-003
9.439921e-003
9.439918e-003
9.439918e-003
9.439921e-003
9.439926e-003
9.439929e-003
9.439931e-003
9.439933e-003
9.439936e-003
9.439941e-003
9.439947e-003
9.439951e-003
9.439950e-003
9.439941e-003
9.439916e-003
9.439865e-003
9.439776e-003
9.439637e-003
9.439430e-003
9.439140e-003
9.438747e-003
9.438237e-003
9.437597e-003
9.436817e-003
9.435898e-003
9.434843e-003
9.433666e-003
9.432389e-003
9.431040e-003
9.429653e-003
9.428267e-003
9.426922e-003
9.425660e-003
9.424520e-003
9.423540e-003
9.422751e-003
9.422180e-003
9.421846e-003
9.421761e-003
9.421930e-003
9.422348e-003
9.423002e-003
9.423872e-003
9.424931e-003
9.426143e-003
9.427468e-003
9.428865e-003
9.430289e-003
9.431697e-003
9.433047e-003
9.434305e-003
9.435445e-003
9.436448e-003
9.437303e-003
9.438010e-003
9.438576e-003
9.439013e-003
9.439339e-003
9.439572e-003
9.439730e-003
9.439832e-003
9.439893e-003
9.439925e-003
9.439939e-003
9.439943e-003
9.439941e-003
9.439937e-003
9.439933e-003
9.439930e-003
9.439928e-003
9.439926e-003
9.439924e-003
9.439922e-003
9.439920e-003
9.439919e-003
9.439920e-003
9.439921e-003
9.439921e-003
9.439921e-003
9.439920e-003
9.439919e-003
9.439919e-003
9.439920e-003
9.439920e-003
9.439920e-003
9.439920e-003
9.439920e-003
9.439920e-003
9.439920e-003
9.439927e-003
9.439925e-003
9.439923e-003
9.439920e-003
9.439918e-003
9.439917e-003
9.439918e-003
9.439920e-003
9.439922e-003
9.439922e-003
9.439921e-003
9.439919e-003
9.439919e-003
9.439922e-003
9.439927e-003
9.439931e-003
9.439933e-003
9.439935e-003
9.439937e-003
9.439942e-003
9.439949e-003
9.439952e-003
9.439948e-003
9.439928e-003
9.439882e-003
9.439793e-003
9.439643e-003
9.439406e-003
9.439051e-003
9.438545e-003
9.437853e-003
9.436940e-003
9.435774e-003
9.434334e-003
9.432608e-003
9.430600e-003
9.428328e-003
9.425828e-003
9.423150e-003
9.420357e-003
9.417520e-003
9.414719e-003
9.412031e-003
9.409535e-003
9.407303e-003
9.405399e-003
9.403879e-003
9.402787e-003
9.402154e-003
9.402000e-003
9.402331e-003
9.403141e-003
9.404409e-003
9.406101e-003
9.408171e-003
9.410559e-003
9.413195e-003
9.416001e-003
9.418892e-003
9.421784e-003
9.424594e-003
9.427248e-003
9.429683e-003
9.431854e-003
9.433733e-003
9.435310e-003
9.436591e-003
9.437598e-003
9.438364e-003
9.438924e-003
9.439318e-003
9.439583e-003
9.439751e-003
9.439852e-003
9.439907e-003
9.439934e-003
9.439942e-003
9.439942e-003
9.439938e-003
9.439934e-003
9.439931e-003
9.439929e-003
9.439927e-003
9.439924e-003
9.439922e-003
9.439921e-003
9.439920e-003
9.439920e-003
9.439920e-003
9.439920e-003
9.439920e-003
9.439920e-003
9.439920e-003
9.439919e-003
9.439920e-003
9.439920e-003
9.439921e-003
9.439921e-003
9.439920e-003
9.439919e-003
9.439931e-003
9.439926e-003
9.439919e-003
9.439915e-003
9.439917e-003
9.439921e-003
9.439923e-003
9.439923e-003
9.439920e-003
9.439918e-003
9.439918e-003
9.439919e-003
9.439923e-003
9.439926e-003
9.439930e-003
9.439934e-003
9.439937e-003
9.439941e-003
9.439946e-003
9.439952e-003
9.439954e-003
9.439944e-003
9.439910e-003
9.439835e-003
9.439696e-003
9.439460e-003
9.439085e-003
9.438516e-003
9.437692e-003
9.436543e-003
9.435002e-003
9.433004e-003
9.430497e-003
9.427450e-003
9.423859e-003
9.419751e-003
9.415184e-003
9.410248e-003
9.405058e-003
9.399745e-003
9.394453e-003
9.389325e-003
9.384497e-003
9.380094e-003
9.376222e-003
9.372972e-003
9.370415e-003
9.368602e-003
9.367571e-003
9.367341e-003
9.367920e-003
9.369299e-003
9.371456e-003
9.374352e-003
9.377930e-003
9.382111e-003
9.386799e-003
9.391874e-003
9.397201e-003
9.402630e-003
9.408007e-003
9.413182e-003
9.418022e-003
9.422416e-003
9.426286e-003
9.429589e-003
9.432320e-003
9.434503e-003
9.436190e-003
9.437448e-003
9.438351e-003
9.438975e-003
9.439387e-003
9.439646e-003
9.439800e-003
9.439885e-003
9.439925e-003
9.439941e-003
9.439943e-003
9.439940e-003
9.439936e-003
9.439932e-003
9.439929e-003
9.439926e-003
9.439925e-003
9.439923e-003
9.439921e-003
9.439919e-003
9.439919e-003
9.439920e-003
9.439921e-003
9.439921e-003
9.439920e-003
9.439919e-003
9.439919e-003
9.439920e-003
9.439922e-003
9.439922e-003
9.439920e-003
9.439918e-003
9.439931e-003
9.439924e-003
9.439916e-003
9.439913e-003
9.439917e-003
9.439924e-003
9.439927e-003
9.439924e-003
9.439919e-003
9.439916e-003
9.439918e-003
9.439922e-003
9.439927e-003
9.439930e-003
9.439932e-003
9.439936e-003
9.439942e-003
9.439949e-003
9.439955e-003
9.439955e-003
9.439938e-003
9.439888e-003
9.439781e-003
9.439580e-003
9.439235e-003
9.438678e-003
9.437820e-003
9.436553e-003
9.434756e-003
9.432301e-003
9.429065e-003
9.424946e-003
9.419879e-003
9.413847e-003
9.406899e-003
9.399147e-003
9.390766e-003
9.381978e-003
9.373038e-003
9.364211e-003
9.355749e-003
9.347875e-003
9.340769e-003
9.334564e-003
9.329340e-003
9.325140e-003
9.321971e-003
9.319821e-003
9.318672e-003
9.318505e-003
9.319312e-003
9.321095e-003
9.323867e-003
9.327640e-003
9.332423e-003
9.338200e-003
9.344923e-003
9.352496e-003
9.360770e-003
9.369542e-003
9.378566e-003
9.387568e-003
9.396268e-003
9.404409e-003
9.411779e-003
9.418228e-003
9.423680e-003
9.428131e-003
9.431637e-003
9.434300e-003
9.436249e-003
9.437621e-003
9.438550e-003
9.439152e-003
9.439524e-003
9.439741e-003
9.439859e-003
9.439916e-003
9.439939e-003
9.439945e-003
9.439942e-003
9.439936e-003
9.439931e-003
9.439928e-003
9.439926e-003
9.439925e-003