# vtk DataFile Version 3.0
vtk output
ASCII
DATASET STRUCTURED_POINTS
DIMENSIONS 100 100 1
SPACING 1 1 1
ORIGIN 0 0 0
POINT_DATA 10000
SCALARS SFBox_profile double
LOOKUP_TABLE default 
9.439941e-003
9.439938e-003
9.439933e-003
9.439926e-003
9.439921e-003
9.439919e-003
9.439920e-003
9.439925e-003
9.439933e-003
9.439942e-003
9.439951e-003
9.439959e-003
9.439965e-003
9.439969e-003
9.439973e-003
9.439975e-003
9.439972e-003
9.439961e-003
9.439934e-003
9.439885e-003
9.439806e-003
9.439692e-003
9.439540e-003
9.439347e-003
9.439113e-003
9.438835e-003
9.438513e-003
9.438145e-003
9.437732e-003
9.437278e-003
9.436788e-003
9.436269e-003
9.435728e-003
9.435171e-003
9.434603e-003
9.434027e-003
9.433446e-003
9.432861e-003
9.432278e-003
9.431699e-003
9.431129e-003
9.430571e-003
9.430028e-003
9.429502e-003
9.428994e-003
9.428509e-003
9.428048e-003
9.427616e-003
9.427217e-003
9.426854e-003
9.426531e-003
9.426253e-003
9.426025e-003
9.425852e-003
9.425745e-003
9.425710e-003
9.425756e-003
9.425891e-003
9.426122e-003
9.426452e-003
9.426887e-003
9.427426e-003
9.428068e-003
9.428808e-003
9.429635e-003
9.430535e-003
9.431489e-003
9.432473e-003
9.433463e-003
9.434434e-003
9.435360e-003
9.436222e-003
9.437002e-003
9.437687e-003
9.438269e-003
9.438748e-003
9.439127e-003
9.439415e-003
9.439625e-003
9.439770e-003
9.439864e-003
9.439922e-003
9.439953e-003
9.439966e-003
9.439968e-003
9.439962e-003
9.439953e-003
9.439944e-003
9.439935e-003
9.439928e-003
9.439924e-003
9.439923e-003
9.439922e-003
9.439923e-003
9.439923e-003
9.439923e-003
9.439922e-003
9.439920e-003
9.439919e-003
9.439919e-003
9.439941e-003
9.439938e-003
9.439933e-003
9.439926e-003
9.439921e-003
9.439919e-003
9.439920e-003
9.439925e-003
9.439933e-003
9.439942e-003
9.439951e-003
9.439959e-003
9.439965e-003
9.439969e-003
9.439973e-003
9.439975e-003
9.439972e-003
9.439961e-003
9.439934e-003
9.439885e-003
9.439806e-003
9.439692e-003
9.439540e-003
9.439347e-003
9.439113e-003
9.438835e-003
9.438513e-003
9.438145e-003
9.437732e-003
9.437278e-003
9.436788e-003
9.436269e-003
9.435728e-003
9.435171e-003
9.434603e-003
9.434027e-003
9.433446e-003
9.432861e-003
9.432278e-003
9.431699e-003
9.431129e-003
9.430571e-003
9.430028e-003
9.429502e-003
9.428994e-003
9.428509e-003
9.428048e-003
9.427616e-003
9.427217e-003
9.426854e-003
9.426531e-003
9.426253e-003
9.426025e-003
9.425852e-003
9.425745e-003
9.425710e-003
9.425756e-003
9.425891e-003
9.426122e-003
9.426452e-003
9.426887e-003
9.427426e-003
9.428068e-003
9.428808e-003
9.429635e-003
9.430535e-003
9.431489e-003
9.432473e-003
9.433463e-003
9.434434e-003
9.435360e-003
9.436222e-003
9.437002e-003
9.437687e-003
9.438269e-003
9.438748e-003
9.439127e-003
9.439415e-003
9.439625e-003
9.439770e-003
9.439864e-003
9.439922e-003
9.439953e-003
9.439966e-003
9.439968e-003
9.439962e-003
9.439953e-003
9.439944e-003
9.439935e-003
9.439928e-003
9.439924e-003
9.439923e-003
9.439922e-003
9.439923e-003
9.439923e-003
9.439923e-003
9.439922e-003
9.439920e-003
9.439919e-003
9.439919e-003
9.439934e-003
9.439932e-003
9.439929e-003
9.439925e-003
9.439922e-003
9.439922e-003
9.439924e-003
9.439929e-003
9.439937e-003
9.439947e-003
9.439955e-003
9.439963e-003
9.439967e-003
9.439967e-003
9.439961e-003
9.439946e-003
9.439917e-003
9.439866e-003
9.439784e-003
9.439661e-003
9.439485e-003
9.439248e-003
9.438944e-003
9.438569e-003
9.438120e-003
9.437597e-003
9.436999e-003
9.436329e-003
9.435591e-003
9.434793e-003
9.433943e-003
9.433053e-003
9.432134e-003
9.431194e-003
9.430241e-003
9.429283e-003
9.428323e-003
9.427367e-003
9.426420e-003
9.425487e-003
9.424574e-003
9.423685e-003
9.422824e-003
9.421993e-003
9.421196e-003
9.420437e-003
9.419719e-003
9.419049e-003
9.418431e-003
9.417871e-003
9.417376e-003
9.416950e-003
9.416604e-003
9.416345e-003
9.416187e-003
9.416140e-003
9.416219e-003
9.416434e-003
9.416797e-003
9.417316e-003
9.417998e-003
9.418846e-003
9.419859e-003
9.421029e-003
9.422343e-003
9.423781e-003
9.425314e-003
9.426909e-003
9.428528e-003
9.430132e-003
9.431680e-003
9.433137e-003
9.434471e-003
9.435659e-003
9.436684e-003
9.437543e-003
9.438236e-003
9.438777e-003
9.439183e-003
9.439475e-003
9.439676e-003
9.439807e-003
9.439886e-003
9.439930e-003
9.439950e-003
9.439955e-003
9.439952e-003
9.439945e-003
9.439938e-003
9.439932e-003
9.439928e-003
9.439925e-003
9.439924e-003
9.439924e-003
9.439923e-003
9.439922e-003
9.439921e-003
9.439920e-003
9.439919e-003
9.439919e-003
9.439922e-003
9.439922e-003
9.439923e-003
9.439924e-003
9.439926e-003
9.439928e-003
9.439932e-003
9.439938e-003
9.439945e-003
9.439953e-003
9.439961e-003
9.439965e-003
9.439961e-003
9.439945e-003
9.439910e-003
9.439847e-003
9.439743e-003
9.439585e-003
9.439353e-003
9.439030e-003
9.438596e-003
9.438035e-003
9.437334e-003
9.436485e-003
9.435485e-003
9.434336e-003
9.433043e-003
9.431619e-003
9.430075e-003
9.428431e-003
9.426705e-003
9.424919e-003
9.423091e-003
9.421241e-003
9.419383e-003
9.417530e-003
9.415693e-003
9.413882e-003
9.412104e-003
9.410369e-003
9.408683e-003
9.407053e-003
9.405484e-003
9.403982e-003
9.402550e-003
9.401194e-003
9.399921e-003
9.398737e-003
9.397652e-003
9.396673e-003
9.395811e-003
9.395078e-003
9.394486e-003
9.394051e-003
9.393793e-003
9.393732e-003
9.393889e-003
9.394284e-003
9.394939e-003
9.395870e-003
9.397092e-003
9.398612e-003
9.400433e-003
9.402547e-003
9.404937e-003
9.407570e-003
9.410406e-003
9.413388e-003
9.416452e-003
9.419527e-003
9.422537e-003
9.425411e-003
9.428082e-003
9.430497e-003
9.432617e-003
9.434421e-003
9.435908e-003
9.437093e-003
9.438003e-003
9.438677e-003
9.439156e-003
9.439482e-003
9.439693e-003
9.439822e-003
9.439894e-003
9.439930e-003
9.439944e-003
9.439946e-003
9.439943e-003
9.439938e-003
9.439933e-003
9.439930e-003
9.439927e-003
9.439925e-003
9.439923e-003
9.439922e-003
9.439921e-003
9.439920e-003
9.439920e-003
9.439919e-003
9.439911e-003
9.439914e-003
9.439919e-003
9.439925e-003
9.439932e-003
9.439938e-003
9.439943e-003
9.439949e-003
9.439955e-003
9.439960e-003
9.439961e-003
9.439952e-003
9.439924e-003
9.439864e-003
9.439754e-003
9.439572e-003
9.439293e-003
9.438885e-003
9.438313e-003
9.437540e-003
9.436531e-003
9.435256e-003
9.433693e-003
9.431831e-003
9.429668e-003
9.427219e-003
9.424504e-003
9.421555e-003
9.418410e-003
9.415109e-003
9.411694e-003
9.408207e-003
9.404686e-003
9.401166e-003
9.397675e-003
9.394237e-003
9.390871e-003
9.387593e-003
9.384416e-003
9.381350e-003
9.378405e-003
9.375589e-003
9.372906e-003
9.370363e-003
9.367963e-003
9.365714e-003
9.363621e-003
9.361695e-003
9.359944e-003
9.358381e-003
9.357020e-003
9.355878e-003
9.354973e-003
9.354329e-003
9.353973e-003
9.353935e-003
9.354246e-003
9.354939e-003
9.356048e-003
9.357603e-003
9.359633e-003
9.362158e-003
9.365193e-003
9.368740e-003
9.372787e-003
9.377302e-003
9.382233e-003
9.387504e-003
9.393019e-003
9.398658e-003
9.404288e-003
9.409769e-003
9.414965e-003
9.419752e-003
9.424034e-003
9.427747e-003
9.430864e-003
9.433393e-003
9.435374e-003
9.436871e-003
9.437959e-003
9.438719e-003
9.439227e-003
9.439551e-003
9.439746e-003
9.439856e-003
9.439912e-003
9.439937e-003
9.439945e-003
9.439945e-003
9.439941e-003
9.439936e-003
9.439931e-003
9.439927e-003
9.439923e-003
9.439921e-003
9.439920e-003
9.439920e-003
9.439920e-003
9.439920e-003
9.439905e-003
9.439910e-003
9.439919e-003
9.439930e-003
9.439941e-003
9.439950e-003
9.439957e-003
9.439961e-003
9.439962e-003
9.439957e-003
9.439938e-003
9.439892e-003
9.439799e-003
9.439629e-003
9.439345e-003
9.438898e-003
9.438232e-003
9.437284e-003
9.435986e-003
9.434269e-003
9.432072e-003
9.429345e-003
9.426059e-003
9.422210e-003
9.417818e-003
9.412929e-003
9.407612e-003
9.401948e-003
9.396026e-003
9.389938e-003
9.383772e-003
9.377609e-003
9.371517e-003
9.365557e-003
9.359774e-003
9.354205e-003
9.348875e-003
9.343804e-003
9.339004e-003
9.334481e-003
9.330240e-003
9.326280e-003
9.322599e-003
9.319194e-003
9.316059e-003
9.313192e-003
9.310591e-003
9.308259e-003
9.306198e-003
9.304417e-003
9.302923e-003
9.301729e-003
9.300850e-003
9.300302e-003
9.300109e-003
9.300295e-003
9.300889e-003
9.301926e-003
9.303440e-003
9.305473e-003
9.308072e-003
9.311284e-003
9.315163e-003
9.319761e-003
9.325119e-003
9.331268e-003
9.338207e-003
9.345899e-003
9.354259e-003
9.363145e-003
9.372363e-003
9.381672e-003
9.390808e-003
9.399502e-003
9.407511e-003
9.414644e-003
9.420778e-003
9.425867e-003
9.429937e-003
9.433072e-003
9.435396e-003
9.437053e-003
9.438186e-003
9.438928e-003
9.439392e-003
9.439667e-003
9.439821e-003
9.439899e-003
9.439934e-003
9.439946e-003
9.439946e-003
9.439941e-003
9.439935e-003
9.439929e-003
9.439924e-003
9.439922e-003
9.439921e-003
9.439921e-003
9.439921e-003
9.439922e-003
9.439909e-003
9.439915e-003
9.439926e-003
9.439939e-003
9.439953e-003
9.439964e-003
9.439970e-003
9.439970e-003
9.439958e-003
9.439925e-003
9.439855e-003
9.439719e-003
9.439473e-003
9.439056e-003
9.438391e-003
9.437380e-003
9.435910e-003
9.433858e-003
9.431099e-003
9.427516e-003
9.423016e-003
9.417543e-003
9.411090e-003
9.403705e-003
9.395493e-003
9.386608e-003
9.377237e-003
9.367586e-003
9.357859e-003
9.348249e-003
9.338924e-003
9.330023e-003
9.321652e-003
9.313890e-003
9.306787e-003
9.300372e-003
9.294657e-003
9.289637e-003
9.285297e-003
9.281610e-003
9.278542e-003
9.276053e-003
9.274098e-003
9.272628e-003
9.271596e-003
9.270955e-003
9.270663e-003
9.270682e-003
9.270975e-003
9.271509e-003
9.272250e-003
9.273159e-003
9.274197e-003
9.275320e-003
9.276479e-003
9.277625e-003
9.278713e-003
9.279702e-003
9.280570e-003
9.281323e-003
9.282003e-003
9.282706e-003
9.283585e-003
9.284857e-003
9.286791e-003
9.289694e-003
9.293874e-003
9.299596e-003
9.307038e-003
9.316239e-003
9.327074e-003
9.339243e-003
9.352292e-003
9.365666e-003
9.378772e-003
9.391060e-003
9.402089e-003
9.411569e-003
9.419380e-003
9.425550e-003
9.430227e-003
9.433630e-003
9.436004e-003
9.437593e-003
9.438611e-003
9.439233e-003
9.439594e-003
9.439791e-003
9.439889e-003
9.439932e-003
9.439946e-003
9.439945e-003
9.439939e-003
9.439932e-003
9.439927e-003
9.439923e-003
9.439922e-003
9.439922e-003
9.439922e-003
9.439923e-003
9.439922e-003
9.439928e-003
9.439939e-003
9.439952e-003
9.439966e-003
9.439976e-003
9.439978e-003
9.439963e-003
9.439919e-003
9.439822e-003
9.439635e-003
9.439298e-003
9.438722e-003
9.437788e-003
9.436341e-003
9.434194e-003
9.431136e-003
9.426949e-003
9.421426e-003
9.414409e-003
9.405813e-003
9.395659e-003
9.384094e-003
9.371391e-003
9.357936e-003
9.344195e-003
9.330668e-003
9.317848e-003
9.306174e-003
9.296009e-003
9.287620e-003
9.281181e-003
9.276776e-003
9.274422e-003
9.274080e-003
9.275674e-003
9.279101e-003
9.284238e-003
9.290944e-003
9.299062e-003
9.308419e-003
9.318831e-003
9.330105e-003
9.342045e-003
9.354457e-003
9.367154e-003
9.379955e-003
9.392687e-003
9.405176e-003
9.417241e-003
9.428686e-003
9.439290e-003
9.448795e-003
9.456912e-003
9.463311e-003
9.467635e-003
9.469511e-003
9.468578e-003
9.464519e-003
9.457107e-003
9.446261e-003
9.432102e-003
9.415000e-003
9.395616e-003
9.374906e-003
9.354087e-003
9.334554e-003
9.317750e-003
9.305001e-003
9.297343e-003
9.295360e-003
9.299090e-003
9.307997e-003
9.321052e-003
9.336881e-003
9.353985e-003
9.370956e-003
9.386656e-003
9.400321e-003
9.411579e-003
9.420397e-003
9.426982e-003
9.431683e-003
9.434895e-003
9.436995e-003
9.438308e-003
9.439091e-003
9.439534e-003
9.439768e-003
9.439882e-003
9.439929e-003
9.439943e-003
9.439942e-003
9.439936e-003
9.439930e-003
9.439926e-003
9.439924e-003
9.439923e-003
9.439924e-003
9.439924e-003
9.439943e-003
9.439948e-003
9.439956e-003
9.439967e-003
9.439977e-003
9.439981e-003
9.439967e-003
9.439917e-003
9.439799e-003
9.439563e-003
9.439129e-003
9.438376e-003
9.437134e-003
9.435173e-003
9.432206e-003
9.427896e-003
9.421883e-003
9.413834e-003
9.403500e-003
9.390795e-003
9.375874e-003
9.359182e-003
9.341479e-003
9.323799e-003
9.307375e-003
9.293513e-003
9.283467e-003
9.278320e-003
9.278897e-003
9.285725e-003
9.299026e-003
9.318757e-003
9.344662e-003
9.376341e-003
9.413307e-003
9.455040e-003
9.501007e-003
9.550676e-003
9.603505e-003
9.658942e-003
9.716413e-003
9.775326e-003
9.835081e-003
9.895078e-003
9.954731e-003
1.001347e-002
1.007076e-002
1.012607e-002
1.017884e-002
1.022850e-002
1.027440e-002
1.031579e-002
1.035180e-002
1.038141e-002
1.040345e-002
1.041665e-002
1.041961e-002
1.041096e-002
1.038940e-002
1.035385e-002
1.030366e-002
1.023874e-002
1.015979e-002
1.006843e-002
9.967299e-003
9.860020e-003
9.751044e-003
9.645332e-003
9.547896e-003
9.463268e-003
9.394957e-003
9.344996e-003
9.313694e-003
9.299633e-003
9.299968e-003
9.310937e-003
9.328504e-003
9.348955e-003
9.369341e-003
9.387680e-003
9.402935e-003
9.414828e-003
9.423594e-003
9.429736e-003
9.433841e-003
9.436461e-003
9.438057e-003
9.438984e-003
9.439493e-003
9.439755e-003
9.439877e-003
9.439926e-003
9.439941e-003
9.439941e-003
9.439936e-003
9.439931e-003
9.439928e-003
9.439926e-003
9.439925e-003
9.439924e-003
9.439969e-003
9.439971e-003
9.439975e-003
9.439981e-003
9.439982e-003
9.439968e-003
9.439915e-003
9.439785e-003
9.439511e-003
9.438989e-003
9.438063e-003
9.436501e-003
9.433984e-003
9.430095e-003
9.424334e-003
9.416153e-003
9.405042e-003
9.390662e-003
9.373017e-003
9.352650e-003
9.330804e-003
9.309501e-003
9.291493e-003
9.280059e-003
9.278688e-003
9.290700e-003
9.318896e-003
9.365290e-003
9.430970e-003
9.516094e-003
9.619994e-003
9.741357e-003
9.878440e-003
1.002929e-002
1.019190e-002
1.036438e-002
1.054494e-002
1.073194e-002
1.092380e-002
1.111899e-002
1.131599e-002
1.151326e-002
1.170926e-002
1.190249e-002
1.209151e-002
1.227492e-002
1.245141e-002
1.261967e-002
1.277836e-002
1.292603e-002
1.306101e-002
1.318135e-002
1.328473e-002
1.336842e-002
1.342923e-002
1.346360e-002
1.346762e-002
1.343727e-002
1.336861e-002
1.325817e-002
1.310335e-002
1.290293e-002
1.265761e-002
1.237050e-002
1.204746e-002
1.169728e-002
1.133145e-002
1.096354e-002
1.060824e-002
1.027996e-002
9.991305e-003
9.751605e-003
9.565789e-003
9.433863e-003
9.351182e-003
9.309495e-003
9.298536e-003
9.307772e-003
9.327899e-003
9.351773e-003
9.374699e-003
9.394179e-003
9.409360e-003
9.420413e-003
9.428010e-003
9.432973e-003
9.436061e-003
9.437894e-003
9.438928e-003
9.439479e-003
9.439754e-003
9.439878e-003
9.439927e-003
9.439941e-003
9.439941e-003
9.439937e-003
9.439932e-003
9.439928e-003
9.439926e-003
9.439925e-003
9.439997e-003
9.439996e-003
9.439994e-003
9.439989e-003
9.439970e-003
9.439914e-003
9.439776e-003
9.439479e-003
9.438894e-003
9.437824e-003
9.435970e-003
9.432910e-003
9.428078e-003
9.420769e-003
9.410199e-003
9.395648e-003
9.376708e-003
9.353666e-003
9.327965e-003
9.302664e-003
9.282732e-003
9.275036e-003
9.287922e-003
9.330417e-003
9.411194e-003
9.537542e-003
9.714531e-003
9.944561e-003
1.022731e-002
1.056001e-002
1.093804e-002
1.135550e-002
1.180595e-002
1.228293e-002
1.278040e-002
1.329298e-002
1.381597e-002
1.434528e-002
1.487724e-002
1.540840e-002
1.593545e-002
1.645513e-002
1.696428e-002
1.745982e-002
1.793887e-002
1.839871e-002
1.883676e-002
1.925051e-002
1.963731e-002
1.999426e-002
2.031796e-002
2.060428e-002
2.084824e-002
2.104382e-002
2.118393e-002
2.126044e-002
2.126430e-002
2.118588e-002
2.101543e-002
2.074378e-002
2.036320e-002
1.986851e-002
1.925831e-002
1.853626e-002
1.771225e-002
1.680314e-002
1.583299e-002
1.483236e-002
1.383663e-002
1.288323e-002
1.200816e-002
1.124194e-002
1.060591e-002
1.010962e-002
9.750012e-003
9.512758e-003
9.375519e-003
9.312323e-003
9.297896e-003
9.310947e-003
9.335833e-003
9.362644e-003
9.386201e-003
9.404596e-003
9.417822e-003
9.426733e-003
9.432414e-003
9.435857e-003
9.437844e-003
9.438933e-003
9.439496e-003
9.439768e-003
9.439888e-003
9.439933e-003
9.439944e-003
9.439943e-003
9.439937e-003
9.439931e-003
9.439927e-003
9.439925e-003
9.440025e-003
9.440020e-003
9.440008e-003
9.439982e-003
9.439920e-003
9.439778e-003
9.439470e-003
9.438851e-003
9.437685e-003
9.435608e-003
9.432091e-003
9.426398e-003
9.417595e-003
9.404616e-003
9.386494e-003
9.362803e-003
9.334406e-003
9.304480e-003
9.279657e-003
9.270955e-003
9.294075e-003
9.368690e-003
9.516651e-003
9.759385e-003
1.011504e-002
1.059609e-002
1.120780e-002
1.194801e-002
1.280786e-002
1.377336e-002
1.482726e-002
1.595093e-002
1.712600e-002
1.833556e-002
1.956497e-002
2.080206e-002
2.203702e-002
2.326188e-002
2.446999e-002
2.565549e-002
2.681298e-002
2.793731e-002
2.902359e-002
3.006725e-002
3.106407e-002
3.201023e-002
3.290217e-002
3.373642e-002
3.450926e-002
3.521637e-002
3.585244e-002
3.641073e-002
3.688276e-002
3.725800e-002
3.752371e-002
3.766487e-002
3.766440e-002
3.750347e-002
3.716215e-002
3.662048e-002
3.585975e-002
3.486446e-002
3.362447e-002
3.213771e-002
3.041297e-002
2.847243e-002
2.635370e-002
2.411045e-002
2.181121e-002
1.953577e-002
1.736884e-002
1.539146e-002
1.367118e-002
1.225300e-002
1.115339e-002
1.035933e-002
9.832828e-003
9.519934e-003
9.361503e-003
9.302886e-003
9.300291e-003
9.323078e-003
9.352719e-003
9.379879e-003
9.401120e-003
9.416168e-003
9.426086e-003
9.432249e-003
9.435882e-003
9.437918e-003
9.439001e-003
9.439543e-003
9.439796e-003
9.439902e-003
9.439939e-003
9.439946e-003
9.439942e-003
9.439935e-003
9.439929e-003
9.439926e-003
9.440051e-003
9.440039e-003
9.440010e-003
9.439944e-003
9.439799e-003
9.439491e-003
9.438865e-003
9.437660e-003
9.435459e-003
9.431630e-003
9.425274e-003
9.415206e-003
9.400046e-003
9.378537e-003
9.350267e-003
9.316997e-003
9.284686e-003
9.266037e-003
9.282963e-003
9.367953e-003
9.563296e-003
9.917537e-003
1.047948e-002
1.129100e-002
1.238043e-002
1.375823e-002
1.541585e-002
1.732763e-002
1.945511e-002
2.175228e-002
2.417072e-002
2.666397e-002
2.919053e-002
3.171567e-002
3.421200e-002
3.665916e-002
3.904261e-002
4.135226e-002
4.358092e-002
4.572313e-002
4.777436e-002
4.973063e-002
5.158837e-002
5.334450e-002
5.499646e-002
5.654218e-002
5.797986e-002
5.930766e-002
6.052321e-002
6.162302e-002
6.260191e-002
6.345241e-002
6.416426e-002
6.472391e-002
6.511422e-002
6.531420e-002
6.529895e-002
6.503982e-002
6.450478e-002
6.365923e-002
6.246725e-002
6.089360e-002
5.890651e-002
5.648153e-002
5.360644e-002
5.028703e-002
4.655336e-002
4.246571e-002
3.811849e-002
3.364061e-002
2.918991e-002
2.494041e-002
2.106263e-002
1.769982e-002
1.494584e-002
1.283110e-002
1.132163e-002
1.033177e-002
9.746328e-003
9.444950e-003
9.321735e-003
9.296028e-003
9.314295e-003
9.345831e-003
9.375929e-003
9.399378e-003
9.415684e-003
9.426168e-003
9.432504e-003
9.436132e-003
9.438104e-003
9.439119e-003
9.439611e-003
9.439830e-003
9.439917e-003
9.439943e-003
9.439945e-003
9.439939e-003
9.439932e-003
9.439928e-003
9.440069e-003
9.440045e-003
9.439983e-003
9.439844e-003
9.439548e-003
9.438941e-003
9.437754e-003
9.435538e-003
9.431585e-003
9.424852e-003
9.413915e-003
9.397058e-003
9.372680e-003
9.340338e-003
9.302866e-003
9.269938e-003
9.263085e-003
9.321260e-003
9.505027e-003
9.896718e-003
1.059441e-002
1.169944e-002
1.329960e-002
1.545263e-002
1.817444e-002
2.143558e-002
2.516628e-002
2.926796e-002
3.362759e-002
3.813135e-002
4.267523e-002
4.717166e-002
5.155241e-002
5.576862e-002
5.978873e-002
6.359537e-002
6.718171e-002
7.054793e-002
7.369833e-002
7.663916e-002
7.937737e-002
8.191996e-002
8.427383e-002
8.644575e-002
8.844239e-002
9.027021e-002
9.193527e-002
9.344288e-002
9.479708e-002
9.600011e-002
9.705190e-002
9.794955e-002
9.868681e-002
9.925367e-002
9.963582e-002
9.981425e-002
9.976466e-002
9.945696e-002
9.885469e-002
9.791446e-002
9.658569e-002
9.481069e-002
9.252572e-002
8.966345e-002
8.615752e-002
8.195010e-002
7.700308e-002
7.131295e-002
6.492815e-002
5.796591e-002
5.062287e-002
4.317268e-002
3.594440e-002
2.928012e-002
2.347886e-002
1.874195e-002
1.513864e-002
1.260477e-002
1.097388e-002
1.002768e-002
9.546865e-003
9.347330e-003
9.296030e-003
9.309476e-003
9.342509e-003
9.374791e-003
9.399602e-003
9.416440e-003
9.426965e-003
9.433140e-003
9.436568e-003
9.438372e-003
9.439269e-003
9.439686e-003
9.439863e-003
9.439928e-003
9.439944e-003
9.439942e-003
9.439937e-003
9.439933e-003
9.440070e-003
9.440025e-003
9.439904e-003
9.439636e-003
9.439076e-003
9.437960e-003
9.435834e-003
9.431954e-003
9.425178e-003
9.413884e-003
9.396031e-003
9.369610e-003
9.333988e-003
9.292902e-003
9.260031e-003
9.267675e-003
9.377689e-003
9.691530e-003
1.035400e-002
1.154480e-002
1.345497e-002
1.625102e-002
2.003621e-002
2.482162e-002
3.051699e-002
3.694449e-002
4.386964e-002
5.103901e-002
5.821419e-002
6.519522e-002
7.183195e-002
7.802518e-002
8.372084e-002
8.890085e-002
9.357306e-002
9.776220e-002
1.015025e-001
1.048322e-001
1.077902e-001
1.104136e-001
1.127368e-001
1.147911e-001
1.166046e-001
1.182027e-001
1.196077e-001
1.208394e-001
1.219151e-001
1.228495e-001
1.236550e-001
1.243413e-001
1.249160e-001
1.253838e-001
1.257473e-001
1.260060e-001
1.261566e-001
1.261921e-001
1.261016e-001
1.258686e-001
1.254700e-001
1.248741e-001
1.240379e-001
1.229043e-001
1.213982e-001
1.194235e-001
1.168600e-001
1.135639e-001
1.093732e-001
1.041222e-001
9.767014e-002
8.994212e-002
8.098061e-002
7.099296e-002
6.037535e-002
4.969042e-002
3.958610e-002
3.066826e-002
2.336857e-002
1.785959e-002
1.405024e-002
1.165602e-002
1.030570e-002
9.639261e-003
9.368723e-003
9.297167e-003
9.308243e-003
9.342957e-003
9.376588e-003
9.401755e-003
9.418322e-003
9.428356e-003
9.434058e-003
9.437122e-003
9.438681e-003
9.439427e-003
9.439759e-003
9.439892e-003
9.439936e-003
9.439945e-003
9.439942e-003
9.439939e-003
9.440038e-003
9.439953e-003
9.439732e-003
9.439245e-003
9.438250e-003
9.436309e-003
9.432683e-003
9.426196e-003
9.415101e-003
9.397082e-003
9.369688e-003
9.331837e-003
9.287566e-003
9.253728e-003
9.273218e-003
9.433685e-003
9.887728e-003
1.086524e-002
1.266494e-002
1.561466e-002
2.000100e-002
2.598575e-002
3.353936e-002
4.242083e-002
5.221509e-002
6.241422e-002
7.251197e-002
8.208109e-002
9.081659e-002
9.854435e-002
1.052051e-001
1.108263e-001
1.154909e-001
1.193105e-001
1.224050e-001
1.248897e-001
1.268694e-001
1.284361e-001
1.296683e-001
1.306325e-001
1.313839e-001
1.319676e-001
1.324200e-001
1.327699e-001
1.330396e-001
1.332465e-001
1.334039e-001
1.335219e-001
1.336084e-001
1.336693e-001
1.337094e-001
1.337320e-001
1.337396e-001
1.337339e-001
1.337153e-001
1.336832e-001
1.336355e-001
1.335680e-001
1.334742e-001
1.333436e-001
1.331611e-001
1.329040e-001
1.325389e-001
1.320160e-001
1.312603e-001
1.301585e-001
1.285414e-001
1.261667e-001
1.227108e-001
1.177864e-001
1.110045e-001
1.020883e-001
9.102309e-002
7.818891e-002
6.439390e-002
5.074854e-002
3.839602e-002
2.820538e-002
2.056940e-002
1.539042e-002
1.222786e-002
1.050715e-002
9.692191e-003
9.376204e-003
9.297271e-003
9.310403e-003
9.347133e-003
9.381110e-003
9.405552e-003
9.421067e-003
9.430145e-003
9.435132e-003
9.437721e-003
9.438991e-003
9.439575e-003
9.439823e-003
9.439915e-003
9.439943e-003
9.439948e-003
9.439947e-003
9.439947e-003
9.439798e-003
9.439410e-003
9.438573e-003
9.436891e-003
9.433669e-003
9.427758e-003
9.417381e-003
9.400050e-003
9.372893e-003
9.334119e-003
9.287158e-003
9.250018e-003
9.273051e-003
9.466973e-003
1.003769e-002
1.131471e-002
1.374931e-002
1.785645e-002
2.408991e-002
3.267638e-002
4.347343e-002
5.592786e-002
6.917242e-002
8.222832e-002
9.422802e-002
1.045735e-001
1.129905e-001
1.194902e-001
1.242797e-001
1.276650e-001
1.299723e-001
1.314964e-001
1.324763e-001
1.330908e-001
1.334673e-001
1.336940e-001
1.338306e-001
1.339165e-001
1.339762e-001
1.340230e-001
1.340628e-001
1.340966e-001
1.341231e-001
1.341406e-001
1.341479e-001
1.341448e-001
1.341326e-001
1.341137e-001
1.340914e-001
1.340696e-001
1.340526e-001
1.340452e-001
1.340522e-001
1.340782e-001
1.341274e-001
1.342029e-001
1.343058e-001
1.344345e-001
1.345825e-001
1.347366e-001
1.348754e-001
1.349683e-001
1.349757e-001
1.348534e-001
1.345576e-001
1.340483e-001
1.332797e-001
1.321631e-001
1.304939e-001
1.278603e-001
1.235888e-001
1.168317e-001
1.068782e-001
9.360872e-002
7.781814e-002
6.112984e-002
4.547657e-002
3.242734e-002
2.273881e-002
1.632383e-002
1.254180e-002
1.057232e-002
9.687193e-003
9.366378e-003
9.296547e-003
9.316159e-003
9.354744e-003
9.387843e-003
9.410503e-003
9.424313e-003
9.432101e-003
9.436230e-003
9.438297e-003
9.439273e-003
9.439702e-003
9.439874e-003
9.439935e-003
9.439952e-003
9.439955e-003
9.439766e-003
9.439513e-003
9.438864e-003
9.437489e-003
9.434770e-003
9.429647e-003
9.420408e-003
9.404529e-003
9.378821e-003
9.340656e-003
9.291951e-003
9.249196e-003
9.264444e-003
9.462153e-003
1.009128e-002
1.157797e-002
1.454281e-002
1.973083e-002
2.781543e-002
3.909951e-002
5.323343e-002
6.912864e-002
8.518305e-002
9.975338e-002
1.116462e-001
1.203923e-001
1.262115e-001
1.297492e-001
1.317586e-001
1.328749e-001
1.335275e-001
1.339502e-001
1.342353e-001
1.343980e-001
1.344264e-001
1.343112e-001
1.340555e-001
1.336725e-001
1.331805e-001
1.325988e-001
1.319453e-001
1.312367e-001
1.304882e-001
1.297142e-001
1.289287e-001
1.281447e-001
1.273751e-001
1.266318e-001
1.259264e-001
1.252702e-001
1.246749e-001
1.241526e-001
1.237172e-001
1.233839e-001
1.231702e-001
1.230959e-001
1.231829e-001
1.234549e-001
1.239356e-001
1.246470e-001
1.256060e-001
1.268185e-001
1.282723e-001
1.299270e-001
1.317018e-001
1.334632e-001
1.350173e-001
1.361174e-001
1.365059e-001
1.360046e-001
1.346116e-001
1.324554e-001
1.294448e-001
1.247909e-001
1.170067e-001
1.047889e-001
8.823849e-002
6.926962e-002
5.077173e-002
3.524387e-002
2.389698e-002
1.661950e-002
1.251074e-002
1.048120e-002
9.626269e-003
9.343995e-003
9.297407e-003
9.325821e-003
9.365177e-003
9.396029e-003
9.416017e-003
9.427681e-003
9.434010e-003
9.437244e-003
9.438802e-003
9.439507e-003
9.439803e-003
9.439915e-003
9.439952e-003
9.439961e-003
9.439453e-003
9.439043e-003
9.438004e-003
9.435837e-003
9.431618e-003
9.423792e-003
9.409939e-003
9.386742e-003
9.350809e-003
9.302008e-003
9.252887e-003
9.250516e-003
9.419013e-003
1.002757e-002
1.157272e-002
1.483095e-002
2.079830e-002
3.042598e-002
4.414114e-002
6.133035e-002
8.015010e-002
9.798224e-002
1.124485e-001
1.224058e-001
1.282478e-001
1.313277e-001
1.330204e-001
1.341182e-001
1.348050e-001
1.349707e-001
1.345067e-001
1.334164e-001
1.317934e-001
1.297682e-001
1.274706e-001
1.250123e-001
1.224814e-001
1.199426e-001
1.174414e-001
1.150089e-001
1.126656e-001
1.104257e-001
1.082988e-001
1.062917e-001
1.044090e-001
1.026541e-001
1.010288e-001
9.953497e-002
9.817424e-002
9.694936e-002
9.586475e-002
9.492735e-002
9.414744e-002
9.353935e-002
9.312215e-002
9.292039e-002
9.296470e-002
9.329242e-002
9.394805e-002
9.498340e-002
9.645706e-002
9.843281e-002
1.009758e-001
1.041453e-001
1.079816e-001
1.124832e-001
1.175720e-001
1.230409e-001
1.284924e-001
1.332954e-001
1.366336e-001
1.377544e-001
1.364423e-001
1.333017e-001
1.289762e-001
1.225624e-001
1.116589e-001
9.495996e-002
7.426372e-002
5.347495e-002
3.611649e-002
2.378247e-002
1.620253e-002
1.214436e-002
1.026253e-002
9.530797e-003
9.319316e-003
9.302881e-003
9.339253e-003
9.377460e-003
9.404785e-003
9.421508e-003
9.430842e-003
9.435710e-003
9.438102e-003
9.439208e-003
9.439687e-003
9.439877e-003
9.439944e-003
9.439964e-003
9.438960e-003
9.438321e-003
9.436724e-003
9.433439e-003
9.427139e-003
9.415641e-003
9.395721e-003
9.363502e-003
9.316816e-003
9.262951e-003
9.238606e-003
9.353047e-003
9.865736e-003
1.129644e-002
1.452641e-002
2.078312e-002
3.134806e-002
4.688920e-002
6.660487e-002
8.779689e-002
1.066234e-001
1.200522e-001
1.276639e-001
1.314613e-001
1.337047e-001
1.351761e-001
1.354437e-001
1.340261e-001
1.309498e-001
1.266226e-001
1.215534e-001
1.161805e-001
1.108162e-001
1.056544e-001
1.008001e-001
9.629830e-002
9.215734e-002
8.836509e-002
8.489960e-002
8.173568e-002
7.884862e-002
7.621580e-002
7.381715e-002
7.163493e-002
6.965341e-002
6.785857e-002
6.623799e-002
6.478101e-002
6.347897e-002
6.232561e-002
6.131749e-002
6.045454e-002
5.974046e-002
5.918335e-002
5.879622e-002
5.859778e-002
5.861331e-002
5.887584e-002
5.942759e-002
6.032188e-002
6.162534e-002
6.342050e-002
6.580847e-002
6.891096e-002
7.287030e-002
7.784434e-002
8.399035e-002
9.142758e-002
1.001629e-001
1.099628e-001
1.201716e-001
1.295388e-001
1.362692e-001
1.386856e-001
1.365905e-001
1.317988e-001
1.254522e-001
1.151439e-001
9.805475e-002
7.574079e-002
5.321038e-002
3.488251e-002
2.242487e-002
1.518187e-002
1.154464e-002
9.980462e-003