# vtk DataFile Version 3.0
vtk output
ASCII
DATASET STRUCTURED_POINTS
DIMENSIONS 100 100 1
SPACING 1 1 1
ORIGIN 0 0 0
POINT_DATA 10000
SCALARS SFBox_profile double
LOOKUP_TABLE default 
0.000000e+000
0.000000e+000
0.000000e+000
0.000000e+000
0.000000e+000
0.000000e+000
0.000000e+000
0.000000e+000
0.000000e+000
0.000000e+000
0.000000e+000
0.000000e+000
0.000000e+000
0.000000e+000
0.000000e+000
0.000000e+000
0.000000e+000
0.000000e+000
0.000000e+000
0.000000e+000
0.000000e+000
0.000000e+000
0.000000e+000
0.000000e+000
0.000000e+000
0.000000e+000
0.000000e+000
0.000000e+000
0.000000e+000
0.000000e+000
0.000000e+000
0.000000e+000
0.000000e+000
0.000000e+000
0.000000e+000
0.000000e+000
0.000000e+000
0.000000e+000
0.000000e+000
0.000000e+000
0.000000e+000
0.000000e+000
0.000000e+000
0.000000e+000
0.000000e+000
0.000000e+000
0.000000e+000
0.000000e+000
0.000000e+000
0.000000e+000
0.000000e+000
0.000000e+000
0.000000e+000
0.000000e+000
0.000000e+000
0.000000e+000
0.000000e+000
0.000000e+000
0.000000e+000
0.000000e+000
0.000000e+000
0.000000e+000
0.000000e+000
0.000000e+000
0.000000e+000
0.000000e+000
0.000000e+000
0.000000e+000
0.000000e+000
0.000000e+000
0.000000e+000
0.000000e+000
0.000000e+000
0.000000e+000
0.000000e+000
0.000000e+000
0.000000e+000
0.000000e+000
0.000000e+000
0.000000e+000
0.000000e+000
0.000000e+000
0.000000e+000
0.000000e+000
0.000000e+000
0.000000e+000
0.000000e+000
0.000000e+000
0.000000e+000
0.000000e+000
0.000000e+000
0.000000e+000
0.000000e+000
0.000000e+000
0.000000e+000
0.000000e+000
0.000000e+000
0.000000e+000
0.000000e+000
0.000000e+000
-3.730626e-009
-2.215799e-009
5.535788e-010
3.625953e-009
5.243295e-009
3.697613e-009
-1.152729e-009
-6.987627e-009
-9.942387e-009
-7.169564e-009
7.236582e-010
9.465445e-009
1.371306e-008
1.072362e-008
2.289251e-009
-6.625377e-009
-1.144906e-008
-1.090655e-008
-7.082011e-009
-2.986080e-009
-1.994121e-011
2.492455e-009
5.668695e-009
9.236635e-009
1.138237e-008
1.034717e-008
6.126323e-009
6.170046e-010
-3.869196e-009
-6.288377e-009
-7.248075e-009
-7.933406e-009
-8.760030e-009
-9.044162e-009
-7.874938e-009
-5.207539e-009
-2.065184e-009
3.191344e-010
1.545315e-009
2.254118e-009
3.335754e-009
4.963020e-009
6.423352e-009
6.897852e-009
6.364455e-009
5.673515e-009
5.702546e-009
6.468813e-009
7.142428e-009
6.961325e-009
6.078021e-009
5.415480e-009
5.663403e-009
6.492932e-009
6.862837e-009
6.114779e-009
4.672248e-009
3.557926e-009
3.231663e-009
3.027033e-009
1.845896e-009
-6.056094e-010
-3.387114e-009
-5.206656e-009
-5.691611e-009
-5.666440e-009
-6.108512e-009
-6.904269e-009
-6.795842e-009
-4.661640e-009
-8.234801e-010
3.017946e-009
5.214899e-009
5.535369e-009
5.078136e-009
4.868084e-009
4.644980e-009
3.166999e-009
-2.359937e-010
-4.471698e-009
-7.181963e-009
-6.600145e-009
-3.077061e-009
1.144318e-009
3.696990e-009
3.800077e-009
2.460584e-009
1.186360e-009
5.640048e-010
2.358088e-011
-1.147564e-009
-2.693068e-009
-3.362506e-009
-2.054416e-009
9.438381e-010
3.829979e-009
4.517659e-009
2.274902e-009
-1.569395e-009
-4.471501e-009
9.892913e-010
-6.665656e-011
-1.191348e-009
-1.275914e-009
-9.100229e-011
1.444944e-009
2.005784e-009
1.011227e-009
-8.119744e-010
-2.005753e-009
-1.639208e-009
-1.364152e-010
1.106494e-009
1.003477e-009
-2.105862e-010
-1.196154e-009
-7.734529e-010
9.384958e-010
2.575680e-009
2.725157e-009
1.151779e-009
-1.053238e-009
-2.475987e-009
-2.557451e-009
-1.882395e-009
-1.418109e-009
-1.518583e-009
-1.648709e-009
-1.023082e-009
5.252447e-010
2.301889e-009
3.345844e-009
3.268204e-009
2.535453e-009
1.954993e-009
1.887555e-009
1.954858e-009
1.507016e-009
3.576239e-010
-9.697492e-010
-1.741082e-009
-1.744894e-009
-1.492868e-009
-1.667660e-009
-2.392995e-009
-3.105168e-009
-3.173883e-009
-2.607971e-009
-2.071128e-009
-2.172534e-009
-2.798973e-009
-3.229857e-009
-2.924996e-009
-2.122763e-009
-1.578043e-009
-1.715904e-009
-2.136739e-009
-2.035636e-009
-1.088557e-009
1.718899e-010
9.174785e-010
9.141432e-010
7.583841e-010
1.187990e-009
2.215180e-009
3.038983e-009
2.854706e-009
1.702164e-009
4.422888e-010
-1.181031e-010
-2.370296e-011
-4.566005e-011
-7.735675e-010
-1.896443e-009
-2.447590e-009
-1.777489e-009
-2.569986e-010
1.014744e-009
1.212766e-009
5.074711e-010
-1.857472e-010
-1.430822e-010
4.868053e-010
9.038439e-010
5.139973e-010
-4.488285e-010
-1.137890e-009
-9.111280e-010
5.075665e-011
9.047490e-010
9.121062e-010
9.212309e-011
-8.147915e-010
-1.008018e-009
-3.103919e-010
7.014084e-010
1.192725e-009
7.532596e-010
-2.857336e-010
-1.125382e-009
6.781050e-009
3.225974e-009
-1.956534e-009
-5.850574e-009
-6.072512e-009
-2.175000e-009
3.880860e-009
8.637629e-009
9.083209e-009
4.504136e-009
-2.960742e-009
-9.498910e-009
-1.181141e-008
-8.903780e-009
-2.392259e-009
4.698739e-009
9.681176e-009
1.132714e-008
9.864171e-009
6.231002e-009
1.390071e-009
-3.828483e-009
-8.521885e-009
-1.165209e-008
-1.237899e-008
-1.053163e-008
-6.744650e-009
-2.090696e-009
2.474618e-009
6.390780e-009
9.363826e-009
1.113121e-008
1.146721e-008
1.041317e-008
8.394213e-009
5.996124e-009
3.591475e-009
1.212849e-009
-1.198737e-009
-3.482865e-009
-5.277126e-009
-6.357789e-009
-6.894024e-009
-7.288160e-009
-7.762272e-009
-8.164664e-009
-8.221482e-009
-7.932367e-009
-7.633217e-009
-7.642573e-009
-7.906954e-009
-8.067137e-009
-7.869659e-009
-7.438023e-009
-7.085331e-009
-6.894460e-009
-6.565206e-009
-5.709661e-009
-4.251237e-009
-2.471948e-009
-6.762225e-010
1.114539e-009
3.077068e-009
5.224421e-009
7.203198e-009
8.488452e-009
8.752739e-009
8.009635e-009
6.429116e-009
4.113667e-009
1.139804e-009
-2.191126e-009
-5.237224e-009
-7.245827e-009
-7.746032e-009
-6.737021e-009
-4.542641e-009
-1.572357e-009
1.711097e-009
4.636526e-009
6.312771e-009
6.000118e-009
3.667720e-009
2.307916e-010
-2.849853e-009
-4.378765e-009
-4.044699e-009
-2.409505e-009
-3.747251e-010
1.364444e-009
2.470967e-009
2.776629e-009
2.134943e-009
5.748413e-010
-1.411061e-009
-2.866276e-009
-2.868129e-009
-1.228688e-009
1.197211e-009
2.958021e-009
8.028349e-009
5.083264e-009
1.617934e-010
-4.741392e-009
-7.066116e-009
-5.001932e-009
9.714627e-010
7.661023e-009
1.072039e-008
7.518460e-009
-7.073269e-010
-9.259797e-009
-1.297138e-008
-9.699231e-009
-1.697341e-009
6.169173e-009
9.906890e-009
8.822686e-009
5.171807e-009
1.714509e-009
-4.813766e-010
-2.186970e-009
-4.386019e-009
-6.754905e-009
-7.787464e-009
-6.308805e-009
-2.740490e-009
1.159342e-009
3.750510e-009
4.686385e-009
4.762854e-009
4.808720e-009
4.859278e-009
4.366810e-009
3.024786e-009
1.221158e-009
-3.150099e-010
-1.188986e-009
-1.589340e-009
-1.931513e-009
-2.377532e-009
-2.744927e-009
-2.803251e-009
-2.554784e-009
-2.213128e-009
-1.982381e-009
-1.911483e-009
-1.928754e-009
-1.945166e-009
-1.910286e-009
-1.828689e-009
-1.773662e-009
-1.857858e-009
-2.122147e-009
-2.437626e-009
-2.577867e-009
-2.444334e-009
-2.193339e-009
-2.059768e-009
-2.029083e-009
-1.758689e-009
-9.190040e-010
3.869704e-010
1.639309e-009
2.408505e-009
2.801571e-009
3.283852e-009
4.008460e-009
4.421836e-009
3.698061e-009
1.635739e-009
-9.526730e-010
-2.865975e-009
-3.562892e-009
-3.523014e-009
-3.508486e-009
-3.529040e-009
-2.705089e-009
-2.974809e-010
3.130552e-009
5.726324e-009
5.724920e-009
2.980178e-009
-8.035501e-010
-3.398238e-009
-3.739851e-009
-2.484388e-009
-1.061700e-009
-2.638996e-010
2.591144e-010
1.220498e-009
2.555452e-009
3.174609e-009
1.951103e-009
-9.757855e-010
-3.888764e-009
-4.633301e-009
-2.353355e-009
1.641284e-009
4.685170e-009
1.099227e-009
2.473275e-009
3.410142e-009
2.107229e-009
-1.279356e-009
-4.425480e-009
-4.711407e-009
-1.592818e-009
2.694454e-009
4.880206e-009
3.435430e-009
-8.739610e-011
-2.439912e-009
-1.629591e-009
1.229943e-009
2.922265e-009
1.134004e-009
-3.287079e-009
-6.932501e-009
-6.761546e-009
-2.670287e-009
2.598207e-009
5.961984e-009
6.473880e-009
5.535419e-009
4.954484e-009
4.992081e-009
4.318550e-009
1.704342e-009
-2.455187e-009
-6.339262e-009
-8.304672e-009
-8.198037e-009
-7.150874e-009
-6.267297e-009
-5.635447e-009
-4.555326e-009
-2.534910e-009
7.686036e-011
2.401730e-009
3.841113e-009
4.525825e-009
5.041643e-009
5.807045e-009
6.723564e-009
7.357785e-009
7.407701e-009
7.009913e-009
6.634675e-009
6.673302e-009
7.077658e-009
7.386530e-009
7.153697e-009
6.398653e-009
5.610004e-009
5.229357e-009
5.112062e-009
4.580461e-009
3.109296e-009
9.514542e-010
-1.028325e-009
-2.222229e-009
-2.921935e-009
-3.952292e-009
-5.609015e-009
-7.078378e-009
-7.097635e-009
-5.257247e-009
-2.539229e-009
-4.206778e-010
5.633727e-010
1.235283e-009
2.659747e-009
4.685788e-009
5.800082e-009
4.591233e-009
1.354730e-009
-1.892816e-009
-3.128956e-009
-2.108984e-009
-4.468669e-010
6.556020e-011
-8.048545e-010
-1.659717e-009
-1.062937e-009
8.655907e-010
2.476425e-009
2.201012e-009
1.388035e-010
-1.941158e-009
-2.195918e-009
-3.998564e-010
1.830343e-009
2.465837e-009
8.548209e-010
-1.699003e-009
-3.040360e-009
-1.977961e-009
7.172529e-010
2.935517e-009
-1.113728e-008
-4.689062e-009
3.875321e-009
8.877218e-009
7.166431e-009
1.693197e-010
-7.284390e-009
-1.040863e-008
-7.605651e-009
-1.080982e-009
5.236259e-009
8.543811e-009
8.492707e-009
6.296217e-009
2.974672e-009
-1.339121e-009
-6.485039e-009
-1.106159e-008
-1.261665e-008
-9.440184e-009
-2.316455e-009
5.607293e-009
1.093940e-008
1.231177e-008
1.080787e-008
8.363351e-009
5.865098e-009
2.781074e-009
-1.557303e-009
-6.583669e-009
-1.055368e-008
-1.194879e-008
-1.074943e-008
-8.316473e-009
-6.092132e-009
-4.459045e-009
-2.791228e-009
-4.555234e-010
2.353281e-009
4.741059e-009
5.965912e-009
6.108188e-009
5.933363e-009
6.146747e-009
6.781029e-009
7.269409e-009
7.088769e-009
6.336928e-009
5.684255e-009
5.735540e-009
6.419077e-009
7.030736e-009
6.935532e-009
6.235626e-009
5.679085e-009
5.837120e-009
6.393169e-009
6.356285e-009
5.057029e-009
2.882120e-009
8.980313e-010
-2.970496e-010
-1.238144e-009
-2.964986e-009
-5.707913e-009
-8.338114e-009
-9.284191e-009
-8.017181e-009
-5.519167e-009
-3.206124e-009
-1.469134e-009
5.469706e-010
3.649157e-009
7.207875e-009
9.277814e-009
8.250283e-009
4.404948e-009
-2.165597e-010
-3.485238e-009
-4.736294e-009
-4.753842e-009
-4.432385e-009
-3.683041e-009
-1.756759e-009
1.452987e-009
4.645684e-009
5.849767e-009
4.061747e-009
2.452846e-010
-3.270872e-009
-4.486139e-009
-3.078796e-009
-3.896244e-010
1.761340e-009
2.349580e-009
1.578318e-009
3.707895e-010
-4.656531e-010
-7.234371e-010
-6.886160e-010
-1.891265e-008
-1.126389e-008
-7.545048e-012
8.936824e-009
1.102990e-008
5.707697e-009
-3.288552e-009
-1.022271e-008
-1.095110e-008
-5.413915e-009
2.664206e-009
8.531025e-009
9.488319e-009
6.099120e-009
1.007325e-009
-3.240384e-009
-5.514146e-009
-5.892079e-009
-4.755868e-009
-2.378367e-009
7.374710e-010
3.526716e-009
4.761429e-009
3.948572e-009
1.784791e-009
-3.949309e-010
-1.685721e-009
-2.159959e-009
-2.414688e-009
-2.691123e-009
-2.543848e-009
-1.392142e-009
6.829653e-010
2.788502e-009
3.913531e-009
3.780055e-009
3.007550e-009
2.448737e-009
2.372727e-009
2.291978e-009
1.564659e-009
1.358274e-010
-1.337838e-009
-2.104384e-009
-2.048678e-009
-1.790413e-009
-2.034136e-009
-2.829257e-009
-3.514625e-009
-3.427350e-009
-2.638678e-009
-1.912403e-009
-1.889691e-009
-2.361863e-009
-2.449922e-009
-1.547170e-009
-1.547705e-011
1.157826e-009
1.409006e-009
1.204795e-009
1.501701e-009
2.618645e-009
3.774644e-009
3.846841e-009
2.554225e-009
7.740165e-010
-3.631788e-010
-6.047627e-010
-6.913553e-010
-1.352786e-009
-2.335384e-009
-2.574246e-009
-1.343893e-009
8.666564e-010
2.702264e-009
3.131712e-009
2.232564e-009
8.430767e-010
-3.881976e-010
-1.451249e-009
-2.514480e-009
-3.251586e-009
-2.886835e-009
-1.017967e-009
1.682217e-009
3.735525e-009
3.946801e-009
2.303801e-009
-1.193185e-010
-2.065145e-009
-2.896969e-009
-2.663989e-009
-1.644932e-009
-5.777693e-011
1.754612e-009
3.062418e-009
2.986025e-009
1.224667e-009
-1.415312e-009
-3.360792e-009
-1.238018e-008
-9.862908e-009
-5.014331e-009
1.043467e-009
5.955645e-009
7.247734e-009
4.253419e-009
-9.420684e-010
-4.765523e-009
-4.851567e-009
-1.890881e-009
1.078253e-009
1.391153e-009
-9.061121e-010
-3.176576e-009
-2.614858e-009
1.233068e-009
6.049250e-009
8.646768e-009
7.396122e-009
3.129841e-009
-1.941427e-009
-6.007001e-009
-8.512905e-009
-9.673461e-009
-9.554535e-009
-7.827833e-009
-4.338692e-009
3.125244e-010
4.920880e-009
8.432209e-009
1.051384e-008
1.140463e-008
1.132922e-008
1.020135e-008
7.928950e-009
4.880644e-009
1.863306e-009
-4.601939e-010
-2.090408e-009
-3.541380e-009
-5.156366e-009
-6.652419e-009
-7.425820e-009
-7.285787e-009
-6.767173e-009
-6.625828e-009
-7.057826e-009
-7.529674e-009
-7.430437e-009
-6.809239e-009
-6.341662e-009
-6.544758e-009
-7.137892e-009
-7.298958e-009
-6.540174e-009
-5.204742e-009
-4.014643e-009
-3.195849e-009
-2.198908e-009
-3.445383e-010
2.344990e-009
5.074189e-009
7.021386e-009
8.030903e-009
8.483646e-009
8.574900e-009
7.920197e-009
5.988176e-009
2.848070e-009
-6.646038e-010
-3.568111e-009
-5.421486e-009
-6.319946e-009
-6.320782e-009
-5.137262e-009
-2.592700e-009
6.869567e-010
3.304565e-009
4.068973e-009
3.011874e-009
1.346425e-009
3.256122e-010
1.433405e-010
7.293126e-012
-7.372999e-010
-1.700155e-009
-1.799837e-009
-5.394713e-010
1.200777e-009
1.829579e-009
6.185123e-010
-1.404785e-009
-2.263399e-009
-8.894710e-010
1.727960e-009
3.286350e-009
2.218692e-009
-8.118854e-010
-3.383462e-009
8.265558e-009
1.828904e-009
-5.961520e-009
-9.047393e-009
-5.169477e-009
2.598687e-009
8.612873e-009
9.150062e-009
4.828191e-009
-7.470631e-010
-4.411479e-009
-5.662762e-009
-5.917334e-009
-6.059911e-009
-5.089922e-009
-1.333745e-009
5.092168e-009
1.128492e-008
1.334970e-008
9.514531e-009
1.697439e-009
-5.939939e-009
-1.011019e-008
-1.039555e-008
-8.584496e-009
-6.410954e-009
-4.080025e-009
-8.284105e-010
3.462140e-009
7.541729e-009
9.732185e-009
9.427089e-009
7.521310e-009
5.408387e-009
3.728545e-009
2.171484e-009
3.345542e-010
-1.517763e-009
-2.676705e-009
-2.823704e-009
-2.403073e-009
-2.090414e-009
-2.038492e-009
-1.820196e-009
-1.094499e-009
-1.325010e-010
4.544932e-010
4.299299e-010
1.873233e-010
2.304861e-010
5.354592e-010
5.907560e-010
5.558811e-011
-7.961800e-010
-1.399702e-009
-1.572541e-009
-1.682489e-009
-2.100700e-009
-2.641961e-009
-2.714019e-009
-1.996433e-009
-7.890014e-010
4.130616e-010
1.558870e-009
3.032889e-009
4.952567e-009
6.665316e-009
7.178206e-009
6.119549e-009
4.104204e-009
2.018180e-009
5.219179e-011
-2.302393e-009
-5.194796e-009
-7.556563e-009
-7.658539e-009
-4.747288e-009
-7.835740e-011
3.879229e-009
5.412087e-009
4.772228e-009
3.460478e-009
2.444796e-009
1.277262e-009
-9.548153e-010
-3.964253e-009
-5.863999e-009
-4.714970e-009
-5.941316e-010
3.957849e-009
5.781178e-009
3.688696e-009
-5.269180e-010
-3.597065e-009
-3.465647e-009
-8.249884e-010
1.742248e-009
2.127755e-009
4.391708e-010
-1.340555e-009
2.908152e-008
1.634118e-008
-1.222386e-009
-1.322854e-008
-1.375634e-008
-4.781047e-009
6.089397e-009
1.148585e-008
9.151228e-009
2.389801e-009
-3.560693e-009
-5.739192e-009
-4.817212e-009
-3.128596e-009
-1.903510e-009
-5.295718e-010
1.799742e-009
4.271717e-009
4.754081e-009
2.044064e-009
-2.382029e-009
-5.207615e-009
-4.113634e-009
1.391543e-010
4.457422e-009
6.219412e-009
5.337976e-009
3.682525e-009
2.755130e-009
2.203024e-009
6.178849e-010
-2.498752e-009
-5.886050e-009
-7.672921e-009
-7.158546e-009
-5.281708e-009
-3.429307e-009
-2.052352e-009
-5.715797e-010
1.563153e-009
4.052466e-009
6.075886e-009
7.218807e-009
7.822996e-009
8.429527e-009
9.114028e-009
9.531895e-009
9.499834e-009
9.283292e-009
9.236060e-009
9.333460e-009
9.247448e-009
8.832333e-009
8.316034e-009
7.912153e-009
7.404137e-009
6.338543e-009
4.635771e-009
2.789344e-009
1.300465e-009
3.452302e-011
-1.595507e-009
-3.723649e-009
-5.526425e-009
-5.895987e-009
-4.639511e-009
-2.777940e-009
-1.471128e-009
-7.553595e-010
3.723103e-010
2.510105e-009
4.718962e-009
5.174218e-009
3.077511e-009
-2.470960e-010
-2.401073e-009
-2.118355e-009
-3.360621e-010
9.704493e-010
8.803102e-010
2.783839e-010
5.291347e-010
1.648973e-009
2.092674e-009
4.680603e-010
-2.660162e-009
-4.890738e-009
-4.070750e-009
-3.581014e-010
3.733915e-009
5.362570e-009
3.601587e-009
-1.402297e-011
-2.917876e-009
-3.509853e-009
-2.072002e-009
-1.106677e-010
1.039828e-009
1.126873e-009
8.169966e-010
3.143887e-008
2.077475e-008
5.037459e-009
-7.877795e-009
-1.239130e-008
-8.336284e-009
-5.120258e-010
5.009337e-009
5.165578e-009
1.595350e-009
-1.436424e-009
-9.746363e-010
2.237200e-009
4.827186e-009
4.059261e-009
1.488688e-010
-4.336818e-009
-7.001997e-009
-7.364242e-009
-6.295132e-009
-4.278414e-009
-7.690123e-010
4.577540e-009
1.040566e-008
1.395126e-008
1.317325e-008
8.582674e-009
2.794259e-009
-1.775671e-009
-4.686441e-009
-7.011386e-009
-9.416973e-009
-1.106372e-008
-1.050508e-008
-7.426428e-009
-3.189353e-009
3.869883e-010
2.584872e-009
4.027143e-009
5.557838e-009
7.193732e-009
8.260012e-009
8.315066e-009
7.657476e-009
6.919490e-009
6.407331e-009
6.002021e-009
5.574157e-009
5.238918e-009
5.148465e-009
5.238073e-009
5.361041e-009
5.591261e-009
6.153754e-009
6.983238e-009
7.552781e-009
7.361929e-009
6.548936e-009
5.760356e-009
5.280724e-009
4.477727e-009
2.410046e-009
-9.562859e-010
-4.379294e-009
-6.419647e-009
-6.831459e-009
-6.627244e-009
-6.663981e-009
-6.400494e-009
-4.399811e-009
-1.491324e-010
4.862066e-009
8.156606e-009
8.406065e-009
6.433987e-009
4.079540e-009
2.278639e-009
5.021966e-010
-1.961358e-009
-4.537545e-009
-5.547712e-009
-3.930710e-009
-5.838700e-010
2.223442e-009
2.817800e-009
1.469746e-009
-1.498995e-010
-6.755257e-010
-1.238647e-010
5.535340e-010
6.616826e-010
3.248875e-010
8.771435e-012
-1.794892e-010
-5.038246e-010
-1.014308e-009
-1.236749e-009
-6.401314e-010
6.341300e-010
1.698445e-009
8.424346e-009
8.272902e-009
6.773738e-009
3.192512e-009
-1.383737e-009
-4.669695e-009
-5.241444e-009
-3.800822e-009
-2.215994e-009
-1.378151e-009
-3.023313e-010
2.419951e-009
6.369276e-009
8.861581e-009
7.123765e-009
1.058767e-009
-6.203662e-009
-1.062021e-008
-1.023333e-008
-6.139645e-009
-9.116646e-010
3.571479e-009
6.773527e-009
8.569215e-009
8.416214e-009
5.835823e-009
1.502922e-009
-2.662562e-009
-4.830936e-009
-4.673207e-009
-3.311381e-009
-1.920664e-009
-5.998275e-010
1.283760e-009
3.847392e-009
6.125878e-009
6.866671e-009
5.731025e-009
3.528291e-009
1.305892e-009
-6.013373e-010
-2.572349e-009
-4.963534e-009
-7.602790e-009
-1.000079e-008
-1.184147e-008
-1.312676e-008
-1.395733e-008
-1.437961e-008
-1.446403e-008
-1.433276e-008
-1.396109e-008
-1.305509e-008
-1.134378e-008
-9.030568e-009
-6.756469e-009
-4.943674e-009
-3.268903e-009
-1.039976e-009
1.817994e-009
4.350494e-009
5.386655e-009
4.756609e-009
3.476620e-009
2.599497e-009
2.046542e-009
8.473363e-010
-1.432301e-009
-3.770214e-009
-4.459332e-009
-2.792026e-009
2.158704e-010
2.843737e-009
4.222134e-009
4.691608e-009
4.748987e-009
4.065386e-009
1.892087e-009
-1.625388e-009
-4.919683e-009
-6.098012e-009
-4.586979e-009
-1.564824e-009
1.226885e-009
2.916151e-009
3.671666e-009
3.717470e-009
2.675279e-009
2.039167e-010
-2.866750e-009
-4.558444e-009
-3.363066e-009
7.066982e-011
3.125385e-009
3.420780e-009
9.986486e-010
-1.722981e-009
-2.276015e-009
-4.823665e-010
1.511575e-009
-2.608573e-008
-1.379228e-008
2.356825e-009
1.212041e-008
1.103648e-008
2.742317e-009
-5.242051e-009
-7.888771e-009
-5.599564e-009
-2.002895e-009
2.375836e-010
1.288275e-009
2.513274e-009
3.952129e-009
4.019825e-009
1.627788e-009
-1.946183e-009
-3.799542e-009
-2.140787e-009
1.846678e-009
4.965426e-009
4.786042e-009
1.499022e-009
-2.718475e-009
-5.771053e-009
-6.949289e-009
-6.546651e-009
-4.812713e-009
-1.671653e-009
2.654772e-009
7.176871e-009
1.057408e-008
1.206729e-008
1.172307e-008
9.938497e-009
6.840738e-009
2.323213e-009
-3.447300e-009
-9.795919e-009
-1.591263e-008
-2.138925e-008
-2.632156e-008
-3.094714e-008
-3.529052e-008
-3.914794e-008
-4.228459e-008
-4.456806e-008
-4.599015e-008
-4.667922e-008
-4.687018e-008
-4.671455e-008
-4.604427e-008
-4.443009e-008
-4.162392e-008
-3.793227e-008
-3.399080e-008
-3.007961e-008
-2.577880e-008
-2.048227e-008
-1.425977e-008
-8.034668e-009
-2.788960e-009
1.301002e-009
4.750053e-009
7.796878e-009
9.794566e-009
9.780374e-009
7.602619e-009
4.263626e-009
1.067365e-009
-1.396531e-009
-3.251906e-009
-4.477026e-009
-4.468543e-009
-2.750392e-009
2.398143e-011
2.194056e-009
2.486121e-009
1.206775e-009
-1.620580e-010
-5.592625e-010
-3.082171e-010
-3.547510e-010
-7.722663e-010
-4.785671e-010
1.309462e-009
3.565022e-009
3.919399e-009
1.029776e-009
-3.550617e-009
-6.237584e-009
-4.551492e-009
4.227739e-010
4.773545e-009
5.172721e-009
1.785785e-009
-2.062346e-009
-3.095922e-009
-1.063369e-009
1.328623e-009
-4.613635e-008
-2.811835e-008
-3.511624e-009
1.336832e-008
1.545250e-008
6.679265e-009
-2.925619e-009
-5.931202e-009
-2.496537e-009
1.765835e-009
2.003733e-009
-1.670849e-009
-5.306794e-009
-5.513052e-009
-2.409980e-009
1.369212e-009
3.818016e-009
5.185031e-009
6.633998e-009
7.948637e-009
7.198160e-009
2.848966e-009
-4.053457e-009
-1.012541e-008
-1.218736e-008
-9.611028e-009
-4.336892e-009
1.092826e-009
5.330763e-009
8.308573e-009
1.009022e-008
1.008462e-008
7.431032e-009
1.902710e-009
-5.783895e-009
-1.453295e-008
-2.361790e-008
-3.288314e-008
-4.238298e-008
-5.199054e-008
-6.137555e-008
-7.025799e-008
-7.858564e-008
-8.643884e-008
-9.377384e-008
-1.002706e-007
-1.054546e-007
-1.090095e-007
-1.109856e-007
-1.116613e-007
-1.111546e-007
-1.092004e-007
-1.054025e-007
-9.974241e-008
-9.276266e-008
-8.514942e-008
-7.714662e-008
-6.849295e-008
-5.897971e-008
-4.895301e-008
-3.911894e-008
-2.988390e-008
-2.109221e-008
-1.255040e-008
-4.691263e-009
1.525547e-009
5.440531e-009
7.239595e-009
7.512676e-009
6.412411e-009
3.617176e-009
-6.813579e-010
-4.999057e-009
-7.235120e-009
-6.385445e-009
-3.468087e-009
-5.181593e-010
1.334331e-009
2.576953e-009
4.056222e-009
5.336340e-009
4.809819e-009
1.660064e-009
-2.556682e-009
-4.795320e-009
-3.311122e-009
4.651497e-010
3.069111e-009
2.210175e-009
-1.085524e-009
-3.515345e-009
-2.685021e-009
6.695697e-010
3.493117e-009
3.341146e-009
5.763863e-010
-2.154025e-009
-2.496145e-009
-5.160739e-010
1.548618e-009
-3.473260e-008
-2.205844e-008
-4.680176e-009
7.351110e-009
9.063266e-009
3.438208e-009
-2.025386e-009
-1.935807e-009
2.809380e-009
6.615794e-009
4.778523e-009
-2.125474e-009
-8.880004e-009
-1.037622e-008
-5.870753e-009
9.931578e-010
5.861787e-009
7.149133e-009
6.201423e-009
4.774929e-009
3.048006e-009
2.523920e-010
-3.263857e-009
-5.354906e-009
-3.859892e-009
1.021609e-009
6.413371e-009
8.951558e-009
7.275777e-009
2.427629e-009
-3.922604e-009
-1.133315e-008
-2.068224e-008
-3.275506e-008
-4.711625e-008
-6.247687e-008
-7.798493e-008
-9.394425e-008
-1.112564e-007
-1.303077e-007
-1.504967e-007
-1.707594e-007
-1.903643e-007
-2.090933e-007
-2.267285e-007
-2.425549e-007
-2.555022e-007
-2.647648e-007
-2.701832e-007
-2.719683e-007
-2.701358e-007
-2.643605e-007
-2.544426e-007
-2.408150e-007
-2.244449e-007
-2.062192e-007
-1.865608e-007
-1.657392e-007
-1.444357e-007
-1.237374e-007
-1.044440e-007
-8.652619e-008
-6.950365e-008
-5.337460e-008
-3.893104e-008
-2.696196e-008
-1.728678e-008
-8.940817e-009
-1.487603e-009
4.102773e-009
6.295604e-009
4.851106e-009
1.607912e-009
-8.756517e-010
-1.464506e-009
-1.031867e-009
-8.829198e-010
-9.304468e-010
1.523187e-010
2.930887e-009
5.793467e-009
6.047277e-009
2.614903e-009
-2.534101e-009
-5.879406e-009
-5.374574e-009
-2.036638e-009
1.300213e-009
2.592401e-009
1.970202e-009
8.982024e-010
4.212596e-010
3.837412e-010
9.624011e-011
-6.376177e-010
-1.300272e-009
-1.278027e-009
-4.874471e-010
5.915693e-010
1.327580e-009
1.075230e-009
5.609193e-010
-2.657390e-010
-1.284982e-009
-2.433441e-009
-3.219133e-009
-2.568635e-009
2.566684e-010
4.310525e-009
6.888557e-009
5.524741e-009
5.158316e-010
-4.702497e-009
-6.231081e-009
-3.174494e-009
1.495503e-009
3.669518e-009
1.808427e-009
-1.957076e-009
-4.181538e-009
-3.264110e-009
-2.520017e-010
3.027278e-009
5.947469e-009
8.887305e-009
1.141734e-008
1.140439e-008
6.396926e-009
-4.162983e-009
-1.844758e-008
-3.412641e-008
-5.064122e-008
-6.952429e-008
-9.263406e-008
-1.203843e-007
-1.518057e-007
-1.860689e-007
-2.235273e-007
-2.650788e-007
-3.106587e-007
-3.585973e-007
-4.064881e-007
-4.525073e-007
-4.957674e-007
-5.355377e-007
-5.704604e-007
-5.987477e-007
-6.190712e-007
-6.310379e-007
-6.347373e-007
-6.300279e-007
-6.165219e-007
-5.942816e-007
-5.642897e-007
-5.280343e-007
-4.867168e-007
-4.411283e-007
-3.923848e-007
-3.425188e-007
-2.939689e-007
-2.483746e-007
-2.060756e-007
-1.669697e-007
-1.316880e-007
-1.015289e-007
-7.706844e-008
-5.713354e-008
-3.962261e-008
-2.351401e-008
-9.834392e-009
-3.848394e-010
4.413085e-009
6.117179e-009
6.667581e-009
6.539984e-009
4.877307e-009
1.413223e-009
-2.230907e-009
-3.627762e-009
-1.934380e-009
1.112137e-009
2.790827e-009
1.900465e-009
-4.298164e-010
-2.217204e-009
-2.514302e-009
-1.731449e-009
-5.334134e-010
9.428740e-010
2.589326e-009
3.546958e-009
2.636167e-009
-1.745672e-010
-3.094826e-009
-3.852381e-009
-1.905910e-009
8.936125e-010
2.103093e-009
1.125914e-009
-3.425754e-010
3.541161e-008
2.209678e-008
4.145808e-009
-8.108541e-009
-1.031440e-008
-5.819776e-009
-9.508393e-010
8.283963e-010
5.114137e-010
6.171863e-010
1.870034e-009
3.001360e-009
2.989869e-009
2.422307e-009
2.322308e-009
2.278629e-009
6.160278e-010
-3.315443e-009
-7.507264e-009
-8.565262e-009
-4.812378e-009
2.029616e-009
8.292716e-009
1.124763e-008
1.038333e-008
6.165221e-009
-1.752553e-009
-1.461317e-008
-3.311472e-008
-5.659871e-008
-8.417527e-008
-1.165646e-007
-1.564013e-007
-2.064677e-007
-2.676951e-007
-3.389715e-007
-4.186635e-007
-5.058737e-007
-5.999847e-007
-6.992105e-007
-8.000519e-007
-8.984173e-007
-9.911920e-007
-1.076597e-006
-1.153185e-006
-1.218892e-006
-1.271310e-006
-1.308741e-006
-1.330659e-006
-1.337051e-006
-1.327596e-006
-1.301806e-006
-1.259938e-006
-1.203421e-006
-1.134182e-006
-1.053729e-006
-9.632940e-007
-8.649519e-007
-7.622693e-007
-6.594427e-007
-5.597390e-007
-4.649990e-007
-3.767108e-007
-2.971609e-007
-2.289606e-007
-1.732379e-007
-1.285963e-007
-9.224656e-008
-6.222423e-008
-3.831252e-008
-2.082450e-008
-8.941923e-009
-7.510331e-010
5.092209e-009
8.255160e-009
7.735586e-009
3.900415e-009
-9.021368e-010
-3.986498e-009
-4.397578e-009
-3.130654e-009
-1.511580e-009
1.197201e-010
1.923584e-009
3.293412e-009
2.923078e-009
4.973312e-010
-2.161265e-009
-2.440959e-009
2.263047e-010
3.263941e-009
3.291100e-009
-2.472412e-010
-4.131195e-009
-4.460525e-009
-7.375777e-010
3.438728e-009
3.988790e-009
5.675766e-010
-3.087008e-009
4.506780e-008
2.647797e-008
2.524394e-009
-1.147746e-008
-1.023671e-008
-9.814549e-010
4.871902e-009
2.231437e-009
-4.598756e-009
-7.846027e-009
-4.225024e-009
2.810787e-009
7.514559e-009
7.391553e-009
4.320838e-009
1.314524e-009
-6.064630e-010
-2.150265e-009
-3.402736e-009
-2.954951e-009
2.536827e-010
4.781784e-009
7.068433e-009
4.105937e-009
-4.565767e-009
-1.765525e-008
-3.460954e-008
-5.702630e-008
-8.783302e-008
-1.297298e-007
-1.848509e-007
-2.556107e-007
-3.450013e-007
-4.553480e-007
-5.866234e-007
-7.361497e-007
-8.999553e-007
-1.074191e-006
-1.255143e-006
-1.438255e-006
-1.617835e-006
-1.788195e-006
-1.945122e-006
-2.086110e-006
-2.209253e-006
-2.312269e-006
-2.392794e-006
-2.449409e-006
-2.481921e-006
-2.490494e-006
-2.474746e-006
-2.434022e-006
-2.368454e-006
-2.279380e-006
-2.168554e-006
-2.037267e-006
-1.886744e-006
-1.719555e-006
-1.540340e-006
-1.354864e-006
-1.168423e-006
-9.853976e-007
-8.102553e-007
-6.483289e-007
-5.048853e-007
-3.831096e-007
-2.831131e-007
-2.029888e-007
-1.406028e-007
-9.413101e-008
-6.115321e-008
-3.807550e-008
-2.121008e-008
-8.550411e-009
-1.162602e-010
3.675467e-009
3.751225e-009
2.218377e-009
6.677928e-010
-7.698888e-010
-2.373458e-009
-3.290886e-009
-1.877638e-009
2.080738e-009
6.021601e-009
6.399423e-009
2.282516e-009
-3.153862e-009
-5.333596e-009
-2.736803e-009
1.556131e-009
3.042899e-009
4.759429e-010
-2.908545e-009
-2.955895e-009
8.283246e-010
4.598267e-009
4.176472e-009
-4.562195e-010
-4.952238e-009
2.781747e-008
1.298801e-008
-4.596573e-009
-1.156207e-008
-4.772433e-009
6.853976e-009
1.138049e-008
4.804693e-009
-6.218898e-009
-1.163534e-008
-7.516980e-009
1.220670e-009
6.588421e-009
5.215456e-009
4.587876e-010
-2.100496e-009
-2.489040e-010
3.752218e-009
6.551542e-009
7.024827e-009