# vtk DataFile Version 3.0
vtk output
ASCII
DATASET STRUCTURED_POINTS
DIMENSIONS 100 100 1
SPACING 1 1 1
ORIGIN 0 0 0
POINT_DATA 10000
SCALARS SFBox_profile double
LOOKUP_TABLE default 
0.000000e+000
0.000000e+000
0.000000e+000
0.000000e+000
0.000000e+000
0.000000e+000
0.000000e+000
0.000000e+000
0.000000e+000
0.000000e+000
0.000000e+000
0.000000e+000
0.000000e+000
0.000000e+000
0.000000e+000
0.000000e+000
0.000000e+000
0.000000e+000
0.000000e+000
0.000000e+000
0.000000e+000
0.000000e+000
0.000000e+000
0.000000e+000
0.000000e+000
0.000000e+000
0.000000e+000
0.000000e+000
0.000000e+000
0.000000e+000
0.000000e+000
0.000000e+000
0.000000e+000
0.000000e+000
0.000000e+000
0.000000e+000
0.000000e+000
0.000000e+000
0.000000e+000
0.000000e+000
0.000000e+000
0.000000e+000
0.000000e+000
0.000000e+000
0.000000e+000
0.000000e+000
0.000000e+000
0.000000e+000
0.000000e+000
0.000000e+000
0.000000e+000
0.000000e+000
0.000000e+000
0.000000e+000
0.000000e+000
0.000000e+000
0.000000e+000
0.000000e+000
0.000000e+000
0.000000e+000
0.000000e+000
0.000000e+000
0.000000e+000
0.000000e+000
0.000000e+000
0.000000e+000
0.000000e+000
0.000000e+000
0.000000e+000
0.000000e+000
0.000000e+000
0.000000e+000
0.000000e+000
0.000000e+000
0.000000e+000
0.000000e+000
0.000000e+000
0.000000e+000
0.000000e+000
0.000000e+000
0.000000e+000
0.000000e+000
0.000000e+000
0.000000e+000
0.000000e+000
0.000000e+000
0.000000e+000
0.000000e+000
0.000000e+000
0.000000e+000
0.000000e+000
0.000000e+000
0.000000e+000
0.000000e+000
0.000000e+000
0.000000e+000
0.000000e+000
0.000000e+000
0.000000e+000
0.000000e+000
-3.238391e-009
-1.659434e-009
3.291559e-010
1.688848e-009
1.869397e-009
1.004223e-009
-2.519634e-010
-1.150794e-009
-1.282017e-009
-7.509602e-010
-1.550048e-011
4.744880e-010
5.669998e-010
4.309098e-010
3.318756e-010
3.716682e-010
4.138552e-010
2.449329e-010
-1.895090e-010
-6.961749e-010
-9.767648e-010
-8.728473e-010
-4.914352e-010
-1.015919e-010
9.760841e-011
1.255419e-010
1.600214e-010
3.420611e-010
6.374621e-010
8.790650e-010
9.335265e-010
8.229873e-010
6.892349e-010
6.487786e-010
6.882396e-010
6.968244e-010
5.900241e-010
3.936925e-010
2.095806e-010
1.091322e-010
6.974629e-011
1.372806e-011
-1.005559e-010
-2.353978e-010
-3.201610e-010
-3.310243e-010
-3.152727e-010
-3.358071e-010
-3.999195e-010
-4.524192e-010
-4.407053e-010
-3.784617e-010
-3.347026e-010
-3.573438e-010
-4.156625e-010
-4.293364e-010
-3.573416e-010
-2.495964e-010
-1.987189e-010
-2.373934e-010
-2.926495e-010
-2.546508e-010
-9.457844e-011
9.474968e-011
1.879802e-010
1.603328e-010
1.232396e-010
2.149500e-010
4.512055e-010
6.919312e-010
7.678600e-010
6.455449e-010
4.621276e-010
3.876250e-010
4.483543e-010
4.908210e-010
3.300635e-010
-5.742733e-011
-4.849752e-010
-7.037519e-010
-6.118717e-010
-3.313109e-010
-8.595522e-011
-2.357659e-013
-6.612870e-012
5.824748e-011
2.667344e-010
5.023750e-010
5.454283e-010
2.695175e-010
-2.220137e-010
-6.405920e-010
-7.091283e-010
-3.621114e-010
1.990202e-010
6.329675e-010
6.771550e-010
3.114135e-010
-2.342206e-010
-6.248345e-010
-8.135101e-010
-4.097007e-010
9.617872e-011
4.312086e-010
4.485192e-010
1.909443e-010
-1.442688e-010
-3.315356e-010
-2.617989e-010
-1.086485e-011
2.206802e-010
2.578621e-010
8.195420e-011
-1.602003e-010
-2.773310e-010
-1.878114e-010
2.085298e-011
1.759703e-010
1.719201e-010
5.561863e-011
-2.902428e-011
1.720201e-011
1.544626e-010
2.441440e-010
1.827772e-010
5.734149e-013
-1.681081e-010
-2.104585e-010
-1.342822e-010
-4.799433e-011
-4.781304e-011
-1.264089e-010
-1.894967e-010
-1.559305e-010
-3.667490e-011
8.348737e-011
1.353433e-010
1.306088e-010
1.398752e-010
2.133301e-010
3.303011e-010
4.270303e-010
4.669701e-010
4.759756e-010
5.074680e-010
5.799856e-010
6.572594e-010
6.912071e-010
6.777315e-010
6.616796e-010
6.850381e-010
7.369958e-010
7.637332e-010
7.292834e-010
6.596731e-010
6.180174e-010
6.342682e-010
6.670242e-010
6.440131e-010
5.419344e-010
4.185035e-010
3.562365e-010
3.731612e-010
3.969948e-010
3.367253e-010
1.810680e-010
1.887440e-011
-4.597988e-011
-1.054533e-012
5.848484e-011
2.563575e-011
-1.057397e-010
-2.276795e-010
-2.218220e-010
-7.824519e-011
8.967788e-011
1.505777e-010
7.751529e-011
-3.155077e-011
-5.307573e-011
4.139974e-011
1.592498e-010
1.773625e-010
6.040125e-011
-1.042833e-010
-1.842338e-010
-1.177528e-010
3.558285e-011
1.491203e-010
1.349571e-010
1.042885e-011
-1.237487e-010
-1.665524e-010
-9.036154e-011
4.722354e-011
1.519655e-010
1.586099e-010
6.804655e-011
-6.090384e-011
-1.510919e-010
2.214944e-009
1.141719e-009
-2.057800e-010
-1.131362e-009
-1.282349e-009
-7.535895e-010
4.891521e-011
6.830966e-010
9.041208e-010
7.291774e-010
3.380314e-010
-8.050101e-011
-4.186005e-010
-6.394914e-010
-7.214504e-010
-6.330557e-010
-3.642951e-010
2.981065e-011
4.314515e-010
7.182154e-010
8.290075e-010
7.814851e-010
6.328927e-010
4.286800e-010
1.869105e-010
-7.817477e-011
-3.320907e-010
-5.291317e-010
-6.452903e-010
-6.957698e-010
-7.143904e-010
-7.157360e-010
-6.812161e-010
-5.839616e-010
-4.242154e-010
-2.353827e-010
-5.395531e-011
1.131825e-010
2.881509e-010
4.898626e-010
7.068808e-010
9.053818e-010
1.062270e-009
1.185706e-009
1.300667e-009
1.417345e-009
1.519184e-009
1.583759e-009
1.611225e-009
1.626219e-009
1.650202e-009
1.676397e-009
1.677457e-009
1.638272e-009
1.576065e-009
1.522986e-009
1.489303e-009
1.449194e-009
1.367255e-009
1.237725e-009
1.092266e-009
9.659205e-010
8.579233e-010
7.313123e-010
5.532456e-010
3.326805e-010
1.143187e-010
-6.442204e-011
-2.061274e-010
-3.403821e-010
-4.804233e-010
-5.979382e-010
-6.436433e-010
-5.907469e-010
-4.548941e-010
-2.727330e-010
-6.806785e-011
1.537366e-010
3.782044e-010
5.575989e-010
6.258615e-010
5.452774e-010
3.401499e-010
8.317496e-011
-1.521429e-010
-3.262905e-010
-4.260361e-010
-4.334117e-010
-3.179762e-010
-7.340625e-011
2.344357e-010
4.666781e-010
4.830466e-010
2.443539e-010
-1.350966e-010
-4.388658e-010
-4.808204e-010
-2.305745e-010
1.581589e-010
4.414583e-010
3.588736e-009
1.822159e-009
-3.767753e-010
-1.842241e-009
-1.996691e-009
-1.042195e-009
2.740851e-010
1.165876e-009
1.259597e-009
7.226634e-010
3.322057e-011
-4.001759e-010
-4.827636e-010
-3.931305e-010
-3.450875e-010
-3.808383e-010
-3.654133e-010
-1.573676e-010
2.228105e-010
5.863492e-010
7.304235e-010
6.040299e-010
3.362753e-010
1.136756e-010
2.893494e-011
3.476003e-011
2.512041e-011
-5.055029e-011
-1.486155e-010
-1.885533e-010
-1.345722e-010
-2.048193e-011
9.445744e-011
1.833566e-010
2.660542e-010
3.762095e-010
5.232093e-010
6.862719e-010
8.383027e-010
9.691056e-010
1.086165e-009
1.198845e-009
1.306191e-009
1.398998e-009
1.469859e-009
1.519463e-009
1.554844e-009
1.583457e-009
1.608292e-009
1.626466e-009
1.631942e-009
1.621464e-009
1.599415e-009
1.575649e-009
1.555914e-009
1.534023e-009
1.496410e-009
1.437086e-009
1.366599e-009
1.301645e-009
1.243764e-009
1.172308e-009
1.064882e-009
9.260732e-010
7.896195e-010
6.844598e-010
5.984938e-010
4.847852e-010
3.127784e-010
1.129045e-010
-3.983371e-011
-9.626086e-011
-8.617327e-011
-9.072170e-011
-1.524897e-010
-2.153101e-010
-1.668979e-010
4.508727e-011
3.366113e-010
5.360730e-010
5.239082e-010
3.338553e-010
1.167516e-010
-1.275961e-012
-2.987618e-011
-8.559017e-011
-2.494648e-010
-4.514324e-010
-5.029123e-010
-2.627473e-010
2.066924e-010
6.389347e-010
7.374075e-010
3.966842e-010
-2.001014e-010
-6.872650e-010
-7.551776e-010
-3.563985e-010
2.601618e-010
7.077851e-010
2.317171e-009
1.131043e-009
-3.184998e-010
-1.223328e-009
-1.202812e-009
-4.531110e-010
4.287163e-010
8.505496e-010
6.035607e-010
-3.658904e-011
-5.485489e-010
-5.629372e-010
-1.201905e-010
3.994548e-010
6.011590e-010
3.820926e-010
-2.640988e-011
-2.934281e-010
-2.768482e-010
-1.121160e-010
-4.277900e-011
-1.701508e-010
-3.594605e-010
-3.777682e-010
-1.179501e-010
3.064498e-010
6.735031e-010
8.509297e-010
8.903983e-010
9.447884e-010
1.107810e-009
1.334850e-009
1.506413e-009
1.552841e-009
1.513046e-009
1.481712e-009
1.512577e-009
1.576749e-009
1.606729e-009
1.569808e-009
1.495486e-009
1.438016e-009
1.420803e-009
1.419735e-009
1.396284e-009
1.341019e-009
1.282670e-009
1.256446e-009
1.266471e-009
1.281268e-009
1.266754e-009
1.222816e-009
1.184915e-009
1.186960e-009
1.222775e-009
1.248523e-009
1.228077e-009
1.175616e-009
1.146394e-009
1.178434e-009
1.244710e-009
1.273031e-009
1.222040e-009
1.134861e-009
1.104537e-009
1.175930e-009
1.285325e-009
1.311825e-009
1.199415e-009
1.023718e-009
9.222795e-010
9.479342e-010
9.964799e-010
8.964305e-010
5.835525e-010
1.850661e-010
-8.215365e-011
-1.095486e-010
2.718160e-012
4.713086e-011
-8.295849e-011
-2.830150e-010
-3.374377e-010
-1.371378e-010
1.953984e-010
3.979833e-010
2.975830e-010
-3.171039e-011
-3.240533e-010
-3.413563e-010
-6.736945e-011
2.829773e-010
4.370278e-010
2.732926e-010
-9.516361e-011
-4.124216e-010
-4.637617e-010
-2.167558e-010
1.676008e-010
4.458537e-010
-6.062808e-010
-3.805864e-010
-7.120958e-011
2.123858e-010
4.084911e-010
4.776730e-010
3.715313e-010
5.828845e-011
-3.979840e-010
-7.927031e-010
-8.608701e-010
-4.641594e-010
2.583207e-010
9.289214e-010
1.169882e-009
8.690755e-010
2.536607e-010
-2.967113e-010
-5.404865e-010
-5.205786e-010
-4.524532e-010
-4.775856e-010
-5.226058e-010
-3.902758e-010
2.169448e-011
5.976000e-010
1.096292e-009
1.362509e-009
1.448605e-009
1.536467e-009
1.749123e-009
2.040319e-009
2.258563e-009
2.304915e-009
2.222010e-009
2.136523e-009
2.128572e-009
2.163990e-009
2.147535e-009
2.029446e-009
1.853546e-009
1.706298e-009
1.629262e-009
1.586758e-009
1.515353e-009
1.396548e-009
1.275547e-009
1.210068e-009
1.206723e-009
1.213528e-009
1.176577e-009
1.100432e-009
1.046302e-009
1.066895e-009
1.146025e-009
1.210675e-009
1.208460e-009
1.169598e-009
1.181359e-009
1.293609e-009
1.454354e-009
1.552438e-009
1.532960e-009
1.464423e-009
1.476041e-009
1.619414e-009
1.799513e-009
1.858959e-009
1.739040e-009
1.549035e-009
1.459820e-009
1.520958e-009
1.590765e-009
1.462306e-009
1.067341e-009
5.533981e-010
1.523947e-010
-3.006684e-011
-9.416325e-011
-2.164450e-010
-4.455923e-010
-6.323674e-010
-5.673649e-010
-1.936941e-010
3.103119e-010
6.563744e-010
6.636614e-010
3.782692e-010
8.031216e-012
-2.470662e-010
-3.163484e-010
-2.514378e-010
-1.368033e-010
-2.026335e-011
8.454624e-011
1.583150e-010
1.640574e-010
8.219356e-011
-5.062289e-011
-1.515385e-010
-3.010535e-009
-1.549073e-009
2.444349e-010
1.422636e-009
1.576815e-009
9.210122e-010
1.347952e-011
-6.500025e-010
-8.801649e-010
-7.615432e-010
-4.616496e-010
-8.959942e-011
2.962415e-010
6.079026e-010
7.157932e-010
5.461084e-010
1.831076e-010
-1.556046e-010
-2.766002e-010
-1.601498e-010
4.511206e-011
1.794212e-010
2.247935e-010
3.024063e-010
5.243288e-010
8.593662e-010
1.154697e-009
1.289112e-009
1.295643e-009
1.325410e-009
1.491678e-009
1.755752e-009
1.968373e-009
2.017632e-009
1.929518e-009
1.824755e-009
1.787032e-009
1.782524e-009
1.707127e-009
1.502006e-009
1.213768e-009
9.425676e-010
7.406793e-010
5.697487e-010
3.560476e-010
7.864066e-011
-2.047405e-010
-4.184614e-010
-5.475382e-010
-6.479313e-010
-7.775478e-010
-9.236217e-010
-1.007761e-009
-9.668323e-010
-8.233048e-010
-6.651633e-010
-5.513535e-010
-4.438030e-010
-2.457901e-010
8.639382e-011
4.774936e-010
7.922043e-010
9.656623e-010
1.067496e-009
1.223512e-009
1.470910e-009
1.702285e-009
1.766947e-009
1.629953e-009
1.420046e-009
1.308646e-009
1.340497e-009
1.391632e-009
1.299386e-009
1.029335e-009
7.067824e-010
4.846740e-010
3.908949e-010
3.146562e-010
1.407126e-010
-1.144019e-010
-3.064153e-010
-2.995732e-010
-9.371014e-011
1.795861e-010
3.730011e-010
4.264987e-010
3.655790e-010
2.266909e-010
1.483313e-011
-2.544438e-010
-4.890705e-010
-5.339431e-010
-2.884797e-010
1.682753e-010
5.771398e-010
6.589600e-010
3.258752e-010
-2.277360e-010
-6.423651e-010
-3.218884e-009
-1.515924e-009
4.915572e-010
1.640187e-009
1.499737e-009
4.881585e-010
-5.377649e-010
-9.105477e-010
-5.532522e-010
9.215368e-011
4.875057e-010
4.064723e-010
2.537612e-011
-3.108809e-010
-3.937180e-010
-2.615542e-010
-7.047589e-011
9.725020e-011
2.878096e-010
5.686189e-010
9.066128e-010
1.175487e-009
1.278371e-009
1.243788e-009
1.189389e-009
1.198621e-009
1.248070e-009
1.258641e-009
1.201824e-009
1.134530e-009
1.123370e-009
1.148117e-009
1.098032e-009
8.695104e-010
4.597077e-010
-4.450414e-011
-5.676654e-010
-1.125743e-009
-1.800558e-009
-2.640834e-009
-3.599361e-009
-4.572296e-009
-5.494362e-009
-6.386059e-009
-7.305149e-009
-8.259534e-009
-9.177955e-009
-9.968651e-009
-1.059914e-008
-1.110839e-008
-1.153851e-008
-1.186344e-008
-1.199673e-008
-1.187358e-008
-1.151728e-008
-1.101369e-008
-1.041766e-008
-9.694692e-009
-8.767792e-009
-7.624632e-009
-6.367984e-009
-5.148165e-009
-4.044252e-009
-3.021257e-009
-2.011220e-009
-1.029773e-009
-1.970332e-010
3.657002e-010
6.545037e-010
7.883491e-010
8.957578e-010
1.005656e-009
1.057069e-009
1.006958e-009
9.066894e-010
8.578923e-010
8.998628e-010
9.606145e-010
9.307658e-010
7.782443e-010
5.749205e-010
4.079211e-010
2.819435e-010
1.300549e-010
-7.640058e-011
-2.503089e-010
-2.506651e-010
-3.831702e-011
2.373147e-010
3.330871e-010
1.242191e-010
-2.588985e-010
-5.094303e-010
-3.890877e-010
6.275343e-011
5.358160e-010
6.752612e-010
3.528645e-010
-2.271705e-010
-6.692305e-010
-1.260685e-009
-3.904452e-010
5.386461e-010
8.614576e-010
4.095186e-010
-4.115051e-010
-9.304679e-010
-7.078776e-010
1.333219e-010
9.950486e-010
1.251596e-009
7.152141e-010
-2.418672e-010
-9.926472e-010
-1.123664e-009
-6.845542e-010
-4.873017e-011
4.429145e-010
7.232822e-010
9.449480e-010
1.244331e-009
1.584596e-009
1.815664e-009
1.851369e-009
1.759782e-009
1.680459e-009
1.673288e-009
1.661062e-009
1.508820e-009
1.135430e-009
5.375262e-010
-2.784636e-010
-1.357369e-009
-2.773164e-009
-4.555498e-009
-6.657339e-009
-9.002632e-009
-1.155574e-008
-1.433015e-008
-1.732786e-008
-2.048316e-008
-2.367856e-008
-2.681627e-008
-2.986431e-008
-3.282625e-008
-3.567124e-008
-3.830524e-008
-4.061648e-008
-4.254239e-008
-4.408134e-008
-4.523675e-008
-4.595962e-008
-4.615894e-008
-4.577144e-008
-4.481223e-008
-4.334741e-008
-4.141906e-008
-3.901112e-008
-3.610046e-008
-3.273973e-008
-2.907765e-008
-2.528971e-008
-2.149379e-008
-1.774270e-008
-1.409634e-008
-1.068198e-008
-7.663115e-009
-5.145116e-009
-3.123341e-009
-1.531773e-009
-3.315910e-010
4.695200e-010
8.915947e-010
1.053604e-009
1.136376e-009
1.256026e-009
1.382622e-009
1.403534e-009
1.271904e-009
1.076182e-009
9.450047e-010
8.872646e-010
7.541930e-010
3.907483e-010
-1.645312e-010
-6.453059e-010
-7.524986e-010
-4.139318e-010
1.315697e-010
5.101354e-010
4.981678e-010
1.747796e-010
-1.730850e-010
-2.921111e-010
-1.437473e-010
1.041152e-010
2.366600e-010
1.586112e-010
-5.281312e-011
-2.251541e-010
1.300189e-009
8.825374e-010
2.859569e-010
-2.987999e-010
-7.386296e-010
-9.263459e-010
-7.628090e-010
-2.271119e-010
5.108306e-010
1.086107e-009
1.134093e-009
5.750635e-010
-2.632893e-010
-8.414392e-010
-7.992012e-010
-2.192024e-010
4.697041e-010
8.634003e-010
8.957779e-010
8.273898e-010
9.542882e-010
1.332754e-009
1.767129e-009
2.028481e-009
2.054284e-009
1.932460e-009
1.715438e-009
1.276785e-009
3.539152e-010
-1.285170e-009
-3.727660e-009
-6.949116e-009
-1.092445e-008
-1.568320e-008
-2.126255e-008
-2.763151e-008
-3.467729e-008
-4.225926e-008
-5.025872e-008
-5.857116e-008
-6.706537e-008
-7.557123e-008
-8.391583e-008
-9.196359e-008
-9.961200e-008
-1.067509e-007
-1.132384e-007
-1.189241e-007
-1.236915e-007
-1.274663e-007
-1.301808e-007
-1.317402e-007
-1.320363e-007
-1.309963e-007
-1.286102e-007
-1.249064e-007
-1.199097e-007
-1.136422e-007
-1.061754e-007
-9.767562e-008
-8.838551e-008
-7.855903e-008
-6.842414e-008
-5.821481e-008
-4.822251e-008
-3.878182e-008
-3.017800e-008
-2.256569e-008
-1.598984e-008
-1.048565e-008
-6.133136e-009
-2.984229e-009
-9.330174e-010
3.109576e-010
1.080703e-009
1.563210e-009
1.756316e-009
1.619574e-009
1.255856e-009
9.158727e-010
8.032866e-010
8.811004e-010
8.963026e-010
6.219174e-010
8.868928e-011
-4.191782e-010
-6.006804e-010
-3.835057e-010
3.874808e-011
3.844805e-010
4.925029e-010
3.843049e-010
1.729116e-010
-4.984415e-011
-2.380362e-010
-3.472076e-010
-3.170349e-010
-1.249887e-010
1.513058e-010
3.540296e-010
2.694973e-009
1.332332e-009
-2.478217e-010
-1.150041e-009
-1.123028e-009
-5.346780e-010
5.444691e-011
3.271072e-010
3.208249e-010
2.238027e-010
1.376944e-010
4.635872e-011
-4.272233e-011
-1.022954e-011
2.708725e-010
7.510733e-010
1.174185e-009
1.281682e-009
1.066118e-009
8.073966e-010
8.313110e-010
1.211065e-009
1.691175e-009
1.886795e-009
1.539803e-009
5.776004e-010
-1.055025e-009
-3.585065e-009
-7.412266e-009
-1.292465e-008
-2.031896e-008
-2.958925e-008
-4.065813e-008
-5.348970e-008
-6.807256e-008
-8.431582e-008
-1.019848e-007
-1.207409e-007
-1.402324e-007
-1.601465e-007
-1.801915e-007
-2.000598e-007
-2.194243e-007
-2.379683e-007
-2.554089e-007
-2.714912e-007
-2.859717e-007
-2.986150e-007
-3.092032e-007
-3.175377e-007
-3.234280e-007
-3.266879e-007
-3.271534e-007
-3.247075e-007
-3.192837e-007
-3.108509e-007
-2.994135e-007
-2.850543e-007
-2.679860e-007
-2.485576e-007
-2.271991e-007
-2.043660e-007
-1.805501e-007
-1.563424e-007
-1.324496e-007
-1.095953e-007
-8.836315e-008
-6.912173e-008
-5.209835e-008
-3.750642e-008
-2.556007e-008
-1.633272e-008
-9.607354e-009
-4.906465e-009
-1.713608e-009
3.115435e-010
1.328585e-009
1.506907e-009
1.184826e-009
8.027850e-010
6.628484e-010
7.612299e-010
8.709007e-010
7.940580e-010
5.379136e-010
2.637972e-010
1.017283e-010
4.394381e-011
1.276774e-011
-9.638768e-012
3.829293e-011
1.820062e-010
3.112565e-010
2.450465e-010
-7.548446e-011
-4.670401e-010
-6.130526e-010
-3.349083e-010
2.191484e-010
6.591118e-010
2.281654e-009
7.529201e-010
-8.347509e-010
-1.363715e-009
-6.785838e-010
4.620111e-010
1.084190e-009
7.628870e-010
-1.417943e-010
-8.863189e-010
-9.676861e-010
-4.349391e-010
2.975706e-010
8.657788e-010
1.191554e-009
1.387929e-009
1.532468e-009
1.588804e-009
1.527151e-009
1.442228e-009
1.475800e-009
1.593237e-009
1.449177e-009
4.919322e-010
-1.800392e-009
-5.795482e-009
-1.180404e-008
-2.026020e-008
-3.175927e-008
-4.688788e-008
-6.600324e-008
-8.916111e-008
-1.162252e-007
-1.470095e-007
-1.813006e-007
-2.187597e-007
-2.588375e-007
-3.008086e-007
-3.439014e-007
-3.874079e-007
-4.306996e-007
-4.731756e-007
-5.142220e-007
-5.532273e-007
-5.896271e-007
-6.229319e-007
-6.527164e-007
-6.785879e-007
-7.001588e-007
-7.170391e-007
-7.288491e-007
-7.352455e-007
-7.359448e-007
-7.307260e-007
-7.194142e-007
-7.018807e-007
-6.780921e-007
-6.481953e-007
-6.125755e-007
-5.718326e-007
-5.267065e-007
-4.780416e-007
-4.268418e-007
-3.743453e-007
-3.219926e-007
-2.712403e-007
-2.233387e-007
-1.792390e-007
-1.396691e-007
-1.052330e-007
-7.636754e-008
-5.316392e-008
-3.524874e-008
-2.189262e-008
-1.229050e-008
-5.777173e-009
-1.811401e-009
1.880996e-010
9.186729e-010
1.059613e-009
1.055106e-009
1.042237e-009
9.930947e-010
9.078003e-010
8.563260e-010
8.608551e-010
8.066506e-010
5.359743e-010
5.136462e-011
-4.048375e-010
-5.245835e-010
-2.230744e-010
2.429359e-010
4.698907e-010
2.568158e-010
-2.098049e-010
-5.135727e-010
-3.741634e-010
1.032761e-010
5.169642e-010
8.015327e-010
-2.043941e-010
-1.088038e-009
-1.014285e-009
1.079578e-011
1.188968e-009
1.585674e-009
8.761069e-010
-4.117388e-010
-1.336444e-009
-1.281886e-009
-3.806255e-010
6.941162e-010
1.329195e-009
1.418741e-009
1.312182e-009
1.400978e-009
1.772218e-009
2.204879e-009
2.397223e-009
2.108646e-009
1.057488e-009
-1.280720e-009
-5.728180e-009
-1.325283e-008
-2.478350e-008
-4.117748e-008
-6.331978e-008
-9.216330e-008
-1.285816e-007
-1.731193e-007
-2.258444e-007
-2.864009e-007
-3.541660e-007
-4.283391e-007
-5.079085e-007
-5.915971e-007
-6.779144e-007
-7.653234e-007
-8.524081e-007
-9.379307e-007
-1.020779e-006
-1.099895e-006
-1.174266e-006
-1.242976e-006
-1.305251e-006
-1.360448e-006
-1.407991e-006
-1.447300e-006
-1.477775e-006
-1.498822e-006
-1.509906e-006
-1.510572e-006
-1.500434e-006
-1.479137e-006
-1.446382e-006
-1.402018e-006
-1.346172e-006
-1.279321e-006
-1.202266e-006
-1.116076e-006
-1.022101e-006
-9.220795e-007
-8.182191e-007
-7.131200e-007
-6.095121e-007
-5.099668e-007
-4.167448e-007
-3.317811e-007
-2.566553e-007
-1.924276e-007
-1.394227e-007
-9.717296e-008
-6.462510e-008
-4.047752e-008
-2.340637e-008
-1.208565e-008
-5.140726e-009
-1.225190e-009
7.743248e-010
1.595931e-009
1.676434e-009
1.360846e-009
1.011378e-009
8.967888e-010
1.009815e-009
1.070561e-009
7.876563e-010
1.595604e-010
-4.776914e-010
-7.199628e-010
-4.403169e-010
1.039884e-010
4.915368e-010
4.769215e-010
1.556075e-010
-1.639890e-010
-2.407433e-010
-8.503218e-011
9.144495e-011
-5.149432e-010
-6.881079e-010
-7.115619e-010
-3.441145e-010
3.485517e-010
9.767008e-010
1.087855e-009
5.453177e-010
-2.916572e-010
-7.921862e-010
-5.462351e-010
2.896559e-010
1.122380e-009
1.437013e-009
1.236896e-009
1.005331e-009
1.228106e-009
1.913568e-009
2.509370e-009
2.199504e-009
2.088710e-010
-4.205224e-009
-1.202896e-008
-2.471640e-008
-4.412993e-008
-7.226992e-008
-1.110388e-007
-1.621627e-007
-2.271590e-007
-3.071817e-007
-4.027414e-007
-5.134851e-007
-6.382013e-007
-7.750262e-007
-9.216761e-007
-1.075579e-006
-1.233937e-006
-1.393840e-006
-1.552481e-006
-1.707371e-006
-1.856436e-006
-1.997966e-006
-2.130503e-006
-2.252785e-006
-2.363767e-006
-2.462651e-006
-2.548851e-006
-2.621879e-006
-2.681232e-006
-2.726347e-006
-2.756638e-006
-2.771547e-006
-2.770563e-006
-2.753172e-006
-2.718805e-006
-2.666866e-006
-2.596852e-006
-2.508511e-006
-2.401935e-006
-2.277581e-006
-2.136291e-006
-1.979433e-006
-1.809125e-006
-1.628398e-006
-1.441141e-006
-1.251839e-006
-1.065247e-006
-8.861315e-007
-7.190268e-007
-5.678892e-007
-4.356441e-007
-3.238139e-007
-2.324540e-007
-1.604248e-007
-1.057926e-007
-6.613065e-008
-3.869783e-008
-2.064941e-008
-9.368631e-009
-2.782786e-009
5.651769e-010
1.732910e-009
1.650956e-009
1.172696e-009
8.775142e-010
8.863741e-010
9.491465e-010
7.780175e-010
3.419787e-010
-1.223561e-010
-3.463280e-010
-2.563032e-010
7.008918e-012
2.438528e-010
3.435576e-010
3.062696e-010
1.775144e-010
7.715138e-013
-1.760229e-010
-2.897343e-010
-1.060652e-009
-4.246202e-010
2.144078e-010
4.312640e-010
2.410931e-010
-4.376430e-011
-1.617696e-010
-8.728357e-011
8.074794e-011
3.146080e-010
6.701101e-010
1.120762e-009
1.471912e-009
1.526526e-009
1.342800e-009
1.248277e-009
1.490333e-009
1.789147e-009
1.181739e-009
-1.748687e-009
-8.562202e-009
-2.094349e-008
-4.101502e-008
-7.164889e-008
-1.164209e-007
-1.791736e-007
-2.634639e-007
-3.721585e-007
-5.071913e-007
-6.693231e-007
-8.578410e-007
-1.070352e-006
-1.302881e-006
-1.550308e-006
-1.806941e-006
-2.067006e-006
-2.324962e-006
-2.575744e-006
-2.815007e-006
-3.039343e-006
-3.246357e-006
-3.434548e-006
-3.603097e-006
-3.751692e-006
-3.880446e-006
-3.989847e-006
-4.080642e-006
-4.153658e-006
-4.209627e-006
-4.249105e-006
-4.272486e-006
-4.280040e-006
-4.271878e-006
-4.247831e-006
-4.207334e-006
-4.149385e-006
-4.072614e-006
-3.975399e-006
-3.855950e-006
-3.712394e-006
-3.542988e-006
-3.346535e-006
-3.122948e-006
-2.873759e-006
-2.602390e-006
-2.314188e-006
-2.016278e-006
-1.717235e-006
-1.426470e-006
-1.153259e-006
-9.055879e-007
-6.891886e-007
-5.070942e-007
-3.597187e-007
-2.452407e-007
-1.600810e-007
-9.946563e-008
-5.814667e-008
-3.118969e-008
-1.453795e-008
-5.117446e-009
-5.682419e-010
1.045690e-009
1.272392e-009
1.116240e-009
9.796787e-010
8.679900e-010
7.137641e-010
5.486001e-010
4.370182e-010
3.525382e-010
2.020777e-010
-2.289256e-011
-1.790193e-010
-1.097146e-010
1.494072e-010
3.499994e-010
2.581024e-010
-9.472329e-011
-4.131236e-010
-1.153387e-009
1.075707e-010
1.190671e-009
1.123439e-009
4.339781e-011
-1.071058e-009
-1.320855e-009
-5.964227e-010
4.941061e-010
1.272213e-009
1.531036e-009
1.527494e-009
1.586715e-009
1.798098e-009
2.040426e-009
2.127233e-009
1.737260e-009
8.890076e-011
-4.359614e-009
-1.394288e-008
-3.164893e-008
-6.110960e-008
-1.068317e-007
-1.743975e-007
-2.702252e-007
-4.007557e-007
-5.713321e-007
-7.851855e-007
-1.042744e-006
-1.341240e-006
-1.674567e-006
-2.033496e-006
-2.406407e-006
-2.780511e-006
-3.143254e-006
-3.483480e-006
-3.792142e-006
-4.062629e-006
-4.290851e-006
-4.475202e-006
-4.616336e-006
-4.716743e-006
-4.780239e-006
-4.811510e-006
-4.815798e-006
-4.798668e-006
-4.765769e-006
-4.722560e-006
-4.674087e-006
-4.624884e-006
-4.578958e-006
-4.539775e-006
-4.510115e-006
-4.491790e-006
-4.485308e-006
-4.489577e-006
-4.501678e-006
-4.516701e-006
-4.527620e-006
-4.525352e-006
-4.499191e-006
-4.437726e-006
-4.330176e-006
-4.167885e-006
-3.945769e-006
-3.663559e-006
-3.326671e-006
-2.946403e-006
-2.539112e-006
-2.124290e-006
-1.721903e-006
-1.349711e-006
-1.021211e-006
-7.445179e-007
-5.221498e-007
-3.516174e-007
-2.266918e-007
-1.391320e-007
-8.041361e-008
-4.293869e-008
-2.048688e-008
-8.125630e-009
-2.021912e-009
5.996715e-010
1.470639e-009
1.493435e-009
1.145194e-009
7.913478e-010
6.932378e-010
8.357189e-010
9.133311e-010
6.213598e-010
3.258912e-012
-5.282269e-010
-5.668682e-010
-1.233237e-010
3.614070e-010
4.355922e-010
7.332501e-011
-3.160930e-010
-1.366905e-009
2.391682e-010
1.612442e-009
1.501996e-009
8.663033e-011
-1.345670e-009
-1.599883e-009
-5.575943e-010
8.794261e-010
1.708272e-009
1.685490e-009
1.379366e-009
1.492667e-009
2.164439e-009
2.819275e-009
2.469642e-009
-7.606130e-011
-6.469322e-009
-1.938746e-008
-4.298651e-008
-8.302971e-008
-1.468254e-007
-2.431274e-007
-3.818258e-007
-5.730108e-007
-8.251912e-007
-1.142966e-006
-1.524850e-006
-1.961913e-006
-2.437590e-006
-2.928681e-006
-3.407445e-006
-3.844541e-006
-4.212370e-006
-4.488105e-006
-4.655774e-006
-4.707048e-006
-4.640954e-006
-4.462935e-006
-4.183650e-006
-3.817678e-006
-3.382207e-006
-2.895821e-006
-2.377535e-006
-1.846145e-006
-1.319808e-006
-8.157325e-007
-3.499428e-007
6.283355e-008
4.091435e-007
6.767311e-007
8.545678e-007
9.331277e-007
9.049458e-007
7.654061e-007
5.136732e-007
1.537090e-007
-3.046757e-007
-8.448692e-007
-1.442899e-006
-2.067643e-006
-2.682108e-006
-3.245830e-006
-3.718271e-006
-4.062988e-006
-4.252230e-006
-4.271287e-006
-4.121583e-006
-3.821418e-006
-3.403744e-006
-2.911254e-006
-2.389859e-006
-1.882006e-006
-1.421233e-006
-1.028954e-006
-7.139340e-007
-4.742605e-007
-3.008847e-007
-1.814316e-007
-1.031470e-007
-5.455958e-008
-2.614942e-008
-1.056009e-008
-2.619034e-009
9.107246e-010
1.918655e-009
1.638996e-009
1.041541e-009
7.674398e-010
9.058817e-010
1.057306e-009
7.866615e-010
9.379440e-011
-5.557380e-010
-6.767539e-010
-2.403885e-010
3.001819e-010
4.559401e-010
1.660707e-010
-1.822146e-010
-1.698205e-009
-1.785011e-010
1.216981e-009
1.350032e-009
3.245593e-010
-7.636782e-010
-8.750780e-010
7.609132e-011
1.253651e-009
1.764135e-009
1.499134e-009
1.162296e-009
1.480349e-009
2.330050e-009
2.480434e-009
-6.627166e-011
-7.791107e-009
-2.401656e-008
-5.383890e-008
-1.050313e-007
-1.883703e-007
-3.172599e-007
-5.067331e-007
-7.716731e-007
-1.123839e-006
-1.567560e-006
-2.094837e-006
-2.681428e-006
-3.285610e-006
-3.850592e-006
-4.310332e-006
-4.597590e-006
-4.652530e-006
-4.430152e-006
-3.905176e-006
-3.073619e-006
-1.951235e-006
-5.697513e-007
1.027797e-006
2.791614e-006
4.669034e-006
6.607604e-006
8.557304e-006
1.047190e-005
1.230955e-005
1.403282e-005
1.560843e-005
1.700681e-005
1.820143e-005
1.916812e-005
1.988438e-005
2.032909e-005
2.048256e-005
2.032720e-005
1.984874e-005
1.903796e-005
1.789310e-005
1.642269e-005
1.464869e-005
1.260954e-005
1.036237e-005
7.983612e-006
5.567360e-006
3.220788e-006
1.056260e-006
-8.197155e-007
-2.319497e-006
-3.386914e-006
-4.006436e-006
-4.206154e-006
-4.053142e-006
-3.641681e-006
-3.076848e-006
-2.457344e-006
-1.861799e-006
-1.341589e-006
-9.209258e-007
-6.024628e-007
-3.752056e-007
-2.218078e-007
-1.237430e-007
-6.432377e-008
-3.018068e-008
-1.169106e-008
-2.577189e-009
1.058661e-009
1.763489e-009
1.335770e-009
9.040365e-010
8.357131e-010
8.973777e-010
7.234895e-010
2.541120e-010
-2.123616e-010
-3.416607e-010
-1.029889e-010
2.133099e-010
2.935228e-010
9.918726e-011
-1.254181e-010
-1.490181e-009
-6.319824e-010
2.768165e-010
6.451316e-010
4.453368e-010
1.554575e-010
2.860320e-010
8.955820e-010
1.549129e-009
1.779654e-009
1.599328e-009
1.489865e-009
1.753225e-009
1.700965e-009
-7.310629e-010
-8.887347e-009
-2.738353e-008
-6.277711e-008
-1.248681e-007
-2.278752e-007
-3.905696e-007
-6.347687e-007