# vtk DataFile Version 3.0
vtk output
ASCII
DATASET STRUCTURED_POINTS
DIMENSIONS 100 100 1
SPACING 1 1 1
ORIGIN 0 0 0
POINT_DATA 10000
SCALARS SFBox_profile double
LOOKUP_TABLE default 
0.000000e+000
0.000000e+000
0.000000e+000
0.000000e+000
0.000000e+000
0.000000e+000
0.000000e+000
0.000000e+000
0.000000e+000
0.000000e+000
0.000000e+000
0.000000e+000
0.000000e+000
0.000000e+000
0.000000e+000
0.000000e+000
0.000000e+000
0.000000e+000
0.000000e+000
0.000000e+000
0.000000e+000
0.000000e+000
0.000000e+000
0.000000e+000
0.000000e+000
0.000000e+000
0.000000e+000
0.000000e+000
0.000000e+000
0.000000e+000
0.000000e+000
0.000000e+000
0.000000e+000
0.000000e+000
0.000000e+000
0.000000e+000
0.000000e+000
0.000000e+000
0.000000e+000
0.000000e+000
0.000000e+000
0.000000e+000
0.000000e+000
0.000000e+000
0.000000e+000
0.000000e+000
0.000000e+000
0.000000e+000
0.000000e+000
0.000000e+000
0.000000e+000
0.000000e+000
0.000000e+000
0.000000e+000
0.000000e+000
0.000000e+000
0.000000e+000
0.000000e+000
0.000000e+000
0.000000e+000
0.000000e+000
0.000000e+000
0.000000e+000
0.000000e+000
0.000000e+000
0.000000e+000
0.000000e+000
0.000000e+000
0.000000e+000
0.000000e+000
0.000000e+000
0.000000e+000
0.000000e+000
0.000000e+000
0.000000e+000
0.000000e+000
0.000000e+000
0.000000e+000
0.000000e+000
0.000000e+000
0.000000e+000
0.000000e+000
0.000000e+000
0.000000e+000
0.000000e+000
0.000000e+000
0.000000e+000
0.000000e+000
0.000000e+000
0.000000e+000
0.000000e+000
0.000000e+000
0.000000e+000
0.000000e+000
0.000000e+000
0.000000e+000
0.000000e+000
0.000000e+000
0.000000e+000
0.000000e+000
-1.805948e-011
-5.853731e-011
-1.142096e-010
-1.349406e-010
-6.354755e-011
1.150811e-010
3.289830e-010
4.335708e-010
3.023117e-010
-6.177173e-011
-4.881347e-010
-7.264721e-010
-6.122514e-010
-1.875261e-010
3.219132e-010
6.603718e-010
7.072586e-010
5.263614e-010
2.740678e-010
6.048783e-011
-1.132775e-010
-3.016693e-010
-5.167131e-010
-6.902950e-010
-7.302574e-010
-6.065284e-010
-3.783879e-010
-1.400467e-010
5.547822e-011
2.198139e-010
3.872348e-010
5.610117e-010
7.049308e-010
7.813636e-010
7.886520e-010
7.584686e-010
7.217335e-010
6.830411e-010
6.277430e-010
5.473129e-010
4.523311e-010
3.619020e-010
2.858488e-010
2.202073e-010
1.575133e-010
9.708469e-011
4.449413e-011
4.415939e-012
-2.291750e-011
-3.918031e-011
-4.522933e-011
-4.197616e-011
-3.141244e-011
-1.403496e-011
1.394510e-011
5.745774e-011
1.151696e-010
1.777838e-010
2.370950e-010
2.962104e-010
3.663367e-010
4.503409e-010
5.319658e-010
5.868163e-010
6.058000e-010
6.030863e-010
5.952392e-010
5.733182e-010
5.034118e-010
3.616939e-010
1.676893e-010
-2.470151e-011
-1.737757e-010
-2.838183e-010
-3.850536e-010
-4.787596e-010
-5.114140e-010
-4.163697e-010
-1.878041e-010
9.043461e-011
2.983849e-010
3.691528e-010
3.280019e-010
2.457100e-010
1.588502e-010
4.325125e-011
-1.307636e-010
-3.226638e-010
-4.152729e-010
-3.023141e-010
1.731554e-012
3.345819e-010
4.825728e-010
3.349381e-010
-2.425081e-011
-3.628664e-010
-4.572016e-010
-2.465119e-010
1.243579e-010
4.036520e-010
-8.942619e-011
-7.785912e-012
8.073816e-011
9.960959e-011
3.273618e-011
-6.548091e-011
-1.174871e-010
-8.581201e-011
5.728769e-013
7.637510e-011
9.697890e-011
7.058304e-011
3.867485e-011
2.742318e-011
2.000371e-011
-2.168925e-011
-1.079413e-010
-1.962616e-010
-2.198218e-010
-1.451094e-010
-3.688029e-012
1.330806e-010
2.119497e-010
2.330772e-010
2.323808e-010
2.345384e-010
2.269622e-010
1.787272e-010
7.966366e-011
-4.394384e-011
-1.520630e-010
-2.253069e-010
-2.748087e-010
-3.210591e-010
-3.682767e-010
-4.016714e-010
-4.065966e-010
-3.854125e-010
-3.541878e-010
-3.259633e-010
-3.005739e-010
-2.703274e-010
-2.320278e-010
-1.910823e-010
-1.552561e-010
-1.274493e-010
-1.054291e-010
-8.653206e-011
-7.056865e-011
-5.874381e-011
-5.205049e-011
-5.157858e-011
-5.872040e-011
-7.323914e-011
-9.173983e-011
-1.103515e-010
-1.297329e-010
-1.553976e-010
-1.906907e-010
-2.299376e-010
-2.615747e-010
-2.797847e-010
-2.909466e-010
-3.049750e-010
-3.198227e-010
-3.183751e-010
-2.846144e-010
-2.223105e-010
-1.533918e-010
-9.518864e-011
-4.201006e-011
2.548103e-011
1.110488e-010
1.873672e-010
2.156210e-010
1.824953e-010
1.147463e-010
5.380764e-011
1.667596e-011
-1.442981e-011
-6.215126e-011
-1.174331e-010
-1.390388e-010
-9.370904e-011
3.354176e-012
9.138689e-011
1.116920e-010
5.675983e-011
-2.433282e-011
-6.823077e-011
-4.837227e-011
8.738960e-012
5.150854e-011
4.695902e-011
3.257313e-012
-4.260588e-011
-5.617612e-011
-2.950076e-011
1.709930e-011
5.164383e-011
-1.218955e-010
3.669419e-011
2.239246e-010
2.807845e-010
1.236983e-010
-1.895416e-010
-4.781495e-010
-5.423420e-010
-2.954157e-010
1.644558e-010
6.002114e-010
7.767296e-010
6.021401e-010
1.726877e-010
-3.032532e-010
-6.369548e-010
-7.491738e-010
-6.677137e-010
-4.623763e-010
-1.875731e-010
1.247289e-010
4.378675e-010
6.947390e-010
8.363763e-010
8.352533e-010
7.084302e-010
4.993414e-010
2.489909e-010
-1.701868e-011
-2.811313e-010
-5.230212e-010
-7.205847e-010
-8.601007e-010
-9.419787e-010
-9.754934e-010
-9.694063e-010
-9.285817e-010
-8.578337e-010
-7.657952e-010
-6.632901e-010
-5.585430e-010
-4.551082e-010
-3.543163e-010
-2.586185e-010
-1.720303e-010
-9.798410e-011
-3.758962e-011
9.970345e-012
4.580176e-011
7.006095e-011
8.178853e-011
7.965608e-011
6.317222e-011
3.346483e-011
-7.433979e-012
-5.856688e-011
-1.211063e-010
-1.965617e-010
-2.834882e-010
-3.765538e-010
-4.695801e-010
-5.590283e-010
-6.430879e-010
-7.167635e-010
-7.691457e-010
-7.872977e-010
-7.630984e-010
-6.951562e-010
-5.840629e-010
-4.286375e-010
-2.306583e-010
-4.442992e-012
2.207221e-010
4.107551e-010
5.400693e-010
5.942270e-010
5.620603e-010
4.330564e-010
2.116987e-010
-6.226537e-011
-3.135704e-010
-4.627465e-010
-4.685418e-010
-3.463891e-010
-1.493873e-010
6.556848e-011
2.529758e-010
3.689690e-010
3.648649e-010
2.121809e-010
-5.226064e-011
-3.100959e-010
-4.127385e-010
-2.808539e-010
2.194294e-011
3.105784e-010
3.956891e-010
2.175362e-010
-1.044349e-010
-3.495970e-010
-6.964538e-012
3.468470e-011
1.002077e-010
1.421383e-010
9.401527e-011
-7.289865e-011
-2.910661e-010
-4.083009e-010
-2.906520e-010
5.373615e-011
4.419898e-010
6.257043e-010
4.705836e-010
6.254991e-011
-3.520534e-010
-5.464375e-010
-4.658684e-010
-2.332294e-010
-2.025245e-011
9.036544e-011
1.352856e-010
1.890852e-010
2.688177e-010
3.188955e-010
2.777021e-010
1.464676e-010
-9.965567e-012
-1.230031e-010
-1.741938e-010
-1.929546e-010
-2.117948e-010
-2.318358e-010
-2.303021e-010
-1.925901e-010
-1.300460e-010
-6.752832e-011
-1.959571e-011
1.796767e-011
5.626426e-011
9.822354e-011
1.367350e-010
1.644675e-010
1.818129e-010
1.947479e-010
2.073646e-010
2.185499e-010
2.254228e-010
2.278885e-010
2.286487e-010
2.296123e-010
2.299342e-010
2.280361e-010
2.243881e-010
2.209044e-010
2.176369e-010
2.115436e-010
1.997315e-010
1.832696e-010
1.658774e-010
1.480080e-010
1.239170e-010
8.717954e-011
3.945420e-011
-8.930377e-012
-4.964729e-011
-8.634324e-011
-1.295251e-010
-1.790117e-010
-2.146887e-010
-2.109927e-010
-1.631060e-010
-9.460091e-011
-3.341039e-011
1.913008e-011
8.751725e-011
1.837569e-010
2.727034e-010
2.873247e-010
1.892044e-010
1.493916e-011
-1.448947e-010
-2.197046e-010
-2.124310e-010
-1.771009e-010
-1.456577e-010
-8.733340e-011
4.773206e-011
2.420417e-010
3.797098e-010
3.240258e-010
4.794878e-011
-3.038128e-010
-4.952459e-010
-3.731711e-010
2.536018e-012
3.841576e-010
5.073351e-010
2.828048e-010
-1.350494e-010
-4.551235e-010
2.254106e-010
1.099657e-011
-2.154086e-010
-2.524747e-010
-6.857022e-011
1.825251e-010
3.011573e-010
2.078943e-010
-6.647568e-012
-1.801930e-010
-2.238786e-010
-1.780868e-010
-1.370100e-010
-1.299216e-010
-8.632521e-011
7.759796e-011
3.419769e-010
5.622928e-010
5.764655e-010
3.421010e-010
-2.654256e-011
-3.544915e-010
-5.399613e-010
-6.027477e-010
-6.173610e-010
-6.148924e-010
-5.556395e-010
-3.883666e-010
-1.209479e-010
1.747475e-010
4.225877e-010
5.985805e-010
7.289507e-010
8.429056e-010
9.368460e-010
9.841697e-010
9.706002e-010
9.118865e-010
8.377656e-010
7.651795e-010
6.906869e-010
6.054339e-010
5.113108e-010
4.205654e-010
3.433577e-010
2.800683e-010
2.258430e-010
1.790791e-010
1.429538e-010
1.201635e-010
1.096308e-010
1.095559e-010
1.213455e-010
1.477563e-010
1.875332e-010
2.350122e-010
2.869176e-010
3.474651e-010
4.228347e-010
5.096629e-010
5.925640e-010
6.569041e-010
7.029598e-010
7.419917e-010
7.750304e-010
7.794857e-010
7.245985e-010
6.033341e-010
4.438734e-010
2.826472e-010
1.268681e-010
-4.692894e-011
-2.497510e-010
-4.397835e-010
-5.384120e-010
-4.968665e-010
-3.458457e-010
-1.708143e-010
-3.453464e-011
7.019853e-011
1.843766e-010
3.037841e-010
3.519611e-010
2.484904e-010
9.265256e-012
-2.308219e-010
-3.124766e-010
-1.853724e-010
4.364702e-011
1.960596e-010
1.667193e-010
2.448774e-012
-1.480798e-010
-1.617976e-010
-3.572168e-011
1.223122e-010
1.866086e-010
1.096106e-010
-4.915130e-011
-1.728299e-010
3.770355e-010
1.264847e-011
-4.028022e-010
-5.240897e-010
-2.300634e-010
2.907109e-010
6.796752e-010
6.659365e-010
2.513356e-010
-3.075075e-010
-6.921358e-010
-7.317476e-010
-4.744968e-010
-9.488681e-011
2.531331e-010
5.061905e-010
6.531348e-010
6.686603e-010
5.106851e-010
1.833116e-010
-2.177564e-010
-5.452622e-010
-6.981258e-010
-6.822623e-010
-5.768898e-010
-4.472612e-010
-2.955246e-010
-9.203443e-011
1.601465e-010
4.047284e-010
5.760719e-010
6.547581e-010
6.742776e-010
6.773172e-010
6.738869e-010
6.438901e-010
5.725611e-010
4.738803e-010
3.779882e-010
3.022941e-010
2.405050e-010
1.780127e-010
1.116118e-010
5.128688e-011
6.465138e-012
-2.402630e-011
-4.776931e-011
-6.883333e-011
-8.532366e-011
-9.509789e-011
-9.960010e-011
-1.005410e-010
-9.579602e-011
-8.206416e-011
-6.091208e-011
-3.812294e-011
-1.490877e-011
1.731390e-011
6.877280e-011
1.375312e-010
2.084289e-010
2.696456e-010
3.278315e-010
3.999986e-010
4.873769e-010
5.623657e-010
5.890229e-010
5.575238e-010
4.914678e-010
4.154209e-010
3.195799e-010
1.680997e-010
-5.096484e-011
-2.894426e-010
-4.635846e-010
-5.195505e-010
-4.705233e-010
-3.654471e-010
-2.279436e-010
-4.040813e-011
2.038704e-010
4.416622e-010
5.526069e-010
4.487305e-010
1.591143e-010
-1.748865e-010
-3.934701e-010
-4.181813e-010
-2.783061e-010
-6.235408e-011
1.428432e-010
2.749687e-010
2.908607e-010
1.741137e-010
-3.538768e-011
-2.311597e-010
-2.898203e-010
-1.612625e-010
7.682003e-011
2.612193e-010
2.308055e-010
3.408242e-011
-2.155190e-010
-3.338596e-010
-2.111783e-010
1.014352e-010
4.030807e-010
4.708167e-010
2.279435e-010
-1.800305e-010
-4.794380e-010
-4.710942e-010
-1.788309e-010
1.796614e-010
3.701804e-010
3.116187e-010
1.008840e-010
-1.027509e-010
-2.081761e-010
-2.237743e-010
-1.924185e-010
-1.247028e-010
-2.609979e-012
1.686062e-010
3.355481e-010
4.325655e-010
4.356734e-010
3.727780e-010
2.833556e-010
1.784082e-010
4.471674e-011
-1.193659e-010
-2.847002e-010
-4.118476e-010
-4.848659e-010
-5.186943e-010
-5.348758e-010
-5.368983e-010
-5.123480e-010
-4.543820e-010
-3.741890e-010
-2.911876e-010
-2.156506e-010
-1.445988e-010
-7.264040e-011
-1.971611e-012
5.963573e-011
1.071328e-010
1.409345e-010
1.624186e-010
1.705772e-010
1.645608e-010
1.466432e-010
1.193779e-010
8.066656e-011
2.564322e-011
-4.472595e-011
-1.198918e-010
-1.884530e-010
-2.500200e-010
-3.135364e-010
-3.808966e-010
-4.355969e-010
-4.536840e-010
-4.272358e-010
-3.719333e-010
-3.069702e-010
-2.306558e-010
-1.240753e-010
1.766840e-011
1.638528e-010
2.661251e-010
2.992373e-010
2.778933e-010
2.302193e-010
1.620528e-010
5.924066e-011
-7.254086e-011
-1.824578e-010
-2.045927e-010
-1.189645e-010
2.281622e-011
1.382577e-010
1.784068e-010
1.488420e-010
7.484704e-011
-3.406746e-011
-1.688934e-010
-2.770179e-010
-2.635975e-010
-7.129982e-011
2.277637e-010
4.376401e-010
3.748344e-010
3.527172e-011
-3.632297e-010
-5.263657e-010
-3.143586e-010
1.323317e-010
4.875021e-010
-2.132492e-010
1.834904e-011
2.458010e-010
2.509507e-010
2.847712e-011
-2.284489e-010
-3.183620e-010
-2.039756e-010
-9.890275e-012
1.270085e-010
1.853571e-010
2.366332e-010
3.144706e-010
3.357037e-010
1.728742e-010
-1.922329e-010
-6.002124e-010
-8.148089e-010
-7.042385e-010
-3.339692e-010
1.059962e-010
4.547757e-010
6.682076e-010
7.819603e-010
8.220440e-010
7.682011e-010
5.946840e-010
3.231952e-010
2.182494e-011
-2.437732e-010
-4.484393e-010
-5.987730e-010
-6.998534e-010
-7.411057e-010
-7.123784e-010
-6.228599e-010
-4.972952e-010
-3.561873e-010
-2.050802e-010
-4.293143e-011
1.248101e-010
2.853440e-010
4.284982e-010
5.532299e-010
6.634665e-010
7.604755e-010
8.413035e-010
9.029391e-010
9.450975e-010
9.687981e-010
9.746135e-010
9.634403e-010
9.370426e-010
8.956333e-010
8.357518e-010
7.533768e-010
6.499248e-010
5.326544e-010
4.069588e-010
2.700564e-010
1.162918e-010
-5.039138e-011
-2.127985e-010
-3.523407e-010
-4.623959e-010
-5.449845e-010
-5.938526e-010
-5.875153e-010
-5.059508e-010
-3.534879e-010
-1.588489e-010
4.922981e-011
2.587713e-010
4.588239e-010
6.109764e-010
6.531406e-010
5.467409e-010
3.207911e-010
5.902505e-011
-1.622919e-010
-3.181772e-010
-4.121418e-010
-4.221200e-010
-2.971743e-010
-3.001925e-011
2.730030e-010
4.273563e-010
3.132310e-010
7.756229e-013
-2.776346e-010
-3.082825e-010
-7.800574e-011
2.095544e-010
3.052397e-010
1.260686e-010
-1.758468e-010
-3.439308e-010
-2.329408e-010
7.154030e-011
3.252293e-010
-6.437311e-010
-5.681094e-011
5.897389e-010
7.527631e-010
3.048346e-010
-3.960731e-010
-8.234247e-010
-6.980816e-010
-1.630475e-010
3.900386e-010
6.500227e-010
5.777004e-010
3.344432e-010
7.756156e-011
-1.545842e-010
-3.820227e-010
-5.631026e-010
-5.802223e-010
-3.562050e-010
3.431994e-011
3.939638e-010
5.534474e-010
4.947246e-010
3.311799e-010
1.822486e-010
7.870354e-011
-1.838884e-011
-1.322859e-010
-2.249686e-010
-2.340342e-010
-1.373330e-010
2.982161e-011
2.151685e-010
3.944751e-010
5.745897e-010
7.636264e-010
9.501728e-010
1.112548e-009
1.240156e-009
1.339757e-009
1.423085e-009
1.493938e-009
1.548573e-009
1.584687e-009
1.606240e-009
1.619932e-009
1.629545e-009
1.634643e-009
1.633458e-009
1.625963e-009
1.614535e-009
1.602225e-009
1.589986e-009
1.575171e-009
1.553444e-009
1.522999e-009
1.486077e-009
1.444570e-009
1.394203e-009
1.325704e-009
1.233557e-009
1.121609e-009
9.965454e-010
8.564318e-010
6.914911e-010
5.006430e-010
3.041819e-010
1.325847e-010
7.353272e-013
-9.968856e-011
-1.753602e-010
-2.038392e-010
-1.459187e-010
4.755777e-012
1.906256e-010
3.236341e-010
3.560451e-010
3.105032e-010
2.326684e-010
1.241315e-010
-5.423811e-011
-2.993445e-010
-5.017240e-010
-4.996094e-010
-2.263415e-010
1.915861e-010
5.010845e-010
5.119875e-010
2.428072e-010
-1.055615e-010
-3.151935e-010
-3.034622e-010
-1.437397e-010
3.024096e-011
1.290135e-010
1.394337e-010
9.192959e-011
2.103425e-011
-4.649214e-011
-8.799278e-011
-6.436594e-010
-1.218954e-010
4.802587e-010
6.870493e-010
3.503685e-010
-2.513224e-010
-6.455952e-010
-5.428736e-010
-5.512785e-011
4.165742e-010
5.209559e-010
2.284038e-010
-1.860893e-010
-4.044484e-010
-3.173899e-010
-5.362438e-011
1.924279e-010
3.313948e-010
3.895662e-010
3.972926e-010
3.160570e-010
9.176178e-011
-2.424973e-010
-5.496273e-010
-6.875720e-010
-6.183842e-010
-4.138914e-010
-1.640220e-010
1.045872e-010
4.192650e-010
7.911917e-010
1.175181e-009
1.501523e-009
1.734932e-009
1.892760e-009
2.010460e-009
2.101149e-009
2.152460e-009
2.154019e-009
2.117244e-009
2.066610e-009
2.017956e-009
1.970193e-009
1.916112e-009
1.855930e-009
1.798332e-009
1.751060e-009
1.713982e-009
1.681999e-009
1.652815e-009
1.630110e-009
1.618969e-009
1.619554e-009
1.626832e-009
1.637001e-009
1.652723e-009
1.679622e-009
1.716998e-009
1.754497e-009
1.780950e-009
1.795583e-009
1.805467e-009
1.808688e-009
1.783823e-009
1.703621e-009
1.561252e-009
1.376575e-009
1.169867e-009
9.335074e-010
6.426498e-010
3.012741e-010
-3.056828e-011
-2.706597e-010
-3.810198e-010
-3.919227e-010
-3.525479e-010
-2.674437e-010
-1.028296e-010
1.355512e-010
3.486135e-010
3.983394e-010
2.338350e-010
-4.143268e-011
-2.424354e-010
-2.514079e-010
-9.951558e-011
8.643620e-011
1.992381e-010
2.087759e-010
1.313682e-010
-1.349896e-011
-1.902971e-010
-3.109076e-010
-2.627204e-010
-1.607845e-011
2.950861e-010
4.375698e-010
2.690621e-010
-1.138124e-010
-4.269973e-010
-7.556384e-011
-8.067014e-011
-5.173582e-011
1.894539e-011
8.095070e-011
8.740054e-011
6.416773e-011
8.248708e-011
1.511287e-010
1.634963e-010
-6.081219e-012
-3.364883e-010
-6.118437e-010
-5.781039e-010
-1.738608e-010
3.908972e-010
7.930305e-010
8.425869e-010
5.905061e-010
2.253100e-010
-1.036015e-010
-3.564824e-010
-5.364462e-010
-6.066620e-010
-5.022466e-010
-2.112614e-010
1.870766e-010
5.796288e-010
9.064781e-010
1.181894e-009
1.437448e-009
1.664002e-009
1.818691e-009
1.878271e-009
1.869116e-009
1.840768e-009
1.819300e-009
1.794149e-009
1.745999e-009
1.676538e-009
1.606702e-009
1.552073e-009
1.508165e-009
1.460677e-009
1.404481e-009
1.348301e-009
1.302649e-009
1.268191e-009
1.238121e-009
1.209376e-009
1.187567e-009
1.179812e-009
1.185375e-009
1.196663e-009
1.209613e-009
1.229716e-009
1.264439e-009
1.310721e-009
1.354838e-009
1.387858e-009
1.418063e-009
1.461490e-009
1.518257e-009
1.564305e-009
1.573366e-009
1.545026e-009
1.501054e-009
1.448579e-009
1.354822e-009
1.172155e-009
8.921304e-010
5.649929e-010
2.567613e-010
-6.797498e-012
-2.385053e-010
-4.300751e-010
-5.141831e-010
-4.122870e-010
-1.285884e-010
2.167493e-010
4.634101e-010
5.227213e-010
4.141512e-010
2.075722e-010
-3.970949e-011
-2.745147e-010
-4.062610e-010
-3.333150e-010
-5.286676e-011
2.667309e-010
3.777468e-010
1.692354e-010
-1.969819e-010
-3.964113e-010
-2.299916e-010
1.748500e-010
4.582693e-010
3.502288e-010
-7.400267e-011
-4.502605e-010
7.074540e-010
6.387487e-011
-6.194231e-010
-7.600212e-010
-2.836263e-010
3.796137e-010
7.210730e-010
5.687592e-010
1.373021e-010
-2.485930e-010
-4.302246e-010
-4.432007e-010
-3.579392e-010
-1.720758e-010
1.247283e-010
4.335449e-010
5.635623e-010
3.977278e-010
2.728623e-011
-3.032548e-010
-3.924689e-010
-2.223625e-010
8.124341e-011
3.951023e-010
6.858367e-010
9.706480e-010
1.235531e-009
1.422323e-009
1.489975e-009
1.462277e-009
1.401883e-009
1.347366e-009
1.289667e-009
1.206999e-009
1.105550e-009
1.015163e-009
9.516405e-010
8.965499e-010
8.177519e-010
7.022605e-010
5.626384e-010
4.149940e-010
2.598207e-010
8.782935e-011
-1.007712e-010
-2.894715e-010
-4.580591e-010
-5.970233e-010
-7.064884e-010
-7.839317e-010
-8.186918e-010
-8.008241e-010
-7.321767e-010
-6.245022e-010
-4.868750e-010
-3.197081e-010
-1.246297e-010
8.259606e-011
2.758174e-010
4.383673e-010
5.753164e-010
7.005289e-010
8.130290e-010
8.945389e-010
9.354492e-010
9.569940e-010
9.960250e-010
1.064343e-009
1.131561e-009
1.156214e-009
1.128552e-009
1.069461e-009
9.851988e-010
8.405066e-010
5.967311e-010
2.776511e-010
-2.024729e-011
-1.968738e-010
-2.236621e-010
-1.419447e-010
1.011218e-012
1.838125e-010
3.647721e-010
4.343188e-010
2.725739e-010
-1.072562e-010
-4.895775e-010
-5.870234e-010
-2.907815e-010
1.981215e-010
5.116504e-010
4.235925e-010
4.196340e-011
-2.959642e-010
-3.263704e-010
-7.805255e-011
1.838628e-010
2.192024e-010
2.775276e-011
-1.734168e-010
1.082897e-009
1.805859e-010
-7.938866e-010
-1.027925e-009
-4.058526e-010
4.652493e-010
8.454045e-010
4.985231e-010
-1.786109e-010
-5.838320e-010
-4.442917e-010
2.428515e-011
4.037867e-010
4.597226e-010
2.608712e-010
5.059755e-013
-2.160945e-010
-3.909067e-010
-5.040422e-010
-4.476214e-010
-1.223214e-010
4.253204e-010
1.001536e-009
1.412881e-009
1.604791e-009
1.654976e-009
1.655800e-009
1.628438e-009
1.546131e-009
1.406596e-009
1.252554e-009
1.123176e-009
1.006668e-009
8.515544e-010
6.148203e-010
2.860027e-010
-1.326913e-010
-6.531991e-010
-1.297373e-009
-2.070032e-009
-2.945908e-009
-3.885159e-009
-4.855182e-009
-5.832690e-009
-6.789000e-009
-7.682148e-009
-8.467109e-009
-9.110349e-009
-9.590896e-009
-9.889882e-009
-9.985832e-009
-9.863770e-009
-9.526233e-009
-8.991235e-009
-8.280339e-009
-7.414257e-009
-6.423204e-009
-5.357133e-009
-4.277808e-009
-3.237518e-009
-2.268750e-009
-1.396579e-009
-6.543265e-010
-7.547697e-011
3.339495e-010
6.075103e-010
7.940883e-010
9.229659e-010
1.001008e-009
1.043289e-009
1.089437e-009
1.171566e-009
1.266912e-009
1.300862e-009
1.210594e-009
9.998976e-010
7.202778e-010
4.076538e-010
6.717194e-011
-2.643539e-010
-4.686222e-010
-4.124029e-010
-9.701397e-011
2.748636e-010
4.284883e-010
2.494035e-010
-1.068626e-010
-3.475657e-010
-2.958754e-010
-2.508361e-011
2.358223e-010
3.086861e-010
1.857233e-010
-1.492371e-011
-1.690906e-010
-2.187510e-010
-1.664608e-010
-4.560482e-011
9.180588e-011
1.833616e-010
6.754431e-010
1.382351e-010
-4.345677e-010
-5.528729e-010
-1.641699e-010
3.200459e-010
4.148837e-010
1.760990e-011
-4.904590e-010
-5.963148e-010
-1.365275e-010
5.448793e-010
9.056180e-010
6.783908e-010
6.579639e-011
-4.878312e-010
-6.804562e-010
-5.219407e-010
-1.937625e-010
1.766810e-010
5.770684e-010
1.000529e-009
1.356978e-009
1.532463e-009
1.514637e-009
1.419125e-009
1.379447e-009
1.425653e-009
1.477242e-009
1.433579e-009
1.243956e-009
8.889076e-010
3.212126e-010
-5.479236e-010
-1.802484e-009
-3.474435e-009
-5.545075e-009
-7.978673e-009
-1.074025e-008
-1.378183e-008
-1.702528e-008
-2.036879e-008
-2.370901e-008
-2.695257e-008
-3.000937e-008
-3.278436e-008
-3.518297e-008
-3.712367e-008
-3.854224e-008
-3.938627e-008
-3.961276e-008
-3.919628e-008
-3.813828e-008
-3.646609e-008
-3.422490e-008
-3.147678e-008
-2.830971e-008
-2.484217e-008
-2.121047e-008
-1.754853e-008
-1.398046e-008
-1.062849e-008
-7.613846e-009
-5.034493e-009
-2.937039e-009
-1.315677e-009
-1.405631e-010
6.217369e-010
1.024286e-009
1.166861e-009
1.181664e-009
1.172193e-009
1.167339e-009
1.146103e-009
1.101974e-009
1.059460e-009
1.015381e-009
8.896182e-010
5.821389e-010
1.055054e-010
-3.573904e-010
-5.679579e-010
-4.294416e-010
-7.203684e-011
2.596334e-010
3.967742e-010
3.308901e-010
1.497014e-010
-5.714644e-011
-2.159942e-010
-2.472482e-010
-1.034702e-010
1.421394e-010
2.919161e-010
1.808352e-010
-1.344950e-010
-3.786285e-010
-3.016641e-010
6.077262e-011
3.933021e-010
-2.872404e-010
-4.055119e-011
2.307595e-010
3.237260e-010
2.095259e-010
-8.240496e-012
-2.245201e-010
-3.769745e-010
-3.948395e-010
-1.976677e-010
1.911934e-010
5.577787e-010
6.127420e-010
2.583256e-010
-2.649478e-010
-5.446165e-010
-3.432741e-010
2.111766e-010
7.708408e-010
1.080720e-009
1.143544e-009
1.117092e-009
1.114394e-009
1.133600e-009
1.143975e-009
1.167793e-009
1.237399e-009
1.287323e-009
1.123435e-009
5.085117e-010
-7.352617e-010
-2.709921e-009
-5.498318e-009
-9.200315e-009
-1.389921e-008
-1.960319e-008
-2.623060e-008
-3.364679e-008
-4.170256e-008
-5.023705e-008
-5.905988e-008
-6.794857e-008
-7.666930e-008
-8.499841e-008
-9.272623e-008
-9.965070e-008
-1.055777e-007
-1.103313e-007
-1.137624e-007
-1.157515e-007
-1.162110e-007
-1.150915e-007
-1.123898e-007
-1.081504e-007
-1.024647e-007
-9.547518e-008
-8.738133e-008
-7.843582e-008
-6.892554e-008
-5.915179e-008
-4.942323e-008
-4.005321e-008
-3.133931e-008
-2.352348e-008
-1.676294e-008
-1.113813e-008
-6.680529e-009
-3.376130e-009
-1.134580e-009
2.281297e-010
9.463895e-010
1.226648e-009
1.213313e-009
1.030428e-009
8.294433e-010
7.536421e-010
8.360667e-010
9.548644e-010
9.293102e-010
6.810799e-010
2.997672e-010
-4.626206e-011
-2.425855e-010
-2.666327e-010
-1.352679e-010
1.180832e-010
3.899102e-010
4.884478e-010
2.647510e-010
-1.939716e-010
-5.499343e-010
-4.828983e-010
-1.820171e-011
4.429141e-010
4.805385e-010
7.077482e-011
-3.756673e-010
-4.176585e-010
-2.909455e-011
3.769997e-010
-1.126459e-009
-1.825921e-010
7.966345e-010
9.827141e-010
3.500981e-010
-4.262862e-010
-6.854904e-010
-3.461017e-010
1.653774e-010
4.117068e-010
3.018589e-010
2.623893e-011
-2.151883e-010
-3.410506e-010
-3.094100e-010
-4.785764e-011
4.593503e-010
1.051773e-009
1.450891e-009
1.488172e-009
1.263815e-009
1.053774e-009
1.059339e-009
1.252618e-009
1.436437e-009
1.393489e-009
9.382326e-010
-1.539693e-010
-2.208277e-009
-5.601404e-009
-1.065144e-008
-1.756318e-008
-2.646174e-008
-3.743819e-008
-5.053345e-008
-6.567902e-008
-8.266853e-008
-1.011912e-007
-1.208862e-007
-1.413658e-007
-1.622051e-007
-1.829365e-007
-2.030712e-007
-2.221322e-007
-2.396715e-007
-2.552698e-007
-2.685335e-007
-2.791033e-007
-2.866689e-007
-2.909815e-007
-2.918622e-007
-2.892100e-007
-2.830091e-007
-2.733361e-007
-2.603704e-007
-2.444054e-007
-2.258520e-007
-2.052250e-007
-1.831160e-007
-1.601698e-007
-1.370690e-007
-1.145094e-007
-9.314615e-008
-7.352844e-008
-5.606025e-008
-4.100733e-008
-2.851648e-008
-1.860462e-008
-1.112798e-008
-5.791124e-009
-2.224969e-009
-7.753610e-011
9.659857e-010
1.234450e-009
1.097294e-009
8.922774e-010
8.082221e-010
8.496316e-010
9.242822e-010
9.533534e-010
8.933639e-010
6.967749e-010
3.311309e-010
-1.209963e-010
-4.264738e-010
-3.604657e-010
4.531786e-011
4.472851e-010
4.626015e-010
4.321617e-011
-4.412398e-010
-5.396804e-010
-1.600170e-010
3.362217e-010
4.914807e-010
1.999568e-010
-2.096866e-010
-3.298368e-010
-8.902484e-011
2.012819e-010
-1.253453e-009
-1.402141e-010
9.485390e-010
1.012656e-009
1.233659e-010
-7.526536e-010
-7.670658e-010
1.575624e-011
7.816913e-010
8.176941e-010
1.521430e-010
-5.841988e-010
-8.090670e-010
-4.481670e-010
1.652020e-010
6.944898e-010
1.035655e-009
1.234851e-009
1.323791e-009
1.311413e-009
1.280501e-009
1.376935e-009
1.636552e-009
1.827796e-009
1.483971e-009
7.622937e-011
-2.869443e-009
-7.809103e-009
-1.527157e-008
-2.585437e-008
-4.011073e-008
-5.844055e-008
-8.106926e-008
-1.080783e-007
-1.394032e-007
-1.747840e-007
-2.137318e-007
-2.555606e-007
-2.994619e-007
-3.445608e-007
-3.899325e-007
-4.346090e-007
-4.776091e-007
-5.179841e-007
-5.548512e-007
-5.874003e-007
-6.148902e-007
-6.366532e-007
-6.521123e-007
-6.608032e-007
-6.623894e-007
-6.566727e-007
-6.436045e-007
-6.233039e-007
-5.960838e-007
-5.624759e-007
-5.232378e-007
-4.793355e-007
-4.319119e-007
-3.822576e-007
-3.317761e-007
-2.819196e-007
-2.340836e-007
-1.894917e-007
-1.491211e-007
-1.136763e-007
-8.357582e-008
-5.892150e-008
-3.948217e-008
-2.475214e-008
-1.408358e-008
-6.808393e-009
-2.272471e-009
1.908168e-010
1.249751e-009
1.489058e-009
1.330374e-009
1.046485e-009
8.328565e-010
8.144756e-010
9.610045e-010
1.052236e-009
8.335948e-010
2.774460e-010
-3.212274e-010
-5.685950e-010
-3.313072e-010
1.298144e-010
4.002151e-010
2.881541e-010
-3.538620e-011
-2.468420e-010
-1.872784e-010
2.882385e-011
1.769651e-010
1.497298e-010
2.195239e-011
-6.808958e-011
-6.514790e-011
-2.544171e-011
-6.162924e-010
4.636516e-011
6.152789e-010
4.674512e-010
-2.393707e-010
-7.430539e-010
-4.748152e-010
3.464601e-010
9.278866e-010
6.981733e-010
-1.279034e-010
-7.731570e-010
-6.514547e-010
1.197477e-010
9.157358e-010
1.232036e-009
1.086374e-009
8.698688e-010
9.167979e-010
1.258852e-009
1.703946e-009
1.996755e-009
1.812605e-009
6.235121e-010
-2.353594e-009
-8.048657e-009
-1.740688e-008
-3.137811e-008
-5.098783e-008
-7.733220e-008
-1.114291e-007
-1.540221e-007
-2.054683e-007
-2.657288e-007
-3.343821e-007
-4.106106e-007
-4.931955e-007
-5.805797e-007
-6.709914e-007
-7.625661e-007
-8.534209e-007
-9.416960e-007
-1.025600e-006
-1.103463e-006
-1.173783e-006
-1.235225e-006
-1.286610e-006
-1.326904e-006
-1.355222e-006
-1.370850e-006
-1.373256e-006
-1.362105e-006
-1.337271e-006
-1.298874e-006
-1.247329e-006
-1.183397e-006
-1.108217e-006
-1.023315e-006
-9.305906e-007
-8.323027e-007
-7.310234e-007
-6.295268e-007
-5.306098e-007
-4.368903e-007
-3.506356e-007
-2.736322e-007
-2.070712e-007
-1.514539e-007
-1.065767e-007
-7.164829e-008
-4.550117e-008
-2.678944e-008
-1.410571e-008
-6.058860e-009
-1.381972e-009
9.543416e-010
1.726741e-009
1.568479e-009
1.070294e-009
7.199480e-010
7.196185e-010
9.091575e-010
9.526546e-010
6.620077e-010
1.613218e-010
-2.482974e-010
-3.587224e-010
-1.905495e-010
8.508493e-011
2.947478e-010
3.358891e-010
1.860016e-010
-7.958011e-011
-2.871832e-010
-2.670815e-010
-2.058442e-011
2.352540e-010
2.540038e-010
1.621510e-011
-2.325883e-010
3.243440e-010
1.835193e-010
-4.138159e-011
-2.634311e-010
-3.720083e-010
-2.671608e-010
4.455163e-011
3.720715e-010
4.326557e-010
1.196716e-010
-3.088508e-010
-3.920901e-010
9.889525e-011
8.865367e-010
1.406605e-009
1.344100e-009
9.423398e-010
7.612768e-010
1.129999e-009
1.819756e-009
2.169121e-009
1.400356e-009
-1.265832e-009
-6.778942e-009
-1.646302e-008
-3.202759e-008
-5.541897e-008
-8.868687e-008