# vtk DataFile Version 3.0
vtk output
ASCII
DATASET STRUCTURED_POINTS
DIMENSIONS 100 100 1
SPACING 1 1 1
ORIGIN 0 0 0
POINT_DATA 10000
SCALARS SFBox_profile double
LOOKUP_TABLE default 
0.000000e+000
0.000000e+000
0.000000e+000
0.000000e+000
0.000000e+000
0.000000e+000
0.000000e+000
0.000000e+000
0.000000e+000
0.000000e+000
0.000000e+000
0.000000e+000
0.000000e+000
0.000000e+000
0.000000e+000
0.000000e+000
0.000000e+000
0.000000e+000
0.000000e+000
0.000000e+000
0.000000e+000
0.000000e+000
0.000000e+000
0.000000e+000
0.000000e+000
0.000000e+000
0.000000e+000
0.000000e+000
0.000000e+000
0.000000e+000
0.000000e+000
0.000000e+000
0.000000e+000
0.000000e+000
0.000000e+000
0.000000e+000
0.000000e+000
0.000000e+000
0.000000e+000
0.000000e+000
0.000000e+000
0.000000e+000
0.000000e+000
0.000000e+000
0.000000e+000
0.000000e+000
0.000000e+000
0.000000e+000
0.000000e+000
0.000000e+000
0.000000e+000
0.000000e+000
0.000000e+000
0.000000e+000
0.000000e+000
0.000000e+000
0.000000e+000
0.000000e+000
0.000000e+000
0.000000e+000
0.000000e+000
0.000000e+000
0.000000e+000
0.000000e+000
0.000000e+000
0.000000e+000
0.000000e+000
0.000000e+000
0.000000e+000
0.000000e+000
0.000000e+000
0.000000e+000
0.000000e+000
0.000000e+000
0.000000e+000
0.000000e+000
0.000000e+000
0.000000e+000
0.000000e+000
0.000000e+000
0.000000e+000
0.000000e+000
0.000000e+000
0.000000e+000
0.000000e+000
0.000000e+000
0.000000e+000
0.000000e+000
0.000000e+000
0.000000e+000
0.000000e+000
0.000000e+000
0.000000e+000
0.000000e+000
0.000000e+000
0.000000e+000
0.000000e+000
0.000000e+000
0.000000e+000
0.000000e+000
2.640868e-008
1.745602e-008
3.984907e-009
-7.419891e-009
-1.157081e-008
-7.621659e-009
5.131408e-010
6.849008e-009
7.471745e-009
3.070982e-009
-2.157991e-009
-4.276420e-009
-2.712793e-009
-6.278863e-011
8.948497e-010
-1.554844e-010
-1.270486e-009
-7.197721e-010
1.114139e-009
2.348625e-009
1.792807e-009
1.778038e-010
-8.148378e-010
-4.353207e-010
4.919952e-010
7.090745e-010
-4.232572e-011
-9.140367e-010
-1.082353e-009
-6.429504e-010
-2.919409e-010
-3.752005e-010
-5.355595e-010
-2.732799e-010
4.202099e-010
1.142444e-009
1.638219e-009
2.038554e-009
2.537015e-009
3.048747e-009
3.337346e-009
3.372902e-009
3.374406e-009
3.488637e-009
3.590215e-009
3.487730e-009
3.219244e-009
3.005620e-009
2.943998e-009
2.895199e-009
2.717140e-009
2.486102e-009
2.377198e-009
2.384826e-009
2.300161e-009
1.988782e-009
1.577721e-009
1.289432e-009
1.155360e-009
9.986891e-010
6.920380e-010
3.279902e-010
8.779477e-011
1.363057e-011
-9.950402e-012
-7.829472e-011
-1.605821e-010
-1.870660e-010
-1.634478e-010
-1.428506e-010
-1.322216e-010
-1.043071e-010
-8.921808e-011
-1.597957e-010
-2.829788e-010
-2.633774e-010
6.143982e-011
5.719973e-010
9.124210e-010
8.444444e-010
4.993847e-010
1.921098e-010
7.171995e-012
-2.990645e-010
-8.961743e-010
-1.455044e-009
-1.308074e-009
-1.593663e-010
1.395121e-009
2.195609e-009
1.502869e-009
-2.739237e-010
-1.830811e-009
-2.014832e-009
-7.478348e-010
9.467958e-010
1.785679e-009
1.209100e-009
-2.514366e-010
-1.434167e-009
1.635644e-010
3.468286e-010
3.442738e-010
-5.203418e-011
-5.038391e-010
-4.345976e-010
2.486721e-010
8.806971e-010
6.605761e-010
-4.154910e-010
-1.379802e-009
-1.205346e-009
9.567130e-011
1.396700e-009
1.556128e-009
5.473441e-010
-5.811649e-010
-8.400872e-010
-2.740002e-010
2.413221e-010
5.521827e-011
-5.740862e-010
-8.773633e-010
-4.989016e-010
1.436273e-010
4.122161e-010
1.884232e-010
-6.909096e-011
5.986474e-011
4.632395e-010
6.902136e-010
5.162456e-010
1.559578e-010
-8.090283e-011
-1.833997e-010
-3.837017e-010
-7.931558e-010
-1.251344e-009
-1.559331e-009
-1.731496e-009
-1.919973e-009
-2.159246e-009
-2.316332e-009
-2.301379e-009
-2.209462e-009
-2.183833e-009
-2.212129e-009
-2.159938e-009
-1.986517e-009
-1.818055e-009
-1.768702e-009
-1.773123e-009
-1.676754e-009
-1.453817e-009
-1.240369e-009
-1.139024e-009
-1.076344e-009
-9.109654e-010
-6.332199e-010
-3.783432e-010
-2.470016e-010
-1.882103e-010
-9.261596e-011
5.298181e-011
1.623002e-010
1.785084e-010
1.417641e-010
1.168958e-010
1.093309e-010
9.056043e-011
7.018268e-011
8.406097e-011
1.150079e-010
8.609189e-011
-3.618908e-011
-1.735723e-010
-2.227575e-010
-1.953809e-010
-2.064305e-010
-2.984131e-010
-3.340231e-010
-1.373523e-010
2.561602e-010
5.594785e-010
4.999558e-010
1.144278e-010
-2.664829e-010
-3.424332e-010
-1.263789e-010
1.087397e-010
1.350906e-010
-1.646611e-011
-1.392852e-010
-9.557652e-011
5.742376e-011
1.639902e-010
1.409118e-010
3.234418e-011
-7.174831e-011
-1.245562e-010
-2.686560e-008
-1.724673e-008
-3.305739e-009
7.694178e-009
1.095075e-008
6.707154e-009
-6.036290e-010
-5.788522e-009
-6.276529e-009
-3.124027e-009
6.520336e-010
2.673612e-009
2.607376e-009
1.623514e-009
8.822902e-010
5.827085e-010
2.280489e-010
-5.024710e-010
-1.309333e-009
-1.630664e-009
-1.275172e-009
-6.036350e-010
-1.265123e-010
-2.232875e-011
-7.571303e-011
-6.815703e-013
2.705922e-010
6.023814e-010
8.479036e-010
9.582237e-010
9.425125e-010
8.046321e-010
5.403413e-010
1.526389e-010
-3.583574e-010
-9.939058e-010
-1.714669e-009
-2.416960e-009
-2.987751e-009
-3.387494e-009
-3.656188e-009
-3.838412e-009
-3.932872e-009
-3.926114e-009
-3.841189e-009
-3.718657e-009
-3.564481e-009
-3.357505e-009
-3.113572e-009
-2.903823e-009
-2.783046e-009
-2.719319e-009
-2.624549e-009
-2.449015e-009
-2.218083e-009
-1.974921e-009
-1.720181e-009
-1.428857e-009
-1.105503e-009
-7.908401e-010
-5.150392e-010
-2.721290e-010
-5.107116e-011
1.293656e-010
2.376194e-010
2.729537e-010
2.706875e-010
2.617055e-010
2.447928e-010
2.092540e-010
1.720752e-010
1.733580e-010
2.297300e-010
2.986933e-010
2.937946e-010
1.391103e-010
-1.763637e-010
-5.756870e-010
-9.158071e-010
-1.048873e-009
-8.909264e-010
-4.527464e-010
1.782283e-010
8.603183e-010
1.385109e-009
1.478704e-009
9.211606e-010
-2.167345e-010
-1.424465e-009
-1.945837e-009
-1.308491e-009
2.020219e-010
1.602873e-009
1.890932e-009
8.431000e-010
-7.480860e-010
-1.662831e-009
-1.220547e-009
1.713031e-010
1.350972e-009
-2.849346e-008
-1.835786e-008
-3.481454e-009
8.452162e-009
1.195765e-008
6.922222e-009
-1.666908e-009
-7.389977e-009
-6.883631e-009
-1.798138e-009
3.186877e-009
4.454392e-009
2.114439e-009
-8.448736e-010
-1.734083e-009
-4.934584e-010
8.529057e-010
6.570348e-010
-7.025217e-010
-1.543237e-009
-8.892722e-010
5.399004e-010
1.296393e-009
8.265434e-010
-9.878691e-011
-4.348087e-010
-1.118593e-011
4.902955e-010
4.767656e-010
7.367220e-011
-1.903059e-010
-7.032445e-011
2.048620e-010
3.307884e-010
2.954936e-010
2.948015e-010
4.281339e-010
6.139136e-010
7.667656e-010
9.249489e-010
1.157524e-009
1.425679e-009
1.614016e-009
1.678418e-009
1.695408e-009
1.753192e-009
1.844331e-009
1.897426e-009
1.881918e-009
1.833684e-009
1.781294e-009
1.695867e-009
1.541733e-009
1.350316e-009
1.201543e-009
1.127423e-009
1.066544e-009
9.365882e-010
7.365272e-010
5.493768e-010
4.438389e-010
3.997434e-010
3.449136e-010
2.468029e-010
1.425830e-010
8.341637e-011
7.626102e-011
8.981573e-011
9.495334e-011
8.012158e-011
4.511780e-011
1.248545e-011
3.999556e-011
1.744644e-010
3.633474e-010
4.458425e-010
2.926528e-010
-3.400969e-011
-3.106480e-010
-3.819771e-010
-3.260387e-010
-3.225507e-010
-3.578358e-010
-1.638834e-010
4.393185e-010
1.151562e-009
1.286450e-009
4.153439e-010
-1.044072e-009
-1.987495e-009
-1.531870e-009
1.274924e-010
1.758715e-009
2.075833e-009
8.190523e-010
-1.015319e-009
-1.987702e-009
-1.370978e-009
2.973165e-010
1.673260e-009
-2.927884e-009
-2.056211e-009
-4.168886e-010
1.313896e-009
1.920201e-009
6.771251e-010
-1.564853e-009
-2.714143e-009
-1.317782e-009
1.767737e-009
3.838630e-009
2.809323e-009
-6.703557e-010
-3.683475e-009
-3.773917e-009
-1.223473e-009
1.421377e-009
2.002425e-009
7.545874e-010
-3.457469e-010
5.633790e-011
1.327532e-009
1.844439e-009
9.677374e-010
-3.447050e-010
-8.158534e-010
-3.176261e-010
1.838189e-010
-7.195655e-011
-7.864622e-010
-1.114679e-009
-7.107486e-010
1.361079e-011
5.617132e-010
9.525739e-010
1.534060e-009
2.414160e-009
3.318246e-009
3.975983e-009
4.429341e-009
4.866615e-009
5.294658e-009
5.535380e-009
5.510741e-009
5.372742e-009
5.297743e-009
5.261045e-009
5.115283e-009
4.840594e-009
4.593793e-009
4.488299e-009
4.427396e-009
4.232079e-009
3.882673e-009
3.535717e-009
3.297342e-009
3.072383e-009
2.696359e-009
2.165094e-009
1.650742e-009
1.292116e-009
1.045307e-009
7.787357e-010
4.616003e-010
1.926869e-010
5.873287e-011
3.385724e-011
3.746258e-011
3.193367e-011
1.645910e-011
-3.337091e-011
-1.418061e-010
-2.460071e-010
-2.124576e-010
7.375490e-012
2.847304e-010
4.515933e-010
5.154275e-010
6.359381e-010
8.384684e-010
8.416850e-010
3.181871e-010
-6.331234e-010
-1.387137e-009
-1.307296e-009
-3.981987e-010
6.221476e-010
9.672062e-010
5.022485e-010
-1.925072e-010
-4.463528e-010
-1.344900e-010
2.989438e-010
3.665816e-010
1.291468e-011
-4.065811e-010
-5.181814e-010
-2.482728e-010
1.856795e-010
4.922143e-010
2.602734e-008
1.609336e-008
2.354639e-009
-7.487144e-009
-9.454848e-009
-5.167405e-009
6.232646e-010
4.077986e-009
4.390728e-009
2.902174e-009
1.002011e-009
-8.410152e-010
-2.459605e-009
-3.224588e-009
-2.425976e-009
-3.244178e-010
1.659437e-009
2.156661e-009
1.194089e-009
8.383339e-011
-6.368479e-011
5.171030e-010
7.411220e-010
1.070056e-010
-7.148168e-010
-7.900971e-010
-9.767971e-011
5.009565e-010
3.727531e-010
-1.542109e-010
-3.000983e-010
1.758894e-010
7.786425e-010
1.007338e-009
9.671212e-010
1.109549e-009
1.567197e-009
2.005500e-009
2.110231e-009
1.976842e-009
1.902840e-009
1.955400e-009
1.938158e-009
1.743408e-009
1.532031e-009
1.487539e-009
1.536281e-009
1.460438e-009
1.236740e-009
1.098436e-009
1.220177e-009
1.469910e-009
1.577552e-009
1.483933e-009
1.390873e-009
1.460556e-009
1.591994e-009
1.572380e-009
1.372896e-009
1.178211e-009
1.129320e-009
1.147649e-009
1.066501e-009
8.616553e-010
6.639612e-010
5.690157e-010
5.300216e-010
4.618775e-010
3.682517e-010
2.988678e-010
2.286862e-010
7.436362e-011
-1.606475e-010
-3.412794e-010
-3.502019e-010
-2.247145e-010
-7.052224e-011
1.274239e-010
4.890768e-010
9.798843e-010
1.256850e-009
9.146461e-010
-6.452916e-011
-1.165222e-009
-1.708543e-009
-1.382417e-009
-4.228936e-010
6.464713e-010
1.365289e-009
1.470632e-009
8.884796e-010
-1.972708e-010
-1.251614e-009
-1.573118e-009
-8.250329e-010
5.305378e-010
1.451587e-009
1.165265e-009
-9.434374e-011
-1.224665e-009
3.201172e-008
1.939131e-008
1.933343e-009
-1.032066e-008
-1.188693e-008
-4.883833e-009
3.606173e-009
7.298023e-009
4.898217e-009
-1.774269e-010
-3.539871e-009
-3.391534e-009
-1.102727e-009
9.198264e-010
1.512565e-009
1.144610e-009
7.044189e-010
4.392016e-010
8.266886e-011
-4.360062e-010
-8.082956e-010
-8.110996e-010
-6.172581e-010
-4.910645e-010
-3.698521e-010
1.734292e-011
6.715096e-010
1.218130e-009
1.370063e-009
1.310972e-009
1.433851e-009
1.776220e-009
1.935066e-009
1.587495e-009
9.089839e-010
3.330081e-010
2.941998e-012
-3.408198e-010
-9.305573e-010
-1.626747e-009
-2.114019e-009
-2.312871e-009
-2.420306e-009
-2.569975e-009
-2.641949e-009
-2.490124e-009
-2.219524e-009
-2.079243e-009
-2.116917e-009
-2.101737e-009
-1.839733e-009
-1.440949e-009
-1.166309e-009
-1.074449e-009
-9.575084e-010
-6.366356e-010
-1.947511e-010
1.593585e-010
3.759982e-010
5.970243e-010
9.187356e-010
1.240929e-009
1.404343e-009
1.399021e-009
1.349274e-009
1.323239e-009
1.256466e-009
1.086051e-009
8.763871e-010
7.436520e-010
6.935245e-010
6.117633e-010
4.175835e-010
1.571768e-010
-8.276413e-011
-2.913467e-010
-4.966971e-010
-6.387244e-010
-5.659962e-010
-2.019414e-010
3.198838e-010
7.236156e-010
7.838043e-010
4.482239e-010
-1.585039e-010
-7.587132e-010
-9.690722e-010
-4.976465e-010
5.264366e-010
1.423486e-009
1.369013e-009
1.549026e-010
-1.408859e-009
-2.014625e-009
-9.985907e-010
9.325922e-010
2.182178e-009
1.636136e-009
-2.981987e-010
-1.987095e-009
1.036068e-008
5.612825e-009
-7.949123e-010
-4.754353e-009
-3.978242e-009
3.275110e-010
4.326089e-009
4.536542e-009
6.928296e-010
-3.989478e-009
-5.558130e-009
-2.755065e-009
1.980681e-009
4.841129e-009
4.025845e-009
9.625186e-010
-1.524225e-009
-1.939981e-009
-1.013995e-009
-3.010481e-010
-4.116672e-010
-7.355574e-010
-5.195739e-010
2.332477e-010
9.615995e-010
1.292468e-009
1.345599e-009
1.418311e-009
1.628982e-009
1.913129e-009
2.180007e-009
2.342217e-009
2.284052e-009
1.952626e-009
1.476000e-009
1.073559e-009
8.167527e-010
5.685410e-010
2.087983e-010
-1.655873e-010
-3.568969e-010
-3.345116e-010
-2.670782e-010
-2.771367e-010
-2.822529e-010
-1.523790e-010
5.898498e-011
1.607887e-010
8.591915e-011
-1.370657e-011
2.186787e-011
1.471975e-010
1.963497e-010
1.338664e-010
1.111475e-010
2.598310e-010
5.246607e-010
7.597618e-010
9.273734e-010
1.113276e-009
1.361995e-009
1.590880e-009
1.702852e-009
1.716930e-009
1.721551e-009
1.728844e-009
1.652429e-009
1.443502e-009
1.188034e-009
1.025578e-009
9.987700e-010
1.024492e-009
9.996986e-010
8.885496e-010
6.990957e-010
4.217954e-010
3.140312e-011
-4.537604e-010
-9.257499e-010
-1.188723e-009
-1.017739e-009
-3.020241e-010
7.617584e-010
1.618486e-009
1.649512e-009
7.019774e-010
-6.320009e-010
-1.387962e-009
-1.038605e-009
1.024098e-011
7.766868e-010
6.174258e-010
-1.861650e-010
-7.448437e-010
-4.525611e-010
4.306116e-010
1.047312e-009
7.680054e-010
-2.197163e-010
-1.081464e-009
-1.918301e-008
-1.205222e-008
-2.274068e-009
4.737067e-009
6.482060e-009
4.258866e-009
9.354768e-010
-1.649947e-009
-3.199346e-009
-3.696256e-009
-2.626153e-009
1.571313e-010
3.278294e-009
4.416806e-009
2.479925e-009
-1.028882e-009
-3.247558e-009
-2.661504e-009
-3.821578e-010
1.301114e-009
1.336196e-009
6.301287e-010
5.847728e-010
1.424704e-009
2.197508e-009
2.112029e-009
1.425942e-009
9.632320e-010
1.104445e-009
1.510965e-009
1.705205e-009
1.620748e-009
1.520688e-009
1.588354e-009
1.767451e-009
1.928680e-009
2.026663e-009
2.071314e-009
2.057274e-009
1.979919e-009
1.859298e-009
1.689991e-009
1.405761e-009
9.563988e-010
4.048917e-010
-1.114245e-010
-5.214193e-010
-8.717564e-010
-1.224527e-009
-1.554845e-009
-1.786892e-009
-1.895228e-009
-1.917049e-009
-1.874989e-009
-1.743302e-009
-1.504934e-009
-1.197986e-009
-8.753340e-010
-5.463159e-010
-1.950861e-010
1.593346e-010
4.662619e-010
7.113378e-010
9.399545e-010
1.187451e-009
1.410180e-009
1.519262e-009
1.478764e-009
1.345823e-009
1.213069e-009
1.133388e-009
1.104509e-009
1.101397e-009
1.105076e-009
1.108725e-009
1.101947e-009
1.030413e-009
7.686093e-010
1.962251e-010
-6.087125e-010
-1.248997e-009
-1.205348e-009
-3.060268e-010
9.645070e-010
1.726859e-009
1.404004e-009
2.177650e-010
-1.003364e-009
-1.507290e-009
-1.133676e-009
-2.626838e-010
5.855393e-010
1.044701e-009
9.503458e-010
3.440186e-010
-4.594657e-010
-9.360727e-010
-7.056378e-010
7.882717e-011
7.692028e-010
-3.188561e-008
-1.836092e-008
-4.381601e-010
1.080320e-008
1.054285e-008
2.720121e-009
-4.598467e-009
-6.192326e-009
-2.830411e-009
1.242307e-009
2.917808e-009
2.264572e-009
9.475846e-010
-1.370257e-010
-1.197736e-009
-2.204120e-009
-2.268156e-009
-7.509264e-010
1.530666e-009
2.866247e-009
2.472576e-009
1.316714e-009
9.065129e-010
1.565977e-009
2.273809e-009
2.088906e-009
1.265307e-009
7.590655e-010
9.560147e-010
1.286083e-009
1.056323e-009
2.865844e-010
-4.693601e-010
-9.103730e-010
-1.309017e-009
-2.081082e-009
-3.295828e-009
-4.725553e-009
-6.219212e-009
-7.844572e-009
-9.694898e-009
-1.171816e-008
-1.378988e-008
-1.585035e-008
-1.787864e-008
-1.977165e-008
-2.134430e-008
-2.247219e-008
-2.318397e-008
-2.358057e-008
-2.368804e-008
-2.342309e-008
-2.269946e-008
-2.154061e-008
-2.007457e-008
-1.842789e-008
-1.664093e-008
-1.469339e-008
-1.260214e-008
-1.047227e-008
-8.438493e-009
-6.567696e-009
-4.841958e-009
-3.238617e-009
-1.800412e-009
-6.091489e-010
2.905283e-010
9.129706e-010
1.287084e-009
1.429343e-009
1.374211e-009
1.199442e-009
9.944863e-010
8.249298e-010
7.566068e-010
8.785449e-010
1.214349e-009
1.577030e-009
1.594735e-009
1.007277e-009
-1.733564e-011
-9.204457e-010
-1.179930e-009
-7.255516e-010
5.395982e-011
6.584074e-010
7.907560e-010
4.175722e-010
-2.823022e-010
-9.170120e-010
-9.691976e-010
-1.747593e-010
1.038205e-009
1.650295e-009
9.007801e-010
-8.188615e-010
-2.068730e-009
-1.617471e-009
2.908374e-010
2.017086e-009
-1.949527e-008
-9.647462e-009
2.764619e-009
9.042327e-009
5.942532e-009
-2.158257e-009
-7.501132e-009
-5.717377e-009
8.818916e-010
6.148603e-009
5.955728e-009
1.414786e-009
-3.102211e-009
-4.402384e-009
-2.742871e-009
-3.633501e-010
1.205429e-009
1.991572e-009
2.431784e-009
2.391197e-009
1.626650e-009
6.263530e-010
3.177392e-010
9.484333e-010
1.738679e-009
1.845089e-009
1.343073e-009
9.275185e-010
8.056699e-010
3.117129e-010
-1.286117e-009
-3.931976e-009
-6.998290e-009
-1.018460e-008
-1.386537e-008
-1.851093e-008
-2.404767e-008
-2.997431e-008
-3.595245e-008
-4.203235e-008
-4.830483e-008
-5.456483e-008
-6.044861e-008
-6.578034e-008
-7.061154e-008
-7.493326e-008
-7.850601e-008
-8.105003e-008
-8.251793e-008
-8.307148e-008
-8.280320e-008
-8.158140e-008
-7.921817e-008
-7.573315e-008
-7.137613e-008
-6.639527e-008
-6.085660e-008
-5.473450e-008
-4.813579e-008
-4.136075e-008
-3.473273e-008
-2.842623e-008
-2.250081e-008
-1.705632e-008
-1.227311e-008
-8.284904e-009
-5.075257e-009
-2.545599e-009
-6.495891e-010
5.987483e-010
1.237900e-009
1.409936e-009
1.276289e-009
9.455451e-010
5.410924e-010
2.918295e-010
4.387121e-010
9.905877e-010
1.616013e-009
1.848551e-009
1.428928e-009
4.687124e-010
-6.462708e-010
-1.441902e-009
-1.515382e-009
-7.338459e-010
5.418802e-010
1.493409e-009
1.376511e-009
2.349186e-010
-9.602262e-010
-1.112343e-009
-9.449952e-011
1.020990e-009
9.941665e-010
-2.617447e-010
-1.491196e-009
-1.346993e-009
1.743218e-010
1.650631e-009
5.556542e-009
4.885860e-009
3.405874e-009
9.406030e-010
-2.200635e-009
-4.653094e-009
-4.493679e-009
-1.055935e-009
3.638706e-009
5.928050e-009
3.708217e-009
-1.312571e-009
-4.941523e-009
-4.342680e-009
-4.992841e-010
3.133176e-009
4.082129e-009
2.711459e-009
9.950424e-010
2.170583e-010
2.243112e-010
4.244406e-010
7.092927e-010
1.200315e-009
1.617654e-009
1.401906e-009
3.406394e-010
-1.358217e-009
-3.695626e-009
-7.237158e-009
-1.260565e-008
-1.981044e-008
-2.836821e-008
-3.802958e-008
-4.907183e-008
-6.176461e-008
-7.578700e-008
-9.040093e-008
-1.051011e-007
-1.198412e-007
-1.345972e-007
-1.489507e-007
-1.622786e-007
-1.742450e-007
-1.848984e-007
-1.942736e-007
-2.020757e-007
-2.078644e-007
-2.114466e-007
-2.129318e-007
-2.124061e-007
-2.096996e-007
-2.045666e-007
-1.970242e-007
-1.873970e-007
-1.760296e-007
-1.630705e-007
-1.486107e-007
-1.329675e-007
-1.167215e-007
-1.004647e-007
-8.459713e-008
-6.940973e-008
-5.527366e-008
-4.262303e-008
-3.173705e-008
-2.262144e-008
-1.514384e-008
-9.221330e-009
-4.811223e-009
-1.767330e-009
1.814040e-010
1.276720e-009
1.631764e-009
1.350691e-009
7.108527e-010
1.444205e-010
9.014688e-012
3.836592e-010
1.052128e-009
1.615612e-009
1.647570e-009
9.193518e-010
-3.346486e-010
-1.379847e-009
-1.425281e-009
-3.266432e-010
1.125373e-009
1.769124e-009
1.080728e-009
-3.352432e-010
-1.297092e-009
-1.121633e-009
-1.734534e-010
6.051362e-010
6.353043e-010
1.494483e-010
-2.201971e-010
-1.655733e-010
5.742617e-011
2.382059e-008
1.335296e-008
-1.863559e-011
-7.759142e-009
-7.082629e-009
-1.743857e-009
2.721394e-009
3.760827e-009
2.338054e-009
3.096583e-010
-1.462252e-009
-2.632614e-009
-2.433077e-009
-2.960968e-010
2.796847e-009
4.569192e-009
3.586102e-009
8.481411e-010
-1.168963e-009
-9.769500e-010
7.348331e-010
2.240573e-009
2.555437e-009
1.816460e-009
3.167010e-010
-2.242628e-009
-6.488088e-009
-1.282973e-008
-2.148163e-008
-3.280180e-008
-4.724659e-008
-6.497504e-008
-8.575376e-008
-1.093243e-007
-1.356356e-007
-1.645413e-007
-1.954140e-007
-2.273031e-007
-2.594767e-007
-2.916108e-007
-3.233825e-007
-3.540672e-007
-3.827230e-007
-4.087108e-007
-4.318438e-007
-4.519917e-007
-4.687026e-007
-4.813360e-007
-4.894816e-007
-4.930837e-007
-4.921481e-007
-4.864862e-007
-4.758607e-007
-4.603182e-007
-4.402472e-007
-4.161127e-007
-3.882651e-007
-3.570982e-007
-3.233161e-007
-2.879200e-007
-2.519213e-007
-2.161559e-007
-1.814027e-007
-1.485520e-007
-1.185089e-007
-9.190724e-008
-6.898980e-008
-4.976801e-008
-3.419498e-008
-2.211541e-008
-1.312841e-008
-6.647318e-009
-2.152999e-009
6.503494e-010
1.944710e-009
2.009637e-009
1.298984e-009
3.642691e-010
-2.616285e-010
-2.075871e-010
5.309431e-010
1.475015e-009
1.895801e-009
1.370975e-009
1.955151e-010
-8.094866e-010
-9.735938e-010
-3.151074e-010
5.349863e-010
8.846165e-010
4.866913e-010
-3.501775e-010
-1.010835e-009
-9.721843e-010
-1.631896e-010
9.060780e-010
1.425735e-009
9.024029e-010
-3.564562e-010
-1.399420e-009
2.493944e-008
1.140836e-008
-4.687651e-009
-1.138788e-008
-6.001290e-009
3.863474e-009
8.530081e-009
4.984459e-009
-1.992702e-009
-5.887978e-009
-4.526547e-009
-5.302036e-010
2.609850e-009
3.662434e-009
3.300695e-009
2.216099e-009
6.170723e-010
-8.756075e-010
-1.050916e-009
6.207901e-010
2.970846e-009
3.928007e-009
2.258852e-009
-1.850258e-009
-7.905281e-009
-1.635158e-008
-2.850954e-008
-4.559641e-008
-6.818870e-008
-9.654431e-008
-1.310100e-007
-1.718904e-007
-2.190938e-007
-2.721029e-007
-3.301980e-007
-3.925047e-007
-4.578550e-007
-5.248455e-007
-5.921685e-007
-6.587996e-007
-7.237722e-007
-7.858730e-007
-8.437346e-007
-8.962410e-007
-9.427098e-007
-9.826180e-007
-1.015261e-006
-1.039800e-006
-1.055600e-006
-1.062380e-006
-1.060009e-006
-1.048283e-006
-1.027010e-006
-9.962804e-007
-9.565316e-007
-9.083743e-007
-8.524749e-007
-7.897090e-007
-7.213642e-007
-6.490788e-007
-5.745742e-007
-4.995211e-007
-4.256540e-007
-3.548508e-007
-2.889238e-007
-2.292814e-007
-1.768079e-007
-1.319995e-007
-9.505727e-008
-6.577020e-008
-4.339701e-008
-2.681869e-008
-1.488704e-008
-6.664032e-009
-1.426635e-009
1.416449e-009
2.377498e-009
1.976417e-009
8.806359e-010
-9.882419e-011
-3.124455e-010
3.330808e-010
1.312663e-009
1.880492e-009
1.594041e-009
5.629882e-010
-6.556838e-010
-1.362167e-009
-1.106309e-009
-5.556322e-011
9.686983e-010
1.060311e-009
9.517070e-011
-9.853787e-010
-1.001290e-009
2.041847e-010
1.445877e-009
1.348745e-009
-1.544394e-010
-1.642706e-009
1.226379e-008
3.431709e-009
-6.144759e-009
-8.025879e-009
-1.347942e-009
6.726485e-009
8.264895e-009
2.160607e-009
-5.371209e-009
-7.389231e-009
-2.814840e-009
3.437107e-009
6.010719e-009
3.972981e-009
4.268599e-010
-1.442158e-009
-1.017924e-009
4.994131e-010
2.053354e-009
3.170364e-009
3.043765e-009
2.369194e-010
-6.433145e-009
-1.730194e-008
-3.262586e-008
-5.374725e-008
-8.307056e-008
-1.228564e-007
-1.743010e-007
-2.377739e-007
-3.135049e-007
-4.016421e-007
-5.017001e-007
-6.122421e-007
-7.311790e-007
-8.562230e-007
-9.850116e-007
-1.115044e-006
-1.243798e-006
-1.368989e-006
-1.488643e-006
-1.600940e-006
-1.704128e-006
-1.796674e-006
-1.877436e-006
-1.945568e-006
-2.000274e-006
-2.040735e-006
-2.066269e-006
-2.076449e-006
-2.071013e-006
-2.049709e-006
-2.012319e-006
-1.958833e-006
-1.889545e-006
-1.805001e-006
-1.706001e-006
-1.593762e-006
-1.470071e-006
-1.337236e-006
-1.197916e-006
-1.055066e-006
-9.120153e-007
-7.723920e-007
-6.397579e-007
-5.171823e-007
-4.070549e-007
-3.111028e-007
-2.303311e-007
-1.648187e-007
-1.136296e-007
-7.504738e-008
-4.698406e-008
-2.729534e-008
-1.396811e-008
-5.318467e-009
-1.657414e-010
2.236436e-009
2.540962e-009
1.601949e-009
4.153684e-010
-2.192728e-010
6.424779e-012
8.412794e-010
1.615259e-009
1.592857e-009
5.211331e-010
-9.733640e-010
-1.695279e-009
-9.234160e-010
7.379596e-010
1.756060e-009
1.152200e-009
-4.392803e-010
-1.391742e-009
-8.183015e-010
4.941959e-010
1.026292e-009
2.686971e-010
-7.513558e-010
-4.129524e-009
-3.832689e-009
-2.656269e-009
-2.145496e-010
2.688828e-009
4.029684e-009
2.217173e-009
-1.800075e-009
-4.568180e-009
-3.154475e-009
1.617595e-009
5.529487e-009
5.068961e-009
9.980054e-010
-2.544483e-009
-2.334112e-009
1.008921e-009
4.231066e-009
4.694065e-009
1.803758e-009
-4.307833e-009
-1.449235e-008
-3.068446e-008
-5.505744e-008
-8.989784e-008
-1.382372e-007
-2.038554e-007
-2.901358e-007
-3.989233e-007
-5.305153e-007
-6.843603e-007
-8.592505e-007
-1.052776e-006
-1.260977e-006
-1.478886e-006
-1.701450e-006
-1.923995e-006
-2.142117e-006
-2.351637e-006
-2.548940e-006
-2.731334e-006
-2.896987e-006
-3.044578e-006
-3.173105e-006
-3.281939e-006
-3.370881e-006
-3.439988e-006
-3.489333e-006
-3.518910e-006
-3.528671e-006
-3.518507e-006
-3.488153e-006
-3.437147e-006
-3.364901e-006
-3.270817e-006
-3.154386e-006
-3.015352e-006
-2.853946e-006
-2.671123e-006
-2.468682e-006
-2.249360e-006
-2.016990e-006
-1.776606e-006
-1.534273e-006
-1.296551e-006
-1.069886e-006
-8.601312e-007
-6.721761e-007
-5.095082e-007
-3.737967e-007
-2.647864e-007
-1.805990e-007
-1.182099e-007
-7.386883e-008
-4.351879e-008
-2.334998e-008
-1.034159e-008
-2.457085e-009
1.604286e-009
2.831565e-009
2.203075e-009
7.913868e-010
-3.238988e-010
-3.935003e-010
5.418509e-010
1.571388e-009
1.612770e-009
4.635314e-010
-8.756682e-010
-1.133394e-009
-9.358219e-011
1.137057e-009
1.282618e-009
2.262443e-010
-9.460991e-010
-1.171054e-009
-4.699063e-010
2.887167e-010
4.837548e-010
3.248980e-010
-1.617018e-008
-7.145131e-009
3.266025e-009
7.258844e-009
3.741273e-009
-2.120480e-009
-4.896196e-009
-3.376411e-009
1.520069e-010
3.138317e-009
4.370381e-009
3.543517e-009
1.030236e-009
-1.586253e-009
-1.991591e-009
7.189846e-010
4.485908e-009
5.531779e-009
1.225876e-009
-8.778241e-009
-2.437895e-008
-4.753623e-008
-8.274327e-008
-1.355774e-007
-2.114624e-007
-3.156295e-007
-4.531556e-007
-6.279666e-007
-8.414279e-007
-1.091857e-006
-1.375066e-006
-1.684874e-006
-2.013083e-006
-2.349659e-006
-2.683884e-006
-3.005966e-006
-3.307982e-006
-3.583838e-006
-3.829011e-006
-4.040740e-006
-4.218362e-006
-4.363108e-006
-4.477365e-006
-4.564008e-006
-4.626237e-006
-4.667638e-006
-4.691980e-006
-4.702752e-006
-4.702775e-006
-4.694064e-006
-4.677788e-006
-4.654132e-006
-4.622112e-006
-4.579501e-006
-4.522912e-006
-4.448021e-006
-4.349900e-006
-4.223449e-006
-4.063948e-006
-3.867686e-006
-3.632717e-006
-3.359662e-006
-3.052328e-006
-2.717854e-006
-2.366301e-006
-2.009818e-006
-1.661513e-006
-1.334072e-006
-1.038243e-006
-7.815881e-007
-5.679152e-007
-3.974342e-007
-2.673316e-007
-1.724989e-007
-1.064179e-007
-6.221917e-008
-3.368142e-008
-1.584809e-008
-5.185497e-009
5.674204e-010
2.773823e-009
2.483727e-009
9.656894e-010
-3.083343e-010
-3.427569e-010
7.027417e-010
1.701380e-009
1.631350e-009
5.302840e-010
-6.176902e-010
-8.917904e-010
-2.684407e-010
4.961573e-010
6.674076e-010
1.594053e-010
-5.177654e-010
-7.798324e-010
-4.304898e-010
2.543508e-010
7.780720e-010
-2.077349e-008
-7.176475e-009
7.364297e-009
1.055149e-008
2.248401e-009
-7.070860e-009
-8.129378e-009
-1.429479e-009
5.437465e-009
6.669712e-009
3.031169e-009
-9.454125e-010
-2.122438e-009
-5.264287e-010
2.251605e-009
4.495829e-009
4.221761e-009
-9.878273e-010
-1.323414e-008
-3.408461e-008
-6.616036e-008
-1.151875e-007
-1.901127e-007
-3.010341e-007
-4.570101e-007
-6.652016e-007
-9.304943e-007
-1.254167e-006
-1.631914e-006
-2.052886e-006
-2.500558e-006
-2.954565e-006
-3.392523e-006
-3.791949e-006
-4.132783e-006
-4.399964e-006
-4.584818e-006
-4.684792e-006
-4.702420e-006
-4.644554e-006
-4.521851e-006
-4.347842e-006
-4.137482e-006
-3.905900e-006
-3.667889e-006
-3.437828e-006
-3.229385e-006
-3.054832e-006
-2.924385e-006
-2.845837e-006
-2.824322e-006
-2.861945e-006
-2.957275e-006
-3.104940e-006
-3.295478e-006
-3.515440e-006
-3.747712e-006
-3.972135e-006
-4.166542e-006
-4.308341e-006
-4.376656e-006
-4.354810e-006
-4.232786e-006
-4.009152e-006
-3.692047e-006
-3.298887e-006
-2.854543e-006
-2.388084e-006
-1.928653e-006
-1.501528e-006
-1.125318e-006
-8.107167e-007
-5.606819e-007
-3.717096e-007
-2.358266e-007
-1.428214e-007
-8.215981e-008
-4.428290e-008
-2.139303e-008
-7.913971e-009
-5.061982e-010
2.590243e-009
2.649678e-009
1.221091e-009
-2.903273e-011
-1.068185e-010
7.897493e-010
1.621411e-009
1.468953e-009
3.143152e-010
-9.593752e-010
-1.324022e-009
-5.128541e-010
7.016198e-010
1.187026e-009
5.368419e-010
-5.145154e-010
-8.598543e-010
-2.121460e-010
5.998197e-010
-1.797723e-008
-5.467499e-009
7.232347e-009
8.703318e-009
3.613012e-011
-7.658443e-009
-6.033785e-009
2.180164e-009
7.704214e-009
5.469269e-009
-8.101356e-010
-4.009301e-009
-1.373818e-009
3.766866e-009
6.385571e-009
3.882938e-009
-4.172006e-009
-1.885471e-008
-4.363874e-008
-8.448936e-008