# vtk DataFile Version 3.0
vtk output
ASCII
DATASET STRUCTURED_POINTS
DIMENSIONS 100 100 1
SPACING 1 1 1
ORIGIN 0 0 0
POINT_DATA 10000
SCALARS SFBox_profile double
LOOKUP_TABLE default 
0.000000e+000
0.000000e+000
0.000000e+000
0.000000e+000
0.000000e+000
0.000000e+000
0.000000e+000
0.000000e+000
0.000000e+000
0.000000e+000
0.000000e+000
0.000000e+000
0.000000e+000
0.000000e+000
0.000000e+000
0.000000e+000
0.000000e+000
0.000000e+000
0.000000e+000
0.000000e+000
0.000000e+000
0.000000e+000
0.000000e+000
0.000000e+000
0.000000e+000
0.000000e+000
0.000000e+000
0.000000e+000
0.000000e+000
0.000000e+000
0.000000e+000
0.000000e+000
0.000000e+000
0.000000e+000
0.000000e+000
0.000000e+000
0.000000e+000
0.000000e+000
0.000000e+000
0.000000e+000
0.000000e+000
0.000000e+000
0.000000e+000
0.000000e+000
0.000000e+000
0.000000e+000
0.000000e+000
0.000000e+000
0.000000e+000
0.000000e+000
0.000000e+000
0.000000e+000
0.000000e+000
0.000000e+000
0.000000e+000
0.000000e+000
0.000000e+000
0.000000e+000
0.000000e+000
0.000000e+000
0.000000e+000
0.000000e+000
0.000000e+000
0.000000e+000
0.000000e+000
0.000000e+000
0.000000e+000
0.000000e+000
0.000000e+000
0.000000e+000
0.000000e+000
0.000000e+000
0.000000e+000
0.000000e+000
0.000000e+000
0.000000e+000
0.000000e+000
0.000000e+000
0.000000e+000
0.000000e+000
0.000000e+000
0.000000e+000
0.000000e+000
0.000000e+000
0.000000e+000
0.000000e+000
0.000000e+000
0.000000e+000
0.000000e+000
0.000000e+000
0.000000e+000
0.000000e+000
0.000000e+000
0.000000e+000
0.000000e+000
0.000000e+000
0.000000e+000
0.000000e+000
0.000000e+000
0.000000e+000
2.448149e-009
1.206045e-009
-4.039362e-010
-1.492028e-009
-1.656251e-009
-1.084448e-009
-2.597042e-010
4.342232e-010
8.885888e-010
1.148210e-009
1.190259e-009
8.662836e-010
7.963064e-011
-9.871416e-010
-1.855330e-009
-2.020132e-009
-1.310701e-009
-3.875597e-011
1.197710e-009
1.899423e-009
1.934862e-009
1.509184e-009
9.149807e-010
3.104673e-010
-3.022785e-010
-9.395909e-010
-1.517648e-009
-1.877233e-009
-1.910507e-009
-1.649381e-009
-1.230067e-009
-7.806252e-010
-3.452510e-010
9.565952e-011
5.532814e-010
9.902927e-010
1.346786e-009
1.592096e-009
1.744108e-009
1.842258e-009
1.909807e-009
1.943807e-009
1.934693e-009
1.887706e-009
1.823848e-009
1.764387e-009
1.717977e-009
1.681501e-009
1.649672e-009
1.622528e-009
1.605692e-009
1.605330e-009
1.622067e-009
1.647846e-009
1.668933e-009
1.674436e-009
1.663014e-009
1.638899e-009
1.598352e-009
1.521090e-009
1.380348e-009
1.165438e-009
8.925249e-010
5.879654e-010
2.603521e-010
-1.035627e-010
-5.061465e-010
-9.014205e-010
-1.200218e-009
-1.324705e-009
-1.261491e-009
-1.056027e-009
-7.526109e-010
-3.505411e-010
1.624941e-010
7.256270e-010
1.167641e-009
1.286197e-009
9.957723e-010
4.122456e-010
-2.130140e-010
-6.575160e-010
-8.444373e-010
-8.174903e-010
-6.268611e-010
-2.685853e-010
2.465762e-010
7.754379e-010
1.037126e-009
7.884784e-010
5.960786e-011
-7.707313e-010
-1.177802e-009
-8.572828e-010
2.078718e-011
8.882272e-010
1.158116e-009
6.412900e-010
-3.079871e-010
-1.032676e-009
7.733775e-010
2.431356e-010
-3.687570e-010
-6.255614e-010
-3.989761e-010
8.028739e-011
4.316906e-010
4.183752e-010
1.011459e-010
-2.474082e-010
-3.762983e-010
-2.386026e-010
1.370161e-011
1.904710e-010
2.214201e-010
1.760525e-010
1.511674e-010
1.539401e-010
9.934965e-011
-8.284260e-011
-3.477550e-010
-5.481094e-010
-5.505809e-010
-3.440838e-010
-4.022084e-011
2.259156e-010
3.948164e-010
4.945179e-010
5.727700e-010
6.309393e-010
6.249355e-010
5.201669e-010
3.345315e-010
1.256227e-010
-5.816529e-011
-2.093437e-010
-3.485947e-010
-4.895563e-010
-6.210917e-010
-7.209985e-010
-7.801955e-010
-8.101665e-010
-8.293857e-010
-8.466440e-010
-8.581030e-010
-8.572386e-010
-8.445758e-010
-8.280169e-010
-8.159637e-010
-8.110949e-010
-8.096328e-010
-8.054215e-010
-7.952105e-010
-7.811638e-010
-7.680276e-010
-7.563336e-010
-7.379707e-010
-7.003557e-010
-6.371602e-010
-5.544273e-010
-4.632420e-010
-3.651080e-010
-2.476044e-010
-9.937050e-011
6.937773e-011
2.254192e-010
3.366182e-010
3.976075e-010
4.268552e-010
4.353045e-010
4.026158e-010
2.943662e-010
1.087952e-010
-9.747268e-011
-2.406064e-010
-2.742506e-010
-2.238137e-010
-1.535148e-010
-9.990619e-011
-4.354911e-011
4.941101e-011
1.623571e-010
2.180928e-010
1.470724e-010
-2.936443e-011
-1.910019e-010
-2.091111e-010
-6.033090e-011
1.418061e-010
2.337384e-010
1.365127e-010
-7.684129e-011
-2.386716e-010
-2.204570e-010
-3.341415e-011
1.821133e-010
2.654044e-010
1.554755e-010
-6.655907e-011
-2.394947e-010
-1.371804e-009
-8.682888e-010
-1.141210e-010
6.102701e-010
1.088912e-009
1.193508e-009
8.717304e-010
1.651538e-010
-7.377026e-010
-1.490845e-009
-1.704802e-009
-1.164699e-009
-1.062135e-011
1.276487e-009
2.111864e-009
2.123162e-009
1.335154e-009
1.116780e-010
-1.076571e-009
-1.881560e-009
-2.169576e-009
-1.973094e-009
-1.398384e-009
-5.743172e-010
3.505595e-010
1.210392e-009
1.855902e-009
2.200920e-009
2.240486e-009
2.026458e-009
1.626499e-009
1.100555e-009
5.026064e-010
-1.113745e-010
-6.875592e-010
-1.187938e-009
-1.597706e-009
-1.918498e-009
-2.155774e-009
-2.313226e-009
-2.396738e-009
-2.419513e-009
-2.400438e-009
-2.357042e-009
-2.300465e-009
-2.236745e-009
-2.171586e-009
-2.112831e-009
-2.068338e-009
-2.042034e-009
-2.032379e-009
-2.034716e-009
-2.045007e-009
-2.061174e-009
-2.080492e-009
-2.095647e-009
-2.093875e-009
-2.060822e-009
-1.985509e-009
-1.861043e-009
-1.680414e-009
-1.433344e-009
-1.110385e-009
-7.125871e-010
-2.577258e-010
2.230571e-010
6.933930e-010
1.114218e-009
1.438608e-009
1.610130e-009
1.576644e-009
1.315686e-009
8.525428e-010
2.570431e-010
-3.740989e-010
-9.312385e-010
-1.297827e-009
-1.366698e-009
-1.083103e-009
-4.979556e-010
2.157599e-010
8.175524e-010
1.104654e-009
1.001815e-009
5.799645e-010
6.069915e-012
-5.262933e-010
-8.450560e-010
-8.321370e-010
-4.677345e-010
1.209444e-010
6.648928e-010
8.646219e-010
5.753254e-010
-6.016816e-011
-6.584596e-010
-8.301108e-010
-4.523833e-010
2.254452e-010
7.412134e-010
-2.524020e-009
-1.228046e-009
4.321931e-010
1.525345e-009
1.660569e-009
1.067545e-009
2.513936e-010
-4.221545e-010
-8.717587e-010
-1.137608e-009
-1.162750e-009
-7.852934e-010
4.391878e-011
1.061037e-009
1.755189e-009
1.697661e-009
8.678711e-010
-3.085763e-010
-1.248721e-009
-1.588998e-009
-1.355263e-009
-8.329357e-010
-3.000192e-010
1.366582e-010
5.042449e-010
8.259052e-010
1.045761e-009
1.077560e-009
8.999603e-010
5.884095e-010
2.569390e-010
-2.247234e-011
-2.458258e-010
-4.392633e-010
-6.105820e-010
-7.393623e-010
-8.038566e-010
-8.064755e-010
-7.710857e-010
-7.210295e-010
-6.642862e-010
-5.980687e-010
-5.221249e-010
-4.442667e-010
-3.746481e-010
-3.182832e-010
-2.744078e-010
-2.412497e-010
-2.192929e-010
-2.100448e-010
-2.136612e-010
-2.291231e-010
-2.559498e-010
-2.940435e-010
-3.414594e-010
-3.938006e-010
-4.471633e-010
-5.009112e-010
-5.551268e-010
-6.041220e-010
-6.342576e-010
-6.312452e-010
-5.902156e-010
-5.157548e-010
-4.095620e-010
-2.608020e-010
-5.610427e-011
1.952777e-010
4.482655e-010
6.414395e-010
7.348351e-010
7.264319e-010
6.276288e-010
4.281199e-010
1.026940e-010
-3.297293e-010
-7.536905e-010
-9.861138e-010
-8.903820e-010
-4.856395e-010
5.213352e-011
5.063610e-010
7.499571e-010
7.751331e-010
6.178031e-010
2.861111e-010
-2.062444e-010
-7.339931e-010
-1.028475e-009
-8.241288e-010
-1.051132e-010
7.720120e-010
1.247703e-009
9.493211e-010
1.027911e-011
-9.623208e-010
-1.293018e-009
-7.324212e-010
3.383152e-010
1.165807e-009
-2.028769e-009
-6.236863e-010
9.777054e-010
1.620368e-009
1.002182e-009
-2.319679e-010
-1.093615e-009
-1.022993e-009
-2.298148e-010
5.959668e-010
8.849260e-010
5.791781e-010
4.127227e-011
-3.471362e-010
-4.896480e-010
-5.333983e-010
-5.956661e-010
-5.813018e-010
-2.830713e-010
3.537838e-010
1.090865e-009
1.536047e-009
1.436569e-009
8.552108e-010
8.495550e-011
-5.915649e-010
-1.069324e-009
-1.393227e-009
-1.615268e-009
-1.704280e-009
-1.585682e-009
-1.240853e-009
-7.478711e-010
-2.266102e-010
2.449251e-010
6.592380e-010
1.039888e-009
1.389972e-009
1.682453e-009
1.890493e-009
2.015583e-009
2.083950e-009
2.121732e-009
2.138535e-009
2.132554e-009
2.104889e-009
2.065283e-009
2.026207e-009
1.995302e-009
1.974022e-009
1.960516e-009
1.951569e-009
1.943070e-009
1.931566e-009
1.915714e-009
1.893494e-009
1.855924e-009
1.785574e-009
1.665642e-009
1.492075e-009
1.273599e-009
1.016449e-009
7.117125e-010
3.460531e-010
-6.903142e-011
-4.816786e-010
-8.225609e-010
-1.048706e-009
-1.160786e-009
-1.171112e-009
-1.059489e-009
-7.793746e-010
-3.261872e-010
2.000403e-010
6.203085e-010
7.905353e-010
7.035608e-010
4.768877e-010
2.361825e-010
1.670336e-011
-2.120224e-010
-4.321912e-010
-5.203871e-010
-3.436396e-010
6.817515e-011
4.645455e-010
5.369127e-010
1.883509e-010
-3.383366e-010
-6.226720e-010
-4.081061e-010
1.657799e-010
6.528343e-010
6.526924e-010
1.393001e-010
-5.061943e-010
-7.883326e-010
-4.832092e-010
1.862412e-010
7.196543e-010
-3.697221e-010
3.530155e-010
9.929982e-010
8.172730e-010
-2.222351e-010
-1.422386e-009
-1.849847e-009
-1.055250e-009
5.598237e-010
2.001708e-009
2.371439e-009
1.461352e-009
-1.656050e-010
-1.620395e-009
-2.269113e-009
-2.017919e-009
-1.175235e-009
-1.209917e-010
8.968016e-010
1.728946e-009
2.208501e-009
2.152595e-009
1.503933e-009
4.461513e-010
-6.602061e-010
-1.487428e-009
-1.912234e-009
-2.009296e-009
-1.905940e-009
-1.657386e-009
-1.249556e-009
-6.886515e-010
-5.749902e-011
5.228213e-010
9.754241e-010
1.303841e-009
1.553491e-009
1.750651e-009
1.883036e-009
1.929864e-009
1.896993e-009
1.818158e-009
1.727910e-009
1.640014e-009
1.551075e-009
1.458250e-009
1.369108e-009
1.296651e-009
1.249708e-009
1.229366e-009
1.231547e-009
1.250490e-009
1.281314e-009
1.322526e-009
1.376215e-009
1.442316e-009
1.510293e-009
1.558873e-009
1.568460e-009
1.534312e-009
1.462551e-009
1.349230e-009
1.167112e-009
8.829617e-010
4.942528e-010
4.556645e-011
-3.987161e-010
-7.981722e-010
-1.143621e-009
-1.413503e-009
-1.531384e-009
-1.390610e-009
-9.442991e-010
-2.774706e-010
4.194821e-010
9.605695e-010
1.253578e-009
1.289201e-009
1.066686e-009
5.696784e-010
-1.547955e-010
-9.012206e-010
-1.338802e-009
-1.207614e-009
-5.343602e-010
3.328269e-010
9.315193e-010
9.834929e-010
5.531724e-010
-4.122614e-011
-4.657927e-010
-5.631436e-010
-3.822009e-010
-8.090558e-011
1.853882e-010
3.184167e-010
2.845390e-010
1.135664e-010
-1.057414e-010
-2.569757e-010
1.368389e-009
9.005380e-010
1.897866e-010
-5.271282e-010
-1.063961e-009
-1.264931e-009
-9.944021e-010
-2.303462e-010
7.944809e-010
1.589324e-009
1.652975e-009
8.404314e-010
-4.568944e-010
-1.517967e-009
-1.764797e-009
-1.137057e-009
-8.014575e-011
8.123032e-010
1.185682e-009
1.050801e-009
6.287080e-010
1.278978e-010
-3.420964e-010
-7.120453e-010
-8.900290e-010
-7.956374e-010
-4.458146e-010
2.439823e-011
4.460940e-010
7.247253e-010
8.686326e-010
9.261436e-010
9.130021e-010
8.057110e-010
5.913575e-010
3.047327e-010
9.605441e-012
-2.498840e-010
-4.725027e-010
-6.786257e-010
-8.754834e-010
-1.047650e-009
-1.176346e-009
-1.260045e-009
-1.314098e-009
-1.354596e-009
-1.386365e-009
-1.405043e-009
-1.406319e-009
-1.391441e-009
-1.366137e-009
-1.336417e-009
-1.304176e-009
-1.264214e-009
-1.205639e-009
-1.119368e-009
-1.006110e-009
-8.747008e-010
-7.293879e-010
-5.601147e-010
-3.514191e-010
-1.052115e-010
1.478614e-010
3.658387e-010
5.256675e-010
6.306600e-010
6.834688e-010
6.575781e-010
5.103434e-010
2.353354e-010
-1.007032e-010
-3.843666e-010
-5.269459e-010
-5.101885e-010
-3.645991e-010
-1.188491e-010
2.061753e-010
5.454796e-010
7.554416e-010
6.754978e-010
2.623097e-010
-3.270645e-010
-8.025734e-010
-9.218270e-010
-6.377396e-010
-1.018450e-010
4.498823e-010
8.118025e-010
8.530929e-010
5.287663e-010
-7.952277e-011
-7.192389e-010
-1.028108e-009
-7.486726e-010
3.186836e-011
8.473116e-010
1.131742e-009
6.441503e-010
-3.048610e-010
-1.046398e-009
2.292084e-009
7.062549e-010
-1.073089e-009
-1.758886e-009
-1.079007e-009
2.076279e-010
1.068866e-009
1.012271e-009
3.082157e-010
-4.215922e-010
-7.606064e-010
-7.007374e-010
-4.315620e-010
-5.563125e-011
4.440527e-010
1.006338e-009
1.359987e-009
1.168040e-009
3.345773e-010
-8.374036e-010
-1.811457e-009
-2.167091e-009
-1.832464e-009
-1.036936e-009
-8.697484e-011
8.090596e-010
1.552889e-009
2.076956e-009
2.306366e-009
2.200836e-009
1.804940e-009
1.232948e-009
6.002651e-010
-2.734915e-011
-6.256276e-010
-1.173139e-009
-1.634811e-009
-1.981341e-009
-2.212744e-009
-2.354978e-009
-2.435227e-009
-2.464836e-009
-2.445157e-009
-2.383610e-009
-2.299340e-009
-2.214064e-009
-2.140524e-009
-2.080415e-009
-2.031228e-009
-1.993495e-009
-1.972260e-009
-1.972906e-009
-1.995221e-009
-2.030379e-009
-2.064129e-009
-2.084623e-009
-2.087326e-009
-2.070015e-009
-2.021386e-009
-1.916950e-009
-1.730786e-009
-1.453352e-009
-1.095586e-009
-6.743565e-010
-1.990856e-010
3.182925e-010
8.367881e-010
1.276794e-009
1.548428e-009
1.595806e-009
1.414425e-009
1.031025e-009
4.839298e-010
-1.587574e-010
-7.641824e-010
-1.148908e-009
-1.170267e-009
-8.309264e-010
-2.941988e-010
2.169231e-010
5.477976e-010
6.543089e-010
5.493328e-010
2.544536e-010
-1.629077e-010
-5.236273e-010
-5.817210e-010
-2.185014e-010
3.750276e-010
7.546578e-010
5.551274e-010
-1.570526e-010
-8.549680e-010
-9.419076e-010
-2.664345e-010
6.928798e-010
1.175932e-009
7.619026e-010
-2.596277e-010
-1.098868e-009
2.087762e-009
1.079719e-010
-1.899426e-009
-2.172189e-009
-5.102143e-010
1.695972e-009
2.682123e-009
1.708712e-009
-4.654425e-010
-2.297322e-009
-2.659744e-009
-1.541731e-009
1.847024e-010
1.550436e-009
2.096112e-009
1.901673e-009
1.235098e-009
2.835462e-010
-8.093724e-010
-1.779429e-009
-2.250266e-009
-1.969665e-009
-1.035932e-009
1.339308e-010
1.079970e-009
1.569431e-009
1.644476e-009
1.465785e-009
1.144746e-009
7.114131e-010
1.912172e-010
-3.364111e-010
-7.670952e-010
-1.041668e-009
-1.173254e-009
-1.209910e-009
-1.183685e-009
-1.098394e-009
-9.541866e-010
-7.691691e-010
-5.733495e-010
-3.881045e-010
-2.175163e-010
-5.839992e-011
8.646984e-011
2.071517e-010
2.957141e-010
3.531377e-010
3.863691e-010
3.999221e-010
3.915045e-010
3.557650e-010
2.915140e-010
2.042945e-010
1.011959e-010
-1.642656e-011
-1.532267e-010
-3.110536e-010
-4.802074e-010
-6.416716e-010
-7.786579e-010
-8.826000e-010
-9.436824e-010
-9.371189e-010
-8.274705e-010
-5.951118e-010
-2.592566e-010
1.297598e-010
5.204291e-010
8.724984e-010
1.132193e-009
1.206958e-009
9.970496e-010
4.839346e-010
-2.049464e-010
-8.372854e-010
-1.205665e-009
-1.231604e-009
-9.543448e-010
-4.459095e-010
2.214194e-010
9.059028e-010
1.336832e-009
1.218061e-009
4.817353e-010
-5.359850e-010
-1.231804e-009
-1.154062e-009
-3.744801e-010
5.321948e-010
9.235814e-010
5.884608e-010
-1.127260e-010
-5.779982e-010
-4.697899e-010
3.584163e-011
4.476153e-010
4.055539e-010
-1.922002e-011
-4.159226e-010
9.136655e-010
-3.433798e-010
-1.502002e-009
-1.357450e-009
1.362931e-010
1.835862e-009
2.347125e-009
1.163766e-009
-9.129674e-010
-2.401167e-009
-2.284724e-009
-7.456313e-010
1.070932e-009
1.989141e-009
1.624881e-009
4.811474e-010
-6.150054e-010
-1.144888e-009
-1.091482e-009
-6.916818e-010
-1.310544e-010
5.098157e-010
1.109825e-009
1.432384e-009
1.258934e-009
5.908416e-010
-3.119610e-010
-1.108140e-009
-1.594965e-009
-1.774235e-009
-1.744785e-009
-1.567931e-009
-1.239173e-009
-7.567403e-010
-1.797319e-010
3.929414e-010
8.887137e-010
1.295580e-009
1.636770e-009
1.926136e-009
2.153914e-009
2.307376e-009
2.392778e-009
2.432941e-009
2.448353e-009
2.446030e-009
2.425849e-009
2.392285e-009
2.356210e-009
2.326361e-009
2.302576e-009
2.279096e-009
2.252651e-009
2.224204e-009
2.191697e-009
2.143519e-009
2.062571e-009
1.937398e-009
1.766163e-009
1.546909e-009
1.266874e-009
9.097078e-010
4.793949e-010
1.488784e-011
-4.260040e-010
-7.990189e-010
-1.082891e-009
-1.251572e-009
-1.248020e-009
-1.011483e-009
-5.519929e-010
4.442177e-012
4.669008e-010
6.963983e-010
6.785731e-010
4.839523e-010
1.758433e-010
-2.111361e-010
-5.920688e-010
-7.729254e-010
-5.478643e-010
8.437073e-011
8.032601e-010
1.128921e-009
7.835323e-010
-5.517011e-011
-8.544927e-010
-1.115845e-009
-7.268331e-010
3.463044e-012
6.133725e-010
8.051316e-010
5.720436e-010
1.121212e-010
-3.298781e-010
-5.669505e-010
-5.113992e-010
-1.977065e-010
2.146290e-010
5.022264e-010
-8.144565e-010
-4.082353e-010
1.048207e-010
4.569011e-010
5.542447e-010
4.213111e-010
9.601142e-011
-3.463116e-010
-6.891631e-010
-6.165944e-010
1.274149e-011
8.971545e-010
1.378143e-009
9.281728e-010
-3.510482e-010
-1.702718e-009
-2.242462e-009
-1.604741e-009
-1.643520e-010
1.308072e-009
2.197756e-009
2.334309e-009
1.878259e-009
1.051462e-009
1.307679e-011
-1.073224e-009
-1.967439e-009
-2.426315e-009
-2.358205e-009
-1.882969e-009
-1.226382e-009
-5.584832e-010
7.112453e-011
6.707891e-010
1.218809e-009
1.651053e-009
1.918848e-009
2.035173e-009
2.056753e-009
2.030586e-009
1.966427e-009
1.855864e-009
1.704575e-009
1.538918e-009
1.386012e-009
1.256036e-009
1.145822e-009
1.054031e-009
9.873508e-010
9.528898e-010
9.501212e-010
9.736395e-010
1.021428e-009
1.095584e-009
1.193689e-009
1.303377e-009
1.409604e-009
1.505863e-009
1.591769e-009
1.655366e-009
1.661863e-009
1.568778e-009
1.356417e-009
1.038869e-009
6.401644e-010
1.664465e-010
-3.809522e-010
-9.537501e-010
-1.427659e-009
-1.649873e-009
-1.535797e-009
-1.123211e-009
-5.304542e-010
1.268600e-010
7.587672e-010
1.245320e-009
1.405310e-009
1.090401e-009
3.548938e-010
-4.811560e-010
-9.949804e-010
-9.481573e-010
-4.501073e-010
1.466014e-010
5.119621e-010
5.258218e-010
2.660368e-010
-1.090057e-010
-4.303653e-010
-5.256568e-010
-2.736609e-010
2.574350e-010
7.387252e-010
7.552276e-010
1.679513e-010
-6.641620e-010
-1.090303e-009
-7.034923e-010
2.594898e-010
1.059318e-009
-2.457364e-009
-2.578340e-010
1.973386e-009
2.341709e-009
7.025714e-010
-1.463834e-009
-2.453015e-009
-1.676472e-009
1.173912e-010
1.671414e-009
2.184668e-009
1.638104e-009
4.779084e-010
-8.064326e-010
-1.817852e-009
-2.200094e-009
-1.704775e-009
-4.229670e-010
1.103241e-009
2.129946e-009
2.184019e-009
1.355786e-009
1.651599e-010
-8.423233e-010
-1.398425e-009
-1.511819e-009
-1.285102e-009
-7.938740e-010
-1.169773e-010
5.970151e-010
1.159199e-009
1.449413e-009
1.480742e-009
1.350285e-009
1.138253e-009
8.625671e-010
5.168085e-010
1.249604e-010
-2.557793e-010
-5.784297e-010
-8.379091e-010
-1.057090e-009
-1.251075e-009
-1.412565e-009
-1.528134e-009
-1.598508e-009
-1.638317e-009
-1.660659e-009
-1.668233e-009
-1.659168e-009
-1.635190e-009
-1.599769e-009
-1.550907e-009
-1.481393e-009
-1.387293e-009
-1.271170e-009
-1.132463e-009
-9.574258e-010
-7.267055e-010
-4.375109e-010
-1.145553e-010
2.068197e-010
5.062706e-010
7.771072e-010
9.936930e-010
1.090008e-009
9.908801e-010
6.780443e-010
2.231508e-010
-2.519410e-010
-6.447666e-010
-8.939176e-010
-9.407429e-010
-7.093943e-010
-1.742246e-010
5.346396e-010
1.123629e-009
1.290154e-009
9.301465e-010
2.127872e-010
-5.410492e-010
-1.049381e-009
-1.162697e-009
-8.450322e-010
-1.654066e-010
6.406837e-010
1.164259e-009
1.027497e-009
2.247401e-010
-7.317539e-010
-1.120692e-009
-6.093003e-010
3.928657e-010
1.024131e-009
7.189928e-010
-2.565155e-010
-1.014996e-009
-8.509164e-010
9.954035e-011
9.724983e-010
-3.177043e-009
-1.476062e-010
2.830811e-009
3.103110e-009
5.911048e-010
-2.415741e-009
-3.407349e-009
-1.738492e-009
1.068834e-009
2.818344e-009
2.438025e-009
5.760255e-010
-1.247009e-009
-1.931003e-009
-1.407458e-009
-3.080092e-010
7.095767e-010
1.306311e-009
1.373620e-009
8.744050e-010
-1.109689e-010
-1.252277e-009
-2.032694e-009
-2.050574e-009
-1.293323e-009
-1.195522e-010
1.018067e-009
1.838149e-009
2.278868e-009
2.375750e-009
2.156755e-009
1.652534e-009
9.533517e-010
2.040884e-010
-4.699720e-010
-1.021630e-009
-1.465078e-009
-1.816872e-009
-2.066461e-009
-2.198419e-009
-2.224647e-009
-2.183073e-009
-2.108663e-009
-2.014345e-009
-1.900309e-009
-1.773395e-009
-1.651391e-009
-1.551364e-009
-1.480378e-009
-1.438694e-009
-1.426703e-009
-1.444586e-009
-1.487716e-009
-1.547949e-009
-1.620199e-009
-1.702379e-009
-1.784447e-009
-1.840239e-009
-1.836777e-009
-1.753543e-009
-1.587367e-009
-1.334811e-009
-9.770756e-010
-4.970543e-010
8.051194e-011
6.715439e-010
1.165712e-009
1.479343e-009
1.572228e-009
1.421124e-009
1.007510e-009
3.653317e-010
-3.550838e-010
-9.060582e-010
-1.074188e-009
-8.227547e-010
-3.097730e-010
2.307601e-010
6.157698e-010
7.361353e-010
5.209806e-010
-2.484736e-011
-7.014304e-010
-1.095055e-009
-8.216859e-010
9.436165e-011
1.085964e-009
1.400902e-009
7.296249e-010
-4.616058e-010
-1.261735e-009
-1.071887e-009
-1.160136e-010
7.710180e-010
8.888205e-010
2.648712e-010
-4.368156e-010
-5.742518e-010
-1.150312e-010
3.901351e-010
-2.285364e-009
-1.030187e-010
1.986176e-009
2.064157e-009
1.915262e-010
-1.810087e-009
-2.097924e-009
-4.597603e-010
1.569899e-009
2.149578e-009
7.692950e-010
-1.366701e-009
-2.459861e-009
-1.646569e-009
4.049236e-010
2.203883e-009
2.658056e-009
1.727016e-009
1.418122e-010
-1.303267e-009
-2.184720e-009
-2.402170e-009
-1.965019e-009
-9.509411e-010
3.845423e-010
1.601760e-009
2.284426e-009
2.284806e-009
1.767841e-009
1.030840e-009
2.942638e-010
-3.572836e-010
-8.965640e-010
-1.278264e-009
-1.451718e-009
-1.416132e-009
-1.231482e-009
-9.706036e-010
-6.720880e-010
-3.418958e-010
1.324793e-011
3.681061e-010
6.929829e-010
9.741185e-010
1.214182e-009
1.417086e-009
1.578616e-009
1.691173e-009
1.751841e-009
1.763051e-009
1.728497e-009
1.651640e-009
1.536292e-009
1.384245e-009
1.191966e-009
9.540803e-010
6.732227e-010
3.640004e-010
4.374379e-011
-2.777599e-010
-5.911114e-010
-8.662694e-010
-1.045843e-009
-1.070626e-009
-9.158333e-010
-5.989277e-010
-1.551382e-010
3.766616e-010
9.256521e-010
1.353635e-009
1.484698e-009
1.211994e-009
5.929294e-010
-1.680152e-010
-8.377650e-010
-1.254507e-009
-1.326323e-009
-9.926957e-010
-2.724986e-010
6.129010e-010
1.227708e-009
1.164957e-009
4.074461e-010
-5.493914e-010
-1.020695e-009
-6.807936e-010
1.542462e-010
7.923141e-010
7.500878e-010
1.289079e-010
-5.320615e-010
-7.428706e-010
-4.304093e-010
9.457721e-011
4.553994e-010
4.872447e-010
2.737096e-010
-1.639656e-012
-2.071101e-010
-3.053189e-010
1.495825e-010
3.129375e-011
-1.644449e-010
-3.567679e-010
-3.955561e-010
-1.107426e-010
5.048899e-010
1.115382e-009
1.142119e-009
2.327958e-010
-1.253653e-009
-2.296225e-009
-1.943900e-009
-1.770595e-010
1.917123e-009
2.916665e-009
2.160641e-009
2.204384e-010
-1.622707e-009
-2.364247e-009
-1.866248e-009
-6.818101e-010
5.260271e-010
1.377045e-009
1.757475e-009
1.636138e-009
1.016370e-009
3.646784e-011
-9.917621e-010
-1.724099e-009
-1.982833e-009
-1.817503e-009
-1.390254e-009
-8.273571e-010
-1.765070e-010
5.354199e-010
1.249486e-009
1.890991e-009
2.419185e-009
2.843020e-009
3.190092e-009
3.472035e-009
3.682574e-009
3.818667e-009
3.893061e-009
3.926328e-009
3.933009e-009
3.918039e-009
3.882893e-009
3.831380e-009
3.769962e-009
3.704558e-009
3.636499e-009
3.559461e-009
3.460580e-009
3.327021e-009
3.151743e-009
2.929472e-009
2.645716e-009
2.275481e-009
1.801777e-009
1.238470e-009
6.306230e-010
3.064908e-011
-5.173216e-010
-9.601547e-010
-1.211469e-009
-1.174695e-009
-8.207811e-010
-2.497747e-010
3.407414e-010
7.636663e-010
9.223381e-010
7.950435e-010
3.849939e-010
-2.533079e-010
-9.191545e-010
-1.260275e-009
-9.758692e-010
-1.067718e-010
8.827994e-010
1.387761e-009
1.109140e-009
2.728207e-010
-5.706271e-010
-9.622136e-010
-7.976094e-010
-2.797369e-010
2.844433e-010
6.276026e-010
5.804673e-010
1.472930e-010
-4.145605e-010
-6.808915e-010
-3.796463e-010
3.028935e-010
7.928492e-010
6.174373e-010
-1.208392e-010
-7.869839e-010
3.004703e-009
2.941632e-010
-2.406265e-009
-2.794143e-009
-8.122790e-010
1.664990e-009
2.673671e-009
1.706975e-009
-2.330258e-010
-1.732096e-009
-2.009526e-009
-1.160672e-009
2.092197e-010
1.389437e-009
1.784992e-009
1.115918e-009
-3.468058e-010
-1.773878e-009
-2.226414e-009
-1.323743e-009
4.416568e-010
2.057188e-009
2.708913e-009
2.247858e-009
1.087272e-009
-2.327132e-010
-1.358975e-009
-2.128362e-009
-2.435571e-009
-2.204487e-009
-1.478171e-009
-4.624981e-010
5.736899e-010
1.451892e-009
2.140177e-009
2.681651e-009
3.098634e-009
3.372392e-009
3.490151e-009
3.481206e-009
3.399112e-009
3.280687e-009
3.132128e-009
2.950251e-009
2.746460e-009
2.546938e-009
2.375378e-009
2.240980e-009
2.142241e-009
2.078073e-009
2.053114e-009
2.073038e-009
2.136055e-009
2.230044e-009
2.339453e-009
2.455582e-009
2.577491e-009
2.698661e-009
2.792440e-009
2.815817e-009
2.731799e-009
2.525103e-009
2.190526e-009
1.711484e-009
1.070293e-009
2.988512e-010
-4.822600e-010
-1.096211e-009
-1.401495e-009
-1.357697e-009
-1.007037e-009
-4.188293e-010
3.084830e-010
9.844857e-010
1.324606e-009
1.104718e-009
3.791851e-010
-4.677770e-010
-9.506070e-010
-8.230941e-010
-2.315350e-010
4.363537e-010
8.283040e-010
7.818760e-010
3.159924e-010
-3.945701e-010
-1.002329e-009
-1.076700e-009
-4.142190e-010
6.457057e-010
1.318075e-009
9.885284e-010
-1.516758e-010
-1.147122e-009
-1.105215e-009
-6.941157e-011
9.684590e-010
1.011827e-009
4.897705e-011
-9.291812e-010
4.607646e-009
4.685001e-010
-3.501859e-009
-3.797312e-009
-6.576381e-010
2.666260e-009
3.211225e-009
8.769865e-010
-1.912829e-009
-2.706416e-009
-1.112111e-009
1.256416e-009
2.477312e-009
1.851037e-009
7.231117e-011
-1.649752e-009
-2.461830e-009
-2.121651e-009
-8.391754e-010
8.778724e-010
2.317776e-009
2.803863e-009
2.080980e-009
5.281648e-010
-1.065840e-009
-2.012690e-009
-2.088209e-009
-1.492572e-009
-5.552367e-010
4.860945e-010
1.488318e-009
2.315020e-009
2.831426e-009
2.987220e-009
2.860378e-009
2.591173e-009
2.275563e-009
1.927297e-009
1.526899e-009
1.081634e-009
6.300425e-010
2.038819e-010
-1.954172e-010
-5.800900e-010
-9.461909e-010
-1.267166e-009
-1.513708e-009
-1.673607e-009
-1.751344e-009
-1.753310e-009
-1.678629e-009
-1.525488e-009
-1.303592e-009
-1.035986e-009
-7.453193e-010
-4.382718e-010
-1.065115e-010
2.549712e-010
6.333129e-010
1.006018e-009
1.361382e-009
1.698541e-009
1.995650e-009
2.181504e-009
2.157567e-009
1.865621e-009
1.336698e-009
6.706982e-010
-2.177431e-011
-6.374398e-010
-1.043555e-009
-1.072384e-009
-6.244261e-010
1.833712e-010
9.961004e-010
1.408684e-009
1.227579e-009
5.766341e-010
-2.256221e-010
-8.619680e-010
-1.109492e-009
-8.490664e-010
-1.329062e-010
6.997022e-010
1.089728e-009
6.509067e-010
-3.841911e-010
-1.186094e-009
-9.899062e-010
1.374007e-010
1.231575e-009
1.272563e-009
1.829300e-010
-1.038749e-009
-1.260187e-009
-3.270858e-010
7.911948e-010
9.923725e-010
1.577415e-010
-7.597294e-010
3.841967e-009
3.001492e-010
-2.907906e-009
-2.788478e-009
8.764536e-011
2.534414e-009
2.089611e-009
-6.497579e-010
-2.835382e-009
-2.269737e-009
5.433659e-010
3.048162e-009
3.100188e-009
7.832973e-010
-1.945291e-009
-3.109860e-009
-2.206415e-009
-1.967922e-010
1.560527e-009
2.262494e-009
1.847523e-009
6.756665e-010
-7.539932e-010
-1.892080e-009
-2.243381e-009
-1.598657e-009
-1.997322e-010
1.388443e-009
2.630599e-009
3.293126e-009
3.434928e-009
3.213998e-009
2.744100e-009
2.100903e-009
1.381563e-009
6.967121e-010
1.012627e-010
-4.397734e-010
-1.003871e-009
-1.637130e-009
-2.330568e-009
-3.053518e-009
-3.788616e-009
-4.527369e-009
-5.242680e-009
-5.879787e-009
-6.378043e-009
-6.697995e-009
-6.826377e-009
-6.761306e-009
-6.501736e-009
-6.055637e-009
-5.455314e-009
-4.757544e-009
-4.023108e-009
-3.294906e-009
-2.596263e-009
-1.946084e-009
-1.364749e-009
-8.557508e-010
-3.847858e-010
1.069660e-010
6.531966e-010
1.222838e-009
1.734141e-009
2.105250e-009
2.279807e-009
2.205019e-009
1.819225e-009
1.112164e-009
2.209587e-010
-5.624939e-010
-9.367004e-010
-7.856653e-010
-2.465972e-010
4.004599e-010
8.884210e-010
1.024168e-009
6.894139e-010
-8.340591e-011
-9.770329e-010
-1.430116e-009
-1.008534e-009
1.332415e-010
1.206102e-009
1.367666e-009
4.845581e-010
-6.796937e-010
-1.122966e-009
-5.257681e-010
4.674113e-010
8.972013e-010
4.202427e-010
-4.075207e-010
-7.477949e-010
-3.306902e-010
3.306300e-010
5.355613e-010
1.367857e-010
-3.505782e-010
9.941069e-010
-1.697084e-010
-9.653772e-010
-3.951155e-010
8.976930e-010
1.333930e-009
1.515654e-010
-1.647941e-009
-2.204992e-009
-6.978760e-010
1.697989e-009
2.820881e-009
1.561504e-009
-1.058150e-009
-2.804373e-009
-2.232681e-009
1.240824e-010
2.370093e-009
2.907970e-009
1.576874e-009
-5.514339e-010
-2.206536e-009
-2.727326e-009
-2.138304e-009
-7.981699e-010
8.659216e-010
2.406590e-009