# vtk DataFile Version 3.0
vtk output
ASCII
DATASET STRUCTURED_POINTS
DIMENSIONS 100 100 1
SPACING 1 1 1
ORIGIN 0 0 0
POINT_DATA 10000
SCALARS SFBox_profile double
LOOKUP_TABLE default 
0.000000e+000
0.000000e+000
0.000000e+000
0.000000e+000
0.000000e+000
0.000000e+000
0.000000e+000
0.000000e+000
0.000000e+000
0.000000e+000
0.000000e+000
0.000000e+000
0.000000e+000
0.000000e+000
0.000000e+000
0.000000e+000
0.000000e+000
0.000000e+000
0.000000e+000
0.000000e+000
0.000000e+000
0.000000e+000
0.000000e+000
0.000000e+000
0.000000e+000
0.000000e+000
0.000000e+000
0.000000e+000
0.000000e+000
0.000000e+000
0.000000e+000
0.000000e+000
0.000000e+000
0.000000e+000
0.000000e+000
0.000000e+000
0.000000e+000
0.000000e+000
0.000000e+000
0.000000e+000
0.000000e+000
0.000000e+000
0.000000e+000
0.000000e+000
0.000000e+000
0.000000e+000
0.000000e+000
0.000000e+000
0.000000e+000
0.000000e+000
0.000000e+000
0.000000e+000
0.000000e+000
0.000000e+000
0.000000e+000
0.000000e+000
0.000000e+000
0.000000e+000
0.000000e+000
0.000000e+000
0.000000e+000
0.000000e+000
0.000000e+000
0.000000e+000
0.000000e+000
0.000000e+000
0.000000e+000
0.000000e+000
0.000000e+000
0.000000e+000
0.000000e+000
0.000000e+000
0.000000e+000
0.000000e+000
0.000000e+000
0.000000e+000
0.000000e+000
0.000000e+000
0.000000e+000
0.000000e+000
0.000000e+000
0.000000e+000
0.000000e+000
0.000000e+000
0.000000e+000
0.000000e+000
0.000000e+000
0.000000e+000
0.000000e+000
0.000000e+000
0.000000e+000
0.000000e+000
0.000000e+000
0.000000e+000
0.000000e+000
0.000000e+000
0.000000e+000
0.000000e+000
0.000000e+000
0.000000e+000
1.712376e-011
1.697053e-011
1.663114e-011
1.605549e-011
1.517944e-011
1.393241e-011
1.223940e-011
1.005310e-011
7.359294e-012
4.177656e-012
5.497887e-013
-3.442276e-012
-7.691497e-012
-1.206348e-011
-1.642043e-011
-2.061566e-011
-2.450828e-011
-2.797162e-011
-3.089762e-011
-3.319463e-011
-3.480012e-011
-3.566889e-011
-3.576989e-011
-3.511036e-011
-3.369943e-011
-3.157206e-011
-2.877218e-011
-2.536608e-011
-2.143363e-011
-1.705959e-011
-1.235700e-011
-7.436962e-012
-2.411554e-012
2.604780e-012
7.507661e-012
1.219440e-011
1.658135e-011
2.059641e-011
2.419281e-011
2.733675e-011
3.000590e-011
3.219265e-011
3.391282e-011
3.518730e-011
3.603302e-011
3.647907e-011
3.657163e-011
3.635561e-011
3.586189e-011
3.512401e-011
3.419130e-011
3.309466e-011
3.186963e-011
3.054352e-011
2.914837e-011
2.770678e-011
2.624359e-011
2.477712e-011
2.332187e-011
2.188341e-011
2.048396e-011
1.914001e-011
1.786020e-011
1.663755e-011
1.549067e-011
1.441960e-011
1.343065e-011
1.252402e-011
1.170381e-011
1.096794e-011
1.031624e-011
9.739651e-012
9.234778e-012
8.788510e-012
8.393555e-012
8.028508e-012
7.675952e-012
7.321080e-012
6.945236e-012
6.539610e-012
6.090700e-012
5.588881e-012
5.028148e-012
4.416395e-012
3.766141e-012
3.085150e-012
2.382862e-012
1.675740e-012
9.791285e-013
3.036328e-013
-3.453869e-013
-9.531206e-013
-1.511036e-012
-2.017351e-012
-2.463169e-012
-2.844878e-012
-3.161900e-012
-3.413987e-012
-3.579850e-012
-3.662013e-012
1.650430e-011
1.632334e-011
1.593343e-011
1.528809e-011
1.433010e-011
1.299612e-011
1.123085e-011
8.997814e-012
6.288563e-012
3.130576e-012
-4.226556e-013
-4.282046e-012
-8.338644e-012
-1.246491e-011
-1.652265e-011
-2.037792e-011
-2.389859e-011
-2.697170e-011
-2.949972e-011
-3.141111e-011
-3.265030e-011
-3.318211e-011
-3.299683e-011
-3.209833e-011
-3.051013e-011
-2.826541e-011
-2.541332e-011
-2.202187e-011
-1.816947e-011
-1.394406e-011
-9.442518e-012
-4.769483e-012
-3.723951e-014
4.654430e-012
9.201607e-012
1.351597e-011
1.751986e-011
2.115118e-011
2.436722e-011
2.713987e-011
2.945416e-011
3.130784e-011
3.272181e-011
3.371621e-011
3.431303e-011
3.454324e-011
3.445411e-011
3.408722e-011
3.347430e-011
3.265095e-011
3.166270e-011
3.054046e-011
2.931368e-011
2.801256e-011
2.666076e-011
2.527889e-011
2.388745e-011
2.250888e-011
2.115055e-011
1.982088e-011
1.853476e-011
1.730205e-011
1.613360e-011
1.502706e-011
1.398817e-011
1.302381e-011
1.213971e-011
1.133504e-011
1.061383e-011
9.974144e-012
9.412990e-012
8.925735e-012
8.505128e-012
8.140693e-012
7.821385e-012
7.531333e-012
7.251791e-012
6.959115e-012
6.647729e-012
6.295378e-012
5.895447e-012
5.443423e-012
4.935376e-012
4.376067e-012
3.779468e-012
3.153188e-012
2.501658e-012
1.839955e-012
1.185132e-012
5.418769e-013
-8.256328e-014
-6.826549e-013
-1.251521e-012
-1.783828e-012
-2.265066e-012
-2.687989e-012
-3.050386e-012
-3.336513e-012
-3.531085e-012
-3.627791e-012
1.526097e-011
1.502708e-011
1.453830e-011
1.376101e-011
1.265289e-011
1.116848e-011
9.277101e-012
6.960398e-012
4.234663e-012
1.142320e-012
-2.246592e-012
-5.835860e-012
-9.511744e-012
-1.315139e-011
-1.662996e-011
-1.982792e-011
-2.263324e-011
-2.495935e-011
-2.673809e-011
-2.791360e-011
-2.845945e-011
-2.836178e-011
-2.763195e-011
-2.628964e-011
-2.437162e-011
-2.191775e-011
-1.898246e-011
-1.563480e-011
-1.195283e-011
-8.020408e-012
-3.918746e-012
2.587757e-013
4.416755e-012
8.465900e-012
1.231951e-011
1.590831e-011
1.916875e-011
2.205364e-011
2.453382e-011
2.659166e-011
2.822552e-011
2.944407e-011
3.026999e-011
3.073184e-011
3.085837e-011
3.068796e-011
3.025682e-011
2.961268e-011
2.878521e-011
2.781220e-011
2.672979e-011
2.556694e-011
2.434705e-011
2.309754e-011
2.183634e-011
2.057718e-011
1.933544e-011
1.812383e-011
1.695535e-011
1.583133e-011
1.475446e-011
1.373887e-011
1.278517e-011
1.189313e-011
1.106606e-011
1.030578e-011
9.618493e-012
9.003828e-012
8.468751e-012
8.008778e-012
7.621957e-012
7.302886e-012
7.041306e-012
6.832120e-012
6.665199e-012
6.517700e-012
6.374390e-012
6.214901e-012
6.022103e-012
5.784277e-012
5.495187e-012
5.144454e-012
4.741609e-012
4.290039e-012
3.801763e-012
3.278434e-012
2.724983e-012
2.155456e-012
1.581579e-012
1.000292e-012
4.143552e-013
-1.758255e-013
-7.610039e-013
-1.336993e-012
-1.885149e-012
-2.386441e-012
-2.821703e-012
-3.175001e-012
-3.421777e-012
-3.545120e-012
1.337960e-011
1.307127e-011
1.245034e-011
1.150082e-011
1.019963e-011
8.526521e-012
6.484620e-012
4.085801e-012
1.375552e-012
-1.583328e-012
-4.706169e-012
-7.878279e-012
-1.098843e-011
-1.392003e-011
-1.656811e-011
-1.883545e-011
-2.064108e-011
-2.193038e-011
-2.266808e-011
-2.283683e-011
-2.243731e-011
-2.149052e-011
-2.002825e-011
-1.809680e-011
-1.574761e-011
-1.303470e-011
-1.002001e-011
-6.773640e-012
-3.367074e-012
1.235251e-013
3.629987e-012
7.077764e-012
1.039253e-011
1.350699e-011
1.635907e-011
1.890143e-011
2.109764e-011
2.291972e-011
2.435896e-011
2.541101e-011
2.609552e-011
2.642936e-011
2.644390e-011
2.617585e-011
2.566706e-011
2.495199e-011
2.407668e-011
2.307220e-011
2.197709e-011
2.082087e-011
1.963634e-011
1.844080e-011
1.725504e-011
1.609813e-011
1.498009e-011
1.390724e-011
1.288508e-011
1.192183e-011
1.102396e-011
1.018542e-011
9.406192e-012
8.687604e-012
8.034276e-012
7.436606e-012
6.897473e-012
6.416781e-012
5.998482e-012
5.645992e-012
5.358523e-012
5.138303e-012
4.985424e-012
4.894220e-012
4.855238e-012
4.864373e-012
4.903748e-012
4.960330e-012
5.011250e-012
5.042880e-012
5.034246e-012
4.974244e-012
4.856525e-012
4.673651e-012
4.436834e-012
4.149180e-012
3.818011e-012
3.446890e-012
3.036728e-012
2.600606e-012
2.134821e-012
1.634975e-012
1.095961e-012
5.171974e-013
-9.318629e-014
-7.281961e-013
-1.359506e-012
-1.959014e-012
-2.495606e-012
-2.933719e-012
-3.243406e-012
-3.402817e-012
1.085865e-011
1.046572e-011
9.694497e-012
8.553656e-012
7.050858e-012
5.195065e-012
3.022841e-012
5.835734e-013
-2.044474e-012
-4.770455e-012
-7.492117e-012
-1.009684e-011
-1.246266e-011
-1.449632e-011
-1.610957e-011
-1.723393e-011
-1.783195e-011
-1.787961e-011
-1.738863e-011
-1.637525e-011
-1.487971e-011
-1.295962e-011
-1.067297e-011
-8.090669e-012
-5.282104e-012
-2.322736e-012
7.217829e-013
3.778424e-012
6.782197e-012
9.672265e-012
1.239356e-011
1.489247e-011
1.712160e-011
1.904472e-011
2.063143e-011
2.186587e-011
2.273720e-011
2.324440e-011
2.340196e-011
2.323422e-011
2.277174e-011
2.204769e-011
2.111042e-011
2.000033e-011
1.876366e-011
1.744460e-011
1.607698e-011
1.469905e-011
1.333575e-011
1.201434e-011
1.075520e-011
9.570949e-012
8.470430e-012
7.461614e-012
6.544975e-012
5.723564e-012
4.992137e-012
4.348352e-012
3.787769e-012
3.300953e-012
2.877736e-012
2.517917e-012
2.217974e-012
1.966943e-012
1.764153e-012
1.608292e-012
1.502815e-012
1.445804e-012
1.441484e-012
1.492341e-012
1.603282e-012
1.770160e-012
1.990523e-012
2.249757e-012
2.541096e-012
2.843031e-012
3.138278e-012
3.410713e-012
3.644133e-012
3.825453e-012
3.944857e-012
3.996952e-012
3.988992e-012
3.924301e-012
3.806057e-012
3.633361e-012
3.414159e-012
3.140372e-012
2.804352e-012
2.394077e-012
1.900349e-012
1.329077e-012
6.878428e-013
-9.199006e-015
-7.351990e-013
-1.441949e-012
-2.084734e-012
-2.615536e-012
-2.993060e-012
-3.189512e-012
7.693205e-012
7.219572e-012
6.308397e-012
4.993158e-012
3.315597e-012
1.324591e-012
-9.054669e-013
-3.288792e-012
-5.719904e-012
-8.080266e-012
-1.025897e-011
-1.213409e-011
-1.359740e-011
-1.457183e-011
-1.500048e-011
-1.484923e-011
-1.411658e-011
-1.282890e-011
-1.102662e-011
-8.775272e-012
-6.153522e-012
-3.247849e-012
-1.505367e-013
3.046663e-012
6.252134e-012
9.377352e-012
1.234654e-011
1.508420e-011
1.753638e-011
1.965594e-011
2.140434e-011
2.275440e-011
2.369365e-011
2.421992e-011
2.433915e-011
2.406546e-011
2.342589e-011
2.245271e-011
2.118458e-011
1.967358e-011
1.796489e-011
1.611928e-011
1.418392e-011
1.221261e-011
1.025473e-011
8.349871e-012
6.532548e-012
4.829508e-012
3.263096e-012
1.847116e-012
5.903487e-013
-5.042997e-013
-1.441582e-012
-2.226256e-012
-2.864262e-012
-3.367177e-012
-3.748009e-012
-4.016977e-012
-4.187849e-012
-4.280753e-012
-4.308347e-012
-4.279183e-012
-4.201516e-012
-4.086882e-012
-3.938989e-012
-3.763778e-012
-3.554723e-012
-3.314025e-012
-3.035627e-012
-2.712450e-012
-2.338575e-012
-1.916473e-012
-1.440972e-012
-9.232591e-013
-3.734016e-013
1.923982e-013
7.590654e-013
1.310063e-012
1.828255e-012
2.302918e-012
2.718890e-012
3.070657e-012
3.357209e-012
3.577036e-012
3.727379e-012
3.802820e-012
3.802081e-012
3.711867e-012
3.516442e-012
3.200745e-012
2.755284e-012
2.189591e-012
1.514533e-012
7.524550e-013
-5.860523e-014
-8.656999e-013
-1.607044e-012
-2.221132e-012
-2.660043e-012
-2.891326e-012
3.910408e-012
3.373761e-012
2.354665e-012
9.118561e-013
-8.645599e-013
-2.892681e-012
-5.065935e-012
-7.255441e-012
-9.332397e-012
-1.116548e-011
-1.263423e-011
-1.362350e-011
-1.404938e-011
-1.384916e-011
-1.300600e-011
-1.152443e-011
-9.442158e-012
-6.822856e-012
-3.750714e-012
-3.289662e-013
3.330987e-012
7.116699e-012
1.090132e-011
1.457339e-011
1.802487e-011
2.115609e-011
2.388327e-011
2.613269e-011
2.785886e-011
2.903289e-011
2.963106e-011
2.966253e-011
2.914922e-011
2.812580e-011
2.663773e-011
2.474146e-011
2.250068e-011
1.997931e-011
1.724867e-011
1.437953e-011
1.144843e-011
8.521764e-012
5.660649e-012
2.916131e-012
3.396563e-013
-2.034174e-012
-4.176561e-012
-6.072039e-012
-7.710788e-012
-9.092143e-012
-1.022718e-011
-1.111832e-011
-1.178407e-011
-1.224562e-011
-1.252442e-011
-1.264286e-011
-1.261974e-011
-1.247450e-011
-1.222763e-011
-1.190565e-011
-1.153175e-011
-1.111277e-011
-1.066622e-011
-1.020007e-011
-9.723159e-012
-9.238964e-012
-8.744623e-012
-8.238799e-012
-7.711528e-012
-7.155716e-012
-6.558227e-012
-5.919261e-012
-5.229435e-012
-4.493975e-012
-3.712005e-012
-2.898184e-012
-2.068975e-012
-1.235294e-012
-4.102341e-013
3.907554e-013
1.146464e-012
1.846491e-012
2.479703e-012
3.043704e-012
3.512606e-012
3.880954e-012
4.127778e-012
4.235659e-012
4.188969e-012
3.972284e-012
3.578831e-012
3.021859e-012
2.317885e-012
1.500245e-012
6.190784e-013
-2.632664e-013
-1.074299e-012
-1.749960e-012
-2.234353e-012
-2.487756e-012
-4.385661e-013
-1.008591e-012
-2.078818e-012
-3.556639e-012
-5.324001e-012
-7.253096e-012
-9.201187e-012
-1.102298e-011
-1.256046e-011
-1.368315e-011
-1.427509e-011
-1.423969e-011
-1.351316e-011
-1.207775e-011
-9.942937e-012
-7.158608e-012
-3.797699e-012
3.559090e-014
4.223286e-012
8.636487e-012
1.313188e-011
1.757179e-011
2.181609e-011
2.572814e-011
2.919234e-011
3.210384e-011
3.436985e-011
3.592440e-011
3.673044e-011
3.677657e-011
3.606762e-011
3.464128e-011
3.256310e-011
2.990267e-011
2.675057e-011
2.320274e-011
1.936572e-011
1.533898e-011
1.122256e-011
7.112105e-012
3.097652e-012
-7.428764e-013
-4.349803e-012
-7.665767e-012
-1.065263e-011
-1.328411e-011
-1.554093e-011
-1.742313e-011
-1.893999e-011
-2.010835e-011
-2.095198e-011
-2.149598e-011
-2.177071e-011
-2.180989e-011
-2.164634e-011
-2.131406e-011
-2.084247e-011
-2.025817e-011
-1.958492e-011
-1.885751e-011
-1.809564e-011
-1.731842e-011
-1.653568e-011
-1.576614e-011
-1.501151e-011
-1.427601e-011
-1.355775e-011
-1.285172e-011
-1.214400e-011
-1.142292e-011
-1.067824e-011
-9.898284e-012
-9.074535e-012
-8.192371e-012
-7.250927e-012
-6.255102e-012
-5.212619e-012
-4.131743e-012
-3.020387e-012
-1.897991e-012
-7.918800e-013
2.821968e-013
1.305722e-012
2.249322e-012
3.083701e-012
3.775091e-012
4.298310e-012
4.627726e-012
4.739387e-012
4.630275e-012
4.292548e-012
3.748045e-012
3.026236e-012
2.175800e-012
1.255157e-012
3.370926e-013
-5.045651e-013
-1.203232e-012
-1.705032e-012
-1.967633e-012
-5.261081e-012
-5.821158e-012
-6.862038e-012
-8.259049e-012
-9.866042e-012
-1.151631e-011
-1.305172e-011
-1.429622e-011
-1.510173e-011
-1.532786e-011
-1.488521e-011
-1.370798e-011
-1.176764e-011
-9.086980e-012
-5.714958e-012
-1.735223e-012
2.739903e-012
7.578057e-012
1.263120e-011
1.775004e-011
2.277862e-011
2.756029e-011
3.194385e-011
3.578651e-011
3.896306e-011
4.136701e-011
4.291182e-011
4.353310e-011
4.320978e-011
4.195451e-011
3.980045e-011
3.681916e-011
3.311198e-011
2.879948e-011
2.400758e-011
1.888569e-011
1.357393e-011
8.204947e-012
2.907687e-012
-2.208358e-012
-7.035582e-012
-1.150545e-011
-1.555047e-011
-1.913247e-011
-2.222191e-011
-2.480913e-011
-2.689862e-011
-2.850347e-011
-2.965914e-011
-3.039747e-011
-3.076714e-011
-3.080732e-011
-3.056279e-011
-3.007972e-011
-2.939929e-011
-2.856668e-011
-2.762199e-011
-2.659264e-011
-2.550951e-011
-2.440105e-011
-2.329320e-011
-2.220848e-011
-2.115674e-011
-2.014963e-011
-1.919308e-011
-1.828957e-011
-1.743574e-011
-1.661883e-011
-1.582750e-011
-1.504736e-011
-1.426148e-011
-1.345194e-011
-1.259843e-011
-1.168502e-011
-1.069947e-011
-9.628801e-012
-8.473328e-012
-7.228422e-012
-5.899289e-012
-4.506523e-012
-3.076044e-012
-1.633424e-012
-2.175319e-013
1.128362e-012
2.348904e-012
3.394529e-012
4.219386e-012
4.791385e-012
5.081377e-012
5.088994e-012
4.818159e-012
4.303277e-012
3.591543e-012
2.741644e-012
1.824975e-012
9.193234e-013
9.530117e-014
-5.836091e-013
-1.069585e-012
-1.325057e-012
-1.042326e-011
-1.092286e-011
-1.183370e-011
-1.301167e-011
-1.428368e-011
-1.545863e-011
-1.636102e-011
-1.681957e-011
-1.668880e-011
-1.585136e-011
-1.424629e-011
-1.185056e-011
-8.685316e-012
-4.811078e-012
-3.215943e-013
4.667028e-012
1.001223e-011
1.556115e-011
2.115255e-011
2.661831e-011
3.180102e-011
3.653972e-011
4.068173e-011
4.408349e-011
4.662210e-011
4.819658e-011
4.872383e-011
4.816187e-011
4.650345e-011
4.378103e-011
4.006919e-011
3.547484e-011
3.014736e-011
2.424955e-011
1.795530e-011
1.144770e-011
4.906250e-012
-1.507369e-012
-7.648751e-012
-1.338918e-011
-1.863741e-011
-2.331867e-011
-2.739188e-011
-3.082927e-011
-3.362686e-011
-3.580053e-011
-3.738017e-011
-3.840974e-011
-3.894188e-011
-3.903283e-011
-3.874536e-011
-3.813796e-011
-3.727263e-011
-3.619516e-011
-3.495915e-011
-3.360980e-011
-3.219797e-011
-3.075035e-011
-2.929865e-011
-2.786698e-011
-2.648293e-011
-2.516385e-011
-2.392540e-011
-2.277253e-011
-2.170947e-011
-2.073754e-011
-1.984962e-011
-1.903154e-011
-1.827349e-011
-1.755503e-011
-1.685430e-011
-1.614597e-011
-1.540525e-011
-1.460063e-011
-1.371549e-011
-1.271637e-011
-1.158833e-011
-1.031015e-011
-8.883148e-012
-7.315038e-012
-5.634357e-012
-3.880333e-012
-2.105265e-012
-3.767589e-013
1.228753e-012
2.635746e-012
3.783410e-012
4.619977e-012
5.116885e-012
5.267127e-012
5.093673e-012
4.642528e-012
3.979520e-012
3.178566e-012
2.319234e-012
1.477491e-012
7.233873e-013
1.085798e-013
-3.301484e-013
-5.575642e-013
-1.575979e-011
-1.614124e-011
-1.680988e-011
-1.761313e-011
-1.835985e-011
-1.885066e-011
-1.890972e-011
-1.837350e-011
-1.712084e-011
-1.507785e-011
-1.222697e-011
-8.594929e-012
-4.250003e-012
6.994412e-013
6.122391e-012
1.186782e-011
1.777520e-011
2.368190e-011
2.941962e-011
3.482553e-011
3.973816e-011
4.400797e-011
4.748921e-011
5.005016e-011
5.157306e-011
5.197174e-011
5.118031e-011
4.917311e-011
4.597924e-011
4.165768e-011
3.632651e-011
3.013777e-011
2.328168e-011
1.597511e-011
8.428963e-012
8.686932e-013
-6.504025e-012
-1.351203e-011
-1.999960e-011
-2.584689e-011
-3.097188e-011
-3.533253e-011
-3.890176e-011
-4.169282e-011
-4.373494e-011
-4.507652e-011
-4.578191e-011
-4.592891e-011
-4.559092e-011
-4.484655e-011
-4.376811e-011
-4.242978e-011
-4.089655e-011
-3.922424e-011
-3.746231e-011
-3.565461e-011
-3.384575e-011
-3.206647e-011
-3.033811e-011
-2.868576e-011
-2.713018e-011
-2.569028e-011
-2.436905e-011
-2.317600e-011
-2.211303e-011
-2.118046e-011
-2.036928e-011
-1.966361e-011
-1.905413e-011
-1.852045e-011
-1.803811e-011
-1.757532e-011
-1.709838e-011
-1.656737e-011
-1.594717e-011
-1.519242e-011
-1.425952e-011
-1.312274e-011
-1.175373e-011
-1.015271e-011
-8.351543e-012
-6.388530e-012
-4.335654e-012
-2.278719e-012
-3.243410e-013
1.435671e-012
2.906609e-012
4.027217e-012
4.758062e-012
5.092144e-012
5.063019e-012
4.728259e-012
4.172126e-012
3.478987e-012
2.731988e-012
2.010804e-012
1.372081e-012
8.610773e-013
5.026448e-013
3.203963e-013
-2.107424e-011
-2.127325e-011
-2.158220e-011
-2.184804e-011
-2.188007e-011
-2.148915e-011
-2.050235e-011
-1.878906e-011
-1.627237e-011
-1.292966e-011
-8.802363e-012
-3.969344e-012
1.442636e-012
7.285398e-012
1.339323e-011
1.958976e-011
2.570635e-011
3.157592e-011
3.703970e-011
4.194647e-011
4.614846e-011
4.950915e-011
5.190196e-011
5.320916e-011
5.333269e-011
5.220815e-011
4.980000e-011
4.611781e-011
4.122448e-011
3.522966e-011
2.830235e-011
2.064161e-011
1.248620e-011
4.096593e-012
-4.272833e-012
-1.237929e-011
-2.000526e-011
-2.696763e-011
-3.312721e-011
-3.838593e-011
-4.269809e-011
-4.605638e-011
-4.848377e-011
-5.003644e-011
-5.079800e-011
-5.085908e-011
-5.032391e-011
-4.930370e-011
-4.789670e-011
-4.619797e-011
-4.429307e-011
-4.225198e-011
-4.013942e-011
-3.800423e-011
-3.588282e-011
-3.380521e-011
-3.179913e-011
-2.988571e-011
-2.807733e-011
-2.638850e-011
-2.483718e-011
-2.342732e-011
-2.216935e-011
-2.106900e-011
-2.012679e-011
-1.934449e-011
-1.871408e-011
-1.822910e-011
-1.787395e-011
-1.763569e-011
-1.749484e-011
-1.741141e-011
-1.734731e-011
-1.725044e-011
-1.706998e-011
-1.673497e-011
-1.618853e-011
-1.537873e-011
-1.425756e-011
-1.280824e-011
-1.105171e-011
-9.033186e-012
-6.827736e-012
-4.546028e-012
-2.308169e-012
-2.422977e-013
1.540691e-012
2.954948e-012
3.949245e-012
4.519814e-012
4.694400e-012
4.546769e-012
4.162755e-012
3.644039e-012
3.072122e-012
2.523222e-012
2.046360e-012
1.675415e-012
1.422561e-012
1.294428e-012
-2.614642e-011
-2.610046e-011
-2.593350e-011
-2.550479e-011
-2.464334e-011
-2.318514e-011
-2.098888e-011
-1.796720e-011
-1.409422e-011
-9.421662e-012
-4.049866e-012
1.876323e-012
8.184427e-012
1.468364e-011
2.117479e-011
2.747713e-011
3.341806e-011
3.884281e-011
4.360369e-011
4.757145e-011
5.062285e-011
5.264349e-011
5.352721e-011
5.318267e-011
5.154345e-011
4.857685e-011
4.429668e-011
3.876593e-011
3.209862e-011
2.447265e-011
1.610877e-011
7.269442e-012
-1.761758e-012
-1.069266e-011
-1.923965e-011
-2.714616e-011
-3.420673e-011
-4.025467e-011
-4.518641e-011
-4.894967e-011
-5.155551e-011
-5.305738e-011
-5.355058e-011
-5.315692e-011
-5.202411e-011
-5.031160e-011
-4.816790e-011
-4.573713e-011
-4.314653e-011
-4.050267e-011
-3.789109e-011
-3.536930e-011
-3.298350e-011
-3.074943e-011
-2.867405e-011
-2.675248e-011
-2.497795e-011
-2.334566e-011
-2.184030e-011
-2.046595e-011
-1.922279e-011
-1.811185e-011
-1.714109e-011
-1.631837e-011
-1.565063e-011
-1.514702e-011
-1.481114e-011
-1.464061e-011
-1.463237e-011
-1.478577e-011
-1.507992e-011
-1.547909e-011
-1.594367e-011
-1.641757e-011
-1.682372e-011
-1.707962e-011
-1.709942e-011
-1.680864e-011
-1.613652e-011
-1.504252e-011
-1.352996e-011
-1.164138e-011
-9.454772e-012
-7.083911e-012
-4.674722e-012
-2.377820e-012
-3.225141e-013
1.381339e-012
2.668810e-012
3.523509e-012
3.973668e-012
4.088736e-012
3.958493e-012
3.682944e-012
3.348637e-012
3.022818e-012
2.747699e-012
2.541065e-012
2.411119e-012
2.347518e-012
-3.074239e-011
-3.039501e-011
-2.964388e-011
-2.838140e-011
-2.647656e-011
-2.380396e-011
-2.027871e-011
-1.586883e-011
-1.062556e-011
-4.663831e-012
1.844984e-012
8.698736e-012
1.566954e-011
2.253425e-011
2.907884e-011
3.511450e-011
4.048568e-011
4.505473e-011
4.869760e-011
5.130857e-011
5.279275e-011
5.306549e-011
5.204780e-011
4.969129e-011
4.597380e-011
4.091817e-011
3.461071e-011
2.718584e-011
1.883192e-011
9.804077e-012
3.921772e-013
-9.083563e-012
-1.830419e-011
-2.694552e-011
-3.471633e-011
-4.136985e-011
-4.672514e-011
-5.066209e-011
-5.313606e-011
-5.416905e-011
-5.386133e-011
-5.236026e-011
-4.985629e-011
-4.657857e-011
-4.276879e-011
-3.866466e-011
-3.449008e-011
-3.043052e-011
-2.664544e-011
-2.324472e-011
-2.030015e-011
-1.783722e-011
-1.584113e-011
-1.427005e-011
-1.306471e-011
-1.214839e-011
-1.144619e-011
-1.089555e-011
-1.043995e-011
-1.004633e-011
-9.688759e-012
-9.362120e-012
-9.077089e-012
-8.850579e-012
-8.704902e-012
-8.666281e-012
-8.761671e-012
-9.011090e-012
-9.431758e-012
-1.003795e-011
-1.082686e-011
-1.176887e-011
-1.283215e-011
-1.395784e-011
-1.506055e-011
-1.603396e-011
-1.677201e-011
-1.717206e-011
-1.713901e-011
-1.660213e-011
-1.554518e-011
-1.399607e-011
-1.202322e-011
-9.746628e-012
-7.317284e-012
-4.896306e-012
-2.643565e-012
-6.770916e-013
9.157701e-013
2.101233e-012
2.892972e-012
3.351918e-012
3.558942e-012
3.601186e-012
3.568142e-012
3.513029e-012
3.470500e-012
3.450126e-012
3.450496e-012
3.455352e-012
-3.463007e-011
-3.392976e-011
-3.250781e-011
-3.030885e-011
-2.724545e-011
-2.326356e-011
-1.834631e-011
-1.254270e-011
-5.978524e-012
1.155642e-012
8.623740e-012
1.616747e-011
2.351329e-011
3.041372e-011
3.665007e-011
4.204583e-011
4.646452e-011
4.979139e-011
5.192899e-011
5.279704e-011
5.234096e-011
5.050037e-011
4.724963e-011
4.259297e-011
3.658285e-011
2.932669e-011
2.100230e-011
1.184766e-011
2.143225e-012
-7.770360e-012
-1.753016e-011
-2.676095e-011
-3.510687e-011
-4.223183e-011
-4.784064e-011
-5.172183e-011
-5.373473e-011
-5.382401e-011
-5.203729e-011
-4.851153e-011
-4.347981e-011
-3.723670e-011
-3.012916e-011
-2.254563e-011
-1.487266e-011
-7.476559e-012
-6.845149e-013
5.242595e-012
1.011597e-011
1.382468e-011
1.634046e-011
1.771016e-011
1.804748e-011
1.751343e-011
1.630286e-011
1.462013e-011
1.266315e-011
1.061188e-011
8.606989e-012
6.758882e-012
5.125517e-012
3.737868e-012
2.579128e-012
1.610720e-012
7.798250e-013
1.707338e-014
-7.448185e-013
-1.571817e-012
-2.519898e-012
-3.635697e-012
-4.945221e-012
-6.449175e-012
-8.127596e-012
-9.929629e-012
-1.176511e-011
-1.352275e-011
-1.507454e-011
-1.629018e-011
-1.704634e-011
-1.725293e-011
-1.685387e-011
-1.585480e-011
-1.431142e-011
-1.232703e-011
-1.006042e-011
-7.671903e-012
-5.321602e-012
-3.152333e-012
-1.268512e-012
2.717471e-013
1.466557e-012
2.345257e-012
2.965636e-012
3.407170e-012
3.731664e-012
3.992287e-012
4.213072e-012
4.396692e-012
4.532731e-012
4.605114e-012
-3.758875e-011
-3.650037e-011
-3.434796e-011
-3.114024e-011
-2.686173e-011
-2.153453e-011
-1.523367e-011
-8.098682e-012
-3.397328e-013
7.777565e-012
1.595674e-011
2.389055e-011
3.127862e-011
3.786338e-011
4.343202e-011
4.782293e-011
5.092802e-011
5.265690e-011
5.293962e-011
5.173279e-011
4.901063e-011
4.476722e-011
3.904744e-011
3.193762e-011
2.359188e-011
1.423715e-011
4.174383e-012
-6.242784e-012
-1.661745e-011
-2.651722e-011
-3.550029e-011
-4.313013e-011
-4.900948e-011
-5.277600e-011
-5.414398e-011
-5.292174e-011
-4.903612e-011
-4.253082e-011
-3.358675e-011
-2.252960e-011
-9.804782e-012
4.041489e-012
1.839730e-011
3.263177e-011
4.610183e-011
5.824274e-011
6.856572e-011
7.670185e-011
8.241261e-011
8.560461e-011
8.632724e-011
8.476105e-011
8.119598e-011
7.600195e-011
6.960198e-011
6.244187e-011
5.494861e-011
4.751153e-011
4.044779e-011
3.398956e-011
2.828874e-011
2.341235e-011
1.934589e-011
1.601812e-011
1.331593e-011
1.109443e-011
9.199779e-012
7.486723e-012
5.822012e-012
4.096481e-012
2.226491e-012
1.666768e-013
-2.094611e-012
-4.530683e-012
-7.070366e-012
-9.600138e-012
-1.198432e-011
-1.407316e-011
-1.571999e-011
-1.680087e-011
-1.723129e-011
-1.698316e-011
-1.607935e-011
-1.461136e-011
-1.271055e-011
-1.052767e-011
-8.220705e-012
-5.942428e-012
-3.814005e-012
-1.917442e-012
-2.866685e-013
1.072584e-012
2.185911e-012
3.093247e-012
3.837423e-012
4.458684e-012
4.971458e-012
5.370931e-012
5.645739e-012
5.788829e-012
-3.942280e-011
-3.792499e-011
-3.501902e-011
-3.077546e-011
-2.527852e-011
-1.864230e-011
-1.104458e-011
-2.723404e-012
6.026017e-012
1.486848e-011
2.345623e-011
3.143970e-011
3.851561e-011
4.442577e-011
4.897606e-011
5.202518e-011
5.348719e-011
5.330190e-011
5.143062e-011
4.786948e-011
4.264583e-011
3.583223e-011
2.755945e-011
1.804727e-011
7.583780e-012
-3.456720e-012
-1.462848e-011
-2.543587e-011
-3.534877e-011
-4.381482e-011
-5.028485e-011
-5.422748e-011
-5.515621e-011
-5.265449e-011
-4.641147e-011
-3.626063e-011
-2.221596e-011
-4.489682e-012
1.649012e-011
4.007119e-011
6.542004e-011
9.157023e-011
1.174749e-010
1.420753e-010
1.643688e-010
1.834731e-010
1.986774e-010
2.094658e-010
2.155501e-010
2.168775e-010
2.136236e-010
2.061678e-010
1.950730e-010
1.810382e-010
1.648619e-010
1.473876e-010
1.294375e-010
1.117696e-010
9.502539e-011
7.970001e-011
6.612602e-011
5.446762e-011
4.473459e-011
3.681078e-011
3.048869e-011
2.549272e-011
2.151847e-011
1.827085e-011
1.547466e-011
1.289896e-011
1.035625e-011
7.717474e-012
4.907652e-012
1.909465e-012
-1.236196e-012
-4.447080e-012
-7.598508e-012
-1.053603e-011
-1.309464e-011
-1.512502e-011
-1.650868e-011
-1.717591e-011
-1.711417e-011
-1.637560e-011
-1.505559e-011
-1.327621e-011
-1.118007e-011
-8.916245e-012
-6.623813e-012
-4.403373e-012
-2.326178e-012
-4.453135e-013
1.214530e-012
2.651496e-012
3.874735e-012
4.896301e-012
5.725647e-012
6.355951e-012
6.777549e-012
6.989159e-012
-3.996336e-011
-3.806111e-011
-3.440764e-011
-2.915890e-011
-2.250527e-011
-1.467176e-011
-5.941781e-012
3.343500e-012
1.281097e-011
2.206141e-011
3.070298e-011
3.837792e-011
4.478115e-011
4.967119e-011
5.287257e-011
5.427082e-011
5.380196e-011
5.143366e-011
4.717423e-011
4.107131e-011
3.323771e-011
2.384964e-011
1.317889e-011
1.601670e-012
-1.042001e-011
-2.233671e-011
-3.352830e-011
-4.331790e-011
-5.099084e-011
-5.581378e-011
-5.703141e-011
-5.392030e-011
-4.581153e-011
-3.215650e-011
-1.259189e-011
1.299137e-011
4.437744e-011
8.099646e-011
1.219138e-010
1.658661e-010
2.113251e-010
2.566192e-010
3.000330e-010
3.399149e-010
3.747911e-010
4.034375e-010
4.249260e-010
4.386422e-010
4.442865e-010
4.418907e-010
4.317773e-010
4.145611e-010
3.911094e-010
3.625263e-010
3.300937e-010
2.952160e-010
2.593261e-010
2.238020e-010
1.898692e-010
1.585346e-010
1.305224e-010
1.062536e-010
8.585589e-011
6.919983e-011
5.595607e-011
4.564563e-011
3.771876e-011
3.160995e-011
2.679232e-011
2.280663e-011
1.927864e-011
1.592091e-011
1.254546e-011
9.050263e-012
5.407649e-012
1.649664e-012
-2.137309e-012
-5.814803e-012
-9.223749e-012
-1.219744e-011
-1.459339e-011
-1.629773e-011
-1.724224e-011
-1.742642e-011
-1.689420e-011
-1.572128e-011
-1.402215e-011
-1.193184e-011
-9.583740e-012
-7.104696e-012
-4.604728e-012
-2.192853e-012
5.103341e-014
2.066474e-012
3.817975e-012
5.285544e-012
6.459662e-012
7.337546e-012
7.916568e-012
8.198838e-012
-3.908643e-011
-3.680431e-011
-3.245095e-011
-2.628348e-011
-1.860439e-011
-9.755788e-012
-1.332424e-013
9.825832e-012
1.967780e-011
2.896986e-011
3.729525e-011
4.428849e-011
4.966154e-011
5.320070e-011
5.475336e-011
5.423111e-011
5.159255e-011
4.684677e-011
4.006082e-011
3.136681e-011
2.099662e-011
9.282082e-012
-3.331398e-012
-1.627802e-011
-2.887451e-011
-4.035825e-011
-4.986502e-011
-5.644771e-011