# vtk DataFile Version 3.0
vtk output
ASCII
DATASET STRUCTURED_POINTS
DIMENSIONS 100 100 1
SPACING 1 1 1
ORIGIN 0 0 0
POINT_DATA 10000
SCALARS SFBox_profile double
LOOKUP_TABLE default 
9.439920e-004
9.439920e-004
9.439920e-004
9.439920e-004
9.439920e-004
9.439920e-004
9.439920e-004
9.439920e-004
9.439920e-004
9.439920e-004
9.439920e-004
9.439920e-004
9.439920e-004
9.439920e-004
9.439920e-004
9.439920e-004
9.439920e-004
9.439920e-004
9.439920e-004
9.439920e-004
9.439920e-004
9.439920e-004
9.439920e-004
9.439920e-004
9.439920e-004
9.439920e-004
9.439920e-004
9.439920e-004
9.439920e-004
9.439920e-004
9.439920e-004
9.439920e-004
9.439920e-004
9.439920e-004
9.439920e-004
9.439920e-004
9.439920e-004
9.439920e-004
9.439920e-004
9.439920e-004
9.439920e-004
9.439920e-004
9.439920e-004
9.439920e-004
9.439920e-004
9.439920e-004
9.439920e-004
9.439920e-004
9.439920e-004
9.439920e-004
9.439920e-004
9.439920e-004
9.439920e-004
9.439920e-004
9.439920e-004
9.439920e-004
9.439920e-004
9.439920e-004
9.439920e-004
9.439920e-004
9.439920e-004
9.439920e-004
9.439920e-004
9.439920e-004
9.439920e-004
9.439920e-004
9.439920e-004
9.439920e-004
9.439920e-004
9.439920e-004
9.439920e-004
9.439920e-004
9.439920e-004
9.439920e-004
9.439920e-004
9.439920e-004
9.439920e-004
9.439920e-004
9.439920e-004
9.439920e-004
9.439920e-004
9.439920e-004
9.439920e-004
9.439920e-004
9.439920e-004
9.439920e-004
9.439920e-004
9.439920e-004
9.439920e-004
9.439920e-004
9.439920e-004
9.439920e-004
9.439920e-004
9.439920e-004
9.439920e-004
9.439920e-004
9.439920e-004
9.439920e-004
9.439920e-004
9.439920e-004
9.439920e-004
9.439920e-004
9.439920e-004
9.439920e-004
9.439920e-004
9.439920e-004
9.439920e-004
9.439920e-004
9.439920e-004
9.439920e-004
9.439920e-004
9.439920e-004
9.439920e-004
9.439920e-004
9.439920e-004
9.439920e-004
9.439920e-004
9.439920e-004
9.439920e-004
9.439920e-004
9.439920e-004
9.439920e-004
9.439920e-004
9.439920e-004
9.439920e-004
9.439920e-004
9.439920e-004
9.439920e-004
9.439920e-004
9.439920e-004
9.439920e-004
9.439920e-004
9.439920e-004
9.439920e-004
9.439920e-004
9.439920e-004
9.439920e-004
9.439920e-004
9.439920e-004
9.439920e-004
9.439920e-004
9.439920e-004
9.439920e-004
9.439920e-004
9.439920e-004
9.439920e-004
9.439920e-004
9.439920e-004
9.439920e-004
9.439920e-004
9.439920e-004
9.439920e-004
9.439920e-004
9.439920e-004
9.439920e-004
9.439920e-004
9.439920e-004
9.439920e-004
9.439920e-004
9.439920e-004
9.439920e-004
9.439920e-004
9.439920e-004
9.439920e-004
9.439920e-004
9.439920e-004
9.439920e-004
9.439920e-004
9.439920e-004
9.439920e-004
9.439920e-004
9.439920e-004
9.439920e-004
9.439920e-004
9.439920e-004
9.439920e-004
9.439920e-004
9.439920e-004
9.439920e-004
9.439920e-004
9.439920e-004
9.439920e-004
9.439920e-004
9.439920e-004
9.439920e-004
9.439920e-004
9.439920e-004
9.439920e-004
9.439920e-004
9.439920e-004
9.439920e-004
9.439920e-004
9.439920e-004
9.439920e-004
9.439920e-004
9.439920e-004
9.439920e-004
9.439920e-004
9.439920e-004
9.439920e-004
9.439920e-004
9.439920e-004
9.439920e-004
9.439920e-004
9.439920e-004
9.439920e-004
9.439920e-004
9.439920e-004
9.439920e-004
9.439920e-004
9.439920e-004
9.439920e-004
9.439920e-004
9.439920e-004
9.439920e-004
9.439920e-004
9.439920e-004
9.439920e-004
9.439920e-004
9.439920e-004
9.439920e-004
9.439920e-004
9.439920e-004
9.439920e-004
9.439920e-004
9.439920e-004
9.439920e-004
9.439920e-004
9.439920e-004
9.439920e-004
9.439920e-004
9.439920e-004
9.439920e-004
9.439920e-004
9.439920e-004
9.439920e-004
9.439920e-004
9.439920e-004
9.439920e-004
9.439920e-004
9.439920e-004
9.439920e-004
9.439919e-004
9.439919e-004
9.439919e-004
9.439919e-004
9.439919e-004
9.439919e-004
9.439919e-004
9.439919e-004
9.439919e-004
9.439919e-004
9.439919e-004
9.439919e-004
9.439919e-004
9.439919e-004
9.439919e-004
9.439919e-004
9.439920e-004
9.439920e-004
9.439920e-004
9.439920e-004
9.439920e-004
9.439920e-004
9.439920e-004
9.439920e-004
9.439920e-004
9.439920e-004
9.439920e-004
9.439920e-004
9.439920e-004
9.439920e-004
9.439920e-004
9.439920e-004
9.439920e-004
9.439920e-004
9.439920e-004
9.439920e-004
9.439920e-004
9.439920e-004
9.439920e-004
9.439920e-004
9.439920e-004
9.439920e-004
9.439920e-004
9.439920e-004
9.439920e-004
9.439920e-004
9.439920e-004
9.439920e-004
9.439920e-004
9.439920e-004
9.439920e-004
9.439920e-004
9.439920e-004
9.439920e-004
9.439920e-004
9.439920e-004
9.439920e-004
9.439920e-004
9.439920e-004
9.439920e-004
9.439920e-004
9.439920e-004
9.439920e-004
9.439920e-004
9.439920e-004
9.439920e-004
9.439920e-004
9.439920e-004
9.439920e-004
9.439920e-004
9.439920e-004
9.439920e-004
9.439920e-004
9.439920e-004
9.439920e-004
9.439920e-004
9.439920e-004
9.439920e-004
9.439920e-004
9.439920e-004
9.439920e-004
9.439920e-004
9.439920e-004
9.439920e-004
9.439920e-004
9.439920e-004
9.439920e-004
9.439920e-004
9.439920e-004
9.439920e-004
9.439920e-004
9.439920e-004
9.439920e-004
9.439920e-004
9.439919e-004
9.439919e-004
9.439919e-004
9.439919e-004
9.439919e-004
9.439919e-004
9.439919e-004
9.439919e-004
9.439919e-004
9.439918e-004
9.439918e-004
9.439918e-004
9.439918e-004
9.439918e-004
9.439918e-004
9.439918e-004
9.439918e-004
9.439918e-004
9.439918e-004
9.439918e-004
9.439919e-004
9.439919e-004
9.439919e-004
9.439919e-004
9.439919e-004
9.439919e-004
9.439919e-004
9.439919e-004
9.439920e-004
9.439920e-004
9.439920e-004
9.439920e-004
9.439920e-004
9.439920e-004
9.439920e-004
9.439920e-004
9.439920e-004
9.439920e-004
9.439920e-004
9.439920e-004
9.439920e-004
9.439920e-004
9.439920e-004
9.439920e-004
9.439920e-004
9.439920e-004
9.439920e-004
9.439920e-004
9.439920e-004
9.439920e-004
9.439920e-004
9.439920e-004
9.439920e-004
9.439920e-004
9.439920e-004
9.439920e-004
9.439920e-004
9.439920e-004
9.439920e-004
9.439920e-004
9.439920e-004
9.439920e-004
9.439920e-004
9.439920e-004
9.439920e-004
9.439920e-004
9.439920e-004
9.439920e-004
9.439920e-004
9.439920e-004
9.439920e-004
9.439920e-004
9.439920e-004
9.439920e-004
9.439920e-004
9.439920e-004
9.439920e-004
9.439920e-004
9.439920e-004
9.439920e-004
9.439920e-004
9.439920e-004
9.439920e-004
9.439920e-004
9.439920e-004
9.439920e-004
9.439920e-004
9.439920e-004
9.439920e-004
9.439920e-004
9.439920e-004
9.439920e-004
9.439920e-004
9.439920e-004
9.439920e-004
9.439920e-004
9.439919e-004
9.439919e-004
9.439919e-004
9.439919e-004
9.439919e-004
9.439918e-004
9.439918e-004
9.439918e-004
9.439917e-004
9.439917e-004
9.439917e-004
9.439917e-004
9.439916e-004
9.439916e-004
9.439916e-004
9.439916e-004
9.439916e-004
9.439916e-004
9.439916e-004
9.439916e-004
9.439916e-004
9.439916e-004
9.439916e-004
9.439916e-004
9.439916e-004
9.439917e-004
9.439917e-004
9.439917e-004
9.439918e-004
9.439918e-004
9.439918e-004
9.439918e-004
9.439919e-004
9.439919e-004
9.439919e-004
9.439919e-004
9.439920e-004
9.439920e-004
9.439920e-004
9.439920e-004
9.439920e-004
9.439920e-004
9.439920e-004
9.439920e-004
9.439920e-004
9.439920e-004
9.439920e-004
9.439920e-004
9.439920e-004
9.439920e-004
9.439920e-004
9.439920e-004
9.439920e-004
9.439920e-004
9.439920e-004
9.439920e-004
9.439920e-004
9.439920e-004
9.439920e-004
9.439920e-004
9.439920e-004
9.439920e-004
9.439920e-004
9.439920e-004
9.439920e-004
9.439920e-004
9.439920e-004
9.439920e-004
9.439920e-004
9.439920e-004
9.439920e-004
9.439920e-004
9.439920e-004
9.439920e-004
9.439920e-004
9.439920e-004
9.439920e-004
9.439920e-004
9.439920e-004
9.439920e-004
9.439920e-004
9.439920e-004
9.439920e-004
9.439920e-004
9.439920e-004
9.439920e-004
9.439920e-004
9.439920e-004
9.439920e-004
9.439920e-004
9.439920e-004
9.439920e-004
9.439920e-004
9.439920e-004
9.439920e-004
9.439920e-004
9.439920e-004
9.439919e-004
9.439919e-004
9.439919e-004
9.439919e-004
9.439918e-004
9.439918e-004
9.439917e-004
9.439917e-004
9.439916e-004
9.439915e-004
9.439915e-004
9.439914e-004
9.439913e-004
9.439912e-004
9.439912e-004
9.439911e-004
9.439911e-004
9.439910e-004
9.439910e-004
9.439909e-004
9.439909e-004
9.439909e-004
9.439909e-004
9.439910e-004
9.439910e-004
9.439910e-004
9.439911e-004
9.439911e-004
9.439912e-004
9.439913e-004
9.439913e-004
9.439914e-004
9.439915e-004
9.439916e-004
9.439916e-004
9.439917e-004
9.439917e-004
9.439918e-004
9.439918e-004
9.439919e-004
9.439919e-004
9.439919e-004
9.439919e-004
9.439920e-004
9.439920e-004
9.439920e-004
9.439920e-004
9.439920e-004
9.439920e-004
9.439920e-004
9.439920e-004
9.439920e-004
9.439920e-004
9.439920e-004
9.439920e-004
9.439920e-004
9.439920e-004
9.439920e-004
9.439920e-004
9.439920e-004
9.439920e-004
9.439920e-004
9.439920e-004
9.439920e-004
9.439920e-004
9.439920e-004
9.439920e-004
9.439920e-004
9.439920e-004
9.439920e-004
9.439920e-004
9.439920e-004
9.439920e-004
9.439920e-004
9.439920e-004
9.439920e-004
9.439920e-004
9.439920e-004
9.439920e-004
9.439920e-004
9.439920e-004
9.439920e-004
9.439920e-004
9.439920e-004
9.439920e-004
9.439920e-004
9.439920e-004
9.439920e-004
9.439920e-004
9.439920e-004
9.439920e-004
9.439920e-004
9.439920e-004
9.439920e-004
9.439920e-004
9.439920e-004
9.439920e-004
9.439919e-004
9.439919e-004
9.439919e-004
9.439919e-004
9.439918e-004
9.439917e-004
9.439917e-004
9.439916e-004
9.439915e-004
9.439913e-004
9.439912e-004
9.439910e-004
9.439909e-004
9.439907e-004
9.439905e-004
9.439904e-004
9.439902e-004
9.439901e-004
9.439899e-004
9.439898e-004
9.439897e-004
9.439896e-004
9.439895e-004
9.439895e-004
9.439895e-004
9.439895e-004
9.439896e-004
9.439896e-004
9.439897e-004
9.439898e-004
9.439900e-004
9.439901e-004
9.439903e-004
9.439905e-004
9.439906e-004
9.439908e-004
9.439910e-004
9.439911e-004
9.439913e-004
9.439914e-004
9.439915e-004
9.439916e-004
9.439917e-004
9.439918e-004
9.439918e-004
9.439919e-004
9.439919e-004
9.439919e-004
9.439920e-004
9.439920e-004
9.439920e-004
9.439920e-004
9.439920e-004
9.439920e-004
9.439920e-004
9.439920e-004
9.439920e-004
9.439920e-004
9.439920e-004
9.439920e-004
9.439920e-004
9.439920e-004
9.439920e-004
9.439920e-004
9.439920e-004
9.439920e-004
9.439920e-004
9.439920e-004
9.439920e-004
9.439920e-004
9.439920e-004
9.439920e-004
9.439920e-004
9.439920e-004
9.439920e-004
9.439920e-004
9.439920e-004
9.439920e-004
9.439920e-004
9.439920e-004
9.439920e-004
9.439920e-004
9.439920e-004
9.439920e-004
9.439920e-004
9.439920e-004
9.439920e-004
9.439920e-004
9.439920e-004
9.439920e-004
9.439920e-004
9.439920e-004
9.439920e-004
9.439920e-004
9.439920e-004
9.439920e-004
9.439920e-004
9.439920e-004
9.439919e-004
9.439919e-004
9.439919e-004
9.439918e-004
9.439917e-004
9.439916e-004
9.439915e-004
9.439914e-004
9.439912e-004
9.439910e-004
9.439907e-004
9.439904e-004
9.439901e-004
9.439898e-004
9.439894e-004
9.439891e-004
9.439887e-004
9.439883e-004
9.439880e-004
9.439876e-004
9.439873e-004
9.439870e-004
9.439868e-004
9.439866e-004
9.439865e-004
9.439864e-004
9.439864e-004
9.439865e-004
9.439866e-004
9.439867e-004
9.439869e-004
9.439872e-004
9.439875e-004
9.439878e-004
9.439881e-004
9.439885e-004
9.439889e-004
9.439893e-004
9.439896e-004
9.439900e-004
9.439903e-004
9.439906e-004
9.439909e-004
9.439911e-004
9.439913e-004
9.439915e-004
9.439916e-004
9.439917e-004
9.439918e-004
9.439919e-004
9.439919e-004
9.439919e-004
9.439920e-004
9.439920e-004
9.439920e-004
9.439920e-004
9.439920e-004
9.439920e-004
9.439920e-004
9.439920e-004
9.439920e-004
9.439920e-004
9.439920e-004
9.439920e-004
9.439920e-004
9.439920e-004
9.439920e-004
9.439920e-004
9.439920e-004
9.439920e-004
9.439920e-004
9.439920e-004
9.439920e-004
9.439920e-004
9.439920e-004
9.439920e-004
9.439920e-004
9.439920e-004
9.439920e-004
9.439920e-004
9.439920e-004
9.439920e-004
9.439920e-004
9.439920e-004
9.439920e-004
9.439920e-004
9.439920e-004
9.439920e-004
9.439920e-004
9.439920e-004
9.439920e-004
9.439920e-004
9.439920e-004
9.439920e-004
9.439920e-004
9.439920e-004
9.439920e-004
9.439920e-004
9.439919e-004
9.439919e-004
9.439919e-004
9.439918e-004
9.439917e-004
9.439916e-004
9.439914e-004
9.439912e-004
9.439909e-004
9.439906e-004
9.439902e-004
9.439897e-004
9.439891e-004
9.439885e-004
9.439878e-004
9.439871e-004
9.439864e-004
9.439856e-004
9.439849e-004
9.439841e-004
9.439834e-004
9.439828e-004
9.439822e-004
9.439817e-004
9.439812e-004
9.439809e-004
9.439807e-004
9.439805e-004
9.439805e-004
9.439806e-004
9.439808e-004
9.439811e-004
9.439815e-004
9.439820e-004
9.439825e-004
9.439832e-004
9.439838e-004
9.439846e-004
9.439853e-004
9.439861e-004
9.439868e-004
9.439876e-004
9.439883e-004
9.439889e-004
9.439895e-004
9.439900e-004
9.439904e-004
9.439908e-004
9.439911e-004
9.439913e-004
9.439915e-004
9.439917e-004
9.439918e-004
9.439918e-004
9.439919e-004
9.439919e-004
9.439920e-004
9.439920e-004
9.439920e-004
9.439920e-004
9.439920e-004
9.439920e-004
9.439920e-004
9.439920e-004
9.439920e-004
9.439920e-004
9.439920e-004
9.439920e-004
9.439920e-004
9.439920e-004
9.439920e-004
9.439920e-004
9.439920e-004
9.439920e-004
9.439920e-004
9.439920e-004
9.439920e-004
9.439920e-004
9.439920e-004
9.439920e-004
9.439920e-004
9.439920e-004
9.439920e-004
9.439920e-004
9.439920e-004
9.439920e-004
9.439920e-004
9.439920e-004
9.439920e-004
9.439920e-004
9.439920e-004
9.439920e-004
9.439920e-004
9.439920e-004
9.439920e-004
9.439920e-004
9.439920e-004
9.439920e-004
9.439919e-004
9.439919e-004
9.439919e-004
9.439918e-004
9.439917e-004
9.439915e-004
9.439913e-004
9.439910e-004
9.439906e-004
9.439902e-004
9.439895e-004
9.439888e-004
9.439879e-004
9.439869e-004
9.439858e-004
9.439846e-004
9.439833e-004
9.439819e-004
9.439806e-004
9.439792e-004
9.439779e-004
9.439767e-004
9.439756e-004
9.439746e-004
9.439737e-004
9.439730e-004
9.439724e-004
9.439719e-004
9.439716e-004
9.439715e-004
9.439715e-004
9.439716e-004
9.439719e-004
9.439724e-004
9.439729e-004
9.439736e-004
9.439745e-004
9.439754e-004
9.439765e-004
9.439777e-004
9.439790e-004
9.439803e-004
9.439816e-004
9.439829e-004
9.439842e-004
9.439855e-004
9.439866e-004
9.439876e-004
9.439886e-004
9.439893e-004
9.439900e-004
9.439905e-004
9.439909e-004
9.439912e-004
9.439915e-004
9.439916e-004
9.439918e-004
9.439918e-004
9.439919e-004
9.439919e-004
9.439920e-004
9.439920e-004
9.439920e-004
9.439920e-004
9.439920e-004
9.439920e-004
9.439920e-004
9.439920e-004
9.439920e-004
9.439920e-004
9.439920e-004
9.439920e-004
9.439920e-004
9.439920e-004
9.439920e-004
9.439920e-004
9.439920e-004
9.439920e-004
9.439920e-004
9.439920e-004
9.439920e-004
9.439920e-004
9.439920e-004
9.439920e-004
9.439920e-004
9.439920e-004
9.439920e-004
9.439920e-004
9.439920e-004
9.439920e-004
9.439920e-004
9.439920e-004
9.439920e-004
9.439920e-004
9.439920e-004
9.439920e-004
9.439920e-004
9.439920e-004
9.439920e-004
9.439919e-004
9.439919e-004
9.439918e-004
9.439917e-004
9.439915e-004
9.439913e-004
9.439909e-004
9.439905e-004
9.439898e-004
9.439890e-004
9.439880e-004
9.439868e-004
9.439853e-004
9.439836e-004
9.439817e-004
9.439797e-004
9.439776e-004
9.439756e-004
9.439736e-004
9.439718e-004
9.439703e-004
9.439690e-004
9.439680e-004
9.439672e-004
9.439668e-004
9.439666e-004
9.439666e-004
9.439667e-004
9.439668e-004
9.439670e-004
9.439673e-004
9.439674e-004
9.439675e-004
9.439676e-004
9.439677e-004
9.439678e-004
9.439679e-004
9.439681e-004
9.439685e-004
9.439691e-004
9.439699e-004
9.439710e-004
9.439724e-004
9.439739e-004
9.439757e-004
9.439776e-004
9.439795e-004
9.439814e-004
9.439832e-004
9.439849e-004
9.439864e-004
9.439877e-004
9.439888e-004
9.439896e-004
9.439903e-004
9.439908e-004
9.439912e-004
9.439915e-004
9.439917e-004
9.439918e-004
9.439919e-004
9.439919e-004
9.439920e-004
9.439920e-004
9.439920e-004
9.439920e-004
9.439920e-004
9.439920e-004
9.439920e-004
9.439920e-004
9.439920e-004
9.439920e-004
9.439920e-004
9.439920e-004
9.439920e-004
9.439920e-004
9.439920e-004
9.439920e-004
9.439920e-004
9.439920e-004
9.439920e-004
9.439920e-004
9.439920e-004
9.439920e-004
9.439920e-004
9.439920e-004
9.439920e-004
9.439920e-004
9.439920e-004
9.439920e-004
9.439920e-004
9.439920e-004
9.439920e-004
9.439920e-004
9.439920e-004
9.439920e-004
9.439920e-004
9.439920e-004
9.439919e-004
9.439919e-004
9.439918e-004
9.439917e-004
9.439916e-004
9.439913e-004
9.439910e-004
9.439904e-004
9.439897e-004
9.439887e-004
9.439874e-004
9.439858e-004
9.439838e-004
9.439815e-004
9.439789e-004
9.439762e-004
9.439734e-004
9.439709e-004
9.439689e-004
9.439675e-004
9.439671e-004
9.439678e-004
9.439697e-004
9.439728e-004
9.439769e-004
9.439820e-004
9.439877e-004
9.439937e-004
9.439995e-004
9.440050e-004
9.440097e-004
9.440133e-004
9.440157e-004
9.440167e-004
9.440162e-004
9.440143e-004
9.440111e-004
9.440069e-004
9.440018e-004
9.439963e-004
9.439906e-004
9.439852e-004
9.439803e-004
9.439763e-004
9.439734e-004
9.439715e-004
9.439708e-004
9.439712e-004
9.439724e-004
9.439742e-004
9.439765e-004
9.439789e-004
9.439813e-004
9.439835e-004
9.439855e-004
9.439871e-004
9.439885e-004
9.439895e-004
9.439903e-004
9.439909e-004
9.439913e-004
9.439915e-004
9.439917e-004
9.439918e-004
9.439919e-004
9.439919e-004
9.439920e-004
9.439920e-004
9.439920e-004
9.439920e-004
9.439920e-004
9.439920e-004
9.439920e-004
9.439920e-004
9.439920e-004
9.439920e-004
9.439920e-004
9.439920e-004
9.439920e-004
9.439920e-004
9.439920e-004
9.439920e-004
9.439920e-004
9.439920e-004
9.439920e-004
9.439920e-004
9.439920e-004
9.439920e-004
9.439920e-004
9.439920e-004
9.439920e-004
9.439920e-004
9.439920e-004
9.439920e-004
9.439920e-004
9.439920e-004
9.439920e-004
9.439920e-004
9.439920e-004
9.439919e-004
9.439919e-004
9.439918e-004
9.439917e-004
9.439914e-004
9.439911e-004
9.439906e-004
9.439898e-004
9.439887e-004
9.439872e-004
9.439853e-004
9.439828e-004
9.439799e-004
9.439766e-004
9.439732e-004
9.439700e-004
9.439676e-004
9.439667e-004
9.439681e-004
9.439728e-004
9.439815e-004
9.439948e-004
9.440132e-004
9.440368e-004
9.440650e-004
9.440972e-004
9.441322e-004
9.441686e-004
9.442047e-004
9.442389e-004
9.442696e-004
9.442951e-004
9.443144e-004
9.443265e-004
9.443308e-004
9.443271e-004
9.443155e-004
9.442967e-004
9.442715e-004
9.442412e-004
9.442074e-004
9.441715e-004
9.441354e-004
9.441007e-004
9.440688e-004
9.440410e-004
9.440178e-004
9.439997e-004
9.439867e-004
9.439781e-004
9.439735e-004
9.439719e-004
9.439725e-004
9.439744e-004
9.439771e-004
9.439799e-004
9.439826e-004
9.439850e-004
9.439870e-004
9.439885e-004
9.439896e-004
9.439904e-004
9.439910e-004
9.439914e-004
9.439916e-004
9.439918e-004
9.439919e-004
9.439919e-004
9.439920e-004
9.439920e-004
9.439920e-004
9.439920e-004
9.439920e-004
9.439920e-004
9.439920e-004
9.439920e-004
9.439920e-004
9.439920e-004
9.439920e-004
9.439920e-004
9.439920e-004
9.439920e-004
9.439920e-004
9.439920e-004
9.439920e-004
9.439920e-004
9.439920e-004
9.439920e-004
9.439920e-004
9.439920e-004
9.439920e-004
9.439920e-004
9.439920e-004
9.439920e-004
9.439920e-004
9.439920e-004
9.439920e-004
9.439920e-004
9.439920e-004
9.439919e-004
9.439919e-004
9.439917e-004
9.439916e-004
9.439913e-004
9.439908e-004
9.439901e-004
9.439890e-004
9.439875e-004
9.439854e-004
9.439826e-004
9.439791e-004
9.439752e-004
9.439711e-004
9.439675e-004
9.439658e-004
9.439675e-004
9.439750e-004
9.439910e-004
9.440186e-004
9.440610e-004
9.441208e-004
9.442002e-004
9.442998e-004
9.444192e-004
9.445562e-004
9.447070e-004
9.448667e-004
9.450291e-004
9.451877e-004
9.453358e-004
9.454670e-004
9.455754e-004
9.456564e-004
9.457063e-004
9.457230e-004
9.457056e-004
9.456549e-004
9.455731e-004
9.454637e-004
9.453315e-004
9.451824e-004
9.450230e-004
9.448601e-004
9.447005e-004
9.445502e-004
9.444144e-004
9.442966e-004
9.441989e-004
9.441217e-004
9.440639e-004
9.440232e-004
9.439968e-004
9.439815e-004
9.439742e-004
9.439723e-004
9.439734e-004
9.439762e-004
9.439794e-004
9.439825e-004
9.439852e-004
9.439873e-004
9.439888e-004
9.439899e-004
9.439907e-004
9.439912e-004
9.439915e-004
9.439917e-004
9.439918e-004
9.439919e-004
9.439920e-004
9.439920e-004
9.439920e-004
9.439920e-004
9.439920e-004
9.439920e-004
9.439920e-004
9.439920e-004
9.439920e-004
9.439920e-004
9.439920e-004
9.439920e-004
9.439920e-004
9.439920e-004
9.439920e-004
9.439920e-004
9.439920e-004
9.439920e-004
9.439920e-004
9.439920e-004
9.439920e-004
9.439920e-004
9.439920e-004
9.439920e-004
9.439920e-004
9.439920e-004
9.439920e-004
9.439920e-004
9.439920e-004
9.439919e-004
9.439918e-004
9.439917e-004
9.439915e-004
9.439911e-004
9.439905e-004
9.439895e-004
9.439881e-004
9.439860e-004
9.439831e-004
9.439794e-004
9.439749e-004
9.439700e-004
9.439660e-004
9.439646e-004
9.439692e-004
9.439847e-004
9.440179e-004
9.440774e-004
9.441736e-004
9.443174e-004
9.445198e-004
9.447898e-004
9.451334e-004
9.455519e-004
9.460414e-004
9.465923e-004
9.471896e-004
9.478135e-004
9.484416e-004
9.490493e-004
9.496122e-004
9.501074e-004
9.505145e-004
9.508168e-004
9.510017e-004
9.510617e-004
9.509940e-004
9.508011e-004
9.504906e-004
9.500751e-004
9.495716e-004
9.490008e-004
9.483865e-004
9.477536e-004
9.471271e-004
9.465303e-004
9.459827e-004
9.454992e-004
9.450890e-004
9.447551e-004
9.444951e-004
9.443023e-004
9.441667e-004
9.440770e-004
9.440220e-004
9.439915e-004
9.439772e-004
9.439726e-004
9.439732e-004
9.439762e-004
9.439798e-004
9.439831e-004
9.439859e-004
9.439879e-004
9.439894e-004
9.439904e-004
9.439910e-004
9.439914e-004
9.439917e-004
9.439918e-004
9.439919e-004
9.439919e-004
9.439920e-004
9.439920e-004
9.439920e-004
9.439920e-004
9.439920e-004
9.439920e-004
9.439920e-004
9.439920e-004
9.439920e-004
9.439920e-004
9.439920e-004
9.439920e-004
9.439920e-004
9.439920e-004
9.439920e-004
9.439920e-004
9.439920e-004
9.439920e-004
9.439920e-004
9.439920e-004
9.439920e-004
9.439920e-004
9.439920e-004
9.439920e-004
9.439920e-004
9.439919e-004
9.439919e-004
9.439918e-004
9.439917e-004
9.439914e-004
9.439909e-004
9.439902e-004
9.439890e-004
9.439871e-004
9.439844e-004
9.439807e-004
9.439759e-004
9.439704e-004
9.439653e-004
9.439632e-004
9.439687e-004
9.439902e-004
9.440403e-004
9.441375e-004
9.443068e-004
9.445794e-004
9.449914e-004
9.455807e-004
9.463832e-004
9.474270e-004
9.487284e-004
9.502872e-004
9.520842e-004
9.540811e-004
9.562222e-004
9.584378e-004
9.606489e-004
9.627730e-004
9.647282e-004
9.664390e-004
9.678389e-004
9.688740e-004
9.695042e-004
9.697052e-004
9.694683e-004
9.688015e-004
9.677292e-004
9.662915e-004
9.645435e-004
9.625531e-004
9.603983e-004
9.581633e-004
9.559332e-004
9.537887e-004
9.518004e-004
9.500234e-004
9.484944e-004
9.472296e-004
9.462257e-004
9.454630e-004
9.449099e-004
9.445286e-004
9.442797e-004
9.441274e-004
9.440410e-004
9.439969e-004
9.439779e-004
9.439725e-004
9.439736e-004
9.439771e-004
9.439811e-004
9.439844e-004
9.439870e-004
9.439889e-004
9.439901e-004
9.439909e-004
9.439914e-004
9.439916e-004
9.439918e-004
9.439919e-004
9.439919e-004
9.439920e-004
9.439920e-004
9.439920e-004
9.439920e-004
9.439920e-004
9.439920e-004
9.439920e-004
9.439920e-004
9.439920e-004
9.439920e-004
9.439920e-004
9.439920e-004
9.439920e-004
9.439920e-004
9.439920e-004
9.439920e-004
9.439920e-004
9.439920e-004
9.439920e-004
9.439920e-004
9.439920e-004
9.439920e-004
9.439920e-004
9.439919e-004
9.439919e-004
9.439918e-004
9.439916e-004
9.439913e-004
9.439908e-004
9.439899e-004
9.439884e-004
9.439862e-004
9.439828e-004
9.439782e-004
9.439723e-004
9.439661e-004
9.439619e-004
9.439650e-004
9.439859e-004
9.440430e-004
9.441664e-004
9.444023e-004
9.448163e-004
9.454949e-004
9.465444e-004
9.480839e-004
9.502350e-004
9.531069e-004
9.567798e-004
9.612902e-004
9.666187e-004
9.726852e-004
9.793503e-004
9.864230e-004
9.936738e-004
1.000850e-003
1.007693e-003
1.013953e-003
1.019401e-003
1.023838e-003
1.027107e-003
1.029090e-003
1.029715e-003
1.028959e-003
1.026843e-003
1.023439e-003
1.018864e-003
1.013280e-003
1.006890e-003
9.999307e-004
9.926605e-004
9.853468e-004
9.782489e-004
9.716004e-004
9.655919e-004
9.603584e-004
9.559711e-004
9.524376e-004
9.497090e-004
9.476933e-004
9.462724e-004
9.453193e-004
9.447134e-004
9.443502e-004
9.441466e-004
9.440416e-004
9.439935e-004
9.439756e-004
9.439723e-004
9.439749e-004
9.439791e-004
9.439831e-004
9.439862e-004
9.439884e-004
9.439898e-004
9.439908e-004
9.439913e-004
9.439916e-004
9.439918e-004
9.439919e-004
9.439919e-004
9.439920e-004
9.439920e-004
9.439920e-004
9.439920e-004
9.439920e-004
9.439920e-004
9.439920e-004
9.439920e-004
9.439920e-004
9.439920e-004
9.439920e-004
9.439920e-004
9.439920e-004
9.439920e-004
9.439920e-004
9.439920e-004
9.439920e-004
9.439920e-004
9.439920e-004
9.439920e-004
9.439920e-004
9.439919e-004
9.439919e-004
9.439918e-004
9.439916e-004
9.439913e-004
9.439907e-004
9.439897e-004
9.439880e-004
9.439853e-004
9.439813e-004
9.439757e-004
9.439689e-004
9.439624e-004
9.439606e-004
9.439738e-004
9.440223e-004
9.441441e-004
9.444044e-004
9.449081e-004
9.458123e-004
9.473357e-004
9.497607e-004
9.534235e-004
9.586897e-004
9.659160e-004
9.754033e-004
9.873475e-004
1.001798e-003
1.018633e-003
1.037550e-003
1.058082e-003
1.079626e-003
1.101489e-003
1.122930e-003
1.143212e-003
1.161635e-003
1.177574e-003
1.190495e-003
1.199975e-003
1.205706e-003
1.207500e-003
1.205293e-003
1.199143e-003
1.189234e-003
1.175875e-003
1.159497e-003
1.140649e-003
1.119979e-003
1.098212e-003
1.076114e-003
1.054448e-003
1.033925e-003
1.015151e-003
9.985835e-004
9.845019e-004
9.729943e-004
9.639709e-004
9.571967e-004
9.523385e-004
9.490180e-004
9.468603e-004
9.455313e-004
9.447582e-004
9.443359e-004
9.441217e-004
9.440230e-004
9.439839e-004
9.439728e-004
9.439733e-004
9.439774e-004
9.439819e-004
9.439855e-004
9.439880e-004
9.439897e-004
9.439907e-004
9.439913e-004
9.439916e-004
9.439918e-004
9.439919e-004
9.439919e-004
9.439920e-004
9.439920e-004
9.439920e-004
9.439920e-004
9.439920e-004
9.439920e-004
9.439920e-004
9.439920e-004
9.439920e-004
9.439920e-004
9.439920e-004
9.439920e-004
9.439920e-004
9.439920e-004
9.439920e-004
9.439920e-004
9.439920e-004
9.439920e-004
9.439920e-004
9.439919e-004
9.439919e-004
9.439918e-004
9.439916e-004
9.439913e-004
9.439906e-004
9.439895e-004
9.439876e-004
9.439846e-004
9.439800e-004
9.439736e-004
9.439659e-004
9.439596e-004
9.439620e-004
9.439905e-004
9.440817e-004
9.443068e-004
9.447946e-004
9.457628e-004
9.475543e-004
9.506715e-004
9.557964e-004
9.637830e-004
9.756122e-004
9.923037e-004
1.014796e-003
1.043807e-003
1.079712e-003
1.122443e-003
1.171448e-003
1.225704e-003
1.283783e-003
1.343953e-003
1.404306e-003
1.462882e-003
1.517780e-003
1.567253e-003
1.609767e-003
1.644046e-003
1.669087e-003
1.684173e-003
1.688868e-003
1.683020e-003
1.666761e-003
1.640510e-003
1.604985e-003
1.561207e-003
1.510488e-003
1.454421e-003
1.394826e-003
1.333683e-003
1.273028e-003
1.214828e-003
1.160841e-003
1.112488e-003
1.070739e-003
1.036058e-003
1.008401e-003
9.872748e-004
9.718552e-004
9.611258e-004
9.540245e-004
9.495636e-004
9.469101e-004
9.454195e-004
9.446319e-004
9.442436e-004
9.440677e-004
9.439973e-004
9.439751e-004
9.439724e-004
9.439762e-004
9.439810e-004
9.439849e-004
9.439877e-004
9.439896e-004
9.439906e-004
9.439913e-004
9.439916e-004
9.439918e-004
9.439919e-004
9.439920e-004
9.439920e-004
9.439920e-004
9.439920e-004
9.439920e-004
9.439920e-004
9.439920e-004
9.439920e-004
9.439920e-004
9.439920e-004
9.439920e-004
9.439920e-004
9.439920e-004
9.439920e-004
9.439920e-004
9.439920e-004
9.439920e-004
9.439920e-004
9.439920e-004
9.439919e-004
9.439918e-004
9.439916e-004
9.439913e-004
9.439906e-004
9.439894e-004
9.439874e-004
9.439841e-004
9.439790e-004
9.439719e-004
9.439635e-004
9.439576e-004
9.439653e-004
9.440137e-004
9.441625e-004
9.445335e-004
9.453587e-004
9.470506e-004
9.502922e-004
9.561341e-004
9.660723e-004
9.820705e-004
1.006493e-003
1.041929e-003
1.090912e-003
1.155582e-003
1.237334e-003
1.336543e-003
1.452392e-003
1.582862e-003
1.724848e-003
1.874408e-003
2.027057e-003
2.178095e-003
2.322894e-003
2.457135e-003
2.576975e-003
2.679145e-003
2.760995e-003
2.820490e-003
2.856195e-003
2.867246e-003
2.853335e-003
2.814706e-003
2.752175e-003
2.667162e-003
2.561728e-003
2.438605e-003
2.301193e-003
2.153514e-003
2.000094e-003
1.845774e-003
1.695440e-003
1.553696e-003
1.424516e-003
1.310922e-003
1.214746e-003
1.136528e-003
1.075578e-003
1.030189e-003
9.979680e-004
9.762176e-004
9.622867e-004
9.538373e-004
9.489929e-004
9.463724e-004
9.450388e-004
9.444039e-004
9.441245e-004
9.440143e-004
9.439785e-004
9.439721e-004
9.439753e-004
9.439804e-004
9.439847e-004
9.439877e-004
9.439895e-004