# vtk DataFile Version 3.0
vtk output
ASCII
DATASET STRUCTURED_POINTS
DIMENSIONS 100 100 1
SPACING 1 1 1
ORIGIN 0 0 0
POINT_DATA 10000
SCALARS SFBox_profile double
LOOKUP_TABLE default 
0.000000e+000
0.000000e+000
0.000000e+000
0.000000e+000
0.000000e+000
0.000000e+000
0.000000e+000
0.000000e+000
0.000000e+000
0.000000e+000
0.000000e+000
0.000000e+000
0.000000e+000
0.000000e+000
0.000000e+000
0.000000e+000
0.000000e+000
0.000000e+000
0.000000e+000
0.000000e+000
0.000000e+000
0.000000e+000
0.000000e+000
0.000000e+000
0.000000e+000
0.000000e+000
0.000000e+000
0.000000e+000
0.000000e+000
0.000000e+000
0.000000e+000
0.000000e+000
0.000000e+000
0.000000e+000
0.000000e+000
0.000000e+000
0.000000e+000
0.000000e+000
0.000000e+000
0.000000e+000
0.000000e+000
0.000000e+000
0.000000e+000
0.000000e+000
0.000000e+000
0.000000e+000
0.000000e+000
0.000000e+000
0.000000e+000
0.000000e+000
0.000000e+000
0.000000e+000
0.000000e+000
0.000000e+000
0.000000e+000
0.000000e+000
0.000000e+000
0.000000e+000
0.000000e+000
0.000000e+000
0.000000e+000
0.000000e+000
0.000000e+000
0.000000e+000
0.000000e+000
0.000000e+000
0.000000e+000
0.000000e+000
0.000000e+000
0.000000e+000
0.000000e+000
0.000000e+000
0.000000e+000
0.000000e+000
0.000000e+000
0.000000e+000
0.000000e+000
0.000000e+000
0.000000e+000
0.000000e+000
0.000000e+000
0.000000e+000
0.000000e+000
0.000000e+000
0.000000e+000
0.000000e+000
0.000000e+000
0.000000e+000
0.000000e+000
0.000000e+000
0.000000e+000
0.000000e+000
0.000000e+000
0.000000e+000
0.000000e+000
0.000000e+000
0.000000e+000
0.000000e+000
0.000000e+000
0.000000e+000
2.974327e-012
1.914691e-011
5.492717e-011
8.072735e-011
5.160484e-011
-2.136181e-011
-6.067768e-011
-1.712624e-011
5.590478e-011
6.757598e-011
9.723668e-012
-4.091934e-011
-3.425000e-011
-2.031723e-012
9.890077e-012
9.276657e-012
2.652627e-011
5.435285e-011
5.719878e-011
2.415363e-011
-1.975063e-011
-4.957821e-011
-6.303224e-011
-6.663975e-011
-5.928332e-011
-3.639821e-011
-1.307083e-013
4.163107e-011
8.236846e-011
1.191040e-010
1.488969e-010
1.657691e-010
1.621171e-010
1.328692e-010
7.779975e-011
6.520197e-013
-9.268829e-011
-1.955462e-010
-3.008627e-010
-4.008667e-010
-4.872478e-010
-5.528014e-010
-5.935427e-010
-6.095965e-010
-6.045435e-010
-5.840759e-010
-5.545640e-010
-5.219650e-010
-4.914515e-010
-4.671712e-010
-4.518466e-010
-4.468561e-010
-4.526119e-010
-4.686391e-010
-4.935337e-010
-5.249900e-010
-5.596509e-010
-5.930615e-010
-6.201104e-010
-6.357371e-010
-6.357559e-010
-6.172326e-010
-5.780931e-010
-5.170523e-010
-4.340438e-010
-3.308848e-010
-2.117904e-010
-8.300384e-011
4.817215e-011
1.731462e-010
2.808348e-010
3.579595e-010
3.914557e-010
3.715184e-010
2.946140e-010
1.659026e-010
1.042400e-012
-1.720134e-010
-3.129439e-010
-3.763843e-010
-3.300099e-010
-1.766350e-010
3.632910e-011
2.317276e-010
3.321684e-010
2.861778e-010
9.340095e-011
-1.655797e-010
-3.352792e-010
-2.819640e-010
-3.115188e-011
2.155646e-010
2.559002e-010
8.636078e-011
-1.060783e-010
-1.520382e-010
-6.025597e-011
3.828468e-011
5.881465e-011
3.419983e-011
1.064995e-010
3.501460e-011
-3.333225e-011
-3.381859e-011
2.395736e-011
6.834829e-011
5.038758e-011
-2.039403e-012
-3.062082e-011
-2.206865e-011
-6.272433e-012
1.558526e-012
1.453055e-011
3.391740e-011
3.611380e-011
9.237286e-012
-2.589390e-011
-4.251073e-011
-3.540346e-011
-1.289257e-011
2.020025e-011
5.924313e-011
9.097502e-011
1.004302e-010
8.305907e-011
4.419714e-011
-9.693034e-012
-7.431133e-011
-1.442618e-010
-2.108467e-010
-2.639150e-010
-2.944049e-010
-2.943813e-010
-2.565248e-010
-1.762864e-010
-5.510128e-011
9.952354e-011
2.768090e-010
4.649107e-010
6.514133e-010
8.234939e-010
9.692951e-010
1.080311e-009
1.153292e-009
1.190502e-009
1.198303e-009
1.185246e-009
1.160399e-009
1.131949e-009
1.106388e-009
1.088426e-009
1.080988e-009
1.085125e-009
1.100149e-009
1.123638e-009
1.151351e-009
1.177464e-009
1.195108e-009
1.197172e-009
1.177274e-009
1.130360e-009
1.052907e-009
9.431055e-010
8.010565e-010
6.293350e-010
4.336162e-010
2.224741e-010
6.789123e-012
-2.002201e-010
-3.827240e-010
-5.228717e-010
-6.027075e-010
-6.075719e-010
-5.299243e-010
-3.726351e-010
-1.526767e-010
9.501326e-011
3.185418e-010
4.595800e-010
4.716382e-010
3.398488e-010
9.560875e-011
-1.814375e-010
-3.827544e-010
-4.154793e-010
-2.571343e-010
1.584424e-011
2.571908e-010
3.304467e-010
1.945597e-010
-5.735556e-011
-2.443151e-010
-2.261896e-010
-3.127221e-011
1.529649e-010
1.594355e-010
1.789398e-011
-8.748024e-011
-4.556780e-011
5.248891e-011
7.836745e-011
4.770624e-011
-1.472492e-011
-5.608305e-011
-1.339570e-011
7.614847e-011
9.581842e-011
8.503605e-012
-8.135601e-011
-6.992982e-011
9.374736e-012
5.186943e-011
2.992454e-011
1.300156e-012
1.184279e-012
3.520091e-012
-1.385148e-011
-2.903255e-011
-1.570034e-011
1.734906e-011
4.294412e-011
4.816692e-011
3.711195e-011
1.622087e-011
-1.067675e-011
-3.851665e-011
-6.058267e-011
-7.208939e-011
-7.157787e-011
-5.920453e-011
-3.525218e-011
-1.515473e-013
4.541062e-011
1.001004e-010
1.600135e-010
2.175324e-010
2.640093e-010
2.937819e-010
3.048977e-010
2.967137e-010
2.682913e-010
2.195837e-010
1.535149e-010
7.627453e-011
-4.402847e-012
-8.150819e-011
-1.500142e-010
-2.069234e-010
-2.509470e-010
-2.820542e-010
-3.008414e-010
-3.079842e-010
-3.039257e-010
-2.886636e-010
-2.618817e-010
-2.233732e-010
-1.734903e-010
-1.135579e-010
-4.595646e-011
2.640166e-011
1.005655e-010
1.735185e-010
2.416368e-010
3.002272e-010
3.440782e-010
3.688352e-010
3.715136e-010
3.496195e-010
3.006832e-010
2.237280e-010
1.221360e-010
5.222710e-012
-1.129215e-010
-2.152115e-010
-2.818615e-010
-2.921503e-010
-2.315958e-010
-1.025588e-010
6.789720e-011
2.283314e-010
3.159194e-010
2.828082e-010
1.253188e-010
-1.025002e-010
-3.013603e-010
-3.625662e-010
-2.240015e-010
6.525302e-011
3.264304e-010
3.528413e-010
1.007701e-010
-2.221110e-010
-3.271656e-010
-1.378962e-010
1.297853e-010
2.139450e-010
8.876450e-011
-5.274831e-011
-6.338537e-011
-1.270626e-012
-1.032760e-010
4.384581e-011
1.341388e-010
6.565492e-011
-4.695076e-011
-5.755793e-011
1.010904e-011
3.155893e-011
-1.322697e-011
-2.872599e-011
1.887110e-011
4.524556e-011
-4.666477e-012
-6.473739e-011
-5.365596e-011
1.008270e-011
5.503330e-011
5.892848e-011
4.794973e-011
3.217905e-011
-4.044212e-012
-6.016772e-011
-1.072104e-010
-1.189743e-010
-9.395808e-011
-4.439594e-011
2.114768e-011
9.864461e-011
1.808604e-010
2.559404e-010
3.120986e-010
3.402378e-010
3.330731e-010
2.846200e-010
1.917750e-010
5.686633e-011
-1.107607e-010
-2.962102e-010
-4.829998e-010
-6.562048e-010
-8.029931e-010
-9.124592e-010
-9.770776e-010
-9.951357e-010
-9.717506e-010
-9.174567e-010
-8.453506e-010
-7.682990e-010
-6.972939e-010
-6.408633e-010
-6.049526e-010
-5.930164e-010
-6.062224e-010
-6.435529e-010
-7.018292e-010
-7.756169e-010
-8.573053e-010
-9.377728e-010
-1.007469e-009
-1.057281e-009
-1.078959e-009
-1.065309e-009
-1.010685e-009
-9.120621e-010
-7.698763e-010
-5.878105e-010
-3.722924e-010
-1.330153e-010
1.153707e-010
3.523153e-010
5.529446e-010
6.913618e-010
7.434532e-010
6.899950e-010
5.233007e-010
2.572822e-010
-6.456577e-011
-3.703401e-010
-5.746690e-010
-6.064408e-010
-4.404062e-010
-1.193092e-010
2.438111e-010
4.926935e-010
4.950845e-010
2.353535e-010
-1.379595e-010
-3.882463e-010
-3.633081e-010
-1.132499e-010
1.611948e-010
2.708981e-010
1.642643e-010
-5.237112e-011
-1.902170e-010
-1.274643e-010
6.028648e-011
1.573026e-010
5.475944e-011
-1.037952e-010
-1.359934e-010
1.422752e-011
1.521968e-010
1.254073e-010
-3.859694e-011
-1.443767e-010
-7.271744e-011
6.247109e-011
8.717943e-011
7.348833e-012
-4.437696e-011
-2.679974e-011
-1.205454e-011
-2.912862e-011
-2.541601e-011
1.860454e-011
4.899359e-011
2.857099e-011
-1.236929e-011
-3.327874e-011
-3.305331e-011
-2.462155e-011
-3.297967e-012
3.722847e-011
8.217854e-011
1.081618e-010
1.071150e-010
8.643696e-011
5.348986e-011
1.032131e-011
-3.951043e-011
-8.740630e-011
-1.240170e-010
-1.427566e-010
-1.377123e-010
-1.007623e-010
-2.369812e-011
9.612864e-011
2.533128e-010
4.379546e-010
6.404423e-010
8.522029e-010
1.063403e-009
1.262266e-009
1.437672e-009
1.582348e-009
1.694133e-009
1.775114e-009
1.829793e-009
1.863312e-009
1.880235e-009
1.883777e-009
1.875365e-009
1.854400e-009
1.818387e-009
1.763699e-009
1.686702e-009
1.584700e-009
1.456308e-009
1.301280e-009
1.120403e-009
9.161330e-010
6.935610e-010
4.605581e-010
2.268176e-010
2.933649e-012
-1.992546e-010
-3.654964e-010
-4.796671e-010
-5.272478e-010
-4.994071e-010
-3.950865e-010
-2.224745e-010
-2.959382e-012
2.242911e-010
4.045994e-010
4.816640e-010
4.190731e-010
2.204556e-010
-5.945292e-011
-3.194346e-010
-4.409977e-010
-3.459302e-010
-6.001149e-011
2.692763e-010
4.408174e-010
3.283444e-010
-1.538303e-011
-3.608701e-010
-4.393276e-010
-1.605650e-010
2.544613e-010
4.206181e-010
1.726036e-010
-2.146010e-010
-3.117931e-010
-5.290031e-011
1.908450e-010
1.202911e-010
-9.347969e-011
1.215561e-010
-4.494449e-011
-1.041193e-010
1.094288e-012
6.107391e-011
-1.351316e-011
-6.221835e-011
1.150193e-011
6.983300e-011
-3.682453e-012
-9.975957e-011
-7.348508e-011
2.851080e-011
6.937131e-011
2.859270e-011
-1.748930e-011
-3.624086e-011
-5.008794e-011
-5.746708e-011
-2.980653e-011
3.191688e-011
9.264541e-011
1.256947e-010
1.276649e-010
1.016215e-010
5.149874e-011
-9.627969e-012
-6.221724e-011
-9.247541e-011
-9.495863e-011
-6.496265e-011
4.747601e-012
1.188698e-010
2.753887e-010
4.675706e-010
6.866546e-010
9.200753e-010
1.149097e-009
1.352356e-009
1.513248e-009
1.623011e-009
1.677838e-009
1.676476e-009
1.622137e-009
1.525124e-009
1.401649e-009
1.269477e-009
1.144006e-009
1.036536e-009
9.543386e-010
9.014905e-010
8.798197e-010
8.896719e-010
9.301161e-010
9.985793e-010
1.090333e-009
1.198375e-009
1.314001e-009
1.427772e-009
1.529948e-009
1.610329e-009
1.658442e-009
1.664634e-009
1.621431e-009
1.523994e-009
1.369340e-009
1.156010e-009
8.865128e-010
5.713266e-010
2.303470e-010
-1.089960e-010
-4.128417e-010
-6.397219e-010
-7.435895e-010
-6.874391e-010
-4.631183e-010
-1.066232e-010
2.975942e-010
6.273513e-010
7.556651e-010
6.066707e-010
2.124583e-010
-2.694531e-010
-6.075698e-010
-6.111037e-010
-2.614049e-010
2.279854e-010
5.167213e-010
3.953387e-010
-9.497341e-012
-3.272222e-010
-2.978436e-010
-2.003594e-011
1.919579e-010
1.617155e-010
-6.831326e-012
-1.130541e-010
-8.439762e-011
8.511299e-012
7.501367e-011
3.234368e-010
-8.667769e-011
-3.318981e-010
-1.340216e-010
1.739463e-010
1.834919e-010
-3.554339e-011
-1.386787e-010
-4.845534e-011
2.250973e-011
-1.917900e-011
-4.235809e-011
2.088973e-011
6.131827e-011
5.222528e-012
-6.571476e-011
-6.086945e-011
-3.840729e-012
3.894839e-011
5.309346e-011
5.582111e-011
4.562144e-011
1.340255e-011
-2.639190e-011
-4.250474e-011
-1.361520e-011
6.228602e-011
1.760704e-010
3.156071e-010
4.682032e-010
6.211774e-010
7.623425e-010
8.797096e-010
9.615891e-010
9.982661e-010
9.835955e-010
9.152256e-010
7.956657e-010
6.351314e-010
4.514570e-010
2.641335e-010
8.819770e-011
-6.567097e-011
-1.878995e-010
-2.703987e-010
-3.107313e-010
-3.145174e-010
-2.934067e-010
-2.610414e-010
-2.299138e-010
-2.098442e-010
-2.073030e-010
-2.248338e-010
-2.607196e-010
-3.093818e-010
-3.626459e-010
-4.114289e-010
-4.469335e-010
-4.608164e-010
-4.452334e-010
-3.936362e-010
-3.020805e-010
-1.701589e-010
-8.538699e-013
2.003706e-010
4.251314e-010
6.594135e-010
8.817181e-010
1.065257e-009
1.182071e-009
1.204908e-009
1.109051e-009
8.807764e-010
5.317890e-010
1.098786e-010
-3.018284e-010
-5.987784e-010
-6.841255e-010
-5.119295e-010
-1.285731e-010
3.163822e-010
6.132423e-010
5.898355e-010
2.299320e-010
-2.662044e-010
-5.692736e-010
-4.515784e-010
6.799605e-012
4.442181e-010
4.986209e-010
1.224882e-010
-3.471959e-010
-4.673337e-010
-1.219031e-010
3.137842e-010
3.528198e-010
-1.929512e-011
-3.027526e-010
-1.380236e-010
1.989725e-010
7.170377e-011
-2.081266e-011
-1.265663e-010
-9.207164e-011
8.102566e-011
1.437091e-010
-2.807293e-011
-1.893058e-010
-1.021762e-010
8.701458e-011
1.097709e-010
-1.178624e-011
-7.654830e-011
-4.504617e-011
-2.239998e-011
-2.803874e-011
5.115400e-012
7.100937e-011
9.080274e-011
4.270807e-011
-1.480534e-011
-3.230901e-011
-8.870091e-012
4.812788e-011
1.459750e-010
2.821645e-010
4.296614e-010
5.585504e-010
6.581670e-010
7.320284e-010
7.822757e-010
8.069816e-010
8.073424e-010
7.908041e-010
7.681364e-010
7.507893e-010
7.513249e-010
7.845436e-010
8.656313e-010
1.004175e-009
1.199072e-009
1.440462e-009
1.716153e-009
2.014097e-009
2.319287e-009
2.612258e-009
2.873368e-009
3.088649e-009
3.251859e-009
3.362562e-009
3.422897e-009
3.435035e-009
3.400090e-009
3.318322e-009
3.190029e-009
3.016475e-009
2.800106e-009
2.544309e-009
2.253717e-009
1.935021e-009
1.597528e-009
1.253009e-009
9.147716e-010
5.968027e-010
3.146005e-010
8.676670e-011
-6.623514e-011
-1.271834e-010
-8.681776e-011
5.479204e-011
2.859461e-010
5.759078e-010
8.678905e-010
1.082706e-009
1.136318e-009
9.676507e-010
5.710807e-010
2.340397e-011
-5.134125e-010
-8.336222e-010
-7.768375e-010
-3.351396e-010
2.892122e-010
7.496783e-010
7.534275e-010
2.816096e-010
-3.440684e-010
-6.547278e-010
-4.058116e-010
1.623296e-010
4.926386e-010
2.695911e-010
-2.035922e-010
-3.489301e-010
-4.433420e-011
2.384214e-010
1.281857e-010
-1.294245e-010
-1.166571e-010
8.389468e-011
-4.429065e-010
1.438313e-010
3.805757e-010
2.848839e-011
-2.580278e-010
-1.214183e-010
6.786555e-011
1.808490e-011
-5.610945e-011
2.655241e-011
8.408658e-011
-2.250192e-011
-1.259462e-010
-7.218380e-011
3.895116e-011
6.723144e-011
3.506207e-011
1.678430e-011
1.005717e-011
-4.941244e-013
2.399307e-011
1.159333e-010
2.463937e-010
3.680935e-010
4.652964e-010
5.405296e-010
5.908244e-010
6.194172e-010
6.492971e-010
7.076473e-010
8.061348e-010
9.442424e-010
1.122648e-009
1.344843e-009
1.609534e-009
1.907311e-009
2.224110e-009
2.544293e-009
2.849071e-009
3.114524e-009
3.316167e-009
3.438327e-009
3.478082e-009
3.440093e-009
3.331219e-009
3.162442e-009
2.953257e-009
2.730486e-009
2.521826e-009
2.350379e-009
2.232756e-009
2.179037e-009
2.192883e-009
2.271573e-009
2.406591e-009
2.585019e-009
2.790766e-009
3.004898e-009
3.206138e-009
3.372101e-009
3.480992e-009
3.513499e-009
3.454294e-009
3.292163e-009
3.020214e-009
2.639028e-009
2.161635e-009
1.615086e-009
1.037708e-009
4.781313e-010
-2.317453e-012
-3.330900e-010
-4.513208e-010
-3.269948e-010
1.447612e-011
4.792428e-010
9.096065e-010
1.120590e-009
9.752160e-010
4.742149e-010
-1.960048e-010
-7.139176e-010
-7.841553e-010
-3.426622e-010
3.338470e-010
7.534393e-010
5.690666e-010
-7.815155e-011
-6.090703e-010
-5.319737e-010
3.879893e-011
4.879410e-010
3.768896e-010
-8.979438e-011
-3.628750e-010
-2.019617e-010
1.226741e-010
2.296136e-010
5.302250e-011
-1.601316e-010
-5.571144e-010
2.053065e-010
5.373565e-010
3.060923e-011
-4.636134e-010
-2.534808e-010
2.242774e-010
2.602520e-010
-5.269429e-011
-1.820642e-010
-5.213164e-011
2.934423e-011
-1.103166e-011
-1.290028e-012
7.502227e-011
7.722531e-011
-5.904421e-012
-4.736995e-011
1.013851e-011
1.157264e-010
2.248820e-010
3.332503e-010
4.315298e-010
5.057480e-010
5.693144e-010
6.560399e-010
7.909380e-010
9.828110e-010
1.229252e-009
1.513871e-009
1.806334e-009
2.073830e-009
2.289930e-009
2.431788e-009
2.475155e-009
2.396538e-009
2.179576e-009
1.818047e-009
1.314105e-009
6.777901e-010
-6.876653e-011
-8.897827e-010
-1.744095e-009
-2.595685e-009
-3.414649e-009
-4.171699e-009
-4.838207e-009
-5.393221e-009
-5.827953e-009
-6.142450e-009
-6.338947e-009
-6.417644e-009
-6.376022e-009
-6.210446e-009
-5.918408e-009
-5.499959e-009
-4.958710e-009
-4.303444e-009
-3.549441e-009
-2.718517e-009
-1.838341e-009
-9.411102e-010
-6.094820e-011
7.681157e-010
1.511044e-009
2.130405e-009
2.589914e-009
2.860077e-009
2.918823e-009
2.750182e-009
2.352308e-009
1.754833e-009
1.032361e-009
3.049321e-010
-2.752144e-010
-5.562572e-010
-4.459094e-010
1.933692e-011
6.408543e-010
1.104945e-009
1.119345e-009
5.954656e-010
-2.281322e-010
-8.564735e-010
-8.511738e-010
-2.079652e-010
5.535481e-010
7.830080e-010
2.999460e-010
-3.918005e-010
-5.847460e-010
-1.231826e-010
4.048061e-010
3.582055e-010
-1.485617e-010
-3.970028e-010
-6.516051e-011
3.148980e-010
1.689448e-010
-2.379477e-010
3.556246e-011
-3.569805e-011
-2.536555e-011
-2.863998e-011
-1.192821e-010
-7.561459e-011
1.416452e-010
1.737277e-010
-8.975176e-011
-2.472298e-010
-6.794660e-011
1.483799e-010
1.256874e-010
9.071477e-013
-2.345943e-011
1.378410e-011
2.586478e-011
6.286361e-011
1.784667e-010
3.132520e-010
3.968803e-010
4.499351e-010
5.377646e-010
6.950478e-010
9.230824e-010
1.214272e-009
1.549837e-009
1.886712e-009
2.162461e-009
2.315405e-009
2.300030e-009
2.086733e-009
1.653600e-009
9.840104e-010
7.202769e-011
-1.072495e-009
-2.423255e-009
-3.940317e-009
-5.574758e-009
-7.272352e-009
-8.976262e-009
-1.063378e-008
-1.220573e-008
-1.366740e-008
-1.499933e-008
-1.618197e-008
-1.720051e-008
-1.804907e-008
-1.872574e-008
-1.922443e-008
-1.953260e-008
-1.963460e-008
-1.951538e-008
-1.916330e-008
-1.857283e-008
-1.774643e-008
-1.669508e-008
-1.543904e-008
-1.400872e-008
-1.244363e-008
-1.078987e-008
-9.097666e-009
-7.417429e-009
-5.792736e-009
-4.255731e-009
-2.829087e-009
-1.528847e-009
-3.631261e-010
6.654129e-010
1.545830e-009
2.243682e-009
2.699180e-009
2.840624e-009
2.609837e-009
2.002165e-009
1.113533e-009
1.617453e-010
-5.547369e-010
-7.687860e-010
-3.953479e-010
3.552214e-010
1.012624e-009
1.097605e-009
4.835665e-010
-4.185071e-010
-9.035216e-010
-5.597565e-010
2.865331e-010
7.947180e-010
4.502585e-010
-3.230047e-010
-6.162891e-010
-1.566991e-010
3.629825e-010
2.816441e-010
-1.290273e-010
-2.098120e-010
3.536930e-011
1.046851e-010
-5.428968e-011
7.918650e-010
-4.445793e-010
-8.029593e-010
6.027312e-011
5.657958e-010
1.176097e-010
-3.056770e-010
-1.574207e-010
5.642789e-011
2.186243e-011
1.147771e-011
1.131220e-010
9.068544e-011
-5.832465e-011
-8.683368e-011
5.463936e-011
1.967250e-010
2.685192e-010
3.404479e-010
4.454921e-010
5.632638e-010
7.227150e-010
9.833174e-010
1.337387e-009
1.704654e-009
2.003164e-009
2.176243e-009
2.164612e-009
1.896763e-009
1.313356e-009
3.783803e-010
-9.388714e-010
-2.675680e-009
-4.861529e-009
-7.500482e-009
-1.057101e-008
-1.403429e-008
-1.783832e-008
-2.191950e-008
-2.620568e-008
-3.062044e-008
-3.508835e-008
-3.953583e-008
-4.388388e-008
-4.804241e-008
-5.191679e-008
-5.541737e-008
-5.845767e-008
-6.094686e-008
-6.279157e-008
-6.390793e-008
-6.423270e-008
-6.372666e-008
-6.237472e-008
-6.018806e-008
-5.720717e-008
-5.350237e-008
-4.917268e-008
-4.434555e-008
-3.917433e-008
-3.383094e-008
-2.849699e-008
-2.335526e-008
-1.857612e-008
-1.429862e-008
-1.061710e-008
-7.576984e-009
-5.170435e-009
-3.329941e-009
-1.934324e-009
-8.353700e-010
1.041123e-010
9.704195e-010
1.762210e-009
2.373875e-009
2.627244e-009
2.362769e-009
1.564143e-009
4.545126e-010
-5.209385e-010
-8.873528e-010
-4.538019e-010
4.616046e-010
1.146294e-009
9.979088e-010
8.856979e-011
-7.820681e-010
-7.971931e-010
-6.233300e-012
6.667478e-010
4.836422e-010
-2.183520e-010
-5.140927e-010
-1.231948e-010
3.229170e-010
2.572857e-010
-1.124619e-010
-2.595395e-010
-6.430585e-011
1.743002e-010
8.339510e-010
-5.570224e-010
-8.812469e-010
2.376693e-010
7.984241e-010
1.656947e-011
-6.551152e-010
-2.474367e-010
3.721234e-010
3.063811e-010
-6.832727e-011
-1.313545e-010
7.893046e-012
4.638690e-011
6.613149e-011
2.058030e-010
3.537705e-010
4.083442e-010
4.730462e-010
6.667565e-010
9.739295e-010
1.333556e-009
1.708502e-009
2.032093e-009
2.191747e-009
2.087335e-009
1.645072e-009
7.689629e-010
-6.782917e-010
-2.845648e-009
-5.875690e-009
-9.910056e-009
-1.507618e-008
-2.145220e-008
-2.904970e-008
-3.782378e-008
-4.768375e-008
-5.849322e-008
-7.007175e-008
-8.220391e-008
-9.465139e-008
-1.071633e-007
-1.194810e-007
-1.313413e-007
-1.424869e-007
-1.526824e-007
-1.617179e-007
-1.693991e-007
-1.755426e-007
-1.799854e-007
-1.825945e-007
-1.832683e-007
-1.819344e-007
-1.785516e-007
-1.731189e-007
-1.656884e-007
-1.563756e-007
-1.453623e-007
-1.328993e-007
-1.193065e-007
-1.049638e-007
-9.029239e-008
-7.573517e-008
-6.173693e-008
-4.871355e-008
-3.701711e-008
-2.691412e-008
-1.857512e-008
-1.206056e-008
-7.304076e-009
-4.108922e-009
-2.162524e-009
-1.066536e-009
-3.923176e-010
2.264080e-010
9.816627e-010
1.813211e-009
2.428230e-009
2.458558e-009
1.725945e-009
4.756437e-010
-6.352060e-010
-9.184922e-010
-2.270795e-010
7.828733e-010
1.123954e-009
4.290521e-010
-5.864328e-010
-8.418258e-010
-1.324396e-010
6.126356e-010
4.999974e-010
-1.952604e-010
-4.804292e-010
-5.750344e-011
3.390162e-010
1.294220e-010
-2.601983e-010
-1.707503e-010
2.083060e-010
-8.122743e-011
-5.580895e-011
1.733130e-011
1.411897e-010
1.138454e-010
-1.707616e-010
-3.037709e-010
4.124157e-011
3.893919e-010
1.855666e-010
-2.321241e-010
-2.240526e-010
1.211542e-010
3.064345e-010
2.700910e-010
2.855489e-010
4.249212e-010
5.947833e-010
8.236589e-010
1.189868e-009
1.630460e-009
1.998138e-009
2.189981e-009
2.122769e-009
1.657510e-009
5.916057e-010
-1.334578e-009
-4.451636e-009
-9.145787e-009
-1.580782e-008
-2.479105e-008
-3.638227e-008
-5.076311e-008
-6.797764e-008
-8.793152e-008
-1.104081e-007
-1.350776e-007
-1.615065e-007
-1.891819e-007
-2.175442e-007
-2.460182e-007
-2.740384e-007
-3.010659e-007
-3.266015e-007
-3.501995e-007
-3.714713e-007
-3.900710e-007
-4.056818e-007
-4.180186e-007
-4.268328e-007
-4.319061e-007
-4.330445e-007
-4.300862e-007
-4.229204e-007
-4.115066e-007
-3.958988e-007
-3.762699e-007
-3.529258e-007
-3.263117e-007
-2.970146e-007
-2.657558e-007
-2.333593e-007
-2.007074e-007
-1.686974e-007
-1.381904e-007
-1.099475e-007
-8.457489e-008
-6.250007e-008
-4.397036e-008
-2.905714e-008
-1.766762e-008
-9.562538e-009
-4.360403e-009
-1.522506e-009
-3.525699e-010
-5.873940e-011
9.967780e-011
6.013697e-010
1.470930e-009
2.259538e-009
2.337319e-009
1.427935e-009
1.473664e-012
-9.383119e-010
-6.921119e-010
3.793029e-010
1.087949e-009
6.457506e-010
-3.983552e-010
-7.822552e-010
-1.332489e-010
5.582703e-010
3.666747e-010
-2.721880e-010
-3.628592e-010
7.817528e-011
2.402632e-010
-2.653223e-011
-1.280568e-010
5.481289e-011
-1.213569e-009
7.719635e-010
1.126899e-009
-3.794255e-010
-9.339762e-010
1.926654e-011
6.033888e-010
2.069812e-010
-1.804318e-010
-1.474880e-010
-4.018891e-011
7.714880e-011
2.845941e-010
3.919661e-010
3.297687e-010
3.613319e-010
6.492318e-010
1.064643e-009
1.475784e-009
1.870325e-009
2.187670e-009
2.256758e-009
1.876140e-009
7.989642e-010
-1.371469e-009
-5.216304e-009
-1.144642e-008
-2.083255e-008
-3.414684e-008
-5.210445e-008
-7.529867e-008
-1.041318e-007
-1.387596e-007
-1.790717e-007
-2.246990e-007
-2.750276e-007
-3.292227e-007
-3.862813e-007
-4.451035e-007
-5.045577e-007
-5.635327e-007
-6.209779e-007
-6.759261e-007
-7.275059e-007
-7.749427e-007
-8.175432e-007
-8.546720e-007
-8.857429e-007
-9.102251e-007
-9.276381e-007
-9.375376e-007
-9.395198e-007
-9.332551e-007
-9.185254e-007
-8.952485e-007
-8.635066e-007
-8.235883e-007
-7.760276e-007
-7.216243e-007
-6.614532e-007
-5.968656e-007
-5.294563e-007
-4.609889e-007
-3.933018e-007
-3.282025e-007
-2.673407e-007
-2.120690e-007
-1.633393e-007
-1.216562e-007
-8.708738e-008
-5.932843e-008
-3.782292e-008
-2.189963e-008
-1.086398e-008
-4.005308e-009
-5.283880e-010
5.398001e-010
3.625036e-010
9.686358e-011
4.823192e-010
1.463974e-009
2.253731e-009
2.004646e-009
6.916881e-010
-6.551364e-010
-8.543388e-010
1.199625e-010
9.894939e-010
6.673640e-010
-3.526274e-010
-7.004507e-010
-6.522357e-011
4.827289e-010
2.196122e-010
-2.594808e-010
-2.196249e-010
1.052855e-010
1.723519e-010
9.956465e-012
-1.014297e-010
-1.485130e-009
1.167536e-009
1.353468e-009
-8.847294e-010
-1.251792e-009
5.522659e-010
1.119077e-009
-1.471430e-010
-8.015566e-010
-8.223497e-011
5.395503e-010
3.864208e-010
1.565241e-010
2.648103e-010
4.894083e-010
7.590005e-010
1.200277e-009
1.725310e-009
2.121282e-009
2.298075e-009
2.159077e-009
1.375409e-009
-6.221100e-010
-4.596134e-009
-1.154985e-008
-2.274719e-008
-3.961574e-008
-6.361480e-008
-9.614410e-008
-1.384554e-007
-1.915157e-007
-2.558561e-007
-3.314774e-007
-4.178308e-007
-5.138373e-007
-6.179378e-007
-7.281990e-007
-8.424673e-007
-9.585174e-007
-1.074166e-006
-1.187358e-006
-1.296229e-006
-1.399127e-006
-1.494623e-006
-1.581488e-006
-1.658658e-006
-1.725207e-006
-1.780315e-006
-1.823253e-006
-1.853354e-006
-1.869991e-006
-1.872585e-006
-1.860639e-006
-1.833775e-006
-1.791764e-006
-1.734572e-006
-1.662431e-006
-1.575928e-006
-1.476080e-006
-1.364387e-006
-1.242873e-006
-1.114107e-006
-9.811441e-007
-8.473942e-007
-7.164456e-007
-5.918339e-007
-4.767582e-007
-3.737915e-007
-2.846523e-007
-2.100736e-007
-1.497898e-007
-1.026694e-007
-6.699022e-008
-4.079983e-008
-2.226478e-008
-9.901923e-009
-2.585038e-009
7.021688e-010
1.205764e-009
5.033805e-010
1.111241e-010
7.400355e-010
1.848089e-009
2.180394e-009
1.136174e-009
-3.810242e-010
-8.547947e-010
5.686378e-012
8.643102e-010
5.542279e-010
-3.611844e-010
-5.580059e-010
6.222347e-011
4.299216e-010
8.779905e-011
-2.752933e-010
-1.184675e-010
1.822369e-010
1.231141e-010
-1.355548e-010
-4.720622e-010
5.738084e-010
3.490132e-010
-6.876557e-010
-3.718056e-010
7.441773e-010
5.387343e-010
-5.866811e-010
-6.068207e-010
4.325660e-010
8.182894e-010
2.466241e-010
-5.917023e-011
4.158322e-010
1.055808e-009
1.457187e-009
1.815442e-009
2.212764e-009
2.376214e-009
1.970169e-009
5.588715e-010
-2.708038e-009
-9.167180e-009
-2.052512e-008
-3.884521e-008
-6.657311e-008
-1.064162e-007
-1.611130e-007
-2.331958e-007
-3.247234e-007
-4.369563e-007
-5.700780e-007
-7.230762e-007
-8.937853e-007
-1.079036e-006
-1.274904e-006
-1.477047e-006
-1.681059e-006
-1.882757e-006
-2.078377e-006
-2.264703e-006
-2.439123e-006
-2.599611e-006
-2.744663e-006
-2.873206e-006
-2.984501e-006
-3.078051e-006
-3.153516e-006
-3.210630e-006
-3.249126e-006
-3.268700e-006
-3.268983e-006
-3.249514e-006
-3.209745e-006
-3.149068e-006
-3.066886e-006
-2.962692e-006
-2.836229e-006
-2.687662e-006
-2.517769e-006
-2.328140e-006
-2.121382e-006
-1.901255e-006
-1.672656e-006
-1.441446e-006
-1.214113e-006
-9.972752e-007
-7.970535e-007
-6.184622e-007
-4.649167e-007
-3.379399e-007
-2.371095e-007
-1.602688e-007
-1.039755e-007
-6.412495e-008
-3.666507e-008
-1.825246e-008
-6.606199e-009
-3.335847e-010
1.736767e-009
1.239357e-009
2.549444e-010
3.357830e-010
1.424630e-009
2.090156e-009
1.290538e-009
-2.166091e-010
-7.572929e-010
4.058965e-011
7.871991e-010
3.994485e-010
-3.924122e-010
-3.853074e-010
1.972822e-010
3.128203e-010
-9.119723e-011
-2.164141e-010
6.162092e-011
1.376275e-010
-7.418973e-011
1.182834e-009
-7.871322e-010
-1.137502e-009
3.923155e-010
1.007789e-009
3.343968e-011
-6.975632e-010
-2.880976e-010
4.384438e-010
6.364531e-010
2.989570e-010
6.841614e-012
3.122361e-010
1.093845e-009
1.735252e-009
2.003170e-009
2.180115e-009
2.296862e-009
1.761648e-009
-3.604879e-010
-5.297466e-009
-1.491062e-008
-3.186632e-008
-5.954950e-008
-1.020156e-007
-1.639368e-007
-2.502924e-007
-3.658014e-007
-5.142619e-007
-6.978792e-007
-9.166708e-007
-1.168128e-006
-1.447268e-006
-1.747041e-006
-2.058999e-006
-2.374110e-006
-2.683618e-006
-2.979752e-006
-3.256192e-006
-3.508311e-006
-3.733203e-006
-3.929536e-006
-4.097274e-006
-4.237361e-006
-4.351404e-006
-4.441412e-006
-4.509590e-006
-4.558166e-006
-4.589242e-006
-4.604668e-006
-4.605959e-006
-4.594173e-006
-4.569749e-006
-4.532370e-006
-4.480898e-006
-4.413340e-006
-4.326844e-006
-4.217831e-006
-4.082310e-006
-3.916347e-006
-3.716686e-006
-3.481523e-006
-3.211322e-006
-2.909452e-006
-2.582480e-006
-2.239987e-006
-1.893829e-006
-1.556889e-006
-1.241537e-006
-9.581427e-007
-7.139555e-007
-5.125316e-007
-3.537727e-007
-2.344557e-007
-1.490505e-007
-9.068114e-008
-5.219663e-008
-2.730742e-008
-1.151163e-008
-2.307001e-009
1.628413e-009
1.809538e-009
5.967447e-010
2.333114e-010
1.178541e-009
1.959497e-009
1.263137e-009
-1.778899e-010
-6.052978e-010
1.932739e-010
7.007579e-010
1.561931e-010
-4.123941e-010
-1.603968e-010
2.548602e-010
1.208017e-010
-1.404451e-010
-5.132097e-011
7.241921e-011
-3.560025e-012
2.264219e-009
-1.985486e-009
-1.912377e-009
1.679872e-009
1.668460e-009
-1.228439e-009
-1.374242e-009
8.384290e-010
1.299490e-009
-1.108898e-011
-4.174450e-010
4.858562e-010
1.362089e-009
1.748816e-009
1.995008e-009
2.233257e-009
2.258215e-009
1.490327e-009
-1.294611e-009
-8.002109e-009
-2.127141e-008
-4.483979e-008
-8.385021e-008