# vtk DataFile Version 3.0
vtk output
ASCII
DATASET STRUCTURED_POINTS
DIMENSIONS 100 100 1
SPACING 1 1 1
ORIGIN 0 0 0
POINT_DATA 10000
SCALARS SFBox_profile double
LOOKUP_TABLE default 
0.000000e+000
0.000000e+000
0.000000e+000
0.000000e+000
0.000000e+000
0.000000e+000
0.000000e+000
0.000000e+000
0.000000e+000
0.000000e+000
0.000000e+000
0.000000e+000
0.000000e+000
0.000000e+000
0.000000e+000
0.000000e+000
0.000000e+000
0.000000e+000
0.000000e+000
0.000000e+000
0.000000e+000
0.000000e+000
0.000000e+000
0.000000e+000
0.000000e+000
0.000000e+000
0.000000e+000
0.000000e+000
0.000000e+000
0.000000e+000
0.000000e+000
0.000000e+000
0.000000e+000
0.000000e+000
0.000000e+000
0.000000e+000
0.000000e+000
0.000000e+000
0.000000e+000
0.000000e+000
0.000000e+000
0.000000e+000
0.000000e+000
0.000000e+000
0.000000e+000
0.000000e+000
0.000000e+000
0.000000e+000
0.000000e+000
0.000000e+000
0.000000e+000
0.000000e+000
0.000000e+000
0.000000e+000
0.000000e+000
0.000000e+000
0.000000e+000
0.000000e+000
0.000000e+000
0.000000e+000
0.000000e+000
0.000000e+000
0.000000e+000
0.000000e+000
0.000000e+000
0.000000e+000
0.000000e+000
0.000000e+000
0.000000e+000
0.000000e+000
0.000000e+000
0.000000e+000
0.000000e+000
0.000000e+000
0.000000e+000
0.000000e+000
0.000000e+000
0.000000e+000
0.000000e+000
0.000000e+000
0.000000e+000
0.000000e+000
0.000000e+000
0.000000e+000
0.000000e+000
0.000000e+000
0.000000e+000
0.000000e+000
0.000000e+000
0.000000e+000
0.000000e+000
0.000000e+000
0.000000e+000
0.000000e+000
0.000000e+000
0.000000e+000
0.000000e+000
0.000000e+000
0.000000e+000
0.000000e+000
1.863706e-015
2.330129e-015
2.608119e-015
3.312200e-015
4.077213e-015
5.699396e-015
7.189307e-015
8.925765e-015
1.051130e-014
1.182731e-014
1.223757e-014
1.160006e-014
8.723670e-015
3.624016e-015
-4.755349e-015
-1.583915e-014
-3.127211e-014
-5.015198e-014
-7.134596e-014
-9.489635e-014
-1.188516e-013
-1.418588e-013
-1.618094e-013
-1.772463e-013
-1.851378e-013
-1.855888e-013
-1.759663e-013
-1.563914e-013
-1.268816e-013
-8.798847e-014
-4.122704e-014
1.194223e-014
6.928135e-014
1.288244e-013
1.876519e-013
2.446098e-013
2.974441e-013
3.443174e-013
3.846766e-013
4.175995e-013
4.426988e-013
4.596301e-013
4.686654e-013
4.705461e-013
4.643095e-013
4.517772e-013
4.329544e-013
4.082899e-013
3.779750e-013
3.428858e-013
3.034775e-013
2.604412e-013
2.141889e-013
1.664441e-013
1.169173e-013
6.706134e-014
1.814213e-014
-2.878799e-014
-7.292608e-014
-1.129498e-013
-1.483922e-013
-1.783088e-013
-2.022235e-013
-2.195267e-013
-2.304077e-013
-2.348708e-013
-2.336313e-013
-2.267440e-013
-2.143828e-013
-1.988429e-013
-1.798805e-013
-1.587500e-013
-1.359315e-013
-1.131550e-013
-9.055369e-014
-6.925410e-014
-5.015935e-014
-3.304869e-014
-1.869255e-014
-7.581430e-015
1.659442e-015
7.354105e-015
1.116182e-014
1.231086e-014
1.277837e-014
1.158249e-014
9.946433e-015
7.995086e-015
5.845330e-015
3.902439e-015
2.437032e-015
1.245710e-015
1.842765e-016
-8.959300e-017
-5.863744e-016
-1.106141e-015
-1.054750e-015
-1.238414e-015
-1.282432e-015
-1.220416e-015
2.382822e-015
2.523985e-015
2.860521e-015
3.942338e-015
4.889714e-015
6.009044e-015
7.423278e-015
9.013152e-015
9.884633e-015
1.040028e-014
9.346869e-015
7.241348e-015
3.044835e-015
-3.916176e-015
-1.433688e-014
-2.752641e-014
-4.375540e-014
-6.207885e-014
-8.248917e-014
-1.028817e-013
-1.219225e-013
-1.376681e-013
-1.481766e-013
-1.518319e-013
-1.466256e-013
-1.324325e-013
-1.077110e-013
-7.342351e-014
-2.956254e-014
2.209470e-014
7.939088e-014
1.409198e-013
2.037907e-013
2.666202e-013
3.264138e-013
3.818744e-013
4.316243e-013
4.748770e-013
5.109903e-013
5.392162e-013
5.608105e-013
5.748197e-013
5.827231e-013
5.840709e-013
5.799297e-013
5.705442e-013
5.557180e-013
5.360397e-013
5.119990e-013
4.830613e-013
4.498803e-013
4.125107e-013
3.711436e-013
3.265595e-013
2.788448e-013
2.293621e-013
1.784655e-013
1.274596e-013
7.731160e-014
2.899782e-014
-1.587536e-014
-5.697551e-014
-9.307337e-014
-1.238276e-013
-1.487222e-013
-1.668028e-013
-1.789118e-013
-1.847344e-013
-1.851241e-013
-1.803352e-013
-1.709995e-013
-1.577198e-013
-1.417911e-013
-1.240618e-013
-1.050742e-013
-8.596274e-014
-6.731598e-014
-4.950883e-014
-3.401363e-014
-2.066493e-014
-9.962989e-015
-1.739532e-015
4.403774e-015
8.262884e-015
9.983729e-015
1.019884e-014
9.680153e-015
8.210191e-015
6.749771e-015
5.068174e-015
3.284227e-015
2.113072e-015
6.504834e-016
1.649777e-016
-6.123953e-016
-4.445608e-016
-9.391738e-016
-1.108093e-015
-1.159267e-015
-1.095082e-015
2.482568e-015
3.091890e-015
3.726365e-015
4.529976e-015
5.826031e-015
7.011714e-015
8.020022e-015
8.746438e-015
8.633464e-015
7.468814e-015
4.271935e-015
-8.914689e-016
-9.270400e-015
-2.012131e-014
-3.292704e-014
-4.931888e-014
-6.635516e-014
-8.347862e-014
-9.972756e-014
-1.122260e-013
-1.194748e-013
-1.194785e-013
-1.101426e-013
-9.046934e-014
-5.988508e-014
-1.813202e-014
3.400206e-014
9.495873e-014
1.623438e-013
2.341373e-013
3.072167e-013
3.794859e-013
4.478318e-013
5.106765e-013
5.664741e-013
6.141888e-013
6.538860e-013
6.853983e-013
7.095760e-013
7.271702e-013
7.394898e-013
7.476029e-013
7.519764e-013
7.537822e-013
7.532486e-013
7.505222e-013
7.460479e-013
7.385609e-013
7.284381e-013
7.143047e-013
6.964476e-013
6.735532e-013
6.454073e-013
6.116546e-013
5.721213e-013
5.272833e-013
4.772200e-013
4.230749e-013
3.658471e-013
3.066227e-013
2.465139e-013
1.872258e-013
1.299865e-013
7.621937e-014
2.696320e-014
-1.668634e-014
-5.450809e-014
-8.524218e-014
-1.094724e-013
-1.266346e-013
-1.372897e-013
-1.414867e-013
-1.405762e-013
-1.342540e-013
-1.242294e-013
-1.109731e-013
-9.574702e-014
-7.936255e-014
-6.289873e-014
-4.689525e-014
-3.252393e-014
-2.003913e-014
-1.003043e-014
-2.167792e-015
3.149353e-015
6.434485e-015
8.182653e-015
7.991616e-015
7.563573e-015
6.181432e-015
4.975149e-015
3.183613e-015
2.171185e-015
1.149216e-015
1.888301e-016
-8.503936e-017
-1.072531e-015
-1.129343e-015
-1.071230e-015
-1.463494e-015
3.667818e-015
4.011944e-015
4.703231e-015
5.929897e-015
6.769287e-015
7.901844e-015
8.232526e-015
7.573982e-015
5.395819e-015
1.011306e-015
-5.423434e-015
-1.491606e-014
-2.746743e-014
-4.256994e-014
-5.913481e-014
-7.604446e-014
-9.254320e-014
-1.040225e-013
-1.105481e-013
-1.083589e-013
-9.495099e-014
-6.920661e-014
-2.923967e-014
2.414688e-014
9.064902e-014
1.683588e-013
2.541961e-013
3.450885e-013
4.369180e-013
5.258450e-013
6.084772e-013
6.815743e-013
7.436406e-013
7.928996e-013
8.294450e-013
8.542624e-013
8.686307e-013
8.750799e-013
8.752428e-013
8.719941e-013
8.680645e-013
8.649322e-013
8.639395e-013
8.664377e-013
8.725691e-013
8.825718e-013
8.950928e-013
9.095816e-013
9.245542e-013
9.378537e-013
9.480721e-013
9.534337e-013
9.523963e-013
9.438916e-013
9.256840e-013
8.983402e-013
8.607270e-013
8.137475e-013
7.575617e-013
6.933329e-013
6.225111e-013
5.465922e-013
4.680164e-013
3.884527e-013
3.097093e-013
2.339155e-013
1.630536e-013
9.787024e-014
3.993156e-014
-1.014383e-014
-5.129624e-014
-8.411982e-014
-1.078862e-013
-1.230555e-013
-1.303686e-013
-1.300724e-013
-1.243082e-013
-1.130793e-013
-9.886778e-014
-8.235322e-014
-6.510790e-014
-4.836803e-014
-3.302939e-014
-2.003197e-014
-9.402890e-015
-1.268988e-015
3.637894e-015
6.403477e-015
7.669825e-015
7.660935e-015
6.468095e-015
5.442440e-015
3.921088e-015
2.555210e-015
1.341554e-015
4.143442e-016
-2.867010e-016
-5.933133e-016
-9.090330e-016
-1.119585e-015
4.945659e-015
5.377605e-015
6.195961e-015
7.083272e-015
7.797978e-015
8.187206e-015
6.967262e-015
4.135109e-015
-9.027446e-016
-9.389229e-015
-2.109601e-014
-3.489443e-014
-5.222259e-014
-7.052782e-014
-8.817430e-014
-1.033124e-013
-1.126014e-013
-1.125129e-013
-1.000873e-013
-7.239937e-014
-2.792778e-014
3.446285e-014
1.139509e-013
2.089444e-013
3.153952e-013
4.292475e-013
5.447185e-013
6.564909e-013
7.581916e-013
8.463204e-013
9.159782e-013
9.656624e-013
9.942905e-013
1.003163e-012
9.941739e-013
9.707000e-013
9.376468e-013
8.987231e-013
8.588934e-013
8.225735e-013
7.926927e-013
7.723995e-013
7.638393e-013
7.677717e-013
7.840052e-013
8.122339e-013
8.504763e-013
8.966154e-013
9.490581e-013
1.004117e-012
1.059147e-012
1.110788e-012
1.156206e-012
1.192780e-012
1.218263e-012
1.230152e-012
1.227166e-012
1.208439e-012
1.173763e-012
1.123625e-012
1.059130e-012
9.816884e-013
8.934916e-013
7.975707e-013
6.958051e-013
5.917137e-013
4.874967e-013
3.859759e-013
2.893612e-013
1.995422e-013
1.186230e-013
4.785578e-014
-1.195185e-014
-5.992129e-014
-9.571688e-014
-1.201344e-013
-1.334642e-013
-1.363268e-013
-1.313672e-013
-1.194405e-013
-1.031990e-013
-8.434121e-014
-6.473992e-014
-4.614303e-014
-2.998647e-014
-1.648577e-014
-5.736768e-015
1.478163e-015
5.758377e-015
7.637082e-015
7.940008e-015
7.505243e-015
5.813454e-015
4.315304e-015
2.699626e-015
1.272599e-015
5.114887e-016
-2.298888e-016
-1.017670e-015
-8.428967e-016
6.583888e-015
7.201233e-015
7.400292e-015
8.364799e-015
8.169209e-015
6.693393e-015
3.217874e-015
-2.533168e-015
-1.239225e-014
-2.530488e-014
-4.131638e-014
-6.055056e-014
-8.079088e-014
-9.942333e-014
-1.138987e-013
-1.196602e-013
-1.126471e-013
-9.009941e-014
-4.735495e-014
1.652147e-014
1.029385e-013
2.095634e-013
3.334923e-013
4.686019e-013
6.083538e-013
7.447031e-013
8.695084e-013
9.749870e-013
1.055106e-012
1.105147e-012
1.122735e-012
1.107436e-012
1.062651e-012
9.919268e-013
9.019946e-013
7.996437e-013
6.917522e-013
5.859080e-013
4.892178e-013
4.064793e-013
3.425664e-013
3.002591e-013
2.818140e-013
2.871451e-013
3.152591e-013
3.652883e-013
4.349387e-013
5.211202e-013
6.199843e-013
7.287235e-013
8.426933e-013
9.578980e-013
1.070602e-012
1.176359e-012
1.270820e-012
1.350974e-012
1.413297e-012
1.455519e-012
1.475600e-012
1.472841e-012
1.446898e-012
1.399168e-012
1.330192e-012
1.243288e-012
1.141414e-012
1.026809e-012
9.040849e-013
7.763004e-013
6.468614e-013
5.194735e-013
3.973588e-013
2.826554e-013
1.787684e-013
8.732074e-014
1.070689e-014
-5.115942e-014
-9.641965e-014
-1.270818e-013
-1.424781e-013
-1.454150e-013
-1.377982e-013
-1.229076e-013
-1.032087e-013
-8.104242e-014
-5.903506e-014
-3.920284e-014
-2.291422e-014
-9.569857e-015
-4.814237e-016
5.188737e-015
7.874089e-015
8.755979e-015
7.779330e-015
6.537268e-015
4.730770e-015
2.869845e-015
1.489656e-015
3.128628e-016
-1.539946e-016
-8.593765e-016
8.746872e-015
8.810623e-015
9.087745e-015
8.566460e-015
7.237662e-015
2.624816e-015
-3.805371e-015
-1.440887e-014
-2.862731e-014
-4.659016e-014
-6.775530e-014
-8.902258e-014
-1.086377e-013
-1.213741e-013
-1.237251e-013
-1.102461e-013
-7.587793e-014
-1.788243e-014
6.663893e-014
1.771614e-013
3.110602e-013
4.623064e-013
6.232189e-013
7.839800e-013
9.330990e-013
1.059761e-012
1.153538e-012
1.206608e-012
1.212705e-012
1.170654e-012
1.081294e-012
9.498157e-013
7.834464e-013
5.907965e-013
3.836492e-013
1.725922e-013
-3.227197e-014
-2.209316e-013
-3.864168e-013
-5.224012e-013
-6.249296e-013
-6.918806e-013
-7.224488e-013
-7.179153e-013
-6.796916e-013
-6.094576e-013
-5.108065e-013
-3.864639e-013
-2.409952e-013
-7.691507e-014
1.007525e-013
2.886625e-013
4.807413e-013
6.735417e-013
8.606360e-013
1.037007e-012
1.198979e-012
1.340109e-012
1.456992e-012
1.546484e-012
1.606096e-012
1.634193e-012
1.631280e-012
1.598455e-012
1.537452e-012
1.451443e-012
1.344163e-012
1.218995e-012
1.080760e-012
9.334807e-013
7.817162e-013
6.299904e-013
4.827512e-013
3.445497e-013
2.184424e-013
1.082231e-013
1.657178e-014
-5.552485e-014
-1.070340e-013
-1.388987e-013
-1.533502e-013
-1.526544e-013
-1.401804e-013
-1.203992e-013
-9.641185e-014
-7.164217e-014
-4.816247e-014
-2.858459e-014
-1.331469e-014
-2.205956e-015
4.353684e-015
7.981208e-015
8.906900e-015
7.988797e-015
6.855372e-015
4.857188e-015
2.929260e-015
1.598510e-015
5.138739e-016
-4.514072e-017
1.079038e-014
1.075481e-014
9.776647e-015
7.555117e-015
3.128753e-015
-4.315379e-015
-1.598617e-014
-3.135712e-014
-5.101305e-014
-7.305466e-014
-9.589664e-014
-1.156608e-013
-1.272576e-013
-1.251107e-013
-1.040726e-013
-5.826897e-014
1.643430e-014
1.216568e-013
2.563327e-013
4.163859e-013
5.931975e-013
7.755267e-013
9.500002e-013
1.101185e-012
1.214821e-012
1.277157e-012
1.278874e-012
1.213727e-012
1.079799e-012
8.819084e-013
6.269102e-013
3.269097e-013
-4.455241e-015
-3.515645e-013
-6.984149e-013
-1.032114e-012
-1.339848e-012
-1.612349e-012
-1.842809e-012
-2.027073e-012
-2.163629e-012
-2.253092e-012
-2.296937e-012
-2.297047e-012
-2.257582e-012
-2.179908e-012
-2.068062e-012
-1.923411e-012
-1.749447e-012
-1.547411e-012
-1.320813e-012
-1.072012e-012
-8.058311e-013
-5.252576e-013
-2.371712e-013
5.295088e-014
3.387895e-013
6.119579e-013
8.667398e-013
1.095623e-012
1.293650e-012
1.456072e-012
1.578908e-012
1.662027e-012
1.703342e-012
1.705237e-012
1.669112e-012
1.598646e-012
1.497732e-012
1.370987e-012
1.223539e-012
1.060728e-012
8.891631e-013
7.139458e-013
5.425605e-013
3.807948e-013
2.338151e-013
1.074639e-013
4.289283e-015
-7.331899e-014
-1.256881e-013
-1.542766e-013
-1.624595e-013
-1.550789e-013
-1.362816e-013
-1.107259e-013
-8.376355e-014
-5.742871e-014
-3.465201e-014
-1.670564e-014
-3.959544e-015
3.892031e-015
7.956271e-015
9.241701e-015
8.330321e-015
6.834339e-015
4.759176e-015
3.320657e-015
1.713218e-015
1.008921e-015
1.285600e-014
1.184140e-014
9.051316e-015
4.054228e-015
-4.312127e-015
-1.639057e-014
-3.295198e-014
-5.400502e-014
-7.773929e-014
-1.013918e-013
-1.209777e-013
-1.306549e-013
-1.247342e-013
-9.604994e-014
-3.840551e-014
5.276244e-014
1.789853e-013
3.374347e-013
5.219631e-013
7.213470e-013
9.197679e-013
1.099217e-012
1.240636e-012
1.324806e-012
1.335453e-012
1.260795e-012
1.094277e-012
8.369299e-013
4.950328e-013
8.179369e-014
-3.857600e-013
-8.869769e-013
-1.400686e-012
-1.905914e-012
-2.385340e-012
-2.823963e-012
-3.210090e-012
-3.538816e-012
-3.807080e-012
-4.015947e-012
-4.168680e-012
-4.269296e-012
-4.323998e-012
-4.337162e-012
-4.312477e-012
-4.252694e-012
-4.159902e-012
-4.034297e-012
-3.874444e-012
-3.679513e-012
-3.448528e-012
-3.180179e-012
-2.877103e-012
-2.539166e-012
-2.170928e-012
-1.778724e-012
-1.369249e-012
-9.520735e-013
-5.363124e-013
-1.327432e-013
2.493554e-013
5.997637e-013
9.116861e-013
1.177635e-012
1.394153e-012
1.557954e-012
1.669024e-012
1.726907e-012
1.734350e-012
1.693985e-012
1.610288e-012
1.488855e-012
1.335368e-012
1.158298e-012
9.651650e-013
7.655276e-013
5.690771e-013
3.843230e-013
2.199031e-013
8.164732e-014
-2.660636e-014
-1.029290e-013
-1.492810e-013
-1.691076e-013
-1.673820e-013
-1.506189e-013
-1.243478e-013
-9.447004e-014
-6.553594e-014
-3.998281e-014
-1.987238e-014
-5.599508e-015
3.283577e-015
7.887967e-015
9.302200e-015
8.877409e-015
6.968997e-015
5.294338e-015
3.717908e-015
3.068471e-015
1.364031e-014
1.119847e-014
5.777675e-015
-2.935190e-015
-1.561233e-014
-3.382931e-014
-5.592123e-014
-8.042420e-014
-1.052715e-013
-1.252330e-013
-1.336477e-013
-1.236368e-013
-8.747932e-014
-1.812118e-014
8.918708e-014
2.353406e-013
4.164119e-013
6.236593e-013
8.416553e-013
1.050644e-012
1.227406e-012
1.346731e-012
1.385640e-012
1.323896e-012
1.148484e-012
8.539772e-013
4.430234e-013
-7.206891e-014
-6.715937e-013
-1.330622e-012
-2.020544e-012
-2.712091e-012
-3.378653e-012
-3.997638e-012
-4.551391e-012
-5.028926e-012
-5.427300e-012
-5.746132e-012
-5.993238e-012
-6.175976e-012
-6.306158e-012
-6.394123e-012
-6.450017e-012
-6.481343e-012
-6.492937e-012
-6.486507e-012
-6.460856e-012
-6.412272e-012
-6.335078e-012
-6.222405e-012
-6.066415e-012
-5.860748e-012
-5.598549e-012
-5.277889e-012
-4.898067e-012
-4.461086e-012
-3.973232e-012
-3.443716e-012
-2.883420e-012
-2.306076e-012
-1.726292e-012
-1.157837e-012
-6.146856e-013
-1.095901e-013
3.475241e-013
7.481326e-013
1.086577e-012
1.358220e-012
1.560990e-012
1.694621e-012
1.759710e-012
1.759175e-012
1.697757e-012
1.581237e-012
1.419373e-012
1.222517e-012
1.003560e-012
7.761296e-013
5.540279e-013
3.495652e-013
1.731447e-013
3.109293e-014
-7.297422e-014
-1.392281e-013
-1.723567e-013
-1.776539e-013
-1.634455e-013
-1.366993e-013
-1.051098e-013
-7.268408e-014
-4.480187e-014
-2.279214e-014
-6.681325e-015
2.797637e-015
7.929817e-015
9.622256e-015
9.187708e-015
7.709724e-015
6.293105e-015
5.471930e-015
1.292929e-014
8.419442e-015
-2.411645e-016
-1.384335e-014
-3.303958e-014
-5.587288e-014
-8.205246e-014
-1.083437e-013
-1.278899e-013
-1.357649e-013
-1.224357e-013
-7.940484e-014
2.965998e-016
1.222978e-013
2.871411e-013
4.894136e-013
7.166717e-013
9.498927e-013
1.164688e-012
1.330693e-012
1.417720e-012
1.397195e-012
1.246119e-012
9.498866e-013
5.042568e-013
-8.297056e-014
-7.922890e-013
-1.595169e-012
-2.456523e-012
-3.336094e-012
-4.195803e-012
-5.000670e-012
-5.722660e-012
-6.341903e-012
-6.848603e-012
-7.242752e-012
-7.531307e-012
-7.728227e-012
-7.852380e-012
-7.924009e-012
-7.963701e-012
-7.989955e-012
-8.017546e-012
-8.057010e-012
-8.114533e-012
-8.191184e-012
-8.282319e-012
-8.379480e-012
-8.470601e-012
-8.540707e-012
-8.573690e-012
-8.553240e-012
-8.464209e-012
-8.293391e-012
-8.032370e-012
-7.675992e-012
-7.224235e-012
-6.683581e-012
-6.063781e-012
-5.379280e-012
-4.647115e-012
-3.887469e-012
-3.119563e-012
-2.362443e-012
-1.633362e-012
-9.487079e-013
-3.210325e-013
2.386352e-013
7.223605e-013
1.122156e-012
1.433883e-012
1.654069e-012
1.782413e-012
1.820435e-012
1.774510e-012
1.653883e-012
1.471870e-012
1.245316e-012
9.934238e-013
7.357070e-013
4.906563e-013
2.734848e-013
9.538482e-014
-3.829319e-014
-1.266442e-013
-1.740138e-013
-1.869464e-013
-1.752698e-013
-1.479448e-013
-1.140776e-013
-7.918843e-014
-4.850421e-014
-2.430785e-014
-7.411427e-015
3.102081e-015
8.442428e-015
1.017281e-014
1.028449e-014
9.469601e-015
8.697866e-015
8.238598e-015
1.585716e-015
-1.116212e-014
-3.014064e-014
-5.418478e-014
-8.149453e-014
-1.088316e-013
-1.298018e-013
-1.371176e-013
-1.217722e-013
-7.399662e-014
1.476203e-014
1.500284e-013
3.313766e-013
5.524161e-013
7.975996e-013
1.043564e-012
1.259304e-012
1.408632e-012
1.455369e-012
1.365644e-012
1.111861e-012
6.804179e-013
6.829342e-014
-7.090557e-013
-1.623772e-012
-2.634218e-012
-3.692031e-012
-4.743653e-012
-5.737831e-012
-6.630413e-012
-7.386164e-012
-7.983067e-012
-8.412319e-012
-8.678559e-012
-8.797174e-012
-8.793862e-012
-8.698692e-012
-8.544713e-012
-8.366452e-012
-8.194381e-012
-8.056148e-012
-7.973808e-012
-7.963799e-012
-8.033633e-012
-8.186330e-012
-8.416657e-012
-8.712199e-012
-9.055825e-012
-9.424454e-012
-9.791006e-012
-1.012576e-011
-1.039984e-011
-1.058582e-011
-1.065869e-011
-1.060043e-011
-1.039975e-011
-1.005182e-011
-9.560145e-012
-8.937361e-012
-8.198996e-012
-7.367997e-012
-6.468384e-012
-5.526679e-012
-4.567411e-012
-3.614711e-012
-2.689499e-012
-1.811184e-012
-9.959328e-013
-2.598833e-013
3.844602e-013
9.245273e-013
1.350957e-012
1.655803e-012
1.837264e-012
1.898195e-012
1.847364e-012
1.701138e-012
1.481021e-012
1.212322e-012
9.223568e-013
6.368070e-013
3.783427e-013
1.621279e-013
-2.330205e-015
-1.131502e-013
-1.748524e-013
-1.951274e-013
-1.858460e-013
-1.576946e-013
-1.210820e-013
-8.384768e-014
-5.094063e-014
-2.525479e-014
-7.131703e-015
3.887261e-015
9.983079e-015
1.201205e-014
1.260446e-014
1.257844e-014
-7.401143e-016
-9.770868e-015
-2.661308e-014
-5.092805e-014
-7.878142e-014
-1.079705e-013
-1.302292e-013
-1.387090e-013
-1.226654e-013
-7.147195e-014
2.383354e-014
1.698591e-013
3.653995e-013
6.032407e-013
8.638400e-013
1.120026e-012
1.334292e-012
1.464490e-012
1.466439e-012
1.301233e-012
9.381603e-013
3.624375e-013
-4.227302e-013
-1.395458e-012
-2.515077e-012
-3.724840e-012
-4.958031e-012
-6.145925e-012
-7.220500e-012
-8.125379e-012
-8.815868e-012
-9.267112e-012
-9.471108e-012
-9.436801e-012
-9.189856e-012
-8.765419e-012
-8.208271e-012
-7.565485e-012
-6.886888e-012
-6.219529e-012
-5.607551e-012
-5.089803e-012
-4.700004e-012
-4.465490e-012
-4.405591e-012
-4.531555e-012
-4.844980e-012
-5.337087e-012
-5.988665e-012
-6.770075e-012
-7.643216e-012
-8.561396e-012
-9.473992e-012
-1.032963e-011
-1.107812e-011
-1.167610e-011
-1.208813e-011
-1.228961e-011
-1.226981e-011
-1.202777e-011
-1.157538e-011
-1.093323e-011
-1.012912e-011
-9.194222e-012
-8.161636e-012
-7.063604e-012
-5.929492e-012
-4.788184e-012
-3.665928e-012
-2.586084e-012
-1.572626e-012
-6.485297e-013
1.625138e-013
8.415633e-013
1.369949e-012
1.738107e-012
1.942815e-012
1.991695e-012
1.902803e-012
1.702957e-012
1.425298e-012
1.106672e-012
7.817559e-013
4.809193e-013
2.264774e-013
3.117294e-014
-1.015909e-013
-1.766957e-013
-2.030891e-013
-1.954897e-013
-1.658381e-013
-1.267029e-013
-8.681796e-014
-5.137713e-014
-2.471161e-014
-5.382017e-015
6.108791e-015
1.278639e-014
1.564023e-014
1.676823e-014
-1.570709e-014
-2.687481e-014
-4.778928e-014
-7.585689e-014
-1.047021e-013
-1.288332e-013
-1.391628e-013
-1.243331e-013
-7.234473e-014
2.724618e-014
1.805881e-013
3.878193e-013
6.393483e-013
9.140268e-013
1.178653e-012
1.391261e-012
1.501088e-012
1.458660e-012
1.217316e-012
7.442141e-013
2.371537e-014
-9.345890e-013
-2.098801e-012
-3.413912e-012
-4.803182e-012
-6.180608e-012
-7.455600e-012
-8.541111e-012
-9.363850e-012
-9.869690e-012
-1.002551e-011
-9.823032e-012
-9.274281e-012
-8.410052e-012
-7.276888e-012
-5.927334e-012
-4.421891e-012
-2.822019e-012
-1.190923e-012
4.098531e-013
1.917762e-012
3.272605e-012
4.414256e-012
5.287920e-012
5.844132e-012
6.042842e-012
5.858596e-012
5.281617e-012
4.323318e-012
3.015136e-012
1.409217e-012
-4.237251e-013
-2.399177e-012
-4.424603e-012
-6.404932e-012
-8.250811e-012
-9.883150e-012
-1.123887e-011
-1.227468e-011
-1.296742e-011
-1.331328e-011
-1.332721e-011
-1.303573e-011
-1.247640e-011
-1.169040e-011
-1.072045e-011
-9.608242e-012
-8.391371e-012
-7.104504e-012
-5.782667e-012
-4.459299e-012
-3.167780e-012
-1.946396e-012
-8.318680e-013
1.386542e-013
9.323596e-013
1.527031e-012
1.910557e-012
2.086546e-012
2.074309e-012
1.906833e-012
1.626814e-012
1.281871e-012
9.185354e-013
5.759134e-013
2.838239e-013
5.862668e-014
-9.429440e-014
-1.803122e-013
-2.119841e-013
-2.036117e-013
-1.720081e-013
-1.298779e-013
-8.682533e-014
-4.981349e-014
-2.153294e-014
-1.640653e-015
1.083548e-014
1.732725e-014
2.015723e-014
-3.758846e-014
-5.052603e-014
-7.370540e-014
-1.013630e-013
-1.264978e-013
-1.391622e-013
-1.265932e-013
-7.591869e-014
2.430170e-014
1.815355e-013
3.971048e-013
6.598233e-013
9.464803e-013
1.220084e-012
1.432172e-012
1.525603e-012
1.441504e-012
1.129168e-012
5.504743e-013
-3.072963e-013
-1.431206e-012
-2.775845e-012
-4.269139e-012
-5.813229e-012
-7.297439e-012
-8.604182e-012
-9.625019e-012
-1.026584e-011
-1.045646e-011
-1.015387e-011
-9.343379e-012
-8.034975e-012
-6.259141e-012
-4.060857e-012
-1.493958e-012
1.380766e-012
4.500266e-012
7.794509e-012
1.118761e-011
1.459522e-011
1.791902e-011
2.105056e-011
2.387090e-011
2.625726e-011
2.808966e-011
2.926071e-011
2.968524e-011
2.930984e-011
2.811933e-011
2.614162e-011
2.344780e-011
2.014869e-011
1.638816e-011
1.233235e-011
8.157904e-012
4.040229e-012
1.386558e-013
-3.410144e-012
-6.502774e-012
-9.070221e-012
-1.108111e-011
-1.253397e-011
-1.345562e-011
-1.389112e-011
-1.389666e-011
-1.353193e-011
-1.285539e-011
-1.192073e-011
-1.077615e-011
-9.464686e-012
-8.030282e-012
-6.516090e-012
-4.972395e-012
-3.453681e-012
-2.019018e-012
-7.272605e-013
3.668513e-013
1.221264e-012
1.812796e-012
2.138514e-012
2.217945e-012
2.091108e-012
1.812469e-012
1.442608e-012
1.040854e-012
6.574448e-013
3.289935e-013
7.712100e-014
-9.303608e-014
-1.874035e-013
-2.206640e-013
-2.106111e-013
-1.750306e-013
-1.293016e-013
-8.402397e-014
-4.497144e-014
-1.561667e-014
4.233338e-015
1.638876e-014
2.187049e-014
-6.664725e-014
-8.007184e-014
-1.021985e-013
-1.255929e-013
-1.391060e-013
-1.296899e-013
-8.276023e-014
1.541862e-014
1.733194e-013
3.932301e-013
6.640799e-013
9.612226e-013
1.244293e-012
1.458963e-012
1.540917e-012
1.424402e-012
1.051264e-012
3.792149e-013
-6.044625e-013
-1.879718e-012
-3.389609e-012
-5.041188e-012
-6.712713e-012
-8.264961e-012
-9.552054e-012
-1.043596e-011
-1.079873e-011
-1.054812e-011
-9.624403e-012
-7.999105e-012
-5.668075e-012
-2.646471e-012
1.038261e-012
5.354674e-012
1.026673e-011
1.573421e-011
2.170589e-011
2.810977e-011
3.484589e-011
4.177663e-011
4.872359e-011
5.546807e-011
6.176096e-011
6.733527e-011
7.192410e-011
7.528261e-011
7.720857e-011
7.756116e-011
7.627487e-011
7.336681e-011
6.894127e-011
6.318074e-011
5.633561e-011
4.870517e-011
4.061707e-011
3.240205e-011
2.437236e-011
1.679940e-011
9.901465e-012
3.832616e-012
-1.319506e-012
-5.527488e-012
-8.816295e-012
-1.124892e-011
-1.291167e-011
-1.390116e-011
-1.431123e-011
-1.422840e-011
-1.372459e-011
-1.286078e-011
-1.169090e-011
-1.026756e-011
-8.648084e-012
-6.899978e-012
-5.102024e-012
-3.342407e-012
-1.710414e-012
-2.903659e-013
8.511427e-013
1.672032e-012
2.161339e-012
2.340768e-012
2.257743e-012
1.980075e-012
1.583873e-012
1.142879e-012
7.197300e-013
3.583997e-013
8.342130e-014
-9.914165e-014
-1.976462e-013
-2.294740e-013
-2.152549e-013
-1.750924e-013
-1.256515e-013
-7.712281e-014
-3.696938e-014
-7.365674e-015
1.161155e-014
2.083226e-014
-1.025161e-013
-1.140700e-013
-1.306603e-013
-1.426164e-013
-1.351016e-013
-9.234739e-014
6.160058e-016
1.560667e-013
3.761494e-013
6.517787e-013
9.582545e-013
1.251880e-012
1.473572e-012
1.552764e-012
1.415220e-012
9.948901e-013
2.460126e-013
-8.452558e-013
-2.254073e-012
-3.909598e-012
-5.698489e-012
-7.473507e-012
-9.062577e-012
-1.028669e-011
-1.097575e-011
-1.097966e-011
-1.017826e-011
-8.486145e-012
-5.846260e-012
-2.223910e-012
2.405644e-012
8.065195e-012
1.478545e-011
2.260060e-011
3.154457e-011
4.163131e-011
5.283578e-011
6.506986e-011
7.816300e-011
9.184770e-011
1.057611e-010
1.194532e-010
1.324111e-010
1.440918e-010
1.539611e-010
1.615318e-010
1.664025e-010
1.682895e-010
1.670472e-010
1.626826e-010
1.553561e-010
1.453734e-010
1.331666e-010
1.192627e-010
1.042509e-010
8.873831e-011
7.331139e-011
5.849388e-011
4.471778e-011
3.230264e-011
2.144633e-011
1.223058e-011
4.635390e-012
-1.437180e-012
-6.135923e-012
-9.634432e-012
-1.210606e-011
-1.370788e-011
-1.457037e-011
-1.479528e-011
-1.446089e-011
-1.363200e-011
-1.237143e-011
-1.075233e-011
-8.864909e-012
-6.818329e-012
-4.738326e-012
-2.755513e-012
-9.926565e-013
4.524850e-013
1.514420e-012
2.173987e-012
2.452415e-012
2.408904e-012
2.126822e-012
1.700600e-012
1.219818e-012
7.583950e-013
3.684832e-013
7.591428e-014
-1.129262e-013
-2.107607e-013
-2.367208e-013
-2.160789e-013
-1.700630e-013
-1.162677e-013
-6.647876e-014
-2.631579e-014
3.829023e-016
1.392762e-014
-1.432260e-013
-1.496848e-013
-1.549824e-013
-1.464656e-013
-1.071431e-013
-1.942591e-014
1.297451e-013
3.466951e-013
6.240531e-013
9.376308e-013
1.242718e-012
1.476684e-012
1.562520e-012
1.418752e-012
9.705418e-013
1.663023e-013
-1.011691e-012
-2.532151e-012
-4.312942e-012
-6.221317e-012
-8.080309e-012
-9.685226e-012
-1.082090e-011
-1.127729e-011
-1.086760e-011
-9.435406e-012
-6.854061e-012
-3.022317e-012
2.152920e-012
8.772850e-012
1.696060e-011
2.687211e-011
3.868899e-011
5.260285e-011
6.877896e-011
8.731426e-011
1.081885e-010
1.312206e-010
1.560390e-010
1.820746e-010
2.085731e-010
2.346378e-010
2.592840e-010
2.815103e-010
3.003636e-010
3.150080e-010
3.247728e-010
3.291908e-010
3.280254e-010
3.212798e-010
3.092002e-010
2.922645e-010
2.711600e-010
2.467493e-010
2.200210e-010
1.920275e-010
1.638158e-010
1.363582e-010
1.104863e-010
8.684501e-011
6.586385e-011
4.775517e-011
3.253292e-011
2.005077e-011
1.004861e-011
2.207734e-012
-3.806225e-012
-8.302383e-012
-1.154173e-011
-1.372588e-011
-1.499891e-011
-1.546080e-011
-1.518839e-011
-1.425527e-011
-1.275060e-011
-1.079319e-011
-8.532095e-012
-6.141130e-012
-3.801729e-012
-1.685763e-012
6.887152e-014
1.373226e-012
2.196052e-012
2.563013e-012
2.547133e-012
2.250789e-012
1.788375e-012
1.266370e-012
7.700866e-013
3.573591e-013
5.499243e-014
-1.337199e-013
-2.244145e-013
-2.414521e-013
-2.119332e-013
-1.599346e-013
-1.028041e-013
-5.383219e-014
-1.842280e-014
-6.140375e-017
-1.853242e-013
-1.831658e-013
-1.699450e-013
-1.308468e-013
-4.815726e-014
9.382487e-014
3.050960e-013
5.808578e-013
8.993311e-013
1.216655e-012
1.468171e-012
1.571318e-012
1.436886e-012
9.816043e-013
1.459589e-013
-1.092052e-012
-2.699788e-012
-4.585561e-012
-6.596868e-012
-8.530081e-012
-1.014488e-011
-1.118475e-011
-1.139850e-011
-1.055299e-011
-8.445085e-012
-4.893513e-012
2.725762e-013
7.239245e-012