# vtk DataFile Version 3.0
vtk output
ASCII
DATASET STRUCTURED_POINTS
DIMENSIONS 100 100 1
SPACING 1 1 1
ORIGIN 0 0 0
POINT_DATA 10000
SCALARS SFBox_profile double
LOOKUP_TABLE default 
0.000000e+000
0.000000e+000
0.000000e+000
0.000000e+000
0.000000e+000
0.000000e+000
0.000000e+000
0.000000e+000
0.000000e+000
0.000000e+000
0.000000e+000
0.000000e+000
0.000000e+000
0.000000e+000
0.000000e+000
0.000000e+000
0.000000e+000
0.000000e+000
0.000000e+000
0.000000e+000
0.000000e+000
0.000000e+000
0.000000e+000
0.000000e+000
0.000000e+000
0.000000e+000
0.000000e+000
0.000000e+000
0.000000e+000
0.000000e+000
0.000000e+000
0.000000e+000
0.000000e+000
0.000000e+000
0.000000e+000
0.000000e+000
0.000000e+000
0.000000e+000
0.000000e+000
0.000000e+000
0.000000e+000
0.000000e+000
0.000000e+000
0.000000e+000
0.000000e+000
0.000000e+000
0.000000e+000
0.000000e+000
0.000000e+000
0.000000e+000
0.000000e+000
0.000000e+000
0.000000e+000
0.000000e+000
0.000000e+000
0.000000e+000
0.000000e+000
0.000000e+000
0.000000e+000
0.000000e+000
0.000000e+000
0.000000e+000
0.000000e+000
0.000000e+000
0.000000e+000
0.000000e+000
0.000000e+000
0.000000e+000
0.000000e+000
0.000000e+000
0.000000e+000
0.000000e+000
0.000000e+000
0.000000e+000
0.000000e+000
0.000000e+000
0.000000e+000
0.000000e+000
0.000000e+000
0.000000e+000
0.000000e+000
0.000000e+000
0.000000e+000
0.000000e+000
0.000000e+000
0.000000e+000
0.000000e+000
0.000000e+000
0.000000e+000
0.000000e+000
0.000000e+000
0.000000e+000
0.000000e+000
0.000000e+000
0.000000e+000
0.000000e+000
0.000000e+000
0.000000e+000
0.000000e+000
0.000000e+000
8.405281e-008
5.317338e-008
1.048644e-008
-1.981232e-008
-2.532254e-008
-1.226480e-008
2.375492e-009
5.942728e-009
-5.260552e-010
-6.004096e-009
-1.762068e-009
9.680043e-009
1.719485e-008
1.227157e-008
-2.355803e-009
-1.508753e-008
-1.632902e-008
-7.082611e-009
2.936146e-009
5.227791e-009
2.631508e-010
-4.335581e-009
-2.468143e-009
4.319519e-009
9.224708e-009
7.734166e-009
1.952173e-009
-2.422227e-009
-2.397331e-009
-1.893279e-010
2.152538e-010
-2.136458e-009
-4.471711e-009
-3.914396e-009
-7.596137e-010
2.262008e-009
3.344481e-009
3.383741e-009
4.371248e-009
6.791820e-009
9.235772e-009
1.034120e-008
1.037573e-008
1.060010e-008
1.154035e-008
1.247708e-008
1.259912e-008
1.209444e-008
1.177111e-008
1.190724e-008
1.196743e-008
1.147251e-008
1.069970e-008
1.023321e-008
1.007383e-008
9.622473e-009
8.562167e-009
7.349416e-009
6.569851e-009
6.057083e-009
5.077360e-009
3.409449e-009
1.815363e-009
1.128220e-009
1.096591e-009
6.097509e-010
-8.253420e-010
-2.247856e-009
-2.289121e-009
-9.332128e-010
2.699120e-010
7.556600e-012
-1.091215e-009
-1.058066e-009
1.016491e-009
3.613442e-009
4.256627e-009
2.318305e-009
-8.738414e-011
-3.489444e-010
1.627347e-009
3.053888e-009
1.173459e-009
-3.554342e-009
-7.443967e-009
-6.941893e-009
-2.037856e-009
3.651729e-009
6.148731e-009
4.490961e-009
1.080596e-009
-1.004989e-009
-8.711592e-010
-1.160180e-010
-6.300236e-010
-2.368474e-009
-3.378008e-009
-1.935297e-009
1.463735e-009
4.309203e-009
2.611112e-008
1.404300e-008
-1.926430e-009
-1.148355e-008
-9.657708e-009
-8.886068e-011
8.380359e-009
8.972139e-009
2.148100e-009
-5.510837e-009
-7.515056e-009
-3.118057e-009
2.627302e-009
4.165556e-009
8.014094e-010
-3.063364e-009
-2.803775e-009
1.582558e-009
5.615655e-009
5.134171e-009
5.930835e-010
-3.610487e-009
-3.850537e-009
-8.598911e-010
1.513965e-009
7.115894e-010
-1.939731e-009
-3.086019e-009
-1.247984e-009
1.705977e-009
2.916394e-009
1.725737e-009
5.908302e-011
-1.175629e-010
9.629447e-010
1.457186e-009
3.000063e-010
-1.616485e-009
-2.712389e-009
-2.630152e-009
-2.431081e-009
-3.072981e-009
-4.245642e-009
-4.937384e-009
-4.792341e-009
-4.453144e-009
-4.593356e-009
-5.052259e-009
-5.180094e-009
-4.788536e-009
-4.364239e-009
-4.329314e-009
-4.453400e-009
-4.230746e-009
-3.634942e-009
-3.152404e-009
-3.055844e-009
-2.978761e-009
-2.430383e-009
-1.539112e-009
-9.429128e-010
-9.166808e-010
-9.368865e-010
-3.552700e-010
6.652278e-010
1.246114e-009
8.985111e-010
2.247935e-010
2.241954e-010
9.979331e-010
1.514201e-009
8.389348e-010
-6.292116e-010
-1.494519e-009
-9.712368e-010
1.383437e-010
3.283413e-010
-8.271839e-010
-2.072278e-009
-1.812063e-009
7.384042e-011
1.991257e-009
2.261340e-009
8.481127e-010
-6.711633e-010
-8.108017e-010
3.040144e-010
1.185021e-009
6.467772e-010
-9.153056e-010
-1.942596e-009
-1.328884e-009
4.485030e-010
1.790971e-009
1.518816e-009
-3.630105e-011
-1.396184e-009
-1.344626e-009
-2.886618e-011
1.238200e-009
-4.608179e-008
-3.229822e-008
-1.248099e-008
3.669230e-009
1.108076e-008
1.128838e-008
8.908232e-009
6.651967e-009
3.678581e-009
-1.755358e-009
-8.768511e-009
-1.346393e-008
-1.216877e-008
-4.973533e-009
4.008089e-009
9.878636e-009
1.056110e-008
7.605373e-009
4.011663e-009
1.582198e-009
1.605891e-010
-1.205063e-009
-2.898094e-009
-4.486780e-009
-5.348547e-009
-5.169069e-009
-3.932656e-009
-1.814535e-009
7.161487e-010
2.882736e-009
4.015012e-009
4.070106e-009
3.589413e-009
3.027684e-009
2.227079e-009
7.043172e-010
-1.595245e-009
-4.049400e-009
-5.966645e-009
-7.298513e-009
-8.561740e-009
-1.008892e-008
-1.157719e-008
-1.248871e-008
-1.274200e-008
-1.278888e-008
-1.301619e-008
-1.329014e-008
-1.322041e-008
-1.273734e-008
-1.218993e-008
-1.186549e-008
-1.161703e-008
-1.109969e-008
-1.025960e-008
-9.386980e-009
-8.675025e-009
-7.920027e-009
-6.795655e-009
-5.329003e-009
-3.916753e-009
-2.842979e-009
-1.940682e-009
-8.528825e-010
4.482084e-010
1.564569e-009
2.121591e-009
2.184074e-009
2.123964e-009
2.135519e-009
2.013518e-009
1.438338e-009
3.828430e-010
-8.333349e-010
-1.836043e-009
-2.453089e-009
-2.707961e-009
-2.688618e-009
-2.483535e-009
-2.143760e-009
-1.564216e-009
-4.253646e-010
1.529801e-009
3.958954e-009
5.701835e-009
5.387458e-009
2.579966e-009
-1.554849e-009
-4.840923e-009
-5.592350e-009
-3.767576e-009
-8.050622e-010
1.612743e-009
2.695224e-009
2.671414e-009
2.087489e-009
1.184252e-009
-4.678990e-011
-1.408991e-009
-2.347556e-009
-8.236735e-008
-5.109821e-008
-8.594597e-009
2.033024e-008
2.400588e-008
1.011939e-008
-3.751511e-009
-5.946671e-009
1.039893e-009
5.991608e-009
1.510733e-009
-8.700390e-009
-1.419879e-008
-8.643080e-009
3.889195e-009
1.299888e-008
1.187843e-008
3.133691e-009
-4.666623e-009
-5.506021e-009
-8.658433e-010
3.083127e-009
2.208259e-009
-2.010221e-009
-4.964185e-009
-3.963568e-009
-4.431739e-010
2.267182e-009
2.500811e-009
1.354478e-009
8.212157e-010
1.538324e-009
2.507839e-009
2.565851e-009
1.648759e-009
6.154434e-010
1.886551e-010
3.207845e-010
4.893995e-010
3.501228e-010
4.460988e-012
-2.396796e-010
-2.149145e-010
9.087941e-014
2.165792e-010
3.141563e-010
3.127458e-010
3.188995e-010
4.120334e-010
5.666361e-010
6.792175e-010
6.764005e-010
5.930091e-010
5.328811e-010
5.536205e-010
6.059239e-010
5.990500e-010
5.212042e-010
4.775301e-010
5.902412e-010
8.519502e-010
1.091389e-009
1.122784e-009
9.599168e-010
8.575767e-010
1.066812e-009
1.509563e-009
1.762644e-009
1.482345e-009
8.651230e-010
5.502412e-010
9.135338e-010
1.492405e-009
1.334422e-009
8.376820e-011
-1.386352e-009
-1.716199e-009
-5.859665e-010
6.794881e-010
3.713035e-010
-1.601639e-009
-3.196381e-009
-2.095006e-009
1.743551e-009
5.540721e-009
6.012015e-009
2.437851e-009
-2.538918e-009
-5.244443e-009
-4.190430e-009
-1.094061e-009
1.121457e-009
1.176676e-009
2.890224e-010
3.934624e-010
1.807795e-009
2.851980e-009
1.757531e-009
-1.228583e-009
-3.818632e-009
-6.500122e-008
-3.397563e-008
6.293810e-009
2.908417e-008
2.283327e-008
-1.519955e-009
-2.125552e-008
-2.099049e-008
-3.979054e-009
1.319704e-008
1.656478e-008
6.450055e-009
-5.055195e-009
-7.056659e-009
-4.479630e-011
6.162771e-009
3.530354e-009
-5.908308e-009
-1.271441e-008
-1.010357e-008
-5.921552e-010
7.238161e-009
7.677761e-009
2.909060e-009
-5.049027e-010
1.007378e-009
4.873866e-009
6.094502e-009
2.939399e-009
-1.639499e-009
-3.701559e-009
-2.405176e-009
-1.267970e-010
7.785257e-010
4.767590e-010
8.739870e-010
3.066251e-009
6.182819e-009
8.631308e-009
9.884704e-009
1.071755e-008
1.196733e-008
1.354305e-008
1.474645e-008
1.522575e-008
1.529861e-008
1.541088e-008
1.558830e-008
1.555590e-008
1.521598e-008
1.477555e-008
1.441244e-008
1.402335e-008
1.341562e-008
1.262482e-008
1.186178e-008
1.115804e-008
1.025841e-008
8.981686e-009
7.564193e-009
6.434852e-009
5.634179e-009
4.676856e-009
3.172957e-009
1.479171e-009
4.459672e-010
4.075013e-010
6.514134e-010
1.967875e-010
-9.099461e-010
-1.421932e-009
-2.958224e-010
1.864460e-009
3.182542e-009
2.543806e-009
1.010391e-009
7.748821e-010
2.585069e-009
4.551043e-009
3.942780e-009
2.381745e-010
-3.939945e-009
-5.239564e-009
-2.926733e-009
3.965697e-010
1.519241e-009
-8.293683e-011
-1.872623e-009
-1.154791e-009
1.877582e-009
4.217049e-009
3.172883e-009
-7.168993e-010
-4.035233e-009
-3.778970e-009
-2.924754e-010
3.072936e-009
3.212964e-009
2.288108e-010
-2.770682e-009
-1.492754e-008
-8.667516e-010
1.593008e-008
2.149902e-008
1.019213e-008
-1.049960e-008
-2.537487e-008
-2.333874e-008
-6.170020e-009
1.317467e-008
2.138327e-008
1.531108e-008
3.044683e-009
-4.799069e-009
-4.732953e-009
-1.851905e-009
-2.632704e-009
-7.381500e-009
-1.033143e-008
-6.675581e-009
1.666971e-009
7.941721e-009
7.738662e-009
3.343711e-009
6.557836e-010
2.509459e-009
5.955652e-009
6.149614e-009
1.993001e-009
-2.851358e-009
-4.249301e-009
-1.929321e-009
8.816800e-010
1.504937e-009
5.677495e-010
6.179305e-010
2.801407e-009
5.677459e-009
7.195263e-009
7.064055e-009
6.717913e-009
7.313775e-009
8.435504e-009
8.907419e-009
8.374047e-009
7.601223e-009
7.350328e-009
7.466414e-009
7.293805e-009
6.670165e-009
6.103791e-009
6.000142e-009
6.104607e-009
5.925474e-009
5.472779e-009
5.223643e-009
5.361509e-009
5.408410e-009
4.846592e-009
3.903822e-009
3.348406e-009
3.454534e-009
3.521156e-009
2.718033e-009
1.259411e-009
3.129722e-010
5.846324e-010
1.319132e-009
1.119836e-009
-2.598411e-010
-1.386665e-009
-7.312262e-010
1.407488e-009
3.026295e-009
2.641565e-009
1.072503e-009
5.908233e-010
2.275314e-009
4.590570e-009
4.900464e-009
2.283157e-009
-1.484114e-009
-3.815766e-009
-3.890751e-009
-3.050029e-009
-2.759423e-009
-2.675061e-009
-1.144358e-009
2.419933e-009
6.096390e-009
6.810044e-009
3.300314e-009
-2.317286e-009
-6.094551e-009
-5.544796e-009
-1.653506e-009
2.169320e-009
3.128481e-009
1.299417e-009
-8.079929e-010
3.387796e-008
2.324058e-008
8.746831e-009
-2.013267e-009
-6.468968e-009
-7.199882e-009
-7.238488e-009
-6.407610e-009
-2.684564e-009
3.667911e-009
8.720558e-009
8.337678e-009
2.643596e-009
-3.728873e-009
-6.067241e-009
-3.851068e-009
-3.727400e-010
1.363894e-009
1.509983e-009
2.015850e-009
3.356955e-009
3.740424e-009
1.718078e-009
-1.366103e-009
-2.498796e-009
-5.120906e-010
2.369077e-009
3.018510e-009
1.044566e-009
-8.004716e-010
6.562844e-011
2.992434e-009
4.881891e-009
3.747012e-009
7.601839e-010
-1.459192e-009
-1.997454e-009
-2.428768e-009
-4.568323e-009
-8.195369e-009
-1.146914e-008
-1.323645e-008
-1.423232e-008
-1.585480e-008
-1.830939e-008
-2.048393e-008
-2.148865e-008
-2.171706e-008
-2.213858e-008
-2.294364e-008
-2.338274e-008
-2.288839e-008
-2.184830e-008
-2.099270e-008
-2.032498e-008
-1.912846e-008
-1.704160e-008
-1.467640e-008
-1.286386e-008
-1.152334e-008
-9.740650e-009
-7.043356e-009
-4.193067e-009
-2.357658e-009
-1.653148e-009
-9.657664e-010
6.146058e-010
2.526907e-009
3.306178e-009
2.375211e-009
8.556599e-010
3.396630e-010
1.067103e-009
1.706560e-009
1.000503e-009
-7.012192e-010
-1.811011e-009
-1.262575e-009
4.260216e-010
1.884485e-009
2.340211e-009
2.044890e-009
1.439152e-009
4.266933e-010
-1.192467e-009
-2.800692e-009
-3.031727e-009
-1.106012e-009
2.008791e-009
4.099787e-009
3.581127e-009
8.937807e-010
-1.948404e-009
-3.132922e-009
-2.383466e-009
-7.678419e-010
4.936009e-010
9.312203e-010
8.116339e-010
6.086349e-010
6.139779e-008
2.996664e-008
-9.296577e-009
-2.898116e-008
-1.975531e-008
4.492918e-009
2.117659e-008
1.859326e-008
3.125758e-009
-1.015595e-008
-1.227163e-008
-6.290960e-009
-9.651774e-010
-7.402067e-010
-2.575935e-009
-1.204455e-009
4.328318e-009
9.890401e-009
1.099593e-008
7.145548e-009
1.505951e-009
-2.624703e-009
-4.264107e-009
-4.208501e-009
-3.322457e-009
-1.971946e-009
-5.484855e-010
4.395048e-010
1.036967e-009
1.984333e-009
3.634696e-009
4.934124e-009
4.098342e-009
5.082732e-010
-4.469466e-009
-8.925118e-009
-1.248186e-008
-1.648492e-008
-2.209062e-008
-2.866142e-008
-3.445075e-008
-3.864390e-008
-4.215740e-008
-4.626837e-008
-5.091670e-008
-5.482567e-008
-5.715197e-008
-5.845452e-008
-5.980093e-008
-6.131217e-008
-6.207995e-008
-6.145788e-008
-5.991039e-008
-5.829860e-008
-5.664624e-008
-5.410472e-008
-5.016178e-008
-4.543252e-008
-4.093909e-008
-3.683598e-008
-3.229846e-008
-2.674852e-008
-2.080894e-008
-1.571552e-008
-1.192313e-008
-8.683630e-009
-5.120490e-009
-1.430146e-009
1.277866e-009
2.257529e-009
1.943991e-009
1.410710e-009
1.244309e-009
1.164248e-009
6.294637e-010
-4.766780e-010
-1.806040e-009
-2.879124e-009
-3.208105e-009
-2.284354e-009
6.796870e-011
3.091943e-009
5.153577e-009
4.914187e-009
2.648467e-009
1.579595e-010
-9.189416e-010
-6.854670e-010
-6.404633e-010
-1.708966e-009
-2.923526e-009
-2.427989e-009
2.030654e-010
3.028793e-009
3.495366e-009
1.133130e-009
-1.786230e-009
-2.506149e-009
-6.208702e-010
1.565056e-009
6.511949e-008
2.663238e-008
-2.052609e-008
-4.145923e-008
-2.427205e-008
1.223821e-008
3.657810e-008
3.122164e-008
4.712648e-009
-1.939455e-008
-2.433198e-008
-1.233058e-008
1.781073e-009
6.510270e-009
2.868680e-009
-3.369803e-010
2.351601e-009
7.829152e-009
9.304035e-009
4.383065e-009
-2.666806e-009
-5.935730e-009
-3.803355e-009
4.001974e-010
2.612795e-009
1.882830e-009
1.876285e-010
-4.611678e-010
-9.797720e-012
1.141007e-010
-1.440393e-009
-5.133149e-009
-1.068734e-008
-1.743501e-008
-2.457534e-008
-3.161765e-008
-3.882698e-008
-4.698182e-008
-5.640637e-008
-6.635281e-008
-7.564003e-008
-8.390482e-008
-9.189898e-008
-1.003785e-007
-1.089588e-007
-1.164154e-007
-1.220586e-007
-1.264072e-007
-1.303116e-007
-1.337094e-007
-1.356477e-007
-1.354955e-007
-1.337057e-007
-1.311335e-007
-1.278649e-007
-1.231289e-007
-1.163916e-007
-1.081659e-007
-9.948973e-008
-9.078912e-008
-8.160171e-008
-7.146200e-008
-6.076474e-008
-5.053498e-008
-4.146263e-008
-3.340186e-008
-2.583196e-008
-1.860263e-008
-1.211979e-008
-6.943132e-009
-3.355492e-009
-1.226847e-009
-6.523531e-011
8.074224e-010
1.830602e-009
2.712721e-009
2.523507e-009
6.871116e-010
-1.959018e-009
-3.408293e-009
-2.220519e-009
9.096080e-010
3.615514e-009
4.122202e-009
2.911271e-009
1.856492e-009
1.771353e-009
1.317677e-009
-1.200877e-009
-5.104283e-009
-7.083099e-009
-4.317217e-009
2.097807e-009
7.345308e-009
7.082790e-009
1.660894e-009
-4.011194e-009
-5.076120e-009
-1.330872e-009
2.781034e-009
4.640394e-008
1.951882e-008
-1.376278e-008
-2.899141e-008
-1.720778e-008
8.702948e-009
2.579431e-008
2.062434e-008
-3.252792e-010
-1.796983e-008
-1.825750e-008
-3.721939e-009
1.094415e-008
1.366036e-008
5.204618e-009
-4.095829e-009
-6.063271e-009
-1.979638e-009
1.085316e-009
-7.190147e-010
-4.127285e-009
-3.480360e-009
2.283167e-009
8.418452e-009
9.647971e-009
5.414673e-009
-5.119999e-010
-4.803790e-009
-7.971314e-009
-1.311839e-008
-2.230609e-008
-3.479136e-008
-4.845535e-008
-6.212421e-008
-7.624617e-008
-9.184593e-008
-1.093871e-007
-1.285738e-007
-1.487515e-007
-1.692514e-007
-1.895815e-007
-2.095719e-007
-2.292926e-007
-2.486148e-007
-2.668484e-007
-2.830270e-007
-2.966381e-007
-3.078996e-007
-3.171531e-007
-3.241072e-007
-3.279281e-007
-3.280987e-007
-3.249422e-007
-3.191390e-007
-3.108738e-007
-2.997090e-007
-2.853065e-007
-2.680550e-007
-2.488573e-007
-2.284288e-007
-2.069767e-007
-1.845372e-007
-1.614572e-007
-1.384901e-007
-1.165216e-007
-9.624001e-008
-7.792640e-008
-6.142325e-008
-4.640236e-008
-3.288992e-008
-2.154908e-008
-1.317308e-008
-7.674575e-009
-3.736197e-009
1.354127e-010
4.043953e-009
6.458389e-009
5.888845e-009
2.809223e-009
-4.157269e-010
-1.711137e-009
-1.192846e-009
-5.975842e-010
-9.266269e-010
-1.180740e-009
1.777631e-010
2.760554e-009
3.970499e-009
1.693073e-009
-2.877689e-009
-5.710435e-009
-3.727822e-009
1.838375e-009
6.190775e-009
5.387499e-009
1.653025e-010
-4.676391e-009
-4.820967e-009
-5.114629e-010
3.788868e-009
4.345486e-009
4.968054e-009
4.615112e-009
2.461469e-009
-2.194700e-010
-1.779129e-009
-2.556476e-009
-4.233680e-009
-6.606028e-009
-6.319916e-009
-3.443348e-010
9.256498e-009
1.545161e-008
1.247530e-008
1.932483e-009
-8.194623e-009
-1.105130e-008
-6.991288e-009
-1.877914e-009
-5.585378e-011
-1.954444e-010
1.675661e-009
6.240721e-009
9.381149e-009
6.639843e-009
-1.989409e-009
-1.263673e-008
-2.250862e-008
-3.320643e-008
-4.878739e-008
-7.129171e-008
-9.900731e-008
-1.289915e-007
-1.604133e-007
-1.949304e-007
-2.342462e-007
-2.780327e-007
-3.243206e-007
-3.713135e-007
-4.183558e-007
-4.653527e-007
-5.118035e-007
-5.566115e-007
-5.985740e-007
-6.367919e-007
-6.706830e-007
-6.998433e-007
-7.239561e-007
-7.426878e-007
-7.555766e-007
-7.620938e-007
-7.619082e-007
-7.550705e-007
-7.418804e-007
-7.225857e-007
-6.972638e-007
-6.659899e-007
-6.290840e-007
-5.872312e-007
-5.414356e-007
-4.928354e-007
-4.424384e-007
-3.909944e-007
-3.392514e-007
-2.884387e-007
-2.403387e-007
-1.965606e-007
-1.576174e-007
-1.229341e-007
-9.201202e-008
-6.548287e-008
-4.464294e-008
-2.978388e-008
-1.927009e-008
-1.068192e-008
-2.937079e-009
3.004134e-009
5.698487e-009
5.233024e-009
3.351256e-009
1.662323e-009
2.292212e-010
-1.717671e-009
-3.943360e-009
-4.748650e-009
-2.719454e-009
1.304042e-009
4.515174e-009
4.647451e-009
2.090437e-009
-6.256358e-010
-1.372848e-009
-3.150694e-010
6.572275e-010
1.012588e-010
-1.528096e-009
-2.473266e-009
-1.501880e-009
8.755402e-010
2.840916e-009
-5.302657e-008
-2.057129e-008
1.812361e-008
3.385050e-008
1.884306e-008
-9.582751e-009
-2.710796e-008
-2.317682e-008
-5.905433e-009
9.577607e-009
1.492408e-008
1.189590e-008
6.083081e-009
6.878752e-010
-3.674790e-009
-6.105227e-009
-5.030485e-009
-6.525322e-010
4.062187e-009
6.000845e-009
4.938341e-009
2.933952e-009
8.343626e-010
-3.503128e-009
-1.295541e-008
-2.791735e-008
-4.649175e-008
-6.796001e-008
-9.504237e-008
-1.319038e-007
-1.802203e-007
-2.380198e-007
-3.025187e-007
-3.733330e-007
-4.522467e-007
-5.401036e-007
-6.347157e-007
-7.321006e-007
-8.292737e-007
-9.253285e-007
-1.020017e-006
-1.111988e-006
-1.198780e-006
-1.278220e-006
-1.349364e-006
-1.412034e-006
-1.465824e-006
-1.509781e-006
-1.542932e-006
-1.564802e-006
-1.575323e-006
-1.574382e-006
-1.561632e-006
-1.536793e-006
-1.500028e-006
-1.451905e-006
-1.392970e-006
-1.323499e-006
-1.243877e-006
-1.155274e-006
-1.059780e-006
-9.596638e-007
-8.565899e-007
-7.518136e-007
-6.472625e-007
-5.461045e-007
-4.517981e-007
-3.664407e-007
-2.902759e-007
-2.229769e-007
-1.651608e-007
-1.182205e-007
-8.259869e-008
-5.659889e-008
-3.724885e-008
-2.228228e-008
-1.103967e-008
-3.532632e-009
8.451201e-010
3.282604e-009
4.462511e-009
4.118243e-009
1.991490e-009
-1.030237e-009
-3.152645e-009
-3.115087e-009
-1.167004e-009
1.422348e-009
3.498446e-009
4.440357e-009
3.818807e-009
1.404141e-009
-2.088570e-009
-4.690131e-009
-4.443037e-009
-1.389289e-009
2.013757e-009
3.008904e-009
1.237328e-009
-9.249255e-010
-9.813484e-008
-4.622390e-008
1.718525e-008
4.648929e-008
2.862133e-008
-1.037866e-008
-3.290873e-008
-2.318209e-008
3.811730e-009
2.166154e-008
1.777587e-008
8.159400e-010
-1.225844e-008
-1.278572e-008
-4.701009e-009
3.550327e-009
7.818658e-009
9.218340e-009
9.508650e-009
8.117280e-009
3.484003e-009
-4.727571e-009
-1.600573e-008
-3.093623e-008
-5.165588e-008
-8.042277e-008
-1.187607e-007
-1.684813e-007
-2.327129e-007
-3.147348e-007
-4.155502e-007
-5.332560e-007
-6.651946e-007
-8.102362e-007
-9.682557e-007
-1.137463e-006
-1.313060e-006
-1.489086e-006
-1.661402e-006
-1.828447e-006
-1.989277e-006
-2.141548e-006
-2.281849e-006
-2.407676e-006
-2.518491e-006
-2.614736e-006
-2.696194e-006
-2.761646e-006
-2.809947e-006
-2.840984e-006
-2.855351e-006
-2.853231e-006
-2.833893e-006
-2.796372e-006
-2.740463e-006
-2.666823e-006
-2.576073e-006
-2.468085e-006
-2.342496e-006
-2.200005e-006
-2.042940e-006
-1.874390e-006
-1.696949e-006
-1.512750e-006
-1.324817e-006
-1.138026e-006
-9.582276e-007
-7.902404e-007
-6.368282e-007
-4.995299e-007
-3.799964e-007
-2.800119e-007
-2.001948e-007
-1.390675e-007
-9.363533e-008
-6.072185e-008
-3.761269e-008
-2.178955e-008
-1.080386e-008
-2.873641e-009
2.582143e-009
5.413901e-009
5.799196e-009
4.588854e-009
2.629384e-009
2.551988e-010
-2.117301e-009
-3.221071e-009
-1.665923e-009
2.068272e-009
4.922944e-009
3.660963e-009
-1.483913e-009
-6.098149e-009
-5.494812e-009
3.046822e-010
5.982014e-009
5.973267e-009
2.155469e-010
-5.556741e-009
-9.624829e-008
-4.994562e-008
7.003986e-009
3.459086e-008
2.188659e-008
-7.602337e-009
-2.137646e-008
-8.209513e-009
1.501575e-008
2.346097e-008
9.191889e-009
-1.335488e-008
-2.375841e-008
-1.503396e-008
2.706774e-009
1.477625e-008
1.541525e-008
9.396547e-009
3.427710e-009
-1.416483e-009
-9.220003e-009
-2.402758e-008
-4.718574e-008
-7.941306e-008
-1.237183e-007
-1.853783e-007
-2.696538e-007
-3.802388e-007
-5.194070e-007
-6.882794e-007
-8.861639e-007
-1.110026e-006
-1.355285e-006
-1.617103e-006
-1.890432e-006
-2.168863e-006
-2.444380e-006
-2.709199e-006
-2.958138e-006
-3.188921e-006
-3.400231e-006
-3.589969e-006
-3.755777e-006
-3.896930e-006
-4.015055e-006
-4.112676e-006
-4.191298e-006
-4.251119e-006
-4.292369e-006
-4.316380e-006
-4.325033e-006
-4.319236e-006
-4.298217e-006
-4.260384e-006
-4.204651e-006
-4.130658e-006
-4.037665e-006
-3.923563e-006
-3.785397e-006
-3.621061e-006
-3.430389e-006
-3.214633e-006
-2.975325e-006
-2.714295e-006
-2.435087e-006
-2.144110e-006
-1.850031e-006
-1.561863e-006
-1.287535e-006
-1.033756e-006
-8.062977e-007
-6.095942e-007
-4.458663e-007
-3.148187e-007
-2.142154e-007
-1.405328e-007
-8.912918e-008
-5.449971e-008
-3.132652e-008
-1.578193e-008
-5.751164e-009
2.303944e-010
3.822192e-009
6.244975e-009
7.135722e-009
5.069198e-009
-4.065004e-012
-5.140592e-009
-6.260508e-009
-2.253945e-009
3.190395e-009
4.796080e-009
1.141684e-009
-3.562156e-009
-3.774041e-009
1.279985e-009
6.389999e-009
5.702717e-009
-8.994623e-010
-7.303821e-009
-3.644940e-008
-2.028752e-008
-1.073267e-009
7.148719e-009
2.134478e-009
-5.496200e-009
-3.848864e-009
7.591197e-009
1.718164e-008
1.330876e-008
-2.866090e-009
-1.750183e-008
-1.729460e-008
-2.387502e-009
1.408801e-008
1.882242e-008
9.941910e-009
-3.853098e-009
-1.417301e-008
-2.172290e-008
-3.502155e-008
-6.281905e-008
-1.095790e-007
-1.778817e-007
-2.730538e-007
-4.037845e-007
-5.782508e-007
-8.002979e-007
-1.068993e-006
-1.380308e-006
-1.727967e-006
-2.102815e-006
-2.492521e-006
-2.882776e-006
-3.259117e-006
-3.608153e-006
-3.918361e-006
-4.181257e-006
-4.392561e-006
-4.552109e-006
-4.662321e-006
-4.726792e-006
-4.750377e-006
-4.740113e-006
-4.705088e-006
-4.654680e-006
-4.596680e-006
-4.537021e-006
-4.480938e-006
-4.433822e-006
-4.400561e-006
-4.384050e-006
-4.384436e-006
-4.399805e-006
-4.427342e-006
-4.463515e-006
-4.503001e-006
-4.537641e-006
-4.556868e-006
-4.549491e-006
-4.505336e-006
-4.415713e-006
-4.273328e-006
-4.073042e-006
-3.813666e-006
-3.499494e-006
-3.140332e-006
-2.750226e-006
-2.345858e-006
-1.944994e-006
-1.564607e-006
-1.218748e-006
-9.170926e-007
-6.648272e-007
-4.632656e-007
-3.101410e-007
-1.996429e-007
-1.233740e-007
-7.260736e-008
-4.034585e-008
-2.143497e-008
-1.116390e-008
-4.743333e-009
1.072936e-009
6.114796e-009
7.660953e-009
4.126807e-009
-2.070706e-009
-5.908361e-009
-4.360067e-009
6.329813e-010
4.176464e-009
3.401075e-009
1.192882e-010
-1.569315e-009
7.267989e-011
2.658139e-009
2.595938e-009
-7.111261e-010
-4.097760e-009
5.021454e-008
2.686326e-008
-3.189265e-009
-2.055015e-008
-1.785018e-008
-2.792090e-009
1.080092e-008
1.396434e-008
6.877167e-009
-3.904395e-009
-1.054377e-008
-8.131134e-009
2.537867e-009
1.460121e-008
1.895894e-008
1.099903e-008
-5.527753e-009
-2.232285e-008
-3.553313e-008
-5.147906e-008
-8.371260e-008
-1.451492e-007
-2.437819e-007
-3.854668e-007
-5.787461e-007
-8.347201e-007
-1.161212e-006
-1.556850e-006
-2.009979e-006
-2.501497e-006
-3.007384e-006
-3.499157e-006
-3.944470e-006
-4.310312e-006
-4.568056e-006
-4.697444e-006
-4.687932e-006
-4.538269e-006
-4.255677e-006
-3.854812e-006
-3.356091e-006
-2.783693e-006
-2.164021e-006
-1.524683e-006
-8.931980e-007
-2.951816e-007
2.471301e-007
7.151077e-007
1.092988e-006
1.367332e-006
1.527414e-006
1.566149e-006
1.480681e-006
1.272256e-006
9.458734e-007
5.105432e-007
-1.960777e-008
-6.241766e-007
-1.276395e-006
-1.944408e-006
-2.593189e-006
-3.186405e-006
-3.688471e-006
-4.067470e-006
-4.298807e-006
-4.368598e-006
-4.275917e-006
-4.033638e-006
-3.667685e-006
-3.214092e-006
-2.713762e-006
-2.206344e-006
-1.725418e-006
-1.296077e-006
-9.341098e-007
-6.456696e-007
-4.277786e-007
-2.708310e-007
-1.627799e-007
-9.259513e-008
-5.090497e-008
-2.865622e-008
-1.673784e-008
-8.038315e-009
5.611539e-011
5.902785e-009
7.034565e-009
3.702569e-009
-7.645128e-010
-2.769636e-009
-1.349337e-009
1.550157e-009
3.224606e-009
2.468339e-009
1.165732e-010
-2.024033e-009
-2.589523e-009
-1.412682e-009
5.814479e-010
2.048499e-009
1.095123e-007
5.800173e-008
-5.408769e-009
-3.701044e-008
-2.538891e-008
4.728583e-009
2.059738e-008
1.110101e-008
-9.010352e-009
-1.856371e-008
-1.003048e-008
7.570149e-009
2.024076e-008
2.051121e-008
9.787193e-009
-6.205113e-009
-2.269706e-008
-3.937959e-008
-6.260110e-008
-1.056039e-007
-1.854042e-007
-3.178561e-007
-5.151857e-007
-7.877369e-007
-1.145935e-006
-1.596939e-006
-2.135903e-006
-2.738024e-006
-3.357354e-006
-3.932171e-006
-4.392216e-006
-4.664747e-006
-4.680731e-006
-4.383217e-006
-3.736347e-006
-2.730724e-006
-1.382741e-006
2.703077e-007
2.175789e-006
4.270308e-006
6.483939e-006
8.744821e-006
1.098352e-005
1.313626e-005
1.514670e-005
1.696673e-005
1.855645e-005
1.988339e-005
2.092152e-005
2.165027e-005
2.205377e-005
2.212039e-005
2.184274e-005
2.121823e-005
2.025010e-005
1.894877e-005
1.733373e-005
1.543583e-005
1.329949e-005
1.098386e-005
8.562599e-006
6.122010e-006
3.757123e-006
1.565576e-006
-3.603577e-007
-1.942779e-006
-3.127286e-006
-3.891005e-006
-4.247296e-006
-4.244572e-006
-3.958315e-006
-3.478430e-006
-2.895811e-006
-2.291086e-006
-1.726544e-006
-1.241611e-006
-8.527919e-007
-5.585283e-007
-3.470654e-007
-2.034504e-007
-1.128469e-007
-6.078519e-008
-3.322406e-008
-1.818917e-008
-7.980579e-009
1.722572e-010
5.699678e-009
7.311008e-009
5.027739e-009
8.162384e-010
-2.279601e-009
-2.113138e-009
7.316415e-010
3.088952e-009
1.961020e-009
-2.276425e-009
-5.657509e-009
-4.312353e-009
1.351389e-009
6.529493e-009
1.066624e-007
5.136546e-008
-1.313566e-008
-3.849669e-008
-1.726978e-008
1.646247e-008
2.542628e-008
4.660283e-009
-1.982911e-008
-2.213365e-008
-1.853717e-009
1.983119e-008
2.377673e-008
9.238870e-009
-1.089711e-008
-2.638900e-008
-3.993221e-008
-6.531143e-008
-1.204649e-007
-2.236803e-007
-3.936780e-007
-6.496839e-007
-1.009367e-006
-1.484977e-006
-2.077055e-006
-2.764155e-006
-3.490375e-006
-4.157577e-006
-4.629238e-006
-4.746451e-006
-4.350119e-006
-3.302716e-006
-1.506850e-006
1.080108e-006
4.437780e-006
8.484605e-006
1.309037e-005
1.809484e-005
2.332578e-005
2.861317e-005
3.379978e-005
3.874965e-005
4.335396e-005
4.753287e-005
5.123334e-005
5.442424e-005
5.709056e-005
5.922807e-005
6.083886e-005
6.192751e-005
6.249725e-005
6.254649e-005
6.206703e-005
6.104428e-005
5.945925e-005
5.729118e-005
5.452145e-005
5.113958e-005
4.715185e-005
4.259110e-005
3.752614e-005
3.206832e-005
2.637350e-005
2.063764e-005
1.508498e-005
9.948865e-006
5.446104e-006
1.748211e-006
-1.044296e-006
-2.917158e-006
-3.942161e-006
-4.261289e-006
-4.059564e-006
-3.533051e-006
-2.858766e-006
-2.172770e-006
-1.561017e-006
-1.063437e-006
-6.867629e-007
-4.190235e-007
-2.404600e-007
-1.296756e-007
-6.658083e-008
-3.382327e-008
-1.754388e-008
-7.999999e-009
-2.798890e-010
5.733755e-009
7.546895e-009
4.049560e-009
-1.802239e-009
-4.729392e-009
-2.166249e-009
2.767337e-009
4.292600e-009
3.358506e-010
-4.832959e-009
-5.121963e-009
4.429156e-010
6.291235e-009
5.300014e-008
1.638392e-008
-2.159637e-008
-2.700865e-008
-1.001793e-009
2.452820e-008
2.255298e-008
-1.784654e-009
-2.009345e-008
-1.310183e-008
9.891732e-009
2.340486e-008
1.320730e-008
-1.175794e-008
-3.344158e-008