# vtk DataFile Version 3.0
vtk output
ASCII
DATASET STRUCTURED_POINTS
DIMENSIONS 100 100 1
SPACING 1 1 1
ORIGIN 0 0 0
POINT_DATA 10000
SCALARS SFBox_profile double
LOOKUP_TABLE default 
0.000000e+000
0.000000e+000
0.000000e+000
0.000000e+000
0.000000e+000
0.000000e+000
0.000000e+000
0.000000e+000
0.000000e+000
0.000000e+000
0.000000e+000
0.000000e+000
0.000000e+000
0.000000e+000
0.000000e+000
0.000000e+000
0.000000e+000
0.000000e+000
0.000000e+000
0.000000e+000
0.000000e+000
0.000000e+000
0.000000e+000
0.000000e+000
0.000000e+000
0.000000e+000
0.000000e+000
0.000000e+000
0.000000e+000
0.000000e+000
0.000000e+000
0.000000e+000
0.000000e+000
0.000000e+000
0.000000e+000
0.000000e+000
0.000000e+000
0.000000e+000
0.000000e+000
0.000000e+000
0.000000e+000
0.000000e+000
0.000000e+000
0.000000e+000
0.000000e+000
0.000000e+000
0.000000e+000
0.000000e+000
0.000000e+000
0.000000e+000
0.000000e+000
0.000000e+000
0.000000e+000
0.000000e+000
0.000000e+000
0.000000e+000
0.000000e+000
0.000000e+000
0.000000e+000
0.000000e+000
0.000000e+000
0.000000e+000
0.000000e+000
0.000000e+000
0.000000e+000
0.000000e+000
0.000000e+000
0.000000e+000
0.000000e+000
0.000000e+000
0.000000e+000
0.000000e+000
0.000000e+000
0.000000e+000
0.000000e+000
0.000000e+000
0.000000e+000
0.000000e+000
0.000000e+000
0.000000e+000
0.000000e+000
0.000000e+000
0.000000e+000
0.000000e+000
0.000000e+000
0.000000e+000
0.000000e+000
0.000000e+000
0.000000e+000
0.000000e+000
0.000000e+000
0.000000e+000
0.000000e+000
0.000000e+000
0.000000e+000
0.000000e+000
0.000000e+000
0.000000e+000
0.000000e+000
0.000000e+000
1.360312e-016
4.864447e-017
8.420630e-017
8.594102e-017
1.783150e-016
1.666057e-016
1.904581e-016
1.087093e-016
7.227309e-019
-1.432593e-016
-6.363545e-016
-1.443218e-015
-2.768546e-015
-4.915484e-015
-8.201267e-015
-1.292795e-014
-1.971831e-014
-2.921549e-014
-4.173933e-014
-5.807348e-014
-7.890426e-014
-1.045951e-013
-1.355814e-013
-1.716237e-013
-2.126538e-013
-2.576515e-013
-3.056062e-013
-3.546169e-013
-4.025837e-013
-4.469952e-013
-4.850015e-013
-5.143339e-013
-5.316983e-013
-5.351829e-013
-5.228040e-013
-4.936782e-013
-4.472012e-013
-3.839656e-013
-3.052553e-013
-2.131656e-013
-1.105278e-013
-9.006830e-016
1.120441e-013
2.238971e-013
3.306553e-013
4.279358e-013
5.120649e-013
5.792375e-013
6.266470e-013
6.521340e-013
6.544969e-013
6.331863e-013
5.891850e-013
5.241481e-013
4.412446e-013
3.438578e-013
2.367165e-013
1.245602e-013
1.264447e-014
-9.406899e-014
-1.909303e-013
-2.742677e-013
-3.412194e-013
-3.901019e-013
-4.205721e-013
-4.328804e-013
-4.288002e-013
-4.109392e-013
-3.820608e-013
-3.453424e-013
-3.038714e-013
-2.607850e-013
-2.181457e-013
-1.780606e-013
-1.417947e-013
-1.102403e-013
-8.361035e-014
-6.179945e-014
-4.455478e-014
-3.112238e-014
-2.124400e-014
-1.398332e-014
-8.941126e-015
-5.469511e-015
-3.200709e-015
-1.832446e-015
-7.874922e-016
-4.368613e-016
-1.239605e-016
1.156412e-018
8.268842e-017
9.244623e-017
1.022041e-016
6.165489e-017
3.780245e-017
-1.684134e-017
2.565938e-017
6.425698e-017
-6.216163e-018
2.674295e-018
1.460052e-017
5.710124e-017
9.071151e-017
3.758560e-017
1.308270e-016
1.381996e-016
1.275744e-016
-1.835923e-017
-2.013726e-016
-7.486778e-016
-1.462950e-015
-3.050005e-015
-5.030409e-015
-8.467330e-015
-1.336315e-014
-2.036428e-014
-3.014530e-014
-4.328692e-014
-6.038847e-014
-8.201158e-014
-1.087415e-013
-1.402217e-013
-1.767531e-013
-2.167478e-013
-2.589887e-013
-3.013619e-013
-3.405335e-013
-3.727742e-013
-3.938520e-013
-3.991928e-013
-3.839224e-013
-3.432247e-013
-2.734819e-013
-1.718124e-013
-3.596487e-014
1.342714e-013
3.376078e-013
5.713336e-013
8.311907e-013
1.111235e-012
1.404577e-012
1.703604e-012
1.999242e-012
2.282937e-012
2.545522e-012
2.778817e-012
2.974562e-012
3.125978e-012
3.227276e-012
3.274531e-012
3.265196e-012
3.198683e-012
3.076905e-012
2.903579e-012
2.684608e-012
2.427419e-012
2.141527e-012
1.836828e-012
1.524465e-012
1.215123e-012
9.191875e-013
6.453330e-013
4.010510e-013
1.915194e-013
1.973711e-014
-1.134964e-013
-2.097579e-013
-2.720609e-013
-3.046948e-013
-3.131372e-013
-3.027259e-013
-2.792065e-013
-2.474454e-013
-2.118574e-013
-1.757083e-013
-1.414514e-013
-1.105287e-013
-8.399979e-014
-6.214770e-014
-4.465410e-014
-3.120500e-014
-2.132120e-014
-1.391133e-014
-8.901228e-015
-5.346346e-015
-3.111371e-015
-1.797535e-015
-8.438708e-016
-3.737607e-016
-1.269963e-016
7.054535e-017
4.170557e-017
1.395000e-017
1.232376e-016
6.447382e-017
4.734342e-017
2.804463e-017
3.433300e-017
-1.157206e-016
6.295594e-017
9.136203e-017
1.334291e-016
1.254060e-016
1.473069e-016
1.360312e-016
8.463998e-017
-8.709765e-017
-3.700744e-016
-9.982612e-016
-1.989439e-015
-3.761459e-015
-6.373952e-015
-1.063877e-014
-1.670987e-014
-2.549104e-014
-3.753306e-014
-5.384444e-014
-7.477171e-014
-1.008674e-013
-1.328036e-013
-1.695594e-013
-2.099212e-013
-2.517868e-013
-2.913574e-013
-3.236646e-013
-3.421015e-013
-3.384436e-013
-3.038571e-013
-2.277945e-013
-1.004378e-013
8.824958e-014
3.473724e-013
6.831214e-013
1.100520e-012
1.600039e-012
2.180014e-012
2.834148e-012
3.552813e-012
4.323042e-012
5.129208e-012
5.952973e-012
6.774098e-012
7.571794e-012
8.324604e-012
9.011363e-012
9.612309e-012
1.010938e-011
1.048643e-011
1.073090e-011
1.083347e-011
1.078912e-011
1.059690e-011
1.026099e-011
9.790223e-012
9.198049e-012
8.502193e-012
7.724168e-012
6.888433e-012
6.020584e-012
5.147147e-012
4.293288e-012
3.482401e-012
2.733751e-012
2.062705e-012
1.479730e-012
9.895449e-013
5.929396e-013
2.850141e-013
5.843705e-014
-9.746493e-014
-1.945231e-013
-2.448249e-013
-2.605253e-013
-2.517645e-013
-2.280029e-013
-1.963767e-013
-1.620803e-013
-1.290094e-013
-9.919055e-014
-7.386727e-014
-5.327264e-014
-3.733616e-014
-2.541883e-014
-1.661099e-014
-1.068582e-014
-6.479770e-015
-3.762326e-015
-2.136890e-015
-1.119475e-015
-5.353068e-016
-1.998547e-016
-1.454277e-016
5.341496e-017
7.032851e-017
6.187173e-017
1.980469e-017
5.384864e-017
4.322346e-017
8.117053e-017
-1.488978e-017
1.512100e-016
1.414522e-016
1.154313e-016
8.225473e-017
3.324816e-018
-1.157206e-016
-6.120683e-016
-1.258903e-015
-2.693520e-015
-4.786030e-015
-8.191943e-015
-1.353598e-014
-2.138430e-014
-3.266260e-014
-4.821396e-014
-6.898099e-014
-9.583798e-014
-1.289343e-013
-1.682599e-013
-2.119213e-013
-2.573735e-013
-2.991766e-013
-3.297776e-013
-3.387869e-013
-3.120886e-013
-2.331786e-013
-8.247215e-014
1.617416e-013
5.221059e-013
1.020837e-012
1.678098e-012
2.510877e-012
3.530786e-012
4.742917e-012
6.144989e-012
7.726518e-012
9.468989e-012
1.134597e-011
1.332401e-011
1.536364e-011
1.742107e-011
1.944891e-011
2.139879e-011
2.322191e-011
2.487116e-011
2.630218e-011
2.747482e-011
2.835486e-011
2.891434e-011
2.913353e-011
2.900114e-011
2.851624e-011
2.768772e-011
2.653495e-011
2.508788e-011
2.338577e-011
2.147670e-011
1.941493e-011
1.725907e-011
1.506987e-011
1.290623e-011
1.082332e-011
8.869326e-012
7.083483e-012
5.494375e-012
4.119170e-012
2.963535e-012
2.023052e-012
1.283880e-012
7.260569e-013
3.247026e-013
5.257867e-014
-1.166076e-013
-2.087999e-013
-2.455648e-013
-2.459104e-013
-2.243057e-013
-1.918059e-013
-1.557018e-013
-1.214358e-013
-9.105578e-014
-6.596257e-014
-4.622901e-014
-3.134920e-014
-2.049872e-014
-1.307974e-014
-7.885113e-015
-4.706449e-015
-2.623480e-015
-1.419582e-015
-6.550027e-016
-2.072272e-016
-1.658107e-016
6.577486e-017
3.107976e-018
-3.180397e-018
3.758560e-017
-9.251929e-018
1.199843e-017
-3.852539e-017
2.297062e-016
1.462227e-016
1.106608e-016
5.601704e-017
-2.833382e-016
-7.803365e-016
-1.588067e-015
-3.273568e-015
-5.917286e-015
-1.029811e-014
-1.705248e-014
-2.686754e-014
-4.100575e-014
-6.081283e-014
-8.711145e-014
-1.209995e-013
-1.623176e-013
-2.096465e-013
-2.605170e-013
-3.081649e-013
-3.428155e-013
-3.495877e-013
-3.080953e-013
-1.911153e-013
3.446469e-014
4.085910e-013
9.755496e-013
1.783123e-012
2.879477e-012
4.310388e-012
6.115448e-012
8.324655e-012
1.095573e-011
1.401100e-011
1.747598e-011
2.131887e-011
2.549038e-011
2.992542e-011
3.454517e-011
3.925960e-011
4.397060e-011
4.857511e-011
5.296821e-011
5.704685e-011
6.071173e-011
6.387102e-011
6.644220e-011
6.835482e-011
6.955240e-011
6.999485e-011
6.966029e-011
6.854648e-011
6.667204e-011
6.407700e-011
6.082278e-011
5.699078e-011
5.268016e-011
4.800507e-011
4.308993e-011
3.806402e-011
3.305631e-011
2.818890e-011
2.357152e-011
1.929661e-011
1.543490e-011
1.203353e-011
9.115604e-012
6.680438e-012
4.707304e-012
3.158890e-012
1.985866e-012
1.132493e-012
5.405544e-013
1.541658e-013
-7.768778e-014
-1.991447e-013
-2.460856e-013
-2.469109e-013
-2.217967e-013
-1.853122e-013
-1.466103e-013
-1.107178e-013
-8.045727e-014
-5.635524e-014
-3.800555e-014
-2.484073e-014
-1.558121e-014
-9.544593e-015
-5.478835e-015
-3.062148e-015
-1.589151e-015
-7.983343e-016
-3.277905e-016
-1.152869e-016
2.110573e-017
5.818545e-017
1.022041e-016
1.113107e-017
4.669290e-017
1.134791e-017
1.735446e-016
1.661720e-016
4.365714e-017
-2.865908e-016
-8.462560e-016
-1.922001e-015
-3.898068e-015
-7.106223e-015
-1.241795e-014
-2.040309e-014
-3.269535e-014
-5.009289e-014
-7.464898e-014
-1.072061e-013
-1.489140e-013
-1.986336e-013
-2.544925e-013
-3.098634e-013
-3.537543e-013
-3.680404e-013
-3.258879e-013
-1.898012e-013
9.084277e-014
5.787483e-013
1.349842e-012
2.491777e-012
4.099752e-012
6.273420e-012
9.109476e-012
1.269613e-011
1.710477e-011
2.238420e-011
2.855390e-011
3.560027e-011
4.347423e-011
5.209104e-011
6.133239e-011
7.104985e-011
8.107018e-011
9.120155e-011
1.012393e-010
1.109732e-010
1.201933e-010
1.286950e-010
1.362855e-010
1.427874e-010
1.480432e-010
1.519196e-010
1.543110e-010
1.551425e-010
1.543738e-010
1.520015e-010
1.480613e-010
1.426292e-010
1.358219e-010
1.277948e-010
1.187392e-010
1.088765e-010
9.845082e-011
8.772075e-011
7.694774e-011
6.638482e-011
5.626550e-011
4.679257e-011
3.812888e-011
3.039216e-011
2.365048e-011
1.792386e-011
1.318798e-011
9.380503e-012
6.411020e-012
4.170262e-012
2.540241e-012
1.403662e-012
6.500072e-013
1.816373e-013
-8.350236e-014
-2.119821e-013
-2.540198e-013
-2.462168e-013
-2.134533e-013
-1.720602e-013
-1.311580e-013
-9.550448e-014
-6.666990e-014
-4.496092e-014
-2.906348e-014
-1.820065e-014
-1.096273e-014
-6.301528e-015
-3.398034e-015
-1.882753e-015
-8.664222e-016
-2.987339e-016
-7.061777e-017
-1.011993e-018
-3.418858e-017
5.363180e-017
-2.074447e-017
6.577486e-017
2.041191e-016
-7.950887e-018
-3.039381e-016
-9.507731e-016
-2.247913e-015
-4.374900e-015
-8.232058e-015
-1.437883e-014
-2.386582e-014
-3.843381e-014
-5.959722e-014
-8.911246e-014
-1.284037e-013
-1.779954e-013
-2.366620e-013
-2.993633e-013
-3.557093e-013
-3.865761e-013
-3.612021e-013
-2.338216e-013
6.143791e-014
6.125021e-013
1.532531e-012
2.960199e-012
5.058432e-012
8.008997e-012
1.200571e-011
1.724280e-011
2.390270e-011
3.214131e-011
4.207456e-011
5.376503e-011
6.721284e-011
8.234938e-011
9.903628e-011
1.170678e-010
1.361775e-010
1.560489e-010
1.763257e-010
1.966257e-010
2.165530e-010
2.357098e-010
2.537072e-010
2.701744e-010
2.847672e-010
2.971742e-010
3.071237e-010
3.143878e-010
3.187883e-010
3.202009e-010
3.185597e-010
3.138614e-010
3.061685e-010
2.956119e-010
2.823919e-010
2.667775e-010
2.491021e-010
2.297571e-010
2.091819e-010
1.878495e-010
1.662501e-010
1.448708e-010
1.241748e-010
1.045793e-010
8.643709e-011
7.001993e-011
5.550922e-011
4.299149e-011
3.246288e-011
2.383848e-011
1.696800e-011
1.165428e-011
7.673314e-012
4.793081e-012
2.788729e-012
1.455786e-012
6.174196e-013
1.272657e-013
-1.292045e-013
-2.377709e-013
-2.601440e-013
-2.376482e-013
-1.961833e-013
-1.510466e-013
-1.102843e-013
-7.683018e-014
-5.146072e-014
-3.310734e-014
-2.061018e-014
-1.219915e-014
-6.934919e-015
-3.767097e-015
-1.920484e-015
-1.004333e-015
-4.223330e-016
-1.584381e-016
4.105505e-017
1.438368e-017
1.152145e-016
1.373322e-016
3.368248e-017
-3.113107e-016
-9.783118e-016
-2.432661e-015
-4.838072e-015
-9.182903e-015
-1.608363e-014
-2.739230e-014
-4.418615e-014
-6.891854e-014
-1.034009e-013
-1.494464e-013
-2.074674e-013
-2.744074e-013
-3.422624e-013
-3.943368e-013
-4.000621e-013
-3.104072e-013
-5.032946e-014
4.881207e-013
1.452684e-012
3.036440e-012
5.480641e-012
9.073826e-012
1.414521e-011
2.105214e-011
3.016215e-011
4.182893e-011
5.636518e-011
7.401524e-011
9.492861e-011
1.191402e-010
1.465564e-010
1.769513e-010
2.099712e-010
2.451480e-010
2.819185e-010
3.196477e-010
3.576549e-010
3.952377e-010
4.316943e-010
4.663438e-010
4.985416e-010
5.276913e-010
5.532558e-010
5.747622e-010
5.918084e-010
6.040665e-010
6.112867e-010
6.132998e-010
6.100217e-010
6.014562e-010
5.877002e-010
5.689465e-010
5.454890e-010
5.177236e-010
4.861498e-010
4.513662e-010
4.140638e-010
3.750099e-010
3.350290e-010
2.949732e-010
2.556887e-010
2.179761e-010
1.825524e-010
1.500122e-010
1.208007e-010
9.519366e-011
7.329297e-011
5.503672e-011
4.021975e-011
2.852629e-011
1.956637e-011
1.291331e-011
8.137873e-012
4.836076e-012
2.647679e-012
1.268808e-012
4.531966e-013
1.218997e-014
-1.935853e-013
-2.611975e-013
-2.556804e-013
-2.172563e-013
-1.693265e-013
-1.238416e-013
-8.608710e-014
-5.733991e-014
-3.669952e-014
-2.240887e-014
-1.324389e-014
-7.476152e-015
-3.947725e-015
-1.959515e-015
-1.091069e-015
-3.737607e-016
-1.575708e-016
2.349098e-017
1.004693e-016
5.276444e-017
-4.602800e-016
-1.092804e-015
-2.616541e-015
-5.162465e-015
-9.993236e-015
-1.773487e-014
-3.015289e-014
-4.933004e-014
-7.744471e-014
-1.170103e-013
-1.699684e-013
-2.359386e-013
-3.104623e-013
-3.812633e-013
-4.229045e-013
-3.903040e-013
-2.077727e-013
2.400860e-013
1.123233e-012
2.677572e-012
5.217287e-012
9.142716e-012
1.494073e-011
2.317794e-011
3.448080e-011
4.950479e-011
6.889270e-011
9.322339e-011
1.229591e-010
1.583937e-010
1.996107e-010
2.464561e-010
2.985296e-010
3.551952e-010
4.156102e-010
4.787669e-010
5.435453e-010
6.087645e-010
6.732350e-010
7.358014e-010
7.953779e-010
8.509726e-010
9.017047e-010
9.468111e-010
9.856494e-010
1.017696e-009
1.042539e-009
1.059871e-009
1.069483e-009
1.071254e-009
1.065144e-009
1.051194e-009
1.029523e-009
1.000333e-009
9.639191e-010
9.206829e-010
8.711512e-010
8.159928e-010
7.560340e-010
6.922649e-010
6.258334e-010
5.580213e-010
4.902021e-010
4.237796e-010
3.601133e-010
3.004373e-010
2.457829e-010
1.969164e-010
1.543001e-010
1.180806e-010
8.810917e-011
6.398460e-011
4.511683e-011
3.079707e-011
2.026739e-011
1.278132e-011
7.650622e-012
4.274653e-012
2.156251e-012
9.017570e-013
2.143139e-013
-1.200328e-013
-2.486092e-013
-2.671087e-013
-2.347102e-013
-1.851561e-013
-1.357041e-013
-9.407030e-014
-6.208546e-014
-3.929857e-014
-2.383394e-014
-1.394125e-014
-7.678464e-015
-4.121631e-015
-1.971007e-015
-9.115250e-016
-2.887592e-016
-1.348025e-016
-5.782482e-018
7.553268e-017
-1.520630e-015
-2.767679e-015
-5.434383e-015
-1.049652e-014
-1.897433e-014
-3.237811e-014
-5.353545e-014
-8.495346e-014
-1.292932e-013
-1.885060e-013
-2.622554e-013
-3.435274e-013
-4.150362e-013
-4.412672e-013
-3.568536e-013
-5.298554e-014
6.410758e-013
1.979399e-012
4.322336e-012
8.158420e-012
1.412111e-011
2.299545e-011
3.571008e-011
5.330780e-011
7.689525e-011
1.075680e-010
1.463178e-010
1.939301e-010
2.508823e-010
3.172603e-010
3.927011e-010
4.763777e-010
5.670258e-010
6.630119e-010
7.624344e-010
8.632427e-010
9.633614e-010
1.060805e-009
1.153767e-009
1.240692e-009
1.320308e-009
1.391643e-009
1.454013e-009
1.507004e-009
1.550430e-009
1.584296e-009
1.608753e-009
1.624046e-009
1.630470e-009
1.628315e-009
1.617830e-009
1.599184e-009
1.572444e-009
1.537573e-009
1.494450e-009
1.442915e-009
1.382837e-009
1.314207e-009
1.237236e-009
1.152457e-009
1.060797e-009
9.636187e-010
8.627061e-010
7.601947e-010
6.584447e-010
5.598701e-010
4.667504e-010
3.810486e-010
3.042625e-010
2.373326e-010
1.806136e-010
1.339121e-010
9.657475e-011
6.761260e-011
4.583618e-011
2.998486e-011
1.883322e-011
1.126917e-011
6.340348e-012
3.271925e-012
1.463259e-012
4.701166e-013
-2.165210e-014
-2.239670e-013
-2.720627e-013
-2.480120e-013
-1.978512e-013
-1.450718e-013
-1.001256e-013
-6.561541e-014
-4.100944e-014
-2.473969e-014
-1.414118e-014
-7.759346e-015
-3.943605e-015
-1.924170e-015
-9.306069e-016
-2.889761e-016
1.785313e-017
5.298128e-017
-3.605767e-015
-5.870015e-015
-1.082395e-014
-1.951860e-014
-3.391833e-014
-5.674295e-014
-9.079210e-014
-1.393867e-013
-2.047305e-013
-2.853370e-013
-3.725999e-013
-4.436349e-013
-4.501364e-013
-3.038170e-013
1.458127e-013
1.138688e-012
3.039164e-012
6.372984e-012
1.186662e-011
2.047878e-011
3.341894e-011
5.213911e-011
7.829281e-011
1.136501e-010
1.599663e-010
2.188120e-010
2.913744e-010
3.782563e-010
4.793006e-010
5.934720e-010
7.188220e-010
8.525526e-010
9.911785e-010
1.130769e-009
1.267244e-009
1.396681e-009
1.515593e-009
1.621161e-009
1.711373e-009
1.785098e-009
1.842075e-009
1.882842e-009
1.908631e-009
1.921225e-009
1.922812e-009
1.915824e-009
1.902781e-009
1.886125e-009
1.868060e-009
1.850390e-009
1.834366e-009
1.820554e-009
1.808739e-009
1.797886e-009
1.786164e-009
1.771063e-009
1.749601e-009
1.718613e-009
1.675103e-009
1.616630e-009
1.541663e-009
1.449871e-009
1.342278e-009
1.221262e-009
1.090376e-009
9.540246e-010
8.170149e-010
6.840836e-010
5.594436e-010
4.464303e-010
3.472881e-010
2.631100e-010
1.939205e-010
1.388648e-010
9.645993e-011
6.485880e-011
4.208999e-011
2.624903e-011
1.562752e-011
8.785092e-012
4.570318e-012
2.107528e-012
7.613845e-013
9.210088e-014
-1.916836e-013
-2.721008e-013
-2.572150e-013
-2.071767e-013
-1.518067e-013
-1.040161e-013
-6.753878e-014
-4.170376e-014
-2.481450e-014
-1.399958e-014
-7.492632e-015
-3.942087e-015
-1.716437e-015
-7.653745e-016
-2.577511e-016
-9.728915e-017
-7.617966e-015
-1.164925e-014
-2.002015e-014
-3.490040e-014
-5.857612e-014
-9.477568e-014
-1.468827e-013
-2.173044e-013
-3.044129e-013
-3.972971e-013
-4.671907e-013
-4.529529e-013
-2.398794e-013
3.701103e-013
1.700357e-012
4.249617e-012
8.752962e-012
1.624442e-011
2.811403e-011
4.614436e-011
7.250753e-011
1.097043e-010
1.604234e-010
2.273139e-010
3.126684e-010
4.180409e-010
5.438384e-010
6.889474e-010
8.504637e-010
1.023593e-009
1.201771e-009
1.377021e-009
1.540517e-009
1.683307e-009
1.797079e-009
1.874904e-009
1.911831e-009
1.905289e-009
1.855261e-009
1.764247e-009
1.637032e-009
1.480340e-009
1.302403e-009
1.112502e-009
9.205135e-010
7.364562e-010
5.700528e-010
4.302917e-010
3.249851e-010
2.603245e-010
2.404468e-010
2.670428e-010
3.390457e-010
4.524547e-010
6.003453e-010
7.731185e-010
9.590148e-010
1.144894e-009
1.317242e-009
1.463316e-009
1.572311e-009
1.636393e-009
1.651450e-009
1.617438e-009
1.538255e-009
1.421158e-009
1.275797e-009
1.113035e-009
9.437254e-010
7.776360e-010
6.226544e-010
4.843495e-010
3.658945e-010
2.682905e-010
1.907945e-010
1.314442e-010
8.758087e-011
5.629910e-011
3.478609e-011
2.053980e-011
1.147878e-011
5.967265e-012
2.784175e-012
1.060675e-012
2.072093e-013
-1.578465e-013
-2.691616e-013
-2.628847e-013
-2.129810e-013
-1.553834e-013
-1.053878e-013
-6.758237e-014
-4.130760e-014
-2.406878e-014
-1.331848e-014
-7.070010e-015
-3.534427e-015
-1.691717e-015
-6.075147e-016
-3.364641e-016
-1.454754e-014
-2.131144e-014
-3.526924e-014
-5.931424e-014
-9.668192e-014
-1.514038e-013
-2.259559e-013
-3.187129e-013
-4.170587e-013
-4.867750e-013
-4.539758e-013
-1.771078e-013
5.941136e-013
2.275712e-012
5.522026e-012
1.131807e-011
2.107465e-011
3.672423e-011
6.078565e-011
9.637223e-011
1.471004e-010
2.168622e-010
3.094282e-010
4.278684e-010
5.738166e-010
7.466390e-010
9.426240e-010
1.154335e-009
1.370291e-009
1.575107e-009
1.750181e-009
1.874920e-009
1.928391e-009
1.891224e-009
1.747501e-009
1.486400e-009
1.103380e-009
6.007888e-010
-1.212575e-011
-7.197433e-010
-1.500994e-009
-2.330527e-009
-3.179979e-009
-4.019229e-009
-4.817589e-009
-5.544911e-009
-6.172643e-009
-6.674871e-009
-7.029379e-009
-7.218729e-009
-7.231362e-009
-7.062625e-009
-6.715645e-009
-6.201900e-009
-5.541352e-009
-4.761991e-009
-3.898689e-009
-2.991331e-009
-2.082292e-009
-1.213414e-009
-4.228061e-010
2.581991e-010
8.074989e-010
1.213746e-009
1.476695e-009
1.606324e-009
1.620853e-009
1.544015e-009
1.401991e-009
1.220494e-009
1.022386e-009
8.260807e-010
6.448175e-010
4.867140e-010
3.554140e-010
2.510839e-010
1.715171e-010
1.131652e-010
7.197525e-011
4.398706e-011
2.569663e-011
1.422479e-011
7.345616e-012
3.427896e-012
1.334215e-012
3.082095e-013
-1.290595e-013
-2.656149e-013
-2.653872e-013
-2.148320e-013
-1.555662e-013
-1.044958e-013
-6.601895e-014
-3.972119e-014
-2.282412e-014
-1.243790e-014
-6.422091e-015
-3.290265e-015
-1.518028e-015
-7.113813e-016
-2.654510e-014
-3.722536e-014
-5.974229e-014
-9.686515e-014
-1.527196e-013
-2.300848e-013
-3.276209e-013
-4.315222e-013
-5.034061e-013
-4.580871e-013
-1.282858e-013
7.877705e-013
2.802465e-012
6.740321e-012
1.386548e-011
2.602639e-011
4.580158e-011
7.660912e-011
1.227320e-010
1.891865e-010
2.813586e-010
4.043280e-010
5.618332e-010
7.548797e-010
9.800791e-010
1.227906e-009
1.481153e-009
1.713939e-009
1.891617e-009
1.971857e-009
1.907006e-009
1.647622e-009
1.146832e-009
3.649840e-010
-7.260180e-010
-2.139277e-009
-3.870784e-009
-5.898825e-009
-8.184835e-009
-1.067547e-008
-1.330547e-008
-1.600093e-008
-1.868257e-008
-2.126879e-008
-2.367849e-008
-2.583345e-008
-2.766066e-008
-2.909454e-008
-3.007919e-008
-3.057086e-008
-3.054044e-008
-2.997596e-008
-2.888479e-008
-2.729526e-008
-2.525737e-008
-2.284212e-008
-2.013925e-008
-1.725319e-008
-1.429726e-008
-1.138647e-008
-8.629548e-009
-6.120996e-009
-3.934221e-009
-2.116641e-009
-6.875165e-010
3.611896e-010
1.061079e-009
1.461366e-009
1.621687e-009
1.604802e-009
1.470213e-009
1.269426e-009
1.043207e-009
8.207643e-010
6.204904e-010
4.517472e-010
3.171299e-010
2.147492e-010
1.402123e-010
8.814240e-011
5.320343e-011
3.068958e-011
1.678008e-011
8.569226e-012
3.967412e-012
1.547332e-012
3.797386e-013
-1.111690e-013
-2.634702e-013
-2.652563e-013
-2.132115e-013
-1.525628e-013
-1.010480e-013
-6.290512e-014
-3.712821e-014
-2.099876e-014
-1.132550e-014
-5.638430e-015
-2.885857e-015
-1.660709e-015
-4.578557e-014
-6.228713e-014
-9.659172e-014
-1.514554e-013
-2.301947e-013
-3.310903e-013
-4.406000e-013
-5.175042e-013
-4.686626e-013
-1.051528e-013
9.215509e-013
3.216718e-012
7.775524e-012
1.615648e-011
3.068502e-011
5.466769e-011
9.256457e-011
1.500436e-010
2.337983e-010
3.509847e-010
5.081138e-010
7.092635e-010
9.535433e-010
1.231886e-009
1.523429e-009
1.791980e-009
1.983259e-009
2.023699e-009
1.821572e-009
1.270924e-009
2.583853e-010
-1.327603e-009
-3.586144e-009
-6.593173e-009
-1.039215e-008
-1.498740e-008
-2.034096e-008
-2.637308e-008
-3.296607e-008
-3.997065e-008
-4.721370e-008
-5.450647e-008
-6.165226e-008
-6.845334e-008
-7.471671e-008
-8.025903e-008
-8.491100e-008
-8.852162e-008
-9.096269e-008
-9.213370e-008
-9.196714e-008
-9.043406e-008
-8.754920e-008
-8.337523e-008
-7.802512e-008
-7.166179e-008
-6.449425e-008
-5.676963e-008
-4.876116e-008
-4.075229e-008
-3.301846e-008
-2.580806e-008
-1.932497e-008
-1.371497e-008
-9.057896e-009
-5.366876e-009
-2.594508e-009
-6.449450e-010
6.102065e-010
1.314764e-009
1.612132e-009
1.632720e-009
1.485700e-009
1.255269e-009
1.000790e-009
7.597102e-010
5.520198e-010
3.851435e-010
2.584409e-010
1.668583e-010
1.035692e-010
6.166184e-011
3.505923e-011
1.888785e-011
9.503857e-012
4.338140e-012
1.671611e-012
4.105289e-013
-1.076757e-013
-2.633843e-013
-2.624762e-013
-2.078656e-013
-1.463930e-013
-9.529458e-014
-5.826907e-014
-3.386455e-014
-1.867119e-014
-1.009342e-014
-5.222530e-015
-3.357702e-015
-7.559657e-014
-1.002754e-013
-1.501862e-013
-2.268979e-013
-3.293450e-013
-4.435718e-013
-5.291760e-013
-4.871109e-013
-1.148633e-013
9.734213e-013
3.463159e-012
8.507096e-012
1.795046e-011
3.460470e-011
6.254863e-011
1.073851e-010
1.763435e-010
2.780417e-010
4.216549e-010
6.151857e-010
8.625186e-010
1.159017e-009
1.485624e-009
1.801747e-009
2.037668e-009
2.087686e-009
1.805614e-009
1.004370e-009
-5.388227e-010
-3.070807e-009
-6.844701e-009
-1.209745e-008
-1.902533e-008
-2.776074e-008
-3.835354e-008
-5.075961e-008
-6.483788e-008
-8.035592e-008
-9.700239e-008
-1.144043e-007
-1.321462e-007
-1.497892e-007
-1.668875e-007
-1.830027e-007
-1.977144e-007
-2.106292e-007
-2.213877e-007
-2.296715e-007
-2.352110e-007
-2.377940e-007
-2.372762e-007
-2.335919e-007
-2.267657e-007
-2.169223e-007
-2.042931e-007
-1.892189e-007
-1.721444e-007
-1.536050e-007
-1.342045e-007
-1.145834e-007
-9.538018e-008
-7.718946e-008
-6.052065e-008
-4.576327e-008
-3.316363e-008
-2.281634e-008
-1.467213e-008
-8.560151e-009
-4.220894e-009
-1.344123e-009
3.941592e-010
1.300620e-009
1.642538e-009
1.635763e-009
1.441812e-009
1.171932e-009
8.954432e-010
6.498191e-010
4.505252e-010
2.993907e-010
1.909741e-010
1.169135e-010
6.856504e-011
3.836159e-011
2.031778e-011
1.003978e-011
4.492646e-012
1.689939e-012
3.961179e-013
-1.191893e-013
-2.650436e-013
-2.567410e-013
-1.991117e-013
-1.374594e-013
-8.766114e-014
-5.266917e-014
-3.009651e-014
-1.644207e-014
-9.147342e-015
-5.937019e-015
-1.202726e-013
-1.554515e-013
-2.242379e-013
-3.238025e-013
-4.413535e-013
-5.371106e-013
-5.127720e-013
-1.591688e-013
9.323684e-013
3.505861e-012
8.843463e-012
1.904334e-011
3.737466e-011
6.867973e-011
1.197422e-010
1.994640e-010
3.185805e-010
4.885074e-010
7.187848e-010
1.012486e-009
1.358998e-009
1.723783e-009
2.035252e-009
2.169610e-009
1.935576e-009
1.061841e-009
-8.091131e-010
-4.117109e-009
-9.367413e-009
-1.709981e-008
-2.784511e-008
-4.207341e-008
-6.014075e-008
-8.224188e-008
-1.083763e-007
-1.383324e-007
-1.716921e-007
-2.078526e-007
-2.460626e-007
-2.854652e-007
-3.251426e-007
-3.641558e-007
-4.015787e-007
-4.365227e-007
-4.681546e-007
-4.957083e-007
-5.184943e-007
-5.359070e-007
-5.474354e-007
-5.526755e-007
-5.513472e-007
-5.433140e-007
-5.286051e-007
-5.074365e-007
-4.802294e-007
-4.476211e-007
-4.104640e-007
-3.698100e-007
-3.268752e-007
-2.829856e-007
-2.395039e-007
-1.977439e-007
-1.588806e-007
-1.238667e-007
-9.336894e-008
-6.773343e-008
-4.698590e-008
-3.086667e-008
-1.889340e-008
-1.044019e-008
-4.819477e-009
-1.354872e-009
5.638172e-010
1.446875e-009
1.691597e-009
1.585788e-009
1.322269e-009
1.018736e-009
7.384121e-010
5.084092e-010
3.342785e-010
2.104359e-010
1.269076e-010
7.321066e-011
4.023881e-011
2.090573e-011
1.011188e-011
4.411193e-012
1.599599e-012
3.387920e-013
-1.431417e-013
-2.669236e-013
-2.477336e-013
-1.868041e-013
-1.260085e-013
-7.874857e-014
-4.646862e-014
-2.641131e-014
-1.505017e-014
-1.010187e-014
-1.844906e-013
-2.318514e-013
-3.200835e-013
-4.357449e-013
-5.415374e-013
-5.427559e-013
-2.331750e-013
8.013909e-013
3.336006e-012
8.739132e-012
1.930402e-011
3.868650e-011
7.242268e-011
1.284335e-010
2.173138e-010
3.520336e-010
5.464467e-010
8.117416e-010
1.149717e-009
1.541641e-009
1.931601e-009
2.203851e-009
2.154819e-009
1.462196e-009
-3.443343e-010
-3.904140e-009
-1.003059e-008
-1.969234e-008
-3.396561e-008
-5.395695e-008
-8.070167e-008
-1.150498e-007
-1.575559e-007
-2.083908e-007
-2.672893e-007
-3.335437e-007
-4.060399e-007
-4.833315e-007
-5.637340e-007
-6.454267e-007
-7.265474e-007
-8.052701e-007
-8.798630e-007
-9.487245e-007
-1.010403e-006
-1.063603e-006
-1.107186e-006
-1.140169e-006
-1.161731e-006
-1.171215e-006
-1.168157e-006
-1.152305e-006
-1.123660e-006
-1.082513e-006
-1.029493e-006
-9.655977e-007
-8.922213e-007
-8.111553e-007
-7.245573e-007
-6.348811e-007
-5.447624e-007
-4.568662e-007
-3.737058e-007
-2.974567e-007
-2.297907e-007
-1.717599e-007
-1.237501e-007
-8.551358e-008
-5.627252e-008
-3.487227e-008
-1.995424e-008
-1.011945e-008
-4.060062e-009
-6.470616e-010
1.026944e-009
1.643112e-009
1.678565e-009
1.443372e-009
1.121943e-009
8.115907e-010
5.542566e-010
3.600905e-010
2.234192e-010
1.325476e-010
7.510359e-011
4.048031e-011
2.058276e-011
9.711612e-012
4.104894e-012
1.413920e-012
2.478363e-013
-1.742570e-013
-2.669921e-013
-2.350894e-013
-1.716428e-013
-1.128827e-013
-6.926158e-014
-4.048035e-014
-2.407724e-014
-1.671702e-014
-2.727973e-013
-3.319080e-013
-4.342849e-013
-5.439990e-013
-5.734986e-013
-3.276892e-013
5.961879e-013
2.972622e-012
8.203319e-012
1.869734e-011
3.838718e-011
7.336897e-011
1.325657e-010
2.281739e-010
3.754134e-010
5.907463e-010
8.872737e-010
1.265502e-009
1.697240e-009
2.100251e-009
2.301819e-009
1.990820e-009
6.606457e-010
-2.450897e-009
-8.414044e-009
-1.863724e-008
-3.485826e-008
-5.908115e-008
-9.344996e-008