# vtk DataFile Version 3.0
vtk output
ASCII
DATASET STRUCTURED_POINTS
DIMENSIONS 100 100 1
SPACING 1 1 1
ORIGIN 0 0 0
POINT_DATA 10000
SCALARS SFBox_profile double
LOOKUP_TABLE default 
9.439933e-003
9.439933e-003
9.439932e-003
9.439931e-003
9.439930e-003
9.439929e-003
9.439930e-003
9.439931e-003
9.439934e-003
9.439938e-003
9.439945e-003
9.439952e-003
9.439960e-003
9.439969e-003
9.439978e-003
9.439986e-003
9.439992e-003
9.439995e-003
9.439994e-003
9.439987e-003
9.439973e-003
9.439950e-003
9.439917e-003
9.439870e-003
9.439809e-003
9.439730e-003
9.439632e-003
9.439513e-003
9.439371e-003
9.439206e-003
9.439019e-003
9.438811e-003
9.438584e-003
9.438344e-003
9.438095e-003
9.437843e-003
9.437596e-003
9.437362e-003
9.437149e-003
9.436963e-003
9.436812e-003
9.436702e-003
9.436636e-003
9.436617e-003
9.436646e-003
9.436722e-003
9.436842e-003
9.437000e-003
9.437192e-003
9.437410e-003
9.437646e-003
9.437893e-003
9.438144e-003
9.438390e-003
9.438626e-003
9.438848e-003
9.439050e-003
9.439231e-003
9.439390e-003
9.439525e-003
9.439638e-003
9.439729e-003
9.439802e-003
9.439857e-003
9.439898e-003
9.439927e-003
9.439946e-003
9.439957e-003
9.439963e-003
9.439964e-003
9.439962e-003
9.439959e-003
9.439954e-003
9.439949e-003
9.439944e-003
9.439940e-003
9.439936e-003
9.439932e-003
9.439930e-003
9.439927e-003
9.439925e-003
9.439924e-003
9.439923e-003
9.439922e-003
9.439922e-003
9.439921e-003
9.439921e-003
9.439920e-003
9.439920e-003
9.439920e-003
9.439920e-003
9.439920e-003
9.439920e-003
9.439920e-003
9.439920e-003
9.439920e-003
9.439920e-003
9.439920e-003
9.439920e-003
9.439920e-003
9.439933e-003
9.439933e-003
9.439932e-003
9.439931e-003
9.439930e-003
9.439929e-003
9.439930e-003
9.439931e-003
9.439934e-003
9.439938e-003
9.439945e-003
9.439952e-003
9.439960e-003
9.439969e-003
9.439978e-003
9.439986e-003
9.439992e-003
9.439995e-003
9.439994e-003
9.439987e-003
9.439973e-003
9.439950e-003
9.439917e-003
9.439870e-003
9.439809e-003
9.439730e-003
9.439632e-003
9.439513e-003
9.439371e-003
9.439206e-003
9.439019e-003
9.438811e-003
9.438584e-003
9.438344e-003
9.438095e-003
9.437843e-003
9.437596e-003
9.437362e-003
9.437149e-003
9.436963e-003
9.436812e-003
9.436702e-003
9.436636e-003
9.436617e-003
9.436646e-003
9.436722e-003
9.436842e-003
9.437000e-003
9.437192e-003
9.437410e-003
9.437646e-003
9.437893e-003
9.438144e-003
9.438390e-003
9.438626e-003
9.438848e-003
9.439050e-003
9.439231e-003
9.439390e-003
9.439525e-003
9.439638e-003
9.439729e-003
9.439802e-003
9.439857e-003
9.439898e-003
9.439927e-003
9.439946e-003
9.439957e-003
9.439963e-003
9.439964e-003
9.439962e-003
9.439959e-003
9.439954e-003
9.439949e-003
9.439944e-003
9.439940e-003
9.439936e-003
9.439932e-003
9.439930e-003
9.439927e-003
9.439925e-003
9.439924e-003
9.439923e-003
9.439922e-003
9.439922e-003
9.439921e-003
9.439921e-003
9.439920e-003
9.439920e-003
9.439920e-003
9.439920e-003
9.439920e-003
9.439920e-003
9.439920e-003
9.439920e-003
9.439920e-003
9.439920e-003
9.439920e-003
9.439920e-003
9.439920e-003
9.439931e-003
9.439931e-003
9.439931e-003
9.439931e-003
9.439931e-003
9.439931e-003
9.439933e-003
9.439935e-003
9.439938e-003
9.439943e-003
9.439948e-003
9.439955e-003
9.439963e-003
9.439970e-003
9.439977e-003
9.439982e-003
9.439983e-003
9.439980e-003
9.439971e-003
9.439954e-003
9.439926e-003
9.439884e-003
9.439827e-003
9.439751e-003
9.439653e-003
9.439530e-003
9.439380e-003
9.439199e-003
9.438987e-003
9.438744e-003
9.438470e-003
9.438168e-003
9.437842e-003
9.437497e-003
9.437142e-003
9.436785e-003
9.436437e-003
9.436108e-003
9.435808e-003
9.435547e-003
9.435336e-003
9.435182e-003
9.435091e-003
9.435065e-003
9.435107e-003
9.435214e-003
9.435383e-003
9.435606e-003
9.435877e-003
9.436184e-003
9.436519e-003
9.436870e-003
9.437226e-003
9.437578e-003
9.437918e-003
9.438238e-003
9.438532e-003
9.438798e-003
9.439032e-003
9.439234e-003
9.439405e-003
9.439546e-003
9.439660e-003
9.439750e-003
9.439818e-003
9.439869e-003
9.439905e-003
9.439929e-003
9.439944e-003
9.439952e-003
9.439955e-003
9.439955e-003
9.439953e-003
9.439949e-003
9.439945e-003
9.439941e-003
9.439937e-003
9.439934e-003
9.439931e-003
9.439928e-003
9.439926e-003
9.439925e-003
9.439924e-003
9.439923e-003
9.439922e-003
9.439921e-003
9.439921e-003
9.439921e-003
9.439920e-003
9.439920e-003
9.439920e-003
9.439920e-003
9.439920e-003
9.439920e-003
9.439920e-003
9.439920e-003
9.439920e-003
9.439920e-003
9.439920e-003
9.439920e-003
9.439929e-003
9.439929e-003
9.439930e-003
9.439932e-003
9.439933e-003
9.439935e-003
9.439938e-003
9.439942e-003
9.439946e-003
9.439950e-003
9.439956e-003
9.439961e-003
9.439966e-003
9.439969e-003
9.439970e-003
9.439968e-003
9.439959e-003
9.439942e-003
9.439913e-003
9.439870e-003
9.439808e-003
9.439723e-003
9.439610e-003
9.439464e-003
9.439281e-003
9.439055e-003
9.438783e-003
9.438461e-003
9.438088e-003
9.437664e-003
9.437191e-003
9.436674e-003
9.436120e-003
9.435538e-003
9.434943e-003
9.434348e-003
9.433769e-003
9.433223e-003
9.432728e-003
9.432300e-003
9.431953e-003
9.431701e-003
9.431552e-003
9.431512e-003
9.431582e-003
9.431759e-003
9.432038e-003
9.432408e-003
9.432856e-003
9.433367e-003
9.433924e-003
9.434510e-003
9.435107e-003
9.435701e-003
9.436276e-003
9.436821e-003
9.437327e-003
9.437786e-003
9.438195e-003
9.438552e-003
9.438857e-003
9.439113e-003
9.439324e-003
9.439493e-003
9.439626e-003
9.439728e-003
9.439804e-003
9.439859e-003
9.439897e-003
9.439921e-003
9.439937e-003
9.439945e-003
9.439948e-003
9.439948e-003
9.439946e-003
9.439943e-003
9.439940e-003
9.439936e-003
9.439933e-003
9.439930e-003
9.439928e-003
9.439926e-003
9.439925e-003
9.439923e-003
9.439922e-003
9.439922e-003
9.439921e-003
9.439921e-003
9.439920e-003
9.439920e-003
9.439920e-003
9.439920e-003
9.439920e-003
9.439920e-003
9.439920e-003
9.439920e-003
9.439920e-003
9.439920e-003
9.439920e-003
9.439920e-003
9.439927e-003
9.439928e-003
9.439930e-003
9.439933e-003
9.439937e-003
9.439941e-003
9.439946e-003
9.439951e-003
9.439956e-003
9.439960e-003
9.439964e-003
9.439966e-003
9.439966e-003
9.439962e-003
9.439952e-003
9.439934e-003
9.439905e-003
9.439859e-003
9.439792e-003
9.439698e-003
9.439569e-003
9.439399e-003
9.439179e-003
9.438901e-003
9.438557e-003
9.438138e-003
9.437638e-003
9.437054e-003
9.436382e-003
9.435624e-003
9.434785e-003
9.433874e-003
9.432904e-003
9.431892e-003
9.430860e-003
9.429834e-003
9.428839e-003
9.427905e-003
9.427061e-003
9.426332e-003
9.425745e-003
9.425318e-003
9.425067e-003
9.425000e-003
9.425121e-003
9.425425e-003
9.425900e-003
9.426532e-003
9.427298e-003
9.428174e-003
9.429130e-003
9.430140e-003
9.431174e-003
9.432205e-003
9.433210e-003
9.434166e-003
9.435059e-003
9.435875e-003
9.436607e-003
9.437251e-003
9.437808e-003
9.438279e-003
9.438671e-003
9.438991e-003
9.439246e-003
9.439446e-003
9.439599e-003
9.439714e-003
9.439797e-003
9.439855e-003
9.439894e-003
9.439919e-003
9.439934e-003
9.439941e-003
9.439944e-003
9.439944e-003
9.439942e-003
9.439939e-003
9.439936e-003
9.439933e-003
9.439931e-003
9.439928e-003
9.439926e-003
9.439924e-003
9.439923e-003
9.439922e-003
9.439921e-003
9.439921e-003
9.439921e-003
9.439920e-003
9.439920e-003
9.439920e-003
9.439920e-003
9.439920e-003
9.439920e-003
9.439920e-003
9.439920e-003
9.439920e-003
9.439920e-003
9.439920e-003
9.439927e-003
9.439929e-003
9.439933e-003
9.439937e-003
9.439943e-003
9.439949e-003
9.439956e-003
9.439962e-003
9.439966e-003
9.439970e-003
9.439970e-003
9.439966e-003
9.439957e-003
9.439939e-003
9.439909e-003
9.439862e-003
9.439793e-003
9.439694e-003
9.439556e-003
9.439368e-003
9.439119e-003
9.438796e-003
9.438385e-003
9.437871e-003
9.437242e-003
9.436485e-003
9.435590e-003
9.434550e-003
9.433365e-003
9.432036e-003
9.430574e-003
9.428996e-003
9.427324e-003
9.425591e-003
9.423833e-003
9.422091e-003
9.420412e-003
9.418842e-003
9.417428e-003
9.416212e-003
9.415235e-003
9.414527e-003
9.414113e-003
9.414006e-003
9.414210e-003
9.414718e-003
9.415513e-003
9.416570e-003
9.417854e-003
9.419325e-003
9.420939e-003
9.422648e-003
9.424406e-003
9.426167e-003
9.427891e-003
9.429542e-003
9.431091e-003
9.432516e-003
9.433802e-003
9.434941e-003
9.435932e-003
9.436779e-003
9.437489e-003
9.438075e-003
9.438547e-003
9.438923e-003
9.439214e-003
9.439436e-003
9.439601e-003
9.439721e-003
9.439805e-003
9.439862e-003
9.439899e-003
9.439922e-003
9.439935e-003
9.439941e-003
9.439943e-003
9.439942e-003
9.439940e-003
9.439937e-003
9.439934e-003
9.439931e-003
9.439928e-003
9.439926e-003
9.439924e-003
9.439923e-003
9.439922e-003
9.439921e-003
9.439921e-003
9.439921e-003
9.439920e-003
9.439920e-003
9.439920e-003
9.439920e-003
9.439920e-003
9.439920e-003
9.439920e-003
9.439920e-003
9.439920e-003
9.439920e-003
9.439932e-003
9.439934e-003
9.439938e-003
9.439944e-003
9.439951e-003
9.439958e-003
9.439966e-003
9.439971e-003
9.439975e-003
9.439974e-003
9.439968e-003
9.439953e-003
9.439926e-003
9.439882e-003
9.439815e-003
9.439716e-003
9.439576e-003
9.439381e-003
9.439116e-003
9.438764e-003
9.438305e-003
9.437716e-003
9.436975e-003
9.436060e-003
9.434949e-003
9.433623e-003
9.432067e-003
9.430274e-003
9.428242e-003
9.425980e-003
9.423508e-003
9.420857e-003
9.418068e-003
9.415195e-003
9.412300e-003
9.409451e-003
9.406721e-003
9.404184e-003
9.401911e-003
9.399970e-003
9.398416e-003
9.397298e-003
9.396647e-003
9.396485e-003
9.396816e-003
9.397630e-003
9.398902e-003
9.400595e-003
9.402657e-003
9.405029e-003
9.407644e-003
9.410428e-003
9.413308e-003
9.416212e-003
9.419074e-003
9.421832e-003
9.424437e-003
9.426849e-003
9.429042e-003
9.430997e-003
9.432711e-003
9.434185e-003
9.435431e-003
9.436466e-003
9.437310e-003
9.437987e-003
9.438518e-003
9.438928e-003
9.439237e-003
9.439466e-003
9.439631e-003
9.439747e-003
9.439826e-003
9.439878e-003
9.439910e-003
9.439928e-003
9.439938e-003
9.439942e-003
9.439942e-003
9.439940e-003
9.439937e-003
9.439934e-003
9.439931e-003
9.439928e-003
9.439926e-003
9.439924e-003
9.439923e-003
9.439922e-003
9.439921e-003
9.439921e-003
9.439921e-003
9.439921e-003
9.439920e-003
9.439920e-003
9.439920e-003
9.439920e-003
9.439920e-003
9.439920e-003
9.439920e-003
9.439920e-003
9.439941e-003
9.439943e-003
9.439948e-003
9.439954e-003
9.439961e-003
9.439968e-003
9.439974e-003
9.439978e-003
9.439977e-003
9.439968e-003
9.439947e-003
9.439911e-003
9.439852e-003
9.439762e-003
9.439629e-003
9.439439e-003
9.439174e-003
9.438813e-003
9.438330e-003
9.437697e-003
9.436881e-003
9.435846e-003
9.434557e-003
9.432979e-003
9.431078e-003
9.428828e-003
9.426208e-003
9.423211e-003
9.419843e-003
9.416125e-003
9.412096e-003
9.407814e-003
9.403352e-003
9.398800e-003
9.394258e-003
9.389836e-003
9.385642e-003
9.381786e-003
9.378368e-003
9.375476e-003
9.373184e-003
9.371550e-003
9.370615e-003
9.370399e-003
9.370908e-003
9.372127e-003
9.374025e-003
9.376556e-003
9.379655e-003
9.383244e-003
9.387232e-003
9.391517e-003
9.395992e-003
9.400550e-003
9.405084e-003
9.409498e-003
9.413707e-003
9.417640e-003
9.421246e-003
9.424491e-003
9.427356e-003
9.429842e-003
9.431960e-003
9.433733e-003
9.435191e-003
9.436369e-003
9.437303e-003
9.438031e-003
9.438588e-003
9.439005e-003
9.439310e-003
9.439529e-003
9.439682e-003
9.439786e-003
9.439854e-003
9.439897e-003
9.439922e-003
9.439935e-003
9.439940e-003
9.439942e-003
9.439940e-003
9.439937e-003
9.439934e-003
9.439931e-003
9.439928e-003
9.439926e-003
9.439924e-003
9.439923e-003
9.439922e-003
9.439922e-003
9.439921e-003
9.439921e-003
9.439921e-003
9.439920e-003
9.439920e-003
9.439920e-003
9.439920e-003
9.439920e-003
9.439920e-003
9.439920e-003
9.439956e-003
9.439958e-003
9.439962e-003
9.439967e-003
9.439973e-003
9.439978e-003
9.439980e-003
9.439976e-003
9.439964e-003
9.439938e-003
9.439892e-003
9.439817e-003
9.439701e-003
9.439528e-003
9.439281e-003
9.438934e-003
9.438458e-003
9.437817e-003
9.436971e-003
9.435872e-003
9.434469e-003
9.432708e-003
9.430533e-003
9.427894e-003
9.424742e-003
9.421045e-003
9.416781e-003
9.411951e-003
9.406582e-003
9.400723e-003
9.394457e-003
9.387889e-003
9.381151e-003
9.374392e-003
9.367770e-003
9.361444e-003
9.355567e-003
9.350275e-003
9.345683e-003
9.341880e-003
9.338932e-003
9.336880e-003
9.335748e-003
9.335543e-003
9.336260e-003
9.337887e-003
9.340399e-003
9.343757e-003
9.347911e-003
9.352788e-003
9.358294e-003
9.364317e-003
9.370721e-003
9.377362e-003
9.384085e-003
9.390739e-003
9.397182e-003
9.403292e-003
9.408968e-003
9.414138e-003
9.418755e-003
9.422803e-003
9.426285e-003
9.429227e-003
9.431667e-003
9.433656e-003
9.435248e-003
9.436500e-003
9.437466e-003
9.438198e-003
9.438741e-003
9.439136e-003
9.439417e-003
9.439612e-003
9.439744e-003
9.439830e-003
9.439883e-003
9.439915e-003
9.439932e-003
9.439939e-003
9.439941e-003
9.439940e-003
9.439938e-003
9.439934e-003
9.439931e-003
9.439929e-003
9.439926e-003
9.439925e-003
9.439923e-003
9.439922e-003
9.439922e-003
9.439921e-003
9.439921e-003
9.439920e-003
9.439920e-003
9.439920e-003
9.439920e-003
9.439920e-003
9.439920e-003
9.439920e-003
9.439976e-003
9.439978e-003
9.439980e-003
9.439983e-003
9.439984e-003
9.439983e-003
9.439976e-003
9.439959e-003
9.439926e-003
9.439868e-003
9.439775e-003
9.439630e-003
9.439415e-003
9.439103e-003
9.438662e-003
9.438053e-003
9.437227e-003
9.436128e-003
9.434690e-003
9.432841e-003
9.430502e-003
9.427593e-003
9.424036e-003
9.419759e-003
9.414708e-003
9.408848e-003
9.402178e-003
9.394733e-003
9.386590e-003
9.377875e-003
9.368756e-003
9.359437e-003
9.350151e-003
9.341142e-003
9.332646e-003
9.324875e-003
9.317998e-003
9.312133e-003
9.307338e-003
9.303620e-003
9.300941e-003
9.299239e-003
9.298444e-003
9.298497e-003
9.299365e-003
9.301044e-003
9.303560e-003
9.306953e-003
9.311269e-003
9.316532e-003
9.322734e-003
9.329822e-003
9.337688e-003
9.346176e-003
9.355090e-003
9.364208e-003
9.373301e-003
9.382150e-003
9.390561e-003
9.398375e-003
9.405478e-003
9.411801e-003
9.417315e-003
9.422030e-003
9.425985e-003
9.429241e-003
9.431873e-003
9.433961e-003
9.435588e-003
9.436833e-003
9.437767e-003
9.438454e-003
9.438950e-003
9.439299e-003
9.439540e-003
9.439701e-003
9.439805e-003
9.439870e-003
9.439908e-003
9.439928e-003
9.439938e-003
9.439941e-003
9.439940e-003
9.439938e-003
9.439935e-003
9.439932e-003
9.439929e-003
9.439927e-003
9.439925e-003
9.439923e-003
9.439922e-003
9.439921e-003
9.439921e-003
9.439920e-003
9.439920e-003
9.439920e-003
9.439920e-003
9.439920e-003
9.439920e-003
9.439920e-003
9.440001e-003
9.440001e-003
9.440000e-003
9.439998e-003
9.439992e-003
9.439979e-003
9.439955e-003
9.439913e-003
9.439841e-003
9.439728e-003
9.439552e-003
9.439289e-003
9.438906e-003
9.438361e-003
9.437603e-003
9.436567e-003
9.435177e-003
9.433346e-003
9.430974e-003
9.427951e-003
9.424167e-003
9.419508e-003
9.413874e-003
9.407187e-003
9.399403e-003
9.390524e-003
9.380618e-003
9.369821e-003
9.358349e-003
9.346494e-003
9.334613e-003
9.323109e-003
9.312394e-003
9.302860e-003
9.294829e-003
9.288519e-003
9.284013e-003
9.281247e-003
9.280012e-003
9.279986e-003
9.280774e-003
9.281966e-003
9.283204e-003
9.284227e-003
9.284917e-003
9.285314e-003
9.285606e-003
9.286098e-003
9.287158e-003
9.289166e-003
9.292445e-003
9.297220e-003
9.303587e-003
9.311496e-003
9.320767e-003
9.331111e-003
9.342168e-003
9.353548e-003
9.364868e-003
9.375785e-003
9.386020e-003
9.395366e-003
9.403693e-003
9.410944e-003
9.417121e-003
9.422275e-003
9.426491e-003
9.429873e-003
9.432535e-003
9.434591e-003
9.436150e-003
9.437309e-003
9.438154e-003
9.438758e-003
9.439180e-003
9.439468e-003
9.439659e-003
9.439782e-003
9.439857e-003
9.439902e-003
9.439925e-003
9.439937e-003
9.439940e-003
9.439940e-003
9.439938e-003
9.439935e-003
9.439932e-003
9.439929e-003
9.439927e-003
9.439925e-003
9.439923e-003
9.439922e-003
9.439921e-003
9.439921e-003
9.439920e-003
9.439920e-003
9.439920e-003
9.439920e-003
9.439920e-003
9.439920e-003
9.440026e-003
9.440024e-003
9.440018e-003
9.440007e-003
9.439989e-003
9.439956e-003
9.439903e-003
9.439815e-003
9.439678e-003
9.439468e-003
9.439154e-003
9.438695e-003
9.438037e-003
9.437116e-003
9.435848e-003
9.434136e-003
9.431862e-003
9.428895e-003
9.425089e-003
9.420292e-003
9.414355e-003
9.407143e-003
9.398556e-003
9.388549e-003
9.377155e-003
9.364515e-003
9.350892e-003
9.336691e-003
9.322459e-003
9.308865e-003
9.296669e-003
9.286658e-003
9.279569e-003
9.275997e-003
9.276305e-003
9.280547e-003
9.288412e-003
9.299222e-003
9.311965e-003
9.325390e-003
9.338133e-003
9.348876e-003
9.356507e-003
9.360256e-003
9.359797e-003
9.355287e-003
9.347344e-003
9.336960e-003
9.325378e-003
9.313930e-003
9.303880e-003
9.296288e-003
9.291909e-003
9.291138e-003
9.294010e-003
9.300243e-003
9.309307e-003
9.320514e-003
9.333111e-003
9.346362e-003
9.359608e-003
9.372308e-003
9.384064e-003
9.394614e-003
9.403823e-003
9.411662e-003
9.418180e-003
9.423484e-003
9.427711e-003
9.431013e-003
9.433542e-003
9.435443e-003
9.436844e-003
9.437855e-003
9.438571e-003
9.439067e-003
9.439401e-003
9.439621e-003
9.439761e-003
9.439847e-003
9.439897e-003
9.439923e-003
9.439936e-003
9.439940e-003
9.439940e-003
9.439938e-003
9.439935e-003
9.439932e-003
9.439929e-003
9.439926e-003
9.439924e-003
9.439923e-003
9.439922e-003
9.439921e-003
9.439920e-003
9.439920e-003
9.439920e-003
9.439920e-003
9.439921e-003
9.439921e-003
9.440048e-003
9.440042e-003
9.440028e-003
9.440004e-003
9.439964e-003
9.439898e-003
9.439794e-003
9.439632e-003
9.439385e-003
9.439017e-003
9.438476e-003
9.437700e-003
9.436605e-003
9.435089e-003
9.433026e-003
9.430269e-003
9.426646e-003
9.421970e-003
9.416042e-003
9.408669e-003
9.399683e-003
9.388970e-003
9.376508e-003
9.362407e-003
9.346955e-003
9.330668e-003
9.314314e-003
9.298935e-003
9.285824e-003
9.276467e-003
9.272442e-003
9.275268e-003
9.286219e-003
9.306126e-003
9.335179e-003
9.372785e-003
9.417483e-003
9.466972e-003
9.518237e-003
9.567792e-003
9.612001e-003
9.647447e-003
9.671308e-003
9.681666e-003
9.677733e-003
9.659940e-003
9.629884e-003
9.590138e-003
9.543959e-003
9.494924e-003
9.446556e-003
9.401985e-003
9.363686e-003
9.333318e-003
9.311681e-003
9.298762e-003
9.293882e-003
9.295873e-003
9.303285e-003
9.314573e-003
9.328263e-003
9.343054e-003
9.357896e-003
9.372006e-003
9.384862e-003
9.396168e-003
9.405815e-003
9.413826e-003
9.420319e-003
9.425463e-003
9.429453e-003
9.432486e-003
9.434744e-003
9.436393e-003
9.437573e-003
9.438399e-003
9.438965e-003
9.439344e-003
9.439590e-003
9.439745e-003
9.439839e-003
9.439893e-003
9.439922e-003
9.439936e-003
9.439940e-003
9.439940e-003
9.439938e-003
9.439935e-003
9.439932e-003
9.439929e-003
9.439926e-003
9.439924e-003
9.439922e-003
9.439921e-003
9.439921e-003
9.439920e-003
9.439920e-003
9.439920e-003
9.439921e-003
9.439921e-003
9.440059e-003
9.440047e-003
9.440021e-003
9.439975e-003
9.439899e-003
9.439779e-003
9.439592e-003
9.439308e-003
9.438884e-003
9.438261e-003
9.437362e-003
9.436088e-003
9.434313e-003
9.431882e-003
9.428611e-003
9.424287e-003
9.418671e-003
9.411515e-003
9.402579e-003
9.391666e-003
9.378665e-003
9.363613e-003
9.346769e-003
9.328698e-003
9.310358e-003
9.293174e-003
9.279084e-003
9.270533e-003
9.270395e-003
9.281813e-003
9.307935e-003
9.351575e-003
9.414806e-003
9.498543e-003
9.602174e-003
9.723298e-003
9.857635e-003
9.999148e-003
1.014040e-002
1.027310e-002
1.038885e-002
1.047988e-002
1.053989e-002
1.056462e-002
1.055237e-002
1.050413e-002
1.042349e-002
1.031626e-002
1.018986e-002
1.005258e-002
9.912770e-003
9.778125e-003
9.655041e-003
9.548227e-003
9.460526e-003
9.392949e-003
9.344908e-003
9.314567e-003
9.299257e-003
9.295896e-003
9.301346e-003
9.312701e-003
9.327462e-003
9.343639e-003
9.359759e-003
9.374829e-003
9.388264e-003
9.399792e-003
9.409373e-003
9.417117e-003
9.423221e-003
9.427924e-003
9.431470e-003
9.434088e-003
9.435981e-003
9.437322e-003
9.438252e-003
9.438883e-003
9.439300e-003
9.439568e-003
9.439735e-003
9.439835e-003
9.439892e-003
9.439922e-003
9.439936e-003
9.439941e-003
9.439941e-003
9.439938e-003
9.439935e-003
9.439931e-003
9.439928e-003
9.439925e-003
9.439923e-003
9.439922e-003
9.439921e-003
9.439921e-003
9.439921e-003
9.439921e-003
9.439921e-003
9.439921e-003
9.440049e-003
9.440028e-003
9.439981e-003
9.439899e-003
9.439766e-003
9.439558e-003
9.439239e-003
9.438761e-003
9.438057e-003
9.437037e-003
9.435583e-003
9.433546e-003
9.430740e-003
9.426941e-003
9.421886e-003
9.415286e-003
9.406837e-003
9.396252e-003
9.383312e-003
9.367935e-003
9.350272e-003
9.330835e-003
9.310645e-003
9.291390e-003
9.275579e-003
9.266659e-003
9.269052e-003
9.288083e-003
9.329742e-003
9.400282e-003
9.505624e-003
9.650627e-003
9.838269e-003
1.006886e-002
1.033939e-002
1.064314e-002
1.096966e-002
1.130521e-002
1.163350e-002
1.193697e-002
1.219818e-002
1.240132e-002
1.253367e-002
1.258678e-002
1.255728e-002
1.244717e-002
1.226367e-002
1.201850e-002
1.172681e-002
1.140578e-002
1.107308e-002
1.074542e-002
1.043726e-002
1.015989e-002
9.920926e-003
9.724206e-003
9.570115e-003
9.456188e-003
9.377889e-003
9.329441e-003
9.304601e-003
9.297290e-003
9.302048e-003
9.314305e-003
9.330479e-003
9.347952e-003
9.364960e-003
9.380434e-003
9.393838e-003
9.405006e-003
9.414017e-003
9.421088e-003
9.426500e-003
9.430548e-003
9.433510e-003
9.435632e-003
9.437119e-003
9.438140e-003
9.438824e-003
9.439272e-003
9.439557e-003
9.439732e-003
9.439835e-003
9.439893e-003
9.439923e-003
9.439937e-003
9.439941e-003
9.439940e-003
9.439937e-003
9.439934e-003
9.439930e-003
9.439927e-003
9.439925e-003
9.439923e-003
9.439922e-003
9.439921e-003
9.439921e-003
9.439921e-003
9.439921e-003
9.439921e-003
9.440003e-003
9.439966e-003
9.439886e-003
9.439747e-003
9.439522e-003
9.439175e-003
9.438650e-003
9.437871e-003
9.436736e-003
9.435109e-003
9.432817e-003
9.429641e-003
9.425314e-003
9.419524e-003
9.411924e-003
9.402152e-003
9.389877e-003
9.374869e-003
9.357106e-003
9.336926e-003
9.315229e-003
9.293722e-003
9.275204e-003
9.263855e-003
9.265482e-003
9.287665e-003
9.339727e-003
9.432444e-003
9.577456e-003
9.786328e-003
1.006932e-002
1.043392e-002
1.088336e-002
1.141526e-002
1.202063e-002
1.268350e-002
1.338121e-002
1.408548e-002
1.476419e-002
1.538368e-002
1.591128e-002
1.631800e-002
1.658081e-002
1.668458e-002
1.662331e-002
1.640063e-002
1.602950e-002
1.553114e-002
1.493333e-002
1.426809e-002
1.356915e-002
1.286932e-002
1.219804e-002
1.157951e-002
1.103137e-002
1.056422e-002
1.018183e-002
9.882067e-003
9.658130e-003
9.500116e-003
9.396512e-003
9.335517e-003
9.306067e-003
9.298508e-003
9.304943e-003
9.319298e-003
9.337193e-003
9.355694e-003
9.373012e-003
9.388206e-003
9.400919e-003
9.411165e-003
9.419170e-003
9.425256e-003
9.429771e-003
9.433045e-003
9.435366e-003
9.436977e-003
9.438070e-003
9.438795e-003
9.439263e-003
9.439557e-003
9.439735e-003
9.439839e-003
9.439896e-003
9.439925e-003
9.439938e-003
9.439941e-003
9.439940e-003
9.439936e-003
9.439933e-003
9.439929e-003
9.439926e-003
9.439924e-003
9.439923e-003
9.439922e-003
9.439921e-003
9.439921e-003
9.439921e-003
9.439921e-003
9.439898e-003
9.439837e-003
9.439704e-003
9.439474e-003
9.439107e-003
9.438544e-003
9.437701e-003
9.436464e-003
9.434680e-003
9.432150e-003
9.428623e-003
9.423788e-003
9.417282e-003
9.408696e-003
9.397610e-003
9.383652e-003
9.366593e-003
9.346509e-003
9.324004e-003
9.300519e-003
9.278729e-003
9.263006e-003
9.259933e-003
9.278766e-003
9.331789e-003
9.434400e-003
9.604818e-003
9.863276e-003
1.023063e-002
1.072642e-002
1.136643e-002
1.216010e-002
1.310801e-002
1.419990e-002
1.541360e-002
1.671500e-002
1.805944e-002
1.939419e-002
2.066185e-002
2.180439e-002
2.276719e-002
2.350293e-002
2.397480e-002
2.415893e-002
2.404596e-002
2.364162e-002
2.296638e-002
2.205413e-002
2.094999e-002
1.970723e-002
1.838358e-002
1.703716e-002
1.572237e-002
1.448629e-002
1.336582e-002
1.238604e-002
1.155986e-002
1.088885e-002
1.036508e-002
9.973616e-003
9.695163e-003
9.508650e-003
9.393332e-003
9.330345e-003
9.303633e-003
9.300340e-003
9.310752e-003
9.327971e-003
9.347419e-003
9.366307e-003
9.383141e-003
9.397299e-003
9.408700e-003
9.417566e-003
9.424260e-003
9.429184e-003
9.432720e-003
9.435202e-003
9.436905e-003
9.438048e-003
9.438796e-003
9.439273e-003
9.439569e-003
9.439746e-003
9.439847e-003
9.439901e-003
9.439928e-003
9.439938e-003
9.439941e-003
9.439939e-003
9.439935e-003
9.439932e-003
9.439929e-003
9.439926e-003
9.439924e-003
9.439923e-003
9.439922e-003
9.439921e-003
9.439921e-003
9.439921e-003
9.439701e-003
9.439602e-003
9.439386e-003
9.439015e-003
9.438429e-003
9.437539e-003
9.436219e-003
9.434301e-003
9.431562e-003
9.427718e-003
9.422415e-003
9.415237e-003
9.405713e-003
9.393363e-003
9.377775e-003
9.358735e-003
9.336452e-003
9.311874e-003
9.287146e-003
9.266208e-003
9.255528e-003
9.264924e-003
9.308390e-003
9.404774e-003
9.578115e-003
9.857404e-003
1.027557e-002
1.086749e-002
1.166706e-002
1.270337e-002
1.399643e-002
1.555290e-002
1.736260e-002
1.939632e-002
2.160545e-002
2.392380e-002
2.627130e-002
2.855915e-002
3.069590e-002
3.259340e-002
3.417229e-002
3.536634e-002
3.612562e-002
3.641852e-002
3.623291e-002
3.557641e-002
3.447622e-002
3.297816e-002
3.114487e-002
2.905301e-002
2.678923e-002
2.444498e-002
2.211061e-002
1.986924e-002
1.779117e-002
1.592967e-002
1.431860e-002
1.297222e-002
1.188698e-002
1.104482e-002
1.041752e-002
9.971097e-003
9.669922e-003
9.479958e-003
9.370995e-003
9.317870e-003
9.300809e-003
9.305137e-003
9.320584e-003
9.340419e-003
9.360575e-003
9.378858e-003
9.394315e-003
9.406745e-003
9.416362e-003
9.423569e-003
9.428823e-003
9.432557e-003
9.435150e-003
9.436909e-003
9.438075e-003
9.438828e-003
9.439302e-003
9.439591e-003
9.439761e-003
9.439857e-003
9.439907e-003
9.439930e-003
9.439939e-003
9.439940e-003
9.439938e-003
9.439935e-003
9.439931e-003
9.439928e-003
9.439926e-003
9.439924e-003
9.439923e-003
9.439922e-003
9.439921e-003
9.439921e-003
9.439363e-003
9.439205e-003
9.438863e-003
9.438280e-003
9.437366e-003
9.435990e-003
9.433968e-003
9.431059e-003
9.426945e-003
9.421234e-003
9.413453e-003
9.403071e-003
9.389548e-003
9.372428e-003
9.351524e-003
9.327199e-003
9.300815e-003
9.275368e-003
9.256352e-003
9.252849e-003
9.278795e-003
9.354307e-003
9.506866e-003
9.772053e-003
1.019349e-002
1.082157e-002
1.171076e-002
1.291524e-002
1.448307e-002
1.644949e-002
1.883006e-002
2.161484e-002
2.476476e-002
2.821099e-002
3.185781e-002
3.558876e-002
3.927498e-002
4.278475e-002
4.599241e-002
4.878572e-002
5.107078e-002
5.277454e-002
5.384528e-002
5.425195e-002
5.398321e-002
5.304688e-002
5.147015e-002
4.930028e-002
4.660543e-002
4.347453e-002
4.001557e-002
3.635149e-002
3.261351e-002
2.893255e-002
2.542962e-002
2.220682e-002
1.934027e-002
1.687619e-002
1.483058e-002
1.319225e-002
1.192839e-002
1.099160e-002
1.032696e-002
9.878389e-003
9.593452e-003
9.426518e-003
9.340266e-003
9.305880e-003
9.302323e-003
9.315106e-003
9.334866e-003
9.356008e-003
9.375531e-003
9.392106e-003
9.405403e-003
9.415628e-003
9.423226e-003
9.428710e-003
9.432567e-003
9.435214e-003
9.436988e-003
9.438149e-003
9.438889e-003
9.439347e-003
9.439623e-003
9.439782e-003
9.439869e-003
9.439913e-003
9.439933e-003
9.439940e-003
9.439940e-003
9.439937e-003
9.439934e-003
9.439930e-003
9.439928e-003
9.439925e-003
9.439923e-003
9.439922e-003
9.439921e-003
9.439921e-003
9.438814e-003
9.438568e-003
9.438038e-003
9.437141e-003
9.435746e-003
9.433662e-003
9.430631e-003
9.426311e-003
9.420267e-003
9.411978e-003
9.400851e-003
9.386281e-003
9.367771e-003
9.345154e-003
9.318961e-003
9.291007e-003
9.265248e-003
9.248970e-003
9.254332e-003
9.300212e-003
9.414215e-003
9.634553e-003
1.001138e-002
1.060702e-002
1.149448e-002
1.275369e-002
1.446524e-002
1.670168e-002
1.951715e-002
2.293678e-002
2.694752e-002
3.149259e-002
3.647098e-002
4.174284e-002
4.714026e-002
5.248180e-002
5.758817e-002
6.229634e-002
6.646968e-002
7.000289e-002
7.282180e-002
7.487918e-002
7.614843e-002
7.661721e-002
7.628256e-002
7.514876e-002
7.322830e-002
7.054573e-002
6.714360e-002
6.308889e-002
5.847813e-002
5.343927e-002
4.812858e-002
4.272223e-002
3.740312e-002
3.234514e-002
2.769758e-002
2.357257e-002
2.003775e-002
1.711516e-002
1.478580e-002
1.299851e-002
1.168095e-002
1.075076e-002
1.012504e-002
9.727520e-003
9.492851e-003
9.368431e-003
9.314305e-003
9.301778e-003
9.311405e-003
9.330819e-003
9.352734e-003
9.373287e-003
9.390773e-003
9.404742e-003
9.415403e-003
9.423251e-003
9.428855e-003
9.432750e-003
9.435391e-003
9.437138e-003
9.438265e-003
9.438973e-003
9.439406e-003
9.439660e-003