# vtk DataFile Version 3.0
vtk output
ASCII
DATASET STRUCTURED_POINTS
DIMENSIONS 100 100 1
SPACING 1 1 1
ORIGIN 0 0 0
POINT_DATA 10000
SCALARS SFBox_profile double
LOOKUP_TABLE default 
0.000000e+000
0.000000e+000
0.000000e+000
0.000000e+000
0.000000e+000
0.000000e+000
0.000000e+000
0.000000e+000
0.000000e+000
0.000000e+000
0.000000e+000
0.000000e+000
0.000000e+000
0.000000e+000
0.000000e+000
0.000000e+000
0.000000e+000
0.000000e+000
0.000000e+000
0.000000e+000
0.000000e+000
0.000000e+000
0.000000e+000
0.000000e+000
0.000000e+000
0.000000e+000
0.000000e+000
0.000000e+000
0.000000e+000
0.000000e+000
0.000000e+000
0.000000e+000
0.000000e+000
0.000000e+000
0.000000e+000
0.000000e+000
0.000000e+000
0.000000e+000
0.000000e+000
0.000000e+000
0.000000e+000
0.000000e+000
0.000000e+000
0.000000e+000
0.000000e+000
0.000000e+000
0.000000e+000
0.000000e+000
0.000000e+000
0.000000e+000
0.000000e+000
0.000000e+000
0.000000e+000
0.000000e+000
0.000000e+000
0.000000e+000
0.000000e+000
0.000000e+000
0.000000e+000
0.000000e+000
0.000000e+000
0.000000e+000
0.000000e+000
0.000000e+000
0.000000e+000
0.000000e+000
0.000000e+000
0.000000e+000
0.000000e+000
0.000000e+000
0.000000e+000
0.000000e+000
0.000000e+000
0.000000e+000
0.000000e+000
0.000000e+000
0.000000e+000
0.000000e+000
0.000000e+000
0.000000e+000
0.000000e+000
0.000000e+000
0.000000e+000
0.000000e+000
0.000000e+000
0.000000e+000
0.000000e+000
0.000000e+000
0.000000e+000
0.000000e+000
0.000000e+000
0.000000e+000
0.000000e+000
0.000000e+000
0.000000e+000
0.000000e+000
0.000000e+000
0.000000e+000
0.000000e+000
0.000000e+000
-9.043813e-013
-2.703268e-013
7.883654e-013
2.001711e-012
3.031759e-012
3.560127e-012
3.346512e-012
2.250572e-012
3.162151e-013
-2.260847e-012
-5.102400e-012
-7.742268e-012
-9.651931e-012
-1.036176e-011
-9.553654e-012
-7.083717e-012
-3.090204e-012
2.050742e-012
7.766544e-012
1.333543e-011
1.802036e-011
2.115113e-011
2.224481e-011
2.105263e-011
1.761508e-011
1.223264e-011
5.428975e-012
-2.130285e-012
-9.713450e-012
-1.665677e-011
-2.239673e-011
-2.656049e-011
-2.897611e-011
-2.969563e-011
-2.891916e-011
-2.700829e-011
-2.436945e-011
-2.144591e-011
-1.865442e-011
-1.633067e-011
-1.472740e-011
-1.400165e-011
-1.419884e-011
-1.531318e-011
-1.724460e-011
-1.985415e-011
-2.300412e-011
-2.650653e-011
-3.020347e-011
-3.392553e-011
-3.753731e-011
-4.090034e-011
-4.389745e-011
-4.642277e-011
-4.839117e-011
-4.971960e-011
-5.033974e-011
-5.022061e-011
-4.931737e-011
-4.763390e-011
-4.516893e-011
-4.194091e-011
-3.798552e-011
-3.335065e-011
-2.806308e-011
-2.217838e-011
-1.574329e-011
-8.839417e-012
-1.566769e-012
5.893670e-012
1.329391e-011
2.030615e-011
2.650088e-011
3.140416e-011
3.453150e-011
3.548003e-011
3.401406e-011
3.012032e-011
2.409463e-011
1.651974e-011
8.224253e-012
1.725550e-013
-6.700563e-012
-1.163369e-011
-1.420003e-011
-1.435952e-011
-1.245770e-011
-9.158689e-012
-5.264962e-012
-1.555641e-012
1.372726e-012
3.186980e-012
3.856051e-012
3.595007e-012
2.721528e-012
1.601945e-012
5.225828e-013
-3.380535e-013
-9.071050e-013
-1.191298e-012
1.898994e-014
4.818885e-013
1.224003e-012
1.987186e-012
2.477469e-012
2.455205e-012
1.784876e-012
4.548858e-013
-1.386010e-012
-3.478300e-012
-5.439114e-012
-6.894124e-012
-7.478941e-012
-6.957934e-012
-5.236882e-012
-2.417538e-012
1.223109e-012
5.261419e-012
9.165560e-012
1.241890e-011
1.453492e-011
1.518262e-011
1.419305e-011
1.162790e-011
7.722515e-012
2.877295e-012
-2.410240e-012
-7.594308e-012
-1.219583e-011
-1.583083e-011
-1.824660e-011
-1.934952e-011
-1.921810e-011
-1.803618e-011
-1.608760e-011
-1.370791e-011
-1.123157e-011
-8.950032e-012
-7.101625e-012
-5.844738e-012
-5.276177e-012
-5.395204e-012
-6.174431e-012
-7.520978e-012
-9.336841e-012
-1.149067e-011
-1.388653e-011
-1.641033e-011
-1.898210e-011
-2.151698e-011
-2.396457e-011
-2.626919e-011
-2.839048e-011
-3.028654e-011
-3.191989e-011
-3.324796e-011
-3.423552e-011
-3.485298e-011
-3.506915e-011
-3.485790e-011
-3.420880e-011
-3.311848e-011
-3.157866e-011
-2.960970e-011
-2.718529e-011
-2.432007e-011
-2.099455e-011
-1.718960e-011
-1.289184e-011
-8.125728e-012
-2.958904e-012
2.470280e-012
7.936996e-012
1.312246e-011
1.762969e-011
2.102311e-011
2.291586e-011
2.300285e-011
2.118837e-011
1.759910e-011
1.262359e-011
6.873205e-012
1.088929e-012
-3.979124e-012
-7.707697e-012
-9.714629e-012
-9.944921e-012
-8.639404e-012
-6.291437e-012
-3.508919e-012
-8.670047e-013
1.182564e-012
2.402412e-012
2.783389e-012
2.483534e-012
1.755071e-012
8.691812e-013
3.931309e-014
-5.755041e-013
-9.001232e-013
1.661958e-012
1.774726e-012
1.861782e-012
1.740557e-012
1.236875e-012
2.848630e-013
-1.059018e-012
-2.607354e-012
-4.052655e-012
-5.058412e-012
-5.335493e-012
-4.682653e-012
-3.087006e-012
-6.889299e-013
2.204902e-012
5.178274e-012
7.753611e-012
9.500156e-012
1.009459e-011
9.356264e-012
7.306916e-012
4.145093e-012
2.437429e-013
-3.931841e-012
-7.868722e-012
-1.109888e-011
-1.325281e-011
-1.409768e-011
-1.358309e-011
-1.182336e-011
-9.069440e-012
-5.663843e-012
-2.002578e-012
1.538199e-012
4.638390e-012
7.063508e-012
8.680762e-012
9.472964e-012
9.496607e-012
8.887748e-012
7.815173e-012
6.471655e-012
5.028754e-012
3.628669e-012
2.386524e-012
1.359497e-012
5.673944e-013
-3.487608e-016
-3.895550e-013
-6.670648e-013
-9.081649e-013
-1.183623e-012
-1.572813e-012
-2.116114e-012
-2.872286e-012
-3.858633e-012
-5.068575e-012
-6.497856e-012
-8.127251e-012
-9.902627e-012
-1.181046e-011
-1.380033e-011
-1.582471e-011
-1.785693e-011
-1.984754e-011
-2.172621e-011
-2.340139e-011
-2.475227e-011
-2.561401e-011
-2.577947e-011
-2.503418e-011
-2.318799e-011
-2.010944e-011
-1.579443e-011
-1.039261e-011
-4.247759e-012
2.112950e-012
8.049979e-012
1.287628e-011
1.600487e-011
1.705856e-011
1.594012e-011
1.291653e-011
8.582384e-012
3.702062e-012
-8.753212e-013
-4.444759e-012
-6.546253e-012
-7.063488e-012
-6.204936e-012
-4.433373e-012
-2.306643e-012
-3.460399e-013
1.065110e-012
1.768960e-012
1.806230e-012
1.356909e-012
6.989009e-013
8.338938e-014
-2.737611e-013
3.597827e-012
3.154149e-012
2.268040e-012
9.229613e-013
-8.052249e-013
-2.742846e-012
-4.570725e-012
-5.907410e-012
-6.346281e-012
-5.623925e-012
-3.625012e-012
-5.238389e-013
3.286090e-012
7.203007e-012
1.055217e-011
1.266862e-011
1.305496e-011
1.144098e-011
7.874225e-012
2.702654e-012
-3.462711e-012
-9.827121e-012
-1.557930e-011
-1.993193e-011
-2.228285e-011
-2.229890e-011
-1.993227e-011
-1.543485e-011
-9.308530e-012
-2.214799e-012
5.114272e-012
1.196713e-011
1.776482e-011
2.208912e-011
2.474223e-011
2.573865e-011
2.527573e-011
2.367777e-011
2.133560e-011
1.869368e-011
1.612885e-011
1.398245e-011
1.247628e-011
1.176058e-011
1.187031e-011
1.276649e-011
1.434479e-011
1.645349e-011
1.889440e-011
2.148691e-011
2.402596e-011
2.634129e-011
2.827156e-011
2.966923e-011
3.044218e-011
3.049725e-011
2.980566e-011
2.834577e-011
2.612946e-011
2.319764e-011
1.958945e-011
1.536618e-011
1.057870e-011
5.285275e-012
-4.675521e-013
-6.610305e-012
-1.304682e-011
-1.961932e-011
-2.610325e-011
-3.213967e-011
-3.729134e-011
-4.103951e-011
-4.283844e-011
-4.221227e-011
-3.885412e-011
-3.274905e-011
-2.424461e-011
-1.406691e-011
-3.271653e-012
6.881429e-012
1.515010e-011
2.053671e-011
2.249692e-011
2.104658e-011
1.679172e-011
1.077204e-011
4.270778e-012
-1.504628e-012
-5.631021e-012
-7.677130e-012
-7.717091e-012
-6.239179e-012
-3.953471e-012
-1.604415e-012
2.550320e-013
1.330357e-012
1.639246e-012
1.422290e-012
1.005454e-012
7.027297e-013
5.157511e-012
4.018599e-012
1.958768e-012
-7.065696e-013
-3.556093e-012
-6.092889e-012
-7.762767e-012
-8.091933e-012
-6.781492e-012
-3.801001e-012
5.481257e-013
5.658092e-012
1.069159e-011
1.471976e-011
1.690100e-011
1.662150e-011
1.364201e-011
8.140551e-012
7.028526e-013
-7.755514e-012
-1.611788e-011
-2.323651e-011
-2.811911e-011
-3.002354e-011
-2.864074e-011
-2.405698e-011
-1.674883e-011
-7.533599e-012
2.583897e-012
1.254967e-011
2.139699e-011
2.837352e-011
3.300985e-011
3.514259e-011
3.493908e-011
3.277208e-011
2.923184e-011
2.493118e-011
2.054940e-011
1.663255e-011
1.362406e-011
1.182634e-011
1.137649e-011
1.229485e-011
1.446895e-011
1.771871e-011
2.181285e-011
2.648824e-011
3.148691e-011
3.656289e-011
4.148315e-011
4.605130e-011
5.008251e-011
5.343895e-011
5.599875e-011
5.765730e-011
5.836131e-011
5.806260e-011
5.676282e-011
5.447313e-011
5.123309e-011
4.707323e-011
4.203662e-011
3.613304e-011
2.936798e-011
2.174036e-011
1.322898e-011
3.869303e-012
-6.224886e-012
-1.677816e-011
-2.736013e-011
-3.730851e-011
-4.579730e-011
-5.189789e-011
-5.470430e-011
-5.355173e-011
-4.813071e-011
-3.870652e-011
-2.615343e-011
-1.189283e-011
2.281546e-012
1.450347e-011
2.318731e-011
2.737184e-011
2.687084e-011
2.235360e-011
1.517854e-011
7.033051e-012
-4.143011e-013
-5.898700e-012
-8.801093e-012
-9.154195e-012
-7.583391e-012
-4.973626e-012
-2.237772e-012
-3.476090e-014
1.331872e-012
1.926440e-012
2.024784e-012
1.968457e-012
5.502593e-012
3.677949e-012
5.581166e-013
-3.129215e-012
-6.531252e-012
-8.821187e-012
-9.358336e-012
-7.786166e-012
-4.155661e-012
1.090423e-012
7.117500e-012
1.287288e-011
1.724627e-011
1.928262e-011
1.835535e-011
1.430358e-011
7.469952e-012
-1.331535e-012
-1.093766e-011
-2.002176e-011
-2.727944e-011
-3.164213e-011
-3.241167e-011
-2.939278e-011
-2.288827e-011
-1.364034e-011
-2.722431e-012
8.607453e-012
1.912124e-011
2.774659e-011
3.371908e-011
3.665852e-011
3.658132e-011
3.385703e-011
2.911631e-011
2.315756e-011
1.680973e-011
1.086210e-011
5.928116e-012
2.471232e-012
7.111129e-013
7.131684e-013
2.359556e-012
5.432844e-012
9.654519e-012
1.471666e-011
2.031991e-011
2.620878e-011
3.215824e-011
3.799383e-011
4.358566e-011
4.881724e-011
5.362537e-011
5.790919e-011
6.161938e-011
6.469053e-011
6.705908e-011
6.868443e-011
6.953518e-011
6.959073e-011
6.885077e-011
6.731889e-011
6.500067e-011
6.186237e-011
5.783600e-011
5.278576e-011
4.653307e-011
3.885678e-011
2.957217e-011
1.858854e-011
6.019800e-012
-7.734924e-012
-2.194240e-011
-3.549779e-011
-4.705760e-011
-5.518997e-011
-5.863308e-011
-5.659084e-011
-4.897337e-011
-3.654993e-011
-2.092552e-011
-4.308378e-012
1.084995e-011
2.236261e-011
2.875237e-011
2.954599e-011
2.537935e-011
1.775667e-011
8.719096e-012
2.757093e-013
-6.034561e-012
-9.434354e-012
-9.963634e-012
-8.293632e-012
-5.450161e-012
-2.408679e-012
1.412331e-013
1.899995e-012
2.883968e-012
3.297176e-012
3.792097e-012
1.568823e-012
-2.046035e-012
-5.892686e-012
-8.763558e-012
-9.662984e-012
-8.063493e-012
-4.004228e-012
1.896609e-012
8.564508e-012
1.468208e-011
1.896457e-011
2.037566e-011
1.837311e-011
1.297016e-011
4.820007e-012
-4.996117e-012
-1.504176e-011
-2.381441e-011
-2.997072e-011
-3.252888e-011
-3.102049e-011
-2.554195e-011
-1.675619e-011
-5.752099e-012
6.088580e-012
1.732873e-011
2.664601e-011
3.304397e-011
3.594106e-011
3.522680e-011
3.125268e-011
2.474128e-011
1.663790e-011
8.000998e-012
-2.052890e-013
-7.139446e-012
-1.223650e-011
-1.520890e-011
-1.602241e-011
-1.487273e-011
-1.210220e-011
-8.139889e-012
-3.416967e-012
1.651953e-012
6.755097e-012
1.165188e-011
1.622022e-011
2.042621e-011
2.427879e-011
2.785264e-011
3.124283e-011
3.452505e-011
3.777673e-011
4.102182e-011
4.427373e-011
4.750392e-011
5.066735e-011
5.371355e-011
5.658524e-011
5.925306e-011
6.168307e-011
6.387322e-011
6.576385e-011
6.726655e-011
6.820881e-011
6.827103e-011
6.702232e-011
6.391061e-011
5.833562e-011
4.979527e-011
3.800375e-011
2.308633e-011
5.714274e-012
-1.285342e-011
-3.081909e-011
-4.605865e-011
-5.648477e-011
-6.046397e-011
-5.722402e-011
-4.713695e-011
-3.177099e-011
-1.369138e-011
4.070236e-012
1.857477e-011
2.767443e-011
3.043913e-011
2.728779e-011
1.982916e-011
1.034798e-011
1.189926e-012
-5.801893e-012
-9.667570e-012
-1.036995e-011
-8.613628e-012
-5.456855e-012
-1.971909e-012
1.067363e-012
3.207288e-012
4.291945e-012
-5.412867e-013
-2.528113e-012
-5.520060e-012
-8.125893e-012
-9.020598e-012
-7.357924e-012
-3.011915e-012
3.360367e-012
1.047703e-011
1.675569e-011
2.066664e-011
2.109957e-011
1.760312e-011
1.047900e-011
7.066200e-013
-1.019860e-011
-2.048439e-011
-2.848695e-011
-3.284938e-011
-3.279517e-011
-2.819075e-011
-1.960461e-011
-8.153190e-012
4.638620e-012
1.705860e-011
2.749884e-011
3.465722e-011
3.770598e-011
3.637845e-011
3.101028e-011
2.240971e-011
1.175692e-011
3.646503e-013
-1.046015e-011
-1.962080e-011
-2.633698e-011
-3.022994e-011
-3.127809e-011
-2.980559e-011
-2.636289e-011
-2.163717e-011
-1.634052e-011
-1.111134e-011
-6.471826e-012
-2.749727e-012
-1.464010e-013
1.341867e-012
1.834622e-012
1.567951e-012
7.925669e-013
-1.694078e-013
-1.013940e-012
-1.499133e-012
-1.416400e-012
-6.055773e-013
9.881426e-013
3.379885e-012
6.526703e-012
1.036430e-011
1.479861e-011
1.978815e-011
2.527741e-011
3.127486e-011
3.780199e-011
4.485685e-011
5.237604e-011
6.012703e-011
6.767880e-011
7.431765e-011
7.908032e-011
8.080238e-011
7.831887e-011
7.067976e-011
5.743754e-011
3.894123e-011
1.646662e-011
-7.765097e-012
-3.084009e-011
-4.959922e-011
-6.125800e-011
-6.404141e-011
-5.765250e-011
-4.346773e-011
-2.436336e-011
-4.052292e-012
1.368132e-011
2.583751e-011
3.089116e-011
2.899857e-011
2.181792e-011
1.193144e-011
2.069504e-012
-5.577259e-012
-9.802229e-012
-1.048673e-011
-8.366950e-012
-4.659661e-012
-6.445368e-013
2.611048e-012
4.409394e-012
-7.427564e-012
-8.263537e-012
-9.067814e-012
-8.681095e-012
-6.143762e-012
-1.153842e-012
5.726979e-012
1.316720e-011
1.939534e-011
2.273140e-011
2.196486e-011
1.673688e-011
7.633843e-012
-3.947256e-012
-1.604873e-011
-2.657766e-011
-3.365813e-011
-3.599489e-011
-3.305596e-011
-2.514264e-011
-1.332809e-011
7.342841e-013
1.505880e-011
2.766382e-011
3.684205e-011
4.136239e-011
4.069239e-011
3.500544e-011
2.512269e-011
1.239855e-011
-1.532955e-012
-1.499516e-011
-2.649160e-011
-3.489169e-011
-3.957826e-011
-4.045209e-011
-3.788204e-011
-3.263408e-011
-2.568530e-011
-1.809223e-011
-1.085231e-011
-4.792736e-012
-4.902570e-013
1.730358e-012
1.777963e-012
-2.082517e-013
-3.933922e-012
-8.994668e-012
-1.495287e-011
-2.131868e-011
-2.765734e-011
-3.357175e-011
-3.870170e-011
-4.279780e-011
-4.566728e-011
-4.720134e-011
-4.737285e-011
-4.621909e-011
-4.382959e-011
-4.029358e-011
-3.571918e-011
-3.013128e-011
-2.349650e-011
-1.569164e-011
-6.518230e-012
4.238853e-012
1.672594e-011
3.086606e-011
4.624366e-011
6.198864e-011
7.671853e-011
8.860938e-011
9.561811e-011
9.579916e-011
8.779878e-011
7.127769e-011
4.725701e-011
1.823101e-011
-1.207017e-011
-3.926287e-011
-5.917681e-011
-6.872656e-011
-6.674529e-011
-5.428990e-011
-3.446777e-011
-1.174720e-011
9.116093e-012
2.423369e-011
3.140763e-011
3.055775e-011
2.345834e-011
1.305821e-011
2.545264e-012
-5.507641e-012
-9.704133e-012
-9.948646e-012
-7.207847e-012
-3.064174e-012
8.326978e-013
3.142140e-012
-1.590445e-011
-1.453102e-011
-1.151164e-011
-6.511531e-012
4.484494e-013
8.667206e-012
1.676302e-011
2.295793e-011
2.551601e-011
2.328774e-011
1.609212e-011
4.835960e-012
-8.637309e-012
-2.192907e-011
-3.259776e-011
-3.862789e-011
-3.881067e-011
-3.294036e-011
-2.182091e-011
-7.081103e-012
9.099782e-012
2.434732e-011
3.649252e-011
4.382393e-011
4.537653e-011
4.100652e-011
3.138695e-011
1.790629e-011
2.401702e-012
-1.309208e-011
-2.662838e-011
-3.665107e-011
-4.215865e-011
-4.279867e-011
-3.888137e-011
-3.125699e-011
-2.115227e-011
-9.971127e-012
9.065781e-013
1.028508e-011
1.728426e-011
2.137014e-011
2.236160e-011
2.035624e-011
1.570594e-011
8.889222e-012
4.563222e-013
-9.044238e-012
-1.910206e-011
-2.926094e-011
-3.911790e-011
-4.836994e-011
-5.674356e-011
-6.405344e-011
-7.013396e-011
-7.491077e-011
-7.834385e-011
-8.045733e-011
-8.134792e-011
-8.112258e-011
-7.991011e-011
-7.778034e-011
-7.471176e-011
-7.051082e-011
-6.482064e-011
-5.709891e-011
-4.668525e-011
-3.296762e-011
-1.555215e-011
5.470193e-012
2.928439e-011
5.424720e-011
7.785178e-011
9.698973e-011
1.084278e-010
1.094331e-010
9.854328e-011
7.612894e-011
4.469438e-011
8.695748e-012
-2.619155e-011
-5.420075e-011
-7.073713e-011
-7.351473e-011
-6.313027e-011
-4.292670e-011
-1.812961e-011
5.496746e-012
2.310803e-011
3.193702e-011
3.171271e-011
2.445971e-011
1.358033e-011
2.728909e-012
-5.241774e-012
-8.962127e-012
-8.629406e-012
-5.686578e-012
-2.138618e-012
1.702825e-013
-2.400753e-011
-1.958619e-011
-1.154782e-011
-1.061599e-012
1.024287e-011
2.041138e-011
2.737132e-011
2.939293e-011
2.555309e-011
1.605542e-011
2.332540e-012
-1.321909e-011
-2.771072e-011
-3.836971e-011
-4.310065e-011
-4.089831e-011
-3.200096e-011
-1.778920e-011
-5.026280e-013
1.717709e-011
3.257977e-011
4.346163e-011
4.831788e-011
4.657442e-011
3.861441e-011
2.570519e-011
9.760854e-012
-6.935560e-012
-2.206747e-011
-3.362172e-011
-4.013496e-011
-4.090244e-011
-3.600170e-011
-2.623880e-011
-1.299703e-011
2.052230e-012
1.714124e-011
3.069643e-011
4.148046e-011
4.874339e-011
5.219558e-011
5.196423e-011
4.850131e-011
4.245350e-011
3.452293e-011
2.540108e-011
1.565531e-011
5.732728e-012
-4.074454e-012
-1.358350e-011
-2.270510e-011
-3.139688e-011
-3.963109e-011
-4.736214e-011
-5.454571e-011
-6.112598e-011
-6.704208e-011
-7.228268e-011
-7.688430e-011
-8.094839e-011
-8.462273e-011
-8.807306e-011
-9.138620e-011
-9.450571e-011
-9.711003e-011
-9.854908e-011
-9.780630e-011
-9.358300e-011
-8.444978e-011
-6.917135e-011
-4.710950e-011
-1.859402e-011
1.472933e-011
4.979414e-011
8.233846e-011
1.075079e-010
1.207529e-010
1.189417e-010
1.013129e-010
7.004333e-011
3.013936e-011
-1.138784e-011
-4.701210e-011
-7.041228e-011
-7.801281e-011
-6.985609e-011
-4.950266e-011
-2.298456e-011
2.924717e-012
2.246915e-011
3.239625e-011
3.243582e-011
2.496073e-011
1.384583e-011
3.063609e-012
-4.541111e-012
-7.920238e-012
-7.783554e-012
-5.950382e-012
-4.415397e-012
-2.897213e-011
-2.126494e-011
-8.125621e-012
7.272734e-012
2.140046e-011
3.104029e-011
3.388656e-011
2.903421e-011
1.721984e-011
6.586206e-013
-1.740165e-011
-3.336442e-011
-4.403261e-011
-4.727111e-011
-4.239741e-011
-3.023898e-011
-1.288930e-011
6.712718e-012
2.539472e-011
4.026186e-011
4.916861e-011
5.097996e-011
4.568438e-011
3.431075e-011
1.875075e-011
1.437614e-012
-1.502903e-011
-2.822728e-011
-3.624989e-011
-3.794537e-011
-3.305571e-011
-2.220275e-011
-6.753243e-012
1.140585e-011
3.020051e-011
4.764636e-011
6.213205e-011
7.260563e-011
7.863331e-011
8.037839e-011
7.846359e-011
7.380918e-011
6.745988e-011
6.039023e-011
5.338333e-011
4.697924e-011
4.143437e-011
3.675462e-011
3.274905e-011
2.911504e-011
2.549634e-011
2.157340e-011
1.710539e-011
1.196542e-011
6.128685e-012
-3.064982e-013
-7.193940e-012
-1.438139e-011
-2.174540e-011
-2.929590e-011
-3.714698e-011
-4.556008e-011
-5.484813e-011
-6.531205e-011
-7.702522e-011
-8.971473e-011
-1.025426e-010
-1.140170e-010
-1.220511e-010
-1.241093e-010
-1.176914e-010
-1.008459e-010
-7.290149e-011
-3.504055e-011
9.365550e-012
5.490794e-011
9.487839e-011
1.224444e-010
1.322875e-010
1.219860e-010
9.301291e-011
5.077762e-011
3.641746e-012
-3.896440e-011
-6.881068e-011
-8.094179e-011
-7.483438e-011
-5.431560e-011
-2.626533e-011
1.500161e-012
2.247141e-011
3.305424e-011
3.311600e-011
2.542851e-011
1.417336e-011
3.383902e-012
-4.388797e-012
-8.499138e-012
-9.866308e-012
-1.000982e-011
-2.777829e-011
-1.755775e-011
-8.832460e-013
1.700953e-011
3.084844e-011
3.664434e-011
3.261446e-011
1.951726e-011
3.153371e-013
-2.059512e-011
-3.851977e-011
-4.955922e-011
-5.139863e-011
-4.369882e-011
-2.801998e-011
-7.372915e-012
1.450501e-011
3.389310e-011
4.774932e-011
5.415448e-011
5.251844e-011
4.354410e-011
2.901239e-011
1.144871e-011
-6.286527e-012
-2.144505e-011
-3.166554e-011
-3.537145e-011
-3.189955e-011
-2.154525e-011
-5.539910e-012
1.422147e-011
3.544170e-011
5.579872e-011
7.325258e-011
8.638497e-011
9.450591e-011
9.770395e-011
9.674177e-011
9.285799e-011
8.750753e-011
8.211586e-011
7.788350e-011
7.560733e-011
7.567446e-011
7.802006e-011
8.225200e-011
8.769668e-011
9.356289e-011
9.903242e-011
1.033708e-010
1.059894e-010
1.064983e-010
1.047561e-010
1.008136e-010
9.492466e-011
8.748665e-011
7.894563e-011
6.971086e-011
6.005404e-011
5.002777e-011
3.938588e-011
2.761173e-011
1.395512e-011
-2.393412e-012
-2.204457e-011
-4.511524e-011
-7.091910e-011
-9.767901e-011
-1.225147e-010
-1.415622e-010
-1.505654e-010
-1.457078e-010
-1.245908e-010
-8.734020e-011
-3.718413e-011
1.946777e-011
7.386654e-011
1.165353e-010
1.394093e-010
1.379740e-010
1.126574e-010
6.916445e-011
1.725932e-011
-3.159074e-011
-6.717809e-011
-8.313529e-011
-7.847933e-011
-5.743604e-011
-2.782517e-011
1.566952e-012
2.355579e-011
3.438590e-011
3.412128e-011
2.580841e-011
1.378654e-011
1.996024e-012
-7.140641e-012
-1.286268e-011
-1.549032e-011
-1.798530e-011
-7.192720e-012
9.546810e-012
2.561623e-011
3.484764e-011
3.344954e-011
2.104238e-011
5.783611e-013
-2.266745e-011
-4.273590e-011
-5.460183e-011
-5.540909e-011
-4.501189e-011
-2.572854e-011
-1.619254e-012
2.260008e-011
4.257433e-011
5.511080e-011
5.864758e-011
5.329402e-011
4.062316e-011
2.324537e-011
4.295524e-012
-1.306795e-011
-2.610772e-011
-3.279348e-011
-3.205291e-011
-2.385332e-011
-9.115800e-012
1.039077e-011
3.236761e-011
5.428425e-011
7.380097e-011
8.909905e-011
9.914005e-011
1.038000e-010
1.038361e-010
1.006893e-010
9.620899e-011
9.232729e-011
9.071992e-011
9.260854e-011
9.859486e-011
1.086496e-010
1.221936e-010
1.382302e-010
1.554907e-010
1.726631e-010
1.884695e-010
2.018172e-010
2.118664e-010
2.180750e-010
2.202006e-010
2.183202e-010
2.127843e-010
2.041891e-010
1.933363e-010
1.811202e-010
1.684273e-010
1.560255e-010
1.443743e-010
1.335432e-010
1.230570e-010
1.118878e-010
9.853926e-011
8.121795e-011
5.825315e-011
2.852421e-011
-7.961060e-012
-4.956387e-011
-9.280407e-011
-1.324079e-010
-1.619691e-010
-1.751010e-010
-1.669315e-010
-1.357462e-010
-8.409488e-011
-1.912975e-011
4.828484e-011
1.056776e-010
1.418219e-010
1.496862e-010
1.285038e-010
8.421109e-011
2.809382e-011
-2.623367e-011
-6.653325e-011
-8.519459e-011
-8.095883e-011
-5.867991e-011
-2.721261e-011
3.648440e-012
2.615905e-011
3.645370e-011
3.481798e-011
2.460924e-011
1.044781e-011
-3.370656e-012
-1.384735e-011
-1.938410e-011
1.393963e-012
9.706502e-012
2.142951e-011
3.001396e-011
2.996950e-011
1.901824e-011
-1.096310e-012
-2.521298e-011
-4.659732e-011
-5.911947e-011
-5.909516e-011
-4.623108e-011
-2.343606e-011
4.190976e-012
3.080172e-011
5.130639e-011
6.232018e-011
6.269809e-011
5.340734e-011
3.702984e-011
1.709381e-011
-2.698096e-012
-1.901090e-011
-2.934956e-011
-3.223865e-011
-2.732535e-011
-1.526385e-011
2.376697e-012
2.346502e-011
4.550289e-011
6.606420e-011
8.310740e-011
9.531799e-011
1.023004e-010
1.046559e-010
1.038968e-010
1.021250e-010
1.017227e-010
1.048824e-010
1.132745e-010
1.277952e-010
1.484544e-010
1.744347e-010
2.042526e-010
2.360360e-010
2.677379e-010
2.973998e-010
3.233169e-010
3.441574e-010
3.590146e-010
3.673946e-010
3.691888e-010
3.646505e-010
3.543171e-010
3.390356e-010
3.198668e-010
2.981134e-010
2.752247e-010
2.527144e-010
2.320435e-010
2.144310e-010
2.006479e-010
1.907949e-010
1.841424e-010
1.790030e-010
1.727880e-010
1.622592e-010
1.439901e-010
1.151132e-010
7.417112e-011
2.196120e-011
-3.784363e-011
-9.862847e-011
-1.515275e-010
-1.869335e-010
-1.966513e-010
-1.763090e-010
-1.271379e-010
-5.675802e-011
2.179622e-011
9.278172e-011
1.414630e-010
1.580657e-010
1.405355e-010
9.523703e-011
3.516069e-011
-2.381909e-011
-6.752600e-011
-8.730536e-011
-8.203372e-011
-5.751952e-011
-2.390177e-011
7.981337e-012
2.985907e-011
3.793555e-011
3.303307e-011
1.935681e-011
2.573714e-012
-1.192509e-011
-2.018357e-011
2.911523e-011
3.124394e-011
3.209837e-011
2.735641e-011
1.424050e-011
-6.627941e-012
-3.107705e-011
-5.258714e-011
-6.467886e-011
-6.314584e-011
-4.747721e-011
-2.100956e-011
1.021359e-011
3.926025e-011
6.021033e-011
6.948298e-011
6.638869e-011
5.287458e-011
3.270545e-011
1.038373e-011
-9.808008e-012
-2.450626e-011
-3.168169e-011
-3.065226e-011
-2.193295e-011
-6.987170e-012
1.212943e-011
3.309828e-011
5.361956e-011
7.174165e-011
8.614477e-011
9.633627e-011
1.028376e-010
1.071254e-010
1.114672e-010
1.185707e-010
1.311178e-010
1.512773e-010
1.803059e-010
2.182900e-010
2.641482e-010
3.157529e-010
3.702796e-010
4.245912e-010
4.756102e-010
5.206422e-010
5.576024e-010
5.850584e-010
6.022538e-010
6.090134e-010
6.056155e-010
5.926819e-010
5.710801e-010
5.418798e-010
5.063413e-010
4.659235e-010
4.223286e-010
3.775117e-010
3.336424e-010
2.930270e-010
2.579375e-010
2.303353e-010
2.116120e-010
2.021935e-010
2.012603e-010
2.064951e-010
2.140448e-010
2.187431e-010
2.147484e-010
1.965031e-010
1.600673e-010
1.044929e-010
3.296637e-011
-4.681542e-011
-1.233076e-010
-1.830978e-010
-2.138292e-010
-2.076212e-010
-1.638427e-010
-9.034916e-011
-2.400399e-012
8.067252e-011
1.404031e-010
1.642208e-010
1.490027e-010
1.018584e-010
3.781943e-011
-2.485784e-011
-7.022554e-011
-8.911561e-011
-8.108361e-011
-5.342565e-011
-1.790216e-011
1.359905e-011
3.262315e-011
3.616454e-011
2.655986e-011
9.835158e-012
-6.675570e-012
-1.669109e-011
6.134341e-011
5.374179e-011
3.849791e-011
1.592480e-011
-1.185348e-011
-4.032088e-011
-6.323104e-011
-7.446700e-011
-7.017204e-011
-5.033186e-011
-1.905794e-011
1.654309e-011
4.841794e-011
6.984651e-011
7.709865e-011
7.007635e-011
5.187790e-011
2.761270e-011
2.902346e-012
-1.737979e-011
-3.000126e-011
-3.357974e-011
-2.846592e-011
-1.624861e-011
7.974543e-013
2.026038e-011
3.995022e-011
5.818382e-011
7.399190e-011
8.720953e-011
9.859106e-011
1.097909e-010
1.232771e-010
1.420352e-010
1.691547e-010
2.072903e-010
2.580933e-010
3.218199e-010
3.971239e-010
4.811052e-010
5.697197e-010
6.582725e-010
7.420612e-010
8.169127e-010
8.796018e-010
9.280428e-010
9.612817e-010
9.793221e-010
9.828643e-010
9.729835e-010
9.508775e-010
9.176888e-010
8.744331e-010
8.220197e-010
7.613968e-010
6.936994e-010
6.204457e-010
5.436605e-010
4.659557e-010
3.905081e-010
3.208734e-010
2.607364e-010
2.135278e-010
1.819291e-010
1.673518e-010
1.694015e-010
1.854501e-010
2.104009e-010
2.368554e-010
2.558303e-010
2.580838e-010
2.359994e-010
1.857266e-010
1.090779e-010
1.442486e-011
-8.391342e-011
-1.681338e-010
-2.209580e-010
-2.303199e-010
-1.932595e-010
-1.178103e-010
-2.173535e-011
7.179962e-011
1.404661e-010
1.691247e-010
1.540750e-010
1.037998e-010
3.579984e-011
-2.926362e-011
-7.413656e-011
-8.987683e-011
-7.758527e-011
-4.671702e-011
-1.071091e-011
1.795129e-011
3.175181e-011
2.979596e-011
1.705051e-011
1.664782e-012
-8.404999e-012
9.190053e-011
7.222016e-011
3.783136e-011
-4.072165e-012
-4.487209e-011
-7.580625e-011
-8.986274e-011
-8.361089e-011
-5.837777e-011
-2.015337e-011
2.197333e-011
5.823912e-011
8.090019e-011
8.611810e-011
7.460161e-011
5.095193e-011
2.193746e-011
-5.463796e-012
-2.574540e-011
-3.586331e-011
-3.535998e-011
-2.587231e-011
-1.024147e-011
8.431472e-012
2.750758e-011
4.528541e-011
6.119778e-011
7.579150e-011
9.059503e-011
1.079897e-010
1.310163e-010
1.631508e-010
2.079143e-010
2.683549e-010
3.464527e-010
4.424966e-010
5.546644e-010
6.789561e-010
8.094682e-010
9.391195e-010
1.060592e-009
1.167373e-009
1.254600e-009
1.319593e-009
1.362019e-009
1.383572e-009
1.387389e-009
1.377273e-009
1.356895e-009
1.329132e-009
1.295628e-009
1.256663e-009
1.211299e-009
1.157792e-009
1.094126e-009
1.018641e-009
9.305937e-010
8.305814e-010
7.207895e-010
6.049782e-010
4.882569e-010
3.767283e-010
2.768788e-010
1.949799e-010
1.363246e-010
1.044828e-010
1.004450e-010
1.219623e-010
1.630062e-010
2.137832e-010
2.615362e-010
2.922367e-010
2.932581e-010
2.565445e-010
1.815227e-010
7.675014e-011
-4.057172e-011
-1.477425e-010
-2.219102e-010
-2.462684e-010
-2.154467e-010
-1.379052e-010
-3.431185e-011
6.798978e-011
1.429085e-010
1.732852e-010
1.557361e-010
1.009275e-010
2.925486e-011
-3.644824e-011
-7.843534e-011
-8.910209e-011
-7.206782e-011
-3.915931e-011
-4.959058e-012
1.886575e-011
2.728949e-011
2.261753e-011
1.216137e-011
4.266256e-012
1.131715e-010
8.122526e-011
2.838651e-011
-3.008370e-011
-7.853006e-011
-1.047386e-010
-1.028510e-010
-7.459601e-011
-2.843298e-011
2.308383e-011
6.693135e-011
9.318803e-011
9.740490e-011
8.121682e-011
5.115769e-011
1.627425e-011
-1.462321e-011
-3.514414e-011
-4.247181e-011
-3.730320e-011
-2.290073e-011
-3.602570e-012
1.654584e-011
3.482652e-011
5.041170e-011
6.435919e-011
7.931822e-011
9.905833e-011
1.280125e-010
1.708133e-010
2.318480e-010
3.147366e-010
4.216695e-010
5.526550e-010