# vtk DataFile Version 3.0
vtk output
ASCII
DATASET STRUCTURED_POINTS
DIMENSIONS 100 100 1
SPACING 1 1 1
ORIGIN 0 0 0
POINT_DATA 10000
SCALARS SFBox_profile double
LOOKUP_TABLE default 
0.000000e+000
0.000000e+000
0.000000e+000
0.000000e+000
0.000000e+000
0.000000e+000
0.000000e+000
0.000000e+000
0.000000e+000
0.000000e+000
0.000000e+000
0.000000e+000
0.000000e+000
0.000000e+000
0.000000e+000
0.000000e+000
0.000000e+000
0.000000e+000
0.000000e+000
0.000000e+000
0.000000e+000
0.000000e+000
0.000000e+000
0.000000e+000
0.000000e+000
0.000000e+000
0.000000e+000
0.000000e+000
0.000000e+000
0.000000e+000
0.000000e+000
0.000000e+000
0.000000e+000
0.000000e+000
0.000000e+000
0.000000e+000
0.000000e+000
0.000000e+000
0.000000e+000
0.000000e+000
0.000000e+000
0.000000e+000
0.000000e+000
0.000000e+000
0.000000e+000
0.000000e+000
0.000000e+000
0.000000e+000
0.000000e+000
0.000000e+000
0.000000e+000
0.000000e+000
0.000000e+000
0.000000e+000
0.000000e+000
0.000000e+000
0.000000e+000
0.000000e+000
0.000000e+000
0.000000e+000
0.000000e+000
0.000000e+000
0.000000e+000
0.000000e+000
0.000000e+000
0.000000e+000
0.000000e+000
0.000000e+000
0.000000e+000
0.000000e+000
0.000000e+000
0.000000e+000
0.000000e+000
0.000000e+000
0.000000e+000
0.000000e+000
0.000000e+000
0.000000e+000
0.000000e+000
0.000000e+000
0.000000e+000
0.000000e+000
0.000000e+000
0.000000e+000
0.000000e+000
0.000000e+000
0.000000e+000
0.000000e+000
0.000000e+000
0.000000e+000
0.000000e+000
0.000000e+000
0.000000e+000
0.000000e+000
0.000000e+000
0.000000e+000
0.000000e+000
0.000000e+000
0.000000e+000
0.000000e+000
3.969065e-009
1.210744e-009
-2.131284e-009
-3.694985e-009
-2.577892e-009
1.760584e-010
2.509076e-009
2.917533e-009
1.445945e-009
-5.864866e-010
-1.776452e-009
-1.684977e-009
-9.072508e-010
-2.639890e-010
7.317753e-012
2.878664e-010
9.182949e-010
1.640219e-009
1.779135e-009
9.678909e-010
-3.961467e-010
-1.475018e-009
-1.751342e-009
-1.418308e-009
-1.027924e-009
-8.493688e-010
-6.597948e-010
-1.365722e-010
6.739741e-010
1.367889e-009
1.619613e-009
1.499171e-009
1.321061e-009
1.256439e-009
1.183893e-009
9.114428e-010
4.497490e-010
4.171874e-012
-2.645739e-010
-3.959942e-010
-5.351785e-010
-7.412949e-010
-9.364122e-010
-1.024380e-009
-1.009400e-009
-9.803756e-010
-1.005425e-009
-1.068010e-009
-1.101916e-009
-1.069878e-009
-1.001335e-009
-9.579510e-010
-9.641944e-010
-9.730824e-010
-9.097301e-010
-7.559205e-010
-5.784338e-010
-4.511211e-010
-3.525215e-010
-1.765981e-010
1.321447e-010
4.828081e-010
7.248323e-010
8.293723e-010
9.264781e-010
1.122289e-009
1.319701e-009
1.297287e-009
9.785909e-010
5.498835e-010
2.477452e-010
6.712995e-011
-2.227164e-010
-7.409066e-010
-1.254075e-009
-1.368169e-009
-9.581977e-010
-3.205884e-010
1.506965e-010
3.793792e-010
6.046015e-010
9.624808e-010
1.182887e-009
8.247826e-010
-1.673815e-010
-1.225370e-009
-1.571061e-009
-9.136024e-010
2.616438e-010
1.100508e-009
1.087471e-009
4.020254e-010
-3.392695e-010
-6.369732e-010
-4.432001e-010
-6.064129e-011
1.900308e-010
2.008487e-010
6.828282e-011
-4.885183e-011
2.031572e-010
4.569282e-011
-1.330958e-010
-1.800311e-010
-4.600537e-011
1.546917e-010
2.174190e-010
2.785067e-011
-2.956303e-010
-4.564734e-010
-2.315548e-010
2.892146e-010
7.227179e-010
6.999812e-010
1.974361e-010
-4.297233e-010
-7.602998e-010
-6.659224e-010
-3.641483e-010
-1.344064e-010
-2.165113e-011
1.502537e-010
4.962232e-010
8.683000e-010
9.808876e-010
7.170813e-010
2.560292e-010
-1.226623e-010
-3.207607e-010
-4.661245e-010
-6.958351e-010
-9.609285e-010
-1.083554e-009
-9.739511e-010
-7.314726e-010
-5.198376e-010
-3.878495e-010
-2.512993e-010
-3.271313e-011
2.307136e-010
4.346610e-010
5.311916e-010
5.716078e-010
6.317436e-010
7.243516e-010
7.986148e-010
8.107377e-010
7.753718e-010
7.457730e-010
7.541200e-010
7.785056e-010
7.686153e-010
7.018287e-010
6.098329e-010
5.426420e-010
5.050438e-010
4.414752e-010
2.987039e-010
9.779460e-011
-8.046021e-011
-1.920455e-010
-2.882231e-010
-4.478742e-010
-6.582907e-010
-8.039852e-010
-7.960854e-010
-6.834262e-010
-5.913103e-010
-5.536422e-010
-4.581227e-010
-1.924948e-010
1.848981e-010
4.763160e-010
5.543481e-010
4.919406e-010
4.458734e-010
4.400324e-010
3.301070e-010
7.147417e-012
-4.094040e-010
-6.406336e-010
-5.195284e-010
-1.610106e-010
1.571805e-010
2.610716e-010
2.023697e-010
1.323452e-010
1.084765e-010
6.201087e-011
-6.368499e-011
-1.990548e-010
-2.086506e-010
-5.421230e-011
1.383651e-010
1.962768e-010
7.704268e-011
-8.843055e-011
-1.344625e-010
-3.177267e-011
9.034638e-011
-3.744085e-009
-1.147432e-009
1.988738e-009
3.461262e-009
2.462334e-009
-3.783681e-011
-2.209321e-009
-2.747294e-009
-1.646318e-009
9.500572e-011
1.400334e-009
1.824772e-009
1.560774e-009
9.647119e-010
1.934479e-010
-7.276121e-010
-1.621550e-009
-2.093111e-009
-1.808941e-009
-8.240708e-010
4.127000e-010
1.390181e-009
1.868076e-009
1.913662e-009
1.686678e-009
1.255835e-009
6.218218e-010
-1.524396e-010
-9.039586e-010
-1.469536e-009
-1.790161e-009
-1.902340e-009
-1.853324e-009
-1.656479e-009
-1.324269e-009
-9.086741e-010
-4.840163e-010
-9.734609e-011
2.463660e-010
5.514000e-010
8.024475e-010
9.784302e-010
1.084153e-009
1.151823e-009
1.208557e-009
1.252518e-009
1.267527e-009
1.254576e-009
1.237742e-009
1.236863e-009
1.242958e-009
1.228748e-009
1.181118e-009
1.113556e-009
1.042131e-009
9.565724e-010
8.258823e-010
6.331330e-010
3.943053e-010
1.361217e-010
-1.363585e-010
-4.361511e-010
-7.580644e-010
-1.060688e-009
-1.294271e-009
-1.437228e-009
-1.490624e-009
-1.441541e-009
-1.255239e-009
-9.163688e-010
-4.638098e-010
3.394780e-011
5.293392e-010
9.929263e-010
1.353313e-009
1.475714e-009
1.246870e-009
6.927020e-010
-1.146327e-011
-6.603783e-010
-1.128274e-009
-1.344878e-009
-1.207662e-009
-6.145791e-010
3.456925e-010
1.263374e-009
1.581235e-009
1.019482e-009
-1.195333e-010
-1.101520e-009
-1.296588e-009
-6.566358e-010
2.763219e-010
8.250319e-010
6.943019e-010
1.320999e-010
-3.475266e-010
-4.021708e-010
-9.749290e-011
2.104952e-010
-4.155362e-009
-1.211556e-009
2.283934e-009
3.793116e-009
2.467461e-009
-4.095746e-010
-2.593756e-009
-2.653805e-009
-9.322489e-010
9.851398e-010
1.708397e-009
1.098302e-009
9.434849e-011
-3.561533e-010
-1.570404e-010
6.961514e-011
-1.742896e-010
-6.818249e-010
-8.203523e-010
-2.928782e-010
4.986181e-010
8.747152e-010
5.822905e-010
1.062941e-012
-3.219939e-010
-2.379967e-010
-4.634406e-011
-5.840156e-011
-2.358493e-010
-2.962746e-010
-8.860994e-011
2.373302e-010
4.313062e-010
4.231928e-010
3.493711e-010
3.438547e-010
3.825837e-010
3.507645e-010
2.063145e-010
2.443037e-011
-1.052496e-010
-1.752704e-010
-2.387957e-010
-3.253054e-010
-4.100832e-010
-4.584174e-010
-4.691646e-010
-4.654739e-010
-4.617997e-010
-4.551713e-010
-4.391728e-010
-4.103305e-010
-3.636747e-010
-2.974918e-010
-2.240937e-010
-1.604023e-010
-1.012212e-010
-1.811946e-011
9.912005e-011
2.115961e-010
2.679432e-010
2.730461e-010
2.891241e-010
3.477636e-010
3.861540e-010
3.136296e-010
1.413362e-010
-4.489079e-012
-3.224490e-011
-1.299346e-011
-9.543309e-011
-2.881262e-010
-3.969505e-010
-2.401227e-010
1.035766e-010
3.440897e-010
3.038318e-010
1.237542e-010
7.221998e-011
1.753066e-010
1.493976e-010
-2.282110e-010
-7.397939e-010
-8.457814e-010
-2.517031e-010
6.851229e-010
1.203182e-009
8.383612e-010
-1.248550e-010
-9.096390e-010
-9.454864e-010
-3.256136e-010
3.679280e-010
6.235737e-010
3.859476e-010
-2.306369e-011
-2.607763e-010
-2.226150e-010
-3.235758e-011
1.216643e-010
-7.130820e-010
-1.101835e-010
5.327939e-010
6.345503e-010
8.604087e-011
-6.165177e-010
-7.569936e-010
-5.120381e-011
9.928593e-010
1.413583e-009
6.385479e-010
-9.060461e-010
-2.050342e-009
-1.856499e-009
-4.387675e-010
1.157664e-009
1.902751e-009
1.619581e-009
9.209726e-010
4.155571e-010
9.879850e-011
-4.408700e-010
-1.334911e-009
-2.127514e-009
-2.213402e-009
-1.488313e-009
-4.500868e-010
3.367525e-010
7.654874e-010
1.126898e-009
1.622666e-009
2.080828e-009
2.180586e-009
1.849753e-009
1.336728e-009
9.130662e-010
6.066561e-010
2.666479e-010
-1.812280e-010
-6.295417e-010
-9.307660e-010
-1.067799e-009
-1.144479e-009
-1.245066e-009
-1.354664e-009
-1.413788e-009
-1.405830e-009
-1.369660e-009
-1.349380e-009
-1.355951e-009
-1.369375e-009
-1.358337e-009
-1.301176e-009
-1.205639e-009
-1.106269e-009
-1.021410e-009
-9.107747e-010
-7.042560e-010
-3.910054e-010
-5.384254e-011
2.218915e-010
4.621044e-010
7.726736e-010
1.173360e-009
1.514420e-009
1.620295e-009
1.500413e-009
1.338066e-009
1.237378e-009
1.052789e-009
5.611181e-010
-2.072767e-010
-9.117055e-010
-1.234835e-009
-1.210044e-009
-1.117826e-009
-1.068026e-009
-8.162421e-010
-9.748130e-011
9.067067e-010
1.577231e-009
1.414588e-009
5.492120e-010
-3.690937e-010
-7.815942e-010
-6.659922e-010
-3.849510e-010
-2.024904e-010
-5.829332e-011
1.962406e-010
4.758012e-010
4.985208e-010
1.440255e-010
-3.266874e-010
-4.945319e-010
-2.214735e-010
1.933974e-010
3.302012e-010
9.361799e-011
-2.031301e-010
3.299597e-009
1.042760e-009
-1.660185e-009
-2.935306e-009
-2.173420e-009
-2.126378e-010
1.551044e-009
2.209627e-009
1.720428e-009
5.703216e-010
-7.052128e-010
-1.688922e-009
-2.021500e-009
-1.470926e-009
-1.907446e-010
1.187860e-009
1.915186e-009
1.690576e-009
8.666333e-010
5.647986e-011
-4.345752e-010
-7.438408e-010
-1.069968e-009
-1.302368e-009
-1.135179e-009
-5.015694e-010
2.488577e-010
6.773830e-010
6.948477e-010
5.840927e-010
6.069214e-010
6.993924e-010
6.101627e-010
2.625851e-010
-1.316350e-010
-3.245311e-010
-3.040299e-010
-2.561475e-010
-3.069909e-010
-3.874116e-010
-3.599456e-010
-2.070252e-010
-4.241296e-011
3.404802e-011
3.636471e-011
4.363934e-011
9.529229e-011
1.590814e-010
1.815372e-010
1.434704e-010
7.092853e-011
9.611812e-012
-1.436463e-011
-2.333942e-011
-7.262347e-011
-1.853816e-010
-3.052260e-010
-3.446916e-010
-2.936128e-010
-2.448475e-010
-2.754289e-010
-3.237686e-010
-2.455265e-010
-5.956860e-012
2.443056e-010
3.406747e-010
3.182088e-010
3.700131e-010
5.748365e-010
7.482239e-010
6.412269e-010
2.534072e-010
-1.503025e-010
-3.576476e-010
-4.514434e-010
-6.473451e-010
-9.295188e-010
-9.743215e-010
-5.018365e-010
3.534688e-010
1.103179e-009
1.330165e-009
9.978188e-010
3.537689e-010
-3.521881e-010
-9.569822e-010
-1.257950e-009
-9.977737e-010
-1.319523e-010
9.124549e-010
1.412253e-009
9.402878e-010
-1.772557e-010
-1.060961e-009
-1.027227e-009
-1.961839e-010
6.340283e-010
7.377902e-010
1.231419e-010
-5.204237e-010
4.226951e-009
1.111341e-009
-2.428754e-009
-3.697385e-009
-2.079388e-009
7.477852e-010
2.451241e-009
1.984587e-009
1.965189e-010
-1.215573e-009
-1.264480e-009
-3.159756e-010
5.703147e-010
7.351258e-010
3.452743e-010
-7.569207e-011
-2.952165e-010
-4.646815e-010
-7.065431e-010
-8.280381e-010
-5.334074e-010
1.748671e-010
9.358771e-010
1.375129e-009
1.415567e-009
1.210823e-009
8.665232e-010
3.461069e-010
-3.544902e-010
-1.061821e-009
-1.541862e-009
-1.725403e-009
-1.736156e-009
-1.692713e-009
-1.558647e-009
-1.231320e-009
-7.278160e-010
-2.084057e-010
1.869598e-010
4.677006e-010
7.318167e-010
1.016578e-009
1.256108e-009
1.377838e-009
1.395750e-009
1.389883e-009
1.417181e-009
1.464963e-009
1.483833e-009
1.447313e-009
1.377530e-009
1.321151e-009
1.299106e-009
1.274932e-009
1.181460e-009
9.921841e-010
7.578872e-010
5.482263e-010
3.564669e-010
9.697244e-011
-2.786220e-010
-6.901784e-010
-9.992934e-010
-1.166730e-009
-1.285641e-009
-1.430713e-009
-1.521129e-009
-1.396081e-009
-1.017405e-009
-5.289826e-010
-8.894091e-011
2.955491e-010
7.011472e-010
1.086252e-009
1.250919e-009
1.039159e-009
5.267498e-010
-4.679485e-011
-4.960510e-010
-7.648572e-010
-8.051755e-010
-5.180795e-010
7.387830e-011
6.468162e-010
7.374315e-010
1.995679e-010
-5.402579e-010
-8.054052e-010
-3.179022e-010
4.948667e-010
8.876407e-010
5.064382e-010
-2.882587e-010
-7.851740e-010
-5.860504e-010
6.929253e-011
5.744601e-010
5.159042e-010
5.462739e-012
-4.632472e-010
1.450431e-009
8.981662e-011
-1.250035e-009
-1.275520e-009
4.342933e-011
1.435823e-009
1.479518e-009
-5.536983e-011
-1.897197e-009
-2.350913e-009
-8.352181e-010
1.541240e-009
2.929828e-009
2.337599e-009
3.777840e-010
-1.451970e-009
-2.136907e-009
-1.798418e-009
-1.163022e-009
-6.412715e-010
-6.322426e-011
7.997523e-010
1.715471e-009
2.136234e-009
1.781672e-009
9.245301e-010
7.619025e-011
-4.967964e-010
-8.740711e-010
-1.193461e-009
-1.413371e-009
-1.396741e-009
-1.128283e-009
-7.509199e-010
-4.048737e-010
-1.102003e-010
1.722598e-010
4.267939e-010
5.841662e-010
6.169160e-010
5.799080e-010
5.428546e-010
5.147569e-010
4.580353e-010
3.605355e-010
2.647618e-010
2.219557e-010
2.353982e-010
2.621151e-010
2.666122e-010
2.620484e-010
2.922384e-010
3.751946e-010
4.739438e-010
5.329575e-010
5.407577e-010
5.393844e-010
5.611997e-010
5.717012e-010
5.007325e-010
3.295447e-010
1.162765e-010
-8.081824e-011
-2.766382e-010
-5.195781e-010
-7.914831e-010
-9.974469e-010
-1.070420e-009
-1.037996e-009
-9.432016e-010
-7.358237e-010
-3.208051e-010
2.720265e-010
8.399669e-010
1.183628e-009
1.283192e-009
1.218876e-009
9.440031e-010
2.826934e-010
-7.449100e-010
-1.671439e-009
-1.840757e-009
-1.024388e-009
2.660548e-010
1.175382e-009
1.235275e-009
6.776661e-010
6.421514e-011
-2.807350e-010
-4.158597e-010
-4.761668e-010
-4.130476e-010
-1.203397e-010
2.869397e-010
4.868813e-010
2.959921e-010
-8.706195e-011
-2.779845e-010
-1.346818e-010
9.656764e-011
-2.301265e-009
-9.175228e-010
8.274938e-010
1.878326e-009
1.815427e-009
8.803006e-010
-4.106285e-010
-1.538498e-009
-2.006276e-009
-1.437249e-009
6.932721e-011
1.699604e-009
2.325332e-009
1.423382e-009
-3.487029e-010
-1.632983e-009
-1.558092e-009
-4.665646e-010
5.494882e-010
7.659662e-010
3.922482e-010
7.787489e-011
6.972256e-011
2.811698e-011
-3.871238e-010
-9.810464e-010
-1.208065e-009
-7.997171e-010
-4.419010e-011
5.754410e-010
8.841830e-010
1.068100e-009
1.311935e-009
1.536905e-009
1.532544e-009
1.241971e-009
8.201830e-010
4.372840e-010
1.150225e-010
-2.178099e-010
-5.754020e-010
-8.829512e-010
-1.077725e-009
-1.183515e-009
-1.264707e-009
-1.340762e-009
-1.379410e-009
-1.362721e-009
-1.323311e-009
-1.302108e-009
-1.292965e-009
-1.253579e-009
-1.165048e-009
-1.053730e-009
-9.442781e-010
-8.136780e-010
-6.178975e-010
-3.570626e-010
-8.210087e-011
1.734556e-010
4.358374e-010
7.332800e-010
1.015493e-009
1.182699e-009
1.205783e-009
1.163952e-009
1.118762e-009
9.906502e-010
6.435500e-010
1.033797e-010
-3.935843e-010
-6.369706e-010
-6.740286e-010
-7.024624e-010
-7.378990e-010
-5.282189e-010
9.161142e-011
8.274499e-010
1.080937e-009
5.546890e-010
-3.763704e-010
-9.926704e-010
-9.047434e-010
-3.272908e-010
2.773427e-010
6.648217e-010
8.336920e-010
7.336758e-010
2.138221e-010
-6.336113e-010
-1.250971e-009
-1.009517e-009
7.153276e-011
1.136549e-009
1.223270e-009
2.434310e-010
-8.565147e-010
-1.016102e-009
-1.420801e-010
7.992046e-010
-3.792539e-009
-8.808726e-010
2.253055e-009
3.108627e-009
1.443973e-009
-8.885195e-010
-1.886736e-009
-1.113559e-009
3.067022e-010
1.049332e-009
7.509428e-010
-3.873815e-011
-6.844490e-010
-9.788313e-010
-9.368953e-010
-4.575194e-010
5.301887e-010
1.659038e-009
2.170293e-009
1.569082e-009
1.727546e-010
-1.145917e-009
-1.772895e-009
-1.801954e-009
-1.663899e-009
-1.487546e-009
-1.007055e-009
-6.051254e-011
1.037444e-009
1.752591e-009
1.876964e-009
1.674991e-009
1.492671e-009
1.363540e-009
1.078609e-009
5.515231e-010
-2.718814e-011
-4.107969e-010
-5.621056e-010
-6.315511e-010
-7.283271e-010
-8.052517e-010
-7.723940e-010
-6.435194e-010
-5.185162e-010
-4.571851e-010
-4.304181e-010
-3.950767e-010
-3.640286e-010
-3.757399e-010
-4.284992e-010
-4.858035e-010
-5.361663e-010
-6.038902e-010
-6.903506e-010
-7.444137e-010
-7.222368e-010
-6.501602e-010
-5.809610e-010
-4.931721e-010
-2.934210e-010
5.065820e-011
4.290810e-010
7.044168e-010
8.889499e-010
1.121432e-009
1.435907e-009
1.634826e-009
1.483923e-009
1.005993e-009
4.682631e-010
4.573888e-011
-3.883222e-010
-1.020291e-009
-1.693829e-009
-1.917347e-009
-1.358692e-009
-2.532552e-010
7.800774e-010
1.293454e-009
1.280878e-009
9.358192e-010
3.478585e-010
-4.096630e-010
-1.007792e-009
-9.683367e-010
-2.018768e-010
6.834256e-010
8.522199e-010
1.160128e-010
-7.744573e-010
-8.557233e-010
1.746306e-011
9.662545e-010
9.822628e-010
-2.803959e-012
-1.014007e-009
-1.024307e-009
-1.390735e-011
1.001198e-009
-2.226614e-009
6.854310e-011
2.155997e-009
1.894363e-009
-4.246560e-010
-2.449443e-009
-2.114990e-009
3.610554e-010
2.730121e-009
2.874333e-009
7.215867e-010
-1.868711e-009
-2.937592e-009
-2.055261e-009
-2.907144e-010
1.084104e-009
1.619574e-009
1.568506e-009
1.184357e-009
4.640019e-010
-4.971324e-010
-1.252716e-009
-1.339109e-009
-7.787381e-010
-6.213710e-011
3.845246e-010
5.660813e-010
7.012753e-010
7.981252e-010
6.263580e-010
9.019033e-011
-5.530942e-010
-9.448020e-010
-1.006221e-009
-9.515847e-010
-9.520096e-010
-9.189794e-010
-6.683087e-010
-2.006403e-010
2.837352e-010
6.235106e-010
8.509074e-010
1.084033e-009
1.343900e-009
1.543937e-009
1.626925e-009
1.636035e-009
1.639528e-009
1.643957e-009
1.616351e-009
1.553182e-009
1.477452e-009
1.382008e-009
1.230125e-009
1.021922e-009
8.101548e-010
6.193151e-010
3.908129e-010
6.461624e-011
-3.017350e-010
-5.675370e-010
-6.824490e-010
-7.567924e-010
-8.981517e-010
-1.023035e-009
-9.291941e-010
-5.665179e-010
-1.375188e-010
1.387739e-010
2.916342e-010
5.116836e-010
8.103709e-010
9.059552e-010
5.372163e-010
-1.817271e-010
-8.310842e-010
-1.086430e-009
-9.351327e-010
-4.959590e-010
1.886869e-010
1.018102e-009
1.584510e-009
1.341544e-009
1.971993e-010
-1.156044e-009
-1.720435e-009
-1.101850e-009
1.117251e-010
9.284748e-010
8.702184e-010
2.845389e-010
-1.679273e-010
-1.960369e-010
-2.500864e-011
4.054539e-012
-1.631679e-010
-2.985561e-010
-1.951388e-010
1.049554e-010
3.607692e-010
5.380077e-010
8.307776e-010
7.218372e-010
-2.510933e-010
-1.601257e-009
-2.127437e-009
-1.022739e-009
1.147812e-009
2.682177e-009
2.195947e-009
-6.722629e-012
-2.075521e-009
-2.280016e-009
-6.091834e-010
1.298371e-009
1.788507e-009
6.799186e-010
-8.371346e-010
-1.553250e-009
-1.271311e-009
-5.723728e-010
7.779767e-011
7.042235e-010
1.410879e-009
1.951232e-009
1.916112e-009
1.232254e-009
2.658148e-010
-5.776914e-010
-1.196443e-009
-1.679026e-009
-2.000525e-009
-1.997578e-009
-1.620681e-009
-1.056268e-009
-5.318493e-010
-8.649666e-011
3.817796e-010
8.913529e-010
1.307972e-009
1.512264e-009
1.548366e-009
1.552657e-009
1.584551e-009
1.593954e-009
1.537325e-009
1.453636e-009
1.406560e-009
1.405339e-009
1.420796e-009
1.445512e-009
1.490198e-009
1.535563e-009
1.541010e-009
1.506846e-009
1.475916e-009
1.447578e-009
1.337104e-009
1.072223e-009
7.043370e-010
3.560873e-010
5.547817e-011
-3.020073e-010
-7.827326e-010
-1.267703e-009
-1.556665e-009
-1.596855e-009
-1.510863e-009
-1.374849e-009
-1.072297e-009
-4.595458e-010
3.732643e-010
1.120021e-009
1.538782e-009
1.603116e-009
1.344893e-009
7.041102e-010
-2.900941e-010
-1.236146e-009
-1.502220e-009
-8.233959e-010
3.073871e-010
1.007552e-009
8.089484e-010
3.265817e-011
-6.250563e-010
-7.521905e-010
-4.191560e-010
1.049281e-010
5.953789e-010
8.284023e-010
5.649690e-010
-1.776229e-010
-8.969567e-010
-9.245516e-010
-1.373403e-010
7.618175e-010
8.824243e-010
1.052185e-010
-7.366853e-010
2.251086e-009
5.841302e-010
-1.174083e-009
-1.657455e-009
-8.490528e-010
2.460312e-010
7.530442e-010
5.726095e-010
7.461949e-011
-4.370136e-010
-7.682917e-010
-6.135825e-010
2.652034e-010
1.500864e-009
2.064871e-009
1.134518e-009
-9.161316e-010
-2.624074e-009
-2.724472e-009
-1.294696e-009
4.607379e-010
1.458343e-009
1.590255e-009
1.389328e-009
1.170048e-009
7.636552e-010
7.885007e-012
-8.252158e-010
-1.254046e-009
-1.106469e-009
-6.374116e-010
-1.644205e-010
2.434213e-010
6.702509e-010
1.096613e-009
1.374949e-009
1.423020e-009
1.317663e-009
1.169676e-009
9.911298e-010
7.396087e-010
4.384966e-010
1.799096e-010
1.888622e-011
-7.518199e-011
-1.518925e-010
-2.125059e-010
-2.315823e-010
-2.084653e-010
-1.625716e-010
-9.792812e-011
-8.223872e-012
9.373364e-011
1.903197e-010
3.017648e-010
4.713706e-010
6.928168e-010
8.926926e-010
1.016770e-009
1.100002e-009
1.201534e-009
1.288754e-009
1.252759e-009
1.051027e-009
7.670938e-010
4.863792e-010
1.740532e-010
-2.412966e-010
-6.887024e-010
-9.655410e-010
-9.536581e-010
-7.263112e-010
-3.753647e-010
1.610228e-010
9.339010e-010
1.659068e-009
1.766769e-009
9.435973e-010
-4.255935e-010
-1.505049e-009
-1.723030e-009
-1.163245e-009
-2.837117e-010
5.454854e-010
1.107819e-009
1.153715e-009
5.141099e-010
-4.908879e-010
-1.042458e-009
-5.677380e-010
4.976022e-010
9.907919e-010
2.747192e-010
-9.245473e-010
-1.212017e-009
-1.114279e-010
1.273580e-009
1.403282e-009
3.951069e-011
-1.412702e-009
2.296317e-009
-3.235619e-010
-2.509869e-009
-1.874737e-009
8.688104e-010
2.849405e-009
2.097437e-009
-5.838329e-010
-2.682969e-009
-2.538450e-009
-6.516037e-010
1.260985e-009
2.020097e-009
1.645532e-009
7.101592e-010
-3.714332e-010
-1.294734e-009
-1.578226e-009
-8.469240e-010
5.525277e-010
1.578628e-009
1.404227e-009
2.280561e-010
-9.815565e-010
-1.493716e-009
-1.381037e-009
-1.101365e-009
-7.958625e-010
-2.190041e-010
7.433929e-010
1.765548e-009
2.389368e-009
2.492599e-009
2.316443e-009
2.100235e-009
1.845033e-009
1.451171e-009
9.497620e-010
5.007439e-010
2.137791e-010
6.402285e-011
-1.784521e-011
-4.671663e-011
-1.189689e-012
1.080262e-010
2.307459e-010
3.240883e-010
3.777534e-010
3.989798e-010
3.950520e-010
3.695039e-010
3.195476e-010
2.399063e-010
1.437146e-010
7.281025e-011
6.540003e-011
1.164602e-010
1.976390e-010
3.180526e-010
5.262918e-010
8.312192e-010
1.159896e-009
1.437043e-009
1.676217e-009
1.923599e-009
2.115641e-009
2.082972e-009
1.744331e-009
1.222172e-009
6.783803e-010
9.043903e-011
-6.592524e-010
-1.441744e-009
-1.794684e-009
-1.342980e-009
-2.757931e-010
7.416823e-010
1.160346e-009
9.437354e-010
3.706648e-010
-3.379542e-010
-1.000781e-009
-1.230131e-009
-6.029962e-010
7.118602e-010
1.726141e-009
1.429007e-009
-7.211106e-011
-1.448597e-009
-1.434269e-009
-1.688804e-010
9.502084e-010
8.065540e-010
-2.347115e-010
-8.272898e-010
-2.426070e-010
7.965029e-010
9.956134e-010
2.917095e-011
-1.060574e-009
1.507779e-009
-8.334951e-010
-2.537100e-009
-1.379714e-009
1.651153e-009
3.431745e-009
2.040703e-009
-1.225498e-009
-3.234491e-009
-2.230938e-009
5.306610e-010
2.294304e-009
1.629244e-009
-4.282906e-010
-1.804395e-009
-1.493784e-009
-1.202106e-010
1.164006e-009
1.793645e-009
1.790641e-009
1.195091e-009
-9.214121e-012
-1.467532e-009
-2.400890e-009
-2.246074e-009
-1.223365e-009
-7.262303e-011
7.169194e-010
1.230100e-009
1.709183e-009
2.074995e-009
2.033286e-009
1.538192e-009
9.287289e-010
5.692628e-010
4.991502e-010
5.182476e-010
5.178842e-010
5.984387e-010
8.781206e-010
1.306492e-009
1.720818e-009
2.025340e-009
2.249802e-009
2.451997e-009
2.625576e-009
2.721289e-009
2.722557e-009
2.667792e-009
2.602441e-009
2.529278e-009
2.415194e-009
2.240878e-009
2.029585e-009
1.815779e-009
1.593826e-009
1.325360e-009
1.010400e-009
7.221241e-010
5.336739e-010
4.254210e-010
3.221544e-010
2.341875e-010
2.909966e-010
5.734577e-010
9.594614e-010
1.233711e-009
1.346875e-009
1.444293e-009
1.572858e-009
1.473157e-009
8.252561e-010
-2.999414e-010
-1.380137e-009
-1.893945e-009
-1.729642e-009
-1.083585e-009
-1.268543e-010
9.854922e-010
1.816774e-009
1.725194e-009
5.359400e-010
-9.623053e-010
-1.540930e-009
-7.327290e-010
6.176114e-010
1.180002e-009
4.918807e-010
-6.406753e-010
-1.075051e-009
-4.991321e-010
4.005346e-010
7.808812e-010
4.601570e-010
-8.823842e-011
-3.530312e-010
-2.492205e-010
-3.170159e-011
7.730008e-011
8.070176e-011
5.937498e-010
-4.081729e-010
-1.114393e-009
-5.557176e-010
7.866971e-010
1.442394e-009
5.733960e-010
-9.700348e-010
-1.435207e-009
-1.073360e-010
1.715319e-009
1.960867e-009
3.779209e-011
-2.379277e-009
-2.991897e-009
-1.200450e-009
1.390519e-009
2.693739e-009
2.071857e-009
5.093602e-010
-7.386823e-010
-1.235605e-009
-1.190565e-009
-7.558082e-010
9.723966e-011
1.157079e-009
1.868949e-009
1.833543e-009
1.227899e-009
5.597981e-010
1.043944e-010
-2.362132e-010
-5.626200e-010
-7.030088e-010
-4.192855e-010
2.425048e-010
9.673247e-010
1.513792e-009
1.911822e-009
2.293337e-009
2.641407e-009
2.799322e-009
2.684745e-009
2.397054e-009
2.095880e-009
1.840427e-009
1.592476e-009
1.340378e-009
1.155978e-009
1.116470e-009
1.212004e-009
1.366322e-009
1.534538e-009
1.737041e-009
1.981263e-009
2.188213e-009
2.246291e-009
2.134927e-009
1.939852e-009
1.717755e-009
1.398204e-009
8.901982e-010
2.682926e-010
-2.425261e-010
-5.058067e-010
-6.134228e-010
-7.009160e-010
-6.816527e-010
-3.115711e-010
4.461428e-010
1.247834e-009
1.658890e-009
1.540992e-009
1.043308e-009
3.009979e-010
-6.210275e-010
-1.431264e-009
-1.533787e-009
-5.655433e-010
9.847780e-010
1.969151e-009
1.591118e-009
1.796935e-010
-1.138789e-009
-1.485296e-009
-8.717575e-010
5.798677e-011
6.704301e-010
6.956175e-010
2.324689e-010
-3.292645e-010
-4.849964e-010
-2.643100e-011
6.180249e-010
6.793242e-010
-9.833189e-011
-9.996473e-010
-1.001847e-009
4.701955e-011
1.133097e-009
-5.963457e-010
4.167687e-010
1.112295e-009
5.786000e-010
-6.968242e-010
-1.496223e-009
-1.177665e-009
-1.001420e-010
9.940389e-010
1.598075e-009
1.452512e-009
4.516297e-010
-1.049136e-009
-2.036051e-009
-1.524502e-009
2.915462e-010
1.870390e-009
1.700595e-009
-1.283141e-010
-1.963520e-009
-2.240674e-009
-9.015824e-010
8.736277e-010
2.024376e-009
2.390249e-009
2.299367e-009
1.884551e-009
1.081602e-009
7.415109e-011
-6.456834e-010
-7.365669e-010
-3.239291e-010
2.442189e-010
8.071166e-010
1.409086e-009
1.998304e-009
2.315977e-009
2.141419e-009
1.520333e-009
6.558429e-010
-3.579796e-010
-1.584086e-009
-3.040943e-009
-4.566427e-009
-5.935111e-009
-7.049251e-009
-7.944395e-009
-8.631463e-009
-9.015150e-009
-8.995438e-009
-8.592628e-009
-7.914632e-009
-7.021322e-009
-5.889737e-009
-4.533675e-009
-3.097265e-009
-1.767270e-009
-6.128803e-010
4.142308e-010
1.307570e-009
1.916043e-009
2.096677e-009
1.911567e-009
1.572031e-009
1.183862e-009
6.608674e-010
-4.435290e-011
-7.182861e-010
-1.021997e-009
-8.240269e-010
-2.723598e-010
4.607281e-010
1.317202e-009
2.121676e-009
2.386645e-009
1.652415e-009
1.045846e-010
-1.345204e-009
-1.782880e-009
-1.079334e-009
9.833219e-011
9.451724e-010
1.053109e-009
4.463785e-010
-5.359289e-010
-1.260142e-009
-1.051523e-009
1.397811e-010
1.360093e-009
1.384930e-009
8.409320e-011
-1.210466e-009
-1.083077e-009
2.811957e-010
1.214744e-009
5.387989e-010
-9.504801e-010
-1.392256e-009
-1.448876e-010
1.372057e-009
-2.197073e-009
7.515419e-010
2.950701e-009
1.787466e-009
-1.432124e-009
-3.222565e-009
-1.867693e-009
9.682543e-010
2.408838e-009
1.442064e-009
-4.850545e-010
-1.444143e-009
-9.114906e-010
2.944392e-010
1.230039e-009
1.469577e-009
8.819294e-010
-4.755577e-010
-1.998797e-009
-2.564350e-009
-1.459802e-009
7.164811e-010
2.433640e-009
2.637873e-009
1.625161e-009
4.759479e-010
-1.038460e-010
-1.668108e-010
2.751300e-011
5.076977e-010
1.391234e-009
2.458243e-009
3.203597e-009
3.280920e-009
2.704087e-009
1.594707e-009
-8.504856e-011
-2.442230e-009
-5.409803e-009
-8.744862e-009
-1.225390e-008
-1.589580e-008
-1.962890e-008
-2.325791e-008
-2.651462e-008
-2.924572e-008
-3.143404e-008
-3.304172e-008
-3.392423e-008
-3.394514e-008
-3.311950e-008
-3.157602e-008
-2.940188e-008
-2.660721e-008
-2.326271e-008
-1.959551e-008
-1.587908e-008
-1.225993e-008
-8.770380e-009
-5.505389e-009
-2.685310e-009
-4.854147e-010
1.125673e-009
2.284519e-009
3.003850e-009
3.163329e-009
2.748129e-009
1.974020e-009
1.098500e-009
2.182276e-010
-5.996958e-010
-1.055450e-009
-7.383226e-010
3.601005e-010
1.595179e-009
2.122470e-009
1.604139e-009
3.898254e-010
-8.966375e-010
-1.735826e-009
-1.743375e-009
-7.560306e-010
7.830415e-010
1.753791e-009
1.228562e-009
-3.877723e-010
-1.466991e-009
-8.248987e-010
8.314572e-010
1.572167e-009
4.754523e-010
-1.217956e-009
-1.539531e-009
-1.537147e-010
1.254750e-009
1.062607e-009
-3.332828e-010
-1.110916e-009
-3.639531e-010
8.082558e-010
-3.348283e-009
3.937588e-010
3.353919e-009
2.318438e-009
-1.162871e-009
-2.936937e-009
-1.151972e-009
1.829212e-009
2.436523e-009
3.110094e-011
-2.588493e-009
-2.547136e-009
1.374900e-011
2.456073e-009
2.666665e-009
9.378831e-010
-9.523327e-010
-1.728194e-009
-1.339602e-009
-2.898864e-010
9.650245e-010
1.899898e-009
1.870647e-009
6.965489e-010
-8.545047e-010
-1.576908e-009
-9.220243e-010
5.933036e-010
2.071671e-009