# vtk DataFile Version 3.0
vtk output
ASCII
DATASET STRUCTURED_POINTS
DIMENSIONS 100 100 1
SPACING 1 1 1
ORIGIN 0 0 0
POINT_DATA 10000
SCALARS SFBox_profile double
LOOKUP_TABLE default 
9.439920e-003
9.439920e-003
9.439920e-003
9.439920e-003
9.439920e-003
9.439920e-003
9.439920e-003
9.439919e-003
9.439920e-003
9.439921e-003
9.439921e-003
9.439921e-003
9.439920e-003
9.439919e-003
9.439919e-003
9.439920e-003
9.439920e-003
9.439920e-003
9.439920e-003
9.439920e-003
9.439920e-003
9.439921e-003
9.439921e-003
9.439920e-003
9.439920e-003
9.439920e-003
9.439920e-003
9.439920e-003
9.439920e-003
9.439920e-003
9.439920e-003
9.439921e-003
9.439921e-003
9.439922e-003
9.439922e-003
9.439922e-003
9.439923e-003
9.439924e-003
9.439924e-003
9.439924e-003
9.439925e-003
9.439925e-003
9.439926e-003
9.439926e-003
9.439926e-003
9.439926e-003
9.439927e-003
9.439927e-003
9.439927e-003
9.439927e-003
9.439927e-003
9.439927e-003
9.439927e-003
9.439927e-003
9.439927e-003
9.439927e-003
9.439927e-003
9.439926e-003
9.439926e-003
9.439925e-003
9.439925e-003
9.439925e-003
9.439925e-003
9.439924e-003
9.439923e-003
9.439923e-003
9.439923e-003
9.439922e-003
9.439922e-003
9.439921e-003
9.439921e-003
9.439921e-003
9.439920e-003
9.439920e-003
9.439920e-003
9.439920e-003
9.439920e-003
9.439920e-003
9.439920e-003
9.439920e-003
9.439920e-003
9.439920e-003
9.439921e-003
9.439920e-003
9.439920e-003
9.439919e-003
9.439919e-003
9.439920e-003
9.439920e-003
9.439920e-003
9.439920e-003
9.439920e-003
9.439920e-003
9.439920e-003
9.439920e-003
9.439920e-003
9.439920e-003
9.439920e-003
9.439920e-003
9.439920e-003
9.439920e-003
9.439920e-003
9.439920e-003
9.439920e-003
9.439920e-003
9.439920e-003
9.439920e-003
9.439919e-003
9.439920e-003
9.439921e-003
9.439921e-003
9.439921e-003
9.439920e-003
9.439919e-003
9.439919e-003
9.439920e-003
9.439920e-003
9.439920e-003
9.439920e-003
9.439920e-003
9.439920e-003
9.439921e-003
9.439921e-003
9.439920e-003
9.439920e-003
9.439920e-003
9.439920e-003
9.439920e-003
9.439920e-003
9.439920e-003
9.439920e-003
9.439921e-003
9.439921e-003
9.439922e-003
9.439922e-003
9.439922e-003
9.439923e-003
9.439924e-003
9.439924e-003
9.439924e-003
9.439925e-003
9.439925e-003
9.439926e-003
9.439926e-003
9.439926e-003
9.439926e-003
9.439927e-003
9.439927e-003
9.439927e-003
9.439927e-003
9.439927e-003
9.439927e-003
9.439927e-003
9.439927e-003
9.439927e-003
9.439927e-003
9.439927e-003
9.439926e-003
9.439926e-003
9.439925e-003
9.439925e-003
9.439925e-003
9.439925e-003
9.439924e-003
9.439923e-003
9.439923e-003
9.439923e-003
9.439922e-003
9.439922e-003
9.439921e-003
9.439921e-003
9.439921e-003
9.439920e-003
9.439920e-003
9.439920e-003
9.439920e-003
9.439920e-003
9.439920e-003
9.439920e-003
9.439920e-003
9.439920e-003
9.439920e-003
9.439921e-003
9.439920e-003
9.439920e-003
9.439919e-003
9.439919e-003
9.439920e-003
9.439920e-003
9.439920e-003
9.439920e-003
9.439920e-003
9.439920e-003
9.439920e-003
9.439920e-003
9.439920e-003
9.439920e-003
9.439920e-003
9.439920e-003
9.439920e-003
9.439920e-003
9.439920e-003
9.439920e-003
9.439920e-003
9.439920e-003
9.439920e-003
9.439920e-003
9.439920e-003
9.439920e-003
9.439920e-003
9.439920e-003
9.439920e-003
9.439920e-003
9.439920e-003
9.439920e-003
9.439920e-003
9.439920e-003
9.439920e-003
9.439920e-003
9.439920e-003
9.439920e-003
9.439920e-003
9.439920e-003
9.439920e-003
9.439920e-003
9.439921e-003
9.439921e-003
9.439921e-003
9.439922e-003
9.439922e-003
9.439922e-003
9.439922e-003
9.439923e-003
9.439923e-003
9.439923e-003
9.439924e-003
9.439924e-003
9.439925e-003
9.439925e-003
9.439925e-003
9.439925e-003
9.439926e-003
9.439927e-003
9.439927e-003
9.439927e-003
9.439927e-003
9.439928e-003
9.439928e-003
9.439928e-003
9.439928e-003
9.439928e-003
9.439928e-003
9.439929e-003
9.439928e-003
9.439928e-003
9.439928e-003
9.439928e-003
9.439927e-003
9.439927e-003
9.439926e-003
9.439926e-003
9.439926e-003
9.439925e-003
9.439925e-003
9.439924e-003
9.439924e-003
9.439923e-003
9.439923e-003
9.439923e-003
9.439922e-003
9.439922e-003
9.439922e-003
9.439922e-003
9.439921e-003
9.439921e-003
9.439921e-003
9.439921e-003
9.439920e-003
9.439920e-003
9.439920e-003
9.439920e-003
9.439920e-003
9.439920e-003
9.439920e-003
9.439920e-003
9.439920e-003
9.439920e-003
9.439920e-003
9.439920e-003
9.439920e-003
9.439920e-003
9.439920e-003
9.439920e-003
9.439920e-003
9.439920e-003
9.439920e-003
9.439920e-003
9.439920e-003
9.439920e-003
9.439920e-003
9.439920e-003
9.439920e-003
9.439920e-003
9.439920e-003
9.439920e-003
9.439920e-003
9.439921e-003
9.439921e-003
9.439920e-003
9.439919e-003
9.439919e-003
9.439919e-003
9.439920e-003
9.439921e-003
9.439921e-003
9.439921e-003
9.439920e-003
9.439920e-003
9.439920e-003
9.439920e-003
9.439920e-003
9.439920e-003
9.439920e-003
9.439920e-003
9.439921e-003
9.439921e-003
9.439922e-003
9.439922e-003
9.439923e-003
9.439924e-003
9.439924e-003
9.439925e-003
9.439925e-003
9.439926e-003
9.439926e-003
9.439927e-003
9.439927e-003
9.439928e-003
9.439928e-003
9.439929e-003
9.439930e-003
9.439930e-003
9.439931e-003
9.439931e-003
9.439932e-003
9.439932e-003
9.439933e-003
9.439933e-003
9.439934e-003
9.439934e-003
9.439934e-003
9.439934e-003
9.439934e-003
9.439934e-003
9.439933e-003
9.439933e-003
9.439933e-003
9.439932e-003
9.439932e-003
9.439931e-003
9.439930e-003
9.439930e-003
9.439929e-003
9.439928e-003
9.439927e-003
9.439927e-003
9.439926e-003
9.439925e-003
9.439925e-003
9.439924e-003
9.439924e-003
9.439923e-003
9.439923e-003
9.439922e-003
9.439922e-003
9.439921e-003
9.439921e-003
9.439921e-003
9.439920e-003
9.439920e-003
9.439920e-003
9.439920e-003
9.439920e-003
9.439920e-003
9.439920e-003
9.439921e-003
9.439921e-003
9.439920e-003
9.439920e-003
9.439920e-003
9.439920e-003
9.439920e-003
9.439920e-003
9.439920e-003
9.439920e-003
9.439920e-003
9.439920e-003
9.439920e-003
9.439920e-003
9.439920e-003
9.439920e-003
9.439920e-003
9.439920e-003
9.439920e-003
9.439920e-003
9.439920e-003
9.439920e-003
9.439921e-003
9.439920e-003
9.439920e-003
9.439919e-003
9.439919e-003
9.439920e-003
9.439921e-003
9.439921e-003
9.439920e-003
9.439920e-003
9.439920e-003
9.439920e-003
9.439921e-003
9.439921e-003
9.439921e-003
9.439921e-003
9.439921e-003
9.439922e-003
9.439922e-003
9.439923e-003
9.439923e-003
9.439924e-003
9.439925e-003
9.439926e-003
9.439927e-003
9.439928e-003
9.439930e-003
9.439931e-003
9.439932e-003
9.439933e-003
9.439934e-003
9.439936e-003
9.439937e-003
9.439938e-003
9.439939e-003
9.439940e-003
9.439940e-003
9.439941e-003
9.439942e-003
9.439942e-003
9.439942e-003
9.439943e-003
9.439943e-003
9.439943e-003
9.439943e-003
9.439943e-003
9.439942e-003
9.439942e-003
9.439942e-003
9.439941e-003
9.439941e-003
9.439940e-003
9.439939e-003
9.439938e-003
9.439937e-003
9.439936e-003
9.439935e-003
9.439934e-003
9.439933e-003
9.439931e-003
9.439930e-003
9.439929e-003
9.439927e-003
9.439926e-003
9.439925e-003
9.439924e-003
9.439923e-003
9.439923e-003
9.439922e-003
9.439921e-003
9.439921e-003
9.439921e-003
9.439921e-003
9.439921e-003
9.439920e-003
9.439920e-003
9.439920e-003
9.439920e-003
9.439920e-003
9.439920e-003
9.439920e-003
9.439920e-003
9.439920e-003
9.439920e-003
9.439920e-003
9.439920e-003
9.439920e-003
9.439920e-003
9.439920e-003
9.439920e-003
9.439920e-003
9.439920e-003
9.439920e-003
9.439920e-003
9.439920e-003
9.439921e-003
9.439920e-003
9.439919e-003
9.439919e-003
9.439919e-003
9.439920e-003
9.439921e-003
9.439921e-003
9.439920e-003
9.439920e-003
9.439920e-003
9.439920e-003
9.439920e-003
9.439919e-003
9.439919e-003
9.439920e-003
9.439921e-003
9.439922e-003
9.439922e-003
9.439922e-003
9.439922e-003
9.439923e-003
9.439924e-003
9.439924e-003
9.439925e-003
9.439926e-003
9.439927e-003
9.439929e-003
9.439931e-003
9.439932e-003
9.439934e-003
9.439936e-003
9.439938e-003
9.439940e-003
9.439941e-003
9.439943e-003
9.439944e-003
9.439945e-003
9.439946e-003
9.439947e-003
9.439948e-003
9.439948e-003
9.439948e-003
9.439949e-003
9.439948e-003
9.439948e-003
9.439948e-003
9.439948e-003
9.439948e-003
9.439948e-003
9.439947e-003
9.439947e-003
9.439947e-003
9.439947e-003
9.439947e-003
9.439946e-003
9.439946e-003
9.439946e-003
9.439945e-003
9.439944e-003
9.439943e-003
9.439942e-003
9.439941e-003
9.439940e-003
9.439938e-003
9.439936e-003
9.439934e-003
9.439933e-003
9.439931e-003
9.439929e-003
9.439927e-003
9.439925e-003
9.439925e-003
9.439924e-003
9.439923e-003
9.439922e-003
9.439921e-003
9.439922e-003
9.439922e-003
9.439921e-003
9.439920e-003
9.439920e-003
9.439920e-003
9.439920e-003
9.439920e-003
9.439920e-003
9.439920e-003
9.439920e-003
9.439920e-003
9.439921e-003
9.439920e-003
9.439920e-003
9.439920e-003
9.439920e-003
9.439920e-003
9.439920e-003
9.439920e-003
9.439920e-003
9.439920e-003
9.439920e-003
9.439921e-003
9.439921e-003
9.439920e-003
9.439919e-003
9.439919e-003
9.439920e-003
9.439920e-003
9.439921e-003
9.439921e-003
9.439920e-003
9.439920e-003
9.439920e-003
9.439920e-003
9.439920e-003
9.439920e-003
9.439921e-003
9.439921e-003
9.439922e-003
9.439922e-003
9.439923e-003
9.439924e-003
9.439925e-003
9.439927e-003
9.439928e-003
9.439930e-003
9.439932e-003
9.439934e-003
9.439937e-003
9.439939e-003
9.439940e-003
9.439942e-003
9.439944e-003
9.439946e-003
9.439947e-003
9.439947e-003
9.439947e-003
9.439947e-003
9.439946e-003
9.439945e-003
9.439944e-003
9.439943e-003
9.439941e-003
9.439940e-003
9.439938e-003
9.439936e-003
9.439934e-003
9.439933e-003
9.439932e-003
9.439931e-003
9.439930e-003
9.439930e-003
9.439930e-003
9.439930e-003
9.439931e-003
9.439932e-003
9.439933e-003
9.439935e-003
9.439937e-003
9.439938e-003
9.439940e-003
9.439941e-003
9.439942e-003
9.439943e-003
9.439943e-003
9.439943e-003
9.439942e-003
9.439941e-003
9.439939e-003
9.439937e-003
9.439935e-003
9.439933e-003
9.439931e-003
9.439929e-003
9.439927e-003
9.439925e-003
9.439924e-003
9.439923e-003
9.439922e-003
9.439922e-003
9.439921e-003
9.439921e-003
9.439920e-003
9.439920e-003
9.439920e-003
9.439920e-003
9.439920e-003
9.439920e-003
9.439920e-003
9.439921e-003
9.439920e-003
9.439920e-003
9.439920e-003
9.439920e-003
9.439920e-003
9.439920e-003
9.439920e-003
9.439920e-003
9.439920e-003
9.439919e-003
9.439920e-003
9.439920e-003
9.439921e-003
9.439921e-003
9.439920e-003
9.439920e-003
9.439919e-003
9.439920e-003
9.439920e-003
9.439920e-003
9.439920e-003
9.439920e-003
9.439920e-003
9.439921e-003
9.439921e-003
9.439921e-003
9.439921e-003
9.439922e-003
9.439922e-003
9.439923e-003
9.439925e-003
9.439927e-003
9.439929e-003
9.439932e-003
9.439935e-003
9.439937e-003
9.439940e-003
9.439943e-003
9.439945e-003
9.439947e-003
9.439947e-003
9.439947e-003
9.439946e-003
9.439944e-003
9.439941e-003
9.439936e-003
9.439931e-003
9.439924e-003
9.439918e-003
9.439910e-003
9.439902e-003
9.439894e-003
9.439886e-003
9.439878e-003
9.439871e-003
9.439863e-003
9.439857e-003
9.439851e-003
9.439847e-003
9.439843e-003
9.439841e-003
9.439840e-003
9.439841e-003
9.439844e-003
9.439848e-003
9.439853e-003
9.439860e-003
9.439868e-003
9.439877e-003
9.439886e-003
9.439895e-003
9.439905e-003
9.439914e-003
9.439922e-003
9.439929e-003
9.439934e-003
9.439938e-003
9.439941e-003
9.439943e-003
9.439943e-003
9.439941e-003
9.439940e-003
9.439937e-003
9.439935e-003
9.439932e-003
9.439930e-003
9.439927e-003
9.439925e-003
9.439924e-003
9.439922e-003
9.439922e-003
9.439921e-003
9.439921e-003
9.439921e-003
9.439920e-003
9.439920e-003
9.439920e-003
9.439920e-003
9.439920e-003
9.439920e-003
9.439920e-003
9.439920e-003
9.439920e-003
9.439920e-003
9.439920e-003
9.439920e-003
9.439920e-003
9.439920e-003
9.439920e-003
9.439920e-003
9.439919e-003
9.439919e-003
9.439920e-003
9.439921e-003
9.439921e-003
9.439921e-003
9.439920e-003
9.439919e-003
9.439919e-003
9.439920e-003
9.439920e-003
9.439920e-003
9.439921e-003
9.439921e-003
9.439922e-003
9.439922e-003
9.439923e-003
9.439923e-003
9.439925e-003
9.439927e-003
9.439929e-003
9.439932e-003
9.439935e-003
9.439939e-003
9.439942e-003
9.439945e-003
9.439947e-003
9.439947e-003
9.439947e-003
9.439944e-003
9.439938e-003
9.439930e-003
9.439919e-003
9.439905e-003
9.439888e-003
9.439868e-003
9.439846e-003
9.439822e-003
9.439797e-003
9.439771e-003
9.439743e-003
9.439716e-003
9.439690e-003
9.439664e-003
9.439640e-003
9.439618e-003
9.439598e-003
9.439582e-003
9.439569e-003
9.439559e-003
9.439553e-003
9.439552e-003
9.439556e-003
9.439565e-003
9.439578e-003
9.439595e-003
9.439617e-003
9.439643e-003
9.439672e-003
9.439703e-003
9.439735e-003
9.439767e-003
9.439799e-003
9.439829e-003
9.439856e-003
9.439880e-003
9.439900e-003
9.439916e-003
9.439927e-003
9.439935e-003
9.439940e-003
9.439942e-003
9.439942e-003
9.439941e-003
9.439938e-003
9.439935e-003
9.439933e-003
9.439930e-003
9.439927e-003
9.439925e-003
9.439923e-003
9.439922e-003
9.439922e-003
9.439921e-003
9.439921e-003
9.439921e-003
9.439921e-003
9.439920e-003
9.439920e-003
9.439920e-003
9.439919e-003
9.439920e-003
9.439920e-003
9.439921e-003
9.439920e-003
9.439920e-003
9.439920e-003
9.439920e-003
9.439920e-003
9.439921e-003
9.439920e-003
9.439919e-003
9.439919e-003
9.439920e-003
9.439921e-003
9.439921e-003
9.439920e-003
9.439919e-003
9.439919e-003
9.439920e-003
9.439920e-003
9.439921e-003
9.439921e-003
9.439921e-003
9.439922e-003
9.439924e-003
9.439925e-003
9.439927e-003
9.439929e-003
9.439933e-003
9.439937e-003
9.439940e-003
9.439943e-003
9.439946e-003
9.439947e-003
9.439947e-003
9.439943e-003
9.439935e-003
9.439922e-003
9.439903e-003
9.439878e-003
9.439844e-003
9.439803e-003
9.439755e-003
9.439700e-003
9.439638e-003
9.439571e-003
9.439500e-003
9.439426e-003
9.439350e-003
9.439273e-003
9.439197e-003
9.439124e-003
9.439055e-003
9.438989e-003
9.438930e-003
9.438878e-003
9.438834e-003
9.438800e-003
9.438775e-003
9.438762e-003
9.438760e-003
9.438771e-003
9.438795e-003
9.438831e-003
9.438880e-003
9.438940e-003
9.439011e-003
9.439090e-003
9.439177e-003
9.439267e-003
9.439359e-003
9.439450e-003
9.439538e-003
9.439619e-003
9.439693e-003
9.439757e-003
9.439811e-003
9.439854e-003
9.439887e-003
9.439911e-003
9.439927e-003
9.439937e-003
9.439941e-003
9.439942e-003
9.439941e-003
9.439939e-003
9.439936e-003
9.439932e-003
9.439929e-003
9.439926e-003
9.439925e-003
9.439923e-003
9.439922e-003
9.439921e-003
9.439921e-003
9.439921e-003
9.439921e-003
9.439920e-003
9.439920e-003
9.439919e-003
9.439920e-003
9.439920e-003
9.439921e-003
9.439920e-003
9.439920e-003
9.439920e-003
9.439920e-003
9.439920e-003
9.439922e-003
9.439921e-003
9.439919e-003
9.439919e-003
9.439919e-003
9.439920e-003
9.439921e-003
9.439920e-003
9.439920e-003
9.439920e-003
9.439921e-003
9.439921e-003
9.439921e-003
9.439921e-003
9.439922e-003
9.439923e-003
9.439926e-003
9.439929e-003
9.439932e-003
9.439936e-003
9.439941e-003
9.439945e-003
9.439948e-003
9.439949e-003
9.439947e-003
9.439941e-003
9.439927e-003
9.439904e-003
9.439869e-003
9.439820e-003
9.439756e-003
9.439674e-003
9.439573e-003
9.439454e-003
9.439317e-003
9.439165e-003
9.438998e-003
9.438819e-003
9.438632e-003
9.438440e-003
9.438245e-003
9.438051e-003
9.437862e-003
9.437679e-003
9.437507e-003
9.437347e-003
9.437203e-003
9.437076e-003
9.436971e-003
9.436888e-003
9.436830e-003
9.436799e-003
9.436797e-003
9.436826e-003
9.436885e-003
9.436975e-003
9.437096e-003
9.437245e-003
9.437420e-003
9.437618e-003
9.437834e-003
9.438062e-003
9.438296e-003
9.438530e-003
9.438757e-003
9.438972e-003
9.439170e-003
9.439345e-003
9.439497e-003
9.439622e-003
9.439723e-003
9.439800e-003
9.439857e-003
9.439896e-003
9.439920e-003
9.439934e-003
9.439941e-003
9.439943e-003
9.439941e-003
9.439938e-003
9.439935e-003
9.439931e-003
9.439928e-003
9.439926e-003
9.439923e-003
9.439922e-003
9.439921e-003
9.439921e-003
9.439921e-003
9.439920e-003
9.439920e-003
9.439920e-003
9.439920e-003
9.439920e-003
9.439920e-003
9.439920e-003
9.439920e-003
9.439920e-003
9.439920e-003
9.439920e-003
9.439921e-003
9.439921e-003
9.439921e-003
9.439920e-003
9.439919e-003
9.439919e-003
9.439920e-003
9.439920e-003
9.439921e-003
9.439921e-003
9.439921e-003
9.439922e-003
9.439922e-003
9.439923e-003
9.439924e-003
9.439927e-003
9.439930e-003
9.439934e-003
9.439939e-003
9.439943e-003
9.439947e-003
9.439950e-003
9.439948e-003
9.439940e-003
9.439923e-003
9.439890e-003
9.439839e-003
9.439762e-003
9.439655e-003
9.439513e-003
9.439333e-003
9.439111e-003
9.438846e-003
9.438540e-003
9.438194e-003
9.437813e-003
9.437403e-003
9.436970e-003
9.436521e-003
9.436063e-003
9.435604e-003
9.435151e-003
9.434712e-003
9.434291e-003
9.433896e-003
9.433532e-003
9.433205e-003
9.432920e-003
9.432683e-003
9.432498e-003
9.432369e-003
9.432303e-003
9.432301e-003
9.432367e-003
9.432503e-003
9.432709e-003
9.432985e-003
9.433327e-003
9.433729e-003
9.434185e-003
9.434684e-003
9.435216e-003
9.435766e-003
9.436320e-003
9.436863e-003
9.437382e-003
9.437865e-003
9.438301e-003
9.438682e-003
9.439006e-003
9.439271e-003
9.439482e-003
9.439642e-003
9.439758e-003
9.439837e-003
9.439889e-003
9.439920e-003
9.439936e-003
9.439942e-003
9.439943e-003
9.439940e-003
9.439937e-003
9.439933e-003
9.439929e-003
9.439926e-003
9.439924e-003
9.439922e-003
9.439921e-003
9.439921e-003
9.439921e-003
9.439921e-003
9.439921e-003
9.439920e-003
9.439920e-003
9.439920e-003
9.439920e-003
9.439920e-003
9.439920e-003
9.439920e-003
9.439920e-003
9.439918e-003
9.439920e-003
9.439921e-003
9.439921e-003
9.439920e-003
9.439919e-003
9.439919e-003
9.439920e-003
9.439921e-003
9.439921e-003
9.439921e-003
9.439922e-003
9.439924e-003
9.439926e-003
9.439929e-003
9.439932e-003
9.439937e-003
9.439942e-003
9.439947e-003
9.439950e-003
9.439950e-003
9.439943e-003
9.439924e-003
9.439887e-003
9.439822e-003
9.439720e-003
9.439570e-003
9.439360e-003
9.439078e-003
9.438716e-003
9.438265e-003
9.437721e-003
9.437084e-003
9.436358e-003
9.435550e-003
9.434671e-003
9.433735e-003
9.432756e-003
9.431751e-003
9.430736e-003
9.429727e-003
9.428739e-003
9.427786e-003
9.426881e-003
9.426036e-003
9.425261e-003
9.424569e-003
9.423969e-003
9.423471e-003
9.423084e-003
9.422819e-003
9.422683e-003
9.422683e-003
9.422827e-003
9.423118e-003
9.423557e-003
9.424145e-003
9.424874e-003
9.425736e-003
9.426716e-003
9.427796e-003
9.428952e-003
9.430157e-003
9.431380e-003
9.432592e-003
9.433761e-003
9.434859e-003
9.435862e-003
9.436752e-003
9.437519e-003
9.438159e-003
9.438675e-003
9.439077e-003
9.439378e-003
9.439594e-003
9.439741e-003
9.439837e-003
9.439894e-003
9.439924e-003
9.439938e-003
9.439943e-003
9.439942e-003
9.439938e-003
9.439934e-003
9.439930e-003
9.439927e-003
9.439925e-003
9.439923e-003
9.439922e-003
9.439921e-003
9.439921e-003
9.439921e-003
9.439920e-003
9.439920e-003
9.439919e-003
9.439920e-003
9.439920e-003
9.439920e-003
9.439920e-003
9.439920e-003
9.439917e-003
9.439919e-003
9.439921e-003
9.439922e-003
9.439921e-003
9.439920e-003
9.439920e-003
9.439921e-003
9.439921e-003
9.439921e-003
9.439921e-003
9.439923e-003
9.439926e-003
9.439930e-003
9.439934e-003
9.439939e-003
9.439945e-003
9.439950e-003
9.439952e-003
9.439949e-003
9.439933e-003
9.439898e-003
9.439830e-003
9.439715e-003
9.439533e-003
9.439263e-003
9.438881e-003
9.438363e-003
9.437686e-003
9.436832e-003
9.435789e-003
9.434550e-003
9.433121e-003
9.431512e-003
9.429745e-003
9.427846e-003
9.425846e-003
9.423779e-003
9.421679e-003
9.419579e-003
9.417512e-003
9.415505e-003
9.413586e-003
9.411777e-003
9.410100e-003
9.408574e-003
9.407219e-003
9.406052e-003
9.405089e-003
9.404347e-003
9.403842e-003
9.403588e-003
9.403601e-003
9.403890e-003
9.404465e-003
9.405331e-003
9.406486e-003
9.407925e-003
9.409631e-003
9.411583e-003
9.413747e-003
9.416083e-003
9.418539e-003
9.421059e-003
9.423580e-003
9.426040e-003
9.428379e-003
9.430542e-003
9.432488e-003
9.434187e-003
9.435626e-003
9.436806e-003
9.437740e-003
9.438455e-003
9.438980e-003
9.439351e-003
9.439601e-003
9.439760e-003
9.439855e-003
9.439908e-003
9.439933e-003
9.439942e-003
9.439943e-003
9.439939e-003
9.439935e-003
9.439932e-003
9.439928e-003
9.439925e-003
9.439923e-003
9.439921e-003
9.439921e-003
9.439921e-003
9.439920e-003
9.439920e-003
9.439920e-003
9.439920e-003
9.439920e-003
9.439920e-003
9.439920e-003
9.439919e-003
9.439918e-003
9.439919e-003
9.439920e-003
9.439921e-003
9.439920e-003
9.439920e-003
9.439921e-003
9.439921e-003
9.439922e-003
9.439922e-003
9.439923e-003
9.439926e-003
9.439930e-003
9.439935e-003
9.439941e-003
9.439947e-003
9.439952e-003
9.439953e-003
9.439945e-003
9.439919e-003
9.439860e-003
9.439750e-003
9.439563e-003
9.439265e-003
9.438815e-003
9.438169e-003
9.437278e-003
9.436095e-003
9.434578e-003
9.432695e-003
9.430430e-003
9.427784e-003
9.424775e-003
9.421440e-003
9.417830e-003
9.414008e-003
9.410043e-003
9.406003e-003
9.401958e-003
9.397969e-003
9.394095e-003
9.390384e-003
9.386880e-003
9.383618e-003
9.380630e-003
9.377943e-003
9.375582e-003
9.373570e-003
9.371929e-003
9.370680e-003
9.369845e-003
9.369445e-003
9.369501e-003
9.370031e-003
9.371051e-003
9.372573e-003
9.374602e-003
9.377135e-003
9.380158e-003
9.383645e-003
9.387553e-003
9.391823e-003
9.396375e-003
9.401116e-003
9.405936e-003
9.410717e-003
9.415338e-003
9.419685e-003
9.423661e-003
9.427192e-003
9.430230e-003
9.432761e-003
9.434799e-003
9.436384e-003
9.437573e-003
9.438430e-003
9.439023e-003
9.439415e-003
9.439662e-003
9.439807e-003
9.439887e-003
9.439926e-003
9.439941e-003
9.439943e-003
9.439941e-003
9.439936e-003
9.439932e-003
9.439928e-003
9.439925e-003
9.439923e-003
9.439922e-003
9.439921e-003
9.439921e-003
9.439920e-003
9.439920e-003
9.439920e-003
9.439920e-003
9.439920e-003
9.439920e-003
9.439920e-003
9.439922e-003
9.439920e-003
9.439919e-003
9.439919e-003
9.439920e-003
9.439920e-003
9.439921e-003
9.439922e-003
9.439923e-003
9.439924e-003
9.439927e-003
9.439931e-003
9.439936e-003
9.439942e-003
9.439948e-003
9.439953e-003
9.439952e-003
9.439939e-003
9.439900e-003
9.439813e-003
9.439650e-003
9.439368e-003
9.438912e-003
9.438214e-003
9.437190e-003
9.435751e-003
9.433806e-003
9.431267e-003
9.428069e-003
9.424168e-003
9.419560e-003
9.414277e-003
9.408391e-003
9.402004e-003
9.395243e-003
9.388248e-003
9.381162e-003
9.374119e-003
9.367241e-003
9.360629e-003
9.354369e-003
9.348527e-003
9.343150e-003
9.338275e-003
9.333925e-003
9.330116e-003
9.326856e-003
9.324154e-003
9.322016e-003
9.320448e-003
9.319459e-003
9.319062e-003
9.319271e-003
9.320104e-003
9.321586e-003
9.323741e-003
9.326597e-003
9.330177e-003
9.334503e-003
9.339582e-003
9.345404e-003
9.351931e-003
9.359092e-003
9.366777e-003
9.374832e-003
9.383070e-003
9.391274e-003
9.399215e-003
9.406676e-003
9.413467e-003
9.419448e-003
9.424538e-003
9.428719e-003
9.432031e-003
9.434559e-003
9.436417e-003
9.437729e-003
9.438617e-003
9.439192e-003
9.439547e-003
9.439753e-003
9.439864e-003
9.439917e-003
9.439938e-003
9.439943e-003
9.439941e-003
9.439936e-003
9.439932e-003
9.439928e-003
9.439925e-003
9.439923e-003
9.439922e-003
9.439921e-003
9.439921e-003
9.439921e-003
9.439920e-003
9.439920e-003
9.439920e-003
9.439920e-003
9.439920e-003
9.439924e-003
9.439921e-003
9.439919e-003
9.439919e-003
9.439920e-003
9.439921e-003
9.439921e-003
9.439922e-003
9.439924e-003
9.439927e-003
9.439932e-003
9.439937e-003
9.439943e-003
9.439950e-003
9.439955e-003
9.439953e-003
9.439933e-003
9.439879e-003
9.439761e-003
9.439536e-003
9.439141e-003
9.438489e-003
9.437470e-003
9.435945e-003
9.433756e-003
9.430738e-003
9.426732e-003
9.421607e-003
9.415284e-003
9.407754e-003
9.399091e-003
9.389455e-003
9.379077e-003
9.368237e-003
9.357242e-003
9.346392e-003
9.335958e-003
9.326167e-003
9.317188e-003
9.309137e-003
9.302078e-003
9.296031e-003
9.290981e-003
9.286880e-003
9.283663e-003
9.281247e-003
9.279540e-003
9.278446e-003
9.277868e-003
9.277718e-003
9.277913e-003
9.278387e-003
9.279093e-003
9.280008e-003
9.281142e-003
9.282540e-003
9.284291e-003
9.286522e-003
9.289398e-003
9.293112e-003
9.297858e-003
9.303811e-003
9.311096e-003
9.319753e-003
9.329717e-003
9.340794e-003
9.352675e-003
9.364948e-003
9.377148e-003
9.388805e-003
9.399506e-003
9.408940e-003
9.416926e-003
9.423417e-003
9.428484e-003
9.432283e-003
9.435018e-003
9.436907e-003
9.438158e-003
9.438950e-003
9.439427e-003
9.439698e-003
9.439841e-003
9.439909e-003
9.439937e-003
9.439943e-003
9.439941e-003
9.439936e-003
9.439932e-003
9.439928e-003
9.439925e-003
9.439923e-003
9.439921e-003
9.439921e-003
9.439921e-003
9.439920e-003
9.439920e-003
9.439919e-003
9.439920e-003
9.439921e-003
9.439923e-003
9.439920e-003
9.439919e-003
9.439919e-003
9.439921e-003
9.439922e-003
9.439922e-003
9.439923e-003
9.439926e-003
9.439931e-003
9.439937e-003
9.439944e-003
9.439951e-003
9.439956e-003
9.439953e-003
9.439929e-003
9.439862e-003
9.439713e-003
9.439423e-003
9.438904e-003
9.438030e-003
9.436629e-003
9.434485e-003
9.431343e-003
9.426923e-003
9.420951e-003
9.413205e-003
9.403561e-003
9.392048e-003
9.378876e-003
9.364453e-003
9.349361e-003
9.334295e-003
9.319995e-003
9.307163e-003
9.296391e-003
9.288114e-003
9.282589e-003
9.279897e-003
9.279966e-003
9.282601e-003
9.287517e-003
9.294359e-003
9.302727e-003
9.312189e-003
9.322292e-003
9.332569e-003
9.342553e-003
9.351786e-003
9.359825e-003
9.366259e-003
9.370721e-003
9.372910e-003
9.372612e-003
9.369730e-003
9.364315e-003
9.356593e-003
9.346986e-003
9.336115e-003
9.324786e-003
9.313948e-003
9.304615e-003
9.297776e-003
9.294277e-003
9.294712e-003
9.299317e-003
9.307922e-003
9.319951e-003
9.334492e-003
9.350429e-003
9.366605e-003
9.381982e-003
9.395772e-003
9.407493e-003
9.416970e-003
9.424278e-003
9.429664e-003
9.433464e-003
9.436031e-003
9.437691e-003
9.438715e-003
9.439317e-003
9.439651e-003
9.439824e-003
9.439904e-003
9.439936e-003
9.439943e-003
9.439941e-003
9.439937e-003
9.439932e-003
9.439928e-003
9.439924e-003
9.439922e-003
9.439921e-003
9.439921e-003
9.439921e-003
9.439920e-003
9.439920e-003
9.439920e-003
9.439921e-003
9.439920e-003
9.439919e-003
9.439919e-003
9.439921e-003
9.439922e-003
9.439923e-003
9.439924e-003
9.439925e-003
9.439929e-003
9.439936e-003
9.439944e-003
9.439951e-003
9.439956e-003
9.439953e-003
9.439927e-003
9.439850e-003
9.439676e-003
9.439327e-003
9.438688e-003
9.437582e-003
9.435768e-003
9.432925e-003
9.428662e-003
9.422540e-003
9.414126e-003
9.403076e-003
9.389250e-003
9.372834e-003
9.354444e-003
9.335173e-003
9.316554e-003
9.300429e-003
9.288743e-003
9.283308e-003
9.285586e-003
9.296533e-003
9.316530e-003
9.345396e-003
9.382469e-003
9.426727e-003
9.476898e-003
9.531571e-003
9.589258e-003
9.648442e-003
9.707589e-003
9.765170e-003
9.819660e-003
9.869553e-003
9.913371e-003
9.949686e-003
9.977143e-003
9.994503e-003
1.000069e-002
9.994865e-003
9.976526e-003
9.945594e-003
9.902531e-003
9.848424e-003
9.785050e-003
9.714875e-003
9.640981e-003
9.566909e-003
9.496410e-003
9.433115e-003
9.380162e-003
9.339827e-003
9.313229e-003
9.300177e-003
9.299228e-003
9.307943e-003
9.323316e-003
9.342260e-003
9.362052e-003
9.380634e-003
9.396719e-003
9.409743e-003
9.419694e-003
9.426911e-003
9.431901e-003
9.435194e-003
9.437270e-003
9.438520e-003
9.439235e-003
9.439621e-003
9.439815e-003
9.439903e-003
9.439936e-003
9.439943e-003
9.439941e-003
9.439936e-003
9.439931e-003
9.439926e-003
9.439924e-003
9.439922e-003
9.439922e-003
9.439921e-003
9.439920e-003
9.439920e-003
9.439920e-003
9.439920e-003
9.439918e-003
9.439919e-003
9.439920e-003
9.439922e-003
9.439923e-003
9.439924e-003
9.439926e-003
9.439930e-003
9.439935e-003
9.439943e-003
9.439951e-003
9.439957e-003
9.439954e-003
9.439928e-003
9.439846e-003
9.439656e-003
9.439263e-003
9.438521e-003
9.437205e-003
9.434988e-003
9.431425e-003
9.425955e-003
9.417930e-003
9.406710e-003
9.391816e-003
9.373174e-003
9.351413e-003
9.328150e-003
9.306182e-003
9.289463e-003
9.282824e-003
9.291461e-003
9.320261e-003
9.373150e-003
9.452585e-003
9.559290e-003
9.692269e-003
9.849041e-003
1.002602e-002
1.021893e-002
1.042318e-002
1.063415e-002
1.084730e-002
1.105826e-002
1.126284e-002
1.145695e-002
1.163662e-002
1.179798e-002
1.193723e-002
1.205068e-002
1.213477e-002
1.218618e-002
1.220190e-002
1.217946e-002
1.211711e-002
1.201413e-002
1.187111e-002
1.169028e-002
1.147571e-002
1.123348e-002
1.097163e-002
1.069991e-002
1.042924e-002
1.017098e-002
9.935902e-003
9.733088e-003
9.568871e-003
9.446063e-003
9.363683e-003
9.317298e-003
9.299947e-003
9.303437e-003
9.319688e-003
9.341826e-003
9.364790e-003
9.385452e-003
9.402339e-003
9.415158e-003
9.424312e-003
9.430509e-003
9.434502e-003
9.436955e-003
9.438393e-003
9.439192e-003
9.439612e-003
9.439816e-003