# vtk DataFile Version 3.0
vtk output
ASCII
DATASET STRUCTURED_POINTS
DIMENSIONS 100 100 1
SPACING 1 1 1
ORIGIN 0 0 0
POINT_DATA 10000
SCALARS SFBox_profile double
LOOKUP_TABLE default 
0.000000e+000
0.000000e+000
0.000000e+000
0.000000e+000
0.000000e+000
0.000000e+000
0.000000e+000
0.000000e+000
0.000000e+000
0.000000e+000
0.000000e+000
0.000000e+000
0.000000e+000
0.000000e+000
0.000000e+000
0.000000e+000
0.000000e+000
0.000000e+000
0.000000e+000
0.000000e+000
0.000000e+000
0.000000e+000
0.000000e+000
0.000000e+000
0.000000e+000
0.000000e+000
0.000000e+000
0.000000e+000
0.000000e+000
0.000000e+000
0.000000e+000
0.000000e+000
0.000000e+000
0.000000e+000
0.000000e+000
0.000000e+000
0.000000e+000
0.000000e+000
0.000000e+000
0.000000e+000
0.000000e+000
0.000000e+000
0.000000e+000
0.000000e+000
0.000000e+000
0.000000e+000
0.000000e+000
0.000000e+000
0.000000e+000
0.000000e+000
0.000000e+000
0.000000e+000
0.000000e+000
0.000000e+000
0.000000e+000
0.000000e+000
0.000000e+000
0.000000e+000
0.000000e+000
0.000000e+000
0.000000e+000
0.000000e+000
0.000000e+000
0.000000e+000
0.000000e+000
0.000000e+000
0.000000e+000
0.000000e+000
0.000000e+000
0.000000e+000
0.000000e+000
0.000000e+000
0.000000e+000
0.000000e+000
0.000000e+000
0.000000e+000
0.000000e+000
0.000000e+000
0.000000e+000
0.000000e+000
0.000000e+000
0.000000e+000
0.000000e+000
0.000000e+000
0.000000e+000
0.000000e+000
0.000000e+000
0.000000e+000
0.000000e+000
0.000000e+000
0.000000e+000
0.000000e+000
0.000000e+000
0.000000e+000
0.000000e+000
0.000000e+000
0.000000e+000
0.000000e+000
0.000000e+000
0.000000e+000
2.310735e-009
2.126808e-009
1.624201e-009
9.320006e-010
6.787435e-010
1.610498e-009
3.830289e-009
6.413304e-009
7.870285e-009
7.075199e-009
3.715182e-009
-2.321523e-009
-1.223368e-008
-2.924137e-008
-5.844440e-008
-1.058246e-007
-1.772662e-007
-2.782426e-007
-4.140112e-007
-5.896084e-007
-8.091575e-007
-1.074715e-006
-1.385367e-006
-1.737119e-006
-2.123546e-006
-2.536725e-006
-2.968022e-006
-3.408631e-006
-3.850049e-006
-4.284594e-006
-4.705916e-006
-5.109287e-006
-5.491601e-006
-5.851136e-006
-6.187246e-006
-6.500089e-006
-6.790410e-006
-7.059330e-006
-7.308132e-006
-7.538063e-006
-7.750202e-006
-7.945406e-006
-8.124317e-006
-8.287401e-006
-8.434985e-006
-8.567290e-006
-8.684478e-006
-8.786699e-006
-8.874151e-006
-8.947116e-006
-9.005977e-006
-9.051215e-006
-9.083415e-006
-9.103262e-006
-9.111552e-006
-9.109179e-006
-9.097116e-006
-9.076386e-006
-9.048007e-006
-9.012914e-006
-8.971822e-006
-8.925045e-006
-8.872259e-006
-8.812237e-006
-8.742563e-006
-8.659364e-006
-8.557120e-006
-8.428633e-006
-8.265239e-006
-8.057325e-006
-7.795184e-006
-7.470169e-006
-7.076058e-006
-6.610494e-006
-6.076258e-006
-5.482118e-006
-4.842976e-006
-4.179083e-006
-3.514274e-006
-2.873408e-006
-2.279439e-006
-1.750711e-006
-1.299064e-006
-9.291067e-007
-6.387167e-007
-4.204933e-007
-2.637104e-007
-1.562816e-007
-8.636868e-008
-4.345258e-008
-1.886747e-008
-5.927490e-009
1.889795e-010
2.674424e-009
3.399435e-009
3.286652e-009
2.722532e-009
1.920324e-009
1.127211e-009
6.305313e-010
-4.029928e-010
6.434187e-010
1.926772e-009
2.608719e-009
2.612929e-009
2.643777e-009
3.401174e-009
4.723999e-009
5.417780e-009
3.797227e-009
-1.761470e-009
-1.297564e-008
-3.252533e-008
-6.492653e-008
-1.166645e-007
-1.954746e-007
-3.092897e-007
-4.654073e-007
-6.699303e-007
-9.271028e-007
-1.238284e-006
-1.600829e-006
-2.007529e-006
-2.447084e-006
-2.905510e-006
-3.367929e-006
-3.820135e-006
-4.249674e-006
-4.646502e-006
-5.003348e-006
-5.315830e-006
-5.582274e-006
-5.803232e-006
-5.980823e-006
-6.118065e-006
-6.218333e-006
-6.284937e-006
-6.320832e-006
-6.328405e-006
-6.309374e-006
-6.264809e-006
-6.195268e-006
-6.101014e-006
-5.982256e-006
-5.839372e-006
-5.673083e-006
-5.484587e-006
-5.275642e-006
-5.048629e-006
-4.806556e-006
-4.553042e-006
-4.292257e-006
-4.028885e-006
-3.768086e-006
-3.515489e-006
-3.277168e-006
-3.059625e-006
-2.869738e-006
-2.714675e-006
-2.601734e-006
-2.538064e-006
-2.530255e-006
-2.583789e-006
-2.702340e-006
-2.886972e-006
-3.135265e-006
-3.440467e-006
-3.790810e-006
-4.169165e-006
-4.553182e-006
-4.916103e-006
-5.228316e-006
-5.459701e-006
-5.582664e-006
-5.575605e-006
-5.426335e-006
-5.134812e-006
-4.714462e-006
-4.191480e-006
-3.601909e-006
-2.986806e-006
-2.386455e-006
-1.834884e-006
-1.355968e-006
-9.618686e-007
-6.538475e-007
-4.248330e-007
-2.627326e-007
-1.535590e-007
-8.377223e-008
-4.166063e-008
-1.789870e-008
-5.558467e-009
1.667840e-010
2.360498e-009
2.823859e-009
2.514701e-009
1.928847e-009
1.361320e-009
1.018728e-009
-3.567584e-009
-1.078830e-009
2.360529e-009
4.803476e-009
5.254943e-009
4.192896e-009
2.857879e-009
1.876685e-009
2.247299e-010
-4.884828e-009
-1.745674e-008
-4.230521e-008
-8.531313e-008
-1.541398e-007
-2.586175e-007
-4.101873e-007
-6.202890e-007
-8.981088e-007
-1.248184e-006
-1.668249e-006
-2.147673e-006
-2.667000e-006
-3.199060e-006
-3.711797e-006
-4.172251e-006
-4.550679e-006
-4.823780e-006
-4.976425e-006
-5.001935e-006
-4.901251e-006
-4.681459e-006
-4.353982e-006
-3.932698e-006
-3.432190e-006
-2.866306e-006
-2.247124e-006
-1.584325e-006
-8.849268e-007
-1.533314e-007
6.083565e-007
1.399787e-006
2.221671e-006
3.075018e-006
3.960400e-006
4.877331e-006
5.823814e-006
6.796088e-006
7.788526e-006
8.793664e-006
9.802321e-006
1.080378e-005
1.178600e-005
1.273577e-005
1.363886e-005
1.448003e-005
1.524305e-005
1.591069e-005
1.646470e-005
1.688592e-005
1.715441e-005
1.724985e-005
1.715218e-005
1.684251e-005
1.630445e-005
1.552569e-005
1.449999e-005
1.322942e-005
1.172669e-005
1.001738e-005
8.141659e-006
6.155100e-006
4.127966e-006
2.142521e-006
2.878797e-007
-1.347623e-006
-2.685998e-006
-3.669839e-006
-4.271301e-006
-4.497572e-006
-4.390894e-006
-4.022301e-006
-3.479939e-006
-2.854580e-006
-2.225922e-006
-1.652989e-006
-1.170452e-006
-7.906011e-007
-5.090417e-007
-3.115821e-007
-1.802594e-007
-9.748905e-008
-4.827285e-008
-2.094298e-008
-7.036194e-009
-7.788329e-010
1.523897e-009
2.056231e-009
1.973442e-009
1.791057e-009
1.682568e-009
-4.046673e-009
-1.274088e-009
2.775093e-009
5.998443e-009
6.908362e-009
5.355168e-009
2.154148e-009
-2.294157e-009
-9.602249e-009
-2.429311e-008
-5.368419e-008
-1.072814e-007
-1.964830e-007
-3.348006e-007
-5.378344e-007
-8.217698e-007
-1.199634e-006
-1.675694e-006
-2.239478e-006
-2.861431e-006
-3.491952e-006
-4.064748e-006
-4.504228e-006
-4.735510e-006
-4.694760e-006
-4.337466e-006
-3.642917e-006
-2.614349e-006
-1.275491e-006
3.350327e-007
2.169926e-006
4.178982e-006
6.313783e-006
8.531133e-006
1.079520e-005
1.307851e-005
1.536197e-005
1.763418e-005
1.989019e-005
2.212988e-005
2.435620e-005
2.657335e-005
2.878514e-005
3.099358e-005
3.319788e-005
3.539385e-005
3.757377e-005
3.972661e-005
4.183849e-005
4.389321e-005
4.587290e-005
4.775852e-005
4.953027e-005
5.116787e-005
5.265058e-005
5.395707e-005
5.506522e-005
5.595178e-005
5.659198e-005
5.695915e-005
5.702436e-005
5.675618e-005
5.612075e-005
5.508218e-005
5.360358e-005
5.164902e-005
4.918671e-005
4.619383e-005
4.266293e-005
3.860990e-005
3.408251e-005
2.916808e-005
2.399801e-005
1.874674e-005
1.362281e-005
8.851161e-006
4.647687e-006
1.189603e-006
-1.412265e-006
-3.132248e-006
-4.033637e-006
-4.255027e-006
-3.981862e-006
-3.410821e-006
-2.716835e-006
-2.031081e-006
-1.433639e-006
-9.589910e-007
-6.088970e-007
-3.666245e-007
-2.084355e-007
-1.108620e-007
-5.421467e-008
-2.355629e-008
-8.343036e-009
-1.580109e-009
1.056643e-009
1.976250e-009
2.306612e-009
2.435229e-009
1.647184e-010
1.255602e-009
3.209738e-009
5.322244e-009
6.368094e-009
4.980365e-009
-5.127825e-011
-1.033991e-008
-2.946296e-008
-6.472861e-008
-1.281170e-007
-2.360780e-007
-4.086440e-007
-6.681317e-007
-1.036559e-006
-1.530002e-006
-2.148769e-006
-2.864728e-006
-3.609992e-006
-4.272599e-006
-4.703316e-006
-4.733937e-006
-4.203093e-006
-2.982899e-006
-9.996489e-007
1.756130e-006
5.231571e-006
9.323341e-006
1.389541e-005
1.879808e-005
2.388463e-005
2.902351e-005
3.410578e-005
3.904825e-005
4.379317e-005
4.830561e-005
5.256926e-005
5.658167e-005
6.034938e-005
6.388356e-005
6.719638e-005
7.029820e-005
7.319583e-005
7.589169e-005
7.838377e-005
8.066639e-005
8.273157e-005
8.457071e-005
8.617632e-005
8.754362e-005
8.867177e-005
8.956478e-005
9.023208e-005
9.068865e-005
9.095482e-005
9.105575e-005
9.102060e-005
9.088121e-005
9.067016e-005
9.041795e-005
9.014901e-005
8.987660e-005
8.959639e-005
8.927916e-005
8.886336e-005
8.824873e-005
8.729320e-005
8.581537e-005
8.360525e-005
8.044511e-005
7.614084e-005
7.056119e-005
6.367939e-005
5.560841e-005
4.661946e-005
3.713416e-005
2.768441e-005
1.884160e-005
1.112680e-005
4.922689e-006
4.113470e-007
-2.444566e-006
-3.872315e-006
-4.220785e-006
-3.875418e-006
-3.182183e-006
-2.399859e-006
-1.686729e-006
-1.114527e-006
-6.956524e-007
-4.106512e-007
-2.286311e-007
-1.191133e-007
-5.715360e-008
-2.442991e-008
-8.473367e-009
-1.358771e-009
1.554781e-009
2.681497e-009
3.072868e-009
8.476764e-009
6.268896e-009
3.829588e-009
3.017811e-009
3.362134e-009
1.606877e-009
-7.123744e-009
-2.846562e-008
-6.990461e-008
-1.435199e-007
-2.684769e-007
-4.714355e-007
-7.840920e-007
-1.237390e-006
-1.850967e-006
-2.615858e-006
-3.470837e-006
-4.278481e-006
-4.812745e-006
-4.770376e-006
-3.811290e-006
-1.620965e-006
2.022281e-006
7.195001e-006
1.380611e-005
2.160839e-005
3.023852e-005
3.927335e-005
4.828796e-005
5.690295e-005
6.481462e-005
7.180756e-005
7.775308e-005
8.259797e-005
8.634766e-005
8.904720e-005
9.076248e-005
9.156421e-005
9.151579e-005
9.066588e-005
8.904547e-005
8.666897e-005
8.353833e-005
7.964908e-005
7.499737e-005
6.958709e-005
6.343643e-005
5.658340e-005
4.908978e-005
4.104330e-005
3.255846e-005
2.377615e-005
1.486269e-005
6.008594e-006
-2.572688e-006
-1.064605e-005
-1.795622e-005
-2.423017e-005
-2.918140e-005
-3.251739e-005
-3.395140e-005
-3.321991e-005
-3.010662e-005
-2.447317e-005
-1.629591e-005
-5.705844e-006
6.973163e-006
2.119562e-005
3.618506e-005
5.095513e-005
6.437049e-005
7.525240e-005
8.252478e-005
8.538513e-005
8.347057e-005
7.697710e-005
6.668677e-005
5.387290e-005
4.008771e-005
2.687706e-005
1.549743e-005
6.717381e-006
7.553492e-007
-2.647518e-006
-4.059173e-006
-4.155977e-006
-3.553368e-006
-2.707367e-006
-1.892385e-006
-1.232612e-006
-7.545764e-007
-4.355697e-007
-2.366404e-007
-1.200238e-007
-5.578926e-008
-2.273993e-008
-7.010899e-009
-1.635002e-010
2.525117e-009
3.405963e-009
1.769003e-008
1.196524e-008
4.642847e-009
1.682408e-011
-1.927265e-009
-6.974327e-009
-2.484711e-008
-6.707165e-008
-1.476836e-007
-2.869797e-007
-5.152938e-007
-8.726889e-007
-1.401197e-006
-2.126865e-006
-3.029061e-006
-3.997339e-006
-4.784944e-006
-4.980657e-006
-4.027318e-006
-1.305827e-006
3.722751e-006
1.135345e-005
2.150434e-005
3.366024e-005
4.691351e-005
6.009478e-005
7.195710e-005
8.136101e-005
8.741602e-005
8.955518e-005
8.754168e-005
8.142491e-005
7.146894e-005
5.807359e-005
4.169998e-005
2.280689e-005
1.801645e-006
-2.099206e-005
-4.534867e-005
-7.113868e-005
-9.831313e-005
-1.268786e-004
-1.568677e-004
-1.883083e-004
-2.211967e-004
-2.554751e-004
-2.910168e-004
-3.276170e-004
-3.649917e-004
-4.027812e-004
-4.405576e-004
-4.778338e-004
-5.140718e-004
-5.486893e-004
-5.810629e-004
-6.105297e-004
-6.363857e-004
-6.578842e-004
-6.742362e-004
-6.846148e-004
-6.881675e-004
-6.840395e-004
-6.714111e-004
-6.495548e-004
-6.179134e-004
-5.762031e-004
-5.245378e-004
-4.635666e-004
-3.946072e-004
-3.197475e-004
-2.418760e-004
-1.646002e-004
-9.201278e-005
-2.828385e-005
2.290640e-005
5.901562e-005
7.920940e-005
8.463876e-005
7.825467e-005
6.416319e-005
4.672431e-005
2.967520e-005
1.553446e-005
5.436642e-006
-6.560054e-007
-3.528316e-006
-4.248126e-006
-3.806001e-006
-2.924749e-006
-2.026710e-006
-1.297174e-006
-7.763888e-007
-4.366734e-007
-2.303969e-007
-1.129254e-007
-5.019190e-008
-1.897761e-008
-4.682858e-009
1.210273e-009
3.206446e-009
2.351959e-008
1.576038e-008
5.217697e-009
-3.122981e-009
-1.006648e-008
-2.450944e-008
-6.170277e-008
-1.409367e-007
-2.864546e-007
-5.317083e-007
-9.222853e-007
-1.509903e-006
-2.329236e-006
-3.350491e-006
-4.406127e-006
-5.105228e-006
-4.774256e-006
-2.483794e-006
2.786145e-006
1.183753e-005
2.486762e-005
4.112753e-005
5.876000e-005
7.491372e-005
8.615552e-005
8.906678e-005
8.084288e-005
5.973410e-005
2.522164e-005
-2.207894e-005
-8.070142e-005
-1.486793e-004
-2.238677e-004
-3.041904e-004
-3.878075e-004
-4.732143e-004
-5.592839e-004
-6.452634e-004
-7.307315e-004
-8.155280e-004
-8.996660e-004
-9.832401e-004
-1.066341e-003
-1.148986e-003
-1.231069e-003
-1.312339e-003
-1.392392e-003
-1.470695e-003
-1.546614e-003
-1.619456e-003
-1.688510e-003
-1.753082e-003
-1.812526e-003
-1.866255e-003
-1.913747e-003
-1.954541e-003
-1.988212e-003
-2.014351e-003
-2.032521e-003
-2.042218e-003
-2.042803e-003
-2.033439e-003
-2.013012e-003
-1.980060e-003
-1.932729e-003
-1.868785e-003
-1.785737e-003
-1.681118e-003
-1.552966e-003
-1.400511e-003
-1.224986e-003
-1.030380e-003
-8.238827e-004
-6.157101e-004
-4.181284e-004
-2.436879e-004
-1.029506e-004
-2.230435e-006
5.794468e-005
8.289338e-005
8.207366e-005
6.633077e-005
4.528830e-005
2.567027e-005
1.089838e-005
1.705380e-006
-2.820425e-006
-4.218753e-006
-3.945368e-006
-3.037100e-006
-2.074642e-006
-1.298978e-006
-7.572826e-007
-4.135250e-007
-2.110446e-007
-9.942429e-008
-4.185112e-008
-1.427640e-008
-2.263546e-009
2.041187e-009
2.279858e-008
1.553409e-008
4.592316e-009
-7.283775e-009
-2.364212e-008
-5.715017e-008
-1.292656e-007
-2.695050e-007
-5.170951e-007
-9.236578e-007
-1.549205e-006
-2.437807e-006
-3.556493e-006
-4.686663e-006
-5.281152e-006
-4.347734e-006
-4.735224e-007
7.880715e-006
2.175629e-005
4.082711e-005
6.254075e-005
8.163500e-005
9.042521e-005
8.003692e-005
4.225900e-005
-2.854031e-005
-1.341141e-004
-2.721400e-004
-4.370107e-004
-6.211257e-004
-8.162161e-004
-1.014420e-003
-1.208996e-003
-1.394684e-003
-1.567782e-003
-1.726022e-003
-1.868313e-003
-1.994414e-003
-2.104599e-003
-2.199355e-003
-2.279155e-003
-2.344315e-003
-2.394935e-003
-2.430921e-003
-2.452063e-003
-2.458158e-003
-2.449152e-003
-2.425265e-003
-2.387102e-003
-2.335705e-003
-2.272578e-003
-2.199655e-003
-2.119254e-003
-2.034009e-003
-1.946806e-003
-1.860737e-003
-1.779055e-003
-1.705138e-003
-1.642458e-003
-1.594507e-003
-1.564697e-003
-1.556177e-003
-1.571544e-003
-1.612422e-003
-1.678854e-003
-1.768513e-003
-1.875752e-003
-1.990639e-003
-2.098283e-003
-2.178967e-003
-2.209781e-003
-2.168280e-003
-2.038123e-003
-1.815482e-003
-1.513723e-003
-1.163366e-003
-8.058074e-004
-4.826969e-004
-2.256283e-004
-4.972469e-005
4.780587e-005
8.366624e-005
8.052720e-005
5.944575e-005
3.534622e-005
1.604792e-005
3.831416e-006
-2.214254e-006
-4.163486e-006
-3.987783e-006
-3.038717e-006
-2.031021e-006
-1.237919e-006
-7.004899e-007
-3.702871e-007
-1.821778e-007
-8.198921e-008
-3.217869e-008
-9.477690e-009
-9.666007e-010
1.502912e-008
1.055484e-008
1.346317e-009
-1.531487e-008
-4.792999e-008
-1.139845e-007
-2.426107e-007
-4.770996e-007
-8.765737e-007
-1.511459e-006
-2.438663e-006
-3.632294e-006
-4.844006e-006
-5.393318e-006
-3.962920e-006
1.413149e-006
1.289799e-005
3.171921e-005
5.637978e-005
8.065138e-005
9.225115e-005
7.352381e-005
4.882386e-006
-1.296674e-004
-3.366697e-004
-6.099120e-004
-9.309389e-004
-1.272380e-003
-1.603060e-003
-1.893776e-003
-2.122078e-003
-2.274725e-003
-2.347687e-003
-2.344443e-003
-2.273466e-003
-2.145614e-003
-1.971944e-003
-1.762213e-003
-1.524146e-003
-1.263352e-003
-9.836722e-004
-6.877644e-004
-3.777331e-004
-5.568898e-005
2.758412e-004
6.136919e-004
9.540298e-004
1.292493e-003
1.624447e-003
1.945297e-003
2.250783e-003
2.537205e-003
2.801558e-003
3.041554e-003
3.255550e-003
3.442413e-003
3.601327e-003
3.731574e-003
3.832296e-003
3.902217e-003
3.939342e-003
3.940594e-003
3.901394e-003
3.815201e-003
3.673071e-003
3.463386e-003
3.172068e-003
2.783777e-003
2.284852e-003
1.668804e-003
9.447250e-004
1.475119e-004
-6.539458e-004
-1.357864e-003
-1.848734e-003
-2.037600e-003
-1.908529e-003
-1.537139e-003
-1.057705e-003
-6.011737e-004
-2.512603e-004
-3.510569e-005
6.452378e-005
8.645771e-005
6.989960e-005
4.283246e-005
1.975101e-005
5.120135e-006
-1.956796e-006
-4.152823e-006
-3.943079e-006
-2.930468e-006
-1.901179e-006
-1.122623e-006
-6.144802e-007
-3.133253e-007
-1.477558e-007
-6.283333e-008
-2.281493e-008
-7.342786e-009
2.324350e-009
1.434472e-009
-6.377797e-009
-3.189384e-008
-9.068919e-008
-2.069091e-007
-4.202264e-007
-7.919498e-007
-1.402828e-006
-2.328638e-006
-3.566960e-006
-4.876233e-006
-5.504050e-006
-3.871217e-006
2.535653e-006
1.659393e-005
3.976055e-005
6.882019e-005
9.171506e-005
8.436786e-005
1.214921e-005
-1.612584e-004
-4.581647e-004
-8.697106e-004
-1.346458e-003
-1.800691e-003
-2.125329e-003
-2.229036e-003
-2.068668e-003
-1.658511e-003
-1.055106e-003
-3.324341e-004
4.385146e-004
1.201022e-003
1.916264e-003
2.562184e-003
3.129958e-003
3.619728e-003
4.036680e-003
4.388030e-003
4.681040e-003
4.921949e-003
5.115593e-003
5.265487e-003
5.374183e-003
5.443746e-003
5.476231e-003
5.474075e-003
5.440343e-003
5.378819e-003
5.293950e-003
5.190694e-003
5.074329e-003
4.950258e-003
4.823865e-003
4.700428e-003
4.585092e-003
4.482882e-003
4.398748e-003
4.337601e-003
4.304312e-003
4.303629e-003
4.339953e-003
4.416882e-003
4.536384e-003
4.697407e-003
4.893681e-003
5.110458e-003
5.320052e-003
5.476456e-003
5.510315e-003
5.327564e-003
4.818797e-003
3.891552e-003
2.537037e-003
9.159003e-004
-6.147303e-004
-1.635281e-003
-1.926170e-003
-1.617721e-003
-1.049143e-003
-5.139816e-004
-1.506178e-004
3.120532e-005
8.567675e-005
7.591148e-005
4.693980e-005
2.117615e-005
5.192118e-006
-2.153199e-006
-4.191989e-006
-3.805304e-006
-2.718245e-006
-1.698942e-006
-9.673535e-007
-5.100870e-007
-2.495826e-007
-1.120875e-007
-4.559449e-008
-1.933489e-008
-1.218878e-008
-1.089755e-008
-2.104331e-008
-6.296781e-008
-1.612957e-007
-3.497757e-007
-6.827608e-007
-1.242368e-006
-2.122491e-006
-3.359846e-006
-4.765236e-006
-5.607372e-006
-4.181848e-006
2.461994e-006
1.797111e-005
4.430998e-005
7.666034e-005
9.587956e-005
6.180456e-005
-8.425781e-005
-3.990946e-004
-8.963145e-004
-1.496802e-003
-1.999534e-003
-2.120224e-003
-1.641945e-003
-5.734682e-004
8.507836e-004
2.316911e-003
3.579694e-003
4.520176e-003
5.123906e-003
5.433631e-003
5.511877e-003
5.420533e-003
5.212203e-003
4.927700e-003
4.596476e-003
4.238407e-003
3.866067e-003
3.486982e-003
3.105577e-003
2.724687e-003
2.346615e-003
1.973769e-003
1.608935e-003
1.255282e-003
9.161730e-004
5.948853e-004
2.943255e-004
1.680313e-005
-2.360963e-004
-4.635269e-004
-6.653027e-004
-8.417468e-004
-9.935018e-004
-1.121322e-003
-1.225860e-003
-1.307453e-003
-1.365889e-003
-1.400137e-003
-1.408012e-003
-1.385736e-003
-1.327362e-003
-1.224032e-003
-1.063095e-003
-8.271895e-004
-4.936282e-004
-3.478881e-005
5.791466e-004
1.372824e-003
2.350281e-003
3.467151e-003
4.588341e-003
5.442675e-003
5.624068e-003
4.738333e-003
2.757562e-003
3.538399e-004
-1.377891e-003
-1.855460e-003
-1.430561e-003
-7.686634e-004
-2.630999e-004
-5.437876e-007
8.301523e-005
7.787971e-005
4.712376e-005
2.000775e-005
4.029060e-006
-2.717972e-006
-4.217121e-006
-3.558110e-006
-2.414758e-006
-1.444978e-006
-7.898259e-007
-3.995057e-007
-1.871508e-007
-8.204602e-008
-3.983515e-008
-2.645838e-008
-2.652262e-008
-4.595143e-008
-1.150965e-007
-2.696458e-007
-5.569303e-007
-1.050072e-006
-1.848759e-006
-3.029832e-006
-4.492251e-006
-5.627130e-006
-4.795423e-006
1.159948e-006
1.660024e-005
4.448373e-005
7.957614e-005
9.671368e-005
3.833325e-005
-1.832749e-004
-6.461045e-004
-1.323192e-003
-1.953031e-003
-1.994248e-003
-9.405903e-004
1.088081e-003
3.306797e-003
4.916205e-003
5.594033e-003
5.452363e-003
4.778422e-003
3.847165e-003
2.852523e-003
1.907771e-003
1.067984e-003
3.519694e-004
-2.420239e-004
-7.261250e-004
-1.116513e-003
-1.429677e-003
-1.680433e-003
-1.881093e-003
-2.041352e-003
-2.168563e-003
-2.268185e-003
-2.344278e-003
-2.399959e-003
-2.437783e-003
-2.460017e-003
-2.468823e-003
-2.466346e-003
-2.454738e-003
-2.436140e-003
-2.412640e-003
-2.386238e-003
-2.358824e-003
-2.332162e-003
-2.307907e-003
-2.287622e-003
-2.272810e-003
-2.264941e-003
-2.265475e-003
-2.275852e-003
-2.297454e-003
-2.331480e-003
-2.378704e-003
-2.438993e-003
-2.510446e-003
-2.587855e-003
-2.660042e-003
-2.705365e-003
-2.684499e-003
-2.530035e-003
-2.135065e-003
-1.351360e-003
-2.537493e-005
1.880631e-003
4.057382e-003
5.637032e-003
5.441470e-003
3.092465e-003
3.710150e-005
-1.663681e-003
-1.652197e-003
-9.477492e-004
-3.335030e-004
-1.445586e-005
8.274393e-005
7.618984e-005
4.337175e-005
1.651390e-005
1.980608e-006
-3.414016e-006
-4.132176e-006
-3.192804e-006
-2.043775e-006
-1.165775e-006
-6.097943e-007
-2.961540e-007
-1.371133e-007
-7.222939e-008
-4.080198e-008
-4.727251e-008
-8.521808e-008
-1.948327e-007
-4.251059e-007
-8.412583e-007
-1.536461e-006
-2.611643e-006
-4.059833e-006
-5.465970e-006
-5.449822e-006
-9.746054e-007
1.277087e-005
4.013942e-005
7.748615e-005
9.761788e-005
2.947537e-005
-2.446277e-004
-8.275351e-004
-1.625278e-003
-2.066903e-003
-1.135779e-003
1.475987e-003
4.351652e-003
5.744666e-003
5.267331e-003
3.652780e-003
1.774706e-003
1.580323e-004
-1.021951e-003
-1.788607e-003
-2.236924e-003
-2.465518e-003
-2.552282e-003
-2.551761e-003
-2.499837e-003
-2.419262e-003
-2.324044e-003
-2.222538e-003
-2.119517e-003
-2.017553e-003
-1.917920e-003
-1.821188e-003
-1.727594e-003
-1.637262e-003
-1.550323e-003
-1.466965e-003
-1.387441e-003
-1.312050e-003
-1.241107e-003
-1.174920e-003
-1.113769e-003
-1.057897e-003
-1.007516e-003
-9.628180e-004
-9.240000e-004
-8.912909e-004
-8.649861e-004
-8.454865e-004
-8.333440e-004
-8.293163e-004
-8.344332e-004
-8.500827e-004
-8.781203e-004
-9.210086e-004
-9.819917e-004
-1.065300e-003
-1.176353e-003
-1.321879e-003
-1.509689e-003
-1.747483e-003
-2.039250e-003
-2.376098e-003
-2.715592e-003
-2.941048e-003
-2.799166e-003
-1.862656e-003
2.962388e-004
3.429986e-003
5.789734e-003
5.046958e-003
1.547234e-003
-1.284894e-003
-1.731064e-003
-1.014414e-003
-3.372631e-004
-3.284679e-006
8.512607e-005
7.055239e-005
3.618914e-005
1.148659e-005
-3.646160e-007
-3.960683e-006
-3.864240e-006
-2.725369e-006
-1.640616e-006
-8.904958e-007
-4.472470e-007
-2.161246e-007
-1.202584e-007
-5.775968e-008
-7.641682e-008
-1.432735e-007
-3.080748e-007
-6.354792e-007
-1.211774e-006
-2.144651e-006
-3.498371e-006
-5.064907e-006
-5.851517e-006
-3.276578e-006
7.433752e-006
3.195097e-005
7.004227e-005
9.829120e-005
4.184954e-005
-2.412215e-004
-8.909668e-004
-1.769607e-003
-1.960043e-003
3.402114e-005
3.726036e-003
5.894436e-003
4.881675e-003
2.129674e-003
-4.160223e-004
-1.962746e-003
-2.612261e-003
-2.713185e-003
-2.549082e-003
-2.286958e-003
-2.009452e-003
-1.751658e-003
-1.525160e-003
-1.331044e-003
-1.166269e-003
-1.026560e-003
-9.076306e-004
-8.056501e-004
-7.173787e-004
-6.401725e-004
-5.719334e-004
-5.110382e-004
-4.562625e-004
-4.067039e-004
-3.617104e-004
-3.208160e-004
-2.836849e-004
-2.500666e-004
-2.197610e-004
-1.925956e-004
-1.684106e-004
-1.470534e-004
-1.283785e-004
-1.122522e-004
-9.856036e-005
-8.721717e-005
-7.817669e-005
-7.144606e-005
-6.710231e-005
-6.531477e-005
-6.637636e-005
-7.074879e-005
-7.912901e-005
-9.254805e-005
-1.125191e-004
-1.412619e-004
-1.820440e-004
-2.397019e-004
-3.214248e-004
-4.378833e-004
-6.046897e-004
-8.437906e-004
-1.183184e-003
-1.650019e-003
-2.243930e-003
-2.861141e-003
-3.128848e-003
-2.219594e-003
7.428935e-004
4.732583e-003
5.844670e-003
2.459944e-003
-1.083159e-003
-1.731366e-003
-9.594613e-004
-2.732523e-004
2.699934e-005
8.622876e-005
6.054588e-005
2.670442e-005
6.039411e-006
-2.395622e-006
-4.153203e-006
-3.402507e-006
-2.198978e-006
-1.246151e-006
-6.473099e-007
-3.243530e-007
-1.878922e-007
-8.085309e-008
-1.175633e-007
-2.239892e-007
-4.593048e-007
-9.058270e-007
-1.670914e-006
-2.859984e-006
-4.433797e-006
-5.809647e-006
-5.085831e-006
1.907883e-006
2.146920e-005
5.729934e-005
9.473223e-005
6.813473e-005
-1.729913e-004
-8.173678e-004
-1.772070e-003
-1.911888e-003
7.611045e-004
4.953200e-003
5.746428e-003
2.579693e-003
-8.809517e-004
-2.579351e-003
-2.836139e-003
-2.462908e-003
-1.947167e-003
-1.479507e-003
-1.107099e-003
-8.250651e-004
-6.151464e-004
-4.591419e-004
-3.424489e-004
-2.542373e-004
-1.867181e-004
-1.343374e-004
-9.312597e-005
-6.022985e-005
-3.358473e-005
-1.169301e-005
6.531459e-006
2.187429e-005
3.490206e-005
4.602368e-005
5.553692e-005
6.366380e-005
7.057664e-005
7.641666e-005
8.130638e-005
8.535743e-005
8.867471e-005
9.135807e-005
9.350232e-005
9.519642e-005
9.652248e-005
9.755482e-005
9.835899e-005
9.899050e-005
9.949287e-005
9.989417e-005
1.002013e-004
1.003902e-004
1.003887e-004
1.000484e-004
9.909731e-005
9.705899e-005
9.311301e-005
8.584925e-005
7.282996e-005
4.980786e-005
9.347454e-006
-6.152811e-005
-1.850832e-004
-3.979605e-004
-7.552786e-004
-1.323773e-003
-2.132639e-003
-3.000774e-003
-3.128575e-003
-8.956914e-004
3.791851e-003
6.008475e-003
2.521415e-003
-1.233022e-003
-1.659507e-003
-7.911431e-004
-1.639811e-004
6.074384e-005
8.113308e-005
4.676098e-005
1.659578e-005
1.274448e-006
-3.690185e-006
-3.932645e-006
-2.801171e-006
-1.672403e-006
-9.004661e-007
-4.664490e-007
-2.791150e-007
-1.131931e-007
-1.734955e-007
-3.298067e-007
-6.507757e-007
-1.237164e-006
-2.212100e-006
-3.647167e-006
-5.301084e-006
-5.995882e-006
-2.581192e-006
1.084431e-005
4.079713e-005
8.297000e-005
9.171410e-005
-6.812258e-005
-6.223156e-004
-1.620901e-003
-2.041113e-003
6.346585e-004
5.245453e-003
5.273381e-003
9.017096e-004
-2.311138e-003
-2.918240e-003
-2.333311e-003
-1.581058e-003
-9.877332e-004
-5.842782e-004
-3.258443e-004
-1.641253e-004
-6.351703e-005
-7.756011e-007
3.855302e-005
6.330122e-005
7.885832e-005
8.853829e-005
9.440601e-005
9.776815e-005
9.946372e-005
1.000374e-004
9.984486e-005
9.911946e-005
9.801481e-005
9.663336e-005
9.504560e-005
9.330296e-005
9.144647e-005
8.951212e-005
8.753373e-005
8.554415e-005
8.357572e-005
8.166024e-005
7.982884e-005
7.811179e-005
7.653852e-005
7.513799e-005
7.393954e-005
7.297421e-005
7.227608e-005
7.188390e-005
7.184286e-005
7.220654e-005
7.303901e-005
7.441673e-005
7.642976e-005
7.918110e-005
8.278171e-005
8.733476e-005
9.289448e-005
9.936647e-005
1.062759e-004
1.122461e-004
1.138585e-004
1.032589e-004
6.341960e-005
-4.030682e-005
-2.723417e-004
-7.351511e-004
-1.541236e-003
-2.646534e-003
-3.315612e-003
-1.431818e-003
3.722960e-003
5.891192e-003
1.723761e-003
-1.598376e-003
-1.455842e-003
-5.429409e-004
-4.746665e-005
8.181377e-005
6.785303e-005
3.128500e-005
7.641643e-006
-2.062737e-006
-4.125390e-006
-3.381004e-006
-2.153520e-006
-1.206671e-006
-6.457399e-007
-3.975189e-007
-1.567112e-007
-2.455486e-007
-4.612274e-007
-8.818578e-007
-1.625371e-006
-2.818564e-006
-4.451867e-006
-5.956533e-006
-5.319435e-006
2.113980e-006
2.363087e-005
6.303626e-005
9.799600e-005
3.028314e-005
-3.617310e-004
-1.289188e-003
-2.162140e-003
-3.179982e-004
4.727924e-003
5.371787e-003
4.610552e-004
-2.703842e-003
-2.709265e-003
-1.752577e-003
-9.271447e-004
-4.123302e-004
-1.326718e-004
6.810499e-006
7.124828e-005
9.784861e-005
1.061302e-004
1.058918e-004
1.019342e-004
9.656792e-005
9.087921e-005
8.535580e-005
8.019478e-005
7.545386e-005
7.112564e-005
6.717417e-005
6.355348e-005
6.021731e-005
5.712417e-005
5.423964e-005
5.153691e-005
4.899656e-005
4.660589e-005
4.435795e-005
4.225008e-005
4.028244e-005
3.845679e-005
3.677584e-005
3.524287e-005
3.386158e-005
3.263608e-005
3.157112e-005
3.067282e-005
2.994964e-005
2.941351e-005
2.908112e-005
2.897552e-005
2.912827e-005
2.958247e-005
3.039694e-005
3.165192e-005
3.345740e-005
3.596524e-005
3.938670e-005
4.401672e-005
5.026304e-005
5.866827e-005
6.988114e-005
8.444707e-005
1.020739e-004
1.195548e-004
1.256349e-004
8.993591e-005
-5.666288e-005
-4.440086e-004
-1.247177e-003
-2.491799e-003
-3.328031e-003
-1.036584e-003
4.567071e-003
5.221135e-003
2.770569e-004
-1.828428e-003
-1.092839e-003
-2.790741e-004
3.977801e-005
8.253929e-005
4.879489e-005
1.695866e-005
1.102293e-006
-3.766075e-006
-3.849798e-006
-2.661816e-006
-1.560712e-006
-8.634853e-007
-5.457267e-007
-2.121260e-007
-3.336083e-007
-6.167520e-007
-1.148757e-006
-2.060843e-006
-3.464376e-006
-5.208219e-006
-6.256946e-006
-3.544498e-006
9.157164e-006
3.948178e-005
8.367257e-005
8.790572e-005
-1.189880e-004