# vtk DataFile Version 3.0
vtk output
ASCII
DATASET STRUCTURED_POINTS
DIMENSIONS 100 100 1
SPACING 1 1 1
ORIGIN 0 0 0
POINT_DATA 10000
SCALARS SFBox_profile double
LOOKUP_TABLE default 
0.000000e+000
0.000000e+000
0.000000e+000
0.000000e+000
0.000000e+000
0.000000e+000
0.000000e+000
0.000000e+000
0.000000e+000
0.000000e+000
0.000000e+000
0.000000e+000
0.000000e+000
0.000000e+000
0.000000e+000
0.000000e+000
0.000000e+000
0.000000e+000
0.000000e+000
0.000000e+000
0.000000e+000
0.000000e+000
0.000000e+000
0.000000e+000
0.000000e+000
0.000000e+000
0.000000e+000
0.000000e+000
0.000000e+000
0.000000e+000
0.000000e+000
0.000000e+000
0.000000e+000
0.000000e+000
0.000000e+000
0.000000e+000
0.000000e+000
0.000000e+000
0.000000e+000
0.000000e+000
0.000000e+000
0.000000e+000
0.000000e+000
0.000000e+000
0.000000e+000
0.000000e+000
0.000000e+000
0.000000e+000
0.000000e+000
0.000000e+000
0.000000e+000
0.000000e+000
0.000000e+000
0.000000e+000
0.000000e+000
0.000000e+000
0.000000e+000
0.000000e+000
0.000000e+000
0.000000e+000
0.000000e+000
0.000000e+000
0.000000e+000
0.000000e+000
0.000000e+000
0.000000e+000
0.000000e+000
0.000000e+000
0.000000e+000
0.000000e+000
0.000000e+000
0.000000e+000
0.000000e+000
0.000000e+000
0.000000e+000
0.000000e+000
0.000000e+000
0.000000e+000
0.000000e+000
0.000000e+000
0.000000e+000
0.000000e+000
0.000000e+000
0.000000e+000
0.000000e+000
0.000000e+000
0.000000e+000
0.000000e+000
0.000000e+000
0.000000e+000
0.000000e+000
0.000000e+000
0.000000e+000
0.000000e+000
0.000000e+000
0.000000e+000
0.000000e+000
0.000000e+000
0.000000e+000
0.000000e+000
8.212675e-009
3.466749e-009
-2.808930e-009
-6.840652e-009
-6.631917e-009
-2.922168e-009
1.690886e-009
4.648917e-009
4.938821e-009
3.262116e-009
1.026944e-009
-8.296661e-010
-2.232053e-009
-3.438575e-009
-4.303065e-009
-4.142878e-009
-2.365352e-009
7.773103e-010
4.084885e-009
6.127213e-009
6.182279e-009
4.600032e-009
2.344133e-009
1.990170e-010
-1.645353e-009
-3.367035e-009
-5.008726e-009
-6.254632e-009
-6.674290e-009
-6.123324e-009
-4.873460e-009
-3.368879e-009
-1.887119e-009
-4.320951e-010
1.094074e-009
2.672072e-009
4.129537e-009
5.288820e-009
6.112991e-009
6.701594e-009
7.167119e-009
7.536094e-009
7.764571e-009
7.825276e-009
7.761580e-009
7.658766e-009
7.575727e-009
7.511419e-009
7.432990e-009
7.327879e-009
7.224497e-009
7.163372e-009
7.151106e-009
7.145819e-009
7.091085e-009
6.964890e-009
6.790002e-009
6.588391e-009
6.325344e-009
5.911056e-009
5.272463e-009
4.424382e-009
3.453950e-009
2.421904e-009
1.290681e-009
-1.869576e-011
-1.478439e-009
-2.877300e-009
-3.928290e-009
-4.473898e-009
-4.569694e-009
-4.338908e-009
-3.754019e-009
-2.620878e-009
-8.441736e-010
1.278845e-009
3.083980e-009
3.940472e-009
3.682229e-009
2.656903e-009
1.352489e-009
1.263252e-012
-1.413311e-009
-2.769392e-009
-3.522197e-009
-2.962712e-009
-9.058476e-010
1.830117e-009
3.725458e-009
3.557821e-009
1.350187e-009
-1.526573e-009
-3.248353e-009
-2.789168e-009
-6.061669e-010
1.726593e-009
2.638967e-009
1.626287e-009
-4.686753e-010
-2.098008e-009
1.407720e-009
4.187032e-010
-7.841702e-010
-1.325140e-009
-8.476659e-010
2.485361e-010
1.114945e-009
1.087056e-009
1.804467e-010
-9.243394e-010
-1.401147e-009
-8.999735e-010
2.158170e-010
1.189918e-009
1.463895e-009
1.040935e-009
3.513183e-010
-1.978475e-010
-5.453950e-010
-8.946476e-010
-1.366107e-009
-1.772198e-009
-1.750331e-009
-1.110474e-009
-3.913351e-011
1.039771e-009
1.797330e-009
2.200305e-009
2.416166e-009
2.564106e-009
2.582025e-009
2.322116e-009
1.739238e-009
9.612279e-010
1.814087e-010
-4.961108e-010
-1.099374e-009
-1.698903e-009
-2.301124e-009
-2.835938e-009
-3.232741e-009
-3.489763e-009
-3.665927e-009
-3.816452e-009
-3.946622e-009
-4.026144e-009
-4.037743e-009
-4.003914e-009
-3.967041e-009
-3.948909e-009
-3.933382e-009
-3.888466e-009
-3.802648e-009
-3.696230e-009
-3.594539e-009
-3.490962e-009
-3.341976e-009
-3.104985e-009
-2.781076e-009
-2.412449e-009
-2.030374e-009
-1.610130e-009
-1.092594e-009
-4.612330e-010
2.089045e-010
7.964375e-010
1.236000e-009
1.563345e-009
1.839794e-009
2.032196e-009
1.995265e-009
1.605115e-009
9.172429e-010
1.696495e-010
-3.962906e-010
-7.206809e-010
-9.165581e-010
-1.074002e-009
-1.100462e-009
-7.994708e-010
-1.308128e-010
6.281518e-010
1.031771e-009
8.267432e-010
1.896234e-010
-3.991908e-010
-5.449670e-010
-2.427018e-010
1.667044e-010
3.226564e-010
1.428108e-010
-1.580525e-010
-3.009966e-010
-1.859639e-010
6.205746e-011
2.396718e-010
2.370819e-010
9.016888e-011
-8.869674e-011
-2.013585e-010
-6.467753e-009
-2.922849e-009
1.861801e-009
5.169801e-009
5.485957e-009
3.128893e-009
-3.242975e-010
-3.191578e-009
-4.532234e-009
-4.249411e-009
-2.689627e-009
-2.880025e-010
2.445333e-009
4.778606e-009
5.829505e-009
4.974904e-009
2.305593e-009
-1.295786e-009
-4.579619e-009
-6.555864e-009
-6.873665e-009
-5.755191e-009
-3.663224e-009
-1.031918e-009
1.778828e-009
4.406914e-009
6.475206e-009
7.694831e-009
7.975636e-009
7.424924e-009
6.240872e-009
4.608181e-009
2.675494e-009
5.908522e-010
-1.481296e-009
-3.393707e-009
-5.060889e-009
-6.462799e-009
-7.607244e-009
-8.495896e-009
-9.126814e-009
-9.519261e-009
-9.723183e-009
-9.799025e-009
-9.790252e-009
-9.717454e-009
-9.595843e-009
-9.451862e-009
-9.318686e-009
-9.216850e-009
-9.143348e-009
-9.081768e-009
-9.021155e-009
-8.961117e-009
-8.896902e-009
-8.802304e-009
-8.632177e-009
-8.344092e-009
-7.915195e-009
-7.334520e-009
-6.580752e-009
-5.616307e-009
-4.412590e-009
-2.983716e-009
-1.392441e-009
2.766693e-010
1.940523e-009
3.503503e-009
4.822435e-009
5.704990e-009
5.968771e-009
5.520339e-009
4.387062e-009
2.689032e-009
6.103673e-010
-1.577631e-009
-3.479587e-009
-4.627553e-009
-4.661079e-009
-3.533429e-009
-1.577309e-009
6.316103e-010
2.500596e-009
3.569941e-009
3.550807e-009
2.366323e-009
2.841620e-010
-1.972372e-009
-3.381209e-009
-3.137462e-009
-1.253372e-009
1.256666e-009
2.896141e-009
2.657056e-009
7.545884e-010
-1.470034e-009
-2.475029e-009
-1.620074e-009
3.762245e-010
1.978239e-009
-8.931278e-009
-3.606457e-009
3.289770e-009
7.455365e-009
6.820225e-009
2.533874e-009
-2.292119e-009
-4.916285e-009
-4.592415e-009
-2.479280e-009
-2.628112e-010
1.175523e-009
2.006061e-009
2.688902e-009
3.157202e-009
2.794134e-009
1.161165e-009
-1.329115e-009
-3.519077e-009
-4.324179e-009
-3.511120e-009
-1.757361e-009
-1.637903e-011
1.178158e-009
1.883701e-009
2.384104e-009
2.760628e-009
2.821281e-009
2.371084e-009
1.472493e-009
4.242354e-010
-4.796444e-010
-1.142046e-009
-1.639139e-009
-2.058540e-009
-2.390734e-009
-2.563168e-009
-2.541037e-009
-2.371769e-009
-2.139775e-009
-1.898402e-009
-1.651571e-009
-1.387570e-009
-1.114470e-009
-8.607005e-010
-6.515387e-010
-4.935078e-010
-3.798244e-010
-3.040989e-010
-2.665140e-010
-2.711650e-010
-3.219323e-010
-4.198625e-010
-5.603652e-010
-7.321962e-010
-9.231414e-010
-1.129279e-009
-1.354673e-009
-1.595121e-009
-1.821699e-009
-1.988598e-009
-2.064795e-009
-2.054051e-009
-1.971143e-009
-1.794080e-009
-1.455104e-009
-9.028391e-010
-1.814678e-010
5.683936e-010
1.208348e-009
1.698517e-009
2.068729e-009
2.279127e-009
2.141133e-009
1.444506e-009
2.133196e-010
-1.174647e-009
-2.181912e-009
-2.478299e-009
-2.130151e-009
-1.422514e-009
-5.225123e-010
6.107615e-010
1.929943e-009
2.958072e-009
2.901435e-009
1.301328e-009
-1.311749e-009
-3.471196e-009
-3.701713e-009
-1.673326e-009
1.385828e-009
3.458111e-009
3.168527e-009
7.928970e-010
-1.939420e-009
-3.104124e-009
-1.960921e-009
5.523254e-010
2.540920e-009
-4.218469e-009
-1.167141e-009
2.461086e-009
3.951248e-009
2.341712e-009
-9.621667e-010
-3.346412e-009
-3.001981e-009
-2.555322e-010
2.770917e-009
3.844155e-009
2.278661e-009
-7.147271e-010
-3.143630e-009
-3.767404e-009
-2.771555e-009
-1.188781e-009
1.937200e-010
1.364613e-009
2.678267e-009
4.095771e-009
4.946382e-009
4.457836e-009
2.486985e-009
-2.924027e-010
-2.902104e-009
-4.742009e-009
-5.818327e-009
-6.414619e-009
-6.643142e-009
-6.337326e-009
-5.313504e-009
-3.651275e-009
-1.688023e-009
2.301603e-010
1.959691e-009
3.542626e-009
5.035490e-009
6.391288e-009
7.498105e-009
8.294312e-009
8.822099e-009
9.177031e-009
9.426141e-009
9.579790e-009
9.627138e-009
9.581070e-009
9.485536e-009
9.387726e-009
9.308793e-009
9.238243e-009
9.151348e-009
9.032363e-009
8.884504e-009
8.716829e-009
8.516751e-009
8.235262e-009
7.808178e-009
7.201343e-009
6.432452e-009
5.536036e-009
4.503001e-009
3.272078e-009
1.807126e-009
1.900209e-010
-1.384648e-009
-2.732823e-009
-3.796220e-009
-4.605248e-009
-5.112020e-009
-5.096503e-009
-4.310870e-009
-2.765482e-009
-8.542664e-010
8.628489e-010
2.040091e-009
2.699965e-009
2.995109e-009
2.861206e-009
2.011607e-009
3.642945e-010
-1.544792e-009
-2.709773e-009
-2.387950e-009
-7.925546e-010
9.545539e-010
1.664227e-009
1.011308e-009
-2.624815e-010
-1.035374e-009
-7.484811e-010
2.122113e-010
9.541079e-010
8.691407e-010
8.104129e-011
-7.519404e-010
-1.007728e-009
-5.429615e-010
2.775196e-010
8.856676e-010
3.550576e-009
2.071315e-009
-1.883439e-010
-2.336948e-009
-3.619049e-009
-3.543381e-009
-1.941012e-009
8.630696e-010
3.872019e-009
5.605680e-009
4.842818e-009
1.530735e-009
-2.901173e-009
-6.260919e-009
-6.932751e-009
-4.829567e-009
-1.237672e-009
2.225217e-009
4.602581e-009
5.785903e-009
5.985232e-009
5.210732e-009
3.318767e-009
4.622401e-010
-2.666373e-009
-5.146861e-009
-6.413920e-009
-6.538019e-009
-5.968593e-009
-5.055618e-009
-3.834254e-009
-2.213250e-009
-2.751793e-010
1.664263e-009
3.274870e-009
4.443875e-009
5.282709e-009
5.940578e-009
6.446195e-009
6.725225e-009
6.731364e-009
6.527466e-009
6.241112e-009
5.964275e-009
5.707810e-009
5.441615e-009
5.160289e-009
4.904697e-009
4.729045e-009
4.656075e-009
4.664166e-009
4.713799e-009
4.786066e-009
4.897116e-009
5.072744e-009
5.304005e-009
5.529103e-009
5.668811e-009
5.686513e-009
5.605238e-009
5.449215e-009
5.166361e-009
4.630571e-009
3.747807e-009
2.562601e-009
1.235400e-009
-1.027785e-010
-1.452199e-009
-2.856961e-009
-4.198653e-009
-5.117932e-009
-5.212395e-009
-4.354268e-009
-2.801897e-009
-9.758256e-010
8.543573e-010
2.608240e-009
4.111426e-009
4.864004e-009
4.250560e-009
2.113470e-009
-8.551860e-010
-3.370511e-009
-4.333893e-009
-3.499665e-009
-1.504089e-009
6.663007e-010
2.233309e-009
2.810295e-009
2.301479e-009
8.650717e-010
-9.629760e-010
-2.282982e-009
-2.270062e-009
-8.381979e-010
1.090958e-009
2.138125e-009
1.523736e-009
-2.481895e-010
-1.740013e-009
8.203568e-009
3.259390e-009
-3.009781e-009
-6.617330e-009
-5.903355e-009
-2.189347e-009
1.746990e-009
3.827768e-009
3.728468e-009
2.356564e-009
6.803019e-010
-8.838307e-010
-2.198533e-009
-2.914085e-009
-2.516295e-009
-9.017273e-010
1.227876e-009
2.707308e-009
2.745069e-009
1.474875e-009
-2.674743e-010
-1.655990e-009
-2.371873e-009
-2.515277e-009
-2.206039e-009
-1.392195e-009
-3.387833e-011
1.641969e-009
3.172831e-009
4.164870e-009
4.537331e-009
4.462231e-009
4.106121e-009
3.473420e-009
2.492140e-009
1.195797e-009
-2.266463e-010
-1.559481e-009
-2.709779e-009
-3.719511e-009
-4.652560e-009
-5.497080e-009
-6.180162e-009
-6.655182e-009
-6.954342e-009
-7.156155e-009
-7.314380e-009
-7.424675e-009
-7.453644e-009
-7.390208e-009
-7.264880e-009
-7.120666e-009
-6.967065e-009
-6.764181e-009
-6.455635e-009
-6.020223e-009
-5.487929e-009
-4.897170e-009
-4.235587e-009
-3.436817e-009
-2.452951e-009
-1.331247e-009
-2.014823e-010
8.264220e-010
1.740345e-009
2.574999e-009
3.276681e-009
3.651271e-009
3.493285e-009
2.783623e-009
1.737951e-009
6.382970e-010
-3.658716e-010
-1.252967e-009
-1.932685e-009
-2.130982e-009
-1.571572e-009
-3.174471e-010
1.105745e-009
2.000013e-009
1.961742e-009
1.096112e-009
-1.692427e-010
-1.394379e-009
-2.221861e-009
-2.285106e-009
-1.274993e-009
6.805453e-010
2.694168e-009
3.420838e-009
2.034358e-009
-8.685282e-010
-3.386207e-009
-3.627523e-009
-1.267084e-009
2.014310e-009
3.729537e-009
2.547049e-009
-5.959101e-010
-3.200550e-009
6.615523e-009
1.610784e-009
-4.120315e-009
-6.106696e-009
-3.155376e-009
2.000160e-009
5.158054e-009
4.027552e-009
-2.059719e-010
-4.170957e-009
-5.103556e-009
-2.750566e-009
9.563200e-010
3.761572e-009
4.661061e-009
4.010916e-009
2.546779e-009
5.752990e-010
-1.907940e-009
-4.575323e-009
-6.522212e-009
-6.784860e-009
-5.088333e-009
-2.057043e-009
1.278912e-009
4.147760e-009
6.276035e-009
7.647759e-009
8.200223e-009
7.807585e-009
6.483993e-009
4.493803e-009
2.219541e-009
-5.622359e-011
-2.223944e-009
-4.242831e-009
-6.024811e-009
-7.446011e-009
-8.446749e-009
-9.081855e-009
-9.461683e-009
-9.658845e-009
-9.683463e-009
-9.537647e-009
-9.271379e-009
-8.974025e-009
-8.717274e-009
-8.516558e-009
-8.349680e-009
-8.206250e-009
-8.112058e-009
-8.103777e-009
-8.183564e-009
-8.304233e-009
-8.403048e-009
-8.448522e-009
-8.446542e-009
-8.394376e-009
-8.233443e-009
-7.862050e-009
-7.204805e-009
-6.263588e-009
-5.087305e-009
-3.694688e-009
-2.054007e-009
-1.667313e-010
1.829892e-009
3.670812e-009
5.092650e-009
5.945397e-009
6.162574e-009
5.652387e-009
4.300547e-009
2.154097e-009
-3.986190e-010
-2.701939e-009
-4.159915e-009
-4.521230e-009
-3.863062e-009
-2.374126e-009
-2.819157e-010
1.948669e-009
3.474858e-009
3.419916e-009
1.617807e-009
-9.364775e-010
-2.575375e-009
-2.195545e-009
-2.165599e-010
1.680300e-009
1.924340e-009
3.797775e-010
-1.552248e-009
-2.155247e-009
-8.731333e-010
1.231013e-009
2.393406e-009
1.631069e-009
-4.561380e-010
-2.192494e-009
6.610003e-010
-1.103346e-009
-2.545182e-009
-1.661089e-009
1.530498e-009
4.731415e-009
5.093848e-009
1.619185e-009
-3.754453e-009
-7.398134e-009
-6.682852e-009
-1.961727e-009
3.760224e-009
7.125000e-009
6.728442e-009
3.635083e-009
9.649973e-012
-2.639575e-009
-4.084659e-009
-4.702394e-009
-4.575227e-009
-3.388126e-009
-1.061636e-009
1.761298e-009
3.997214e-009
4.885396e-009
4.448563e-009
3.257991e-009
1.850384e-009
4.071732e-010
-1.094935e-009
-2.575969e-009
-3.776841e-009
-4.453722e-009
-4.571893e-009
-4.284470e-009
-3.759321e-009
-3.064183e-009
-2.205266e-009
-1.224771e-009
-2.244295e-010
6.984846e-010
1.510172e-009
2.226210e-009
2.854468e-009
3.369157e-009
3.739745e-009
3.969209e-009
4.091179e-009
4.130993e-009
4.079310e-009
3.909161e-009
3.613687e-009
3.217302e-009
2.746227e-009
2.195792e-009
1.539003e-009
7.711967e-010
-6.272349e-011
-8.956003e-010
-1.687879e-009
-2.431647e-009
-3.093537e-009
-3.567745e-009
-3.715267e-009
-3.463008e-009
-2.847961e-009
-1.947074e-009
-7.870175e-010
6.190128e-010
2.112811e-009
3.310642e-009
3.769386e-009
3.292502e-009
2.064270e-009
4.589171e-010
-1.245125e-009
-2.878000e-009
-4.095031e-009
-4.232721e-009
-2.705923e-009
2.683577e-010
3.381280e-009
4.901952e-009
3.917792e-009
1.086030e-009
-1.820823e-009
-3.210903e-009
-2.700789e-009
-1.091840e-009
4.770293e-010
1.326353e-009
1.393455e-009
9.152432e-010
1.619118e-010
-5.634249e-010
-9.005616e-010
-6.277030e-010
7.536607e-011
6.670993e-010
-5.075337e-009
-2.434642e-009
1.071124e-009
3.518231e-009
4.017660e-009
2.826222e-009
6.917868e-010
-1.645076e-009
-3.409967e-009
-3.721655e-009
-2.066189e-009
9.577985e-010
3.578334e-009
3.953812e-009
1.669894e-009
-1.770947e-009
-4.049676e-009
-3.794537e-009
-1.450631e-009
1.395466e-009
3.409916e-009
4.273503e-009
4.315728e-009
3.722680e-009
2.285686e-009
-1.383276e-010
-3.126497e-009
-5.791398e-009
-7.382181e-009
-7.741773e-009
-7.200027e-009
-6.118257e-009
-4.603434e-009
-2.618100e-009
-2.479032e-010
2.220455e-009
4.471636e-009
6.357054e-009
7.907294e-009
9.194165e-009
1.022303e-008
1.095473e-008
1.138965e-008
1.159727e-008
1.166729e-008
1.165407e-008
1.157555e-008
1.144972e-008
1.131163e-008
1.119267e-008
1.109679e-008
1.100730e-008
1.091153e-008
1.080534e-008
1.067001e-008
1.045679e-008
1.010821e-008
9.593473e-009
8.908014e-009
8.031319e-009
6.902042e-009
5.463296e-009
3.742107e-009
1.864610e-009
-2.738825e-011
-1.860058e-009
-3.586457e-009
-5.046690e-009
-5.917758e-009
-5.885116e-009
-4.907471e-009
-3.286404e-009
-1.435981e-009
3.943278e-010
2.101939e-009
3.434792e-009
3.846202e-009
2.849823e-009
6.363323e-010
-1.729679e-009
-2.916775e-009
-2.304861e-009
-4.474621e-010
1.408469e-009
2.260268e-009
1.886939e-009
6.685116e-010
-8.561866e-010
-2.139837e-009
-2.546070e-009
-1.548933e-009
6.627435e-010
2.832115e-009
3.279218e-009
1.323603e-009
-1.799332e-009
-3.659018e-009
-2.634733e-009
5.475454e-010
3.281328e-009
-7.130295e-009
-1.528573e-009
4.633336e-009
6.379643e-009
2.863248e-009
-2.455671e-009
-5.189868e-009
-3.634217e-009
4.237801e-010
3.808661e-009
4.586706e-009
2.945915e-009
1.906740e-010
-2.562298e-009
-4.683760e-009
-5.567801e-009
-4.507759e-009
-1.336891e-009
2.936236e-009
6.448877e-009
7.674183e-009
6.394729e-009
3.580398e-009
4.279685e-010
-2.415873e-009
-4.812768e-009
-6.609518e-009
-7.397239e-009
-6.823452e-009
-5.014175e-009
-2.567806e-009
-1.225065e-010
2.028245e-009
3.913106e-009
5.581089e-009
6.910051e-009
7.707045e-009
7.921629e-009
7.704506e-009
7.267765e-009
6.727817e-009
6.091239e-009
5.354616e-009
4.577587e-009
3.856917e-009
3.257776e-009
2.789361e-009
2.437487e-009
2.200244e-009
2.088565e-009
2.108743e-009
2.258743e-009
2.536410e-009
2.935710e-009
3.430991e-009
3.978247e-009
4.543573e-009
5.121510e-009
5.703642e-009
6.222466e-009
6.547324e-009
6.561413e-009
6.240067e-009
5.624245e-009
4.705387e-009
3.375461e-009
1.553711e-009
-6.145345e-010
-2.726636e-009
-4.344181e-009
-5.249459e-009
-5.445396e-009
-4.910110e-009
-3.461147e-009
-1.007458e-009
2.018432e-009
4.587919e-009
5.613689e-009
4.688418e-009
2.343276e-009
-3.820579e-010
-2.571751e-009
-3.684066e-009
-3.427271e-009
-1.763693e-009
7.473052e-010
2.785486e-009
2.928652e-009
8.976353e-010
-1.817533e-009
-2.918370e-009
-1.302852e-009
1.722524e-009
3.399833e-009
2.003229e-009
-1.426327e-009
-3.858762e-009
-2.998921e-009
5.389383e-010
3.692434e-009
-5.117083e-009
3.723466e-010
5.726602e-009
5.642658e-009
-6.106637e-011
-6.434742e-009
-7.904277e-009
-3.096015e-009
4.210293e-009
8.505367e-009
7.036481e-009
1.502075e-009
-4.001087e-009
-6.406502e-009
-5.418774e-009
-2.653301e-009
2.532777e-010
2.575053e-009
4.074548e-009
4.358151e-009
3.021919e-009
3.276205e-010
-2.593262e-009
-4.417288e-009
-4.530342e-009
-3.258368e-009
-1.319439e-009
8.080792e-010
2.978949e-009
5.039152e-009
6.609408e-009
7.280861e-009
6.951658e-009
5.886524e-009
4.449119e-009
2.830321e-009
1.044612e-009
-8.783903e-010
-2.777092e-009
-4.441480e-009
-5.767925e-009
-6.799364e-009
-7.628346e-009
-8.293395e-009
-8.773990e-009
-9.056623e-009
-9.177509e-009
-9.201873e-009
-9.179762e-009
-9.127544e-009
-9.037639e-009
-8.891938e-009
-8.670433e-009
-8.361891e-009
-7.969227e-009
-7.491350e-009
-6.891498e-009
-6.097464e-009
-5.056692e-009
-3.795515e-009
-2.403856e-009
-9.475619e-010
5.823915e-010
2.192762e-009
3.749766e-009
4.958321e-009
5.531083e-009
5.386801e-009
4.650754e-009
3.457195e-009
1.821616e-009
-2.042295e-010
-2.250888e-009
-3.618894e-009
-3.686142e-009
-2.389903e-009
-2.966521e-010
1.793220e-009
3.255308e-009
3.685139e-009
2.765900e-009
4.443376e-010
-2.575105e-009
-4.711953e-009
-4.376158e-009
-1.376117e-009
2.487475e-009
4.547161e-009
3.395366e-009
1.227161e-010
-2.579899e-009
-2.728874e-009
-6.714305e-010
1.431313e-009
1.691832e-009
1.573656e-010
-1.440483e-009
-1.469940e-009
5.042380e-011
1.566464e-009
-8.639144e-010
1.425339e-009
3.192499e-009
1.928082e-009
-1.982077e-009
-5.335479e-009
-4.894799e-009
-4.459132e-010
4.696116e-009
6.372789e-009
3.167952e-009
-2.330870e-009
-5.747884e-009
-4.581533e-009
-4.537622e-011
4.327786e-009
5.714424e-009
3.847664e-009
4.230743e-010
-2.760035e-009
-4.927805e-009
-6.025755e-009
-5.919430e-009
-4.264553e-009
-1.088017e-009
2.808967e-009
6.221670e-009
8.309972e-009
8.967182e-009
8.525929e-009
7.268967e-009
5.291243e-009
2.725748e-009
-7.452979e-011
-2.660137e-009
-4.750962e-009
-6.329213e-009
-7.490660e-009
-8.266673e-009
-8.613703e-009
-8.531974e-009
-8.135981e-009
-7.593961e-009
-7.021878e-009
-6.451288e-009
-5.883507e-009
-5.349088e-009
-4.910443e-009
-4.622934e-009
-4.504433e-009
-4.536142e-009
-4.683281e-009
-4.918584e-009
-5.236483e-009
-5.644234e-009
-6.126492e-009
-6.612717e-009
-6.992342e-009
-7.177771e-009
-7.146842e-009
-6.900983e-009
-6.376849e-009
-5.431838e-009
-3.959137e-009
-2.024511e-009
1.389374e-010
2.284411e-009
4.263069e-009
5.938079e-009
7.012698e-009
7.052232e-009
5.785461e-009
3.407294e-009
5.397163e-010
-2.119484e-009
-4.065992e-009
-4.927044e-009
-4.330842e-009
-2.146648e-009
9.825187e-010
3.523528e-009
3.891214e-009
1.760980e-009
-1.396285e-009
-3.297992e-009
-2.642360e-009
-1.164700e-010
2.279791e-009
2.905633e-009
1.621390e-009
-4.333767e-010
-1.918131e-009
-2.150031e-009
-1.234800e-009
2.354816e-010
1.486064e-009
1.827205e-009
1.014947e-009
-4.710993e-010
-1.626090e-009
3.502068e-009
9.708050e-010
-1.871348e-009
-2.910838e-009
-1.783838e-009
3.072900e-010
1.937144e-009
2.370949e-009
1.475391e-009
-5.773683e-010
-3.082826e-009
-4.542680e-009
-3.359327e-009
6.435446e-010
5.402791e-009
7.760841e-009
5.889436e-009
8.086864e-010
-4.445614e-009
-7.185419e-009
-6.769305e-009
-4.341587e-009
-1.347477e-009
1.497190e-009
4.023133e-009
5.916896e-009
6.570558e-009
5.611777e-009
3.372125e-009
6.998171e-010
-1.653807e-009
-3.408889e-009
-4.606249e-009
-5.258456e-009
-5.246339e-009
-4.503240e-009
-3.180485e-009
-1.575818e-009
6.959349e-011
1.667548e-009
3.204049e-009
4.625560e-009
5.831214e-009
6.753677e-009
7.412605e-009
7.881430e-009
8.216900e-009
8.428127e-009
8.501951e-009
8.442690e-009
8.283410e-009
8.061939e-009
7.785100e-009
7.413138e-009
6.883357e-009
6.159101e-009
5.257813e-009
4.222387e-009
3.063094e-009
1.747365e-009
2.728072e-010
-1.248488e-009
-2.605074e-009
-3.604738e-009
-4.162434e-009
-4.246280e-009
-3.760698e-009
-2.564812e-009
-6.764373e-010
1.554968e-009
3.550532e-009
4.816024e-009
5.129266e-009
4.419139e-009
2.598228e-009
-2.597387e-010
-3.477286e-009
-5.687969e-009
-5.559527e-009
-2.893352e-009
9.530411e-010
3.887092e-009
4.514333e-009
2.945197e-009
4.083311e-010
-1.733756e-009
-2.630990e-009
-2.031299e-009
-2.665724e-010
1.655668e-009
2.332818e-009
9.763236e-010
-1.562670e-009
-3.076629e-009
-1.873673e-009
1.363214e-009
3.814465e-009
3.042197e-009
-5.318869e-010
-3.791748e-009
6.498329e-009
-1.413092e-010
-6.550777e-009
-6.562135e-009
-3.663379e-010
6.249030e-009
7.642343e-009
3.148549e-009
-3.176319e-009
-6.703884e-009
-5.823944e-009
-2.118503e-009
1.872820e-009
4.487353e-009
5.084939e-009
3.510128e-009
1.671634e-010
-3.521965e-009
-5.462112e-009
-4.287762e-009
-5.590064e-010
3.574983e-009
6.011201e-009
6.062313e-009
4.406626e-009
2.023987e-009
-5.937489e-010
-3.299779e-009
-5.740222e-009
-7.242568e-009
-7.277729e-009
-5.894923e-009
-3.627327e-009
-1.030870e-009
1.616964e-009
4.221958e-009
6.628849e-009
8.568073e-009
9.822526e-009
1.037525e-008
1.036854e-008
9.953091e-009
9.208036e-009
8.188692e-009
7.003385e-009
5.814482e-009
4.770302e-009
3.951075e-009
3.380331e-009
3.074361e-009
3.068702e-009
3.394274e-009
4.031093e-009
4.890820e-009
5.851205e-009
6.810410e-009
7.701825e-009
8.449265e-009
8.917653e-009
8.935838e-009
8.389881e-009
7.287976e-009
5.716244e-009
3.743702e-009
1.422529e-009
-1.079984e-009
-3.381931e-009
-5.001293e-009
-5.621685e-009
-5.228116e-009
-3.963859e-009
-1.933175e-009
7.059183e-010
3.399372e-009
5.107397e-009
4.846941e-009
2.531508e-009
-7.236501e-010
-3.250972e-009
-3.902780e-009
-2.614023e-009
-1.475511e-010
2.434866e-009
4.026517e-009
3.650333e-009
1.052833e-009
-2.556924e-009
-4.740946e-009
-3.581017e-009
3.272304e-010
3.844507e-009
3.876590e-009
3.952086e-010
-3.260147e-009
-3.496474e-009
-7.831329e-011
3.517334e-009
3.570134e-009
-5.576922e-011
-3.719290e-009
7.074414e-009
-7.230414e-010
-7.892668e-009
-7.095462e-009
8.477855e-010
8.229535e-009
8.214051e-009
1.169411e-009
-6.270355e-009
-7.789989e-009
-2.885938e-009
3.567140e-009
6.313871e-009
4.002783e-009
-7.739523e-010
-4.557979e-009
-5.635177e-009
-4.206428e-009
-1.147309e-009
2.693967e-009
6.237912e-009
8.050842e-009
7.095475e-009
3.662332e-009
-6.759601e-010
-4.174648e-009
-5.992702e-009
-6.274063e-009
-5.444815e-009
-3.678589e-009
-1.038670e-009
2.101584e-009
5.007003e-009
6.981032e-009
7.739887e-009
7.376620e-009
6.049053e-009
3.790045e-009
6.015091e-010
-3.367218e-009
-7.804471e-009
-1.238653e-008
-1.690278e-008
-2.123367e-008
-2.524949e-008
-2.876823e-008
-3.161023e-008
-3.366826e-008
-3.491048e-008
-3.532505e-008
-3.488068e-008
-3.354978e-008
-3.136360e-008
-2.843171e-008
-2.490062e-008
-2.090055e-008
-1.654763e-008
-1.200260e-008
-7.507640e-009
-3.335833e-009
3.032347e-010
3.285844e-009
5.487694e-009
6.709458e-009
6.758519e-009
5.644924e-009
3.667889e-009
1.260915e-009
-1.232279e-009
-3.553952e-009
-5.291315e-009
-5.776743e-009
-4.450656e-009
-1.458726e-009
2.150995e-009
4.949971e-009
5.940879e-009
4.947906e-009
2.425696e-009
-8.127692e-010
-3.593260e-009
-4.498740e-009
-2.680988e-009
1.021472e-009
4.027341e-009
3.799914e-009
2.472427e-010
-3.724536e-009
-4.567213e-009
-1.422360e-009
2.889473e-009
4.457620e-009
2.030669e-009
-1.836154e-009
-3.419743e-009
-1.539635e-009
1.463408e-009
2.382676e-009
5.297508e-010
-1.728082e-009
4.513862e-009
-4.620556e-010
-4.833772e-009
-3.931723e-009
1.236242e-009
5.166868e-009
3.614843e-009
-1.991731e-009
-5.931161e-009
-3.928770e-009
2.533380e-009
7.587762e-009
6.538217e-009
8.968250e-011
-6.610811e-009
-8.709933e-009
-5.414774e-009
2.987061e-010
4.837081e-009
6.544331e-009
5.768342e-009
3.472513e-009
3.916818e-010
-2.715747e-009
-4.740974e-009
-4.680624e-009
-2.439331e-009
1.024160e-009
4.418273e-009
6.914863e-009
8.260043e-009
8.324424e-009
6.789863e-009
3.328535e-009
-2.048030e-009
-8.947824e-009
-1.689730e-008
-2.560875e-008
-3.494890e-008
-4.473143e-008
-5.462302e-008
-6.425134e-008
-7.334814e-008
-8.175595e-008
-8.932187e-008
-9.582841e-008
-1.010367e-007
-1.047728e-007
-1.069511e-007
-1.075255e-007
-1.064464e-007
-1.036850e-007
-9.929355e-008
-9.342331e-008
-8.627647e-008
-7.805338e-008
-6.896454e-008
-5.928763e-008
-4.937597e-008
-3.957429e-008
-3.012677e-008
-2.120136e-008
-1.301986e-008
-5.925461e-009
-2.642528e-010
3.806805e-009
6.341738e-009
7.408402e-009
6.943444e-009
4.936080e-009
1.813880e-009
-1.437444e-009
-3.676202e-009
-4.202914e-009
-3.000690e-009
-5.215511e-010
2.526573e-009
5.091505e-009
5.796279e-009
3.671056e-009
-6.858427e-010
-4.814273e-009
-5.881356e-009
-3.051545e-009
1.502321e-009
4.243251e-009
3.281498e-009
-6.179777e-011
-2.635541e-009
-2.389555e-009
-1.958380e-011
2.058790e-009
2.110846e-009
4.522515e-010
-1.258666e-009
-1.732670e-009
-1.001209e-009
3.997329e-011
6.779515e-010
8.685779e-010
-8.342577e-010
5.370240e-011
1.116217e-009
1.559270e-009
9.384961e-010
-6.912386e-010
-2.643432e-009
-3.572332e-009
-2.142856e-009
1.580101e-009
5.335583e-009
5.933800e-009
2.097228e-009
-3.782542e-009
-7.170379e-009
-5.218600e-009
6.587052e-010
5.996491e-009
7.081199e-009
3.719205e-009
-1.303680e-009
-4.939168e-009
-5.908468e-009
-4.594730e-009
-1.796791e-009
1.931946e-009
5.950857e-009
9.148474e-009
1.027715e-008
8.652196e-009
4.372012e-009
-2.141507e-009
-1.068004e-008
-2.129404e-008
-3.395732e-008
-4.836707e-008
-6.410644e-008
-8.090215e-008
-9.864009e-008
-1.171530e-007
-1.360623e-007
-1.548392e-007
-1.729684e-007
-1.900101e-007
-2.055300e-007
-2.190329e-007
-2.300049e-007
-2.380160e-007
-2.427723e-007
-2.440862e-007
-2.418428e-007
-2.360262e-007
-2.267797e-007
-2.144178e-007
-1.993706e-007
-1.821298e-007
-1.632584e-007
-1.434235e-007
-1.233528e-007
-1.036964e-007
-8.491554e-008
-6.731768e-008
-5.118907e-008
-3.683635e-008
-2.445922e-008
-1.402684e-008
-5.384946e-009
1.456035e-009
6.190061e-009
8.464592e-009
8.288368e-009
6.163675e-009
2.853550e-009
-8.324102e-010
-3.939988e-009
-5.282143e-009
-3.941726e-009
-2.578303e-010
3.751849e-009
5.444825e-009
3.561695e-009
-5.889032e-010
-4.038018e-009
-4.472017e-009
-1.915047e-009
1.574495e-009
3.645409e-009
3.220329e-009
8.844492e-010
-1.720890e-009
-2.886686e-009
-1.835417e-009
6.361255e-010
2.501171e-009
2.046288e-009
-4.584646e-010
-2.718142e-009
-2.466948e-009
2.170695e-010
2.815683e-009
-6.866027e-009
2.556642e-010
6.884785e-009
6.566109e-009
1.193299e-010
-6.026777e-009
-6.579426e-009
-1.918156e-009
3.380121e-009
5.274861e-009
3.186945e-009
-7.197189e-010
-3.815093e-009
-4.399020e-009
-2.012622e-009
2.369716e-009
6.318708e-009
7.049106e-009
3.506594e-009
-2.393025e-009
-6.931834e-009
-7.368536e-009
-3.804173e-009
1.416280e-009