# vtk DataFile Version 3.0
vtk output
ASCII
DATASET STRUCTURED_POINTS
DIMENSIONS 100 100 1
SPACING 1 1 1
ORIGIN 0 0 0
POINT_DATA 10000
SCALARS SFBox_profile double
LOOKUP_TABLE default 
0.000000e+000
0.000000e+000
0.000000e+000
0.000000e+000
0.000000e+000
0.000000e+000
0.000000e+000
0.000000e+000
0.000000e+000
0.000000e+000
0.000000e+000
0.000000e+000
0.000000e+000
0.000000e+000
0.000000e+000
0.000000e+000
0.000000e+000
0.000000e+000
0.000000e+000
0.000000e+000
0.000000e+000
0.000000e+000
0.000000e+000
0.000000e+000
0.000000e+000
0.000000e+000
0.000000e+000
0.000000e+000
0.000000e+000
0.000000e+000
0.000000e+000
0.000000e+000
0.000000e+000
0.000000e+000
0.000000e+000
0.000000e+000
0.000000e+000
0.000000e+000
0.000000e+000
0.000000e+000
0.000000e+000
0.000000e+000
0.000000e+000
0.000000e+000
0.000000e+000
0.000000e+000
0.000000e+000
0.000000e+000
0.000000e+000
0.000000e+000
0.000000e+000
0.000000e+000
0.000000e+000
0.000000e+000
0.000000e+000
0.000000e+000
0.000000e+000
0.000000e+000
0.000000e+000
0.000000e+000
0.000000e+000
0.000000e+000
0.000000e+000
0.000000e+000
0.000000e+000
0.000000e+000
0.000000e+000
0.000000e+000
0.000000e+000
0.000000e+000
0.000000e+000
0.000000e+000
0.000000e+000
0.000000e+000
0.000000e+000
0.000000e+000
0.000000e+000
0.000000e+000
0.000000e+000
0.000000e+000
0.000000e+000
0.000000e+000
0.000000e+000
0.000000e+000
0.000000e+000
0.000000e+000
0.000000e+000
0.000000e+000
0.000000e+000
0.000000e+000
0.000000e+000
0.000000e+000
0.000000e+000
0.000000e+000
0.000000e+000
0.000000e+000
0.000000e+000
0.000000e+000
0.000000e+000
0.000000e+000
-6.413328e-010
-3.575074e-010
4.818927e-011
3.752600e-010
5.044235e-010
4.441181e-010
2.823028e-010
9.696798e-011
-9.443337e-011
-3.076470e-010
-5.205815e-010
-6.353205e-010
-5.241546e-010
-1.359219e-010
4.223251e-010
9.068074e-010
1.065656e-009
7.931816e-010
2.011236e-010
-4.458739e-010
-8.859192e-010
-9.986472e-010
-8.378253e-010
-5.517887e-010
-2.658592e-010
-1.676404e-011
2.252427e-010
4.848535e-010
7.316393e-010
8.925845e-010
9.089186e-010
7.830692e-010
5.761443e-010
3.625199e-010
1.827071e-010
3.116962e-011
-1.184500e-010
-2.788939e-010
-4.358614e-010
-5.623302e-010
-6.427366e-010
-6.843393e-010
-7.083946e-010
-7.322211e-010
-7.585181e-010
-7.787483e-010
-7.843175e-010
-7.745381e-010
-7.558364e-010
-7.351568e-010
-7.141726e-010
-6.882903e-010
-6.497510e-010
-5.918244e-010
-5.117081e-010
-4.111693e-010
-2.948207e-010
-1.668242e-010
-2.832450e-011
1.213730e-010
2.791030e-010
4.314338e-010
5.540863e-010
6.204442e-010
6.144846e-010
5.380080e-010
4.057508e-010
2.331114e-010
2.963052e-011
-1.928693e-010
-4.038526e-010
-5.481952e-010
-5.652489e-010
-4.262401e-010
-1.633079e-010
1.357987e-010
3.688786e-010
4.690422e-010
4.284997e-010
2.838805e-010
8.297517e-011
-1.343275e-010
-3.274483e-010
-4.386882e-010
-4.024578e-010
-1.905698e-010
1.377441e-010
4.330597e-010
5.258580e-010
3.365152e-010
-5.162122e-011
-4.205951e-010
-5.449356e-010
-3.396035e-010
7.387721e-011
4.364007e-010
5.165478e-010
2.635973e-010
-1.562581e-010
-4.677403e-010
-2.865253e-010
-1.128192e-010
1.134958e-010
2.464922e-010
2.142859e-010
6.042556e-011
-9.724583e-011
-1.555299e-010
-9.579893e-011
1.399257e-011
8.103950e-011
6.150048e-011
-1.128206e-011
-6.294012e-011
-4.522230e-011
2.291345e-011
7.379642e-011
5.208200e-011
-3.431092e-011
-1.170426e-010
-1.220736e-010
-3.078242e-011
1.029462e-010
1.929502e-010
1.845216e-010
9.041075e-011
-2.666787e-011
-1.060435e-010
-1.309957e-010
-1.292240e-010
-1.380444e-010
-1.684792e-010
-1.984210e-010
-1.962844e-010
-1.504944e-010
-7.867817e-011
-1.142842e-011
3.213519e-011
5.548630e-011
7.566289e-011
1.053050e-010
1.423926e-010
1.746321e-010
1.917733e-010
1.938518e-010
1.893216e-010
1.867595e-010
1.882721e-010
1.894097e-010
1.840195e-010
1.691188e-010
1.462769e-010
1.195532e-010
9.224259e-011
6.466314e-011
3.414113e-011
-2.737430e-012
-4.664177e-011
-9.304643e-011
-1.332082e-010
-1.588630e-010
-1.674519e-010
-1.631113e-010
-1.516541e-010
-1.336017e-010
-1.025283e-010
-5.214080e-011
1.307105e-011
7.416596e-011
1.072230e-010
1.003199e-010
6.376674e-011
2.329442e-011
4.990596e-013
-2.790677e-012
-1.911798e-012
-1.074188e-011
-2.508824e-011
-2.553208e-011
1.043645e-012
4.157247e-011
6.052297e-011
2.890213e-011
-4.477758e-011
-1.111998e-010
-1.134677e-010
-3.389702e-011
8.392765e-011
1.598453e-010
1.340934e-010
1.458527e-011
-1.229119e-010
-1.848796e-010
-1.257086e-010
1.838091e-011
1.522354e-010
1.861260e-010
9.698552e-011
-5.568085e-011
-1.699176e-010
2.131059e-010
1.952740e-010
1.349878e-010
7.239616e-012
-1.803108e-010
-3.679024e-010
-4.570553e-010
-3.597378e-010
-6.097201e-011
3.454124e-010
6.811867e-010
7.672773e-010
5.237763e-010
2.531909e-011
-5.268171e-010
-9.031735e-010
-9.574202e-010
-6.864505e-010
-2.114325e-010
2.968381e-010
6.958705e-010
9.107225e-010
9.284569e-010
7.719480e-010
4.806001e-010
1.064509e-010
-2.855662e-010
-6.268845e-010
-8.643850e-010
-9.763234e-010
-9.727108e-010
-8.806525e-010
-7.270884e-010
-5.312659e-010
-3.085477e-010
-7.699008e-011
1.422980e-010
3.318485e-010
4.847260e-010
6.048102e-010
7.003383e-010
7.766717e-010
8.341351e-010
8.714024e-010
8.899981e-010
8.953621e-010
8.938330e-010
8.886655e-010
8.785355e-010
8.593263e-010
8.272220e-010
7.805087e-010
7.190227e-010
6.421719e-010
5.474470e-010
4.308798e-010
2.895049e-010
1.244481e-010
-5.735295e-011
-2.439737e-010
-4.211545e-010
-5.745533e-010
-6.898249e-010
-7.512680e-010
-7.421618e-010
-6.494880e-010
-4.720869e-010
-2.273635e-010
4.864489e-011
3.088509e-010
5.062595e-010
6.033513e-010
5.780318e-010
4.287092e-010
1.805328e-010
-1.108259e-010
-3.661143e-010
-5.052125e-010
-4.795418e-010
-2.975433e-010
-2.662134e-011
2.325166e-010
3.868387e-010
3.869458e-010
2.428060e-010
1.643853e-011
-2.018705e-010
-3.253025e-010
-3.029485e-010
-1.441169e-010
7.805333e-011
2.538021e-010
2.902525e-010
1.658915e-010
-4.923520e-011
-2.281873e-010
-2.623343e-010
-1.312670e-010
8.078591e-011
2.371183e-010
5.799853e-010
3.495700e-010
1.128789e-011
-2.843781e-010
-4.455651e-010
-4.651451e-010
-3.794223e-010
-2.115228e-010
4.006720e-011
3.565458e-010
6.476376e-010
7.605305e-010
5.669265e-010
7.244965e-011
-5.416356e-010
-9.942630e-010
-1.060372e-009
-7.038828e-010
-9.619892e-011
4.905248e-010
8.385093e-010
8.837817e-010
7.060111e-010
4.379851e-010
1.738108e-010
-6.170009e-011
-2.799863e-010
-4.788753e-010
-6.243846e-010
-6.743298e-010
-6.149190e-010
-4.746982e-010
-3.054478e-010
-1.494746e-010
-2.082156e-011
8.863120e-011
1.895832e-010
2.816996e-010
3.554164e-010
4.030583e-010
4.267249e-010
4.363916e-010
4.419443e-010
4.473287e-010
4.511549e-010
4.513512e-010
4.485645e-010
4.455764e-010
4.443854e-010
4.443542e-010
4.429295e-010
4.375693e-010
4.266031e-010
4.083748e-010
3.800640e-010
3.378898e-010
2.787676e-010
2.018235e-010
1.083414e-010
6.490873e-013
-1.179967e-010
-2.413014e-010
-3.571144e-010
-4.473202e-010
-4.923721e-010
-4.783198e-010
-4.014899e-010
-2.679332e-010
-9.015402e-011
1.132357e-010
3.128635e-010
4.649008e-010
5.184054e-010
4.372937e-010
2.266141e-010
-5.633575e-011
-3.191696e-010
-4.735528e-010
-4.730688e-010
-3.274351e-010
-8.939255e-011
1.697091e-010
3.772090e-010
4.670380e-010
3.922243e-010
1.521117e-010
-1.795180e-010
-4.590068e-010
-5.325672e-010
-3.309437e-010
6.314476e-011
4.365723e-010
5.637078e-010
3.537615e-010
-7.470766e-011
-4.555096e-010
-5.433325e-010
-2.788658e-010
1.655207e-010
4.968265e-010
6.402617e-010
2.636476e-010
-2.257866e-010
-5.149667e-010
-4.569681e-010
-1.511350e-010
1.583005e-010
2.741438e-010
1.779435e-010
9.597478e-012
-7.161551e-011
-2.101044e-011
7.123399e-011
7.999065e-011
-2.992321e-011
-1.657773e-010
-1.885468e-010
-4.160783e-011
1.867628e-010
3.232997e-010
2.440606e-010
-2.678531e-011
-3.322765e-010
-4.959415e-010
-4.404865e-010
-2.228654e-010
2.910488e-011
2.157742e-010
3.198812e-010
3.846275e-010
4.505301e-010
5.123853e-010
5.287216e-010
4.653733e-010
3.288742e-010
1.618900e-010
1.025798e-011
-1.064400e-010
-1.978185e-010
-2.828322e-010
-3.688420e-010
-4.470938e-010
-5.040622e-010
-5.347474e-010
-5.458247e-010
-5.482990e-010
-5.484608e-010
-5.450709e-010
-5.331969e-010
-5.093432e-010
-4.731775e-010
-4.258155e-010
-3.677819e-010
-2.987871e-010
-2.186613e-010
-1.277544e-010
-2.675808e-011
8.245968e-011
1.943875e-010
2.979368e-010
3.782527e-010
4.225285e-010
4.255646e-010
3.898443e-010
3.198769e-010
2.172502e-010
8.373668e-011
-6.803114e-011
-2.069283e-010
-2.907879e-010
-2.892762e-010
-2.065705e-010
-8.375653e-011
2.476825e-011
8.411310e-011
9.450172e-011
7.779662e-011
5.013194e-011
9.495591e-012
-4.823110e-011
-1.028699e-010
-1.075410e-010
-2.512712e-011
1.228072e-010
2.446769e-010
2.323136e-010
4.970433e-011
-2.144615e-010
-3.863882e-010
-3.255948e-010
-3.909351e-011
3.013892e-010
4.658554e-010
3.279477e-010
-3.534644e-011
-3.854091e-010
-4.828920e-010
-2.560711e-010
1.446078e-010
4.476237e-010
3.996956e-010
3.226295e-011
-3.998871e-010
-5.424550e-010
-2.528331e-010
2.927841e-010
7.207976e-010
7.204122e-010
2.580186e-010
-4.014417e-010
-8.733802e-010
-9.004646e-010
-4.966253e-010
9.712050e-011
5.905396e-010
8.148336e-010
7.725593e-010
5.622390e-010
2.691852e-010
-7.856191e-011
-4.671832e-010
-8.306368e-010
-1.042280e-009
-9.851282e-010
-6.424621e-010
-1.272099e-010
3.797769e-010
7.350041e-010
9.000387e-010
9.272137e-010
8.888270e-010
8.157191e-010
6.914898e-010
4.936248e-010
2.346156e-010
-3.520791e-011
-2.609871e-010
-4.189039e-010
-5.233791e-010
-6.046472e-010
-6.807159e-010
-7.476122e-010
-7.912791e-010
-8.054639e-010
-7.985803e-010
-7.861185e-010
-7.784559e-010
-7.753661e-010
-7.698292e-010
-7.552013e-010
-7.289309e-010
-6.913046e-010
-6.424285e-010
-5.806160e-010
-5.024378e-010
-4.031969e-010
-2.778760e-010
-1.238525e-010
5.484911e-011
2.450158e-010
4.268921e-010
5.811226e-010
6.939749e-010
7.553451e-010
7.515852e-010
6.629388e-010
4.739963e-010
1.935328e-010
-1.323572e-010
-4.292524e-010
-6.244891e-010
-6.785152e-010
-5.950804e-010
-4.060917e-010
-1.498845e-010
1.340623e-010
3.917865e-010
5.469026e-010
5.246163e-010
3.046187e-010
-3.727318e-011
-3.451730e-010
-4.645156e-010
-3.402103e-010
-5.872795e-011
2.042573e-010
2.987881e-010
1.965084e-010
-1.324707e-012
-1.461092e-010
-1.498118e-010
-3.866839e-011
8.124041e-011
1.125506e-010
3.870016e-011
-7.190544e-011
-1.259379e-010
-7.899278e-011
3.263942e-011
1.228473e-010
-5.383767e-012
-1.658558e-010
-3.207861e-010
-2.761745e-010
3.476956e-011
4.765069e-010
7.747704e-010
6.888913e-010
1.848434e-010
-5.113351e-010
-1.028873e-009
-1.071727e-009
-6.004722e-010
1.449384e-010
7.948078e-010
1.066616e-009
9.042276e-010
4.610558e-010
-3.398445e-011
-4.146327e-010
-6.276160e-010
-6.905813e-010
-6.260443e-010
-4.398319e-010
-1.517874e-010
1.704450e-010
4.237359e-010
5.263021e-010
4.697687e-010
3.192146e-010
1.612363e-010
4.545674e-011
-3.349416e-011
-1.065167e-010
-1.874444e-010
-2.572007e-010
-2.841338e-010
-2.558319e-010
-1.912024e-010
-1.242138e-010
-7.744982e-011
-4.971626e-011
-2.545967e-011
6.548722e-012
4.313239e-011
7.172782e-011
8.253165e-011
7.567733e-011
5.872949e-011
3.923738e-011
1.973958e-011
-1.813159e-012
-2.852780e-011
-6.139253e-011
-9.774225e-011
-1.310304e-010
-1.520592e-010
-1.522545e-010
-1.278751e-010
-8.172001e-011
-1.984400e-011
5.427179e-011
1.414097e-010
2.398608e-010
3.346876e-010
3.944302e-010
3.831039e-010
2.820940e-010
1.055021e-010
-1.042655e-010
-2.972805e-010
-4.353354e-010
-4.947245e-010
-4.566762e-010
-3.053058e-010
-4.656068e-011
2.641678e-010
5.180598e-010
5.945861e-010
4.333015e-010
8.655570e-011
-2.922147e-010
-5.264568e-010
-5.130687e-010
-2.752539e-010
5.874086e-011
3.303639e-010
4.287007e-010
3.311383e-010
9.859268e-011
-1.585211e-010
-3.249962e-010
-3.257961e-010
-1.615063e-010
8.317968e-011
2.743696e-010
3.010246e-010
1.455605e-010
-9.724008e-011
-2.749272e-010
-4.075078e-010
-2.166933e-010
4.165949e-011
2.282800e-010
2.833009e-010
2.409440e-010
1.647785e-010
7.769684e-011
-4.197559e-011
-1.999854e-010
-3.334685e-010
-3.352364e-010
-1.478633e-010
1.566544e-010
3.966654e-010
4.024156e-010
1.480576e-010
-2.154954e-010
-4.592014e-010
-4.314939e-010
-1.524106e-010
2.176153e-010
4.962691e-010
5.865826e-010
5.005006e-010
3.058424e-010
6.141246e-011
-2.041040e-010
-4.688373e-010
-6.918908e-010
-8.198766e-010
-8.199539e-010
-7.042997e-010
-5.207447e-010
-3.186642e-010
-1.215480e-010
7.225216e-011
2.677500e-010
4.553985e-010
6.136332e-010
7.261330e-010
7.948300e-010
8.365710e-010
8.683702e-010
8.957513e-010
9.132969e-010
9.140216e-010
8.973566e-010
8.692502e-010
8.362303e-010
7.997857e-010
7.553119e-010
6.951724e-010
6.129220e-010
5.063320e-010
3.782960e-010
2.354589e-010
8.519980e-011
-6.683145e-011
-2.157636e-010
-3.526551e-010
-4.599052e-010
-5.132029e-010
-4.920686e-010
-3.928736e-010
-2.340872e-010
-4.895186e-011
1.281764e-010
2.700398e-010
3.543319e-010
3.593469e-010
2.703139e-010
9.796583e-011
-1.068966e-010
-2.638750e-010
-3.019587e-010
-2.038024e-010
-2.161852e-011
1.504045e-010
2.290853e-010
1.842430e-010
4.558494e-011
-1.203022e-010
-2.400405e-010
-2.557402e-010
-1.429010e-010
6.984886e-011
2.910168e-010
3.927399e-010
2.821988e-010
-1.851086e-011
-3.513088e-010
-5.016685e-010
-3.440806e-010
4.915045e-011
4.312798e-010
5.405143e-010
2.889772e-010
-1.617456e-010
-5.051434e-010
-6.679637e-010
-1.408437e-010
4.892329e-010
7.375937e-010
4.230915e-010
-2.140914e-010
-7.122226e-010
-7.333797e-010
-2.878916e-010
3.125652e-010
7.044927e-010
7.140800e-010
4.184963e-010
2.178176e-011
-3.153451e-010
-5.461475e-010
-6.809402e-010
-6.964197e-010
-5.214745e-010
-1.175192e-010
4.320949e-010
9.237686e-010
1.142666e-009
9.957375e-010
5.631325e-010
3.339003e-011
-4.173941e-010
-7.076741e-010
-8.467496e-010
-8.750855e-010
-8.143197e-010
-6.649181e-010
-4.358245e-010
-1.644336e-010
9.561522e-011
3.045324e-010
4.541506e-010
5.593459e-010
6.357621e-010
6.863671e-010
7.061730e-010
6.954052e-010
6.655665e-010
6.331133e-010
6.085959e-010
5.921084e-010
5.780270e-010
5.629784e-010
5.493641e-010
5.423013e-010
5.439143e-010
5.502057e-010
5.525463e-010
5.419595e-010
5.128050e-010
4.634392e-010
3.937605e-010
3.019708e-010
1.839970e-010
3.756476e-011
-1.310015e-010
-3.026364e-010
-4.486166e-010
-5.398515e-010
-5.558222e-010
-4.872223e-010
-3.336093e-010
-1.037686e-010
1.763184e-010
4.542690e-010
6.553508e-010
7.079303e-010
5.798752e-010
3.015486e-010
-4.285350e-011
-3.506609e-010
-5.387408e-010
-5.634165e-010
-4.227214e-010
-1.561456e-010
1.522623e-010
3.838610e-010
4.292333e-010
2.570715e-010
-4.084823e-011
-2.824558e-010
-3.079422e-010
-1.003429e-010
1.850845e-010
3.243221e-010
1.955445e-010
-1.151349e-010
-3.672752e-010
-3.494357e-010
-5.206469e-011
3.118226e-010
4.636548e-010
2.759803e-010
-1.222073e-010
-4.383892e-010
-6.822397e-010
-3.826777e-011
7.075945e-010
9.339206e-010
4.146081e-010
-5.122541e-010
-1.194962e-009
-1.141091e-009
-3.618535e-010
6.526218e-010
1.286889e-009
1.208700e-009
5.434220e-010
-2.758813e-010
-8.292291e-010
-9.494787e-010
-7.345089e-010
-3.843934e-010
-3.643609e-011
2.727618e-010
5.320352e-010
6.820988e-010
6.336350e-010
3.574994e-010
-5.153155e-011
-4.110672e-010
-5.642963e-010
-4.756980e-010
-2.338836e-010
2.970745e-011
2.304567e-010
3.595549e-010
4.469970e-010
5.087172e-010
5.284534e-010
4.811707e-010
3.651793e-010
2.093205e-010
5.200981e-011
-8.420353e-011
-1.995559e-010
-3.040866e-010
-4.014037e-010
-4.845298e-010
-5.442029e-010
-5.783570e-010
-5.931335e-010
-5.959728e-010
-5.887281e-010
-5.671638e-010
-5.261503e-010
-4.648528e-010
-3.872691e-010
-2.984624e-010
-2.008279e-010
-9.439185e-011
1.879079e-011
1.301679e-010
2.247884e-010
2.868738e-010
3.067566e-010
2.835590e-010
2.221741e-010
1.294316e-010
1.584582e-011
-9.715130e-011
-1.735914e-010
-1.731884e-010
-7.454305e-011
1.041053e-010
3.049252e-010
4.549457e-010
4.983054e-010
4.141165e-010
2.137191e-010
-6.793008e-011
-3.703213e-010
-6.008131e-010
-6.507438e-010
-4.511382e-010
-4.211948e-011
4.056096e-010
6.623357e-010
5.786377e-010
1.979244e-010
-2.525569e-010
-5.035339e-010
-4.236863e-010
-1.046448e-010
2.143457e-010
3.241933e-010
1.898730e-010
-4.528029e-011
-1.878154e-010
-1.461493e-010
1.262814e-011
1.361626e-010
1.203698e-010
-8.853547e-012
-1.279069e-010
-3.894646e-010
2.099597e-011
4.901278e-010
6.102312e-010
2.306077e-010
-4.171433e-010
-8.750770e-010
-7.889347e-010
-1.746553e-010
5.776484e-010
9.726278e-010
7.581556e-010
9.734545e-011
-5.595200e-010
-7.995419e-010
-5.214763e-010
3.415025e-011
4.936216e-010
6.139710e-010
4.035034e-010
4.276805e-011
-2.856899e-010
-5.036710e-010
-6.163640e-010
-6.279849e-010
-5.009788e-010
-1.992142e-010
2.405417e-010
6.930120e-010
1.009444e-009
1.107733e-009
1.010388e-009
8.048496e-010
5.697808e-010
3.320596e-010
8.047596e-011
-1.919208e-010
-4.631277e-010
-6.945515e-010
-8.612670e-010
-9.682555e-010
-1.039986e-009
-1.097516e-009
-1.145461e-009
-1.177234e-009
-1.188664e-009
-1.185016e-009
-1.176318e-009
-1.168078e-009
-1.157257e-009
-1.136235e-009
-1.099251e-009
-1.044494e-009
-9.706608e-010
-8.729187e-010
-7.436564e-010
-5.781997e-010
-3.802739e-010
-1.620225e-010
6.095839e-011
2.736212e-010
4.594999e-010
5.952912e-010
6.510460e-010
6.023712e-010
4.493519e-010
2.270024e-010
-4.517118e-012
-1.853838e-010
-2.786494e-010
-2.745554e-010
-1.805515e-010
-1.585231e-011
1.786507e-010
3.297460e-010
3.493470e-010
1.887684e-010
-1.040519e-010
-3.810671e-010
-4.711156e-010
-2.967853e-010
5.600507e-011
3.795064e-010
4.775008e-010
2.961164e-010
-4.388598e-011
-3.338707e-010
-4.146220e-010
-2.657953e-010
3.677661e-012
2.388543e-010
3.284043e-010
2.490968e-010
5.797596e-011
-1.453281e-010
-2.634393e-010
-2.415340e-010
-9.331021e-011
1.016414e-010
2.365250e-010
1.699819e-010
4.906900e-011
-9.261187e-011
-1.522355e-010
-1.058864e-010
-7.249616e-012
7.967469e-011
1.326145e-010
1.551760e-010
1.269365e-010
-1.354277e-012
-2.394520e-010
-4.842192e-010
-5.418738e-010
-2.664749e-010
2.882696e-010
8.479806e-010
1.075297e-009
7.991442e-010
1.371953e-010
-5.843895e-010
-1.045275e-009
-1.110538e-009
-8.539381e-010
-4.441019e-010
-1.521180e-011
3.750144e-010
7.002170e-010
9.126602e-010
9.491849e-010
7.856758e-010
4.754942e-010
1.261834e-010
-1.669798e-010
-3.713044e-010
-5.115004e-010
-6.237903e-010
-7.169358e-010
-7.720851e-010
-7.717322e-010
-7.236066e-010
-6.571933e-010
-6.007312e-010
-5.632074e-010
-5.363970e-010
-5.105308e-010
-4.862399e-010
-4.729247e-010
-4.786180e-010
-5.031296e-010
-5.401883e-010
-5.840100e-010
-6.321754e-010
-6.822511e-010
-7.270243e-010
-7.544642e-010
-7.527335e-010
-7.146425e-010
-6.367344e-010
-5.151630e-010
-3.458318e-010
-1.328802e-010
1.003448e-010
3.099224e-010
4.458276e-010
4.742848e-010
3.915133e-010
2.198122e-010
-5.812239e-012
-2.436648e-010
-4.389672e-010
-5.213486e-010
-4.280860e-010
-1.516860e-010
2.234814e-010
5.387577e-010
6.405753e-010
4.750519e-010
1.281706e-010
-2.230091e-010
-4.155514e-010
-3.882600e-010
-1.971995e-010
3.624267e-011
1.963286e-010
2.195820e-010
1.090094e-010
-7.057260e-011
-2.125614e-010
-2.148489e-010
-4.757310e-011
2.012453e-010
3.581147e-010
2.805021e-010
-1.885425e-011
-3.496004e-010
-4.672010e-010
-2.619144e-010
1.392463e-010
4.535131e-010
7.922494e-010
9.371202e-011
-7.121978e-010
-9.689515e-010
-4.678273e-010
4.174399e-010
1.048635e-009
1.007832e-009
3.647674e-010
-4.408661e-010
-9.504750e-010
-9.699471e-010
-6.009735e-010
-7.570554e-011
4.127615e-010
7.545858e-010
8.747835e-010
7.103395e-010
2.672696e-010
-3.106325e-010
-7.683836e-010
-8.799200e-010
-5.985942e-010
-8.968845e-011
3.847373e-010
6.324623e-010
6.192579e-010
4.305946e-010
1.697721e-010
-1.083081e-010
-3.866336e-010
-6.394145e-010
-8.140921e-010
-8.618170e-010
-7.791910e-010
-6.143820e-010
-4.309143e-010
-2.649556e-010
-1.140499e-010
3.936592e-011
1.986144e-010
3.460088e-010
4.600149e-010
5.347250e-010
5.821678e-010
6.182515e-010
6.484625e-010
6.662711e-010
6.623338e-010
6.329313e-010
5.798516e-010
5.045662e-010
4.048214e-010
2.773255e-010
1.225694e-010
-5.396325e-011
-2.444760e-010
-4.401722e-010
-6.275071e-010
-7.831583e-010
-8.759315e-010
-8.788243e-010
-7.838648e-010
-6.076463e-010
-3.832491e-010
-1.474423e-010
6.407371e-011
2.122320e-010
2.552039e-010
1.680295e-010
-2.563438e-011
-2.390395e-010
-3.516998e-010
-2.758795e-010
-1.706012e-011
3.183150e-010
5.772312e-010
6.396597e-010
4.723945e-010
1.340765e-010
-2.541259e-010
-5.478702e-010
-6.232420e-010
-4.304676e-010
-4.260396e-011
3.472240e-010
5.165026e-010
3.597725e-010
-1.456220e-011
-3.364887e-010
-3.665116e-010
-8.831065e-011
2.643690e-010
3.895510e-010
1.695985e-010
-2.200089e-010
-4.497558e-010
-3.143520e-010
8.684840e-011
4.273604e-010
1.144297e-009
1.558128e-010
-9.858488e-010
-1.350945e-009
-6.463421e-010
5.832603e-010
1.410819e-009
1.247549e-009
2.576329e-010
-8.238688e-010
-1.275805e-009
-8.955957e-010
-5.975926e-011
6.355525e-010
8.153411e-010
5.106712e-010
1.709839e-011
-3.767708e-010
-5.478661e-010
-5.088250e-010
-3.005382e-010
4.997694e-011
4.809009e-010
8.494189e-010
9.765418e-010
7.632049e-010
2.715756e-010
-3.080321e-010
-7.779290e-010
-1.039320e-009
-1.106916e-009
-1.044755e-009
-8.983840e-010
-6.807124e-010
-4.033415e-010
-1.035119e-010
1.661219e-010
3.710697e-010
5.144446e-010
6.237315e-010
7.213148e-010
8.082891e-010
8.730609e-010
9.104409e-010
9.300595e-010
9.479498e-010
9.728929e-010
1.001668e-009
1.025460e-009
1.038323e-009
1.039016e-009
1.026547e-009
9.961052e-010
9.396365e-010
8.488309e-010
7.162846e-010
5.348686e-010
2.996381e-010
1.447996e-011
-3.009781e-010
-6.116121e-010
-8.759551e-010
-1.057222e-009
-1.127762e-009
-1.067598e-009
-8.672900e-010
-5.423121e-010
-1.500599e-010
2.118709e-010
4.390891e-010
4.717382e-010
3.291774e-010
1.013407e-010
-9.760908e-011
-1.809256e-010
-1.175362e-010
6.516776e-011
2.889887e-010
4.394072e-010
4.032747e-010
1.373232e-010
-2.681453e-010
-5.982022e-010
-6.297317e-010
-2.975055e-010
2.204501e-010
5.949587e-010
5.749461e-010
1.832562e-010
-2.885142e-010
-4.991504e-010
-3.214586e-010
6.631236e-011
3.382233e-010
2.933140e-010
1.131056e-011
-2.366483e-010
-2.358079e-010
-1.226389e-011
2.054711e-010
9.392410e-010
1.681201e-010
-7.227154e-010
-1.011207e-009
-4.808625e-010
4.219774e-010
9.624693e-010
7.133083e-010
-1.078381e-010
-8.246441e-010
-8.519634e-010
-1.600406e-010
7.144530e-010
1.100624e-009
7.054960e-010
-1.963365e-010
-1.009470e-009
-1.262141e-009
-8.895577e-010
-1.810704e-010
4.914539e-010
9.067808e-010
1.033254e-009
9.233968e-010
6.196985e-010
1.603237e-010
-3.622515e-010
-7.919471e-010
-9.839593e-010
-8.978274e-010
-6.190220e-010
-2.899013e-010
-1.495825e-011
1.810812e-010
3.237786e-010
4.348473e-010
5.087499e-010
5.312317e-010
5.073776e-010
4.654594e-010
4.353706e-010
4.271694e-010
4.306990e-010
4.325875e-010
4.309600e-010
4.348773e-010
4.532664e-010
4.869008e-010
5.303008e-010
5.788344e-010
6.325458e-010
6.939978e-010
7.639210e-010
8.387877e-010
9.103363e-010
9.650896e-010
9.842784e-010
9.468477e-010
8.360736e-010
6.458248e-010
3.820713e-010
6.079696e-011
-2.914622e-010
-6.317452e-010
-8.970897e-010
-1.016147e-009
-9.391242e-010
-6.704363e-010
-2.795046e-010
1.218064e-010
4.216190e-010
5.443416e-010
4.669171e-010
2.222768e-010
-9.954113e-011
-3.617635e-010
-4.259209e-010
-2.322752e-010
1.328558e-010
4.541736e-010
5.123703e-010
2.453735e-010
-1.824909e-010
-4.801907e-010
-4.406726e-010
-1.006287e-010
2.845667e-010
4.367631e-010
2.650577e-010
-7.795112e-011
-3.306876e-010
-3.280717e-010
-1.103782e-010
1.378583e-010
2.478167e-010
1.853004e-010
4.308215e-011
-6.276130e-011
-8.905487e-011
-7.523319e-011
1.597333e-010
6.449587e-011
-4.322788e-011
-7.257244e-011
-8.405911e-012
5.891648e-011
2.218124e-012
-2.098373e-010
-4.309611e-010
-4.128643e-010
-1.825262e-011
5.981881e-010
1.028946e-009
8.943777e-010
1.617363e-010
-7.714088e-010
-1.329305e-009
-1.164177e-009
-3.972206e-010
4.894950e-010
1.005792e-009
9.618284e-010
5.144032e-010
-2.686960e-011
-4.302286e-010
-6.290486e-010
-6.540991e-010
-5.338740e-010
-2.726972e-010
9.827382e-011
4.834950e-010
7.582578e-010
8.476470e-010
7.719898e-010
6.180562e-010
4.685195e-010
3.547140e-010
2.645063e-010
1.814588e-010
1.101813e-010
6.837124e-011
6.341443e-011
8.206925e-011
1.019066e-010
1.095731e-010
1.075386e-010
1.062014e-010
1.125839e-010
1.267979e-010
1.469739e-010
1.754683e-010
2.203415e-010
2.920519e-010
3.986751e-010
5.420774e-010
7.157611e-010
9.048067e-010
1.088065e-009
1.240920e-009
1.335931e-009
1.341610e-009
1.224941e-009
9.637622e-010
5.666796e-010
8.696951e-011
-3.842229e-010
-7.464475e-010
-9.241714e-010
-8.875905e-010
-6.558292e-010
-2.937005e-010
9.085918e-011
3.615078e-010
4.006183e-010
1.821740e-010
-1.793885e-010
-4.642775e-010
-4.733234e-010
-1.689654e-010
2.799025e-010
6.002752e-010
5.993261e-010
2.933239e-010
-1.151132e-010
-3.863806e-010
-3.996223e-010
-2.049325e-010
4.280703e-011
1.961922e-010
1.916820e-010
6.108123e-011
-1.014395e-010
-1.894318e-010
-1.384480e-010
3.049005e-011
2.092917e-010
2.650869e-010
1.384243e-010
-9.833179e-011
-2.827090e-010
-8.512646e-010
-1.306152e-010
7.006625e-010
9.790474e-010
5.107084e-010
-3.246659e-010
-9.233796e-010
-9.218491e-010
-4.000078e-010
2.701933e-010
7.253092e-010
7.996693e-010
5.233841e-010
3.584000e-011
-4.673836e-010
-7.590790e-010
-6.557311e-010
-1.507563e-010
5.100550e-010
9.317995e-010
8.232206e-010
2.106352e-010
-5.695340e-010
-1.100983e-009
-1.154604e-009
-7.889690e-010
-2.395135e-010
2.730250e-010
6.504344e-010
8.901904e-010
1.002888e-009
9.766621e-010
8.109693e-010
5.594209e-010
3.198858e-010
1.758400e-010
1.462524e-010
1.891274e-010
2.482123e-010
2.952327e-010
3.341340e-010
3.757671e-010
4.158060e-010
4.364669e-010
4.242374e-010
3.821688e-010
3.256576e-010
2.689640e-010
2.166543e-010
1.662532e-010
1.170328e-010
7.609777e-011
5.755131e-011
7.688157e-011
1.454082e-010
2.682214e-010
4.457284e-010
6.755644e-010
9.503048e-010
1.249308e-009
1.529727e-009
1.726790e-009
1.769966e-009
1.609747e-009
1.239717e-009
7.015160e-010
7.473099e-011
-5.358854e-010
-1.010535e-009
-1.233355e-009
-1.134412e-009
-7.439671e-010
-2.158725e-010
2.225437e-010
3.870869e-010
2.489686e-010
-4.367813e-011
-2.618751e-010
-2.453790e-010
8.817326e-013
3.254683e-010
5.362554e-010
5.112116e-010
2.515235e-010
-1.291501e-010
-4.545232e-010
-5.585539e-010
-3.721068e-010
1.281663e-011
3.651557e-010
4.513416e-010
2.127274e-010
-1.639202e-010
-3.745897e-010
-2.462924e-010
1.052539e-010
3.652385e-010
2.956883e-010
-4.669076e-011
-3.567524e-010
-1.546293e-009
-2.916620e-010
1.135522e-009
1.577567e-009
7.480725e-010
-6.015842e-010
-1.373868e-009
-1.032024e-009
3.829562e-011
9.423066e-010
1.031683e-009
3.529160e-010
-5.089200e-010
-9.511755e-010
-7.629516e-010
-1.515828e-010
5.098777e-010
9.303891e-010
9.791080e-010
6.480029e-010
2.780592e-011
-6.761464e-010
-1.173303e-009
-1.219466e-009
-7.768463e-010
-5.910704e-011
5.983465e-010
9.468052e-010
9.477826e-010
7.329726e-010
4.672022e-010
2.446648e-010
8.563783e-011
-6.457725e-012
-9.834319e-012
9.529612e-011
2.875442e-010
4.997028e-010
6.581345e-010
7.276978e-010
7.215913e-010
6.739306e-010
6.068298e-010
5.213066e-010
4.122763e-010
2.856415e-010
1.593340e-010
5.019245e-011
-3.801138e-011
-1.141420e-010
-1.890751e-010
-2.655231e-010
-3.362128e-010
-3.894880e-010
-4.152354e-010
-4.049876e-010
-3.464823e-010
-2.194603e-010
-4.924615e-013
3.218089e-010
7.295695e-010
1.169144e-009
1.561395e-009
1.822028e-009
1.879162e-009
1.683499e-009
1.220090e-009
5.311385e-010
-2.604156e-010
-9.578508e-010
-1.352467e-009
-1.323029e-009
-9.120698e-010
-3.182193e-010
2.018601e-010
4.618550e-010
4.242941e-010
1.915211e-010
-6.605066e-011
-1.933972e-010
-1.145786e-010
1.305397e-010
3.888830e-010
4.617731e-010
2.347684e-010
-2.051845e-010
-5.800547e-010
-6.017449e-010
-2.116799e-010
3.288929e-010
6.153634e-010
4.277778e-010
-7.025091e-011
-4.585373e-010
-4.223571e-010
-2.874848e-011
3.419322e-010
3.522450e-010
1.936186e-011
-3.128551e-010
-1.502776e-009
-2.860352e-010
1.062250e-009
1.409265e-009
5.417666e-010
-7.031252e-010
-1.214322e-009
-5.776567e-010
6.022529e-010
1.269034e-009
8.340695e-010
-3.533510e-010
-1.345507e-009
-1.393300e-009
-5.043897e-010
6.528298e-010
1.324455e-009
1.197965e-009
4.987784e-010
-2.992479e-010
-8.207106e-010
-9.302747e-010
-6.695320e-010
-1.551193e-010
4.518669e-010
9.441383e-010
1.122978e-009
9.095620e-010