# vtk DataFile Version 3.0
vtk output
ASCII
DATASET STRUCTURED_POINTS
DIMENSIONS 100 100 1
SPACING 1 1 1
ORIGIN 0 0 0
POINT_DATA 10000
SCALARS SFBox_profile double
LOOKUP_TABLE default 
0.000000e+000
0.000000e+000
0.000000e+000
0.000000e+000
0.000000e+000
0.000000e+000
0.000000e+000
0.000000e+000
0.000000e+000
0.000000e+000
0.000000e+000
0.000000e+000
0.000000e+000
0.000000e+000
0.000000e+000
0.000000e+000
0.000000e+000
0.000000e+000
0.000000e+000
0.000000e+000
0.000000e+000
0.000000e+000
0.000000e+000
0.000000e+000
0.000000e+000
0.000000e+000
0.000000e+000
0.000000e+000
0.000000e+000
0.000000e+000
0.000000e+000
0.000000e+000
0.000000e+000
0.000000e+000
0.000000e+000
0.000000e+000
0.000000e+000
0.000000e+000
0.000000e+000
0.000000e+000
0.000000e+000
0.000000e+000
0.000000e+000
0.000000e+000
0.000000e+000
0.000000e+000
0.000000e+000
0.000000e+000
0.000000e+000
0.000000e+000
0.000000e+000
0.000000e+000
0.000000e+000
0.000000e+000
0.000000e+000
0.000000e+000
0.000000e+000
0.000000e+000
0.000000e+000
0.000000e+000
0.000000e+000
0.000000e+000
0.000000e+000
0.000000e+000
0.000000e+000
0.000000e+000
0.000000e+000
0.000000e+000
0.000000e+000
0.000000e+000
0.000000e+000
0.000000e+000
0.000000e+000
0.000000e+000
0.000000e+000
0.000000e+000
0.000000e+000
0.000000e+000
0.000000e+000
0.000000e+000
0.000000e+000
0.000000e+000
0.000000e+000
0.000000e+000
0.000000e+000
0.000000e+000
0.000000e+000
0.000000e+000
0.000000e+000
0.000000e+000
0.000000e+000
0.000000e+000
0.000000e+000
0.000000e+000
0.000000e+000
0.000000e+000
0.000000e+000
0.000000e+000
0.000000e+000
0.000000e+000
1.140069e-010
1.788475e-011
-8.859868e-011
-1.086243e-010
-1.964233e-011
8.711816e-011
8.559621e-011
-3.007226e-011
-1.049495e-010
-1.431498e-011
1.275863e-010
8.958209e-011
-1.134236e-010
-1.794483e-010
2.579147e-011
2.024427e-010
6.326425e-011
-1.711861e-010
-1.105087e-010
1.400528e-010
1.487320e-010
-9.347506e-011
-1.624964e-010
4.691583e-011
1.544930e-010
-1.391892e-011
-1.447657e-010
-2.703317e-011
1.004895e-010
2.077086e-011
-9.414748e-011
-3.850770e-011
7.315712e-011
5.757608e-011
-1.875614e-011
-5.063331e-012
6.332652e-011
6.510833e-011
1.252067e-011
-1.663892e-012
2.472240e-011
2.440383e-011
-1.101372e-011
-3.273244e-011
-2.775481e-011
-2.816577e-011
-4.647563e-011
-6.154272e-011
-6.168789e-011
-5.952727e-011
-6.450254e-011
-6.957938e-011
-6.771434e-011
-6.227786e-011
-5.773076e-011
-5.262726e-011
-4.479163e-011
-3.495144e-011
-2.364389e-011
-1.086493e-011
1.279083e-012
1.153641e-011
2.328259e-011
3.825275e-011
4.974589e-011
5.182762e-011
5.113260e-011
5.580019e-011
5.758310e-011
4.409360e-011
2.401017e-011
1.474966e-011
8.985912e-012
-1.357932e-011
-4.238792e-011
-4.566127e-011
-2.745464e-011
-2.487076e-011
-3.809567e-011
-2.259720e-011
2.778950e-011
5.524653e-011
2.991883e-011
2.052857e-012
1.501515e-011
2.828449e-011
-1.041322e-011
-6.538795e-011
-5.938595e-011
6.705698e-012
5.333800e-011
3.612572e-011
-3.536607e-012
-1.239655e-011
2.420404e-012
1.530893e-012
-1.951952e-011
-2.634996e-011
-4.316667e-013
3.143644e-011
-3.599318e-011
-3.568602e-012
2.927496e-011
3.022419e-011
2.398203e-014
-2.393244e-011
-1.204412e-011
1.403631e-011
1.013331e-011
-1.832062e-011
-1.936950e-011
1.521654e-011
2.714183e-011
-4.764528e-012
-1.857599e-011
1.398386e-011
2.261688e-011
-2.622572e-011
-4.511901e-011
1.440268e-011
5.056828e-011
-7.587928e-012
-5.522300e-011
-8.345003e-013
5.693626e-011
1.205142e-011
-4.898045e-011
-1.184211e-011
5.354209e-011
3.097136e-011
-3.016928e-011
-2.127299e-011
2.609740e-011
1.573147e-011
-3.466557e-011
-4.174117e-011
-9.779251e-012
-5.135820e-012
-3.050470e-011
-3.390985e-011
-7.987055e-012
7.864209e-012
3.181496e-012
5.402589e-012
2.438708e-011
4.027137e-011
4.268833e-011
4.387248e-011
5.224778e-011
6.013534e-011
6.061756e-011
5.786986e-011
5.697146e-011
5.592635e-011
5.138037e-011
4.406447e-011
3.582362e-011
2.677208e-011
1.703516e-011
7.244047e-012
-3.144020e-012
-1.441231e-011
-2.423198e-011
-3.066482e-011
-3.577523e-011
-4.125179e-011
-4.314354e-011
-3.799627e-011
-3.070353e-011
-2.677058e-011
-2.107569e-011
-6.744544e-012
9.290104e-012
1.518702e-011
1.469972e-011
2.007248e-011
2.746482e-011
2.158568e-011
4.112486e-012
-6.593252e-012
-5.727276e-012
-7.326923e-012
-1.602168e-011
-1.814107e-011
-6.670230e-012
6.777389e-012
1.108099e-011
8.778158e-012
5.479725e-012
1.438484e-012
-2.500359e-012
-3.266336e-012
-2.564345e-012
-4.745828e-012
-6.648402e-012
-5.404838e-013
1.092495e-011
1.359771e-011
8.465632e-013
-1.441469e-011
-1.313173e-010
-1.917046e-011
1.034057e-010
1.227319e-010
1.654556e-011
-1.017758e-010
-8.789467e-011
4.655779e-011
1.116883e-010
-8.864137e-012
-1.482886e-010
-6.861402e-011
1.458807e-010
1.658091e-010
-6.068056e-011
-1.857782e-010
-1.802172e-011
1.529917e-010
4.820912e-011
-1.318461e-010
-7.843987e-011
9.249348e-011
8.248224e-011
-6.092933e-011
-7.459288e-011
4.263750e-011
7.655608e-011
-2.488070e-012
-3.376675e-011
1.953740e-011
3.978094e-011
-8.855036e-012
-4.218406e-011
-2.696815e-011
-1.724130e-011
-3.554619e-011
-4.441377e-011
-2.736844e-011
-9.178454e-012
-1.421035e-012
1.088578e-011
3.336103e-011
5.450539e-011
6.960063e-011
8.491899e-011
1.018793e-010
1.151334e-010
1.234337e-010
1.303863e-010
1.367569e-010
1.400255e-010
1.397235e-010
1.377121e-010
1.343976e-010
1.283523e-010
1.189158e-010
1.067665e-010
9.242127e-011
7.577637e-011
5.704079e-011
3.709796e-011
1.661437e-011
-4.598531e-012
-2.627155e-011
-4.590374e-011
-6.026208e-011
-6.916415e-011
-7.491061e-011
-7.657969e-011
-6.936288e-011
-5.263212e-011
-3.236218e-011
-1.102837e-011
1.534503e-011
4.314062e-011
5.784564e-011
5.562068e-011
5.054181e-011
4.548613e-011
2.016493e-011
-2.826938e-011
-6.141738e-011
-5.112118e-011
-2.597944e-011
-2.223633e-011
-1.777399e-011
2.604354e-011
7.852037e-011
6.761225e-011
-8.205755e-012
-6.565484e-011
-4.915240e-011
1.329238e-012
2.008603e-011
4.890113e-012
-5.995901e-013
1.680452e-011
2.453148e-011
3.361375e-013
-3.104276e-011
-5.829440e-011
-1.004609e-011
4.605266e-011
6.110044e-011
1.369249e-011
-5.718111e-011
-6.613575e-011
2.015141e-011
9.701193e-011
3.063714e-011
-1.116340e-010
-9.716410e-011
9.793433e-011
1.685216e-010
-4.462782e-011
-2.171212e-010
-3.848694e-011
2.162034e-010
1.138482e-010
-1.723715e-010
-1.483741e-010
1.279422e-010
1.628097e-010
-8.465759e-011
-1.636468e-010
3.867145e-011
1.406375e-010
-1.225704e-011
-1.180035e-010
-7.961705e-012
9.366931e-011
2.604721e-011
-5.245102e-011
-1.604479e-013
7.674052e-011
5.991552e-011
1.437095e-011
3.134688e-011
7.214803e-011
6.795977e-011
3.930983e-011
3.617227e-011
4.995386e-011
4.668453e-011
2.940080e-011
2.150738e-011
2.392514e-011
2.201567e-011
1.398907e-011
9.081013e-012
9.393106e-012
9.490410e-012
7.731999e-012
7.341831e-012
9.484232e-012
1.239773e-011
1.562458e-011
2.002443e-011
2.482275e-011
2.888242e-011
3.368671e-011
4.060929e-011
4.656768e-011
4.808973e-011
4.817565e-011
5.125499e-011
5.287007e-011
4.549986e-011
3.385674e-011
2.894490e-011
2.639129e-011
1.209535e-011
-7.676010e-012
-1.074454e-011
-3.853633e-013
-4.915239e-012
-2.343529e-011
-1.899097e-011
1.245804e-011
2.196226e-011
-9.561743e-012
-2.933524e-011
-1.215348e-012
2.605467e-011
1.791581e-012
-3.271741e-011
-1.047994e-011
4.407998e-011
4.873227e-011
-8.227188e-012
-5.297913e-011
-3.595075e-011
9.946491e-012
3.015803e-011
1.659073e-011
-2.954019e-012
-9.496970e-012
-5.662002e-012
-1.749877e-013
2.863744e-012
6.549171e-011
7.861908e-012
-5.277567e-011
-5.453810e-011
4.612887e-012
4.637946e-011
8.813810e-012
-4.628163e-011
-1.302154e-011
6.876491e-011
5.157735e-011
-5.551344e-011
-7.123047e-011
2.903069e-011
4.539471e-011
-6.001810e-011
-5.880863e-011
9.021601e-011
1.073655e-010
-7.329459e-011
-1.254567e-010
6.295093e-011
1.468487e-010
-3.486073e-011
-1.490055e-010
3.021349e-012
1.234348e-010
-4.723671e-012
-1.284353e-010
-2.361135e-011
1.129746e-010
6.836712e-011
-1.665907e-011
4.321650e-011
1.487446e-010
1.401667e-010
7.723970e-011
8.723467e-011
1.373332e-010
1.305201e-010
8.290049e-011
6.802753e-011
8.331421e-011
7.793107e-011
4.974239e-011
3.474492e-011
3.887517e-011
3.854706e-011
2.698637e-011
1.871724e-011
1.946771e-011
2.030115e-011
1.660254e-011
1.355811e-011
1.459846e-011
1.744563e-011
2.105339e-011
2.716957e-011
3.532329e-011
4.362761e-011
5.379306e-011
6.824873e-011
8.360609e-011
9.505731e-011
1.051299e-010
1.176471e-010
1.259164e-010
1.210775e-010
1.091640e-010
1.009011e-010
8.751886e-011
5.261535e-011
6.958097e-012
-2.173247e-011
-3.509100e-011
-5.908023e-011
-8.766921e-011
-8.147248e-011
-3.533952e-011
6.536078e-012
2.117808e-011
3.602888e-011
6.460624e-011
7.083194e-011
2.903599e-011
-2.926809e-011
-5.908854e-011
-5.275576e-011
-2.547493e-011
1.039658e-011
3.725740e-011
3.452101e-011
7.734128e-012
-1.208979e-011
-1.029044e-011
-4.441578e-012
-9.406571e-012
-1.270409e-011
6.784197e-013
1.900439e-011
9.386722e-011
8.494216e-012
-8.184897e-011
-8.836152e-011
4.990301e-012
9.883016e-011
6.343739e-011
-7.565017e-011
-1.142917e-010
4.004967e-011
1.609252e-010
2.390975e-011
-1.767279e-010
-1.004974e-010
1.398584e-010
1.412543e-010
-8.086429e-011
-1.303918e-010
4.224681e-011
9.126233e-011
-4.522452e-011
-7.305447e-011
4.975683e-011
6.657216e-011
-3.685562e-011
-3.176556e-011
7.012428e-011
6.107165e-011
-2.834963e-011
-5.939940e-012
9.145499e-011
8.825211e-011
1.798681e-011
3.646381e-011
1.188930e-010
1.325053e-010
9.299116e-011
1.108192e-010
1.802740e-010
2.132795e-010
2.071453e-010
2.277918e-010
2.809775e-010
3.165989e-010
3.246419e-010
3.393785e-010
3.702620e-010
3.930260e-010
3.977222e-010
3.994321e-010
4.062246e-010
4.087373e-010
4.005858e-010
3.870083e-010
3.723355e-010
3.539766e-010
3.302631e-010
3.036161e-010
2.748957e-010
2.427386e-010
2.086930e-010
1.758595e-010
1.433517e-010
1.096415e-010
7.912899e-011
5.628479e-011
3.689944e-011
1.653588e-011
2.462735e-012
2.302211e-012
7.046875e-012
4.017302e-012
-4.533857e-013
6.457351e-012
1.719638e-011
1.516704e-011
4.032213e-012
-9.185325e-013
6.845728e-013
2.180195e-012
7.626354e-012
1.686664e-011
1.616963e-011
6.029183e-012
5.534653e-012
8.924533e-012
-1.549638e-011
-5.762471e-011
-5.433650e-011
1.521059e-011
7.816417e-011
6.042506e-011
-1.262729e-011
-5.651959e-011
-3.707112e-011
6.379372e-012
2.704230e-011
1.801183e-011
-1.253275e-012
-1.391164e-011
4.360448e-011
-2.390654e-012
-4.348673e-011
-4.407260e-011
-1.559891e-012
5.985512e-011
7.333339e-011
-1.482629e-011
-1.134148e-010
-5.428638e-011
1.060628e-010
9.223462e-011
-1.099762e-010
-1.363560e-010
1.175247e-010
2.168515e-010
-5.785586e-011
-2.488975e-010
-2.077567e-011
2.132339e-010
4.946459e-011
-1.810787e-010
-6.799168e-011
1.439814e-010
8.673942e-011
-6.249778e-011
-6.491549e-013
1.408742e-010
1.251687e-010
4.892272e-011
8.319107e-011
1.508364e-010
1.359616e-010
1.087714e-010
1.514838e-010
2.059476e-010
2.184630e-010
2.404274e-010
3.078892e-010
3.748753e-010
4.124491e-010
4.548652e-010
5.207029e-010
5.796892e-010
6.141346e-010
6.445638e-010
6.835919e-010
7.153139e-010
7.285702e-010
7.336863e-010
7.394295e-010
7.394315e-010
7.271625e-010
7.062178e-010
6.808981e-010
6.491285e-010
6.086055e-010
5.613767e-010
5.097336e-010
4.537563e-010
3.941345e-010
3.326022e-010
2.698890e-010
2.077084e-010
1.508002e-010
1.022260e-010
6.035591e-011
2.547323e-011
3.203953e-012
-4.118004e-012
-1.109225e-012
1.020123e-011
3.128529e-011
5.532669e-011
7.162603e-011
8.209720e-011
9.000057e-011
7.807841e-011
3.337338e-011
-1.535276e-011
-3.276116e-011
-3.656983e-011
-6.061519e-011
-7.539542e-011
-2.658540e-011
5.617064e-011
8.089705e-011
2.817510e-011
-2.400028e-011
-2.142539e-011
2.543901e-012
1.973787e-012
-1.474086e-011
-1.777861e-011
-3.525513e-012
1.356027e-011
2.287107e-011
1.742452e-011
-3.667686e-012
-2.467736e-011
-6.943208e-012
2.077448e-013
1.330396e-011
6.956623e-012
-2.851652e-011
-3.334560e-011
3.720070e-011
8.412490e-011
-8.097878e-012
-1.191585e-010
-4.218897e-011
1.119440e-010
6.035411e-011
-1.028521e-010
-4.688232e-011
1.258196e-010
4.071365e-011
-1.690053e-010
-6.606355e-011
2.004125e-010
1.273797e-010
-1.590170e-010
-1.234734e-010
1.576754e-010
1.693941e-010
-5.640060e-011
-5.650349e-011
1.734877e-010
2.433247e-010
1.252299e-010
1.286969e-010
2.914580e-010
3.810212e-010
3.599228e-010
3.936484e-010
5.105426e-010
5.934999e-010
6.195676e-010
6.647747e-010
7.410401e-010
7.966506e-010
8.249670e-010
8.595314e-010
9.021997e-010
9.304389e-010
9.448316e-010
9.609551e-010
9.774291e-010
9.833608e-010
9.802044e-010
9.757943e-010
9.692015e-010
9.550567e-010
9.341029e-010
9.102810e-010
8.833295e-010
8.505261e-010
8.119478e-010
7.700684e-010
7.263272e-010
6.801756e-010
6.305647e-010
5.778530e-010
5.241817e-010
4.709222e-010
4.168572e-010
3.617067e-010
3.087012e-010
2.586617e-010
2.070792e-010
1.553406e-010
1.151714e-010
8.886561e-011
6.026857e-011
2.508529e-011
7.796912e-012
1.883553e-011
2.398414e-011
-2.163490e-012
-2.646366e-011
-1.375901e-011
5.339935e-012
-1.221471e-011
-3.904331e-011
-2.011151e-011
3.380272e-011
6.424129e-011
4.829314e-011
6.471004e-012
-3.964111e-011
-6.747384e-011
-4.744854e-011
1.529838e-011
6.301346e-011
4.856920e-011
-6.132577e-012
-4.219047e-011
-3.274996e-011
1.689863e-012
2.802542e-011
-6.369227e-011
1.354475e-011
7.553518e-011
5.244892e-011
-4.115306e-011
-1.066798e-010
-3.820045e-011
1.071177e-010
1.064577e-010
-7.851767e-011
-1.428552e-010
6.251057e-011
1.842659e-010
-2.906083e-011
-2.079413e-010
-2.608397e-011
1.643442e-010
2.133218e-011
-1.223531e-010
3.645477e-011
1.581665e-010
-4.998416e-012
-8.701921e-011
1.195951e-010
2.316408e-010
6.647651e-011
3.969550e-012
2.167371e-010
3.614369e-010
2.841413e-010
2.837978e-010
4.992873e-010
6.839090e-010
7.097850e-010
7.588343e-010
9.302179e-010
1.084979e-009
1.138602e-009
1.183830e-009
1.282357e-009
1.371621e-009
1.407228e-009
1.430364e-009
1.473097e-009
1.511018e-009
1.524239e-009
1.529209e-009
1.539940e-009
1.547087e-009
1.542201e-009
1.531232e-009
1.519515e-009
1.503315e-009
1.479515e-009
1.451090e-009
1.420388e-009
1.384785e-009
1.341391e-009
1.291385e-009
1.237046e-009
1.177242e-009
1.109451e-009
1.034874e-009
9.566484e-010
8.733836e-010
7.814871e-010
6.846844e-010
5.911168e-010
4.986798e-010
3.978424e-010
2.938936e-010
2.063333e-010
1.377445e-010
6.968697e-011
2.650795e-012
-3.320776e-011
-2.678250e-011
-8.172786e-012
7.942897e-013
1.627119e-011
4.779506e-011
6.947031e-011
6.043657e-011
3.021536e-011
-9.359367e-012
-4.839837e-011
-5.603657e-011
-1.429293e-011
3.118662e-011
2.140537e-011
-2.344837e-011
-3.021554e-011
1.644828e-011
5.481151e-011
3.554748e-011
-2.152093e-011
-6.093563e-011
-4.770298e-011
7.404573e-012
5.713042e-011
-1.277317e-010
1.198146e-011
1.152652e-010
9.107542e-011
-7.019538e-012
-9.817895e-011
-1.028817e-010
2.215766e-011
1.363170e-010
3.843483e-011
-1.351088e-010
-5.227906e-011
1.644903e-010
7.469260e-011
-2.028936e-010
-1.246859e-010
2.086179e-010
1.803754e-010
-1.484789e-010
-1.518828e-010
1.485030e-010
1.916016e-010
2.789717e-012
5.302278e-011
2.833454e-010
3.096788e-010
2.338719e-010
3.726111e-010
5.975099e-010
6.492944e-010
6.663902e-010
8.573508e-010
1.080725e-009
1.157880e-009
1.206951e-009
1.368248e-009
1.541381e-009
1.610575e-009
1.649355e-009
1.746577e-009
1.849400e-009
1.890053e-009
1.903726e-009
1.940863e-009
1.980751e-009
1.989314e-009
1.980807e-009
1.981253e-009
1.985128e-009
1.977111e-009
1.961457e-009
1.949261e-009
1.938597e-009
1.921935e-009
1.899746e-009
1.876011e-009
1.848171e-009
1.809904e-009
1.759459e-009
1.698250e-009
1.624084e-009
1.533610e-009
1.429906e-009
1.318771e-009
1.198892e-009
1.067180e-009
9.325181e-010
8.087600e-010
6.945190e-010
5.791534e-010
4.681372e-010
3.780252e-010
3.064722e-010
2.361177e-010
1.675818e-010
1.168943e-010
8.409565e-011
5.840958e-011
4.379134e-011
4.276814e-011
3.597280e-011
1.709792e-011
1.307837e-011
2.593048e-011
7.211104e-012
-5.526526e-011
-8.844914e-011
-3.694412e-011
4.622258e-011
7.580943e-011
4.416036e-011
-4.909873e-013
-2.949337e-011
-3.820278e-011
-2.275130e-011
6.550054e-012
2.217031e-011
1.362868e-011
-1.549742e-012
-8.493982e-012
-9.387065e-011
-7.790528e-012
6.018228e-011
6.411093e-011
4.037501e-011
-9.536685e-012
-8.911571e-011
-8.015504e-011
7.456186e-011
1.389759e-010
-4.811189e-011
-1.711912e-010
2.341420e-011
1.674541e-010
-3.534464e-011
-1.561141e-010
1.048487e-010
2.390838e-010
-5.296427e-011
-1.925289e-010
1.386635e-010
3.564515e-010
1.467276e-010
5.163114e-011
3.599176e-010
6.148712e-010
5.908835e-010
6.573019e-010
9.599596e-010
1.191643e-009
1.256002e-009
1.382551e-009
1.603968e-009
1.729351e-009
1.749931e-009
1.809629e-009
1.893156e-009
1.883786e-009
1.801973e-009
1.740294e-009
1.681914e-009
1.559987e-009
1.394746e-009
1.246041e-009
1.110975e-009
9.576335e-010
7.995167e-010
6.728337e-010
5.823223e-010
5.140130e-010
4.727172e-010
4.745892e-010
5.202523e-010
5.977995e-010
7.015695e-010
8.316028e-010
9.806434e-010
1.134179e-009
1.280750e-009
1.412763e-009
1.519368e-009
1.589133e-009
1.619600e-009
1.614022e-009
1.570101e-009
1.485111e-009
1.370387e-009
1.244159e-009
1.111900e-009
9.719398e-010
8.344982e-010
7.124536e-010
6.019471e-010
4.955073e-010
3.983649e-010
3.087974e-010
2.111170e-010
1.133562e-010
4.989590e-011
2.066164e-011
-1.470833e-011
-5.546482e-011
-4.773188e-011
1.378862e-011
5.641713e-011
3.773389e-011
4.687166e-013
-9.436886e-012
7.432444e-013
1.361519e-011
2.451562e-011
1.432963e-011
-2.994090e-011
-6.837409e-011
-4.478421e-011
3.094958e-011
8.505117e-011
6.401380e-011
-1.233724e-011
-7.720740e-011
8.842387e-011
-2.711709e-011
-9.525143e-011
-4.518685e-011
5.494817e-011
9.391891e-011
1.373737e-012
-1.130978e-010
-3.365357e-011
1.456455e-010
6.709040e-011
-1.861650e-010
-1.221235e-010
1.877287e-010
1.560462e-010
-1.453141e-010
-9.339258e-011
2.088213e-010
1.606373e-010
-5.382247e-011
1.381985e-010
4.719835e-010
4.089996e-010
2.734202e-010
5.765330e-010
9.947971e-010
1.070286e-009
1.082760e-009
1.392427e-009
1.740246e-009
1.823187e-009
1.822571e-009
1.929092e-009
1.971762e-009
1.797469e-009
1.516501e-009
1.211108e-009
7.883977e-010
2.033209e-010
-4.598755e-010
-1.156334e-009
-1.921623e-009
-2.746120e-009
-3.558712e-009
-4.322759e-009
-5.043839e-009
-5.700511e-009
-6.242667e-009
-6.643936e-009
-6.904499e-009
-7.014795e-009
-6.954051e-009
-6.717773e-009
-6.321617e-009
-5.782863e-009
-5.116217e-009
-4.345580e-009
-3.506356e-009
-2.635533e-009
-1.768030e-009
-9.414128e-010
-1.932133e-010
4.494065e-010
9.705608e-010
1.357750e-009
1.604216e-009
1.719012e-009
1.723115e-009
1.637294e-009
1.484577e-009
1.295162e-009
1.093124e-009
8.903709e-010
7.045832e-010
5.563938e-010
4.363371e-010
3.146467e-010
1.973180e-010
1.213329e-010
8.475750e-011
4.642186e-011
2.792584e-012
-6.955317e-012
2.360855e-011
5.731053e-011
6.970511e-011
5.436108e-011
1.948128e-012
-6.499079e-011
-8.164360e-011
-2.511818e-011
3.914949e-011
4.371810e-011
3.393278e-012
-2.244078e-011
-8.097113e-012
2.253307e-011
2.991920e-011
1.127216e-013
-3.611280e-011
2.500719e-010
-3.730690e-011
-2.171652e-010
-1.296269e-010
4.728810e-011
1.419831e-010
8.864200e-011
-8.277965e-011
-1.439833e-010
4.635309e-011
1.639133e-010
-4.952248e-011
-1.773259e-010
9.853103e-011
2.523146e-010
-6.158732e-011
-2.154566e-010
1.548336e-010
3.937021e-010
1.825626e-010
1.644771e-010
5.708130e-010
8.065603e-010
7.625833e-010
9.863379e-010
1.468108e-009
1.678251e-009
1.652255e-009
1.814217e-009
2.043955e-009
1.920684e-009
1.490341e-009
1.014148e-009
3.757210e-010
-6.800390e-010
-2.098956e-009
-3.714022e-009
-5.560829e-009
-7.719758e-009
-1.010316e-008
-1.257990e-008
-1.511740e-008
-1.769217e-008
-2.020541e-008
-2.255506e-008
-2.469123e-008
-2.656622e-008
-2.810350e-008
-2.923814e-008
-2.993972e-008
-3.018602e-008
-2.995036e-008
-2.922307e-008
-2.802369e-008
-2.638891e-008
-2.436474e-008
-2.201322e-008
-1.941545e-008
-1.666369e-008
-1.385407e-008
-1.108499e-008
-8.453132e-009
-6.043933e-009
-3.923877e-009
-2.138490e-009
-7.119879e-010
3.532988e-010
1.075995e-009
1.495126e-009
1.668133e-009
1.658067e-009
1.517941e-009
1.296716e-009
1.054356e-009
8.432747e-010
6.740023e-010
5.293296e-010
4.078891e-010
3.190758e-010
2.501633e-010
1.815240e-010
1.156374e-010
5.697364e-011
5.203977e-013
-3.344116e-011
-1.392688e-011
2.856387e-011
2.229156e-011
-3.360534e-011
-6.143305e-011
-2.258215e-011
3.777024e-011
6.618913e-011
5.033535e-011
2.074405e-012
-4.968176e-011
-6.453313e-011
-3.060014e-011
1.942687e-011
4.975502e-011
1.819472e-010
-2.939596e-011
-1.603471e-010
-9.138527e-011
3.131954e-011
1.015551e-010
1.056931e-010
-2.437011e-011
-1.920425e-010
-8.711067e-011
1.953403e-010
1.476229e-010
-1.484346e-010
-7.774068e-011
2.331085e-010
1.334102e-010
-1.247013e-010
1.434419e-010
5.748437e-010
4.919180e-010
3.395574e-010
7.598059e-010
1.298526e-009
1.409636e-009
1.497096e-009
1.905443e-009
2.169414e-009
1.970993e-009
1.609456e-009
1.130050e-009
8.162069e-011
-1.708525e-009
-4.025478e-009
-6.897924e-009
-1.060099e-008
-1.513959e-008
-2.028137e-008
-2.595132e-008
-3.218630e-008
-3.885110e-008
-4.569319e-008
-5.255421e-008
-5.933516e-008
-6.586199e-008
-7.192219e-008
-7.736071e-008
-8.205856e-008
-8.587630e-008
-8.867646e-008
-9.036662e-008
-9.089030e-008
-9.020509e-008
-8.829417e-008
-8.518628e-008
-8.095456e-008
-7.570798e-008
-6.959124e-008
-6.278627e-008
-5.550588e-008
-4.798159e-008
-4.045055e-008
-3.314476e-008
-2.628056e-008
-2.004197e-008
-1.456206e-008
-9.918407e-009
-6.142803e-009
-3.223186e-009
-1.094935e-009
3.502827e-010
1.231722e-009
1.660562e-009
1.752360e-009
1.631330e-009
1.402957e-009
1.136961e-009
8.835063e-010
6.760130e-010
5.109106e-010
3.668184e-010
2.502471e-010
1.746772e-010
1.076133e-010
1.353367e-011
-6.544296e-011
-6.042353e-011
9.387410e-012
6.048853e-011
5.877801e-011
3.043385e-011
-2.593080e-012
-2.685731e-011
-2.028786e-011
1.172273e-011
2.398224e-011
-6.162010e-012
-4.184356e-011
-3.674058e-011
7.388109e-012
4.807044e-011
-7.716646e-011
2.002019e-011
5.704621e-011
1.395830e-011
-2.833948e-011
-1.579854e-011
5.911265e-011
5.956466e-011
-1.102308e-010
-1.564602e-010
1.252536e-010
2.575351e-010
-6.971839e-011
-2.250579e-010
1.626656e-010
3.891622e-010
1.459398e-010
1.907635e-010
7.053827e-010
9.153576e-010
8.056497e-010
1.156472e-009
1.840678e-009
2.060703e-009
1.903068e-009
1.902311e-009
1.715531e-009
6.525930e-010
-1.289333e-009
-3.974885e-009
-7.845280e-009
-1.334518e-008
-2.041726e-008
-2.899360e-008
-3.928339e-008
-5.132589e-008
-6.481869e-008
-7.948821e-008
-9.519290e-008
-1.116496e-007
-1.284017e-007
-1.450509e-007
-1.612927e-007
-1.767677e-007
-1.910584e-007
-2.038071e-007
-2.147292e-007
-2.235439e-007
-2.299761e-007
-2.338138e-007
-2.349204e-007
-2.332111e-007
-2.286558e-007
-2.213047e-007
-2.113000e-007
-1.988702e-007
-1.843251e-007
-1.680550e-007
-1.505235e-007
-1.322487e-007
-1.137728e-007
-9.563485e-008
-7.834826e-008
-6.236915e-008
-4.805235e-008
-3.562909e-008
-2.521711e-008
-1.682527e-008
-1.034268e-008
-5.559263e-009
-2.223599e-009
-7.661617e-011
1.149938e-009
1.712612e-009
1.818441e-009
1.636104e-009
1.327598e-009
1.015908e-009
7.393345e-010
4.995279e-010
3.299797e-010
2.526515e-010
2.128039e-010
1.431492e-010
5.674712e-011
7.124747e-012
5.053015e-012
2.911048e-011
5.827574e-011
5.784440e-011
1.962027e-012
-6.943767e-011
-8.267678e-011
-2.553787e-011
4.146767e-011
6.092597e-011
3.033613e-011
-9.595403e-012
-2.224804e-011
-1.376183e-011
-2.864454e-010
9.896829e-011
2.625752e-010
6.795725e-011
-1.315664e-010
-1.445029e-010
-1.552940e-012
1.529152e-010
7.396069e-011
-1.385414e-010
-4.228238e-011
2.235989e-010
8.144532e-011
-1.855256e-010
1.262918e-010
5.952488e-010
4.798726e-010
3.330678e-010
8.640857e-010
1.456663e-009
1.533081e-009
1.702961e-009
2.243066e-009
2.320982e-009
1.521127e-009
2.302526e-010
-1.820386e-009
-5.655857e-009
-1.175982e-008
-2.011974e-008
-3.121833e-008
-4.579935e-008
-6.405175e-008
-8.582608e-008
-1.111628e-007
-1.400218e-007
-1.719203e-007
-2.062012e-007
-2.423009e-007
-2.795666e-007
-3.171403e-007
-3.541662e-007
-3.899082e-007
-4.236305e-007
-4.545532e-007
-4.819682e-007
-5.052863e-007
-5.239720e-007
-5.375243e-007
-5.455355e-007
-5.477241e-007
-5.439191e-007
-5.340599e-007
-5.182280e-007
-4.966707e-007
-4.698048e-007
-4.382148e-007
-4.026536e-007
-3.640344e-007
-3.234049e-007
-2.818981e-007
-2.406750e-007
-2.008717e-007
-1.635355e-007
-1.295397e-007
-9.951995e-008
-7.385817e-008
-5.267938e-008
-3.584285e-008
-2.297842e-008
-1.357475e-008
-7.048227e-009
-2.782268e-009
-1.985214e-010
1.172061e-009
1.706002e-009
1.736566e-009
1.523637e-009
1.209488e-009
8.733466e-010
5.972342e-010
4.284819e-010
3.371259e-010
2.684350e-010
1.935922e-010
9.820883e-011
-4.939388e-012
-5.677274e-011
-2.555603e-011
2.629688e-011
2.467452e-011
-1.408505e-011
-2.981494e-011
-9.059632e-012
2.144408e-011
3.689241e-011
2.495313e-011
-3.606723e-012
-1.984679e-011
-1.772778e-011
-2.865722e-010
1.274278e-010
2.950180e-010
5.537904e-011
-1.779932e-010
-1.901350e-010
-4.050723e-011
1.907833e-010
2.268259e-010
-8.337686e-011
-2.278528e-010
1.175534e-010
3.187532e-010
7.840149e-011
1.543519e-010
6.976977e-010
8.567126e-010
7.082959e-010
1.193055e-009
2.047722e-009
2.265342e-009
2.022235e-009
1.848636e-009
9.615863e-010
-1.734646e-009
-6.430412e-009
-1.353231e-008
-2.444929e-008
-4.040687e-008
-6.189095e-008
-8.959368e-008
-1.245610e-007
-1.672426e-007
-2.173562e-007
-2.745381e-007
-3.383242e-007
-4.076891e-007
-4.811873e-007
-5.573814e-007
-6.348216e-007
-7.118793e-007
-7.869051e-007
-8.584295e-007
-9.251045e-007
-9.856189e-007
-1.038779e-006
-1.083578e-006
-1.119146e-006
-1.144703e-006
-1.159601e-006
-1.163368e-006
-1.155705e-006
-1.136484e-006
-1.105793e-006
-1.063970e-006
-1.011635e-006
-9.497025e-007
-8.794021e-007
-8.022871e-007
-7.202103e-007
-6.352667e-007
-5.497041e-007
-4.658172e-007
-3.858200e-007
-3.116873e-007
-2.450047e-007
-1.868716e-007
-1.378502e-007
-9.794540e-008
-6.665456e-008
-4.309142e-008
-2.611745e-008
-1.446114e-008
-6.869784e-009
-2.250312e-009
2.928896e-010
1.480852e-009
1.850014e-009
1.753037e-009
1.426406e-009
1.041998e-009
6.995460e-010
4.440963e-010
3.002810e-010
2.396080e-010
1.698732e-010
4.899166e-011
-4.665299e-011
-4.477766e-011
1.230836e-011
4.800028e-011
5.050486e-011
3.715624e-011
8.282165e-012
-2.511010e-011
-3.701582e-011
-2.476515e-011
-6.052252e-012
1.102025e-011
2.354622e-011
-1.074667e-010
3.971540e-011
1.293708e-010
4.375613e-011
-8.132742e-011
-1.148350e-010
-5.724413e-011
1.199507e-010
2.430868e-010
-7.615337e-012
-2.856262e-010
5.125208e-011
5.551422e-010
4.310899e-010
2.432532e-010
7.704880e-010
1.351282e-009
1.413971e-009
1.724008e-009
2.466532e-009
2.464605e-009
1.207697e-009
-9.630844e-010
-4.933461e-009
-1.267333e-008
-2.546977e-008
-4.436652e-008
-7.146979e-008
-1.091480e-007
-1.588597e-007
-2.217035e-007
-2.988910e-007
-3.908668e-007
-4.968189e-007
-6.153200e-007
-7.446358e-007
-8.823462e-007
-1.025414e-006
-1.170766e-006
-1.315502e-006
-1.456745e-006
-1.591733e-006
-1.718083e-006
-1.833786e-006
-1.937073e-006
-2.026415e-006
-2.100577e-006
-2.158562e-006
-2.199523e-006
-2.222753e-006
-2.227704e-006
-2.213980e-006
-2.181335e-006
-2.129719e-006
-2.059339e-006
-1.970730e-006
-1.864828e-006
-1.743059e-006
-1.607418e-006
-1.460509e-006
-1.305538e-006
-1.146235e-006
-9.867053e-007
-8.312056e-007
-6.838557e-007
-5.483066e-007
-4.274399e-007
-3.231477e-007
-2.362186e-007
-1.663591e-007
-1.123537e-007
-7.230326e-008
-4.389628e-008
-2.469795e-008
-1.240928e-008
-5.031713e-009
-9.512002e-010
1.033066e-009
1.760580e-009
1.805089e-009
1.525196e-009
1.110461e-009
6.942156e-010
4.105058e-010
2.995481e-010
2.580502e-010
1.807590e-010
8.187653e-011
2.176605e-011
7.518298e-012
1.486087e-011
2.761549e-011
2.668214e-011
-1.006445e-012
-3.496621e-011
-4.080434e-011
-1.441962e-011
1.422605e-011
1.945505e-011
9.811564e-012
1.426734e-010
-1.180590e-010
-1.313930e-010
5.461962e-011
1.043719e-010
2.143981e-011
-6.845050e-011
-3.727044e-011
1.428005e-010
1.312590e-010
-1.105510e-010
7.370919e-011
6.660171e-010
7.425326e-010
4.758869e-010
9.886745e-010
1.972864e-009
2.267127e-009
2.132543e-009
2.096897e-009
9.472297e-010
-2.843449e-009
-9.843721e-009
-2.152488e-008
-4.110990e-008
-7.173561e-008
-1.159975e-007
-1.773516e-007
-2.597548e-007
-3.659333e-007
-4.972330e-007
-6.542581e-007
-8.362533e-007
-1.040389e-006
-1.262384e-006