# vtk DataFile Version 3.0
vtk output
ASCII
DATASET STRUCTURED_POINTS
DIMENSIONS 100 100 1
SPACING 1 1 1
ORIGIN 0 0 0
POINT_DATA 10000
SCALARS SFBox_profile double
LOOKUP_TABLE default 
0.000000e+000
0.000000e+000
0.000000e+000
0.000000e+000
0.000000e+000
0.000000e+000
0.000000e+000
0.000000e+000
0.000000e+000
0.000000e+000
0.000000e+000
0.000000e+000
0.000000e+000
0.000000e+000
0.000000e+000
0.000000e+000
0.000000e+000
0.000000e+000
0.000000e+000
0.000000e+000
0.000000e+000
0.000000e+000
0.000000e+000
0.000000e+000
0.000000e+000
0.000000e+000
0.000000e+000
0.000000e+000
0.000000e+000
0.000000e+000
0.000000e+000
0.000000e+000
0.000000e+000
0.000000e+000
0.000000e+000
0.000000e+000
0.000000e+000
0.000000e+000
0.000000e+000
0.000000e+000
0.000000e+000
0.000000e+000
0.000000e+000
0.000000e+000
0.000000e+000
0.000000e+000
0.000000e+000
0.000000e+000
0.000000e+000
0.000000e+000
0.000000e+000
0.000000e+000
0.000000e+000
0.000000e+000
0.000000e+000
0.000000e+000
0.000000e+000
0.000000e+000
0.000000e+000
0.000000e+000
0.000000e+000
0.000000e+000
0.000000e+000
0.000000e+000
0.000000e+000
0.000000e+000
0.000000e+000
0.000000e+000
0.000000e+000
0.000000e+000
0.000000e+000
0.000000e+000
0.000000e+000
0.000000e+000
0.000000e+000
0.000000e+000
0.000000e+000
0.000000e+000
0.000000e+000
0.000000e+000
0.000000e+000
0.000000e+000
0.000000e+000
0.000000e+000
0.000000e+000
0.000000e+000
0.000000e+000
0.000000e+000
0.000000e+000
0.000000e+000
0.000000e+000
0.000000e+000
0.000000e+000
0.000000e+000
0.000000e+000
0.000000e+000
0.000000e+000
0.000000e+000
0.000000e+000
0.000000e+000
3.867260e-008
2.485199e-008
5.172275e-009
-9.748574e-009
-1.349538e-008
-7.455723e-009
1.221839e-009
5.500082e-009
3.524735e-009
-9.413731e-010
-2.685582e-009
4.055523e-011
4.198897e-009
5.212027e-009
1.533194e-009
-3.863775e-009
-6.414908e-009
-4.322805e-009
-2.911167e-011
2.492322e-009
1.679592e-009
-4.639971e-010
-9.329380e-010
9.724041e-010
3.112536e-009
3.062661e-009
7.566378e-010
-1.614457e-009
-2.077158e-009
-8.312488e-010
3.395924e-010
2.377912e-010
-5.642636e-010
-6.764325e-010
3.901609e-010
1.773850e-009
2.407107e-009
2.228991e-009
2.079253e-009
2.593678e-009
3.513910e-009
4.129235e-009
4.151172e-009
3.943400e-009
3.968263e-009
4.246945e-009
4.456349e-009
4.404937e-009
4.231443e-009
4.150192e-009
4.166339e-009
4.128709e-009
3.971823e-009
3.780943e-009
3.631726e-009
3.483350e-009
3.275488e-009
3.040825e-009
2.831739e-009
2.583296e-009
2.173793e-009
1.645442e-009
1.244416e-009
1.136408e-009
1.141060e-009
8.990305e-010
3.387345e-010
-1.615674e-010
-2.096685e-010
6.282960e-011
9.030640e-011
-4.182126e-010
-1.004868e-009
-9.005219e-010
4.798881e-011
1.076305e-009
1.285894e-009
6.641971e-010
1.204997e-010
4.162883e-010
1.197527e-009
1.299731e-009
6.743936e-011
-1.768862e-009
-2.686417e-009
-1.861489e-009
4.029769e-012
1.377158e-009
1.365183e-009
4.569877e-010
-1.450340e-010
1.777737e-010
8.759649e-010
8.862048e-010
-2.062913e-010
-1.664155e-009
-2.216843e-009
-1.202779e-009
7.964350e-010
2.367954e-009
9.161948e-009
5.196161e-009
-2.404251e-010
-3.835563e-009
-3.694318e-009
-5.891406e-010
2.699363e-009
3.525321e-009
1.403104e-009
-1.709485e-009
-3.153201e-009
-1.881091e-009
7.008248e-010
2.146134e-009
1.310398e-009
-6.354889e-010
-1.505252e-009
-3.730598e-010
1.516716e-009
2.122527e-009
7.724419e-010
-1.182329e-009
-1.867612e-009
-8.519147e-010
5.436861e-010
8.165147e-010
-9.803193e-011
-9.212435e-010
-5.892682e-010
5.742793e-010
1.336347e-009
9.941563e-010
7.628725e-011
-3.964599e-010
-9.787697e-011
3.540753e-010
2.437968e-010
-4.058984e-010
-9.592208e-010
-9.755144e-010
-6.738842e-010
-5.713871e-010
-8.407945e-010
-1.175897e-009
-1.234074e-009
-1.038047e-009
-8.742389e-010
-9.050424e-010
-1.012391e-009
-1.010129e-009
-8.862677e-010
-7.712067e-010
-7.378031e-010
-7.305884e-010
-6.836651e-010
-6.148477e-010
-5.613965e-010
-4.902593e-010
-3.502161e-010
-1.887184e-010
-1.231281e-010
-1.662330e-010
-1.611569e-010
2.904368e-011
3.025360e-010
3.995431e-010
2.367761e-010
6.526695e-011
1.886372e-010
5.509095e-010
7.378591e-010
4.585816e-010
-6.048879e-011
-2.953971e-010
-4.655900e-011
2.883776e-010
1.683279e-010
-4.156297e-010
-8.622439e-010
-6.206039e-010
1.559234e-010
7.339241e-010
5.865061e-010
-4.012890e-011
-4.146821e-010
-1.315533e-010
4.589417e-010
6.550947e-010
1.726564e-010
-5.556380e-010
-8.360655e-010
-4.105550e-010
3.178609e-010
7.044655e-010
4.615938e-010
-1.313695e-010
-5.354996e-010
-4.337642e-010
3.770678e-011
4.497422e-010
-2.601973e-008
-1.754066e-008
-5.276956e-009
4.572962e-009
8.263999e-009
6.337179e-009
2.258129e-009
-6.644752e-010
-1.465812e-009
-1.315493e-009
-1.631780e-009
-2.527285e-009
-2.917813e-009
-1.857600e-009
4.050948e-010
2.629607e-009
3.657914e-009
3.239041e-009
1.952928e-009
5.533948e-010
-5.403693e-010
-1.267092e-009
-1.687844e-009
-1.833968e-009
-1.707712e-009
-1.308633e-009
-6.385435e-010
2.460567e-010
1.143801e-009
1.729457e-009
1.762366e-009
1.307206e-009
7.014633e-010
2.534193e-010
-2.535092e-011
-3.632337e-010
-9.203354e-010
-1.587535e-009
-2.115148e-009
-2.399668e-009
-2.581399e-009
-2.849724e-009
-3.206084e-009
-3.469231e-009
-3.500456e-009
-3.367006e-009
-3.256776e-009
-3.265698e-009
-3.315064e-009
-3.274270e-009
-3.116539e-009
-2.925199e-009
-2.775879e-009
-2.660866e-009
-2.532871e-009
-2.376972e-009
-2.204520e-009
-1.998765e-009
-1.717313e-009
-1.362017e-009
-1.008714e-009
-7.323593e-010
-5.168651e-010
-2.797066e-010
7.528403e-012
2.640246e-010
3.994181e-010
4.487364e-010
5.557617e-010
7.998778e-010
1.069276e-009
1.145073e-009
9.130893e-010
4.681265e-010
4.650688e-012
-3.669859e-010
-6.738341e-010
-9.692588e-010
-1.206142e-009
-1.233565e-009
-9.073792e-010
-2.101329e-010
6.946297e-010
1.490645e-009
1.825403e-009
1.500045e-009
6.327410e-010
-3.628476e-010
-1.032757e-009
-1.189202e-009
-9.868717e-010
-6.889134e-010
-3.708304e-010
1.031984e-010
7.908715e-010
1.405046e-009
1.432873e-009
6.075064e-010
-7.182860e-010
-1.721484e-009
-3.983883e-008
-2.514343e-008
-4.532842e-009
1.053226e-008
1.357427e-008
6.717860e-009
-2.120511e-009
-5.856198e-009
-3.261467e-009
1.356858e-009
2.913790e-009
2.012817e-010
-3.570443e-009
-4.340676e-009
-1.168186e-009
3.116511e-009
4.856086e-009
2.985411e-009
-3.325618e-010
-2.127098e-009
-1.430961e-009
2.289478e-010
7.866579e-010
-2.250494e-010
-1.473681e-009
-1.462354e-009
-8.815340e-011
1.427453e-009
1.914842e-009
1.352436e-009
6.401980e-010
5.252925e-010
9.253931e-010
1.245017e-009
1.136631e-009
8.132999e-010
6.874219e-010
8.776140e-010
1.144911e-009
1.226336e-009
1.111661e-009
9.847328e-010
9.867379e-010
1.102342e-009
1.238925e-009
1.336609e-009
1.383380e-009
1.380095e-009
1.340470e-009
1.308706e-009
1.330360e-009
1.396091e-009
1.444050e-009
1.432698e-009
1.387482e-009
1.354951e-009
1.333702e-009
1.289734e-009
1.235206e-009
1.239766e-009
1.330513e-009
1.414261e-009
1.359751e-009
1.165867e-009
9.921525e-010
9.752277e-010
1.043004e-009
9.842054e-010
7.271119e-010
4.859202e-010
5.457708e-010
8.939562e-010
1.145427e-009
9.174111e-010
2.741490e-010
-2.824082e-010
-3.295355e-010
-6.230133e-012
1.085228e-010
-3.449319e-010
-1.010201e-009
-1.082680e-009
-1.501983e-010
1.251233e-009
2.011270e-009
1.459445e-009
3.038416e-011
-1.113464e-009
-1.162804e-009
-3.859203e-010
2.195518e-010
-1.244832e-011
-7.211632e-010
-8.997604e-010
2.095763e-011
1.473571e-009
2.168667e-009
1.275760e-009
-7.290368e-010
-2.364571e-009
-2.427550e-008
-1.339811e-008
1.208006e-009
1.034840e-008
9.274637e-009
7.844038e-010
-7.370591e-009
-8.709135e-009
-2.910782e-009
4.532811e-009
7.414040e-009
4.103073e-009
-1.568580e-009
-4.333207e-009
-2.416314e-009
1.267336e-009
2.485712e-009
1.598733e-011
-3.385069e-009
-4.068946e-009
-1.240799e-009
2.455538e-009
3.840063e-009
2.339379e-009
1.653431e-010
-3.223913e-010
9.718205e-010
2.163797e-009
1.723241e-009
1.165387e-010
-9.093963e-010
-3.266391e-010
1.213110e-009
2.340108e-009
2.518836e-009
2.416089e-009
2.892829e-009
3.981148e-009
4.987944e-009
5.395981e-009
5.390102e-009
5.486728e-009
5.877034e-009
6.299090e-009
6.461730e-009
6.388360e-009
6.294159e-009
6.272111e-009
6.232102e-009
6.100746e-009
5.939778e-009
5.830187e-009
5.739892e-009
5.586736e-009
5.380118e-009
5.200866e-009
5.045802e-009
4.797861e-009
4.403610e-009
3.999414e-009
3.756001e-009
3.619011e-009
3.330555e-009
2.768218e-009
2.165485e-009
1.862502e-009
1.848374e-009
1.703621e-009
1.103042e-009
2.966303e-010
-8.165263e-011
2.613627e-010
8.720470e-010
1.018271e-009
5.500058e-010
1.271925e-010
4.649706e-010
1.414517e-009
1.977604e-009
1.341469e-009
-1.706868e-010
-1.326376e-009
-1.216368e-009
-1.914149e-010
5.200676e-010
1.257489e-010
-8.828766e-010
-1.256330e-009
-3.359756e-010
1.190456e-009
1.918211e-009
1.103603e-009
-5.892189e-010
-1.695766e-009
-1.301768e-009
1.511623e-010
1.318910e-009
1.192493e-009
-2.618798e-011
-1.163596e-009
5.508884e-009
5.898328e-009
5.721734e-009
3.767278e-009
-2.812392e-010
-4.993069e-009
-7.628355e-009
-6.050100e-009
-7.708184e-010
4.878371e-009
7.111661e-009
4.778679e-009
3.111683e-010
-2.549544e-009
-2.176072e-009
-2.935822e-010
1.660875e-010
-1.683090e-009
-3.752880e-009
-3.320554e-009
-7.004813e-011
3.465174e-009
4.503127e-009
2.801856e-009
6.599002e-010
2.859939e-010
1.534150e-009
2.413514e-009
1.571026e-009
-1.747650e-010
-8.842946e-010
2.611625e-010
2.144336e-009
3.104260e-009
2.756701e-009
2.169844e-009
2.418667e-009
3.372666e-009
4.051954e-009
3.895409e-009
3.328973e-009
3.089374e-009
3.309278e-009
3.487084e-009
3.217813e-009
2.666988e-009
2.264586e-009
2.148045e-009
2.090468e-009
1.893774e-009
1.638090e-009
1.495421e-009
1.464735e-009
1.427899e-009
1.386385e-009
1.468383e-009
1.683067e-009
1.827723e-009
1.748574e-009
1.599139e-009
1.675139e-009
1.992928e-009
2.203110e-009
2.030291e-009
1.685596e-009
1.648802e-009
2.022892e-009
2.296296e-009
1.908622e-009
9.829794e-010
2.869340e-010
3.829892e-010
9.612247e-010
1.196630e-009
7.531672e-010
2.328360e-010
4.818138e-010
1.526935e-009
2.400875e-009
2.117159e-009
7.268108e-010
-7.226649e-010
-1.271056e-009
-9.631139e-010
-6.208360e-010
-7.998903e-010
-1.141741e-009
-8.306141e-010
3.930428e-010
1.801948e-009
2.301748e-009
1.445169e-009
-1.739649e-010
-1.466814e-009
-1.737099e-009
-1.099957e-009
-1.895310e-010
4.338686e-010
6.346720e-010
6.202492e-010
2.675169e-008
1.716332e-008
3.919931e-009
-5.652145e-009
-7.983305e-009
-4.838075e-009
-6.229948e-010
1.557757e-009
1.588516e-009
1.015385e-009
8.465222e-010
8.370050e-010
4.493385e-010
-1.649295e-010
-4.105512e-010
-1.688410e-010
-1.386547e-012
-3.153519e-010
-6.496886e-010
-1.618279e-010
1.186313e-009
2.290960e-009
2.036826e-009
6.576232e-010
-3.631305e-010
1.146422e-010
1.602000e-009
2.541041e-009
2.096131e-009
1.079135e-009
9.224079e-010
1.935006e-009
2.914459e-009
2.538281e-009
8.447928e-010
-9.201830e-010
-1.801639e-009
-2.135677e-009
-2.946384e-009
-4.623997e-009
-6.525296e-009
-7.855179e-009
-8.610496e-009
-9.441400e-009
-1.074448e-008
-1.219706e-008
-1.323432e-008
-1.373813e-008
-1.405932e-008
-1.447140e-008
-1.485220e-008
-1.494947e-008
-1.475011e-008
-1.441744e-008
-1.396261e-008
-1.320129e-008
-1.207631e-008
-1.083680e-008
-9.748964e-009
-8.721108e-009
-7.413164e-009
-5.743166e-009
-4.100176e-009
-2.911415e-009
-2.092749e-009
-1.137513e-009
2.024610e-010
1.500591e-009
2.086486e-009
1.842315e-009
1.380312e-009
1.349782e-009
1.697280e-009
1.777306e-009
1.181553e-009
2.872774e-010
-1.284170e-010
2.542907e-010
9.638184e-010
1.270360e-009
9.301655e-010
3.183609e-010
-9.096727e-011
-2.109233e-010
-2.669471e-010
-3.786989e-010
-3.876216e-010
-1.182468e-010
3.240868e-010
6.310326e-010
6.318880e-010
4.394418e-010
2.243399e-010
-4.352039e-011
-4.966891e-010
-1.023079e-009
-1.174409e-009
-5.741890e-010
5.734365e-010
1.498294e-009
2.809090e-008
1.465967e-008
-2.664957e-009
-1.236075e-008
-9.679112e-009
5.382159e-010
8.810941e-009
8.985939e-009
2.402394e-009
-4.615214e-009
-6.818981e-009
-3.982650e-009
1.851614e-010
2.169969e-009
1.544304e-009
3.619927e-010
4.865327e-010
1.853219e-009
3.032812e-009
2.918963e-009
1.629055e-009
5.936981e-011
-9.891161e-010
-1.177466e-009
-5.176094e-010
7.083643e-010
1.933681e-009
2.552053e-009
2.411521e-009
1.963131e-009
1.698291e-009
1.431759e-009
3.551704e-010
-2.070594e-009
-5.413545e-009
-8.665617e-009
-1.132832e-008
-1.389866e-008
-1.717085e-008
-2.121853e-008
-2.529383e-008
-2.871375e-008
-3.159499e-008
-3.455771e-008
-3.785136e-008
-4.102795e-008
-4.350470e-008
-4.522010e-008
-4.656427e-008
-4.777688e-008
-4.865209e-008
-4.887528e-008
-4.844171e-008
-4.757333e-008
-4.631780e-008
-4.445538e-008
-4.185610e-008
-3.875263e-008
-3.550358e-008
-3.215995e-008
-2.845928e-008
-2.429604e-008
-2.003705e-008
-1.621859e-008
-1.297892e-008
-9.958904e-009
-6.822761e-009
-3.757405e-009
-1.326478e-009
1.433288e-010
9.013175e-010
1.453345e-009
1.996237e-009
2.268969e-009
1.943899e-009
1.067125e-009
7.818687e-011
-5.371028e-010
-5.625773e-010
-9.950197e-011
5.608885e-010
1.079461e-009
1.213183e-009
9.725419e-010
6.495763e-010
5.651346e-010
6.931570e-010
5.973346e-010
-1.088898e-010
-1.184856e-009
-1.768482e-009
-1.148361e-009
4.004214e-010
1.663048e-009
1.542094e-009
1.479041e-010
-1.224308e-009
-1.309137e-009
-1.064711e-010
1.122096e-009
1.488388e-008
4.819492e-009
-7.314455e-009
-1.205283e-008
-6.106406e-009
5.181494e-009
1.250253e-008
1.030590e-008
1.011420e-009
-7.651161e-009
-9.475666e-009
-4.608374e-009
1.600893e-009
4.035125e-009
2.149465e-009
-5.482733e-010
-6.493809e-010
1.854331e-009
4.141293e-009
3.821307e-009
1.262748e-009
-1.131459e-009
-1.462221e-009
8.364005e-011
1.881101e-009
2.593435e-009
2.103740e-009
1.062325e-009
-6.903365e-011
-1.448829e-009
-3.604017e-009
-6.976113e-009
-1.165158e-008
-1.733211e-008
-2.351311e-008
-2.983366e-008
-3.637510e-008
-4.356588e-008
-5.167543e-008
-6.039960e-008
-6.904593e-008
-7.715819e-008
-8.485912e-008
-9.249956e-008
-1.000528e-007
-1.070067e-007
-1.128662e-007
-1.176064e-007
-1.215144e-007
-1.246683e-007
-1.267518e-007
-1.274143e-007
-1.266620e-007
-1.247603e-007
-1.218176e-007
-1.176388e-007
-1.120436e-007
-1.052014e-007
-9.752705e-008
-8.928386e-008
-8.043743e-008
-7.095547e-008
-6.115452e-008
-5.162860e-008
-4.282768e-008
-3.478353e-008
-2.728715e-008
-2.028645e-008
-1.405323e-008
-8.967349e-009
-5.178064e-009
-2.480925e-009
-4.976701e-010
1.022024e-009
2.030418e-009
2.288991e-009
1.699226e-009
5.975934e-010
-3.003589e-010
-3.752384e-010
3.654524e-010
1.245426e-009
1.519080e-009
1.087483e-009
5.778156e-010
6.282009e-010
1.098885e-009
1.115318e-009
1.882879e-011
-1.730772e-009
-2.742110e-009
-1.944041e-009
2.827924e-010
2.282153e-009
2.545176e-009
1.053107e-009
-7.605441e-010
-1.393272e-009
-6.483765e-010
3.274349e-010
-7.255839e-010
-2.901025e-009
-5.035278e-009
-4.498763e-009
-6.034334e-010
4.371197e-009
6.657418e-009
4.151387e-009
-1.419214e-009
-5.589790e-009
-4.954157e-009
-2.831735e-010
4.139496e-009
4.521454e-009
1.059353e-009
-2.516593e-009
-2.801318e-009
3.009105e-011
2.812640e-009
2.937224e-009
9.571191e-010
-3.644811e-010
7.615256e-010
3.274808e-009
4.499125e-009
2.831574e-009
-1.062026e-009
-5.520087e-009
-9.898910e-009
-1.514102e-008
-2.260826e-008
-3.271890e-008
-4.479029e-008
-5.795127e-008
-7.196571e-008
-8.721097e-008
-1.040759e-007
-1.224858e-007
-1.419048e-007
-1.616522e-007
-1.812109e-007
-2.003368e-007
-2.189413e-007
-2.368534e-007
-2.536738e-007
-2.688840e-007
-2.821204e-007
-2.933059e-007
-3.024650e-007
-3.094268e-007
-3.137865e-007
-3.151918e-007
-3.136170e-007
-3.092907e-007
-3.023694e-007
-2.927620e-007
-2.803177e-007
-2.651463e-007
-2.476935e-007
-2.284986e-007
-2.079353e-007
-1.862332e-007
-1.637421e-007
-1.411277e-007
-1.192535e-007
-9.882903e-008
-8.014834e-008
-6.317620e-008
-4.791237e-008
-3.466144e-008
-2.388398e-008
-1.572261e-008
-9.700916e-009
-5.002966e-009
-1.143784e-009
1.660889e-009
2.892653e-009
2.543426e-009
1.457190e-009
7.471391e-010
8.452319e-010
1.206871e-009
1.025064e-009
1.968290e-010
-5.224200e-010
-3.612234e-010
5.537003e-010
1.238625e-009
8.471702e-010
-4.206985e-010
-1.456586e-009
-1.300934e-009
-5.823814e-011
1.218139e-009
1.515054e-009
7.408619e-010
-3.051274e-010
-7.583474e-010
-4.678915e-010
-1.209088e-011
-1.187789e-008
-5.509032e-009
2.287941e-009
5.995341e-009
4.010809e-009
-7.897387e-010
-4.306495e-009
-4.627060e-009
-2.561308e-009
2.097060e-010
2.684763e-009
4.371456e-009
4.553296e-009
2.658159e-009
-5.772526e-010
-3.016893e-009
-2.862277e-009
-5.022264e-010
1.789063e-009
2.221609e-009
1.322040e-009
1.083091e-009
2.346690e-009
3.418061e-009
1.510916e-009
-4.627768e-009
-1.386424e-008
-2.444204e-008
-3.624916e-008
-5.107158e-008
-7.075000e-008
-9.545345e-008
-1.238883e-007
-1.549150e-007
-1.885980e-007
-2.256446e-007
-2.661162e-007
-3.089337e-007
-3.525686e-007
-3.959780e-007
-4.387912e-007
-4.807735e-007
-5.213310e-007
-5.595631e-007
-5.946505e-007
-6.260905e-007
-6.536019e-007
-6.769095e-007
-6.956406e-007
-7.093591e-007
-7.176453e-007
-7.201769e-007
-7.168038e-007
-7.075659e-007
-6.925934e-007
-6.719548e-007
-6.456336e-007
-6.137262e-007
-5.766990e-007
-5.354119e-007
-4.908352e-007
-4.437484e-007
-3.947948e-007
-3.448786e-007
-2.954353e-007
-2.481502e-007
-2.043000e-007
-1.643902e-007
-1.285040e-007
-9.696561e-008
-7.049466e-008
-4.957783e-008
-3.374797e-008
-2.168027e-008
-1.213670e-008
-4.786605e-009
-9.798508e-012
2.082520e-009
2.287732e-009
1.890799e-009
1.680672e-009
1.519792e-009
9.056021e-010
-1.744872e-010
-1.068620e-009
-1.103093e-009
-2.667017e-010
7.989353e-010
1.406964e-009
1.338476e-009
8.196925e-010
1.763581e-010
-3.781947e-010
-7.039484e-010
-6.878953e-010
-3.480599e-010
8.116401e-011
2.987387e-010
2.192129e-010
5.223713e-011
-1.893984e-008
-6.615253e-009
7.870102e-009
1.319449e-008
6.470760e-009
-5.184924e-009
-1.179220e-008
-9.082152e-009
-8.435103e-010
5.888790e-009
7.177028e-009
4.251740e-009
7.361821e-010
-1.030350e-009
-1.047438e-009
-2.641979e-010
7.682054e-010
1.840588e-009
2.529983e-009
2.385213e-009
1.524295e-009
4.072729e-010
-1.310803e-009
-5.396605e-009
-1.404565e-008
-2.822361e-008
-4.733796e-008
-7.077623e-008
-9.955407e-008
-1.360600e-007
-1.820826e-007
-2.373271e-007
-3.000280e-007
-3.688014e-007
-4.435323e-007
-5.243889e-007
-6.103096e-007
-6.988168e-007
-7.873162e-007
-8.743305e-007
-9.593663e-007
-1.041816e-006
-1.120301e-006
-1.193124e-006
-1.259102e-006
-1.317766e-006
-1.368834e-006
-1.411711e-006
-1.445591e-006
-1.469849e-006
-1.484166e-006
-1.488282e-006
-1.481822e-006
-1.464466e-006
-1.436187e-006
-1.397186e-006
-1.347616e-006
-1.287557e-006
-1.217415e-006
-1.138288e-006
-1.051801e-006
-9.595373e-007
-8.628050e-007
-7.630859e-007
-6.626543e-007
-5.644972e-007
-4.714297e-007
-3.852824e-007
-3.070078e-007
-2.374739e-007
-1.778732e-007
-1.291391e-007
-9.100871e-008
-6.187540e-008
-3.971184e-008
-2.312907e-008
-1.152993e-008
-4.391908e-009
-6.557490e-010
1.073998e-009
1.847953e-009
2.045321e-009
1.693986e-009
9.443849e-010
1.537549e-010
-3.581355e-010
-4.512108e-010
-7.819982e-011
7.342802e-010
1.678907e-009
2.083433e-009
1.348292e-009
-3.519968e-010
-1.924792e-009
-2.186352e-009
-9.801458e-010
5.990513e-010
1.231899e-009
6.510334e-010
-1.790225e-010
-2.253175e-008
-9.018640e-009
6.939043e-009
1.305111e-008
6.326607e-009
-5.249796e-009
-1.080249e-008
-6.319836e-009
2.848642e-009
8.124598e-009
5.764630e-009
-7.109803e-010
-4.965267e-009
-3.872171e-009
6.248936e-010
4.515996e-009
5.619332e-009
4.590838e-009
3.040645e-009
1.465076e-009
-1.087878e-009
-6.145100e-009
-1.521531e-008
-2.987784e-008
-5.184448e-008
-8.264406e-008
-1.235087e-007
-1.758913e-007
-2.419405e-007
-3.239256e-007
-4.228047e-007
-5.374083e-007
-6.652386e-007
-8.040426e-007
-9.523739e-007
-1.108586e-006
-1.269646e-006
-1.431393e-006
-1.590111e-006
-1.743669e-006
-1.891041e-006
-2.030936e-006
-2.161240e-006
-2.279811e-006
-2.385509e-006
-2.478180e-006
-2.557715e-006
-2.623409e-006
-2.674307e-006
-2.709914e-006
-2.730260e-006
-2.735283e-006
-2.724402e-006
-2.696850e-006
-2.652280e-006
-2.590818e-006
-2.512545e-006
-2.417204e-006
-2.304675e-006
-2.175711e-006
-2.032044e-006
-1.875762e-006
-1.708835e-006
-1.533489e-006
-1.353047e-006
-1.172105e-006
-9.956637e-007
-8.279975e-007
-6.723398e-007
-5.314073e-007
-4.077903e-007
-3.034747e-007
-2.189263e-007
-1.527769e-007
-1.024976e-007
-6.539958e-008
-3.911559e-008
-2.147427e-008
-1.033110e-008
-3.719237e-009
-9.534014e-011
1.655573e-009
2.367305e-009
2.577353e-009
2.389158e-009
1.618499e-009
3.329336e-010
-7.799049e-010
-8.358556e-010
2.885151e-010
1.551848e-009
1.593516e-009
1.353838e-010
-1.572660e-009
-1.910942e-009
-5.512996e-010
1.152971e-009
1.542670e-009
3.735299e-010
-9.622712e-010
-1.887027e-008
-9.799261e-009
1.224716e-009
6.300801e-009
3.520051e-009
-2.029444e-009
-3.693298e-009
2.917470e-010
5.495491e-009
6.124089e-009
9.651490e-010
-5.433451e-009
-7.263761e-009
-2.924997e-009
3.868164e-009
7.949779e-009
7.253054e-009
3.627466e-009
-2.458580e-010
-4.225400e-009
-1.119343e-008
-2.497946e-008
-4.844964e-008
-8.355438e-008
-1.326083e-007
-1.990161e-007
-2.867604e-007
-3.993745e-007
-5.391930e-007
-7.069034e-007
-9.011800e-007
-1.118656e-006
-1.354598e-006
-1.603923e-006
-1.861654e-006
-2.122519e-006
-2.380566e-006
-2.629785e-006
-2.865466e-006
-3.084934e-006
-3.286857e-006
-3.469969e-006
-3.632712e-006
-3.774106e-006
-3.894594e-006
-3.995663e-006
-4.078612e-006
-4.143879e-006
-4.191590e-006
-4.222411e-006
-4.237493e-006
-4.237538e-006
-4.222177e-006
-4.190385e-006
-4.141333e-006
-4.074512e-006
-3.989029e-006
-3.883071e-006
-3.754380e-006
-3.601295e-006
-3.423297e-006
-3.220680e-006
-2.994155e-006
-2.745254e-006
-2.477329e-006
-2.196085e-006
-1.909006e-006
-1.624173e-006
-1.349429e-006
-1.092130e-006
-8.589456e-007
-6.551728e-007
-4.838519e-007
-3.453439e-007
-2.376521e-007
-1.571484e-007
-9.929432e-008
-5.929740e-008
-3.275535e-008
-1.608531e-008
-6.464661e-009
-1.453241e-009
1.115273e-009
2.698514e-009
3.604329e-009
3.332377e-009
1.666492e-009
-5.323733e-010
-1.778773e-009
-1.300127e-009
1.749381e-010
1.124802e-009
7.676359e-010
-2.073977e-010
-4.999250e-010
3.029953e-010
1.249430e-009
1.095992e-009
-2.598873e-010
-1.584431e-009
-4.294462e-009
-4.084312e-009
-3.533293e-009
-2.521657e-009
-9.997694e-010
1.022216e-009
3.269493e-009
4.853004e-009
4.460700e-009
1.509199e-009
-2.626037e-009
-4.951458e-009
-3.175145e-009
1.920950e-009
6.644842e-009
7.363171e-009
3.455781e-009
-2.868387e-009
-9.880322e-009
-1.949363e-008
-3.725771e-008
-6.960269e-008
-1.214951e-007
-1.967509e-007
-3.000129e-007
-4.376198e-007
-6.160348e-007
-8.391509e-007
-1.106641e-006
-1.414082e-006
-1.753935e-006
-2.116369e-006
-2.489869e-006
-2.862078e-006
-3.220858e-006
-3.555218e-006
-3.855981e-006
-4.116423e-006
-4.332868e-006
-4.504714e-006
-4.633625e-006
-4.722458e-006
-4.774878e-006
-4.795785e-006
-4.791548e-006
-4.769218e-006
-4.735187e-006
-4.694551e-006
-4.651682e-006
-4.611012e-006
-4.576847e-006
-4.552292e-006
-4.538499e-006
-4.535013e-006
-4.540531e-006
-4.552932e-006
-4.568401e-006
-4.580680e-006
-4.581380e-006
-4.561161e-006
-4.510762e-006
-4.421436e-006
-4.285292e-006
-4.096294e-006
-3.851837e-006
-3.554092e-006
-3.210363e-006
-2.832458e-006
-2.435494e-006
-2.036417e-006
-1.652237e-006
-1.298126e-006
-9.857469e-007
-7.222268e-007
-5.098278e-007
-3.462571e-007
-2.256491e-007
-1.402169e-007
-8.210508e-008
-4.458994e-008
-2.215265e-008
-9.933233e-009
-3.584335e-009
9.644936e-011
2.500544e-009
3.510714e-009
2.777547e-009
8.469456e-010
-9.106058e-010
-1.382320e-009
-5.988790e-010
4.838611e-010
9.937389e-010
8.585235e-010
5.904502e-010
5.465382e-010
5.453277e-010
1.995951e-010
-5.091168e-010
-1.109832e-009
1.679447e-008
7.337262e-009
-3.945466e-009
-8.712025e-009
-4.975738e-009
2.193946e-009
6.171575e-009
4.548143e-009
4.235037e-011
-3.048046e-009
-2.563170e-009
7.213901e-010
4.604825e-009
6.990442e-009
6.458017e-009
2.448419e-009
-4.698989e-009
-1.462260e-008
-2.897328e-008
-5.313430e-008
-9.578853e-008
-1.665359e-007
-2.739222e-007
-4.256688e-007
-6.300200e-007
-8.953817e-007
-1.227039e-006
-1.622934e-006
-2.071626e-006
-2.553546e-006
-3.043952e-006
-3.515522e-006
-3.940213e-006
-4.291350e-006
-4.546433e-006
-4.689791e-006
-4.713861e-006
-4.618881e-006
-4.411717e-006
-4.104515e-006
-3.713339e-006
-3.256828e-006
-2.755128e-006
-2.229229e-006
-1.700336e-006
-1.188829e-006
-7.131127e-007
-2.891317e-007
6.916712e-008
3.492148e-007
5.399911e-007
6.329425e-007
6.227180e-007
5.071570e-007
2.870603e-007
-3.335496e-008
-4.452170e-007
-9.338257e-007
-1.478386e-006
-2.052705e-006
-2.626373e-006
-3.166139e-006
-3.637754e-006
-4.008611e-006
-4.251169e-006
-4.346614e-006
-4.287972e-006
-4.081891e-006
-3.748461e-006
-3.318807e-006
-2.830824e-006
-2.324034e-006
-1.834641e-006
-1.391532e-006
-1.013618e-006
-7.088681e-007
-4.754729e-007
-3.049120e-007
-1.857714e-007
-1.066650e-007
-5.741228e-008
-2.902531e-008
-1.371906e-008
-5.493984e-009
-7.350101e-010
1.991961e-009
2.987559e-009
2.530557e-009
1.315893e-009
1.967261e-010
-2.644547e-010
-1.616691e-011
5.572077e-010
9.055592e-010
6.756511e-010
-1.048962e-011
-6.159728e-010
-6.421793e-010
-1.106292e-010
4.284729e-010
3.174680e-008
1.641307e-008
-2.031728e-009
-1.043360e-008
-6.065922e-009
2.697578e-009
5.911885e-009
1.463592e-009
-4.541149e-009
-5.237507e-009
2.586763e-010
7.079559e-009
9.997081e-009
7.614579e-009
1.768354e-009
-5.943769e-009
-1.670109e-008
-3.480248e-008
-6.726533e-008
-1.238849e-007
-2.171697e-007
-3.612519e-007
-5.701885e-007
-8.565554e-007
-1.229813e-006
-1.692747e-006
-2.235700e-006
-2.831317e-006
-3.433562e-006
-3.982306e-006
-4.411238e-006
-4.655785e-006
-4.659601e-006
-4.380126e-006
-3.793458e-006
-2.897180e-006
-1.709556e-006
-2.653477e-007
1.389609e-006
3.202984e-006
5.119236e-006
7.082298e-006
9.038039e-006
1.093617e-005
1.273128e-005
1.438329e-005
1.585752e-005
1.712443e-005
1.815883e-005
1.893898e-005
1.944611e-005
1.966462e-005
1.958238e-005
1.919107e-005
1.848684e-005
1.747166e-005
1.615550e-005
1.455863e-005
1.271385e-005
1.066796e-005
8.482502e-006
6.232913e-006
4.005982e-006
1.895225e-006
-5.879861e-009
-1.612766e-006
-2.859922e-006
-3.710362e-006
-4.161806e-006
-4.247443e-006
-4.030726e-006
-3.595312e-006
-3.032294e-006
-2.427125e-006
-1.848670e-006
-1.342688e-006
-9.310736e-007
-6.162987e-007
-3.885309e-007
-2.323455e-007
-1.311916e-007
-6.966878e-008
-3.463099e-008
-1.581918e-008
-6.056379e-009
-9.239920e-010
1.874661e-009
3.201215e-009
3.204389e-009
2.086755e-009
5.778434e-010
-3.281324e-010
-1.965051e-010
3.777812e-010
3.652942e-010
-5.207745e-010
-1.385711e-009
-1.086174e-009
4.148027e-010
1.832487e-009
2.981171e-008
1.520468e-008
-1.855798e-009
-8.735990e-009
-3.718332e-009
4.090104e-009
5.249975e-009
-6.342659e-010
-5.933392e-009
-4.084654e-009
3.555380e-009
9.779890e-009
9.082803e-009
2.060395e-009
-7.479973e-009
-1.887647e-008
-3.807090e-008
-7.626893e-008
-1.471278e-007
-2.660082e-007
-4.509936e-007
-7.226549e-007
-1.100477e-006
-1.596215e-006
-2.205323e-006
-2.897461e-006
-3.608103e-006
-4.235369e-006
-4.646300e-006
-4.693158e-006
-4.235292e-006
-3.159969e-006
-1.397594e-006
1.069987e-006
4.207941e-006
7.933754e-006
1.212903e-005
1.665513e-005
2.136831e-005
2.613080e-005
3.081759e-005
3.532063e-005
3.955158e-005
4.344264e-005
4.694503e-005
5.002563e-005
5.266323e-005
5.484508e-005
5.656380e-005
5.781430e-005
5.859118e-005
5.888662e-005
5.868898e-005
5.798229e-005
5.674681e-005
5.496087e-005
5.260394e-005
4.966132e-005
4.613087e-005
4.203166e-005
3.741314e-005
3.236281e-005
2.701077e-005
2.152939e-005
1.612634e-005
1.102918e-005
6.461588e-006
2.614367e-006
-3.824090e-007
-2.479388e-006
-3.714644e-006
-4.204858e-006
-4.122295e-006
-3.662605e-006
-3.011374e-006
-2.317935e-006
-1.682398e-006
-1.156637e-006
-7.549089e-007
-4.677908e-007
-2.745234e-007
-1.516890e-007
-7.818247e-008
-3.718049e-008
-1.612249e-008
-5.988148e-009
-8.823356e-010
2.083950e-009
3.449838e-009
2.974819e-009
1.195899e-009
-3.937651e-010
-6.283903e-010
1.554453e-010
5.685258e-010
-1.524141e-010
-1.189554e-009
-1.103310e-009
3.795012e-010
1.890937e-009
1.256695e-008
4.397007e-009
-4.078421e-009
-5.325145e-009
3.092742e-010
5.657306e-009
4.876864e-009
-4.108674e-010
-3.488621e-009
-3.581388e-010
5.798170e-009
8.094117e-009
2.899449e-009
-7.825593e-009
-2.153257e-008
-4.226072e-008
-8.323127e-008