# vtk DataFile Version 3.0
vtk output
ASCII
DATASET STRUCTURED_POINTS
DIMENSIONS 100 100 1
SPACING 1 1 1
ORIGIN 0 0 0
POINT_DATA 10000
SCALARS SFBox_profile double
LOOKUP_TABLE default 
0.000000e+000
0.000000e+000
0.000000e+000
0.000000e+000
0.000000e+000
0.000000e+000
0.000000e+000
0.000000e+000
0.000000e+000
0.000000e+000
0.000000e+000
0.000000e+000
0.000000e+000
0.000000e+000
0.000000e+000
0.000000e+000
0.000000e+000
0.000000e+000
0.000000e+000
0.000000e+000
0.000000e+000
0.000000e+000
0.000000e+000
0.000000e+000
0.000000e+000
0.000000e+000
0.000000e+000
0.000000e+000
0.000000e+000
0.000000e+000
0.000000e+000
0.000000e+000
0.000000e+000
0.000000e+000
0.000000e+000
0.000000e+000
0.000000e+000
0.000000e+000
0.000000e+000
0.000000e+000
0.000000e+000
0.000000e+000
0.000000e+000
0.000000e+000
0.000000e+000
0.000000e+000
0.000000e+000
0.000000e+000
0.000000e+000
0.000000e+000
0.000000e+000
0.000000e+000
0.000000e+000
0.000000e+000
0.000000e+000
0.000000e+000
0.000000e+000
0.000000e+000
0.000000e+000
0.000000e+000
0.000000e+000
0.000000e+000
0.000000e+000
0.000000e+000
0.000000e+000
0.000000e+000
0.000000e+000
0.000000e+000
0.000000e+000
0.000000e+000
0.000000e+000
0.000000e+000
0.000000e+000
0.000000e+000
0.000000e+000
0.000000e+000
0.000000e+000
0.000000e+000
0.000000e+000
0.000000e+000
0.000000e+000
0.000000e+000
0.000000e+000
0.000000e+000
0.000000e+000
0.000000e+000
0.000000e+000
0.000000e+000
0.000000e+000
0.000000e+000
0.000000e+000
0.000000e+000
0.000000e+000
0.000000e+000
0.000000e+000
0.000000e+000
0.000000e+000
0.000000e+000
0.000000e+000
0.000000e+000
1.008395e-008
4.057862e-009
-3.098734e-009
-7.052653e-009
-5.613800e-009
-1.593149e-011
5.741688e-009
7.513589e-009
3.976202e-009
-2.326706e-009
-6.894401e-009
-6.749743e-009
-2.615522e-009
2.058510e-009
4.238233e-009
3.659117e-009
2.312739e-009
1.905093e-009
2.091692e-009
1.257031e-009
-1.265258e-009
-4.160650e-009
-5.442384e-009
-4.529597e-009
-2.705448e-009
-1.532756e-009
-1.167732e-009
-4.927194e-010
1.271998e-009
3.519647e-009
4.968699e-009
5.127820e-009
4.700543e-009
4.570002e-009
4.749874e-009
4.560901e-009
3.638574e-009
2.410141e-009
1.526258e-009
1.110547e-009
7.851741e-010
2.909699e-010
-2.076997e-010
-4.619885e-010
-5.233453e-010
-6.177613e-010
-7.793570e-010
-8.429243e-010
-7.817457e-010
-8.118205e-010
-1.054099e-009
-1.282637e-009
-1.218808e-009
-9.910166e-010
-1.031434e-009
-1.452427e-009
-1.780314e-009
-1.530148e-009
-9.048285e-010
-5.965430e-010
-8.397519e-010
-9.819972e-010
-2.667448e-010
1.117138e-009
2.156103e-009
2.268860e-009
2.092464e-009
2.680141e-009
4.049805e-009
4.977120e-009
4.418248e-009
2.824893e-009
1.642938e-009
1.538929e-009
1.558062e-009
3.311479e-010
-2.092701e-009
-4.049024e-009
-4.017302e-009
-2.290835e-009
-5.946636e-010
-1.138344e-010
-2.520991e-010
4.457393e-010
2.313898e-009
3.858622e-009
3.208529e-009
1.924623e-010
-3.183675e-009
-4.404558e-009
-2.629986e-009
6.525032e-010
2.979762e-009
2.907005e-009
9.215982e-010
-1.254669e-009
-2.113300e-009
-1.329922e-009
2.803056e-010
1.498707e-009
3.102532e-010
6.571859e-010
6.937469e-010
1.228097e-010
-6.728235e-010
-1.002159e-009
-5.843190e-010
1.495043e-010
5.168277e-010
3.266536e-010
7.379356e-011
3.213441e-010
9.361295e-010
1.092818e-009
1.595315e-010
-1.461306e-009
-2.536421e-009
-2.154146e-009
-6.319133e-010
8.256759e-010
1.364552e-009
1.251363e-009
1.349697e-009
1.972302e-009
2.481577e-009
2.080935e-009
8.018306e-010
-5.119050e-010
-1.166546e-009
-1.330634e-009
-1.667862e-009
-2.424259e-009
-3.127568e-009
-3.210506e-009
-2.703114e-009
-2.135217e-009
-1.858847e-009
-1.696883e-009
-1.301037e-009
-6.571727e-010
-7.288834e-011
2.475939e-010
4.156829e-010
6.211010e-010
8.576032e-010
1.002181e-009
1.060413e-009
1.161819e-009
1.324751e-009
1.399596e-009
1.318670e-009
1.261698e-009
1.423639e-009
1.686942e-009
1.720931e-009
1.443093e-009
1.190765e-009
1.283472e-009
1.530806e-009
1.410575e-009
7.595024e-010
5.172865e-011
-1.828441e-010
-7.875834e-011
-3.025753e-010
-1.167339e-009
-2.138973e-009
-2.436587e-009
-2.003306e-009
-1.585645e-009
-1.772715e-009
-2.204644e-009
-1.985942e-009
-8.193652e-010
5.560672e-010
1.186005e-009
9.789347e-010
7.268966e-010
1.064680e-009
1.654115e-009
1.581072e-009
4.787693e-010
-9.554201e-010
-1.638749e-009
-1.187625e-009
-2.192512e-010
3.728519e-010
2.995382e-010
-6.229468e-012
-2.193369e-011
2.744460e-010
4.714940e-010
2.646780e-010
-1.896450e-010
-4.679262e-010
-3.453532e-010
-4.249576e-012
2.053921e-010
1.470587e-010
-7.037015e-013
-1.050477e-008
-3.598306e-009
4.074652e-009
7.515335e-009
4.997302e-009
-1.162460e-009
-6.404979e-009
-7.146489e-009
-3.144596e-009
2.646150e-009
6.461732e-009
6.380979e-009
3.225371e-009
-6.735433e-010
-3.433899e-009
-4.586446e-009
-4.581962e-009
-3.808943e-009
-2.260957e-009
2.343037e-011
2.532300e-009
4.474894e-009
5.350436e-009
5.214697e-009
4.410120e-009
3.172070e-009
1.565085e-009
-3.024336e-010
-2.164781e-009
-3.740890e-009
-4.905276e-009
-5.659567e-009
-5.990822e-009
-5.846993e-009
-5.251705e-009
-4.362251e-009
-3.367071e-009
-2.360620e-009
-1.358168e-009
-4.013846e-010
4.146128e-010
1.024977e-009
1.454553e-009
1.769766e-009
2.007649e-009
2.182374e-009
2.326954e-009
2.474315e-009
2.605179e-009
2.672510e-009
2.693330e-009
2.761055e-009
2.924478e-009
3.095187e-009
3.141876e-009
3.065539e-009
3.001559e-009
3.017182e-009
2.977249e-009
2.684552e-009
2.121755e-009
1.461829e-009
8.247678e-010
1.180347e-010
-8.101357e-010
-1.913359e-009
-2.944188e-009
-3.707421e-009
-4.213695e-009
-4.530388e-009
-4.569084e-009
-4.138838e-009
-3.198802e-009
-1.940080e-009
-5.711836e-010
8.693850e-010
2.365420e-009
3.632043e-009
4.151633e-009
3.613393e-009
2.255403e-009
6.553485e-010
-8.002910e-010
-2.096423e-009
-3.179811e-009
-3.535603e-009
-2.463604e-009
5.028057e-011
2.821243e-009
4.083096e-009
2.878083e-009
-2.806975e-011
-2.621719e-009
-3.169468e-009
-1.514867e-009
9.051765e-010
2.254963e-009
1.685937e-009
-1.369406e-010
-1.660157e-009
-1.211350e-008
-5.136490e-009
3.144202e-009
7.777229e-009
6.372995e-009
4.543067e-010
-5.514571e-009
-7.219206e-009
-3.646007e-009
2.217276e-009
5.866637e-009
4.949386e-009
9.518469e-010
-2.506189e-009
-3.033788e-009
-1.277321e-009
3.326947e-010
2.915387e-010
-6.961141e-010
-9.506014e-010
1.036274e-010
1.385072e-009
1.546368e-009
5.216506e-010
-5.284077e-010
-6.238146e-010
2.364685e-011
4.739806e-010
2.565929e-010
-1.693618e-010
-9.947042e-011
5.591263e-010
1.274351e-009
1.589301e-009
1.599299e-009
1.696847e-009
2.027180e-009
2.354389e-009
2.415809e-009
2.242550e-009
2.065738e-009
2.005865e-009
1.971086e-009
1.848013e-009
1.680180e-009
1.595814e-009
1.616774e-009
1.630049e-009
1.554291e-009
1.455427e-009
1.443960e-009
1.503727e-009
1.507214e-009
1.407567e-009
1.328922e-009
1.401189e-009
1.557880e-009
1.606006e-009
1.508521e-009
1.479491e-009
1.702984e-009
2.027265e-009
2.098077e-009
1.827265e-009
1.567624e-009
1.673317e-009
1.967821e-009
1.878869e-009
1.177828e-009
3.823527e-010
1.928812e-010
5.837888e-010
7.480899e-010
1.015692e-010
-8.605008e-010
-1.026964e-009
-2.196618e-011
1.204538e-009
1.386682e-009
4.287325e-010
-4.498734e-010
-1.819511e-010
7.812660e-010
9.068939e-010
-5.689770e-010
-2.498346e-009
-2.812358e-009
-6.982471e-010
2.356773e-009
3.817249e-009
2.424643e-009
-6.785570e-010
-3.022320e-009
-2.941547e-009
-8.021087e-010
1.568125e-009
2.466015e-009
1.491702e-009
-4.285192e-010
-1.874541e-009
-1.838835e-009
-2.091831e-009
-1.496349e-009
2.301871e-010
1.984194e-009
2.331843e-009
1.078480e-009
-4.520820e-010
-8.549718e-010
-2.373083e-010
-8.241433e-011
-1.382690e-009
-3.124234e-009
-3.038299e-009
-6.383681e-011
4.127293e-009
6.400142e-009
5.073318e-009
1.438077e-009
-1.709685e-009
-2.860973e-009
-2.878169e-009
-3.401695e-009
-4.654332e-009
-5.214388e-009
-3.834012e-009
-9.834364e-010
1.686320e-009
3.165592e-009
3.956098e-009
5.096963e-009
6.727651e-009
7.953605e-009
8.007412e-009
7.142977e-009
6.223480e-009
5.680603e-009
5.185099e-009
4.299440e-009
3.135275e-009
2.190343e-009
1.706024e-009
1.445475e-009
1.108867e-009
7.331927e-010
5.429178e-010
5.471324e-010
5.049340e-010
2.898938e-010
8.148834e-011
7.775948e-011
1.570355e-010
2.424368e-011
-3.334157e-010
-5.613996e-010
-4.142030e-010
-1.408231e-010
-1.679612e-010
-4.462646e-010
-3.954327e-010
3.604581e-010
1.418180e-009
2.047402e-009
2.175249e-009
2.566551e-009
3.819373e-009
5.423117e-009
6.209123e-009
5.759297e-009
4.967826e-009
4.905257e-009
5.343590e-009
4.890817e-009
2.721865e-009
-2.121112e-010
-2.100113e-009
-2.292708e-009
-1.950680e-009
-2.470036e-009
-3.593023e-009
-3.574601e-009
-1.309741e-009
2.077775e-009
4.115838e-009
3.414079e-009
9.720256e-010
-9.810661e-010
-1.217604e-009
-4.106828e-010
1.964754e-011
-4.217968e-010
-9.648872e-010
-7.017101e-010
2.908694e-010
1.083447e-009
9.759788e-010
2.158826e-010
-3.941431e-010
-4.254040e-010
-1.874263e-010
1.202973e-008
3.495917e-009
-5.301700e-009
-8.257835e-009
-4.407648e-009
2.272440e-009
6.566028e-009
6.007901e-009
2.007227e-009
-2.226595e-009
-4.505756e-009
-4.654262e-009
-3.430713e-009
-1.268253e-009
1.624757e-009
4.365489e-009
5.402879e-009
3.878317e-009
7.818257e-010
-1.731279e-009
-2.359649e-009
-1.773209e-009
-1.538074e-009
-2.149319e-009
-2.524241e-009
-1.486719e-009
6.677584e-010
2.462328e-009
2.954285e-009
2.709024e-009
2.898249e-009
3.770856e-009
4.425360e-009
4.045123e-009
2.927515e-009
2.049467e-009
1.861233e-009
1.888711e-009
1.527013e-009
8.593035e-010
4.560596e-010
5.621374e-010
8.228135e-010
8.352350e-010
6.680128e-010
6.448844e-010
7.996394e-010
8.393080e-010
6.366565e-010
4.643496e-010
5.823503e-010
7.962325e-010
6.989426e-010
2.976029e-010
8.346123e-011
3.494761e-010
6.985029e-010
5.285692e-010
-8.576572e-011
-3.740085e-010
1.308977e-010
8.891378e-010
1.000983e-009
4.480844e-010
2.388581e-010
1.126413e-009
2.526995e-009
3.145456e-009
2.607299e-009
1.976509e-009
2.391545e-009
3.517461e-009
3.846013e-009
2.542793e-009
5.212982e-010
-6.369237e-010
-5.687384e-010
-4.514421e-010
-1.372383e-009
-2.809094e-009
-3.119867e-009
-1.444876e-009
1.257207e-009
3.176043e-009
3.370812e-009
2.303389e-009
8.836717e-010
-5.226919e-010
-1.930918e-009
-2.931673e-009
-2.624173e-009
-6.344483e-010
1.990072e-009
3.307195e-009
2.176182e-009
-5.391172e-010
-2.579846e-009
-2.263828e-009
1.875522e-012
2.092256e-009
1.654683e-008
6.617424e-009
-4.418839e-009
-9.600752e-009
-6.875889e-009
2.275726e-010
5.756005e-009
5.976825e-009
1.861652e-009
-2.445392e-009
-3.539866e-009
-1.429748e-009
1.207732e-009
1.957022e-009
6.760371e-010
-1.083426e-009
-2.013160e-009
-2.018187e-009
-1.538326e-009
-6.067586e-010
1.005842e-009
2.983009e-009
4.377374e-009
4.544697e-009
3.861792e-009
3.200956e-009
2.813657e-009
2.104361e-009
5.857371e-010
-1.292468e-009
-2.576400e-009
-2.930934e-009
-2.959776e-009
-3.326564e-009
-3.878209e-009
-3.915918e-009
-3.185083e-009
-2.231679e-009
-1.699731e-009
-1.575166e-009
-1.366844e-009
-8.768048e-010
-4.575924e-010
-4.664233e-010
-7.640451e-010
-9.619649e-010
-9.908005e-010
-1.126887e-009
-1.472732e-009
-1.724068e-009
-1.612585e-009
-1.353693e-009
-1.366270e-009
-1.619441e-009
-1.597345e-009
-1.032021e-009
-3.839426e-010
-2.999543e-010
-7.205897e-010
-9.101914e-010
-4.699829e-010
2.797733e-011
-2.665236e-010
-1.321155e-009
-2.178183e-009
-2.163613e-009
-1.759250e-009
-1.937436e-009
-2.809024e-009
-3.388676e-009
-2.813524e-009
-1.416760e-009
-2.598157e-010
2.175492e-010
6.323639e-010
1.655951e-009
2.970349e-009
3.573402e-009
2.981231e-009
1.732212e-009
6.287453e-010
-1.448130e-010
-8.479462e-010
-1.361402e-009
-1.076543e-009
1.734168e-010
1.414656e-009
1.269226e-009
-4.703268e-010
-2.282865e-009
-2.259145e-009
-7.151638e-011
2.515343e-009
3.206181e-009
1.297039e-009
-1.672215e-009
-3.273777e-009
-2.246189e-009
5.284570e-010
2.814069e-009
5.889122e-009
3.711230e-009
5.299929e-010
-2.166139e-009
-2.947916e-009
-1.680847e-009
7.257095e-011
4.497134e-010
-6.887643e-010
-1.424816e-009
1.337044e-010
3.436784e-009
5.547194e-009
3.930995e-009
-8.568733e-010
-5.490363e-009
-6.889655e-009
-4.774197e-009
-1.290550e-009
1.441787e-009
3.012462e-009
4.158635e-009
5.234866e-009
5.743765e-009
5.194325e-009
3.855649e-009
2.416317e-009
1.189263e-009
-7.770365e-012
-1.282151e-009
-2.353668e-009
-2.937224e-009
-3.176694e-009
-3.450570e-009
-3.852274e-009
-4.134067e-009
-4.190155e-009
-4.339706e-009
-4.969748e-009
-6.049802e-009
-7.217820e-009
-8.296282e-009
-9.482283e-009
-1.096227e-008
-1.255557e-008
-1.392164e-008
-1.500130e-008
-1.601578e-008
-1.703687e-008
-1.780978e-008
-1.812378e-008
-1.815831e-008
-1.822603e-008
-1.825271e-008
-1.780005e-008
-1.667878e-008
-1.528479e-008
-1.411512e-008
-1.310125e-008
-1.172548e-008
-9.808349e-009
-7.869958e-009
-6.524046e-009
-5.723723e-009
-4.907390e-009
-3.832754e-009
-2.917148e-009
-2.613875e-009
-2.732018e-009
-2.671094e-009
-2.205855e-009
-1.666901e-009
-1.276440e-009
-6.774543e-010
5.674017e-010
2.197659e-009
3.399065e-009
3.778001e-009
3.784957e-009
3.875384e-009
3.540585e-009
1.753134e-009
-1.453374e-009
-4.292011e-009
-4.638377e-009
-2.208989e-009
9.799956e-010
2.515998e-009
1.820544e-009
3.504918e-010
-2.340788e-010
2.458305e-010
6.895398e-010
2.440958e-010
-7.476717e-010
-1.304393e-009
-9.558867e-010
-1.020643e-010
6.106183e-010
9.288417e-010
-1.197450e-008
-3.232739e-009
5.290943e-009
7.576819e-009
3.632499e-009
-1.965961e-009
-4.853220e-009
-4.194935e-009
-1.938330e-009
1.224071e-010
1.803773e-009
3.372623e-009
4.043721e-009
2.555835e-009
-8.188545e-010
-3.680467e-009
-3.585745e-009
-6.397416e-010
2.477960e-009
3.225723e-009
1.630679e-009
-1.753382e-010
-4.986343e-010
3.383591e-010
9.273673e-010
6.762702e-010
3.081237e-010
6.614196e-010
1.560531e-009
2.096686e-009
1.697984e-009
5.518986e-010
-9.490716e-010
-2.808061e-009
-5.331351e-009
-8.666528e-009
-1.266094e-008
-1.710388e-008
-2.189286e-008
-2.693167e-008
-3.203502e-008
-3.703171e-008
-4.186771e-008
-4.651072e-008
-5.082122e-008
-5.463445e-008
-5.793764e-008
-6.083616e-008
-6.333135e-008
-6.526062e-008
-6.651398e-008
-6.718378e-008
-6.737847e-008
-6.696838e-008
-6.568664e-008
-6.347955e-008
-6.058173e-008
-5.717558e-008
-5.314119e-008
-4.829973e-008
-4.280256e-008
-3.706484e-008
-3.132743e-008
-2.553030e-008
-1.972022e-008
-1.434271e-008
-9.868223e-009
-6.241345e-009
-3.045538e-009
-2.710029e-010
1.453754e-009
1.697106e-009
1.069005e-009
7.580806e-010
1.156499e-009
1.401665e-009
6.382227e-010
-5.531777e-010
-5.928721e-010
1.086057e-009
2.963281e-009
2.878682e-009
4.754559e-010
-2.257728e-009
-3.041574e-009
-1.578996e-009
4.833606e-010
1.576612e-009
1.650314e-009
1.515317e-009
1.340444e-009
4.635311e-010
-1.282706e-009
-2.682733e-009
-2.171091e-009
2.364675e-010
2.504421e-009
2.459551e-009
9.754772e-011
-2.256872e-009
-2.125650e-008
-7.721106e-009
6.150539e-009
1.108951e-008
6.370126e-009
-1.471784e-009
-5.348623e-009
-3.493664e-009
4.357200e-010
2.066770e-009
5.342196e-010
-1.695888e-009
-2.204156e-009
-9.521990e-010
6.310500e-010
1.863411e-009
3.232720e-009
4.813397e-009
5.295723e-009
3.318283e-009
-5.146739e-010
-3.719720e-009
-4.321352e-009
-2.768301e-009
-1.143792e-009
-7.611713e-010
-1.077335e-009
-9.998778e-010
-6.772439e-010
-1.523662e-009
-4.670907e-009
-9.921564e-009
-1.636298e-008
-2.361448e-008
-3.210418e-008
-4.224424e-008
-5.372565e-008
-6.575778e-008
-7.777368e-008
-8.969008e-008
-1.015653e-007
-1.132332e-007
-1.243396e-007
-1.346113e-007
-1.439845e-007
-1.524979e-007
-1.601306e-007
-1.667526e-007
-1.722008e-007
-1.763844e-007
-1.792964e-007
-1.809020e-007
-1.810436e-007
-1.795284e-007
-1.763235e-007
-1.715692e-007
-1.653288e-007
-1.574286e-007
-1.477129e-007
-1.364324e-007
-1.241654e-007
-1.112628e-007
-9.759518e-008
-8.310082e-008
-6.846359e-008
-5.485379e-008
-4.286445e-008
-3.204726e-008
-2.184620e-008
-1.279404e-008
-6.241170e-009
-2.737327e-009
-1.150692e-009
1.393763e-010
1.373423e-009
1.347095e-009
-6.118706e-010
-3.147326e-009
-3.936575e-009
-2.153936e-009
6.681058e-010
2.403723e-009
2.501596e-009
2.004858e-009
1.759881e-009
1.377764e-009
2.361191e-010
-1.098403e-009
-1.234208e-009
1.779621e-010
1.574180e-009
1.044159e-009
-1.308545e-009
-3.089957e-009
-2.043548e-009
1.351126e-009
4.026276e-009
3.266744e-009
-5.019217e-010
-3.949942e-009
-1.276239e-008
-5.015687e-009
2.911594e-009
5.601141e-009
2.689569e-009
-1.553586e-009
-2.460256e-009
6.579665e-010
4.087977e-009
3.668872e-009
-8.659426e-010
-5.602111e-009
-6.395033e-009
-2.785903e-009
2.089209e-009
4.971501e-009
5.223773e-009
4.237011e-009
3.097509e-009
1.715898e-009
3.289535e-011
-1.016053e-009
-4.731869e-010
1.049715e-009
1.538252e-009
-4.797559e-010
-4.659867e-009
-9.849201e-009
-1.600079e-008
-2.450633e-008
-3.661973e-008
-5.209198e-008
-6.969148e-008
-8.875041e-008
-1.096896e-007
-1.330065e-007
-1.582084e-007
-1.840501e-007
-2.096258e-007
-2.348743e-007
-2.600028e-007
-2.847307e-007
-3.083106e-007
-3.301571e-007
-3.502024e-007
-3.685824e-007
-3.851431e-007
-3.994026e-007
-4.109517e-007
-4.197264e-007
-4.257949e-007
-4.289645e-007
-4.287708e-007
-4.249149e-007
-4.175662e-007
-4.070549e-007
-3.933119e-007
-3.758816e-007
-3.546450e-007
-3.303389e-007
-3.040563e-007
-2.762717e-007
-2.467497e-007
-2.156262e-007
-1.842573e-007
-1.545167e-007
-1.272623e-007
-1.019841e-007
-7.821869e-008
-5.688445e-008
-3.963362e-008
-2.693232e-008
-1.741379e-008
-9.478712e-009
-3.114482e-009
4.616648e-010
8.727086e-010
-3.672965e-010
-1.175915e-009
-8.184239e-010
8.882130e-012
7.366148e-010
1.742512e-009
3.299465e-009
4.368828e-009
3.349799e-009
1.794873e-010
-2.955758e-009
-3.571514e-009
-1.458569e-009
1.091957e-009
1.709674e-009
3.058204e-010
-1.129697e-009
-8.423773e-010
8.799698e-010
2.172411e-009
1.579571e-009
-5.341600e-010
-2.377968e-009
6.897848e-009
2.560683e-009
-1.878420e-009
-3.813784e-009
-3.240456e-009
-1.448252e-009
7.427917e-010
2.971340e-009
4.240610e-009
3.129226e-009
-3.325554e-010
-3.677959e-009
-3.937619e-009
-7.967372e-010
2.776320e-009
3.509063e-009
1.172296e-009
-1.451562e-009
-1.714596e-009
4.031773e-010
2.975100e-009
4.455494e-009
4.555152e-009
3.080641e-009
-1.062436e-009
-9.149321e-009
-2.139528e-008
-3.716139e-008
-5.639492e-008
-8.023805e-008
-1.098776e-007
-1.451676e-007
-1.848521e-007
-2.280043e-007
-2.747004e-007
-3.251075e-007
-3.783404e-007
-4.326614e-007
-4.867099e-007
-5.401249e-007
-5.928596e-007
-6.442307e-007
-6.929677e-007
-7.380913e-007
-7.794012e-007
-8.169831e-007
-8.504674e-007
-8.790187e-007
-9.019975e-007
-9.193457e-007
-9.311656e-007
-9.370813e-007
-9.362926e-007
-9.283014e-007
-9.133200e-007
-8.917416e-007
-8.633655e-007
-8.275435e-007
-7.842318e-007
-7.345897e-007
-6.802173e-007
-6.219679e-007
-5.599967e-007
-4.951060e-007
-4.295655e-007
-3.661227e-007
-3.063411e-007
-2.504105e-007
-1.986332e-007
-1.524691e-007
-1.135937e-007
-8.218707e-008
-5.680610e-008
-3.605848e-008
-1.984836e-008
-8.626865e-009
-1.895062e-009
1.832877e-009
3.630924e-009
3.510010e-009
1.595426e-009
-6.138595e-010
-1.055847e-009
6.884390e-010
2.673511e-009
2.603869e-009
3.549197e-010
-1.969908e-009
-2.409463e-009
-1.052489e-009
5.485200e-010
1.296884e-009
1.327776e-009
1.105733e-009
5.559631e-010
-4.941055e-010
-1.464893e-009
-1.342575e-009
1.554001e-011
1.384894e-009
2.105916e-008
7.504009e-009
-5.625664e-009
-9.498959e-009
-4.945712e-009
9.483134e-010
2.785676e-009
1.026109e-009
-6.553677e-010
-2.592592e-010
1.165965e-009
2.018126e-009
2.270725e-009
2.593525e-009
2.510606e-009
8.007789e-010
-2.263309e-009
-4.240012e-009
-2.896929e-009
1.055739e-009
4.261500e-009
3.663841e-009
-1.456954e-009
-1.045385e-008
-2.352682e-008
-4.229454e-008
-6.848421e-008
-1.029212e-007
-1.460632e-007
-1.988507e-007
-2.623183e-007
-3.364413e-007
-4.199003e-007
-5.110990e-007
-6.089726e-007
-7.125092e-007
-8.198325e-007
-9.283161e-007
-1.035697e-006
-1.140727e-006
-1.242583e-006
-1.339943e-006
-1.431053e-006
-1.514629e-006
-1.590335e-006
-1.658181e-006
-1.717666e-006
-1.767798e-006
-1.807867e-006
-1.837860e-006
-1.857892e-006
-1.867425e-006
-1.865360e-006
-1.850931e-006
-1.824176e-006
-1.785321e-006
-1.733933e-006
-1.669153e-006
-1.590872e-006
-1.500333e-006
-1.399323e-006
-1.289085e-006
-1.170542e-006
-1.045620e-006
-9.178249e-007
-7.911315e-007
-6.685591e-007
-5.522095e-007
-4.444165e-007
-3.480417e-007
-2.652139e-007
-1.961579e-007
-1.397352e-007
-9.489796e-008
-6.099547e-008
-3.669122e-008
-1.949521e-008
-7.128666e-009
9.215232e-010
4.012747e-009
2.669807e-009
-3.861746e-010
-2.074633e-009
-1.510992e-009
-1.447450e-010
5.199102e-010
5.901551e-010
9.253816e-010
1.416054e-009
1.089460e-009
-1.317030e-010
-7.969931e-010
2.575086e-010
1.946341e-009
1.797811e-009
-9.365103e-010
-3.772380e-009
-3.402317e-009
4.370805e-010
4.226201e-009
1.857989e-008
4.920818e-009
-7.034689e-009
-8.081834e-009
-7.276269e-010
5.366210e-009
3.885284e-009
-2.534229e-009
-6.475460e-009
-4.027369e-009
1.919842e-009
5.863141e-009
5.540830e-009
3.008074e-009
1.084313e-009
3.974215e-010
1.280615e-010
1.444184e-010
9.264155e-010
1.541560e-009
-1.006301e-009
-9.732423e-009
-2.556030e-008
-4.801292e-008
-7.784859e-008
-1.182930e-007
-1.734916e-007
-2.462861e-007
-3.377753e-007
-4.483714e-007
-5.782978e-007
-7.268129e-007
-8.915100e-007
-1.068829e-006
-1.255094e-006
-1.446787e-006
-1.640117e-006
-1.831015e-006
-2.015921e-006
-2.192400e-006
-2.358800e-006
-2.513511e-006
-2.654914e-006
-2.782028e-006
-2.894820e-006
-2.993595e-006
-3.078196e-006
-3.148020e-006
-3.202740e-006
-3.242648e-006
-3.268057e-006
-3.278525e-006
-3.272954e-006
-3.250460e-006
-3.210807e-006
-3.153808e-006
-3.078556e-006
-2.983676e-006
-2.868407e-006
-2.733104e-006
-2.578610e-006
-2.405597e-006
-2.215098e-006
-2.009693e-006
-1.793756e-006
-1.572447e-006
-1.350879e-006
-1.134445e-006
-9.293227e-007
-7.416307e-007
-5.756886e-007
-4.333644e-007
-3.151411e-007
-2.210968e-007
-1.501634e-007
-9.883206e-008
-6.180800e-008
-3.469703e-008
-1.579401e-008
-4.839082e-009
-4.437387e-010
4.380452e-010
4.832371e-010
3.743644e-010
-2.197524e-010
-7.032095e-010
2.893168e-010
2.715762e-009
4.272963e-009
2.762683e-009
-9.284411e-010
-3.257507e-009
-1.897127e-009
1.424062e-009
2.722777e-009
3.402543e-010
-3.028886e-009
-3.342027e-009
1.279638e-010
3.831227e-009
3.598427e-009
-2.133518e-009
-5.519731e-009
-2.277812e-009
4.503712e-009
7.728504e-009
3.764093e-009
-3.691588e-009
-7.454612e-009
-4.295600e-009
2.036675e-009
5.267948e-009
3.283021e-009
-3.301574e-010
-9.508438e-010
2.079399e-009
5.503849e-009
6.010483e-009
2.605974e-009
-4.823802e-009
-1.789587e-008
-3.970282e-008
-7.308490e-008
-1.203104e-007
-1.848334e-007
-2.724111e-007
-3.894531e-007
-5.400809e-007
-7.249019e-007
-9.421101e-007
-1.188760e-006
-1.460553e-006
-1.751017e-006
-2.051823e-006
-2.354325e-006
-2.650861e-006
-2.934992e-006
-3.201333e-006
-3.445797e-006
-3.666004e-006
-3.861138e-006
-4.031313e-006
-4.177170e-006
-4.299964e-006
-4.401588e-006
-4.484094e-006
-4.549106e-006
-4.597822e-006
-4.631526e-006
-4.651814e-006
-4.660118e-006
-4.657085e-006
-4.642623e-006
-4.616496e-006
-4.578552e-006
-4.528142e-006
-4.463472e-006
-4.381783e-006
-4.280079e-006
-4.155392e-006
-4.004450e-006
-3.823751e-006
-3.610674e-006
-3.364741e-006
-3.087877e-006
-2.784016e-006
-2.459336e-006
-2.123086e-006
-1.787334e-006
-1.464727e-006
-1.165875e-006
-8.985966e-007
-6.687697e-007
-4.803903e-007
-3.338643e-007
-2.247795e-007
-1.455858e-007
-8.912307e-008
-5.048948e-008
-2.591104e-008
-1.115219e-008
-2.174344e-009
2.981766e-009
4.280691e-009
2.230315e-009
-4.538730e-010
-6.748942e-010
1.768467e-009
3.813655e-009
2.616951e-009
-1.074797e-009
-3.674027e-009
-2.729092e-009
5.015377e-010
2.652861e-009
1.929816e-009
-3.041684e-010
-1.448372e-009
-5.964657e-010
7.639464e-010
-1.018736e-008
-6.013478e-009
-8.626614e-010
3.048589e-009
4.754207e-009
4.053445e-009
1.417758e-009
-1.476266e-009
-2.288704e-009
-2.479325e-010
2.414727e-009
2.451226e-009
-5.435305e-010
-3.106963e-009
-1.608772e-009
3.288547e-009
6.626504e-009
3.478867e-009
-7.719684e-009
-2.662913e-008
-5.502147e-008
-9.852808e-008
-1.648782e-007
-2.617176e-007
-3.964821e-007
-5.769229e-007
-8.096380e-007
-1.096898e-006
-1.434696e-006
-1.813604e-006
-2.220848e-006
-2.641381e-006
-3.058085e-006
-3.452888e-006
-3.809346e-006
-4.115131e-006
-4.362853e-006
-4.549410e-006
-4.675192e-006
-4.743702e-006
-4.761116e-006
-4.735331e-006
-4.674854e-006
-4.588070e-006
-4.482971e-006
-4.366980e-006
-4.246786e-006
-4.128387e-006
-4.017370e-006
-3.919099e-006
-3.838537e-006
-3.779899e-006
-3.746541e-006
-3.741019e-006
-3.764828e-006
-3.817666e-006
-3.896732e-006
-3.996522e-006
-4.108822e-006
-4.222398e-006
-4.322805e-006
-4.393279e-006
-4.416773e-006
-4.377979e-006
-4.264662e-006
-4.069166e-006
-3.790934e-006
-3.438793e-006
-3.030586e-006
-2.589694e-006
-2.140906e-006
-1.707970e-006
-1.312214e-006
-9.701726e-007
-6.904435e-007
-4.726759e-007
-3.102785e-007
-1.944967e-007
-1.163546e-007
-6.631935e-008
-3.467952e-008
-1.401569e-008
-1.165391e-009
4.262632e-009
3.557264e-009
4.645303e-010
-1.119095e-009
-2.214916e-010
1.226410e-009
1.261464e-009
4.147411e-012
-1.070496e-009
-1.058785e-009
-2.248090e-010
8.202597e-010
1.680762e-009
1.918802e-009
1.042000e-009
-7.650665e-010
-2.295214e-009
-1.376112e-008
-2.993101e-009
5.682608e-009
5.441283e-009
-4.651086e-010
-4.300613e-009
-2.531564e-009
1.942165e-009
4.641461e-009
4.256973e-009
2.360754e-009
4.959486e-010
-8.008349e-010
-9.575192e-010
4.892814e-010
1.944941e-009
-8.975805e-010
-1.272236e-008
-3.622826e-008
-7.350549e-008
-1.302094e-007
-2.177359e-007
-3.508554e-007
-5.433985e-007
-8.057268e-007
-1.143998e-006
-1.558412e-006
-2.039629e-006
-2.566149e-006
-3.105494e-006
-3.618615e-006
-4.064760e-006
-4.405384e-006
-4.607880e-006
-4.649652e-006
-4.521135e-006
-4.225957e-006
-3.778333e-006
-3.199645e-006
-2.515801e-006
-1.755294e-006
-9.471883e-007
-1.189541e-007
7.050220e-007
1.503709e-006
2.258841e-006
2.954244e-006
3.575402e-006
4.109092e-006
4.542910e-006
4.864880e-006
5.063394e-006
5.127547e-006
5.047800e-006
4.816991e-006
4.431606e-006
3.893056e-006
3.208937e-006
2.394588e-006
1.474905e-006
4.853484e-007
-5.289880e-007
-1.516067e-006
-2.420287e-006
-3.186488e-006
-3.765816e-006
-4.123551e-006
-4.246171e-006
-4.144055e-006
-3.849033e-006
-3.408976e-006
-2.881365e-006
-2.325573e-006
-1.793700e-006
-1.322772e-006
-9.321925e-007
-6.268765e-007
-4.022016e-007
-2.471151e-007
-1.459982e-007
-8.198292e-008
-4.154282e-008
-1.685499e-008
-3.959463e-009
6.484870e-010
1.055328e-009
3.742792e-010
-2.698040e-010
-6.294304e-010
-1.244572e-010
1.445925e-009
2.732920e-009
1.914314e-009
-6.954374e-010
-2.285580e-009
-7.723892e-010
2.229293e-009
2.950615e-009
1.017286e-010
-3.252882e-009
-9.880811e-009
2.803780e-009
1.070274e-008
5.502548e-009
-5.884365e-009
-1.076225e-008
-4.883705e-009
4.441837e-009
8.038382e-009
4.656728e-009
2.675776e-010
-6.550783e-011
2.837935e-009
4.794231e-009
2.885239e-009
-3.999895e-009
-1.802497e-008
-4.407575e-008
-8.910351e-008
-1.622031e-007
-2.768404e-007
-4.520828e-007
-7.093758e-007
-1.065868e-006
-1.528145e-006
-2.087948e-006
-2.718256e-006
-3.369234e-006
-3.967336e-006
-4.421453e-006
-4.635721e-006
-4.524201e-006
-4.022727e-006
-3.096374e-006
-1.742931e-006
7.816625e-009
2.099579e-006
4.458765e-006
7.004315e-006
9.655298e-006
1.233577e-005
1.497807e-005
1.752523e-005
1.993188e-005
2.216307e-005
2.419151e-005
2.599505e-005
2.755488e-005
2.885431e-005
2.987729e-005
3.060697e-005
3.102488e-005
3.111118e-005
3.084562e-005
3.020904e-005
2.918510e-005
2.776260e-005
2.593847e-005
2.372222e-005
2.114133e-005
1.824611e-005
1.511248e-005
1.184224e-005
8.561036e-006
5.412396e-006
2.545548e-006
9.716021e-008
-1.828563e-006
-3.175644e-006
-3.944559e-006
-4.191984e-006
-4.021306e-006
-3.563676e-006
-2.953214e-006
-2.304480e-006
-1.699832e-006
-1.187894e-006
-7.883894e-007
-4.987390e-007
-3.016434e-007
-1.739663e-007
-9.456884e-008
-4.763382e-008
-2.159842e-008
-7.611505e-009
-2.192889e-011
3.118268e-009
2.255630e-009
-4.380600e-010
-1.181233e-009
1.561773e-009
4.739575e-009
3.998671e-009
-7.384359e-010
-4.582230e-009
-3.351924e-009
1.250076e-009
3.655548e-009
1.298737e-009
-2.330831e-009
-6.458655e-009
4.572743e-009
1.057169e-008
4.415951e-009
-6.450040e-009
-9.824260e-009
-2.871512e-009
5.682099e-009
6.673551e-009
8.798105e-010
-3.196440e-009
-1.616048e-010
6.208637e-009
7.643550e-009
-6.622465e-010