# vtk DataFile Version 3.0
vtk output
ASCII
DATASET STRUCTURED_POINTS
DIMENSIONS 100 100 1
SPACING 1 1 1
ORIGIN 0 0 0
POINT_DATA 10000
SCALARS SFBox_profile double
LOOKUP_TABLE default 
0.000000e+000
0.000000e+000
0.000000e+000
0.000000e+000
0.000000e+000
0.000000e+000
0.000000e+000
0.000000e+000
0.000000e+000
0.000000e+000
0.000000e+000
0.000000e+000
0.000000e+000
0.000000e+000
0.000000e+000
0.000000e+000
0.000000e+000
0.000000e+000
0.000000e+000
0.000000e+000
0.000000e+000
0.000000e+000
0.000000e+000
0.000000e+000
0.000000e+000
0.000000e+000
0.000000e+000
0.000000e+000
0.000000e+000
0.000000e+000
0.000000e+000
0.000000e+000
0.000000e+000
0.000000e+000
0.000000e+000
0.000000e+000
0.000000e+000
0.000000e+000
0.000000e+000
0.000000e+000
0.000000e+000
0.000000e+000
0.000000e+000
0.000000e+000
0.000000e+000
0.000000e+000
0.000000e+000
0.000000e+000
0.000000e+000
0.000000e+000
0.000000e+000
0.000000e+000
0.000000e+000
0.000000e+000
0.000000e+000
0.000000e+000
0.000000e+000
0.000000e+000
0.000000e+000
0.000000e+000
0.000000e+000
0.000000e+000
0.000000e+000
0.000000e+000
0.000000e+000
0.000000e+000
0.000000e+000
0.000000e+000
0.000000e+000
0.000000e+000
0.000000e+000
0.000000e+000
0.000000e+000
0.000000e+000
0.000000e+000
0.000000e+000
0.000000e+000
0.000000e+000
0.000000e+000
0.000000e+000
0.000000e+000
0.000000e+000
0.000000e+000
0.000000e+000
0.000000e+000
0.000000e+000
0.000000e+000
0.000000e+000
0.000000e+000
0.000000e+000
0.000000e+000
0.000000e+000
0.000000e+000
0.000000e+000
0.000000e+000
0.000000e+000
0.000000e+000
0.000000e+000
0.000000e+000
0.000000e+000
-7.652797e-008
-5.214543e-008
-1.545017e-008
1.635155e-008
3.045460e-008
2.476357e-008
7.424229e-009
-9.469023e-009
-1.739719e-008
-1.526935e-008
-7.781764e-009
-5.176289e-010
4.018841e-009
6.701937e-009
9.104509e-009
1.091883e-008
9.993499e-009
4.735686e-009
-3.668837e-009
-1.150410e-008
-1.510128e-008
-1.341505e-008
-8.367813e-009
-2.890385e-009
1.364482e-009
4.633421e-009
7.801707e-009
1.087872e-008
1.276420e-008
1.235849e-008
9.707030e-009
5.995492e-009
2.510158e-009
-3.070319e-010
-2.832476e-009
-5.480940e-009
-8.097340e-009
-1.010918e-008
-1.114924e-008
-1.141994e-008
-1.145265e-008
-1.159299e-008
-1.177100e-008
-1.173284e-008
-1.141192e-008
-1.103057e-008
-1.086764e-008
-1.098068e-008
-1.117585e-008
-1.122584e-008
-1.108239e-008
-1.086296e-008
-1.064349e-008
-1.029191e-008
-9.529253e-009
-8.163283e-009
-6.251582e-009
-4.018887e-009
-1.621215e-009
9.646307e-010
3.769008e-009
6.546920e-009
8.729995e-009
9.738172e-009
9.367886e-009
7.847417e-009
5.504387e-009
2.456503e-009
-1.252398e-009
-5.178758e-009
-8.266268e-009
-9.317797e-009
-7.839849e-009
-4.453571e-009
-4.374786e-010
3.136486e-009
5.789629e-009
7.244396e-009
6.918738e-009
4.181697e-009
-6.535469e-010
-5.686084e-009
-8.179429e-009
-6.457562e-009
-1.394335e-009
3.948107e-009
6.421607e-009
4.965627e-009
1.116142e-009
-2.412586e-009
-3.738774e-009
-2.801454e-009
-8.331846e-010
8.610157e-010
1.682836e-009
1.681696e-009
1.113742e-009
2.109749e-010
-7.459191e-010
-1.375796e-009
-1.371200e-008
-8.719314e-009
-1.462672e-009
4.214111e-009
5.631872e-009
2.836806e-009
-1.564738e-009
-4.232729e-009
-3.375186e-009
1.095968e-010
3.455997e-009
4.184974e-009
1.920963e-009
-1.516794e-009
-3.714521e-009
-3.541863e-009
-1.754058e-009
2.601350e-011
8.516526e-010
1.076449e-009
1.617286e-009
2.750167e-009
3.701285e-009
3.402136e-009
1.582377e-009
-9.164073e-010
-2.877869e-009
-3.715135e-009
-3.766570e-009
-3.701829e-009
-3.749401e-009
-3.538039e-009
-2.618226e-009
-1.026664e-009
7.059483e-010
2.052857e-009
2.927757e-009
3.629070e-009
4.424422e-009
5.256302e-009
5.851370e-009
6.054021e-009
5.997792e-009
5.953958e-009
6.056922e-009
6.207078e-009
6.226525e-009
6.070436e-009
5.863964e-009
5.743867e-009
5.692010e-009
5.541799e-009
5.143795e-009
4.507108e-009
3.764327e-009
3.003127e-009
2.158745e-009
1.100716e-009
-1.704925e-010
-1.440261e-009
-2.423891e-009
-2.995383e-009
-3.243832e-009
-3.284153e-009
-3.044865e-009
-2.313280e-009
-1.032390e-009
4.796708e-010
1.680927e-009
2.219472e-009
2.178526e-009
1.879074e-009
1.466902e-009
7.814335e-010
-3.083282e-010
-1.490132e-009
-2.070384e-009
-1.569572e-009
-2.700647e-010
9.098616e-010
1.178316e-009
5.468427e-010
-2.486545e-010
-4.921344e-010
-1.350100e-010
2.819886e-010
2.810630e-010
-5.911163e-011
-2.738485e-010
-9.827102e-011
2.202673e-010
2.315378e-010
-1.558450e-010
-5.187646e-010
-3.724202e-010
2.566063e-010
7.843190e-010
6.418037e-010
-1.171737e-010
-8.212933e-010
5.992964e-008
4.145202e-008
1.347496e-008
-1.127616e-008
-2.333460e-008
-2.085741e-008
-9.054404e-009
4.138481e-009
1.274246e-008
1.486136e-008
1.176822e-008
5.701346e-009
-1.536377e-009
-8.502180e-009
-1.349932e-008
-1.467923e-008
-1.107134e-008
-3.570142e-009
5.196950e-009
1.218996e-008
1.547074e-008
1.482002e-008
1.123226e-008
5.978720e-009
6.026994e-011
-5.743114e-009
-1.064135e-008
-1.386778e-008
-1.497565e-008
-1.404647e-008
-1.156896e-008
-8.116192e-009
-4.129989e-009
5.460018e-011
4.092979e-009
7.629744e-009
1.042838e-008
1.246760e-008
1.388130e-008
1.480720e-008
1.530700e-008
1.542132e-008
1.526070e-008
1.500336e-008
1.479588e-008
1.467287e-008
1.458645e-008
1.450385e-008
1.445405e-008
1.447005e-008
1.449990e-008
1.439572e-008
1.399670e-008
1.321171e-008
1.201166e-008
1.035486e-008
8.154756e-009
5.352694e-009
2.030960e-009
-1.554239e-009
-5.053951e-009
-8.128597e-009
-1.046585e-008
-1.173192e-008
-1.158101e-008
-9.796756e-009
-6.478938e-009
-2.109016e-009
2.565981e-009
6.722996e-009
9.589836e-009
1.051637e-008
9.114946e-009
5.508797e-009
5.166019e-010
-4.467613e-009
-7.939047e-009
-8.848439e-009
-6.961860e-009
-2.907157e-009
1.991415e-009
6.011512e-009
7.534954e-009
5.776900e-009
1.426192e-009
-3.385697e-009
-6.102443e-009
-5.291933e-009
-1.649392e-009
2.406792e-009
4.375652e-009
3.362643e-009
5.425971e-010
-1.905857e-009
-2.481607e-009
-1.317038e-009
2.453936e-010
9.429819e-010
5.899372e-010
-7.140319e-012
8.452680e-008
5.679919e-008
1.563434e-008
-1.899482e-008
-3.297443e-008
-2.512568e-008
-5.763474e-009
1.138953e-008
1.784652e-008
1.386685e-008
5.520831e-009
-1.232321e-009
-4.478395e-009
-5.854660e-009
-7.242536e-009
-8.291973e-009
-6.977868e-009
-2.188475e-009
4.507181e-009
9.715120e-009
1.082901e-008
7.922578e-009
3.311473e-009
-5.504038e-010
-2.784024e-009
-4.040292e-009
-5.166129e-009
-6.132798e-009
-6.198698e-009
-4.876325e-009
-2.554586e-009
-1.806498e-010
1.544673e-009
2.597412e-009
3.356943e-009
4.058097e-009
4.573703e-009
4.660087e-009
4.293540e-009
3.716085e-009
3.198927e-009
2.826867e-009
2.516882e-009
2.190458e-009
1.880924e-009
1.684148e-009
1.651308e-009
1.754693e-009
1.939966e-009
2.182246e-009
2.487621e-009
2.859543e-009
3.274863e-009
3.680334e-009
3.996797e-009
4.131938e-009
4.009223e-009
3.593735e-009
2.881402e-009
1.861830e-009
5.195796e-010
-1.089296e-009
-2.754211e-009
-4.138671e-009
-4.934675e-009
-5.000022e-009
-4.334355e-009
-2.946933e-009
-8.354262e-010
1.815942e-009
4.420534e-009
6.090064e-009
6.109275e-009
4.410439e-009
1.599643e-009
-1.475507e-009
-4.142175e-009
-5.889417e-009
-6.106320e-009
-4.173412e-009
-1.513394e-010
4.544574e-009
7.454113e-009
6.586653e-009
2.088976e-009
-3.460917e-009
-6.668105e-009
-5.708805e-009
-1.584233e-009
2.758413e-009
4.653430e-009
3.471157e-009
6.493542e-010
-1.723133e-009
-2.435289e-009
-1.668296e-009
-4.108281e-010
4.752402e-010
7.665934e-010
7.491599e-010
4.185302e-008
2.604589e-008
3.511387e-009
-1.335626e-008
-1.660471e-008
-7.371524e-009
5.603452e-009
1.243293e-008
8.874088e-009
-1.341660e-009
-1.005681e-008
-1.109622e-008
-4.511752e-009
4.336257e-009
9.540715e-009
8.998725e-009
4.954687e-009
9.844790e-010
-1.323410e-009
-2.991304e-009
-5.534541e-009
-8.670261e-009
-1.025269e-008
-8.340826e-009
-3.161104e-009
2.986621e-009
7.641029e-009
9.942637e-009
1.067534e-008
1.088652e-008
1.069345e-008
9.405038e-009
6.566587e-009
2.663185e-009
-1.221707e-009
-4.305563e-009
-6.583109e-009
-8.494789e-009
-1.028714e-008
-1.177305e-008
-1.264138e-008
-1.286633e-008
-1.275790e-008
-1.266424e-008
-1.269500e-008
-1.273357e-008
-1.265382e-008
-1.247428e-008
-1.231185e-008
-1.222775e-008
-1.213719e-008
-1.185472e-008
-1.121416e-008
-1.015537e-008
-8.713438e-009
-6.930132e-009
-4.779432e-009
-2.203829e-009
7.405564e-010
3.767000e-009
6.422910e-009
8.317558e-009
9.293868e-009
9.355318e-009
8.444529e-009
6.393575e-009
3.206469e-009
-5.933552e-010
-4.007783e-009
-6.100323e-009
-6.556795e-009
-5.705968e-009
-4.009052e-009
-1.652380e-009
1.227536e-009
3.966756e-009
5.307271e-009
4.259359e-009
1.198165e-009
-2.026185e-009
-3.369775e-009
-2.237159e-009
6.387632e-011
1.536978e-009
1.238424e-009
-9.460342e-011
-1.010577e-009
-8.001847e-010
2.442553e-011
5.346494e-010
4.280974e-010
1.657159e-010
2.093868e-010
3.858886e-010
1.567731e-010
-5.752932e-010
-1.162688e-009
-8.591921e-010
2.837512e-010
1.324584e-009
-3.198998e-008
-2.390398e-008
-1.098650e-008
2.089312e-009
1.142559e-008
1.497783e-008
1.240241e-008
4.702408e-009
-5.622586e-009
-1.451445e-008
-1.754178e-008
-1.238015e-008
-8.734429e-010
1.140906e-008
1.838499e-008
1.721805e-008
9.708120e-009
3.511081e-010
-7.054377e-009
-1.134682e-008
-1.326498e-008
-1.342584e-008
-1.135182e-008
-6.394902e-009
7.604726e-010
7.878897e-009
1.260131e-008
1.408251e-008
1.323618e-008
1.149882e-008
9.495574e-009
6.893920e-009
3.337598e-009
-7.369733e-010
-4.289255e-009
-6.558294e-009
-7.630479e-009
-8.146106e-009
-8.571716e-009
-8.841308e-009
-8.647119e-009
-7.937645e-009
-7.050817e-009
-6.402146e-009
-6.129170e-009
-6.064412e-009
-6.001975e-009
-5.933799e-009
-6.026798e-009
-6.411227e-009
-7.017841e-009
-7.612386e-009
-7.970376e-009
-8.014463e-009
-7.785770e-009
-7.282938e-009
-6.341562e-009
-4.709640e-009
-2.285975e-009
7.062179e-010
3.811086e-009
6.623327e-009
8.949865e-009
1.064893e-008
1.134463e-008
1.044247e-008
7.585155e-009
3.146104e-009
-1.795179e-009
-6.048053e-009
-8.893750e-009
-1.008164e-008
-9.381358e-009
-6.431737e-009
-1.312226e-009
4.706900e-009
9.267698e-009
1.020568e-008
7.073492e-009
1.543802e-009
-3.706348e-009
-6.638613e-009
-6.681734e-009
-4.396328e-009
-7.784302e-010
2.972072e-009
5.375600e-009
5.083516e-009
1.941818e-009
-2.303158e-009
-4.823240e-009
-3.831733e-009
-2.149965e-010
3.041770e-009
3.378560e-009
8.917308e-010
-1.860970e-009
-2.340138e-009
-4.080513e-010
1.691698e-009
-7.914346e-008
-5.270270e-008
-1.411995e-008
1.732583e-008
2.916756e-008
2.178443e-008
5.378608e-009
-8.489244e-009
-1.391855e-008
-1.185138e-008
-6.417515e-009
-8.280841e-010
3.839244e-009
7.249066e-009
8.465505e-009
6.449840e-009
1.602787e-009
-3.751034e-009
-6.806089e-009
-6.331866e-009
-3.354077e-009
5.839414e-011
2.527946e-009
3.957173e-009
4.742205e-009
4.826140e-009
3.725877e-009
1.351182e-009
-1.500240e-009
-3.633129e-009
-4.401875e-009
-4.082196e-009
-3.333156e-009
-2.427885e-009
-1.098850e-009
9.352958e-010
3.454759e-009
5.831821e-009
7.582828e-009
8.738178e-009
9.661449e-009
1.058603e-008
1.139666e-008
1.183977e-008
1.186161e-008
1.168623e-008
1.158105e-008
1.159374e-008
1.153315e-008
1.118169e-008
1.049790e-008
9.609344e-009
8.626981e-009
7.491035e-009
6.021283e-009
4.133553e-009
2.002484e-009
-1.288549e-011
-1.621570e-009
-2.765215e-009
-3.506575e-009
-3.772735e-009
-3.292309e-009
-1.877472e-009
2.199400e-010
2.308015e-009
3.686739e-009
4.088948e-009
3.669274e-009
2.607878e-009
8.798524e-010
-1.448533e-009
-3.738049e-009
-4.819243e-009
-3.772737e-009
-7.933184e-010
2.740255e-009
5.124416e-009
5.348280e-009
3.446330e-009
1.694604e-010
-3.393016e-009
-5.893307e-009
-5.920664e-009
-2.816318e-009
2.298076e-009
6.516352e-009
6.870269e-009
2.754807e-009
-3.126247e-009
-6.551859e-009
-5.113569e-009
-2.305352e-010
4.051904e-009
4.517473e-009
1.420558e-009
-2.033421e-009
-2.792193e-009
-6.987957e-010
1.648261e-009
-6.705599e-008
-4.038328e-008
-3.455065e-009
2.232913e-008
2.497649e-008
8.817332e-009
-1.049985e-008
-1.831168e-008
-1.089274e-008
3.881283e-009
1.431155e-008
1.396805e-008
5.070989e-009
-5.205837e-009
-1.105120e-008
-1.138600e-008
-8.487165e-009
-4.554411e-009
2.048049e-011
5.570606e-009
1.126367e-008
1.485878e-008
1.437567e-008
9.802112e-009
3.088330e-009
-3.398648e-009
-8.321942e-009
-1.151082e-008
-1.312153e-008
-1.301967e-008
-1.099551e-008
-7.318308e-009
-2.824599e-009
1.585758e-009
5.452768e-009
8.740743e-009
1.144659e-008
1.336944e-008
1.429185e-008
1.428674e-008
1.373996e-008
1.305577e-008
1.238855e-008
1.168306e-008
1.092847e-008
1.030513e-008
1.006148e-008
1.028051e-008
1.080507e-008
1.139416e-008
1.192325e-008
1.240651e-008
1.282849e-008
1.298881e-008
1.255200e-008
1.126939e-008
9.145686e-009
6.379224e-009
3.162458e-009
-4.013822e-010
-4.142297e-009
-7.611065e-009
-1.010980e-008
-1.101868e-008
-1.012627e-008
-7.649239e-009
-3.987195e-009
4.308907e-010
5.002243e-009
8.758543e-009
1.055528e-008
9.677893e-009
6.365811e-009
1.747697e-009
-2.741775e-009
-5.911503e-009
-6.978799e-009
-5.593081e-009
-2.111426e-009
2.057260e-009
4.762450e-009
4.390140e-009
1.265436e-009
-2.250805e-009
-3.462563e-009
-1.566037e-009
1.625360e-009
3.255200e-009
1.940158e-009
-1.067906e-009
-3.108213e-009
-2.522700e-009
-1.752801e-011
2.161037e-009
2.311378e-009
6.602347e-010
-1.088171e-009
-1.431387e-009
-3.656326e-010
7.986829e-010
-1.002437e-008
-7.664183e-010
1.007045e-008
1.307412e-008
4.595886e-009
-9.912775e-009
-1.954530e-008
-1.612629e-008
-7.479905e-010
1.659137e-008
2.420396e-008
1.721484e-008
7.122995e-010
-1.464288e-008
-2.056724e-008
-1.616246e-008
-6.622345e-009
2.092748e-009
7.446392e-009
1.028825e-008
1.193902e-008
1.206522e-008
9.358239e-009
3.701362e-009
-2.887941e-009
-7.596551e-009
-8.947262e-009
-7.574673e-009
-5.133443e-009
-2.728871e-009
-4.319104e-010
1.989610e-009
4.250865e-009
5.583225e-009
5.423262e-009
3.876105e-009
1.487774e-009
-1.298583e-009
-4.369944e-009
-7.712546e-009
-1.112252e-008
-1.423118e-008
-1.676718e-008
-1.870307e-008
-2.012516e-008
-2.102036e-008
-2.124681e-008
-2.069896e-008
-1.943983e-008
-1.763715e-008
-1.539809e-008
-1.271957e-008
-9.618154e-009
-6.275258e-009
-3.014005e-009
-1.329508e-010
2.202390e-009
3.888722e-009
4.752752e-009
4.570876e-009
3.269729e-009
1.092870e-009
-1.466532e-009
-3.891679e-009
-5.762889e-009
-6.672960e-009
-6.160309e-009
-3.919991e-009
-1.918214e-010
4.099125e-009
7.697502e-009
9.587729e-009
9.273102e-009
6.665896e-009
2.026451e-009
-3.715217e-009
-8.652881e-009
-1.042087e-008
-7.672578e-009
-1.439392e-009
5.058765e-009
8.381697e-009
7.153727e-009
2.789016e-009
-1.831885e-009
-4.427987e-009
-4.416718e-009
-2.561061e-009
-4.504843e-011
2.053641e-009
2.873381e-009
2.019523e-009
1.234726e-011
-1.750918e-009
-1.956089e-009
-5.618807e-010
1.058142e-009
1.386131e-009
2.546996e-010
-1.011385e-009
4.853975e-008
3.432128e-008
1.298402e-008
-5.997381e-009
-1.627995e-008
-1.687828e-008
-1.055135e-008
-1.078300e-009
7.987038e-009
1.325376e-008
1.208134e-008
4.477838e-009
-5.625629e-009
-1.206412e-008
-1.067599e-008
-2.630948e-009
6.365481e-009
1.053508e-008
8.247492e-009
2.416742e-009
-2.758785e-009
-5.250918e-009
-5.766436e-009
-5.639007e-009
-4.837784e-009
-2.216427e-009
2.641140e-009
8.300367e-009
1.235558e-008
1.328286e-008
1.131108e-008
7.614784e-009
2.942147e-009
-2.845756e-009
-1.008583e-008
-1.849203e-008
-2.715423e-008
-3.523179e-008
-4.248102e-008
-4.909731e-008
-5.519237e-008
-6.054832e-008
-6.484061e-008
-6.795861e-008
-7.002908e-008
-7.117856e-008
-7.136758e-008
-7.047382e-008
-6.846700e-008
-6.544062e-008
-6.149316e-008
-5.664672e-008
-5.091071e-008
-4.438586e-008
-3.726002e-008
-2.971935e-008
-2.193020e-008
-1.414416e-008
-6.781945e-009
-3.478716e-010
4.754016e-009
8.286463e-009
1.007117e-008
9.924142e-009
7.844928e-009
4.321369e-009
3.538288e-010
-2.961094e-009
-4.933846e-009
-5.380761e-009
-4.319908e-009
-1.808313e-009
1.706698e-009
4.945995e-009
6.112746e-009
4.131738e-009
-1.901458e-010
-4.359035e-009
-5.856863e-009
-3.915515e-009
1.080355e-010
3.899646e-009
5.666739e-009
4.773509e-009
1.592849e-009
-2.655410e-009
-5.940575e-009
-6.078405e-009
-2.329591e-009
3.285023e-009
6.789412e-009
5.304293e-009
-1.519943e-010
-5.096140e-009
-5.406889e-009
-1.141905e-009
3.479308e-009
4.139950e-009
6.092331e-010
-3.164166e-009
7.223060e-008
4.248512e-008
2.351336e-009
-2.403826e-008
-2.495498e-008
-7.374111e-009
1.122564e-008
1.722448e-008
9.394445e-009
-3.621762e-009
-1.223540e-008
-1.262673e-008
-6.861655e-009
1.117825e-009
8.526056e-009
1.366287e-008
1.475997e-008
1.040545e-008
1.374450e-009
-8.669121e-009
-1.512658e-008
-1.555887e-008
-1.100201e-008
-4.420485e-009
1.871672e-009
7.244300e-009
1.168286e-008
1.437172e-008
1.374170e-008
8.830793e-009
2.597310e-010
-1.031689e-008
-2.162520e-008
-3.351366e-008
-4.639578e-008
-6.023992e-008
-7.428610e-008
-8.766634e-008
-1.000770e-007
-1.117396e-007
-1.228070e-007
-1.329570e-007
-1.415751e-007
-1.482081e-007
-1.527513e-007
-1.552510e-007
-1.556594e-007
-1.538394e-007
-1.497498e-007
-1.435480e-007
-1.355169e-007
-1.259521e-007
-1.151377e-007
-1.033659e-007
-9.090969e-008
-7.797667e-008
-6.474863e-008
-5.149071e-008
-3.857883e-008
-2.638282e-008
-1.516884e-008
-5.210889e-009
2.984345e-009
8.679554e-009
1.128946e-008
1.082741e-008
7.943237e-009
3.523527e-009
-1.631989e-009
-6.642267e-009
-1.019161e-008
-1.074453e-008
-7.541499e-009
-1.552519e-009
4.705046e-009
8.584432e-009
8.822786e-009
5.939857e-009
1.498483e-009
-2.774833e-009
-5.333483e-009
-5.026223e-009
-1.814899e-009
2.475757e-009
4.742200e-009
2.919738e-009
-1.770640e-009
-5.241860e-009
-4.010537e-009
1.261424e-009
5.888487e-009
5.391715e-009
-3.979150e-011
-5.434879e-009
-5.730305e-009
-7.582738e-010
4.536128e-009
5.007023e-009
4.435090e-010
-4.296346e-009
5.407488e-008
2.497705e-008
-1.156265e-008
-2.956765e-008
-1.894882e-008
7.882090e-009
2.756025e-008
2.488470e-008
3.550505e-009
-1.911288e-008
-2.715579e-008
-1.748493e-008
5.342418e-010
1.458877e-008
1.851385e-008
1.408233e-008
6.472472e-009
-6.272783e-010
-6.067848e-009
-9.361419e-009
-9.422095e-009
-5.562259e-009
9.253109e-010
6.959345e-009
9.696538e-009
8.255491e-009
3.460761e-009
-3.769326e-009
-1.344993e-008
-2.605015e-008
-4.145910e-008
-5.882167e-008
-7.739806e-008
-9.731317e-008
-1.192753e-007
-1.436305e-007
-1.698442e-007
-1.968904e-007
-2.239513e-007
-2.505926e-007
-2.763267e-007
-3.002023e-007
-3.209355e-007
-3.374054e-007
-3.489653e-007
-3.553353e-007
-3.563407e-007
-3.518454e-007
-3.419049e-007
-3.269060e-007
-3.075442e-007
-2.847048e-007
-2.593606e-007
-2.324939e-007
-2.050122e-007
-1.776985e-007
-1.512421e-007
-1.262750e-007
-1.032854e-007
-8.244270e-008
-6.357588e-008
-4.645021e-008
-3.112898e-008
-1.802622e-008
-7.572839e-009
1.036564e-010
5.082596e-009
7.299409e-009
6.540948e-009
3.039307e-009
-1.906670e-009
-6.122400e-009
-7.646201e-009
-5.822205e-009
-1.479886e-009
3.732918e-009
8.025909e-009
9.715721e-009
7.561180e-009
1.714068e-009
-5.387130e-009
-9.695828e-009
-8.223843e-009
-1.776047e-009
5.066292e-009
7.388224e-009
4.044196e-009
-1.434871e-009
-4.168894e-009
-2.391234e-009
1.246688e-009
2.688557e-009
6.400865e-010
-2.338258e-009
-2.771002e-009
-3.279414e-011
3.012526e-009
3.087733e-009
-5.722065e-012
-3.150560e-009
1.174862e-008
-1.169382e-009
-1.532006e-008
-1.740605e-008
-4.142912e-009
1.450012e-008
2.338171e-008
1.487567e-008
-4.627802e-009
-1.998606e-008
-1.977783e-008
-5.283550e-009
1.141031e-008
1.788536e-008
1.099586e-008
-2.181871e-009
-1.153524e-008
-1.191838e-008
-5.328815e-009
2.963643e-009
9.277817e-009
1.287931e-008
1.397351e-008
1.172923e-008
4.649274e-009
-7.694788e-009
-2.402153e-008
-4.262045e-008
-6.303734e-008
-8.636462e-008
-1.141068e-007
-1.470846e-007
-1.854322e-007
-2.292485e-007
-2.788021e-007
-3.339750e-007
-3.936707e-007
-4.559219e-007
-5.185419e-007
-5.795850e-007
-6.372429e-007
-6.895378e-007
-7.343466e-007
-7.697956e-007
-7.946077e-007
-8.080958e-007
-8.099327e-007
-8.000182e-007
-7.785615e-007
-7.462277e-007
-7.041824e-007
-6.540150e-007
-5.976082e-007
-5.369956e-007
-4.742409e-007
-4.113799e-007
-3.504071e-007
-2.931823e-007
-2.411683e-007
-1.951381e-007
-1.551300e-007
-1.207418e-007
-9.148438e-008
-6.685473e-008
-4.617700e-008
-2.863042e-008
-1.368665e-008
-1.576344e-009
6.830753e-009
1.080150e-008
1.050040e-008
7.062450e-009
2.086759e-009
-2.770541e-009
-5.838987e-009
-5.667326e-009
-1.949157e-009
3.501300e-009
7.167818e-009
6.134224e-009
6.579445e-010
-5.503106e-009
-7.809601e-009
-4.587296e-009
1.624989e-009
6.236171e-009
6.284697e-009
2.436391e-009
-2.103833e-009
-4.361897e-009
-3.552357e-009
-9.892260e-010
1.361442e-009
2.250291e-009
1.620997e-009
2.869851e-010
-7.387658e-010
-8.795416e-010
-3.029954e-010
2.921451e-010
-3.174892e-008
-2.067949e-008
-4.979482e-009
7.192771e-009
1.119980e-008
7.635446e-009
3.490332e-010
-6.312384e-009
-8.913646e-009
-5.576560e-009
2.850188e-009
1.188270e-008
1.505892e-008
8.493872e-009
-5.100142e-009
-1.722735e-008
-1.958025e-008
-1.036769e-008
4.546249e-009
1.649655e-008
2.020635e-008
1.596646e-008
6.875124e-009
-5.179317e-009
-2.086496e-008
-4.177154e-008
-6.856862e-008
-1.011942e-007
-1.404535e-007
-1.887986e-007
-2.492585e-007
-3.236787e-007
-4.119887e-007
-5.128242e-007
-6.243868e-007
-7.445390e-007
-8.703380e-007
-9.978938e-007
-1.122916e-006
-1.241445e-006
-1.350128e-006
-1.446037e-006
-1.526496e-006
-1.589222e-006
-1.632595e-006
-1.655717e-006
-1.658233e-006
-1.640131e-006
-1.601730e-006
-1.543813e-006
-1.467767e-006
-1.375610e-006
-1.269905e-006
-1.153634e-006
-1.030111e-006
-9.029750e-007
-7.761477e-007
-6.536169e-007
-5.389875e-007
-4.350335e-007
-3.435284e-007
-2.653596e-007
-2.006332e-007
-1.485727e-007
-1.074356e-007
-7.485685e-008
-4.862726e-008
-2.736455e-008
-1.056448e-008
1.829680e-009
9.744109e-009
1.296075e-008
1.127553e-008
5.291533e-009
-2.685076e-009
-8.907880e-009
-1.010814e-008
-5.797081e-009
1.141626e-009
6.371804e-009
7.081308e-009
3.644433e-009
-1.103055e-009
-4.022734e-009
-3.551024e-009
-3.569162e-010
3.177497e-009
4.338795e-009
1.911023e-009
-2.565101e-009
-5.485417e-009
-4.016960e-009
1.054184e-009
5.451339e-009
5.102220e-009
1.841066e-010
-4.702345e-009
-4.875396e-009
-2.712209e-010
4.400980e-009
-6.119297e-008
-2.922018e-008
1.071719e-008
3.061213e-008
2.061032e-008
-5.551488e-009
-2.461650e-008
-2.314807e-008
-5.543109e-009
1.337036e-008
2.156608e-008
1.697504e-008
5.213555e-009
-6.621128e-009
-1.371591e-008
-1.381310e-008
-6.874995e-009
4.272415e-009
1.398880e-008
1.638639e-008
9.024607e-009
-5.840448e-009
-2.403923e-008
-4.382669e-008
-6.781080e-008
-1.011985e-007
-1.487692e-007
-2.136451e-007
-2.982953e-007
-4.056388e-007
-5.384118e-007
-6.973198e-007
-8.799410e-007
-1.081384e-006
-1.295799e-006
-1.517265e-006
-1.739671e-006
-1.956494e-006
-2.161234e-006
-2.348330e-006
-2.513727e-006
-2.654714e-006
-2.769425e-006
-2.856541e-006
-2.915297e-006
-2.945487e-006
-2.947259e-006
-2.920818e-006
-2.866295e-006
-2.783895e-006
-2.674186e-006
-2.538340e-006
-2.378258e-006
-2.196621e-006
-1.997010e-006
-1.784077e-006
-1.563582e-006
-1.342090e-006
-1.126357e-006
-9.226892e-007
-7.365370e-007
-5.722387e-007
-4.326564e-007
-3.186927e-007
-2.290929e-007
-1.608943e-007
-1.103141e-007
-7.346284e-008
-4.660600e-008
-2.638330e-008
-1.046431e-008
1.691574e-009
8.978385e-009
1.014983e-008
5.723568e-009
-1.377267e-009
-7.113711e-009
-8.510742e-009
-5.073431e-009
1.262880e-009
7.177574e-009
9.401644e-009
6.369359e-009
-3.975394e-010
-6.513451e-009
-7.495904e-009
-2.595487e-009
3.901465e-009
6.069553e-009
1.968885e-009
-4.099007e-009
-5.652099e-009
-7.834257e-010
5.497005e-009
6.305087e-009
3.190259e-010
-6.444851e-009
-6.805971e-009
-1.376409e-010
6.759165e-009
-6.885126e-008
-2.897219e-008
1.895039e-008
3.886711e-008
2.057821e-008
-1.427587e-008
-3.376354e-008
-2.347197e-008
4.131975e-009
2.435271e-008
2.271950e-008
4.811405e-009
-1.237447e-008
-1.627643e-008
-7.005671e-009
6.556397e-009
1.571335e-008
1.694122e-008
1.069911e-008
-1.756468e-009
-1.958058e-008
-4.195726e-008
-6.873258e-008
-1.025639e-007
-1.502179e-007
-2.210167e-007
-3.234809e-007
-4.630508e-007
-6.422544e-007
-8.618746e-007
-1.120943e-006
-1.415322e-006
-1.736667e-006
-2.073251e-006
-2.412213e-006
-2.741508e-006
-3.050627e-006
-3.330680e-006
-3.574822e-006
-3.779124e-006
-3.943047e-006
-4.068908e-006
-4.160649e-006
-4.222685e-006
-4.259226e-006
-4.273851e-006
-4.269019e-006
-4.245534e-006
-4.202295e-006
-4.136522e-006
-4.044382e-006
-3.921731e-006
-3.764834e-006
-3.571073e-006
-3.339741e-006
-3.072822e-006
-2.775445e-006
-2.455719e-006
-2.123997e-006
-1.791908e-006
-1.471402e-006
-1.173720e-006
-9.081647e-007
-6.809178e-007
-4.944922e-007
-3.480815e-007
-2.383684e-007
-1.601225e-007
-1.065442e-007
-7.001112e-008
-4.363969e-008
-2.299299e-008
-6.679330e-009
4.650606e-009
1.005960e-008
9.598302e-009
4.719030e-009
-1.781452e-009
-6.252837e-009
-5.677346e-009
4.322924e-011
6.963427e-009
9.307396e-009
4.314595e-009
-4.521074e-009
-9.767449e-009
-6.739299e-009
1.733049e-009
7.715637e-009
5.912228e-009
-1.071190e-009
-5.616165e-009
-3.234946e-009
2.766268e-009
5.195907e-009
1.125065e-009
-4.819265e-009
-5.713591e-009
-2.248358e-010
5.789153e-009
-5.025476e-008
-2.051983e-008
1.412908e-008
2.652349e-008
1.098045e-008
-1.343135e-008
-2.219143e-008
-8.107374e-009
1.365186e-008
2.158203e-008
8.419881e-009
-1.309666e-008
-2.318756e-008
-1.304242e-008
8.757860e-009
2.536967e-008
2.588098e-008
1.153748e-008
-9.383851e-009
-3.088123e-008
-5.405156e-008
-8.550306e-008
-1.337619e-007
-2.079308e-007
-3.183402e-007
-4.762119e-007
-6.910537e-007
-9.675870e-007
-1.304456e-006
-1.694708e-006
-2.126297e-006
-2.581762e-006
-3.038281e-006
-3.469716e-006
-3.850549e-006
-4.159885e-006
-4.383876e-006
-4.516548e-006
-4.559951e-006
-4.524080e-006
-4.426029e-006
-4.287854e-006
-4.133533e-006
-3.986021e-006
-3.865074e-006
-3.785750e-006
-3.757200e-006
-3.781712e-006
-3.854317e-006
-3.963233e-006
-4.091084e-006
-4.216621e-006
-4.316749e-006
-4.368843e-006
-4.353340e-006
-4.256335e-006
-4.071609e-006
-3.801579e-006
-3.457036e-006
-3.055884e-006
-2.621088e-006
-2.177872e-006
-1.750407e-006
-1.358752e-006
-1.016999e-006
-7.329168e-007
-5.085122e-007
-3.407141e-007
-2.221094e-007
-1.422893e-007
-8.998681e-008
-5.525960e-008
-3.077348e-008
-1.209861e-008
2.360603e-009
1.168830e-008
1.383555e-008
8.347030e-009
-1.305740e-009
-8.549346e-009
-8.187274e-009
-9.815135e-010
6.477787e-009
7.459485e-009
1.368595e-009
-5.666497e-009
-6.817428e-009
-1.269921e-009
5.209629e-009
6.351994e-009
1.656060e-009
-3.628076e-009
-4.394413e-009
-8.462923e-010
2.457141e-009
2.066405e-009
-7.727752e-010
-2.189765e-009
-5.260773e-010
1.887800e-009
-6.554264e-009
-2.379315e-009
1.213753e-009
9.518175e-011
-4.193283e-009
-5.420910e-009
6.765256e-010
1.067518e-008
1.521337e-008
7.681233e-009
-8.172172e-009
-1.979822e-008
-1.632582e-008
1.268962e-009
1.997207e-008
2.506564e-008
1.156518e-008
-1.361949e-008
-4.029568e-008
-6.614415e-008
-1.009841e-007
-1.622251e-007
-2.674452e-007
-4.306726e-007
-6.631812e-007
-9.745286e-007
-1.370183e-006
-1.846509e-006
-2.386673e-006
-2.959784e-006
-3.522788e-006
-4.023754e-006
-4.406501e-006
-4.617275e-006
-4.613010e-006
-4.368877e-006
-3.882615e-006
-3.174927e-006
-2.286966e-006
-1.276187e-006
-2.110488e-007
8.352825e-007
1.791517e-006
2.593935e-006
3.190454e-006
3.543219e-006
3.630331e-006
3.446992e-006
3.005921e-006
2.336808e-006
1.484771e-006
5.078676e-007
-5.264000e-007
-1.545739e-006
-2.478913e-006
-3.262332e-006
-3.846485e-006
-4.201108e-006
-4.318227e-006
-4.212538e-006
-3.918772e-006
-3.486102e-006
-2.970373e-006
-2.425943e-006
-1.899099e-006
-1.424188e-006
-1.022340e-006
-7.020936e-007
-4.614534e-007
-2.910605e-007
-1.776657e-007
-1.067987e-007
-6.427482e-008
-3.747066e-008
-1.736866e-008
-6.205954e-010
1.071506e-008
1.300702e-008
6.220037e-009
-4.040496e-009
-9.925826e-009
-7.430904e-009
4.876126e-010
6.827304e-009
6.801537e-009
1.631934e-009
-3.339830e-009
-3.915471e-009
-5.226884e-010
2.946259e-009
3.172642e-009
2.640729e-010
-2.871363e-009
-3.454657e-009
-1.161075e-009
1.952257e-009
3.387043e-009
2.162605e-009
-6.384817e-010
-2.854727e-009
4.883415e-008
2.227546e-008
-1.064031e-008
-2.656435e-008
-1.758303e-008
4.619415e-009
2.077222e-008
1.987733e-008
5.571403e-009
-9.714083e-009
-1.523613e-008
-8.441203e-009
5.171973e-009
1.627606e-008
1.677843e-008
3.747957e-009