# vtk DataFile Version 3.0
vtk output
ASCII
DATASET STRUCTURED_POINTS
DIMENSIONS 100 100 1
SPACING 1 1 1
ORIGIN 0 0 0
POINT_DATA 10000
SCALARS SFBox_profile double
LOOKUP_TABLE default 
0.000000e+000
0.000000e+000
0.000000e+000
0.000000e+000
0.000000e+000
0.000000e+000
0.000000e+000
0.000000e+000
0.000000e+000
0.000000e+000
0.000000e+000
0.000000e+000
0.000000e+000
0.000000e+000
0.000000e+000
0.000000e+000
0.000000e+000
0.000000e+000
0.000000e+000
0.000000e+000
0.000000e+000
0.000000e+000
0.000000e+000
0.000000e+000
0.000000e+000
0.000000e+000
0.000000e+000
0.000000e+000
0.000000e+000
0.000000e+000
0.000000e+000
0.000000e+000
0.000000e+000
0.000000e+000
0.000000e+000
0.000000e+000
0.000000e+000
0.000000e+000
0.000000e+000
0.000000e+000
0.000000e+000
0.000000e+000
0.000000e+000
0.000000e+000
0.000000e+000
0.000000e+000
0.000000e+000
0.000000e+000
0.000000e+000
0.000000e+000
0.000000e+000
0.000000e+000
0.000000e+000
0.000000e+000
0.000000e+000
0.000000e+000
0.000000e+000
0.000000e+000
0.000000e+000
0.000000e+000
0.000000e+000
0.000000e+000
0.000000e+000
0.000000e+000
0.000000e+000
0.000000e+000
0.000000e+000
0.000000e+000
0.000000e+000
0.000000e+000
0.000000e+000
0.000000e+000
0.000000e+000
0.000000e+000
0.000000e+000
0.000000e+000
0.000000e+000
0.000000e+000
0.000000e+000
0.000000e+000
0.000000e+000
0.000000e+000
0.000000e+000
0.000000e+000
0.000000e+000
0.000000e+000
0.000000e+000
0.000000e+000
0.000000e+000
0.000000e+000
0.000000e+000
0.000000e+000
0.000000e+000
0.000000e+000
0.000000e+000
0.000000e+000
0.000000e+000
0.000000e+000
0.000000e+000
0.000000e+000
3.348274e-009
1.076837e-009
-1.809977e-009
-3.352676e-009
-2.601480e-009
-1.817668e-010
2.229974e-009
3.104897e-009
2.065242e-009
-4.021768e-013
-1.716571e-009
-2.229934e-009
-1.659804e-009
-7.248421e-010
6.046177e-012
5.183537e-010
1.095683e-009
1.765213e-009
2.091344e-009
1.570039e-009
2.134307e-010
-1.318564e-009
-2.224556e-009
-2.216807e-009
-1.670825e-009
-1.147474e-009
-8.230811e-010
-4.275859e-010
3.000331e-010
1.204499e-009
1.831988e-009
1.917975e-009
1.661130e-009
1.468831e-009
1.491849e-009
1.500113e-009
1.220186e-009
6.980189e-010
2.456061e-010
6.244323e-011
1.766410e-011
-1.467450e-010
-4.714887e-010
-7.379349e-010
-7.659349e-010
-6.507597e-010
-6.324194e-010
-7.798013e-010
-9.096598e-010
-8.410727e-010
-6.400717e-010
-5.278842e-010
-5.796166e-010
-6.209946e-010
-4.639709e-010
-1.645880e-010
4.779033e-011
8.123996e-011
1.153980e-010
3.697778e-010
8.057318e-010
1.160867e-009
1.281432e-009
1.317216e-009
1.510798e-009
1.843919e-009
2.006855e-009
1.753470e-009
1.202961e-009
6.990541e-010
3.911902e-010
6.424501e-011
-5.531287e-010
-1.368926e-009
-1.922306e-009
-1.831659e-009
-1.190997e-009
-4.628404e-010
-1.285076e-012
2.417357e-010
5.096635e-010
8.165817e-010
8.432386e-010
3.117616e-010
-5.763292e-010
-1.165766e-009
-8.860528e-010
1.970892e-010
1.359179e-009
1.768111e-009
1.127141e-009
-1.295270e-010
-1.206966e-009
-1.532915e-009
-1.089539e-009
-3.048039e-010
3.232604e-010
5.504500e-010
4.609953e-010
3.138397e-010
1.742272e-010
4.616172e-011
-1.097496e-010
-1.710976e-010
-8.271568e-011
8.905034e-011
1.906461e-010
1.024193e-010
-1.385744e-010
-3.318523e-010
-2.634019e-010
9.237634e-011
5.030702e-010
6.369054e-010
3.395424e-010
-2.155336e-010
-6.574097e-010
-7.255054e-010
-4.706286e-010
-1.591947e-010
1.418110e-011
1.031046e-010
2.924993e-010
6.290840e-010
9.141672e-010
8.937358e-010
5.374558e-010
8.467560e-011
-2.037660e-010
-3.072537e-010
-4.211232e-010
-6.835793e-010
-9.863974e-010
-1.097570e-009
-9.421442e-010
-6.945386e-010
-5.709414e-010
-5.819809e-010
-5.494519e-010
-3.539418e-010
-9.204684e-011
5.241960e-011
4.648939e-011
4.282938e-011
1.713451e-010
3.669436e-010
4.595910e-010
4.021153e-010
3.304567e-010
3.785581e-010
4.990073e-010
5.302799e-010
4.176934e-010
2.879044e-010
2.752704e-010
3.350707e-010
2.986949e-010
1.002813e-010
-1.295583e-010
-2.324076e-010
-2.303431e-010
-2.935338e-010
-5.049677e-010
-7.329192e-010
-7.847269e-010
-6.455486e-010
-4.896680e-010
-4.454842e-010
-4.184210e-010
-2.081252e-010
2.185123e-010
6.406498e-010
7.990926e-010
6.594628e-010
4.140138e-010
2.351943e-010
8.933912e-011
-1.686767e-010
-5.490249e-010
-8.409243e-010
-8.040936e-010
-4.256713e-010
4.564764e-011
3.256788e-010
3.392282e-010
2.397929e-010
2.137594e-010
2.921948e-010
3.522566e-010
2.724276e-010
5.977613e-011
-1.709799e-010
-3.159858e-010
-3.601343e-010
-3.460107e-010
-2.935619e-010
-1.735024e-010
3.724348e-011
2.885632e-010
4.636207e-010
-3.147623e-009
-1.019322e-009
1.680326e-009
3.127825e-009
2.460570e-009
2.618730e-010
-1.963155e-009
-2.866735e-009
-2.093106e-009
-3.300089e-010
1.331258e-009
2.147127e-009
2.028761e-009
1.309874e-009
3.360989e-010
-7.110330e-010
-1.682996e-009
-2.301371e-009
-2.236269e-009
-1.382421e-009
-2.992481e-011
1.283290e-009
2.118217e-009
2.362020e-009
2.161653e-009
1.697165e-009
1.051314e-009
2.644105e-010
-5.632902e-010
-1.278116e-009
-1.772589e-009
-2.041833e-009
-2.134275e-009
-2.077749e-009
-1.877490e-009
-1.566205e-009
-1.214233e-009
-8.769591e-010
-5.562695e-010
-2.339623e-010
7.250987e-011
3.165543e-010
4.839213e-010
6.170036e-010
7.595282e-010
8.957021e-010
9.717400e-010
9.733332e-010
9.508536e-010
9.544687e-010
9.679139e-010
9.333086e-010
8.326888e-010
7.123959e-010
6.164887e-010
5.225856e-010
3.694580e-010
1.373546e-010
-1.296105e-010
-3.862210e-010
-6.430786e-010
-9.390524e-010
-1.271171e-009
-1.580027e-009
-1.805396e-009
-1.928356e-009
-1.943137e-009
-1.810153e-009
-1.471268e-009
-9.169235e-010
-2.172068e-010
5.207113e-010
1.201967e-009
1.731001e-009
1.974893e-009
1.800550e-009
1.191478e-009
3.207829e-010
-5.246283e-010
-1.109562e-009
-1.341218e-009
-1.217405e-009
-7.474263e-010
1.061534e-011
8.301397e-010
1.312263e-009
1.116201e-009
2.723875e-010
-7.327975e-010
-1.251674e-009
-9.505857e-010
-7.251766e-011
7.443275e-010
9.494757e-010
4.761371e-010
-2.503175e-010
-6.690292e-010
-5.081799e-010
4.098089e-011
5.049821e-010
-3.463755e-009
-1.084574e-009
1.898721e-009
3.418999e-009
2.543363e-009
3.563762e-011
-2.293439e-009
-2.927348e-009
-1.671980e-009
3.639076e-010
1.740738e-009
1.778962e-009
8.970152e-010
1.954426e-011
-3.092068e-010
-2.780819e-010
-3.850458e-010
-7.708325e-010
-1.038496e-009
-7.231938e-010
1.335121e-010
9.494475e-010
1.149581e-009
7.052760e-010
1.031659e-010
-1.834144e-010
-1.283269e-010
-5.775576e-011
-2.057757e-010
-4.539437e-010
-5.152506e-010
-2.923120e-010
2.182287e-011
1.834645e-010
1.624637e-010
1.289818e-010
2.197407e-010
3.838353e-010
4.708881e-010
4.203772e-010
3.173025e-010
2.720357e-010
2.923890e-010
2.970899e-010
2.310211e-010
1.304236e-010
6.843408e-011
6.248277e-011
5.981761e-011
1.107117e-011
-6.521910e-011
-1.067708e-010
-8.758079e-011
-5.175095e-011
-5.636410e-011
-9.430248e-011
-9.900699e-011
-3.291198e-011
5.203973e-011
6.950984e-011
9.464198e-012
-4.243809e-011
-1.906138e-011
1.964423e-011
-6.005838e-011
-2.937143e-010
-5.442076e-010
-6.424967e-010
-5.851278e-010
-5.302025e-010
-5.720999e-010
-5.742739e-010
-3.021355e-010
2.692483e-010
8.480418e-010
1.086038e-009
9.289181e-010
6.446227e-010
4.877935e-010
4.021629e-010
1.326364e-010
-3.745211e-010
-7.794611e-010
-6.511578e-010
2.522548e-011
7.079398e-010
7.426694e-010
-1.189721e-011
-9.971696e-010
-1.408870e-009
-8.783165e-010
2.316852e-010
1.147641e-009
1.301734e-009
7.162343e-010
-1.046122e-010
-6.068643e-010
-5.687167e-010
-1.804802e-010
1.623099e-010
-5.023191e-010
-8.451161e-011
3.945184e-010
5.249211e-010
1.672894e-010
-3.994134e-010
-6.568923e-010
-2.754215e-010
5.346922e-010
1.096001e-009
7.948149e-010
-3.345278e-010
-1.518585e-009
-1.816687e-009
-9.086437e-010
6.120065e-010
1.734985e-009
1.871393e-009
1.248447e-009
5.234106e-010
7.099963e-011
-2.965535e-010
-9.279136e-010
-1.763569e-009
-2.279584e-009
-2.015634e-009
-1.079644e-009
-5.249895e-011
5.908330e-010
8.876868e-010
1.196617e-009
1.686935e-009
2.124978e-009
2.175774e-009
1.818063e-009
1.369930e-009
1.122098e-009
1.039291e-009
8.701653e-010
4.928765e-010
6.141518e-011
-2.009354e-010
-2.749003e-010
-3.448849e-010
-5.492121e-010
-8.103240e-010
-9.504162e-010
-9.275131e-010
-8.850781e-010
-9.597776e-010
-1.103194e-009
-1.148364e-009
-1.031004e-009
-8.740385e-010
-8.220748e-010
-8.413544e-010
-7.528450e-010
-4.649325e-010
-1.027365e-010
1.465901e-010
2.807993e-010
4.910077e-010
8.983640e-010
1.351705e-009
1.566745e-009
1.453573e-009
1.214561e-009
1.066836e-009
9.325923e-010
5.143569e-010
-2.996467e-010
-1.194866e-009
-1.682699e-009
-1.576392e-009
-1.131221e-009
-6.873109e-010
-2.633726e-010
3.853520e-010
1.307826e-009
2.078598e-009
2.100684e-009
1.208503e-009
-9.028999e-011
-1.023214e-009
-1.202644e-009
-8.681311e-010
-5.308707e-010
-4.470448e-010
-4.581867e-010
-2.841927e-010
1.177423e-010
5.141780e-010
6.619252e-010
5.469900e-010
3.477937e-010
2.092713e-010
1.046479e-010
-7.560763e-011
-3.406437e-010
-5.490601e-010
2.898688e-009
9.936501e-010
-1.413590e-009
-2.723088e-009
-2.230914e-009
-4.642766e-010
1.367857e-009
2.259833e-009
1.939631e-009
7.846617e-010
-5.969777e-010
-1.686194e-009
-2.124808e-009
-1.719949e-009
-5.542731e-010
9.065457e-010
1.964295e-009
2.116832e-009
1.418198e-009
3.978834e-010
-4.117804e-010
-8.706052e-010
-1.162308e-009
-1.401957e-009
-1.420346e-009
-9.895939e-010
-1.954124e-010
5.369191e-010
8.378944e-010
7.565312e-010
6.558726e-010
7.646565e-010
9.232253e-010
8.188203e-010
4.042639e-010
-2.138087e-011
-1.612992e-010
-5.859465e-011
-1.127618e-011
-1.890523e-010
-4.380545e-010
-5.023800e-010
-3.600308e-010
-2.426197e-010
-3.289444e-010
-5.187962e-010
-5.754632e-010
-4.408540e-010
-3.089297e-010
-3.667525e-010
-5.483105e-010
-6.252948e-010
-5.127500e-010
-3.832964e-010
-4.359677e-010
-6.244318e-010
-7.085935e-010
-5.682238e-010
-3.641209e-010
-3.245716e-010
-4.311055e-010
-4.238310e-010
-1.353401e-010
2.773941e-010
5.161921e-010
5.138112e-010
5.084533e-010
7.077863e-010
9.679528e-010
9.151461e-010
3.834767e-010
-3.653511e-010
-9.117759e-010
-1.103198e-009
-1.117433e-009
-1.115436e-009
-9.544052e-010
-3.514849e-010
6.854968e-010
1.692198e-009
2.078896e-009
1.619837e-009
6.019156e-010
-4.630374e-010
-1.205437e-009
-1.498784e-009
-1.333401e-009
-7.459854e-010
8.384531e-011
7.715896e-010
9.198960e-010
4.644243e-010
-1.886809e-010
-4.538020e-010
-7.630577e-011
6.085656e-010
9.407400e-010
5.149767e-010
-4.371829e-010
-1.211854e-009
3.539027e-009
1.069854e-009
-1.935488e-009
-3.320900e-009
-2.286598e-009
1.567030e-010
2.116890e-009
2.315223e-009
9.462290e-010
-7.003641e-010
-1.406748e-009
-9.356755e-010
1.916572e-011
6.207904e-010
5.865327e-010
2.071377e-010
-1.436434e-010
-3.821334e-010
-6.138719e-010
-8.094448e-010
-7.310597e-010
-2.100169e-010
5.905113e-010
1.272284e-009
1.549584e-009
1.440428e-009
1.116059e-009
6.555402e-010
3.182139e-011
-6.968031e-010
-1.308193e-009
-1.604474e-009
-1.630002e-009
-1.610660e-009
-1.667652e-009
-1.671960e-009
-1.435125e-009
-9.889745e-010
-5.810358e-010
-3.832774e-010
-2.938997e-010
-9.365307e-011
2.502128e-010
5.358458e-010
5.974611e-010
5.314303e-010
5.727387e-010
7.844946e-010
9.752906e-010
9.559256e-010
7.923055e-010
7.152893e-010
8.079422e-010
8.903782e-010
7.581554e-010
4.549270e-010
2.125487e-010
1.381184e-010
6.890632e-011
-2.073507e-010
-6.592878e-010
-1.037155e-009
-1.182226e-009
-1.206942e-009
-1.307250e-009
-1.461838e-009
-1.424621e-009
-1.027545e-009
-4.024776e-010
1.577213e-010
5.069134e-010
7.270902e-010
9.088984e-010
9.570339e-010
6.955570e-010
1.330416e-010
-4.679953e-010
-8.129578e-010
-8.124120e-010
-5.679436e-010
-1.910620e-010
2.602679e-010
6.595365e-010
7.517932e-010
3.564586e-010
-3.468463e-010
-8.380958e-010
-6.830202e-010
2.093196e-011
6.679317e-010
6.768564e-010
4.035954e-011
-6.474818e-010
-7.239266e-010
-5.857242e-011
8.191887e-010
1.164180e-009
6.343288e-010
-4.284855e-010
-1.261443e-009
8.909444e-010
5.494326e-011
-8.259303e-010
-9.206032e-010
-8.252991e-011
9.732297e-010
1.232922e-009
2.806895e-010
-1.228508e-009
-2.009408e-009
-1.220319e-009
7.391507e-010
2.463396e-009
2.666849e-009
1.219049e-009
-8.303119e-010
-2.203560e-009
-2.384968e-009
-1.763062e-009
-9.655660e-010
-2.138781e-010
6.467997e-010
1.638604e-009
2.380725e-009
2.403869e-009
1.649626e-009
5.498866e-010
-3.844588e-010
-9.677174e-010
-1.318272e-009
-1.550404e-009
-1.616013e-009
-1.446779e-009
-1.125083e-009
-8.198168e-010
-5.925791e-010
-3.624269e-010
-7.206155e-011
1.978926e-010
3.367213e-010
3.713638e-010
4.390019e-010
5.936955e-010
7.258489e-010
7.204875e-010
6.356246e-010
6.408330e-010
7.897006e-010
9.417515e-010
9.503594e-010
8.626251e-010
8.543199e-010
9.869106e-010
1.120695e-009
1.102966e-009
9.706644e-010
8.896999e-010
9.190583e-010
9.262807e-010
7.649473e-010
4.630878e-010
1.676116e-010
-6.233185e-011
-3.159327e-010
-6.670883e-010
-1.028241e-009
-1.229624e-009
-1.204319e-009
-1.015735e-009
-7.075578e-010
-2.253425e-010
4.472977e-010
1.129306e-009
1.520621e-009
1.458878e-009
1.030001e-009
3.951873e-010
-4.017398e-010
-1.339060e-009
-2.146730e-009
-2.300052e-009
-1.453630e-009
9.387756e-011
1.477196e-009
1.920837e-009
1.360801e-009
4.178229e-010
-2.209163e-010
-3.642311e-010
-3.026462e-010
-3.468160e-010
-4.763460e-010
-4.399143e-010
-1.106955e-010
3.353729e-010
5.870531e-010
4.861657e-010
1.320999e-010
-2.484488e-010
-4.760761e-010
-2.507890e-009
-1.038942e-009
8.743995e-010
2.078934e-009
2.041697e-009
1.007891e-009
-3.785876e-010
-1.511122e-009
-1.977161e-009
-1.548201e-009
-2.814894e-010
1.294820e-009
2.276434e-009
1.950502e-009
4.448475e-010
-1.227098e-009
-1.930115e-009
-1.339395e-009
-1.413100e-010
6.887456e-010
7.706623e-010
4.732393e-010
2.896979e-010
2.361439e-010
-4.466641e-011
-6.890625e-010
-1.314886e-009
-1.392140e-009
-8.140250e-010
1.635347e-011
6.434919e-010
9.809157e-010
1.236871e-009
1.535749e-009
1.750372e-009
1.706336e-009
1.427485e-009
1.099490e-009
8.457891e-010
6.328112e-010
3.917329e-010
1.425807e-010
-4.884389e-011
-1.795955e-010
-3.032117e-010
-4.291670e-010
-4.983097e-010
-4.772587e-010
-4.218455e-010
-4.041079e-010
-4.089076e-010
-3.571932e-010
-2.230827e-010
-6.996349e-011
4.689336e-011
1.627028e-010
3.472366e-010
5.987731e-010
8.496049e-010
1.068063e-009
1.289810e-009
1.524538e-009
1.691049e-009
1.702517e-009
1.583709e-009
1.425642e-009
1.221774e-009
8.425159e-010
2.386726e-010
-3.871724e-010
-7.210704e-010
-6.647747e-010
-4.322512e-010
-2.665239e-010
-1.432912e-010
1.188166e-010
4.623747e-010
4.713658e-010
-2.025704e-010
-1.312887e-009
-2.061340e-009
-1.774293e-009
-5.328751e-010
8.999743e-010
1.747932e-009
1.774787e-009
1.240571e-009
4.884057e-010
-2.879341e-010
-9.236478e-010
-1.150307e-009
-7.717808e-010
1.984853e-011
6.472398e-010
6.105588e-010
-1.595288e-011
-6.060064e-010
-5.657228e-010
8.207708e-011
7.121549e-010
-3.585822e-009
-1.116254e-009
1.798828e-009
3.026804e-009
1.983918e-009
-1.301307e-010
-1.553196e-009
-1.437613e-009
-3.155123e-010
6.565756e-010
7.784972e-010
2.053996e-010
-4.877171e-010
-9.016468e-010
-9.432955e-010
-5.806832e-010
2.460945e-010
1.370274e-009
2.218497e-009
2.134875e-009
9.897373e-010
-6.130508e-010
-1.835682e-009
-2.302826e-009
-2.246996e-009
-2.015684e-009
-1.601050e-009
-7.616482e-010
4.837858e-010
1.678955e-009
2.325371e-009
2.362262e-009
2.147258e-009
1.995817e-009
1.863912e-009
1.521417e-009
9.278760e-010
3.180305e-010
-6.846310e-011
-2.336288e-010
-3.542948e-010
-5.400429e-010
-7.344310e-010
-8.364362e-010
-8.400658e-010
-8.230315e-010
-8.418597e-010
-8.824039e-010
-9.014334e-010
-8.816867e-010
-8.426873e-010
-8.184079e-010
-8.269012e-010
-8.459172e-010
-8.208737e-010
-7.193187e-010
-5.769901e-010
-4.559119e-010
-3.426987e-010
-1.304202e-010
2.526950e-010
7.206945e-010
1.105529e-009
1.366279e-009
1.642474e-009
2.030074e-009
2.352680e-009
2.271848e-009
1.659778e-009
7.746468e-010
-1.098707e-011
-5.969849e-010
-1.148435e-009
-1.698234e-009
-1.914578e-009
-1.417844e-009
-3.111598e-010
7.500253e-010
1.106885e-009
6.782559e-010
-5.001725e-011
-5.481902e-010
-6.483406e-010
-4.574291e-010
-6.197015e-011
5.038701e-010
1.033265e-009
1.113003e-009
5.018213e-010
-4.718471e-010
-1.055144e-009
-7.517621e-010
1.357638e-010
7.273729e-010
4.030795e-010
-5.610495e-010
-1.214539e-009
-8.275214e-010
3.923080e-010
1.449921e-009
-1.602955e-009
-1.204887e-010
1.370282e-009
1.434938e-009
5.542643e-012
-1.545921e-009
-1.659719e-009
-4.833126e-011
1.974411e-009
2.626878e-009
1.233491e-009
-1.200499e-009
-2.898375e-009
-2.792484e-009
-1.212980e-009
6.786026e-010
1.939260e-009
2.331043e-009
2.028360e-009
1.188738e-009
-4.710643e-011
-1.304733e-009
-2.020458e-009
-1.870166e-009
-1.073682e-009
-1.664936e-010
5.020797e-010
9.523437e-010
1.288250e-009
1.400360e-009
1.081573e-009
3.768889e-010
-3.470077e-010
-7.478186e-010
-8.408613e-010
-9.029131e-010
-1.086715e-009
-1.240075e-009
-1.131098e-009
-7.601417e-010
-3.643591e-010
-1.400026e-010
-4.665883e-011
8.778022e-011
3.293092e-010
5.650317e-010
6.551336e-010
6.012795e-010
5.345635e-010
5.549761e-010
6.161061e-010
5.832069e-010
3.949335e-010
1.423851e-010
-3.322088e-011
-1.135068e-010
-2.344288e-010
-5.157871e-010
-8.858881e-010
-1.137331e-009
-1.171580e-009
-1.121436e-009
-1.163267e-009
-1.239914e-009
-1.076212e-009
-5.151656e-010
2.384793e-010
8.012746e-010
1.010215e-009
1.029474e-009
1.033116e-009
9.058192e-010
3.947852e-010
-4.615964e-010
-1.203231e-009
-1.333056e-009
-7.798018e-010
8.739771e-011
8.424657e-010
1.276709e-009
1.307961e-009
8.279533e-010
-1.515092e-010
-1.220523e-009
-1.670048e-009
-1.077021e-009
1.965956e-010
1.215638e-009
1.280758e-009
5.335738e-010
-2.560825e-010
-4.725344e-010
-1.895074e-010
3.801835e-011
-1.736566e-010
-6.394104e-010
-8.209401e-010
-3.812195e-010
4.723229e-010
1.145598e-009
1.431980e-009
9.229516e-010
4.192482e-011
-9.681307e-010
-1.721575e-009
-1.738429e-009
-7.345489e-010
9.633831e-010
2.344067e-009
2.324481e-009
7.055003e-010
-1.440059e-009
-2.513333e-009
-1.735033e-009
1.651556e-010
1.620068e-009
1.614138e-009
4.399443e-010
-8.125552e-010
-1.342725e-009
-1.149504e-009
-6.347539e-010
-1.915003e-012
8.036526e-010
1.703914e-009
2.306938e-009
2.225243e-009
1.471272e-009
4.208550e-010
-5.737213e-010
-1.413997e-009
-2.103636e-009
-2.527265e-009
-2.516224e-009
-2.096617e-009
-1.532649e-009
-1.064670e-009
-6.749243e-010
-1.856129e-010
4.489862e-010
1.044274e-009
1.401184e-009
1.544795e-009
1.678182e-009
1.920454e-009
2.166386e-009
2.236444e-009
2.117102e-009
1.987570e-009
2.002623e-009
2.103274e-009
2.090847e-009
1.875113e-009
1.589124e-009
1.421894e-009
1.371520e-009
1.232849e-009
8.480467e-010
3.073460e-010
-1.656405e-010
-5.056500e-010
-8.887184e-010
-1.477346e-009
-2.149591e-009
-2.576957e-009
-2.566494e-009
-2.229175e-009
-1.767360e-009
-1.190406e-009
-3.625065e-010
6.807682e-010
1.599042e-009
2.012107e-009
1.839572e-009
1.300029e-009
6.318815e-010
-4.230345e-011
-5.601482e-010
-6.236918e-010
-7.311433e-011
7.454230e-010
1.092568e-009
4.972697e-010
-7.001600e-010
-1.578993e-009
-1.466060e-009
-5.106930e-010
5.478414e-010
1.084841e-009
1.006182e-009
5.769380e-010
4.868565e-011
-4.470624e-010
-7.632530e-010
-7.159363e-010
-2.911116e-010
2.214442e-010
4.414980e-010
2.780748e-010
2.497807e-011
2.959210e-009
1.004868e-009
-1.258429e-009
-2.204883e-009
-1.530265e-009
-1.977099e-010
6.700097e-010
7.140086e-010
2.980933e-010
-1.235829e-010
-3.679367e-010
-3.544896e-010
7.442403e-011
9.067873e-010
1.618411e-009
1.402090e-009
-2.830926e-011
-1.916445e-009
-2.955175e-009
-2.415937e-009
-7.587377e-010
8.976240e-010
1.812467e-009
2.052113e-009
2.010934e-009
1.779785e-009
1.142152e-009
6.830507e-011
-1.036947e-009
-1.669400e-009
-1.689937e-009
-1.344926e-009
-8.927927e-010
-3.616331e-010
3.030139e-010
9.997060e-010
1.514703e-009
1.771291e-009
1.910545e-009
2.083966e-009
2.251740e-009
2.265244e-009
2.108010e-009
1.950445e-009
1.937073e-009
1.998153e-009
1.948055e-009
1.744282e-009
1.559871e-009
1.565874e-009
1.706972e-009
1.769048e-009
1.656857e-009
1.519868e-009
1.557568e-009
1.755718e-009
1.899630e-009
1.846702e-009
1.695006e-009
1.622567e-009
1.616246e-009
1.461138e-009
1.008134e-009
3.582009e-010
-2.779171e-010
-8.306703e-010
-1.370265e-009
-1.863800e-009
-2.067108e-009
-1.747907e-009
-9.561742e-010
2.619511e-011
9.697847e-010
1.792518e-009
2.341960e-009
2.268062e-009
1.336720e-009
-1.144366e-010
-1.231323e-009
-1.332575e-009
-5.425655e-010
3.478713e-010
6.473647e-010
3.160160e-010
-2.138232e-010
-5.788454e-010
-7.039426e-010
-5.896242e-010
-1.622854e-010
5.098083e-010
9.961059e-010
7.805392e-010
-1.232957e-010
-9.749979e-010
-9.402823e-010
1.704215e-011
9.888287e-010
9.937650e-010
7.667284e-013
-1.000339e-009
2.227879e-009
1.858435e-010
-1.784028e-009
-1.777478e-009
6.209496e-011
1.797140e-009
1.670578e-009
-2.175153e-010
-2.123671e-009
-2.393253e-009
-9.040985e-010
1.082513e-009
2.229850e-009
2.128704e-009
1.186227e-009
-5.913301e-011
-1.245716e-009
-1.987423e-009
-1.819321e-009
-6.377119e-010
9.108415e-010
1.784671e-009
1.443616e-009
3.164254e-010
-7.014795e-010
-1.127328e-009
-1.153631e-009
-1.119223e-009
-9.715349e-010
-3.965304e-010
6.478297e-010
1.757556e-009
2.490294e-009
2.797665e-009
2.944434e-009
3.090052e-009
3.113005e-009
2.859805e-009
2.415112e-009
2.015167e-009
1.758923e-009
1.534093e-009
1.236358e-009
9.427497e-010
7.929559e-010
7.692760e-010
7.082410e-010
5.328466e-010
3.695560e-010
3.748654e-010
5.114102e-010
5.916293e-010
5.341250e-010
4.776095e-010
5.937643e-010
8.600234e-010
1.106767e-009
1.264900e-009
1.458455e-009
1.812181e-009
2.253940e-009
2.595617e-009
2.765841e-009
2.842610e-009
2.835559e-009
2.561817e-009
1.847904e-009
8.040423e-010
-2.300558e-010
-1.018940e-009
-1.577486e-009
-1.918166e-009
-1.800302e-009
-9.513229e-010
4.304128e-010
1.586088e-009
1.791760e-009
1.034510e-009
-4.511826e-012
-6.266632e-010
-6.620475e-010
-3.537240e-010
7.485441e-011
5.236521e-010
7.708776e-010
4.545557e-010
-4.746473e-010
-1.398432e-009
-1.436085e-009
-3.643013e-010
9.826653e-010
1.432733e-009
6.518401e-010
-4.940147e-010
-8.306181e-010
-9.330594e-011
8.257622e-010
8.540965e-010
-1.123281e-010
-1.102871e-009
4.879524e-010
-5.467881e-010
-1.273102e-009
-5.760216e-010
1.156248e-009
2.278753e-009
1.488765e-009
-7.745902e-010
-2.591031e-009
-2.332124e-009
-2.259116e-010
1.863646e-009
2.213631e-009
7.699071e-010
-1.029469e-009
-1.747070e-009
-1.112516e-009
1.467241e-010
1.240145e-009
1.830043e-009
1.812480e-009
1.055228e-009
-3.773218e-010
-1.905604e-009
-2.688235e-009
-2.329840e-009
-1.215655e-009
-4.631381e-011
8.552230e-010
1.643031e-009
2.449152e-009
3.041123e-009
3.095841e-009
2.665948e-009
2.169485e-009
1.914493e-009
1.796793e-009
1.540049e-009
1.108370e-009
7.382711e-010
6.022220e-010
6.000023e-010
5.372543e-010
3.941702e-010
3.056592e-010
3.258445e-010
3.460549e-010
2.728384e-010
1.780735e-010
1.911157e-010
3.011064e-010
3.700460e-010
3.349599e-010
2.934585e-010
3.471023e-010
4.454066e-010
4.712947e-010
4.372708e-010
4.857741e-010
6.849748e-010
9.367736e-010
1.154920e-009
1.442777e-009
1.960285e-009
2.626943e-009
3.099970e-009
3.113986e-009
2.735800e-009
2.170627e-009
1.398785e-009
2.124619e-010
-1.320942e-009
-2.605802e-009
-2.929351e-009
-2.133230e-009
-7.587242e-010
4.820567e-010
1.242526e-009
1.516944e-009
1.310405e-009
6.204687e-010
-2.508702e-010
-6.801032e-010
-2.972386e-010
4.690854e-010
6.874650e-010
-8.827360e-011
-1.231805e-009
-1.610007e-009
-7.488754e-010
6.644229e-010
1.471907e-009
1.154899e-009
2.135484e-010
-4.610954e-010
-4.561518e-010
-7.725766e-011
1.336418e-010
-1.428658e-011
-2.558681e-010
-7.677090e-010
-4.316730e-010
3.123151e-011
4.339269e-010
6.721761e-010
6.103435e-010
1.311058e-010
-5.567757e-010
-8.283456e-010
-1.856139e-010
1.004979e-009
1.565709e-009
6.116050e-010
-1.360845e-009
-2.711637e-009
-2.163747e-009
-4.540354e-011
2.044147e-009
2.734999e-009
1.942023e-009
5.443898e-010
-6.377992e-010
-1.337174e-009
-1.533128e-009
-1.112376e-009
-5.572806e-011
1.236874e-009
2.123888e-009
2.288928e-009
1.974475e-009
1.589145e-009
1.235798e-009
7.662633e-010
1.953708e-010
-1.783281e-010
-1.332574e-010
1.556719e-010
3.035121e-010
1.602214e-010
-7.606024e-011
-1.874550e-010
-2.264984e-010
-3.980578e-010
-7.540331e-010
-1.138029e-009
-1.410864e-009
-1.599812e-009
-1.781977e-009
-1.922261e-009
-1.917338e-009
-1.751641e-009
-1.509637e-009
-1.240202e-009
-9.081963e-010
-5.125451e-010
-1.617368e-010
4.354394e-011
1.452661e-010
2.452243e-010
3.101932e-010
1.888215e-010
-1.290455e-010
-3.830055e-010
-2.876293e-010
1.415822e-010
6.404506e-010
1.070461e-009
1.572213e-009
2.238619e-009
2.756250e-009
2.580580e-009
1.510522e-009
-3.971366e-011
-1.399898e-009
-2.156522e-009
-2.226388e-009
-1.600406e-009
-3.260312e-010
1.180390e-009
2.089136e-009
1.765811e-009
4.745423e-010
-7.342716e-010
-9.888366e-010
-3.949512e-010
2.060853e-010
1.915796e-010
-2.733873e-010
-5.830350e-010
-3.956490e-010
1.208053e-010
5.977577e-010
7.979590e-010
6.419499e-010
1.412765e-010
-5.165385e-010
-9.136039e-010
-6.754866e-010
9.696451e-011
7.843099e-010
-1.272135e-009
2.345295e-010
1.470200e-009
1.041375e-009
-5.910646e-010
-1.751573e-009
-1.369315e-009
9.652557e-011
1.399750e-009
1.767409e-009
1.271075e-009
2.982840e-010
-8.517172e-010
-1.781877e-009
-1.863055e-009
-7.567312e-010
9.263987e-010
1.871903e-009
1.249860e-009
-4.018674e-010
-1.654645e-009
-1.537225e-009
-2.891734e-010
1.157603e-009
2.159741e-009
2.671638e-009
2.809430e-009
2.502497e-009
1.702061e-009
6.961964e-010
-4.310084e-011
-3.107271e-010
-2.979417e-010
-2.590114e-010
-2.241413e-010
-1.422874e-010
-1.724937e-010
-6.377696e-010
-1.680182e-009
-3.105612e-009
-4.632318e-009
-6.190426e-009
-7.881331e-009
-9.707089e-009
-1.147147e-008
-1.295880e-008
-1.410283e-008
-1.492825e-008
-1.540623e-008
-1.545226e-008
-1.503202e-008
-1.418576e-008
-1.295651e-008
-1.137993e-008
-9.564572e-009
-7.695857e-009
-5.902581e-009
-4.182677e-009
-2.542661e-009
-1.164511e-009
-3.079595e-010
-2.115599e-011
-5.809048e-011
-1.524619e-010
-2.797200e-010
-5.243358e-010
-7.397432e-010
-5.323449e-010
3.252078e-010
1.568414e-009
2.634485e-009
3.115180e-009
2.907451e-009
2.016160e-009
4.964515e-010
-1.268709e-009
-2.454602e-009
-2.316259e-009
-9.466258e-010
6.477393e-010
1.389849e-009
1.034161e-009
1.896767e-010
-4.204882e-010
-5.410643e-010
-2.997599e-010
1.289661e-010
5.610164e-010
6.817796e-010
2.498522e-010
-4.767574e-010
-7.837384e-010
-2.439353e-010
6.456065e-010
8.629509e-010
2.591635e-011
-1.033807e-009
-1.104986e-009
1.415124e-011
1.198369e-009
-1.627344e-009
5.232706e-010
2.217777e-009
1.426357e-009
-1.079739e-009
-2.667082e-009
-1.726451e-009
7.193037e-010
2.275698e-009
1.690621e-009
-1.253445e-010
-1.367482e-009
-1.175980e-009
-9.420082e-011
8.902676e-010
1.267820e-009
9.955415e-010
1.085226e-010
-1.204659e-009
-2.264153e-009
-2.142712e-009
-5.497087e-010
1.664958e-009
3.148969e-009
3.223428e-009
2.320990e-009
1.321496e-009
6.947198e-010
3.837012e-010
2.738852e-010
4.349361e-010
8.536918e-010
1.174622e-009
8.939173e-010
-2.545112e-010
-2.237587e-009
-4.994558e-009
-8.593251e-009
-1.306247e-008
-1.819870e-008
-2.365636e-008
-2.918717e-008
-3.469118e-008
-4.004568e-008
-4.499092e-008
-4.922743e-008
-5.256137e-008
-5.490561e-008
-5.618763e-008
-5.632381e-008
-5.526999e-008
-5.304390e-008
-4.970918e-008
-4.539889e-008
-4.035717e-008
-3.488402e-008
-2.920165e-008
-2.343068e-008
-1.774465e-008
-1.248324e-008
-8.011982e-009
-4.478389e-009
-1.804847e-009
6.315529e-011
1.029073e-009
1.064650e-009
4.816492e-010
-1.606010e-010
-4.310153e-010
-2.120049e-010
4.659347e-010
1.552629e-009
2.776508e-009
3.463989e-009
2.905558e-009
1.081023e-009
-1.100080e-009
-2.461330e-009
-2.479019e-009
-1.511306e-009
-2.593594e-010
7.669399e-010
1.278986e-009
1.092465e-009
3.254692e-010
-3.899731e-010
-3.191856e-010
5.266873e-010
1.174306e-009
6.601845e-010
-7.693455e-010
-1.731658e-009
-1.175828e-009
3.792222e-010
1.343808e-009
8.051890e-010
-4.775313e-010
-9.916156e-010
-2.240832e-010
8.009188e-010
-1.959354e-009
8.636581e-012
1.744532e-009
1.471313e-009
-2.844794e-010
-1.407521e-009
-6.311811e-010
1.040991e-009
1.503749e-009
-2.560513e-011
-2.061693e-009
-2.429873e-009
-5.790172e-010
1.898201e-009
2.949951e-009
1.975220e-009
2.863290e-011
-1.478286e-009
-1.895705e-009
-1.317288e-009
-5.248541e-011
1.484818e-009
2.594407e-009
2.551497e-009
1.313031e-009
-2.260091e-010
-9.410340e-010