# vtk DataFile Version 3.0
vtk output
ASCII
DATASET STRUCTURED_POINTS
DIMENSIONS 100 100 1
SPACING 1 1 1
ORIGIN 0 0 0
POINT_DATA 10000
SCALARS SFBox_profile double
LOOKUP_TABLE default 
0.000000e+000
0.000000e+000
0.000000e+000
0.000000e+000
0.000000e+000
0.000000e+000
0.000000e+000
0.000000e+000
0.000000e+000
0.000000e+000
0.000000e+000
0.000000e+000
0.000000e+000
0.000000e+000
0.000000e+000
0.000000e+000
0.000000e+000
0.000000e+000
0.000000e+000
0.000000e+000
0.000000e+000
0.000000e+000
0.000000e+000
0.000000e+000
0.000000e+000
0.000000e+000
0.000000e+000
0.000000e+000
0.000000e+000
0.000000e+000
0.000000e+000
0.000000e+000
0.000000e+000
0.000000e+000
0.000000e+000
0.000000e+000
0.000000e+000
0.000000e+000
0.000000e+000
0.000000e+000
0.000000e+000
0.000000e+000
0.000000e+000
0.000000e+000
0.000000e+000
0.000000e+000
0.000000e+000
0.000000e+000
0.000000e+000
0.000000e+000
0.000000e+000
0.000000e+000
0.000000e+000
0.000000e+000
0.000000e+000
0.000000e+000
0.000000e+000
0.000000e+000
0.000000e+000
0.000000e+000
0.000000e+000
0.000000e+000
0.000000e+000
0.000000e+000
0.000000e+000
0.000000e+000
0.000000e+000
0.000000e+000
0.000000e+000
0.000000e+000
0.000000e+000
0.000000e+000
0.000000e+000
0.000000e+000
0.000000e+000
0.000000e+000
0.000000e+000
0.000000e+000
0.000000e+000
0.000000e+000
0.000000e+000
0.000000e+000
0.000000e+000
0.000000e+000
0.000000e+000
0.000000e+000
0.000000e+000
0.000000e+000
0.000000e+000
0.000000e+000
0.000000e+000
0.000000e+000
0.000000e+000
0.000000e+000
0.000000e+000
0.000000e+000
0.000000e+000
0.000000e+000
0.000000e+000
0.000000e+000
3.455213e-008
2.248498e-008
4.521893e-009
-1.035509e-008
-1.536848e-008
-9.780927e-009
9.681421e-010
9.148879e-009
1.002177e-008
4.598388e-009
-2.103994e-009
-5.520109e-009
-4.741415e-009
-2.053778e-009
-2.746814e-011
6.487564e-010
8.490112e-010
1.326498e-009
1.828670e-009
1.691410e-009
7.827600e-010
-3.783376e-010
-1.204845e-009
-1.457418e-009
-1.166043e-009
-4.754451e-010
2.942241e-010
6.659896e-010
3.796177e-010
-2.477651e-010
-5.591174e-010
-2.694064e-010
1.987821e-010
2.538010e-010
-6.381319e-011
-4.840841e-011
8.226249e-010
2.190025e-009
3.167341e-009
3.353449e-009
3.265653e-009
3.661890e-009
4.598584e-009
5.383770e-009
5.449973e-009
5.034612e-009
4.835808e-009
5.115129e-009
5.387288e-009
5.063262e-009
4.213467e-009
3.494379e-009
3.346162e-009
3.466067e-009
3.198629e-009
2.347683e-009
1.414580e-009
9.876753e-010
1.042301e-009
1.002046e-009
4.737293e-010
-2.481879e-010
-5.237136e-010
-1.400229e-010
4.233013e-010
5.575893e-010
2.333574e-010
-3.564374e-012
2.609593e-010
7.606742e-010
8.277108e-010
1.728948e-010
-7.506341e-010
-1.213333e-009
-9.498165e-010
-3.428812e-010
8.917830e-011
2.532921e-010
4.626170e-010
9.311551e-010
1.407972e-009
1.360822e-009
4.985331e-010
-8.899748e-010
-2.064296e-009
-2.292007e-009
-1.311852e-009
4.546082e-010
2.059450e-009
2.532167e-009
1.509120e-009
-4.256017e-010
-2.032322e-009
-2.248913e-009
-9.796130e-010
8.061154e-010
1.795041e-009
1.326456e-009
-1.222357e-010
-1.338517e-009
2.016421e-009
1.600367e-009
6.418228e-010
-6.110657e-010
-1.350621e-009
-8.674251e-010
5.467164e-010
1.598911e-009
1.171633e-009
-4.693811e-010
-1.818063e-009
-1.598416e-009
-3.115256e-011
1.449342e-009
1.661542e-009
7.161108e-010
-3.590773e-010
-7.676552e-010
-5.485443e-010
-1.985631e-010
-2.616370e-011
2.615136e-012
-8.348656e-012
-4.865919e-011
-9.327836e-011
-4.018178e-011
1.294454e-010
2.417601e-010
1.341302e-010
-6.134071e-011
-5.242968e-012
4.081108e-010
8.183083e-010
7.516478e-010
1.797341e-010
-4.269677e-010
-6.640997e-010
-6.894296e-010
-1.012467e-009
-1.824656e-009
-2.715951e-009
-3.148771e-009
-3.100185e-009
-3.065071e-009
-3.420322e-009
-3.953209e-009
-4.138151e-009
-3.798350e-009
-3.319049e-009
-3.161431e-009
-3.300553e-009
-3.282093e-009
-2.805330e-009
-2.097975e-009
-1.631612e-009
-1.548217e-009
-1.506555e-009
-1.123225e-009
-4.566014e-010
5.473422e-011
1.139783e-010
-8.983182e-011
-1.261360e-010
1.507732e-010
4.339942e-010
3.523445e-010
-6.185233e-011
-3.912855e-010
-3.113479e-010
4.770426e-011
2.749182e-010
1.612660e-010
-8.705727e-011
-1.328521e-010
7.666447e-011
2.541708e-010
1.154736e-010
-2.923899e-010
-6.332493e-010
-6.118017e-010
-2.289884e-010
2.563540e-010
5.567424e-010
5.430723e-010
2.779828e-010
-5.974556e-011
-2.825348e-010
-2.925880e-010
-1.347063e-010
4.251459e-011
1.078593e-010
5.250393e-011
-2.267234e-011
-2.236508e-011
4.958205e-011
1.113566e-010
9.863926e-011
2.143552e-011
-6.460734e-011
-1.151336e-010
-3.346109e-008
-2.105502e-008
-3.334100e-009
1.024224e-008
1.382554e-008
8.196849e-009
-9.113271e-010
-7.334927e-009
-8.231052e-009
-4.727794e-009
7.173390e-011
3.536142e-009
4.665051e-009
3.823250e-009
1.936308e-009
-1.025727e-010
-1.670420e-009
-2.456468e-009
-2.419756e-009
-1.707892e-009
-5.949946e-010
5.470517e-010
1.323507e-009
1.488615e-009
1.101956e-009
4.897388e-010
3.513388e-012
-2.069949e-010
-2.029607e-010
-9.167397e-011
8.826008e-011
3.128500e-010
4.707265e-010
3.924942e-010
-1.928893e-012
-6.282645e-010
-1.340335e-009
-2.078282e-009
-2.867898e-009
-3.684238e-009
-4.389970e-009
-4.862364e-009
-5.149870e-009
-5.428839e-009
-5.783335e-009
-6.079782e-009
-6.108635e-009
-5.829736e-009
-5.421286e-009
-5.076034e-009
-4.799248e-009
-4.447013e-009
-3.935103e-009
-3.348415e-009
-2.827846e-009
-2.396315e-009
-1.946387e-009
-1.394611e-009
-8.028345e-010
-3.218413e-010
-3.678400e-011
9.789953e-011
1.715751e-010
2.016231e-010
1.306440e-010
-7.379231e-011
-3.486548e-010
-5.736269e-010
-6.573983e-010
-5.697967e-010
-3.126190e-010
9.271573e-011
5.670625e-010
9.521775e-010
1.073752e-009
8.468939e-010
3.183321e-010
-3.815397e-010
-1.091576e-009
-1.611334e-009
-1.692356e-009
-1.138076e-009
4.734099e-012
1.335578e-009
2.227402e-009
2.158431e-009
1.043573e-009
-6.467287e-010
-2.067635e-009
-2.421629e-009
-1.436252e-009
3.779220e-010
1.934260e-009
2.232945e-009
1.086280e-009
-6.677986e-010
-1.736999e-009
-1.364973e-009
5.347656e-011
1.286338e-009
-3.960992e-008
-2.491164e-008
-3.775724e-009
1.248123e-008
1.648099e-008
8.928776e-009
-2.781943e-009
-1.023770e-008
-9.620071e-009
-3.275045e-009
3.298046e-009
6.002937e-009
4.542737e-009
1.392744e-009
-9.213687e-010
-1.620178e-009
-1.435257e-009
-1.262686e-009
-1.262905e-009
-1.037914e-009
-3.228264e-010
6.549204e-010
1.395202e-009
1.550110e-009
1.135890e-009
4.552475e-010
-1.152777e-010
-3.385997e-010
-2.514871e-010
-1.237331e-010
-2.139959e-010
-5.073448e-010
-7.180668e-010
-5.965336e-010
-2.146859e-010
1.105725e-010
1.847893e-010
1.668881e-010
3.878100e-010
9.681112e-010
1.677352e-009
2.183533e-009
2.389975e-009
2.482775e-009
2.670559e-009
2.943607e-009
3.121235e-009
3.098055e-009
2.975938e-009
2.926611e-009
2.963855e-009
2.913550e-009
2.626739e-009
2.177933e-009
1.797803e-009
1.609488e-009
1.487605e-009
1.221924e-009
7.938915e-010
4.212558e-010
3.007914e-010
3.586896e-010
3.272143e-010
7.099417e-011
-2.357226e-010
-3.154605e-010
-1.401123e-010
1.000322e-011
-1.193924e-010
-4.178203e-010
-4.925546e-010
-1.086252e-010
5.173210e-010
9.224875e-010
8.756568e-010
5.788626e-010
3.716246e-010
3.035833e-010
8.989082e-011
-4.942033e-010
-1.237311e-009
-1.572855e-009
-1.058972e-009
1.978190e-010
1.541079e-009
2.160704e-009
1.594387e-009
4.597990e-011
-1.646096e-009
-2.432464e-009
-1.718349e-009
1.307922e-010
1.900381e-009
2.334333e-009
1.106545e-009
-8.501423e-010
-2.024231e-009
-1.527675e-009
1.720439e-010
1.632129e-009
-1.034829e-008
-6.549149e-009
-8.440270e-010
3.716755e-009
4.567974e-009
1.517541e-009
-2.751122e-009
-4.565579e-009
-2.315761e-009
2.076360e-009
4.823794e-009
3.640007e-009
-3.408626e-010
-3.799722e-009
-4.253720e-009
-1.947384e-009
8.909919e-010
2.279201e-009
1.923890e-009
8.449509e-010
7.248415e-011
-1.325272e-010
-7.595403e-011
-7.171943e-011
-1.898493e-010
-3.347678e-010
-3.605327e-010
-1.532832e-010
2.297719e-010
4.856132e-010
2.932593e-010
-2.764773e-010
-6.777172e-010
-3.753599e-010
5.828965e-010
1.612209e-009
2.259788e-009
2.711355e-009
3.508713e-009
4.819589e-009
6.165015e-009
6.945723e-009
7.120405e-009
7.209854e-009
7.638496e-009
8.226300e-009
8.434674e-009
8.039639e-009
7.403698e-009
7.031412e-009
6.967946e-009
6.772883e-009
6.086970e-009
5.089622e-009
4.288418e-009
3.903318e-009
3.605619e-009
2.939187e-009
1.913137e-009
1.034400e-009
7.253163e-010
8.286883e-010
8.097783e-010
4.184652e-010
1.895817e-012
7.046288e-011
6.316739e-010
1.107481e-009
9.599130e-010
2.941376e-010
-2.744794e-010
-3.276393e-010
-8.530505e-011
-7.058708e-011
-4.191792e-010
-6.678093e-010
-2.784000e-010
7.036315e-010
1.595872e-009
1.679661e-009
8.243645e-010
-4.405428e-010
-1.372672e-009
-1.518406e-009
-9.128756e-010
2.859067e-011
7.675930e-010
9.289241e-010
5.146730e-010
-9.828895e-011
-4.390476e-010
-3.163079e-010
4.427236e-011
2.379205e-010
6.767497e-011
-2.891286e-010
-4.717518e-010
-2.757852e-010
1.728098e-010
5.343491e-010
2.940553e-008
1.780859e-008
1.981234e-009
-9.071674e-009
-1.103702e-008
-6.045245e-009
6.312335e-010
5.014847e-009
6.145830e-009
4.833036e-009
1.969411e-009
-1.681187e-009
-4.823230e-009
-5.783058e-009
-3.797529e-009
1.707770e-011
3.335476e-009
4.423301e-009
3.304261e-009
1.296206e-009
-3.359740e-010
-1.184756e-009
-1.470923e-009
-1.457655e-009
-1.237934e-009
-8.605117e-010
-3.834821e-010
1.939890e-010
8.626561e-010
1.424444e-009
1.567996e-009
1.261566e-009
9.523002e-010
1.158767e-009
1.848867e-009
2.411974e-009
2.357829e-009
1.908925e-009
1.715471e-009
2.021337e-009
2.338704e-009
2.065952e-009
1.279124e-009
6.886439e-010
7.956918e-010
1.287970e-009
1.420162e-009
9.107816e-010
2.653308e-010
1.525753e-010
6.100042e-010
1.034732e-009
9.407755e-010
5.421185e-010
4.597701e-010
9.310942e-010
1.498704e-009
1.558953e-009
1.096649e-009
7.064649e-010
8.729752e-010
1.386172e-009
1.604866e-009
1.246960e-009
7.430431e-010
7.203965e-010
1.239375e-009
1.699845e-009
1.522441e-009
7.866680e-010
8.599796e-011
-1.858454e-010
-2.453598e-010
-5.605293e-010
-1.189182e-009
-1.611714e-009
-1.244960e-009
-5.434019e-011
1.366879e-009
2.259056e-009
2.198830e-009
1.253979e-009
-1.627256e-010
-1.496282e-009
-2.213030e-009
-1.981323e-009
-8.557346e-010
6.773273e-010
1.889819e-009
2.161150e-009
1.308506e-009
-2.579489e-010
-1.666611e-009
-2.040969e-009
-1.105903e-009
4.964311e-010
1.577392e-009
1.321111e-009
7.780902e-012
-1.178780e-009
4.606785e-008
2.727716e-008
1.773400e-009
-1.540211e-008
-1.684466e-008
-6.521960e-009
5.274362e-009
1.039731e-008
7.655027e-009
1.324057e-009
-3.661276e-009
-5.153330e-009
-3.849547e-009
-1.423175e-009
8.847540e-010
2.414006e-009
2.801174e-009
2.042559e-009
6.705056e-010
-5.170871e-010
-1.049657e-009
-1.034769e-009
-8.227116e-010
-5.807803e-010
-2.783780e-010
7.041238e-011
3.684913e-010
6.287519e-010
1.001903e-009
1.518008e-009
1.942945e-009
2.043807e-009
1.920051e-009
1.873926e-009
1.932370e-009
1.701104e-009
8.397787e-010
-4.343338e-010
-1.528921e-009
-2.171215e-009
-2.716646e-009
-3.635293e-009
-4.820294e-009
-5.630219e-009
-5.649171e-009
-5.214926e-009
-5.036138e-009
-5.355715e-009
-5.682422e-009
-5.407550e-009
-4.542156e-009
-3.685764e-009
-3.292449e-009
-3.143626e-009
-2.655795e-009
-1.624011e-009
-4.891746e-010
1.810522e-010
3.500834e-010
5.113616e-010
1.048054e-009
1.746183e-009
2.048963e-009
1.729739e-009
1.165774e-009
9.010154e-010
1.045605e-009
1.221782e-009
1.071574e-009
6.782557e-010
4.146947e-010
4.571060e-010
5.731288e-010
4.047566e-010
-1.294131e-010
-7.626449e-010
-1.141941e-009
-1.079037e-009
-5.810181e-010
2.213089e-010
1.076700e-009
1.603354e-009
1.433755e-009
4.959293e-010
-8.159770e-010
-1.787177e-009
-1.787807e-009
-6.884801e-010
9.630639e-010
2.151832e-009
1.986711e-009
3.998896e-010
-1.587633e-009
-2.462241e-009
-1.422648e-009
7.929076e-010
2.360220e-009
1.908547e-009
-1.950295e-010
-2.092679e-009
2.587524e-008
1.433575e-008
-8.225011e-010
-9.877606e-009
-8.516903e-009
-3.936807e-010
6.633511e-009
7.030409e-009
1.437818e-009
-4.851630e-009
-6.807478e-009
-3.517620e-009
1.886021e-009
5.385223e-009
5.148996e-009
2.187638e-009
-1.174507e-009
-3.150917e-009
-3.272592e-009
-2.088478e-009
-4.997215e-010
7.756723e-010
1.476878e-009
1.759530e-009
1.873419e-009
1.856663e-009
1.585921e-009
1.096056e-009
6.986991e-010
6.817651e-010
9.703927e-010
1.219505e-009
1.223302e-009
1.090676e-009
9.812334e-010
8.263350e-010
4.578532e-010
-5.828174e-011
-4.126490e-010
-4.320500e-010
-3.243665e-010
-4.143523e-010
-7.005526e-010
-8.381134e-010
-5.946777e-010
-1.835121e-010
-2.248658e-011
-2.154624e-010
-4.192526e-010
-2.694391e-010
1.688434e-010
4.835342e-010
4.198302e-010
1.822204e-010
1.784546e-010
5.360593e-010
9.766228e-010
1.172390e-009
1.127491e-009
1.128594e-009
1.358219e-009
1.662449e-009
1.740918e-009
1.496298e-009
1.114769e-009
8.215147e-010
6.549491e-010
5.260247e-010
4.243677e-010
4.625840e-010
7.142930e-010
1.095529e-009
1.449438e-009
1.679765e-009
1.720200e-009
1.415629e-009
5.865497e-010
-6.836757e-010
-1.873639e-009
-2.276345e-009
-1.539257e-009
4.957826e-013
1.501771e-009
2.157095e-009
1.661218e-009
3.467045e-010
-1.011368e-009
-1.612614e-009
-1.120479e-009
5.216872e-011
9.726104e-010
9.122558e-010
9.766615e-012
-8.025923e-010
-6.636265e-010
3.435540e-010
1.214739e-009
9.985418e-010
-2.232578e-010
-1.360844e-009
-1.489278e-008
-9.838299e-009
-2.499060e-009
3.586368e-009
6.272978e-009
5.436231e-009
2.169182e-009
-2.065362e-009
-5.566606e-009
-6.498600e-009
-3.835454e-009
1.390484e-009
6.139567e-009
7.335677e-009
4.254273e-009
-9.059049e-010
-4.827912e-009
-5.553739e-009
-3.504106e-009
-5.466789e-010
1.649382e-009
2.546698e-009
2.577540e-009
2.426223e-009
2.431136e-009
2.449061e-009
2.159671e-009
1.497963e-009
7.924858e-010
4.541320e-010
5.516053e-010
7.650302e-010
7.708615e-010
5.923425e-010
5.162733e-010
7.326346e-010
1.161082e-009
1.621618e-009
2.056012e-009
2.511941e-009
2.977307e-009
3.334109e-009
3.480405e-009
3.422732e-009
3.219901e-009
2.895903e-009
2.463058e-009
1.996794e-009
1.609623e-009
1.331130e-009
1.065080e-009
7.063183e-010
2.773965e-010
-9.247264e-011
-3.167418e-010
-4.326494e-010
-5.173793e-010
-5.676338e-010
-5.123218e-010
-3.330332e-010
-1.096470e-010
8.593315e-011
2.957949e-010
6.057228e-010
9.679571e-010
1.175929e-009
1.085677e-009
8.307194e-010
7.206544e-010
8.936336e-010
1.150817e-009
1.223403e-009
1.164577e-009
1.333868e-009
1.910690e-009
2.500513e-009
2.372498e-009
1.160593e-009
-6.942677e-010
-2.221144e-009
-2.626494e-009
-1.780208e-009
-1.745643e-010
1.424805e-009
2.312153e-009
2.083332e-009
8.313043e-010
-8.080010e-010
-1.937459e-009
-1.938393e-009
-8.844242e-010
5.185403e-010
1.423305e-009
1.380795e-009
5.633808e-010
-4.157930e-010
-9.228285e-010
-7.010931e-010
-1.517380e-011
5.570947e-010
-4.456932e-008
-2.583068e-008
-9.146860e-010
1.500212e-008
1.528077e-008
4.960847e-009
-5.500685e-009
-9.092269e-009
-6.000691e-009
-6.940120e-010
3.055719e-009
4.293687e-009
3.655980e-009
1.725044e-009
-9.898756e-010
-3.329863e-009
-3.806469e-009
-1.944021e-009
1.034687e-009
3.162902e-009
3.365170e-009
2.131475e-009
7.791059e-010
2.651978e-010
6.396338e-010
1.336062e-009
1.781465e-009
1.794474e-009
1.584950e-009
1.453441e-009
1.456604e-009
1.334310e-009
7.780980e-010
-2.315816e-010
-1.394395e-009
-2.413320e-009
-3.314652e-009
-4.410185e-009
-5.955890e-009
-7.890335e-009
-9.921270e-009
-1.183729e-008
-1.369817e-008
-1.571101e-008
-1.793409e-008
-2.012334e-008
-2.189167e-008
-2.303213e-008
-2.367361e-008
-2.409420e-008
-2.438226e-008
-2.432176e-008
-2.364464e-008
-2.236684e-008
-2.080520e-008
-1.923798e-008
-1.761111e-008
-1.565811e-008
-1.330281e-008
-1.084752e-008
-8.687997e-009
-6.880371e-009
-5.100891e-009
-3.087648e-009
-1.051275e-009
4.674664e-010
1.170485e-009
1.336425e-009
1.491075e-009
1.783060e-009
1.826175e-009
1.238493e-009
2.540698e-010
-3.514058e-010
4.095842e-012
1.110947e-009
2.145351e-009
2.388980e-009
1.730525e-009
5.610608e-010
-6.245982e-010
-1.443779e-009
-1.610691e-009
-9.778931e-010
2.626618e-010
1.483382e-009
1.898749e-009
1.110455e-009
-4.995702e-010
-1.890385e-009
-2.015776e-009
-6.353411e-010
1.326318e-009
2.322990e-009
1.420395e-009
-7.569711e-010
-2.370777e-009
-1.939979e-009
2.290740e-010
2.211089e-009
-4.140861e-008
-2.191337e-008
2.788640e-009
1.603995e-008
1.200598e-008
-1.220974e-009
-1.033407e-008
-8.495277e-009
4.564394e-010
7.607565e-009
7.586153e-009
2.036516e-009
-3.731466e-009
-6.011539e-009
-4.711814e-009
-1.674397e-009
1.532329e-009
4.084355e-009
5.310289e-009
4.674616e-009
2.452967e-009
-9.296359e-011
-1.578436e-009
-1.522400e-009
-4.819868e-010
6.596431e-010
1.376120e-009
1.591978e-009
1.393878e-009
7.945158e-010
-3.221675e-010
-2.168689e-009
-4.961194e-009
-8.758072e-009
-1.336750e-008
-1.849564e-008
-2.404084e-008
-3.018721e-008
-3.712033e-008
-4.464823e-008
-5.218703e-008
-5.918475e-008
-6.553203e-008
-7.148513e-008
-7.717330e-008
-8.225737e-008
-8.615461e-008
-8.859112e-008
-8.983850e-008
-9.033400e-008
-9.010762e-008
-8.869684e-008
-8.567900e-008
-8.121231e-008
-7.593734e-008
-7.033874e-008
-6.432227e-008
-5.751881e-008
-4.995228e-008
-4.225582e-008
-3.515471e-008
-2.882030e-008
-2.286532e-008
-1.698671e-008
-1.148468e-008
-7.030329e-009
-3.952117e-009
-1.889395e-009
-2.277234e-010
1.199633e-009
1.974394e-009
1.679573e-009
5.241249e-010
-6.967054e-010
-1.222165e-009
-8.344424e-010
1.874129e-010
1.419806e-009
2.473846e-009
2.941921e-009
2.447847e-009
9.568333e-010
-9.622277e-010
-2.317872e-009
-2.304105e-009
-8.964835e-010
1.023983e-009
2.168529e-009
1.720040e-009
2.861995e-011
-1.511211e-009
-1.548993e-009
-5.288350e-011
1.494125e-009
1.435868e-009
-3.291248e-010
-2.067301e-009
-1.890879e-009
2.297135e-010
2.303043e-009
-8.961836e-009
-2.269978e-009
4.937426e-009
6.037595e-009
1.781731e-010
-6.832292e-009
-7.939414e-009
-1.540486e-009
6.946093e-009
1.014888e-008
5.471136e-009
-2.951278e-009
-8.472070e-009
-7.711414e-009
-2.471317e-009
3.014133e-009
5.843882e-009
5.753933e-009
3.944324e-009
1.648938e-009
-2.415133e-010
-1.067111e-009
-6.180094e-010
5.681922e-010
1.502097e-009
1.484397e-009
4.618227e-010
-1.346943e-009
-3.983713e-009
-7.798908e-009
-1.311409e-008
-2.003715e-008
-2.859237e-008
-3.883025e-008
-5.070106e-008
-6.393167e-008
-7.817571e-008
-9.325823e-008
-1.091207e-007
-1.254726e-007
-1.416255e-007
-1.568211e-007
-1.707174e-007
-1.834333e-007
-1.950628e-007
-2.052404e-007
-2.133087e-007
-2.189014e-007
-2.222217e-007
-2.236440e-007
-2.231035e-007
-2.200349e-007
-2.139828e-007
-2.051787e-007
-1.943839e-007
-1.821706e-007
-1.685024e-007
-1.531220e-007
-1.362762e-007
-1.188939e-007
-1.019919e-007
-8.601010e-008
-7.083281e-008
-5.641151e-008
-4.319983e-008
-3.188401e-008
-2.275825e-008
-1.549394e-008
-9.546404e-009
-4.696284e-009
-1.127815e-009
9.555092e-010
1.670755e-009
1.413461e-009
6.255593e-010
-2.742619e-010
-8.088081e-010
-5.264257e-010
6.546266e-010
2.194674e-009
3.156297e-009
2.815148e-009
1.175412e-009
-9.823948e-010
-2.509699e-009
-2.520705e-009
-9.714868e-010
1.159346e-009
2.403997e-009
1.891945e-009
1.393937e-010
-1.330470e-009
-1.366894e-009
-2.559953e-010
6.729949e-010
5.098642e-010
-3.135360e-010
-6.542465e-010
-6.044264e-011
7.249564e-010
2.870020e-008
1.771233e-008
2.662640e-009
-8.057565e-009
-1.037596e-008
-5.934776e-009
7.254364e-010
5.560514e-009
6.509441e-009
3.561169e-009
-1.391688e-009
-5.175385e-009
-5.156874e-009
-1.327952e-009
3.483092e-009
5.886529e-009
4.640153e-009
1.268214e-009
-1.638087e-009
-2.452846e-009
-1.164974e-009
1.216715e-009
3.402350e-009
4.215947e-009
2.894588e-009
-6.613506e-010
-6.068027e-009
-1.310678e-008
-2.218908e-008
-3.408517e-008
-4.926037e-008
-6.763294e-008
-8.895331e-008
-1.131784e-007
-1.403129e-007
-1.700034e-007
-2.015092e-007
-2.341002e-007
-2.673153e-007
-3.007378e-007
-3.336555e-007
-3.651382e-007
-3.944660e-007
-4.213345e-007
-4.455490e-007
-4.666120e-007
-4.837599e-007
-4.964179e-007
-5.044873e-007
-5.080828e-007
-5.070519e-007
-5.009091e-007
-4.893134e-007
-4.725208e-007
-4.512448e-007
-4.260891e-007
-3.972563e-007
-3.649030e-007
-3.297001e-007
-2.928996e-007
-2.558259e-007
-2.193981e-007
-1.841952e-007
-1.508645e-007
-1.202799e-007
-9.324303e-008
-7.011511e-008
-5.080486e-008
-3.504287e-008
-2.255492e-008
-1.299397e-008
-5.892132e-009
-8.520151e-010
2.229062e-009
3.284188e-009
2.540583e-009
8.248375e-010
-7.025533e-010
-1.188732e-009
-5.160951e-010
7.968737e-010
1.990782e-009
2.400840e-009
1.690462e-009
9.090462e-011
-1.520668e-009
-2.051608e-009
-1.046817e-009
7.722355e-010
1.965347e-009
1.574463e-009
-2.823426e-011
-1.477537e-009
-1.619671e-009
-4.526134e-010
9.911814e-010
1.578986e-009
9.434567e-010
-3.607503e-010
-1.362166e-009
4.601111e-008
2.394238e-008
-3.344439e-009
-1.710770e-008
-1.210031e-008
1.586749e-009
9.981159e-009
7.485265e-009
-9.485393e-010
-7.014317e-009
-6.699078e-009
-1.795794e-009
3.598887e-009
6.595136e-009
6.383160e-009
3.556377e-009
-4.149346e-010
-3.537759e-009
-4.163031e-009
-2.045751e-009
1.436714e-009
4.163822e-009
4.391051e-009
1.253338e-009
-5.387388e-009
-1.536248e-008
-2.867782e-008
-4.592777e-008
-6.831028e-008
-9.705088e-008
-1.326813e-007
-1.749121e-007
-2.231949e-007
-2.772271e-007
-3.367570e-007
-4.010000e-007
-4.684930e-007
-5.376099e-007
-6.070994e-007
-6.760325e-007
-7.433571e-007
-8.077172e-007
-8.677492e-007
-9.224184e-007
-9.709667e-007
-1.012606e-006
-1.046407e-006
-1.071530e-006
-1.087470e-006
-1.093995e-006
-1.090893e-006
-1.077886e-006
-1.054840e-006
-1.022010e-006
-9.799831e-007
-9.294230e-007
-8.709888e-007
-8.055682e-007
-7.345229e-007
-6.596074e-007
-5.826545e-007
-5.054233e-007
-4.297223e-007
-3.574854e-007
-2.905234e-007
-2.301600e-007
-1.771686e-007
-1.320165e-007
-9.497708e-008
-6.585227e-008
-4.367046e-008
-2.691523e-008
-1.425836e-008
-5.110102e-009
5.742755e-010
2.988089e-009
2.909435e-009
1.498056e-009
-1.829139e-010
-1.378403e-009
-1.570883e-009
-5.422300e-010
1.310926e-009
2.886336e-009
2.983071e-009
1.310050e-009
-1.055499e-009
-2.384390e-009
-1.714414e-009
2.707169e-010
1.772073e-009
1.448118e-009
-3.415248e-010
-1.812466e-009
-1.417928e-009
5.989259e-010
2.317321e-009
1.954509e-009
-3.247229e-010
-2.460103e-009
3.382164e-008
1.380220e-008
-8.830985e-009
-1.594099e-008
-5.180190e-009
9.654092e-009
1.341931e-008
3.779132e-009
-8.699134e-009
-1.245973e-008
-5.577412e-009
4.559755e-009
9.746386e-009
7.850649e-009
2.472167e-009
-1.873764e-009
-3.213161e-009
-1.998624e-009
4.996219e-010
2.941673e-009
3.790955e-009
1.443474e-009
-5.209727e-009
-1.657719e-008
-3.289098e-008
-5.492839e-008
-8.429107e-008
-1.231407e-007
-1.736283e-007
-2.372492e-007
-3.144057e-007
-4.044856e-007
-5.064013e-007
-6.190173e-007
-7.409821e-007
-8.702277e-007
-1.003874e-006
-1.138806e-006
-1.272353e-006
-1.402422e-006
-1.527093e-006
-1.644313e-006
-1.752023e-006
-1.848516e-006
-1.932565e-006
-2.003240e-006
-2.059671e-006
-2.101000e-006
-2.126511e-006
-2.135737e-006
-2.128437e-006
-2.104506e-006
-2.063924e-006
-2.006774e-006
-1.933313e-006
-1.844079e-006
-1.740046e-006
-1.622738e-006
-1.494172e-006
-1.356673e-006
-1.212810e-006
-1.065594e-006
-9.186605e-007
-7.759960e-007
-6.412488e-007
-5.172175e-007
-4.059582e-007
-3.091804e-007
-2.282022e-007
-1.633123e-007
-1.132534e-007
-7.556330e-008
-4.759655e-008
-2.732331e-008
-1.333452e-008
-4.407675e-009
6.667231e-010
2.868351e-009
2.846241e-009
1.274787e-009
-7.159325e-010
-1.708597e-009
-8.481569e-010
1.377427e-009
3.302818e-009
3.298664e-009
1.147869e-009
-1.609270e-009
-2.833629e-009
-1.626152e-009
7.812223e-010
2.088545e-009
1.133550e-009
-9.170372e-010
-1.764809e-009
-4.596218e-010
1.514420e-009
1.863375e-009
9.001419e-011
-1.889292e-009
3.413005e-009
-3.347523e-009
-8.854328e-009
-5.885535e-009
3.830111e-009
1.096901e-008
8.232295e-009
-1.935365e-009
-9.745328e-009
-7.988764e-009
1.020922e-009
8.436441e-009
7.979544e-009
1.424536e-009
-4.389534e-009
-4.633392e-009
-1.096993e-010
4.948963e-009
6.999891e-009
4.796588e-009
-1.826148e-009
-1.342451e-008
-3.116576e-008
-5.655154e-008
-9.166600e-008
-1.396313e-007
-2.043758e-007
-2.896545e-007
-3.980749e-007
-5.306702e-007
-6.869284e-007
-8.650045e-007
-1.062007e-006
-1.274268e-006
-1.497461e-006
-1.726619e-006
-1.956353e-006
-2.181427e-006
-2.397388e-006
-2.600804e-006
-2.789043e-006
-2.959949e-006
-3.111763e-006
-3.243280e-006
-3.353978e-006
-3.443892e-006
-3.513279e-006
-3.562288e-006
-3.590868e-006
-3.598910e-006
-3.586386e-006
-3.553268e-006
-3.499282e-006
-3.423758e-006
-3.325806e-006
-3.204732e-006
-3.060437e-006
-2.893554e-006
-2.705312e-006
-2.497448e-006
-2.272481e-006
-2.034277e-006
-1.788341e-006
-1.541348e-006
-1.300116e-006
-1.070820e-006
-8.588938e-007
-6.691778e-007
-5.055505e-007
-3.700292e-007
-2.621646e-007
-1.793967e-007
-1.180704e-007
-7.426318e-008
-4.406763e-008
-2.374725e-008
-1.019824e-008
-1.477077e-009
3.224443e-009
4.322010e-009
2.730405e-009
1.511769e-010
-1.501204e-009
-1.131562e-009
8.147249e-010
2.618495e-009
2.604745e-009
6.292131e-010
-1.636890e-009
-2.166474e-009
-5.659540e-010
1.466037e-009
1.872124e-009
3.933502e-010
-1.250075e-009
-1.367603e-009
-1.451404e-010
8.092138e-010
5.343916e-010
-2.277134e-010
-2.465756e-008
-1.488702e-008
-1.748597e-009
7.107845e-009
8.156921e-009
3.282906e-009
-2.719851e-009
-5.433714e-009
-3.054117e-009
2.651819e-009
7.186125e-009
6.494918e-009
6.875679e-010
-5.432332e-009
-6.421330e-009
-1.247000e-009
5.758951e-009
8.777610e-009
4.799282e-009
-5.912906e-009
-2.271902e-008
-4.717215e-008
-8.314037e-008
-1.356468e-007
-2.102763e-007
-3.131261e-007
-4.501291e-007
-6.255655e-007
-8.408452e-007
-1.094334e-006
-1.381804e-006
-1.696767e-006
-2.030647e-006
-2.373297e-006
-2.714001e-006
-3.042595e-006
-3.350280e-006
-3.630104e-006
-3.877251e-006
-4.089140e-006
-4.265266e-006
-4.406785e-006
-4.516030e-006
-4.596180e-006
-4.651127e-006
-4.685299e-006
-4.703216e-006
-4.708881e-006
-4.705355e-006
-4.694732e-006
-4.678259e-006
-4.656215e-006
-4.627508e-006
-4.589386e-006
-4.537618e-006
-4.467091e-006
-4.372445e-006
-4.248468e-006
-4.090326e-006
-3.894000e-006
-3.657210e-006
-3.380619e-006
-3.068643e-006
-2.729311e-006
-2.373321e-006
-2.012960e-006
-1.661226e-006
-1.330879e-006
-1.033008e-006
-7.754532e-007
-5.619450e-007
-3.923399e-007
-2.635071e-007
-1.701618e-007
-1.055531e-007
-6.238625e-008
-3.404167e-008
-1.557004e-008
-3.938679e-009
2.441131e-009
4.502660e-009
3.299412e-009
5.078542e-010
-1.736620e-009
-1.844881e-009
7.124621e-011
2.182567e-009
2.522928e-009
8.603332e-010
-1.087224e-009
-1.440370e-009
-8.019813e-011
1.364922e-009
1.356471e-009
-6.626501e-012
-1.328627e-009
-1.486372e-009
-5.686125e-010
5.784458e-010
1.267928e-009
-3.640170e-008
-1.514159e-008
8.718252e-009
1.635622e-008
5.982262e-009
-8.322484e-009
-1.238666e-008
-4.511185e-009
6.268154e-009
1.081722e-008
7.270329e-009
8.943413e-011
-5.035775e-009
-4.980251e-009
-2.985984e-010
5.354809e-009
7.087984e-009
1.384358e-009
-1.255075e-008
-3.442533e-008
-6.623460e-008
-1.141481e-007
-1.874483e-007
-2.962141e-007
-4.499188e-007
-6.568629e-007
-9.229394e-007
-1.249444e-006
-1.631370e-006
-2.057348e-006
-2.510773e-006
-2.971085e-006
-3.415096e-006
-3.819074e-006
-4.161675e-006
-4.426665e-006
-4.604322e-006
-4.691377e-006
-4.690259e-006
-4.608311e-006
-4.457008e-006
-4.250891e-006
-4.006242e-006
-3.739939e-006
-3.468816e-006
-3.209328e-006
-2.977016e-006
-2.785650e-006
-2.646424e-006
-2.567571e-006
-2.554238e-006
-2.608153e-006
-2.727002e-006
-2.903888e-006
-3.127284e-006
-3.381489e-006
-3.647311e-006
-3.902840e-006
-4.124438e-006
-4.288290e-006
-4.372684e-006
-4.360792e-006
-4.243264e-006
-4.019944e-006
-3.700407e-006
-3.303320e-006
-2.854584e-006
-2.384120e-006
-1.921660e-006
-1.492667e-006
-1.115617e-006
-8.010493e-007
-5.519261e-007
-3.647185e-007
-2.311247e-007
-1.403426e-007
-8.133517e-008
-4.435611e-008
-2.162771e-008
-7.667946e-009
5.440460e-010
4.081056e-009
3.556236e-009
6.495053e-010
-1.864631e-009
-1.847238e-009
4.595447e-010
2.710413e-009
2.743226e-009
6.453572e-010
-1.471676e-009
-1.671391e-009
-5.726373e-011
1.512791e-009
1.397733e-009
-2.373489e-010
-1.708311e-009
-1.537487e-009
1.261396e-010
1.699436e-009
-3.172236e-008
-8.294459e-009
1.535009e-008
1.768055e-008
5.648818e-010
-1.536007e-008
-1.412954e-008
3.647157e-010
1.196261e-008
1.065644e-008
9.086086e-010
-6.067559e-009
-4.349240e-009
2.926142e-009
8.602627e-009
7.528406e-009
-1.829624e-009
-1.935901e-008