# vtk DataFile Version 3.0
vtk output
ASCII
DATASET STRUCTURED_POINTS
DIMENSIONS 100 100 1
SPACING 1 1 1
ORIGIN 0 0 0
POINT_DATA 10000
SCALARS SFBox_profile double
LOOKUP_TABLE default 
9.439924e-003
9.439925e-003
9.439925e-003
9.439926e-003
9.439928e-003
9.439930e-003
9.439934e-003
9.439939e-003
9.439945e-003
9.439952e-003
9.439961e-003
9.439971e-003
9.439979e-003
9.439985e-003
9.439985e-003
9.439973e-003
9.439945e-003
9.439893e-003
9.439807e-003
9.439680e-003
9.439500e-003
9.439259e-003
9.438950e-003
9.438565e-003
9.438100e-003
9.437556e-003
9.436932e-003
9.436234e-003
9.435466e-003
9.434637e-003
9.433755e-003
9.432828e-003
9.431866e-003
9.430876e-003
9.429866e-003
9.428841e-003
9.427805e-003
9.426764e-003
9.425719e-003
9.424674e-003
9.423631e-003
9.422592e-003
9.421561e-003
9.420541e-003
9.419537e-003
9.418556e-003
9.417604e-003
9.416690e-003
9.415824e-003
9.415016e-003
9.414278e-003
9.413622e-003
9.413062e-003
9.412613e-003
9.412289e-003
9.412105e-003
9.412075e-003
9.412214e-003
9.412534e-003
9.413045e-003
9.413754e-003
9.414664e-003
9.415772e-003
9.417069e-003
9.418540e-003
9.420163e-003
9.421909e-003
9.423742e-003
9.425620e-003
9.427501e-003
9.429339e-003
9.431092e-003
9.432720e-003
9.434193e-003
9.435488e-003
9.436593e-003
9.437507e-003
9.438237e-003
9.438800e-003
9.439217e-003
9.439513e-003
9.439712e-003
9.439837e-003
9.439910e-003
9.439947e-003
9.439962e-003
9.439963e-003
9.439958e-003
9.439951e-003
9.439943e-003
9.439936e-003
9.439931e-003
9.439927e-003
9.439924e-003
9.439922e-003
9.439921e-003
9.439921e-003
9.439920e-003
9.439920e-003
9.439920e-003
9.439924e-003
9.439925e-003
9.439925e-003
9.439926e-003
9.439928e-003
9.439930e-003
9.439934e-003
9.439939e-003
9.439945e-003
9.439952e-003
9.439961e-003
9.439971e-003
9.439979e-003
9.439985e-003
9.439985e-003
9.439973e-003
9.439945e-003
9.439893e-003
9.439807e-003
9.439680e-003
9.439500e-003
9.439259e-003
9.438950e-003
9.438565e-003
9.438100e-003
9.437556e-003
9.436932e-003
9.436234e-003
9.435466e-003
9.434637e-003
9.433755e-003
9.432828e-003
9.431866e-003
9.430876e-003
9.429866e-003
9.428841e-003
9.427805e-003
9.426764e-003
9.425719e-003
9.424674e-003
9.423631e-003
9.422592e-003
9.421561e-003
9.420541e-003
9.419537e-003
9.418556e-003
9.417604e-003
9.416690e-003
9.415824e-003
9.415016e-003
9.414278e-003
9.413622e-003
9.413062e-003
9.412613e-003
9.412289e-003
9.412105e-003
9.412075e-003
9.412214e-003
9.412534e-003
9.413045e-003
9.413754e-003
9.414664e-003
9.415772e-003
9.417069e-003
9.418540e-003
9.420163e-003
9.421909e-003
9.423742e-003
9.425620e-003
9.427501e-003
9.429339e-003
9.431092e-003
9.432720e-003
9.434193e-003
9.435488e-003
9.436593e-003
9.437507e-003
9.438237e-003
9.438800e-003
9.439217e-003
9.439513e-003
9.439712e-003
9.439837e-003
9.439910e-003
9.439947e-003
9.439962e-003
9.439963e-003
9.439958e-003
9.439951e-003
9.439943e-003
9.439936e-003
9.439931e-003
9.439927e-003
9.439924e-003
9.439922e-003
9.439921e-003
9.439921e-003
9.439920e-003
9.439920e-003
9.439920e-003
9.439925e-003
9.439925e-003
9.439926e-003
9.439928e-003
9.439930e-003
9.439933e-003
9.439937e-003
9.439942e-003
9.439949e-003
9.439957e-003
9.439965e-003
9.439971e-003
9.439973e-003
9.439965e-003
9.439943e-003
9.439897e-003
9.439817e-003
9.439690e-003
9.439501e-003
9.439236e-003
9.438879e-003
9.438416e-003
9.437836e-003
9.437131e-003
9.436298e-003
9.435336e-003
9.434252e-003
9.433054e-003
9.431755e-003
9.430368e-003
9.428909e-003
9.427394e-003
9.425835e-003
9.424247e-003
9.422641e-003
9.421025e-003
9.419406e-003
9.417791e-003
9.416183e-003
9.414586e-003
9.413003e-003
9.411437e-003
9.409892e-003
9.408375e-003
9.406890e-003
9.405447e-003
9.404055e-003
9.402725e-003
9.401472e-003
9.400308e-003
9.399250e-003
9.398315e-003
9.397522e-003
9.396890e-003
9.396439e-003
9.396189e-003
9.396161e-003
9.396376e-003
9.396850e-003
9.397599e-003
9.398635e-003
9.399964e-003
9.401587e-003
9.403494e-003
9.405669e-003
9.408084e-003
9.410701e-003
9.413473e-003
9.416343e-003
9.419247e-003
9.422119e-003
9.424890e-003
9.427499e-003
9.429890e-003
9.432023e-003
9.433871e-003
9.435424e-003
9.436687e-003
9.437681e-003
9.438435e-003
9.438984e-003
9.439368e-003
9.439623e-003
9.439783e-003
9.439877e-003
9.439926e-003
9.439948e-003
9.439953e-003
9.439951e-003
9.439945e-003
9.439939e-003
9.439933e-003
9.439929e-003
9.439926e-003
9.439923e-003
9.439922e-003
9.439921e-003
9.439920e-003
9.439920e-003
9.439920e-003
9.439926e-003
9.439927e-003
9.439928e-003
9.439930e-003
9.439934e-003
9.439938e-003
9.439943e-003
9.439950e-003
9.439957e-003
9.439964e-003
9.439967e-003
9.439961e-003
9.439941e-003
9.439896e-003
9.439812e-003
9.439670e-003
9.439449e-003
9.439122e-003
9.438660e-003
9.438035e-003
9.437218e-003
9.436185e-003
9.434918e-003
9.433408e-003
9.431654e-003
9.429663e-003
9.427454e-003
9.425050e-003
9.422481e-003
9.419777e-003
9.416972e-003
9.414096e-003
9.411177e-003
9.408240e-003
9.405304e-003
9.402386e-003
9.399497e-003
9.396646e-003
9.393839e-003
9.391082e-003
9.388377e-003
9.385731e-003
9.383149e-003
9.380638e-003
9.378207e-003
9.375868e-003
9.373635e-003
9.371523e-003
9.369550e-003
9.367737e-003
9.366106e-003
9.364679e-003
9.363483e-003
9.362545e-003
9.361892e-003
9.361554e-003
9.361560e-003
9.361939e-003
9.362720e-003
9.363928e-003
9.365586e-003
9.367709e-003
9.370308e-003
9.373381e-003
9.376915e-003
9.380883e-003
9.385240e-003
9.389923e-003
9.394851e-003
9.399925e-003
9.405034e-003
9.410058e-003
9.414877e-003
9.419380e-003
9.423474e-003
9.427088e-003
9.430183e-003
9.432751e-003
9.434810e-003
9.436406e-003
9.437598e-003
9.438455e-003
9.439045e-003
9.439434e-003
9.439677e-003
9.439819e-003
9.439896e-003
9.439932e-003
9.439945e-003
9.439947e-003
9.439943e-003
9.439937e-003
9.439932e-003
9.439928e-003
9.439925e-003
9.439923e-003
9.439922e-003
9.439921e-003
9.439920e-003
9.439920e-003
9.439929e-003
9.439930e-003
9.439932e-003
9.439935e-003
9.439940e-003
9.439946e-003
9.439953e-003
9.439960e-003
9.439965e-003
9.439965e-003
9.439952e-003
9.439916e-003
9.439840e-003
9.439701e-003
9.439470e-003
9.439106e-003
9.438564e-003
9.437789e-003
9.436726e-003
9.435317e-003
9.433514e-003
9.431276e-003
9.428580e-003
9.425420e-003
9.421812e-003
9.417788e-003
9.413399e-003
9.408707e-003
9.403779e-003
9.398688e-003
9.393499e-003
9.388275e-003
9.383069e-003
9.377924e-003
9.372874e-003
9.367944e-003
9.363151e-003
9.358507e-003
9.354019e-003
9.349692e-003
9.345532e-003
9.341543e-003
9.337731e-003
9.334103e-003
9.330668e-003
9.327437e-003
9.324423e-003
9.321640e-003
9.319104e-003
9.316832e-003
9.314843e-003
9.313157e-003
9.311796e-003
9.310783e-003
9.310143e-003
9.309901e-003
9.310087e-003
9.310731e-003
9.311865e-003
9.313526e-003
9.315750e-003
9.318578e-003
9.322048e-003
9.326197e-003
9.331052e-003
9.336628e-003
9.342917e-003
9.349882e-003
9.357448e-003
9.365500e-003
9.373880e-003
9.382393e-003
9.390821e-003
9.398936e-003
9.406523e-003
9.413400e-003
9.419433e-003
9.424550e-003
9.428743e-003
9.432058e-003
9.434583e-003
9.436436e-003
9.437744e-003
9.438628e-003
9.439200e-003
9.439552e-003
9.439756e-003
9.439866e-003
9.439919e-003
9.439940e-003
9.439945e-003
9.439942e-003
9.439937e-003
9.439932e-003
9.439928e-003
9.439925e-003
9.439923e-003
9.439922e-003
9.439921e-003
9.439920e-003
9.439933e-003
9.439935e-003
9.439938e-003
9.439943e-003
9.439949e-003
9.439956e-003
9.439964e-003
9.439968e-003
9.439965e-003
9.439943e-003
9.439888e-003
9.439774e-003
9.439568e-003
9.439219e-003
9.438664e-003
9.437822e-003
9.436599e-003
9.434892e-003
9.432595e-003
9.429610e-003
9.425856e-003
9.421285e-003
9.415887e-003
9.409692e-003
9.402775e-003
9.395248e-003
9.387250e-003
9.378933e-003
9.370453e-003
9.361959e-003
9.353583e-003
9.345436e-003
9.337604e-003
9.330152e-003
9.323121e-003
9.316539e-003
9.310419e-003
9.304765e-003
9.299579e-003
9.294860e-003
9.290607e-003
9.286817e-003
9.283487e-003
9.280613e-003
9.278186e-003
9.276192e-003
9.274617e-003
9.273438e-003
9.272629e-003
9.272163e-003
9.272004e-003
9.272117e-003
9.272464e-003
9.273002e-003
9.273693e-003
9.274496e-003
9.275378e-003
9.276315e-003
9.277299e-003
9.278346e-003
9.279498e-003
9.280838e-003
9.282487e-003
9.284608e-003
9.287399e-003
9.291075e-003
9.295851e-003
9.301911e-003
9.309376e-003
9.318271e-003
9.328507e-003
9.339867e-003
9.352013e-003
9.364514e-003
9.376892e-003
9.388676e-003
9.399457e-003
9.408934e-003
9.416938e-003
9.423432e-003
9.428496e-003
9.432290e-003
9.435021e-003
9.436908e-003
9.438158e-003
9.438949e-003
9.439426e-003
9.439697e-003
9.439841e-003
9.439909e-003
9.439937e-003
9.439944e-003
9.439942e-003
9.439937e-003
9.439932e-003
9.439928e-003
9.439925e-003
9.439923e-003
9.439922e-003
9.439921e-003
9.439940e-003
9.439942e-003
9.439947e-003
9.439953e-003
9.439961e-003
9.439968e-003
9.439972e-003
9.439965e-003
9.439935e-003
9.439859e-003
9.439704e-003
9.439419e-003
9.438928e-003
9.438134e-003
9.436906e-003
9.435089e-003
9.432504e-003
9.428964e-003
9.424292e-003
9.418343e-003
9.411033e-003
9.402357e-003
9.392410e-003
9.381381e-003
9.369545e-003
9.357238e-003
9.344829e-003
9.332683e-003
9.321134e-003
9.310468e-003
9.300907e-003
9.292605e-003
9.285657e-003
9.280105e-003
9.275947e-003
9.273159e-003
9.271700e-003
9.271529e-003
9.272609e-003
9.274906e-003
9.278392e-003
9.283033e-003
9.288786e-003
9.295587e-003
9.303350e-003
9.311961e-003
9.321275e-003
9.331120e-003
9.341297e-003
9.351580e-003
9.361720e-003
9.371448e-003
9.380477e-003
9.388502e-003
9.395208e-003
9.400278e-003
9.403405e-003
9.404310e-003
9.402769e-003
9.398639e-003
9.391894e-003
9.382665e-003
9.371263e-003
9.358200e-003
9.344193e-003
9.330134e-003
9.317038e-003
9.305958e-003
9.297883e-003
9.293622e-003
9.293690e-003
9.298229e-003
9.306960e-003
9.319208e-003
9.333985e-003
9.350124e-003
9.366444e-003
9.381910e-003
9.395743e-003
9.407479e-003
9.416956e-003
9.424260e-003
9.429644e-003
9.433445e-003
9.436014e-003
9.437677e-003
9.438706e-003
9.439311e-003
9.439647e-003
9.439821e-003
9.439903e-003
9.439935e-003
9.439944e-003
9.439942e-003
9.439937e-003
9.439931e-003
9.439927e-003
9.439924e-003
9.439923e-003
9.439922e-003
9.439950e-003
9.439953e-003
9.439958e-003
9.439966e-003
9.439974e-003
9.439977e-003
9.439967e-003
9.439929e-003
9.439834e-003
9.439637e-003
9.439267e-003
9.438621e-003
9.437551e-003
9.435864e-003
9.433313e-003
9.429612e-003
9.424452e-003
9.417535e-003
9.408628e-003
9.397617e-003
9.384569e-003
9.369772e-003
9.353749e-003
9.337235e-003
9.321111e-003
9.306326e-003
9.293801e-003
9.284344e-003
9.278597e-003
9.276998e-003
9.279786e-003
9.287017e-003
9.298597e-003
9.314328e-003
9.333949e-003
9.357181e-003
9.383762e-003
9.413467e-003
9.446121e-003
9.481588e-003
9.519747e-003
9.560467e-003
9.603575e-003
9.648826e-003
9.695887e-003
9.744321e-003
9.793588e-003
9.843048e-003
9.891966e-003
9.939522e-003
9.984817e-003
1.002688e-002
1.006468e-002
1.009711e-002
1.012302e-002
1.014126e-002
1.015065e-002
1.015010e-002
1.013864e-002
1.011553e-002
1.008039e-002
1.003327e-002
9.974821e-003
9.906333e-003
9.829824e-003
9.747999e-003
9.664142e-003
9.581929e-003
9.505142e-003
9.437327e-003
9.381422e-003
9.339415e-003
9.312086e-003
9.298914e-003
9.298165e-003
9.307187e-003
9.322843e-003
9.341991e-003
9.361903e-003
9.380540e-003
9.396644e-003
9.409672e-003
9.419626e-003
9.426851e-003
9.431850e-003
9.435154e-003
9.437242e-003
9.438501e-003
9.439223e-003
9.439614e-003
9.439811e-003
9.439901e-003
9.439935e-003
9.439943e-003
9.439941e-003
9.439936e-003
9.439931e-003
9.439927e-003
9.439924e-003
9.439923e-003
9.439964e-003
9.439967e-003
9.439973e-003
9.439980e-003
9.439983e-003
9.439972e-003
9.439927e-003
9.439816e-003
9.439582e-003
9.439132e-003
9.438329e-003
9.436971e-003
9.434779e-003
9.431392e-003
9.426377e-003
9.419252e-003
9.409557e-003
9.396951e-003
9.381347e-003
9.363056e-003
9.342915e-003
9.322343e-003
9.303308e-003
9.288177e-003
9.279485e-003
9.279670e-003
9.290814e-003
9.314459e-003
9.351512e-003
9.402244e-003
9.466364e-003
9.543143e-003
9.631554e-003
9.730410e-003
9.838498e-003
9.954688e-003
1.007802e-002
1.020772e-002
1.034325e-002
1.048417e-002
1.063016e-002
1.078084e-002
1.093572e-002
1.109407e-002
1.125494e-002
1.141708e-002
1.157894e-002
1.173870e-002
1.189429e-002
1.204344e-002
1.218364e-002
1.231221e-002
1.242630e-002
1.252287e-002
1.259872e-002
1.265058e-002
1.267511e-002
1.266908e-002
1.262952e-002
1.255396e-002
1.244070e-002
1.228918e-002
1.210025e-002
1.187655e-002
1.162267e-002
1.134524e-002
1.105282e-002
1.075557e-002
1.046457e-002
1.019106e-002
9.945372e-003
9.735894e-003
9.568082e-003
9.443819e-003
9.361275e-003
9.315339e-003
9.298592e-003
9.302596e-003
9.319191e-003
9.341516e-003
9.364566e-003
9.385264e-003
9.402171e-003
9.415011e-003
9.424191e-003
9.430415e-003
9.434435e-003
9.436911e-003
9.438365e-003
9.439176e-003
9.439602e-003
9.439811e-003
9.439903e-003
9.439936e-003
9.439943e-003
9.439941e-003
9.439935e-003
9.439930e-003
9.439927e-003
9.439925e-003
9.439982e-003
9.439985e-003
9.439990e-003
9.439992e-003
9.439979e-003
9.439931e-003
9.439810e-003
9.439547e-003
9.439032e-003
9.438091e-003
9.436460e-003
9.433767e-003
9.429510e-003
9.423068e-003
9.413740e-003
9.400857e-003
9.383973e-003
9.363159e-003
9.339351e-003
9.314695e-003
9.292778e-003
9.278612e-003
9.278331e-003
9.298606e-003
9.345884e-003
9.425642e-003
9.541779e-003
9.696299e-003
9.889275e-003
1.011908e-002
1.038277e-002
1.067656e-002
1.099624e-002
1.133758e-002
1.169666e-002
1.207005e-002
1.245503e-002
1.284957e-002
1.325226e-002
1.366216e-002
1.407850e-002
1.450048e-002
1.492698e-002
1.535634e-002
1.578630e-002
1.621392e-002
1.663559e-002
1.704709e-002
1.744367e-002
1.782011e-002
1.817078e-002
1.848961e-002
1.877018e-002
1.900561e-002
1.918870e-002
1.931184e-002
1.936727e-002
1.934718e-002
1.924411e-002
1.905141e-002
1.876382e-002
1.837821e-002
1.789440e-002
1.731595e-002
1.665089e-002
1.591222e-002
1.511806e-002
1.429131e-002
1.345870e-002
1.264921e-002
1.189183e-002
1.121277e-002
1.063263e-002
1.016385e-002
9.809333e-003
9.562375e-003
9.408359e-003
9.327631e-003
9.298981e-003
9.302810e-003
9.323318e-003
9.349403e-003
9.374416e-003
9.395204e-003
9.410920e-003
9.421985e-003
9.429329e-003
9.433956e-003
9.436732e-003
9.438317e-003
9.439176e-003
9.439614e-003
9.439821e-003
9.439908e-003
9.439938e-003
9.439943e-003
9.439940e-003
9.439934e-003
9.439930e-003
9.439928e-003
9.440003e-003
9.440005e-003
9.440005e-003
9.439991e-003
9.439943e-003
9.439817e-003
9.439540e-003
9.438983e-003
9.437940e-003
9.436087e-003
9.432954e-003
9.427883e-003
9.420035e-003
9.408441e-003
9.392181e-003
9.370727e-003
9.344528e-003
9.315787e-003
9.289349e-003
9.273404e-003
9.279721e-003
9.323118e-003
9.420126e-003
9.587053e-003
9.837857e-003
1.018236e-002
1.062513e-002
1.116529e-002
1.179706e-002
1.251094e-002
1.329506e-002
1.413658e-002
1.502274e-002
1.594180e-002
1.688360e-002
1.783989e-002
1.880448e-002
1.977314e-002
2.074324e-002
2.171325e-002
2.268213e-002
2.364869e-002
2.461107e-002
2.556632e-002
2.651024e-002
2.743728e-002
2.834066e-002
2.921253e-002
3.004410e-002
3.082582e-002
3.154745e-002
3.219808e-002
3.276606e-002
3.323900e-002
3.360364e-002
3.384589e-002
3.395087e-002
3.390324e-002
3.368754e-002
3.328897e-002
3.269434e-002
3.189332e-002
3.087998e-002
2.965452e-002
2.822508e-002
2.660944e-002
2.483633e-002
2.294614e-002
2.099053e-002
1.903058e-002
1.713316e-002
1.536538e-002
1.378754e-002
1.244582e-002
1.136610e-002
1.055083e-002
9.980037e-003
9.616247e-003
9.412341e-003
9.319990e-003
9.296620e-003
9.309476e-003
9.336560e-003
9.365211e-003
9.389550e-003
9.407858e-003
9.420527e-003
9.428745e-003
9.433790e-003
9.436733e-003
9.438366e-003
9.439224e-003
9.439647e-003
9.439839e-003
9.439916e-003
9.439940e-003
9.439943e-003
9.439939e-003
9.439935e-003
9.439932e-003
9.440027e-003
9.440024e-003
9.440009e-003
9.439961e-003
9.439838e-003
9.439561e-003
9.438992e-003
9.437897e-003
9.435905e-003
9.432451e-003
9.426722e-003
9.417646e-003
9.403950e-003
9.384418e-003
9.358458e-003
9.327152e-003
9.294842e-003
9.271127e-003
9.272779e-003
9.324832e-003
9.460010e-003
9.716053e-003
1.013118e-002
1.073865e-002
1.156168e-002
1.261019e-002
1.387974e-002
1.535292e-002
1.700246e-002
1.879519e-002
2.069586e-002
2.267042e-002
2.468819e-002
2.672323e-002
2.875492e-002
3.076803e-002
3.275237e-002
3.470209e-002
3.661466e-002
3.848962e-002
4.032732e-002
4.212772e-002
4.388948e-002
4.560936e-002
4.728199e-002
4.889992e-002
5.045387e-002
5.193310e-002
5.332570e-002
5.461888e-002
5.579902e-002
5.685167e-002
5.776139e-002
5.851149e-002
5.908381e-002
5.945843e-002
5.961357e-002
5.952557e-002
5.916914e-002
5.851791e-002
5.754538e-002
5.622637e-002
5.453905e-002
5.246754e-002
5.000528e-002
4.715883e-002
4.395222e-002
4.043108e-002
3.666613e-002
3.275447e-002
2.881749e-002
2.499378e-002
2.142647e-002
1.824617e-002
1.555260e-002
1.339956e-002
1.178796e-002
1.066951e-002
9.960112e-003
9.558871e-003
9.366922e-003
9.301197e-003
9.300866e-003
9.327086e-003
9.358581e-003
9.385878e-003
9.406226e-003
9.420024e-003
9.428752e-003
9.433963e-003
9.436915e-003
9.438504e-003
9.439311e-003
9.439695e-003
9.439862e-003
9.439925e-003
9.439943e-003
9.439943e-003
9.439940e-003
9.439937e-003
9.440046e-003
9.440032e-003
9.439987e-003
9.439872e-003
9.439609e-003
9.439057e-003
9.437968e-003
9.435938e-003
9.432326e-003
9.426186e-003
9.416216e-003
9.400823e-003
9.378446e-003
9.348396e-003
9.312559e-003
9.278255e-003
9.262245e-003
9.295189e-003
9.425025e-003
9.717210e-003
1.025017e-002
1.110573e-002
1.235618e-002
1.405143e-002
1.620966e-002
1.881406e-002
2.181610e-002
2.514377e-002
2.871227e-002
3.243451e-002
3.622942e-002
4.002739e-002
4.377282e-002
4.742436e-002
5.095399e-002
5.434517e-002
5.759078e-002
6.069078e-002
6.364988e-002
6.647522e-002
6.917434e-002
7.175354e-002
7.421685e-002
7.656543e-002
7.879762e-002
8.090926e-002
8.289423e-002
8.474500e-002
8.645312e-002
8.800947e-002
8.940432e-002
9.062715e-002
9.166637e-002
9.250882e-002
9.313924e-002
9.353965e-002
9.368875e-002
9.356130e-002
9.312753e-002
9.235282e-002
9.119749e-002
8.961709e-002
8.756336e-002
8.498614e-002
8.183677e-002
7.807336e-002
7.366857e-002
6.861988e-002
6.296201e-002
5.677966e-002
5.021747e-002
4.348235e-002
3.683342e-002
3.055628e-002
2.492355e-002
2.014974e-002
1.635390e-002
1.354266e-002
1.162022e-002
1.042082e-002
9.751484e-003
9.430642e-003
9.312791e-003
9.296769e-003
9.321435e-003
9.355150e-003
9.384629e-003
9.406247e-003
9.420550e-003
9.429347e-003
9.434447e-003
9.437249e-003
9.438708e-003
9.439424e-003
9.439751e-003
9.439887e-003
9.439934e-003
9.439945e-003
9.439945e-003
9.439943e-003
9.440053e-003
9.440017e-003
9.439915e-003
9.439677e-003
9.439168e-003
9.438140e-003
9.436176e-003
9.432593e-003
9.426345e-003
9.415937e-003
9.399465e-003
9.374977e-003
9.341568e-003
9.301839e-003
9.266463e-003
9.261282e-003
9.336264e-003
9.573799e-003
1.009204e-002
1.103866e-002
1.257265e-002
1.483639e-002
1.792500e-002
2.186269e-002
2.659377e-002
3.199105e-002
3.787783e-002
4.405612e-002
5.033331e-002
5.654172e-002
6.254935e-002
6.826254e-002
7.362306e-002
7.860224e-002
8.319411e-002
8.740880e-002
9.126687e-002
9.479461e-002
9.802035e-002
1.009718e-001
1.036743e-001
1.061496e-001
1.084157e-001
1.104870e-001
1.123747e-001
1.140878e-001
1.156335e-001
1.170177e-001
1.182459e-001
1.193224e-001
1.202510e-001
1.210347e-001
1.216749e-001
1.221714e-001
1.225218e-001
1.227207e-001
1.227589e-001
1.226224e-001
1.222911e-001
1.217372e-001
1.209233e-001
1.198001e-001
1.183041e-001
1.163552e-001
1.138558e-001
1.106908e-001
1.067325e-001
1.018518e-001
9.593647e-002
8.892081e-002
8.082115e-002
7.177336e-002
6.205903e-002
5.210425e-002
4.243695e-002
3.360189e-002
2.605330e-002
2.006181e-002
1.567179e-002
1.272375e-002
1.092726e-002
9.950334e-003
9.492505e-003
9.324509e-003
9.295516e-003
9.319645e-003
9.355214e-003
9.385948e-003
9.407916e-003
9.422026e-003
9.430441e-003
9.435168e-003
9.437683e-003
9.438948e-003
9.439546e-003
9.439807e-003
9.439909e-003
9.439942e-003
9.439949e-003
9.439949e-003
9.440030e-003
9.439955e-003
9.439754e-003
9.439307e-003
9.438384e-003
9.436579e-003
9.433202e-003
9.427162e-003
9.416834e-003
9.400048e-003
9.374433e-003
9.338673e-003
9.295637e-003
9.258824e-003
9.263422e-003
9.381977e-003
9.741429e-003
1.053398e-002
1.201140e-002
1.445431e-002
1.811673e-002
2.315900e-002
2.959208e-002
3.725612e-002
4.584301e-002
5.495454e-002
6.417458e-002
7.313223e-002
8.154166e-002
8.921592e-002
9.606013e-002
1.020536e-001
1.072283e-001
1.116492e-001
1.153979e-001
1.185604e-001
1.212189e-001
1.234482e-001
1.253131e-001
1.268689e-001
1.281624e-001
1.292334e-001
1.301153e-001
1.308372e-001
1.314241e-001
1.318975e-001
1.322761e-001
1.325758e-001
1.328100e-001
1.329901e-001
1.331249e-001
1.332218e-001
1.332863e-001
1.333223e-001
1.333321e-001
1.333166e-001
1.332748e-001
1.332032e-001
1.330958e-001
1.329426e-001
1.327285e-001
1.324308e-001
1.320164e-001
1.314361e-001
1.306177e-001
1.294556e-001
1.277992e-001
1.254424e-001
1.221200e-001
1.175207e-001
1.113272e-001
1.032905e-001
9.333599e-002
8.167366e-002
6.886031e-002
5.575893e-002
4.337503e-002
3.261373e-002
2.405641e-002
1.785519e-002
1.377943e-002
1.136797e-002
1.010197e-002
9.531114e-003
9.329655e-003
9.295740e-003
9.321660e-003
9.358757e-003
9.389675e-003
9.411003e-003
9.424241e-003
9.431877e-003
9.436026e-003
9.438159e-003
9.439193e-003
9.439663e-003
9.439858e-003
9.439929e-003
9.439951e-003
9.439955e-003
9.439956e-003
9.439814e-003
9.439449e-003
9.438663e-003
9.437083e-003
9.434058e-003
9.428507e-003
9.418760e-003
9.402471e-003
9.376875e-003
9.340027e-003
9.294339e-003
9.254562e-003
9.262964e-003
9.413290e-003
9.880717e-003
1.094697e-002
1.300114e-002
1.649488e-002
2.184289e-002
2.928771e-002
3.877849e-002
4.992351e-002
6.204967e-002
7.435020e-002
8.605960e-002
9.659092e-002
1.055996e-001
1.129761e-001
1.187916e-001
1.232285e-001
1.265185e-001
1.288990e-001
1.305860e-001
1.317605e-001
1.325649e-001
1.331062e-001
1.334620e-001
1.336885e-001
1.338267e-001
1.339067e-001
1.339511e-001
1.339765e-001
1.339943e-001
1.340117e-001
1.340321e-001
1.340563e-001
1.340836e-001
1.341121e-001
1.341407e-001
1.341683e-001
1.341953e-001
1.342227e-001
1.342526e-001
1.342873e-001
1.343291e-001
1.343797e-001
1.344391e-001
1.345051e-001
1.345718e-001
1.346295e-001
1.346635e-001
1.346542e-001
1.345784e-001
1.344102e-001
1.341222e-001
1.336810e-001
1.330344e-001
1.320823e-001
1.306285e-001
1.283230e-001
1.246219e-001
1.188294e-001
1.102852e-001
9.868882e-002
8.441174e-002
6.858740e-002
5.285422e-002
3.884102e-002
2.766000e-002
1.966569e-002
1.454799e-002
1.162739e-002
1.016003e-002
9.532077e-003
9.325399e-003
9.297392e-003
9.327487e-003
9.365462e-003
9.395357e-003
9.415102e-003
9.426900e-003
9.433467e-003
9.436913e-003
9.438621e-003
9.439418e-003
9.439764e-003
9.439900e-003
9.439947e-003
9.439960e-003
9.439795e-003
9.439550e-003
9.438926e-003
9.437616e-003
9.435036e-003
9.430183e-003
9.421433e-003
9.406386e-003
9.381977e-003
9.345525e-003
9.298201e-003
9.253761e-003
9.256842e-003
9.415089e-003
9.944796e-003
1.121786e-002
1.378014e-002
1.829811e-002
2.540063e-002
3.543171e-002
4.820582e-002
6.290697e-002
7.823097e-002
9.273752e-002
1.052498e-001
1.151198e-001
1.222726e-001
1.270637e-001
1.300565e-001
1.318247e-001
1.328356e-001
1.334168e-001
1.337701e-001
1.340026e-001
1.341587e-001
1.342483e-001
1.342671e-001
1.342094e-001
1.340734e-001
1.338619e-001
1.335805e-001
1.332360e-001
1.328352e-001
1.323846e-001
1.318906e-001
1.313605e-001
1.308026e-001
1.302271e-001
1.296462e-001
1.290738e-001
1.285255e-001
1.280184e-001
1.275703e-001
1.272002e-001
1.269275e-001
1.267721e-001
1.267540e-001
1.268922e-001
1.272042e-001
1.277038e-001
1.283985e-001
1.292861e-001
1.303498e-001
1.315515e-001
1.328256e-001
1.340711e-001
1.351484e-001
1.358849e-001
1.361023e-001
1.356719e-001
1.345716e-001
1.328566e-001
1.304411e-001
1.267590e-001
1.206403e-001
1.107661e-001
9.660665e-002
7.913312e-002
6.062759e-002
4.369073e-002
3.017593e-002
2.070027e-002
1.483472e-002
1.163157e-002
1.010593e-002
9.495193e-003
9.314379e-003
9.301754e-003
9.337053e-003
9.374693e-003
9.402325e-003
9.419708e-003
9.429683e-003
9.435032e-003
9.437738e-003
9.439029e-003
9.439606e-003
9.439845e-003
9.439934e-003
9.439961e-003
9.439506e-003
9.439103e-003
9.438095e-003
9.436009e-003
9.431970e-003
9.424493e-003
9.411264e-003
9.389085e-003
9.354598e-003
9.307232e-003
9.257575e-003
9.246783e-003
9.384379e-003
9.908864e-003
1.126183e-002
1.413835e-002
1.944324e-002
2.807498e-002
4.052297e-002
5.641416e-002
7.429920e-002
9.194642e-002
1.071168e-001
1.184145e-001
1.256985e-001
1.298355e-001
1.320425e-001
1.333013e-001
1.341245e-001
1.346384e-001
1.347936e-001
1.345330e-001
1.338557e-001
1.328103e-001
1.314673e-001
1.298990e-001
1.281697e-001
1.263324e-001
1.244290e-001
1.224907e-001
1.205408e-001
1.185960e-001
1.166698e-001
1.147735e-001
1.129184e-001
1.111163e-001
1.093803e-001
1.077244e-001
1.061637e-001
1.047139e-001
1.033914e-001
1.022136e-001
1.011983e-001
1.003653e-001
9.973609e-002
9.933489e-002
9.918917e-002
9.933018e-002
9.979328e-002
1.006179e-001
1.018468e-001
1.035249e-001
1.056954e-001
1.083949e-001
1.116433e-001
1.154283e-001
1.196805e-001
1.242384e-001
1.288064e-001
1.329221e-001
1.359768e-001
1.373554e-001
1.367414e-001
1.344075e-001
1.309285e-001
1.260451e-001
1.179659e-001
1.047015e-001
8.635340e-002
6.566238e-002
4.634773e-002
3.109313e-002
2.071513e-002
1.456398e-002
1.137973e-002
9.957473e-003
9.434501e-003
9.303156e-003
9.310453e-003
9.349896e-003
9.385518e-003
9.409801e-003
9.424320e-003
9.432310e-003
9.436433e-003
9.438440e-003
9.439359e-003
9.439752e-003
9.439906e-003
9.439956e-003
9.439037e-003
9.438406e-003
9.436844e-003
9.433658e-003
9.427579e-003
9.416507e-003
9.397328e-003
9.366245e-003
9.320913e-003
9.267444e-003
9.238488e-003
9.332290e-003
9.783030e-003
1.106115e-002
1.396811e-002
1.963275e-002
2.926994e-002
4.361041e-002
6.214284e-002
8.266530e-002
1.017763e-001
1.164093e-001
1.254804e-001
1.302095e-001
1.327262e-001
1.343810e-001
1.353086e-001
1.351244e-001
1.336221e-001
1.309317e-001
1.273720e-001
1.232894e-001
1.189731e-001
1.146307e-001
1.103953e-001
1.063426e-001
1.025090e-001
9.890537e-002
9.552722e-002
9.236197e-002
8.939380e-002
8.660715e-002
8.398874e-002
8.152871e-002
7.922082e-002
7.706219e-002
7.505273e-002
7.319445e-002
7.149088e-002
6.994669e-002
6.856762e-002
6.736054e-002
6.633391e-002
6.549830e-002
6.486716e-002
6.445767e-002
6.429174e-002
6.439712e-002
6.480868e-002
6.556990e-002
6.673439e-002
6.836775e-002
7.054913e-002
7.337246e-002
7.694616e-002
8.138935e-002
8.682059e-002
9.333235e-002
1.009409e-001
1.094993e-001
1.185697e-001
1.272795e-001
1.342774e-001
1.380358e-001
1.377383e-001
1.342277e-001
1.291107e-001
1.217618e-001
1.091054e-001
8.995878e-002
6.741916e-002
4.638327e-002
3.022453e-002
1.970828e-002
1.380880e-002
1.094446e-002
9.760431e-003
9.371210e-003
9.298587e-003
9.324214e-003
9.364983e-003
9.396840e-003
9.417044e-003
9.428527e-003
9.434583e-003
9.437587e-003
9.438991e-003
9.439607e-003
9.439856e-003
9.439941e-003
9.438328e-003
9.437381e-003
9.435058e-003
9.430374e-003
9.421559e-003
9.405786e-003
9.379171e-003
9.338021e-003
9.283894e-003
9.238354e-003
9.278394e-003
9.607863e-003
1.067471e-002
1.331190e-002
1.880551e-002
2.869546e-002
4.409636e-002
6.458361e-002
8.731124e-002
1.075831e-001
1.214819e-001
1.287582e-001
1.324005e-001
1.348260e-001
1.358286e-001
1.342611e-001
1.298766e-001
1.233870e-001
1.157917e-001
1.079247e-001
1.003277e-001
9.328832e-002
8.692129e-002
8.123871e-002
7.619913e-002
7.173751e-002
6.778201e-002
6.426273e-002
6.111595e-002
5.828607e-002
5.572632e-002
5.339867e-002
5.127321e-002
4.932723e-002
4.754399e-002
4.591149e-002
4.442134e-002
4.306771e-002
4.184670e-002
4.075583e-002
3.979386e-002
3.896083e-002
3.825833e-002
3.768985e-002
3.726128e-002
3.698161e-002
3.686370e-002
3.692528e-002
3.719020e-002
3.769013e-002
3.846671e-002
3.957444e-002
4.108453e-002
4.308998e-002
4.571198e-002
4.910749e-002
5.347648e-002
5.906498e-002
6.615500e-002
7.502425e-002
8.584691e-002
9.849784e-002
1.122399e-001
1.253742e-001
1.352074e-001
1.390718e-001
1.366791e-001
1.309719e-001
1.234059e-001
1.104855e-001
8.999337e-002
6.574757e-002
4.379667e-002
2.775257e-002
1.791955e-002
1.276164e-002