# vtk DataFile Version 3.0
vtk output
ASCII
DATASET STRUCTURED_POINTS
DIMENSIONS 100 100 1
SPACING 1 1 1
ORIGIN 0 0 0
POINT_DATA 10000
SCALARS SFBox_profile double
LOOKUP_TABLE default 
9.439919e-003
9.439920e-003
9.439920e-003
9.439920e-003
9.439921e-003
9.439920e-003
9.439920e-003
9.439920e-003
9.439920e-003
9.439920e-003
9.439920e-003
9.439920e-003
9.439920e-003
9.439920e-003
9.439920e-003
9.439920e-003
9.439920e-003
9.439920e-003
9.439920e-003
9.439920e-003
9.439920e-003
9.439920e-003
9.439920e-003
9.439920e-003
9.439920e-003
9.439920e-003
9.439920e-003
9.439920e-003
9.439920e-003
9.439920e-003
9.439920e-003
9.439920e-003
9.439920e-003
9.439920e-003
9.439920e-003
9.439921e-003
9.439921e-003
9.439921e-003
9.439921e-003
9.439921e-003
9.439921e-003
9.439921e-003
9.439921e-003
9.439921e-003
9.439921e-003
9.439921e-003
9.439921e-003
9.439921e-003
9.439921e-003
9.439921e-003
9.439921e-003
9.439921e-003
9.439921e-003
9.439921e-003
9.439921e-003
9.439921e-003
9.439921e-003
9.439921e-003
9.439921e-003
9.439921e-003
9.439921e-003
9.439921e-003
9.439921e-003
9.439921e-003
9.439921e-003
9.439920e-003
9.439920e-003
9.439920e-003
9.439920e-003
9.439920e-003
9.439920e-003
9.439920e-003
9.439920e-003
9.439920e-003
9.439920e-003
9.439920e-003
9.439920e-003
9.439920e-003
9.439920e-003
9.439920e-003
9.439920e-003
9.439920e-003
9.439920e-003
9.439920e-003
9.439920e-003
9.439920e-003
9.439920e-003
9.439920e-003
9.439920e-003
9.439920e-003
9.439920e-003
9.439920e-003
9.439920e-003
9.439920e-003
9.439920e-003
9.439920e-003
9.439920e-003
9.439920e-003
9.439920e-003
9.439920e-003
9.439919e-003
9.439920e-003
9.439920e-003
9.439920e-003
9.439921e-003
9.439920e-003
9.439920e-003
9.439920e-003
9.439920e-003
9.439920e-003
9.439920e-003
9.439920e-003
9.439920e-003
9.439920e-003
9.439920e-003
9.439920e-003
9.439920e-003
9.439920e-003
9.439920e-003
9.439920e-003
9.439920e-003
9.439920e-003
9.439920e-003
9.439920e-003
9.439920e-003
9.439920e-003
9.439920e-003
9.439920e-003
9.439920e-003
9.439920e-003
9.439920e-003
9.439920e-003
9.439920e-003
9.439920e-003
9.439920e-003
9.439921e-003
9.439921e-003
9.439921e-003
9.439921e-003
9.439921e-003
9.439921e-003
9.439921e-003
9.439921e-003
9.439921e-003
9.439921e-003
9.439921e-003
9.439921e-003
9.439921e-003
9.439921e-003
9.439921e-003
9.439921e-003
9.439921e-003
9.439921e-003
9.439921e-003
9.439921e-003
9.439921e-003
9.439921e-003
9.439921e-003
9.439921e-003
9.439921e-003
9.439921e-003
9.439921e-003
9.439921e-003
9.439921e-003
9.439921e-003
9.439920e-003
9.439920e-003
9.439920e-003
9.439920e-003
9.439920e-003
9.439920e-003
9.439920e-003
9.439920e-003
9.439920e-003
9.439920e-003
9.439920e-003
9.439920e-003
9.439920e-003
9.439920e-003
9.439920e-003
9.439920e-003
9.439920e-003
9.439920e-003
9.439920e-003
9.439920e-003
9.439920e-003
9.439920e-003
9.439920e-003
9.439920e-003
9.439920e-003
9.439920e-003
9.439920e-003
9.439920e-003
9.439920e-003
9.439920e-003
9.439920e-003
9.439920e-003
9.439920e-003
9.439920e-003
9.439920e-003
9.439920e-003
9.439920e-003
9.439920e-003
9.439920e-003
9.439920e-003
9.439920e-003
9.439920e-003
9.439920e-003
9.439920e-003
9.439920e-003
9.439920e-003
9.439920e-003
9.439920e-003
9.439920e-003
9.439920e-003
9.439920e-003
9.439920e-003
9.439920e-003
9.439920e-003
9.439920e-003
9.439920e-003
9.439920e-003
9.439920e-003
9.439920e-003
9.439920e-003
9.439920e-003
9.439920e-003
9.439920e-003
9.439920e-003
9.439920e-003
9.439920e-003
9.439920e-003
9.439920e-003
9.439920e-003
9.439920e-003
9.439921e-003
9.439921e-003
9.439921e-003
9.439921e-003
9.439921e-003
9.439921e-003
9.439921e-003
9.439921e-003
9.439921e-003
9.439921e-003
9.439922e-003
9.439922e-003
9.439922e-003
9.439922e-003
9.439922e-003
9.439922e-003
9.439922e-003
9.439922e-003
9.439922e-003
9.439922e-003
9.439922e-003
9.439921e-003
9.439921e-003
9.439921e-003
9.439921e-003
9.439921e-003
9.439921e-003
9.439921e-003
9.439921e-003
9.439921e-003
9.439921e-003
9.439920e-003
9.439920e-003
9.439920e-003
9.439920e-003
9.439920e-003
9.439920e-003
9.439920e-003
9.439920e-003
9.439920e-003
9.439920e-003
9.439920e-003
9.439920e-003
9.439920e-003
9.439920e-003
9.439920e-003
9.439920e-003
9.439920e-003
9.439920e-003
9.439920e-003
9.439920e-003
9.439920e-003
9.439920e-003
9.439920e-003
9.439920e-003
9.439920e-003
9.439920e-003
9.439920e-003
9.439920e-003
9.439920e-003
9.439920e-003
9.439920e-003
9.439920e-003
9.439920e-003
9.439920e-003
9.439921e-003
9.439920e-003
9.439920e-003
9.439920e-003
9.439920e-003
9.439920e-003
9.439920e-003
9.439920e-003
9.439920e-003
9.439920e-003
9.439920e-003
9.439920e-003
9.439920e-003
9.439920e-003
9.439920e-003
9.439920e-003
9.439920e-003
9.439920e-003
9.439920e-003
9.439920e-003
9.439920e-003
9.439920e-003
9.439920e-003
9.439920e-003
9.439920e-003
9.439920e-003
9.439920e-003
9.439920e-003
9.439920e-003
9.439920e-003
9.439920e-003
9.439920e-003
9.439921e-003
9.439921e-003
9.439921e-003
9.439921e-003
9.439921e-003
9.439921e-003
9.439922e-003
9.439922e-003
9.439922e-003
9.439922e-003
9.439923e-003
9.439923e-003
9.439923e-003
9.439923e-003
9.439923e-003
9.439924e-003
9.439924e-003
9.439924e-003
9.439924e-003
9.439924e-003
9.439924e-003
9.439924e-003
9.439923e-003
9.439923e-003
9.439923e-003
9.439923e-003
9.439923e-003
9.439923e-003
9.439922e-003
9.439922e-003
9.439922e-003
9.439922e-003
9.439921e-003
9.439921e-003
9.439921e-003
9.439921e-003
9.439921e-003
9.439920e-003
9.439920e-003
9.439920e-003
9.439920e-003
9.439920e-003
9.439920e-003
9.439920e-003
9.439920e-003
9.439920e-003
9.439920e-003
9.439920e-003
9.439920e-003
9.439920e-003
9.439920e-003
9.439920e-003
9.439920e-003
9.439920e-003
9.439920e-003
9.439920e-003
9.439920e-003
9.439920e-003
9.439920e-003
9.439920e-003
9.439920e-003
9.439920e-003
9.439920e-003
9.439920e-003
9.439920e-003
9.439920e-003
9.439920e-003
9.439920e-003
9.439921e-003
9.439920e-003
9.439920e-003
9.439919e-003
9.439919e-003
9.439920e-003
9.439920e-003
9.439920e-003
9.439920e-003
9.439920e-003
9.439920e-003
9.439920e-003
9.439920e-003
9.439920e-003
9.439920e-003
9.439920e-003
9.439920e-003
9.439920e-003
9.439920e-003
9.439920e-003
9.439920e-003
9.439920e-003
9.439920e-003
9.439920e-003
9.439920e-003
9.439920e-003
9.439920e-003
9.439920e-003
9.439921e-003
9.439921e-003
9.439921e-003
9.439921e-003
9.439922e-003
9.439922e-003
9.439922e-003
9.439923e-003
9.439923e-003
9.439923e-003
9.439924e-003
9.439924e-003
9.439925e-003
9.439925e-003
9.439925e-003
9.439926e-003
9.439926e-003
9.439926e-003
9.439927e-003
9.439927e-003
9.439927e-003
9.439927e-003
9.439927e-003
9.439927e-003
9.439927e-003
9.439927e-003
9.439927e-003
9.439926e-003
9.439926e-003
9.439926e-003
9.439925e-003
9.439925e-003
9.439925e-003
9.439924e-003
9.439924e-003
9.439923e-003
9.439923e-003
9.439923e-003
9.439922e-003
9.439922e-003
9.439921e-003
9.439921e-003
9.439921e-003
9.439921e-003
9.439920e-003
9.439920e-003
9.439920e-003
9.439920e-003
9.439920e-003
9.439920e-003
9.439920e-003
9.439920e-003
9.439920e-003
9.439920e-003
9.439920e-003
9.439920e-003
9.439920e-003
9.439920e-003
9.439920e-003
9.439920e-003
9.439920e-003
9.439920e-003
9.439920e-003
9.439920e-003
9.439920e-003
9.439920e-003
9.439920e-003
9.439920e-003
9.439920e-003
9.439920e-003
9.439920e-003
9.439920e-003
9.439920e-003
9.439920e-003
9.439920e-003
9.439920e-003
9.439920e-003
9.439920e-003
9.439920e-003
9.439920e-003
9.439920e-003
9.439920e-003
9.439920e-003
9.439920e-003
9.439920e-003
9.439920e-003
9.439920e-003
9.439920e-003
9.439920e-003
9.439920e-003
9.439920e-003
9.439920e-003
9.439920e-003
9.439920e-003
9.439920e-003
9.439920e-003
9.439920e-003
9.439921e-003
9.439921e-003
9.439921e-003
9.439922e-003
9.439922e-003
9.439923e-003
9.439923e-003
9.439924e-003
9.439924e-003
9.439925e-003
9.439925e-003
9.439926e-003
9.439927e-003
9.439928e-003
9.439928e-003
9.439929e-003
9.439930e-003
9.439930e-003
9.439931e-003
9.439931e-003
9.439932e-003
9.439932e-003
9.439932e-003
9.439932e-003
9.439932e-003
9.439933e-003
9.439932e-003
9.439932e-003
9.439932e-003
9.439932e-003
9.439932e-003
9.439931e-003
9.439931e-003
9.439930e-003
9.439929e-003
9.439929e-003
9.439928e-003
9.439927e-003
9.439927e-003
9.439926e-003
9.439925e-003
9.439925e-003
9.439924e-003
9.439923e-003
9.439923e-003
9.439922e-003
9.439922e-003
9.439921e-003
9.439921e-003
9.439921e-003
9.439921e-003
9.439920e-003
9.439920e-003
9.439920e-003
9.439920e-003
9.439920e-003
9.439920e-003
9.439920e-003
9.439920e-003
9.439920e-003
9.439920e-003
9.439920e-003
9.439920e-003
9.439920e-003
9.439920e-003
9.439920e-003
9.439920e-003
9.439920e-003
9.439920e-003
9.439920e-003
9.439920e-003
9.439920e-003
9.439920e-003
9.439920e-003
9.439920e-003
9.439920e-003
9.439920e-003
9.439920e-003
9.439920e-003
9.439920e-003
9.439920e-003
9.439920e-003
9.439920e-003
9.439920e-003
9.439920e-003
9.439920e-003
9.439920e-003
9.439920e-003
9.439920e-003
9.439920e-003
9.439920e-003
9.439920e-003
9.439920e-003
9.439920e-003
9.439920e-003
9.439920e-003
9.439920e-003
9.439920e-003
9.439921e-003
9.439921e-003
9.439922e-003
9.439922e-003
9.439923e-003
9.439923e-003
9.439924e-003
9.439925e-003
9.439926e-003
9.439927e-003
9.439928e-003
9.439929e-003
9.439930e-003
9.439931e-003
9.439932e-003
9.439934e-003
9.439935e-003
9.439935e-003
9.439936e-003
9.439937e-003
9.439938e-003
9.439938e-003
9.439939e-003
9.439939e-003
9.439939e-003
9.439940e-003
9.439940e-003
9.439940e-003
9.439940e-003
9.439940e-003
9.439939e-003
9.439939e-003
9.439939e-003
9.439938e-003
9.439937e-003
9.439937e-003
9.439936e-003
9.439935e-003
9.439934e-003
9.439933e-003
9.439932e-003
9.439931e-003
9.439929e-003
9.439928e-003
9.439927e-003
9.439926e-003
9.439925e-003
9.439924e-003
9.439923e-003
9.439923e-003
9.439922e-003
9.439922e-003
9.439921e-003
9.439921e-003
9.439920e-003
9.439920e-003
9.439920e-003
9.439920e-003
9.439920e-003
9.439920e-003
9.439920e-003
9.439920e-003
9.439920e-003
9.439920e-003
9.439920e-003
9.439920e-003
9.439920e-003
9.439920e-003
9.439920e-003
9.439920e-003
9.439920e-003
9.439920e-003
9.439920e-003
9.439920e-003
9.439920e-003
9.439920e-003
9.439920e-003
9.439919e-003
9.439920e-003
9.439920e-003
9.439920e-003
9.439920e-003
9.439920e-003
9.439920e-003
9.439920e-003
9.439920e-003
9.439920e-003
9.439920e-003
9.439920e-003
9.439920e-003
9.439920e-003
9.439920e-003
9.439920e-003
9.439920e-003
9.439920e-003
9.439920e-003
9.439920e-003
9.439920e-003
9.439921e-003
9.439921e-003
9.439922e-003
9.439922e-003
9.439923e-003
9.439924e-003
9.439925e-003
9.439926e-003
9.439927e-003
9.439929e-003
9.439930e-003
9.439932e-003
9.439934e-003
9.439935e-003
9.439937e-003
9.439938e-003
9.439940e-003
9.439941e-003
9.439942e-003
9.439943e-003
9.439944e-003
9.439945e-003
9.439945e-003
9.439946e-003
9.439946e-003
9.439946e-003
9.439946e-003
9.439946e-003
9.439946e-003
9.439946e-003
9.439946e-003
9.439945e-003
9.439945e-003
9.439945e-003
9.439945e-003
9.439944e-003
9.439944e-003
9.439943e-003
9.439942e-003
9.439942e-003
9.439941e-003
9.439940e-003
9.439938e-003
9.439937e-003
9.439935e-003
9.439934e-003
9.439932e-003
9.439931e-003
9.439929e-003
9.439927e-003
9.439926e-003
9.439925e-003
9.439924e-003
9.439923e-003
9.439922e-003
9.439922e-003
9.439921e-003
9.439921e-003
9.439920e-003
9.439920e-003
9.439920e-003
9.439920e-003
9.439920e-003
9.439920e-003
9.439920e-003
9.439920e-003
9.439920e-003
9.439920e-003
9.439920e-003
9.439920e-003
9.439920e-003
9.439920e-003
9.439920e-003
9.439920e-003
9.439920e-003
9.439920e-003
9.439920e-003
9.439920e-003
9.439920e-003
9.439919e-003
9.439920e-003
9.439920e-003
9.439920e-003
9.439920e-003
9.439920e-003
9.439920e-003
9.439920e-003
9.439920e-003
9.439920e-003
9.439920e-003
9.439920e-003
9.439920e-003
9.439920e-003
9.439920e-003
9.439920e-003
9.439920e-003
9.439920e-003
9.439921e-003
9.439921e-003
9.439921e-003
9.439922e-003
9.439923e-003
9.439924e-003
9.439925e-003
9.439926e-003
9.439927e-003
9.439929e-003
9.439931e-003
9.439933e-003
9.439935e-003
9.439937e-003
9.439939e-003
9.439941e-003
9.439943e-003
9.439944e-003
9.439945e-003
9.439946e-003
9.439946e-003
9.439946e-003
9.439946e-003
9.439946e-003
9.439945e-003
9.439944e-003
9.439943e-003
9.439942e-003
9.439941e-003
9.439939e-003
9.439938e-003
9.439938e-003
9.439937e-003
9.439937e-003
9.439936e-003
9.439936e-003
9.439937e-003
9.439938e-003
9.439939e-003
9.439939e-003
9.439940e-003
9.439941e-003
9.439942e-003
9.439943e-003
9.439943e-003
9.439943e-003
9.439942e-003
9.439941e-003
9.439940e-003
9.439939e-003
9.439937e-003
9.439935e-003
9.439932e-003
9.439930e-003
9.439929e-003
9.439927e-003
9.439925e-003
9.439924e-003
9.439923e-003
9.439922e-003
9.439922e-003
9.439921e-003
9.439921e-003
9.439920e-003
9.439920e-003
9.439920e-003
9.439920e-003
9.439920e-003
9.439920e-003
9.439920e-003
9.439920e-003
9.439920e-003
9.439920e-003
9.439920e-003
9.439920e-003
9.439920e-003
9.439920e-003
9.439920e-003
9.439920e-003
9.439920e-003
9.439920e-003
9.439920e-003
9.439920e-003
9.439920e-003
9.439920e-003
9.439920e-003
9.439920e-003
9.439920e-003
9.439920e-003
9.439920e-003
9.439920e-003
9.439920e-003
9.439920e-003
9.439920e-003
9.439920e-003
9.439920e-003
9.439920e-003
9.439920e-003
9.439920e-003
9.439921e-003
9.439921e-003
9.439922e-003
9.439923e-003
9.439924e-003
9.439925e-003
9.439927e-003
9.439928e-003
9.439930e-003
9.439933e-003
9.439935e-003
9.439938e-003
9.439941e-003
9.439943e-003
9.439945e-003
9.439946e-003
9.439946e-003
9.439946e-003
9.439945e-003
9.439942e-003
9.439939e-003
9.439935e-003
9.439930e-003
9.439925e-003
9.439919e-003
9.439912e-003
9.439906e-003
9.439899e-003
9.439893e-003
9.439887e-003
9.439882e-003
9.439878e-003
9.439875e-003
9.439872e-003
9.439871e-003
9.439872e-003
9.439874e-003
9.439877e-003
9.439881e-003
9.439887e-003
9.439893e-003
9.439900e-003
9.439907e-003
9.439914e-003
9.439921e-003
9.439927e-003
9.439932e-003
9.439937e-003
9.439940e-003
9.439942e-003
9.439942e-003
9.439942e-003
9.439941e-003
9.439939e-003
9.439937e-003
9.439934e-003
9.439932e-003
9.439929e-003
9.439927e-003
9.439926e-003
9.439924e-003
9.439923e-003
9.439922e-003
9.439921e-003
9.439921e-003
9.439921e-003
9.439920e-003
9.439920e-003
9.439920e-003
9.439920e-003
9.439920e-003
9.439920e-003
9.439920e-003
9.439920e-003
9.439920e-003
9.439920e-003
9.439920e-003
9.439920e-003
9.439920e-003
9.439920e-003
9.439920e-003
9.439920e-003
9.439920e-003
9.439920e-003
9.439920e-003
9.439920e-003
9.439920e-003
9.439920e-003
9.439920e-003
9.439920e-003
9.439920e-003
9.439920e-003
9.439920e-003
9.439921e-003
9.439920e-003
9.439920e-003
9.439920e-003
9.439920e-003
9.439920e-003
9.439921e-003
9.439922e-003
9.439922e-003
9.439923e-003
9.439925e-003
9.439927e-003
9.439929e-003
9.439931e-003
9.439934e-003
9.439937e-003
9.439940e-003
9.439943e-003
9.439946e-003
9.439947e-003
9.439947e-003
9.439945e-003
9.439941e-003
9.439935e-003
9.439926e-003
9.439915e-003
9.439900e-003
9.439884e-003
9.439865e-003
9.439845e-003
9.439823e-003
9.439800e-003
9.439777e-003
9.439754e-003
9.439732e-003
9.439711e-003
9.439692e-003
9.439676e-003
9.439663e-003
9.439653e-003
9.439647e-003
9.439645e-003
9.439647e-003
9.439654e-003
9.439665e-003
9.439680e-003
9.439698e-003
9.439720e-003
9.439744e-003
9.439770e-003
9.439796e-003
9.439822e-003
9.439846e-003
9.439869e-003
9.439889e-003
9.439906e-003
9.439920e-003
9.439930e-003
9.439937e-003
9.439941e-003
9.439942e-003
9.439942e-003
9.439940e-003
9.439938e-003
9.439935e-003
9.439932e-003
9.439930e-003
9.439927e-003
9.439925e-003
9.439924e-003
9.439923e-003
9.439922e-003
9.439921e-003
9.439921e-003
9.439920e-003
9.439920e-003
9.439920e-003
9.439920e-003
9.439920e-003
9.439920e-003
9.439920e-003
9.439920e-003
9.439920e-003
9.439920e-003
9.439920e-003
9.439920e-003
9.439920e-003
9.439920e-003
9.439920e-003
9.439920e-003
9.439920e-003
9.439920e-003
9.439920e-003
9.439920e-003
9.439920e-003
9.439920e-003
9.439920e-003
9.439920e-003
9.439920e-003
9.439920e-003
9.439920e-003
9.439920e-003
9.439920e-003
9.439920e-003
9.439921e-003
9.439921e-003
9.439922e-003
9.439923e-003
9.439924e-003
9.439926e-003
9.439928e-003
9.439931e-003
9.439935e-003
9.439938e-003
9.439942e-003
9.439945e-003
9.439947e-003
9.439948e-003
9.439946e-003
9.439940e-003
9.439930e-003
9.439914e-003
9.439893e-003
9.439865e-003
9.439830e-003
9.439788e-003
9.439740e-003
9.439686e-003
9.439628e-003
9.439565e-003
9.439500e-003
9.439433e-003
9.439367e-003
9.439302e-003
9.439240e-003
9.439183e-003
9.439131e-003
9.439087e-003
9.439052e-003
9.439026e-003
9.439010e-003
9.439006e-003
9.439013e-003
9.439033e-003
9.439064e-003
9.439106e-003
9.439158e-003
9.439219e-003
9.439287e-003
9.439360e-003
9.439436e-003
9.439512e-003
9.439587e-003
9.439656e-003
9.439720e-003
9.439776e-003
9.439824e-003
9.439862e-003
9.439892e-003
9.439914e-003
9.439929e-003
9.439938e-003
9.439942e-003
9.439942e-003
9.439941e-003
9.439938e-003
9.439935e-003
9.439932e-003
9.439929e-003
9.439927e-003
9.439925e-003
9.439923e-003
9.439922e-003
9.439921e-003
9.439921e-003
9.439920e-003
9.439920e-003
9.439920e-003
9.439920e-003
9.439920e-003
9.439920e-003
9.439920e-003
9.439920e-003
9.439920e-003
9.439920e-003
9.439920e-003
9.439920e-003
9.439920e-003
9.439920e-003
9.439920e-003
9.439920e-003
9.439920e-003
9.439920e-003
9.439920e-003
9.439920e-003
9.439920e-003
9.439920e-003
9.439920e-003
9.439920e-003
9.439920e-003
9.439920e-003
9.439920e-003
9.439921e-003
9.439921e-003
9.439922e-003
9.439923e-003
9.439924e-003
9.439926e-003
9.439928e-003
9.439930e-003
9.439934e-003
9.439938e-003
9.439942e-003
9.439946e-003
9.439948e-003
9.439948e-003
9.439944e-003
9.439933e-003
9.439915e-003
9.439886e-003
9.439845e-003
9.439790e-003
9.439720e-003
9.439633e-003
9.439529e-003
9.439409e-003
9.439275e-003
9.439127e-003
9.438968e-003
9.438802e-003
9.438632e-003
9.438459e-003
9.438290e-003
9.438125e-003
9.437970e-003
9.437827e-003
9.437700e-003
9.437592e-003
9.437505e-003
9.437442e-003
9.437405e-003
9.437396e-003
9.437416e-003
9.437465e-003
9.437543e-003
9.437649e-003
9.437780e-003
9.437935e-003
9.438108e-003
9.438294e-003
9.438489e-003
9.438687e-003
9.438882e-003
9.439068e-003
9.439241e-003
9.439396e-003
9.439532e-003
9.439645e-003
9.439737e-003
9.439808e-003
9.439861e-003
9.439898e-003
9.439922e-003
9.439935e-003
9.439941e-003
9.439943e-003
9.439941e-003
9.439938e-003
9.439934e-003
9.439931e-003
9.439928e-003
9.439926e-003
9.439924e-003
9.439923e-003
9.439922e-003
9.439921e-003
9.439921e-003
9.439920e-003
9.439920e-003
9.439920e-003
9.439920e-003
9.439920e-003
9.439920e-003
9.439920e-003
9.439920e-003
9.439920e-003
9.439920e-003
9.439920e-003
9.439920e-003
9.439920e-003
9.439920e-003
9.439920e-003
9.439920e-003
9.439920e-003
9.439920e-003
9.439920e-003
9.439920e-003
9.439920e-003
9.439920e-003
9.439920e-003
9.439920e-003
9.439920e-003
9.439921e-003
9.439922e-003
9.439923e-003
9.439925e-003
9.439927e-003
9.439929e-003
9.439933e-003
9.439937e-003
9.439942e-003
9.439946e-003
9.439949e-003
9.439949e-003
9.439943e-003
9.439929e-003
9.439903e-003
9.439859e-003
9.439794e-003
9.439703e-003
9.439582e-003
9.439425e-003
9.439232e-003
9.439000e-003
9.438730e-003
9.438423e-003
9.438084e-003
9.437718e-003
9.437329e-003
9.436927e-003
9.436517e-003
9.436108e-003
9.435708e-003
9.435323e-003
9.434962e-003
9.434632e-003
9.434340e-003
9.434092e-003
9.433894e-003
9.433751e-003
9.433669e-003
9.433650e-003
9.433698e-003
9.433813e-003
9.433994e-003
9.434240e-003
9.434546e-003
9.434905e-003
9.435310e-003
9.435750e-003
9.436212e-003
9.436685e-003
9.437155e-003
9.437608e-003
9.438034e-003
9.438423e-003
9.438766e-003
9.439061e-003
9.439305e-003
9.439501e-003
9.439651e-003
9.439761e-003
9.439838e-003
9.439889e-003
9.439919e-003
9.439935e-003
9.439942e-003
9.439943e-003
9.439940e-003
9.439937e-003
9.439933e-003
9.439929e-003
9.439927e-003
9.439925e-003
9.439923e-003
9.439922e-003
9.439921e-003
9.439921e-003
9.439920e-003
9.439920e-003
9.439920e-003
9.439920e-003
9.439920e-003
9.439920e-003
9.439920e-003
9.439920e-003
9.439920e-003
9.439920e-003
9.439920e-003
9.439920e-003
9.439920e-003
9.439920e-003
9.439920e-003
9.439920e-003
9.439920e-003
9.439920e-003
9.439920e-003
9.439920e-003
9.439920e-003
9.439920e-003
9.439920e-003
9.439921e-003
9.439922e-003
9.439923e-003
9.439925e-003
9.439927e-003
9.439931e-003
9.439935e-003
9.439940e-003
9.439945e-003
9.439949e-003
9.439951e-003
9.439946e-003
9.439931e-003
9.439899e-003
9.439845e-003
9.439758e-003
9.439629e-003
9.439447e-003
9.439203e-003
9.438887e-003
9.438492e-003
9.438012e-003
9.437448e-003
9.436801e-003
9.436078e-003
9.435289e-003
9.434444e-003
9.433560e-003
9.432651e-003
9.431734e-003
9.430827e-003
9.429945e-003
9.429104e-003
9.428320e-003
9.427606e-003
9.426978e-003
9.426447e-003
9.426026e-003
9.425724e-003
9.425551e-003
9.425515e-003
9.425620e-003
9.425869e-003
9.426262e-003
9.426794e-003
9.427458e-003
9.428240e-003
9.429125e-003
9.430091e-003
9.431115e-003
9.432168e-003
9.433224e-003
9.434254e-003
9.435231e-003
9.436132e-003
9.436940e-003
9.437643e-003
9.438235e-003
9.438718e-003
9.439097e-003
9.439385e-003
9.439594e-003
9.439738e-003
9.439833e-003
9.439891e-003
9.439923e-003
9.439938e-003
9.439943e-003
9.439942e-003
9.439939e-003
9.439935e-003
9.439931e-003
9.439927e-003
9.439925e-003
9.439923e-003
9.439922e-003
9.439921e-003
9.439921e-003
9.439920e-003
9.439920e-003
9.439920e-003
9.439920e-003
9.439920e-003
9.439920e-003
9.439920e-003
9.439920e-003
9.439920e-003
9.439920e-003
9.439920e-003
9.439920e-003
9.439920e-003
9.439920e-003
9.439920e-003
9.439920e-003
9.439920e-003
9.439920e-003
9.439920e-003
9.439920e-003
9.439921e-003
9.439921e-003
9.439922e-003
9.439924e-003
9.439926e-003
9.439928e-003
9.439932e-003
9.439937e-003
9.439942e-003
9.439948e-003
9.439952e-003
9.439950e-003
9.439938e-003
9.439908e-003
9.439850e-003
9.439751e-003
9.439595e-003
9.439361e-003
9.439028e-003
9.438575e-003
9.437981e-003
9.437228e-003
9.436304e-003
9.435201e-003
9.433922e-003
9.432477e-003
9.430882e-003
9.429160e-003
9.427341e-003
9.425455e-003
9.423538e-003
9.421623e-003
9.419744e-003
9.417933e-003
9.416221e-003
9.414636e-003
9.413205e-003
9.411953e-003
9.410901e-003
9.410070e-003
9.409480e-003
9.409147e-003
9.409083e-003
9.409300e-003
9.409801e-003
9.410589e-003
9.411656e-003
9.412990e-003
9.414569e-003
9.416366e-003
9.418342e-003
9.420451e-003
9.422643e-003
9.424860e-003
9.427045e-003
9.429142e-003
9.431100e-003
9.432877e-003
9.434444e-003
9.435784e-003
9.436893e-003
9.437781e-003
9.438467e-003
9.438977e-003
9.439341e-003
9.439590e-003
9.439751e-003
9.439849e-003
9.439904e-003
9.439932e-003
9.439942e-003
9.439943e-003
9.439940e-003
9.439936e-003
9.439931e-003
9.439928e-003
9.439925e-003
9.439923e-003
9.439922e-003
9.439921e-003
9.439921e-003
9.439920e-003
9.439920e-003
9.439920e-003
9.439920e-003
9.439920e-003
9.439920e-003
9.439920e-003
9.439920e-003
9.439920e-003
9.439920e-003
9.439920e-003
9.439920e-003
9.439920e-003
9.439920e-003
9.439920e-003
9.439920e-003
9.439920e-003
9.439920e-003
9.439921e-003
9.439921e-003
9.439923e-003
9.439924e-003
9.439926e-003
9.439929e-003
9.439933e-003
9.439939e-003
9.439945e-003
9.439950e-003
9.439952e-003
9.439946e-003
9.439924e-003
9.439874e-003
9.439779e-003
9.439616e-003
9.439356e-003
9.438963e-003
9.438396e-003
9.437612e-003
9.436566e-003
9.435221e-003
9.433545e-003
9.431520e-003
9.429142e-003
9.426426e-003
9.423400e-003
9.420108e-003
9.416607e-003
9.412959e-003
9.409231e-003
9.405492e-003
9.401808e-003
9.398239e-003
9.394843e-003
9.391671e-003
9.388768e-003
9.386175e-003
9.383928e-003
9.382061e-003
9.380603e-003
9.379580e-003
9.379015e-003
9.378929e-003
9.379337e-003
9.380251e-003
9.381673e-003
9.383600e-003
9.386018e-003
9.388900e-003
9.392206e-003
9.395880e-003
9.399850e-003
9.404030e-003
9.408319e-003
9.412609e-003
9.416790e-003
9.420755e-003
9.424412e-003
9.427686e-003
9.430530e-003
9.432922e-003
9.434867e-003
9.436396e-003
9.437555e-003
9.438401e-003
9.438993e-003
9.439390e-003
9.439643e-003
9.439795e-003
9.439880e-003
9.439922e-003
9.439940e-003
9.439944e-003
9.439941e-003
9.439937e-003
9.439932e-003
9.439928e-003
9.439925e-003
9.439923e-003
9.439922e-003
9.439921e-003
9.439921e-003
9.439920e-003
9.439920e-003
9.439920e-003
9.439920e-003
9.439920e-003
9.439920e-003
9.439920e-003
9.439920e-003
9.439920e-003
9.439920e-003
9.439920e-003
9.439920e-003
9.439920e-003
9.439920e-003
9.439920e-003
9.439920e-003
9.439920e-003
9.439921e-003
9.439923e-003
9.439924e-003
9.439926e-003
9.439929e-003
9.439934e-003
9.439940e-003
9.439947e-003
9.439952e-003
9.439953e-003
9.439941e-003
9.439907e-003
9.439831e-003
9.439688e-003
9.439440e-003
9.439038e-003
9.438421e-003
9.437515e-003
9.436239e-003
9.434508e-003
9.432243e-003
9.429380e-003
9.425875e-003
9.421714e-003
9.416918e-003
9.411542e-003
9.405672e-003
9.399419e-003
9.392911e-003
9.386280e-003
9.379659e-003
9.373171e-003
9.366927e-003
9.361021e-003
9.355533e-003
9.350526e-003
9.346052e-003
9.342148e-003
9.338845e-003
9.336165e-003
9.334127e-003
9.332745e-003
9.332034e-003
9.332010e-003
9.332687e-003
9.334083e-003
9.336214e-003
9.339093e-003
9.342728e-003
9.347116e-003
9.352237e-003
9.358048e-003
9.364476e-003
9.371416e-003
9.378728e-003
9.386242e-003
9.393762e-003
9.401082e-003
9.408001e-003
9.414344e-003
9.419974e-003
9.424807e-003
9.428814e-003
9.432022e-003
9.434497e-003
9.436336e-003
9.437651e-003
9.438552e-003
9.439143e-003
9.439513e-003
9.439731e-003
9.439851e-003
9.439911e-003
9.439937e-003
9.439944e-003
9.439942e-003
9.439938e-003
9.439933e-003
9.439929e-003
9.439925e-003
9.439923e-003
9.439922e-003
9.439921e-003
9.439921e-003
9.439920e-003
9.439920e-003
9.439920e-003
9.439920e-003
9.439920e-003
9.439920e-003
9.439920e-003
9.439920e-003
9.439920e-003
9.439920e-003
9.439920e-003
9.439920e-003
9.439920e-003
9.439920e-003
9.439920e-003
9.439921e-003
9.439922e-003
9.439924e-003
9.439926e-003
9.439930e-003
9.439935e-003
9.439941e-003
9.439949e-003
9.439954e-003
9.439953e-003
9.439936e-003
9.439888e-003
9.439783e-003
9.439583e-003
9.439232e-003
9.438651e-003
9.437741e-003
9.436378e-003
9.434421e-003
9.431718e-003
9.428120e-003
9.423504e-003
9.417786e-003
9.410940e-003
9.403013e-003
9.394127e-003
9.384471e-003
9.374289e-003
9.363852e-003
9.353441e-003
9.343318e-003
9.333713e-003
9.324811e-003
9.316748e-003
9.309611e-003
9.303442e-003
9.298246e-003
9.293996e-003
9.290641e-003
9.288110e-003
9.286322e-003
9.285193e-003
9.284641e-003
9.284600e-003
9.285020e-003
9.285882e-003
9.287197e-003
9.289015e-003
9.291419e-003
9.294524e-003
9.298464e-003
9.303380e-003
9.309394e-003
9.316590e-003
9.324986e-003
9.334515e-003
9.345008e-003
9.356197e-003
9.367728e-003
9.379197e-003
9.390189e-003
9.400332e-003
9.409337e-003
9.417023e-003
9.423331e-003
9.428307e-003
9.432080e-003
9.434829e-003
9.436752e-003
9.438041e-003
9.438868e-003
9.439374e-003
9.439666e-003
9.439824e-003
9.439901e-003
9.439934e-003
9.439944e-003
9.439943e-003
9.439938e-003
9.439933e-003
9.439928e-003
9.439925e-003
9.439923e-003
9.439922e-003
9.439921e-003
9.439921e-003
9.439920e-003
9.439920e-003
9.439920e-003
9.439920e-003
9.439920e-003
9.439920e-003
9.439920e-003
9.439919e-003
9.439920e-003
9.439920e-003
9.439921e-003
9.439921e-003
9.439921e-003
9.439921e-003
9.439922e-003
9.439924e-003
9.439926e-003
9.439930e-003
9.439935e-003
9.439941e-003
9.439949e-003
9.439955e-003
9.439953e-003
9.439931e-003
9.439870e-003
9.439736e-003
9.439476e-003
9.439009e-003
9.438221e-003
9.436957e-003
9.435025e-003
9.432191e-003
9.428200e-003
9.422800e-003
9.415773e-003
9.406985e-003
9.396423e-003
9.384232e-003
9.370729e-003
9.356386e-003
9.341799e-003
9.327621e-003
9.314498e-003
9.303006e-003
9.293597e-003
9.286572e-003
9.282068e-003
9.280070e-003
9.280430e-003
9.282890e-003
9.287109e-003
9.292681e-003
9.299155e-003
9.306051e-003
9.312875e-003
9.319146e-003
9.324410e-003
9.328277e-003
9.330443e-003
9.330718e-003
9.329055e-003
9.325572e-003
9.320559e-003
9.314481e-003
9.307962e-003
9.301749e-003
9.296652e-003
9.293474e-003
9.292921e-003
9.295502e-003
9.301452e-003
9.310673e-003
9.322724e-003
9.336873e-003
9.352191e-003
9.367691e-003
9.382463e-003
9.395789e-003
9.407212e-003
9.416540e-003
9.423814e-003
9.429239e-003
9.433115e-003
9.435767e-003
9.437505e-003
9.438593e-003
9.439242e-003
9.439608e-003
9.439801e-003
9.439894e-003
9.439932e-003
9.439944e-003
9.439943e-003