# vtk DataFile Version 3.0
vtk output
ASCII
DATASET STRUCTURED_POINTS
DIMENSIONS 100 100 1
SPACING 1 1 1
ORIGIN 0 0 0
POINT_DATA 10000
SCALARS SFBox_profile double
LOOKUP_TABLE default 
0.000000e+000
0.000000e+000
0.000000e+000
0.000000e+000
0.000000e+000
0.000000e+000
0.000000e+000
0.000000e+000
0.000000e+000
0.000000e+000
0.000000e+000
0.000000e+000
0.000000e+000
0.000000e+000
0.000000e+000
0.000000e+000
0.000000e+000
0.000000e+000
0.000000e+000
0.000000e+000
0.000000e+000
0.000000e+000
0.000000e+000
0.000000e+000
0.000000e+000
0.000000e+000
0.000000e+000
0.000000e+000
0.000000e+000
0.000000e+000
0.000000e+000
0.000000e+000
0.000000e+000
0.000000e+000
0.000000e+000
0.000000e+000
0.000000e+000
0.000000e+000
0.000000e+000
0.000000e+000
0.000000e+000
0.000000e+000
0.000000e+000
0.000000e+000
0.000000e+000
0.000000e+000
0.000000e+000
0.000000e+000
0.000000e+000
0.000000e+000
0.000000e+000
0.000000e+000
0.000000e+000
0.000000e+000
0.000000e+000
0.000000e+000
0.000000e+000
0.000000e+000
0.000000e+000
0.000000e+000
0.000000e+000
0.000000e+000
0.000000e+000
0.000000e+000
0.000000e+000
0.000000e+000
0.000000e+000
0.000000e+000
0.000000e+000
0.000000e+000
0.000000e+000
0.000000e+000
0.000000e+000
0.000000e+000
0.000000e+000
0.000000e+000
0.000000e+000
0.000000e+000
0.000000e+000
0.000000e+000
0.000000e+000
0.000000e+000
0.000000e+000
0.000000e+000
0.000000e+000
0.000000e+000
0.000000e+000
0.000000e+000
0.000000e+000
0.000000e+000
0.000000e+000
0.000000e+000
0.000000e+000
0.000000e+000
0.000000e+000
0.000000e+000
0.000000e+000
0.000000e+000
0.000000e+000
0.000000e+000
8.827920e-009
2.749416e-009
-4.658247e-009
-8.270740e-009
-5.961104e-009
2.561515e-010
5.929414e-009
7.389882e-009
4.148560e-009
-1.165751e-009
-5.048894e-009
-5.635031e-009
-3.550641e-009
-7.421060e-010
1.361529e-009
2.645594e-009
3.613126e-009
4.260845e-009
3.862465e-009
1.845241e-009
-1.306145e-009
-4.189605e-009
-5.564297e-009
-5.252239e-009
-3.996326e-009
-2.561770e-009
-1.102175e-009
6.289060e-010
2.643118e-009
4.475111e-009
5.575523e-009
5.815742e-009
5.517989e-009
5.040087e-009
4.438780e-009
3.559557e-009
2.358444e-009
1.033833e-009
-1.565406e-010
-1.129798e-009
-1.985553e-009
-2.819582e-009
-3.592737e-009
-4.193709e-009
-4.584652e-009
-4.842852e-009
-5.064248e-009
-5.260006e-009
-5.366214e-009
-5.340515e-009
-5.221866e-009
-5.083484e-009
-4.939644e-009
-4.722228e-009
-4.359817e-009
-3.864862e-009
-3.315794e-009
-2.746976e-009
-2.086411e-009
-1.238733e-009
-2.261363e-010
7.977491e-010
1.702031e-009
2.511848e-009
3.326168e-009
4.096662e-009
4.560057e-009
4.459686e-009
3.814819e-009
2.889419e-009
1.870269e-009
6.655659e-010
-8.697700e-010
-2.521778e-009
-3.667122e-009
-3.753054e-009
-2.815114e-009
-1.428318e-009
-1.287539e-010
1.011717e-009
2.143778e-009
3.051674e-009
3.032729e-009
1.562408e-009
-9.077023e-010
-2.974154e-009
-3.296816e-009
-1.715747e-009
5.950527e-010
2.089754e-009
2.033653e-009
8.815059e-010
-3.351688e-010
-9.046532e-010
-8.130179e-010
-4.518016e-010
-1.341481e-010
8.692709e-011
2.649258e-010
3.853086e-010
1.125068e-010
8.930732e-011
2.233685e-011
-5.186270e-011
-4.519793e-011
5.332815e-011
9.403043e-011
-1.027788e-010
-4.854395e-010
-6.868455e-010
-3.113485e-010
6.144064e-010
1.497354e-009
1.586579e-009
6.274516e-010
-8.563489e-010
-1.958857e-009
-2.111558e-009
-1.449968e-009
-5.228836e-010
2.845029e-010
9.938893e-010
1.754224e-009
2.449119e-009
2.689027e-009
2.194875e-009
1.111887e-009
-1.101719e-010
-1.119605e-009
-1.892684e-009
-2.577135e-009
-3.194659e-009
-3.570454e-009
-3.539555e-009
-3.145997e-009
-2.595347e-009
-2.042532e-009
-1.478487e-009
-8.254534e-010
-9.114013e-011
6.115114e-010
1.181657e-009
1.624553e-009
2.014019e-009
2.386656e-009
2.701627e-009
2.902728e-009
2.993700e-009
3.033438e-009
3.063552e-009
3.060960e-009
2.972211e-009
2.784390e-009
2.542763e-009
2.291116e-009
2.009407e-009
1.632861e-009
1.136618e-009
5.795120e-010
4.238236e-011
-4.668695e-010
-1.011625e-009
-1.613772e-009
-2.170693e-009
-2.525970e-009
-2.623452e-009
-2.547583e-009
-2.382948e-009
-2.069737e-009
-1.464919e-009
-5.639043e-010
3.935671e-010
1.096569e-009
1.432003e-009
1.525414e-009
1.502083e-009
1.279036e-009
6.802772e-010
-2.392862e-010
-1.073080e-009
-1.352996e-009
-9.732021e-010
-2.869218e-010
2.334187e-010
4.030287e-010
3.786446e-010
3.611538e-010
3.355917e-010
1.483232e-010
-2.091697e-010
-4.901356e-010
-4.206587e-010
-1.772142e-011
3.760982e-010
4.099387e-010
7.289590e-011
-2.926740e-010
-3.327092e-010
-3.121990e-011
2.847339e-010
-8.847634e-009
-2.653934e-009
4.785936e-009
8.264728e-009
5.821210e-009
-3.298065e-010
-5.802755e-009
-7.243362e-009
-4.341730e-009
5.520210e-010
4.486076e-009
5.822621e-009
4.703743e-009
2.206939e-009
-6.760742e-010
-3.344648e-009
-5.279171e-009
-5.837652e-009
-4.568229e-009
-1.702263e-009
1.785944e-009
4.706045e-009
6.299769e-009
6.465052e-009
5.493939e-009
3.715569e-009
1.391271e-009
-1.177187e-009
-3.593510e-009
-5.488380e-009
-6.676771e-009
-7.173612e-009
-7.077854e-009
-6.476228e-009
-5.451093e-009
-4.127157e-009
-2.661663e-009
-1.183291e-009
2.407228e-010
1.575304e-009
2.777361e-009
3.800639e-009
4.630606e-009
5.293087e-009
5.821214e-009
6.224115e-009
6.496015e-009
6.647317e-009
6.710800e-009
6.712983e-009
6.649729e-009
6.499186e-009
6.253629e-009
5.925907e-009
5.521659e-009
5.017024e-009
4.375811e-009
3.586009e-009
2.667506e-009
1.642360e-009
5.133630e-010
-7.121172e-010
-1.980445e-009
-3.189562e-009
-4.231890e-009
-5.024043e-009
-5.484824e-009
-5.505242e-009
-4.979658e-009
-3.887098e-009
-2.333331e-009
-5.076879e-010
1.376039e-009
3.067714e-009
4.236685e-009
4.530371e-009
3.771189e-009
2.129023e-009
7.780121e-011
-1.836803e-009
-3.186262e-009
-3.660861e-009
-3.027153e-009
-1.275257e-009
1.096215e-009
3.045307e-009
3.491550e-009
2.105063e-009
-3.033979e-010
-2.249132e-009
-2.609766e-009
-1.398609e-009
3.490827e-010
1.433319e-009
1.348193e-009
4.889962e-010
-3.333980e-010
-5.733100e-010
-2.839997e-010
6.720305e-011
-9.315639e-009
-2.820662e-009
4.960801e-009
8.521681e-009
5.810517e-009
-6.806700e-010
-6.081441e-009
-6.817151e-009
-3.011242e-009
2.077810e-009
4.882593e-009
4.169276e-009
1.428109e-009
-9.454521e-010
-1.756522e-009
-1.530063e-009
-1.337818e-009
-1.449522e-009
-1.223529e-009
-1.275510e-010
1.423866e-009
2.373981e-009
2.067732e-009
8.517897e-010
-3.589649e-010
-9.728694e-010
-1.099744e-009
-1.148411e-009
-1.248905e-009
-1.164010e-009
-6.749315e-010
1.035067e-010
8.350713e-010
1.302207e-009
1.554136e-009
1.744880e-009
1.915691e-009
1.977589e-009
1.859493e-009
1.606376e-009
1.323801e-009
1.069326e-009
8.267846e-010
5.680476e-010
3.060240e-010
8.158131e-011
-8.010828e-011
-1.854584e-010
-2.526061e-010
-2.882230e-010
-2.834339e-010
-2.248664e-010
-1.087108e-010
5.179990e-011
2.343075e-010
4.285949e-010
6.470820e-010
9.016993e-010
1.167015e-009
1.382471e-009
1.506663e-009
1.558032e-009
1.574081e-009
1.528077e-009
1.324276e-009
9.108031e-010
3.797375e-010
-9.673104e-011
-4.427324e-010
-7.372233e-010
-1.043852e-009
-1.217324e-009
-9.842242e-010
-2.753310e-010
5.823604e-010
1.109190e-009
1.124835e-009
8.721011e-010
6.360164e-010
3.301947e-010
-3.703883e-010
-1.432359e-009
-2.153047e-009
-1.680432e-009
4.631852e-011
1.962048e-009
2.653676e-009
1.591493e-009
-3.835115e-010
-1.801192e-009
-1.804205e-009
-7.256162e-010
4.211512e-010
8.973971e-010
7.072044e-010
3.019180e-010
2.417866e-011
-1.079845e-010
-2.064642e-010
-2.867199e-010
-7.230176e-010
-2.615706e-010
3.105894e-010
5.229431e-010
1.300054e-010
-5.379731e-010
-6.833383e-010
2.285165e-010
1.704172e-009
2.334069e-009
9.833447e-010
-1.925558e-009
-4.391344e-009
-4.354504e-009
-1.479146e-009
2.486384e-009
5.142608e-009
5.301585e-009
3.565285e-009
1.295960e-009
-7.392716e-010
-2.651481e-009
-4.610998e-009
-6.115252e-009
-6.266794e-009
-4.690493e-009
-1.980422e-009
8.186531e-010
3.064693e-009
4.785985e-009
6.220245e-009
7.301467e-009
7.691917e-009
7.212726e-009
6.085118e-009
4.715759e-009
3.336145e-009
1.918362e-009
3.918831e-010
-1.160445e-009
-2.551222e-009
-3.671024e-009
-4.562377e-009
-5.322166e-009
-5.979518e-009
-6.488226e-009
-6.810547e-009
-6.974942e-009
-7.048617e-009
-7.070625e-009
-7.021582e-009
-6.855288e-009
-6.553933e-009
-6.147447e-009
-5.672621e-009
-5.113659e-009
-4.399404e-009
-3.478212e-009
-2.389766e-009
-1.233793e-009
-5.743838e-011
1.189721e-009
2.542973e-009
3.874312e-009
4.920120e-009
5.494250e-009
5.630070e-009
5.444047e-009
4.878562e-009
3.696991e-009
1.821421e-009
-3.750911e-010
-2.240183e-009
-3.350940e-009
-3.770700e-009
-3.734023e-009
-3.175634e-009
-1.779941e-009
4.075276e-010
2.561480e-009
3.518359e-009
2.767988e-009
9.589586e-010
-6.682595e-010
-1.345819e-009
-1.241057e-009
-9.392522e-010
-6.724159e-010
-2.120508e-010
5.507652e-010
1.177716e-009
1.040133e-009
8.842137e-011
-9.119405e-010
-1.061499e-009
-2.479574e-010
7.020827e-010
8.509042e-010
1.063947e-010
-7.003880e-010
8.820541e-009
2.505516e-009
-4.853505e-009
-7.986606e-009
-5.348594e-009
4.329751e-010
5.180275e-009
6.299260e-009
3.986628e-009
1.781825e-010
-3.198582e-009
-5.078986e-009
-5.063125e-009
-3.106977e-009
2.822587e-010
3.794156e-009
5.770756e-009
5.280739e-009
2.808859e-009
-1.973354e-010
-2.492618e-009
-3.748913e-009
-4.243911e-009
-4.120596e-009
-3.176620e-009
-1.343495e-009
8.797071e-010
2.669680e-009
3.540620e-009
3.650225e-009
3.440937e-009
3.104479e-009
2.492265e-009
1.478793e-009
2.503481e-010
-8.336185e-010
-1.587323e-009
-2.114091e-009
-2.592815e-009
-3.040917e-009
-3.330666e-009
-3.385534e-009
-3.286657e-009
-3.178648e-009
-3.120324e-009
-3.060701e-009
-2.941552e-009
-2.785612e-009
-2.673859e-009
-2.655159e-009
-2.697818e-009
-2.733238e-009
-2.737981e-009
-2.759196e-009
-2.849335e-009
-2.981708e-009
-3.053813e-009
-2.990181e-009
-2.823589e-009
-2.637106e-009
-2.421699e-009
-2.039990e-009
-1.377810e-009
-5.109415e-010
3.451151e-010
1.068294e-009
1.741500e-009
2.458408e-009
3.051899e-009
3.135074e-009
2.478200e-009
1.283202e-009
-5.006041e-012
-1.130328e-009
-2.140936e-009
-3.027186e-009
-3.386093e-009
-2.659361e-009
-7.829526e-010
1.501488e-009
3.105921e-009
3.384915e-009
2.457580e-009
8.584685e-010
-9.166248e-010
-2.431443e-009
-3.095540e-009
-2.330998e-009
-2.131112e-010
2.139813e-009
3.146788e-009
2.038006e-009
-3.560301e-010
-2.186511e-009
-2.128359e-009
-4.881577e-010
1.150593e-009
1.401720e-009
2.909612e-010
-8.886330e-010
1.033272e-008
2.779407e-009
-5.827353e-009
-9.041179e-009
-5.237755e-009
1.771497e-009
6.340167e-009
5.547925e-009
1.005920e-009
-3.178621e-009
-4.061704e-009
-1.874174e-009
9.616516e-010
2.322154e-009
1.881154e-009
6.110510e-010
-5.974471e-010
-1.558094e-009
-2.306447e-009
-2.510732e-009
-1.661855e-009
2.441498e-010
2.467658e-009
4.064850e-009
4.575003e-009
4.126058e-009
3.006825e-009
1.342886e-009
-7.751655e-010
-3.027240e-009
-4.918269e-009
-6.116478e-009
-6.643970e-009
-6.699257e-009
-6.371181e-009
-5.601747e-009
-4.389944e-009
-2.923359e-009
-1.459617e-009
-1.238907e-010
1.122897e-009
2.333476e-009
3.452460e-009
4.365322e-009
5.029700e-009
5.514565e-009
5.909347e-009
6.224935e-009
6.401482e-009
6.399567e-009
6.257646e-009
6.048007e-009
5.786710e-009
5.408276e-009
4.840930e-009
4.094850e-009
3.250808e-009
2.355282e-009
1.357006e-009
1.843991e-010
-1.118450e-009
-2.377699e-009
-3.435602e-009
-4.273113e-009
-4.933937e-009
-5.339573e-009
-5.261917e-009
-4.536648e-009
-3.268998e-009
-1.762257e-009
-2.561543e-010
1.174515e-009
2.429338e-009
3.198467e-009
3.120121e-009
2.158599e-009
7.388134e-010
-5.584557e-010
-1.386252e-009
-1.670354e-009
-1.376850e-009
-4.772057e-010
7.483295e-010
1.555425e-009
1.210342e-009
-2.131352e-010
-1.631999e-009
-1.795330e-009
-4.639742e-010
1.279918e-009
1.983678e-009
1.130926e-009
-4.579142e-010
-1.452138e-009
-1.192067e-009
-1.291130e-010
7.379012e-010
7.708674e-010
1.350641e-010
-4.747354e-010
2.421603e-009
3.671990e-010
-1.741244e-009
-1.959490e-009
-7.567276e-011
2.096284e-009
2.224710e-009
-3.304957e-010
-3.597749e-009
-4.475946e-009
-1.530659e-009
3.452715e-009
6.765125e-009
5.851624e-009
1.354152e-009
-3.671749e-009
-6.398886e-009
-6.142805e-009
-4.048771e-009
-1.447402e-009
1.166356e-009
3.746339e-009
5.859547e-009
6.647118e-009
5.600351e-009
3.126464e-009
2.257581e-010
-2.290016e-009
-4.172171e-009
-5.468474e-009
-6.138624e-009
-6.044516e-009
-5.204085e-009
-3.883467e-009
-2.400993e-009
-9.180695e-010
5.389568e-010
1.920763e-009
3.105359e-009
4.003846e-009
4.647051e-009
5.128758e-009
5.491614e-009
5.708425e-009
5.767100e-009
5.730256e-009
5.688382e-009
5.673699e-009
5.648884e-009
5.580587e-009
5.497641e-009
5.457731e-009
5.467392e-009
5.461743e-009
5.373151e-009
5.199517e-009
4.978813e-009
4.700458e-009
4.276492e-009
3.623126e-009
2.750707e-009
1.738629e-009
6.289174e-010
-6.024187e-010
-1.936548e-009
-3.210429e-009
-4.180631e-009
-4.684797e-009
-4.684340e-009
-4.142061e-009
-2.956694e-009
-1.128648e-009
1.020680e-009
2.911668e-009
4.058544e-009
4.311740e-009
3.713874e-009
2.247852e-009
-3.777226e-011
-2.583412e-009
-4.235075e-009
-3.964575e-009
-1.843276e-009
8.071688e-010
2.417224e-009
2.393023e-009
1.354851e-009
2.757370e-010
-4.206528e-010
-8.682013e-010
-1.130393e-009
-9.283074e-010
-1.108072e-010
8.410105e-010
1.106121e-009
4.096349e-010
-5.636146e-010
-8.330825e-010
-1.844150e-010
5.913039e-010
-7.678246e-009
-2.246097e-009
3.967398e-009
6.560333e-009
4.554587e-009
2.394016e-010
-3.387325e-009
-4.770417e-009
-3.946565e-009
-1.549249e-009
1.661354e-009
4.466058e-009
5.232751e-009
3.055633e-009
-1.034590e-009
-4.422372e-009
-4.912433e-009
-2.530922e-009
6.889132e-010
2.645439e-009
2.789114e-009
1.949195e-009
9.749239e-010
-8.333560e-011
-1.504099e-009
-3.035926e-009
-3.855110e-009
-3.355277e-009
-1.747101e-009
2.138802e-010
1.949770e-009
3.379943e-009
4.620085e-009
5.595110e-009
6.057748e-009
5.889538e-009
5.239768e-009
4.354640e-009
3.361003e-009
2.262144e-009
1.081104e-009
-7.626076e-011
-1.102870e-009
-1.974712e-009
-2.722764e-009
-3.351988e-009
-3.826960e-009
-4.129472e-009
-4.290263e-009
-4.346731e-009
-4.292282e-009
-4.092403e-009
-3.740984e-009
-3.271078e-009
-2.704098e-009
-2.016980e-009
-1.183847e-009
-2.357238e-010
7.526478e-010
1.732869e-009
2.698265e-009
3.606048e-009
4.320231e-009
4.685580e-009
4.654231e-009
4.282314e-009
3.587343e-009
2.491503e-009
9.982070e-010
-6.007635e-010
-1.820784e-009
-2.356825e-009
-2.292372e-009
-1.858290e-009
-1.068809e-009
1.993671e-010
1.699512e-009
2.598190e-009
2.069831e-009
2.044039e-010
-1.836511e-009
-2.740752e-009
-2.124184e-009
-6.473926e-010
8.088481e-010
1.831352e-009
2.307396e-009
1.942598e-009
4.374518e-010
-1.732370e-009
-3.106596e-009
-2.347973e-009
2.521073e-010
2.638162e-009
2.744688e-009
5.311142e-010
-1.866989e-009
-2.194652e-009
-3.142515e-010
1.692469e-009
-1.112369e-008
-2.464943e-009
6.756917e-009
9.170223e-009
4.067341e-009
-3.065171e-009
-6.155567e-009
-3.679437e-009
1.045811e-009
3.727332e-009
2.842567e-009
1.569830e-011
-2.338415e-009
-3.094788e-009
-2.438025e-009
-7.642482e-010
1.697608e-009
4.272986e-009
5.569914e-009
4.403950e-009
1.015978e-009
-2.921611e-009
-5.641389e-009
-6.526856e-009
-6.042035e-009
-4.735203e-009
-2.657915e-009
2.336564e-010
3.455420e-009
6.086110e-009
7.475296e-009
7.684541e-009
7.187405e-009
6.289682e-009
4.967031e-009
3.180546e-009
1.150432e-009
-7.624879e-010
-2.355899e-009
-3.671039e-009
-4.810952e-009
-5.771453e-009
-6.477828e-009
-6.918318e-009
-7.175279e-009
-7.337802e-009
-7.434835e-009
-7.462593e-009
-7.436272e-009
-7.386472e-009
-7.324281e-009
-7.239423e-009
-7.125549e-009
-6.977649e-009
-6.762095e-009
-6.420620e-009
-5.920579e-009
-5.274875e-009
-4.484136e-009
-3.483386e-009
-2.201529e-009
-6.840435e-010
8.972282e-010
2.392802e-009
3.782416e-009
5.052306e-009
5.980947e-009
6.171856e-009
5.392721e-009
3.832877e-009
1.923388e-009
-6.940756e-011
-2.111740e-009
-3.998450e-009
-5.063676e-009
-4.578169e-009
-2.533483e-009
1.140229e-010
2.130532e-009
2.907923e-009
2.623064e-009
1.665951e-009
2.499555e-010
-1.286751e-009
-2.134088e-009
-1.497584e-009
3.695336e-010
1.937212e-009
1.666742e-009
-3.433338e-010
-2.208163e-009
-2.029536e-009
1.394339e-010
2.243260e-009
2.241422e-009
1.556505e-010
-1.952488e-009
-2.046396e-009
-1.259042e-010
1.817412e-009
-5.429753e-009
-2.417861e-010
4.598245e-009
4.366554e-009
-4.749000e-010
-4.948641e-009
-4.450642e-009
8.258780e-010
6.086083e-009
6.454349e-009
1.423773e-009
-4.912328e-009
-7.734950e-009
-5.509706e-009
-5.332512e-010
3.766549e-009
5.589112e-009
5.160266e-009
3.358530e-009
7.250157e-010
-2.239719e-009
-4.542526e-009
-5.093178e-009
-3.665659e-009
-1.161952e-009
1.202132e-009
2.820847e-009
3.745863e-009
4.067785e-009
3.590133e-009
2.171686e-009
1.439445e-010
-1.834228e-009
-3.310780e-009
-4.294076e-009
-4.981020e-009
-5.389816e-009
-5.358808e-009
-4.826059e-009
-3.968627e-009
-3.038801e-009
-2.147127e-009
-1.258402e-009
-3.488297e-010
5.083826e-010
1.211607e-009
1.725011e-009
2.077677e-009
2.300523e-009
2.394117e-009
2.343043e-009
2.132198e-009
1.753112e-009
1.220096e-009
5.798511e-010
-1.223279e-010
-8.897513e-010
-1.750540e-009
-2.661988e-009
-3.472620e-009
-4.029493e-009
-4.310059e-009
-4.380509e-009
-4.207398e-009
-3.597404e-009
-2.416883e-009
-8.464346e-010
6.901969e-010
1.878884e-009
2.694179e-009
3.153305e-009
3.009229e-009
1.910326e-009
-5.942060e-011
-2.149171e-009
-3.414370e-009
-3.407452e-009
-2.319762e-009
-5.556172e-010
1.534947e-009
3.386957e-009
4.020368e-009
2.645992e-009
-3.050286e-010
-3.031602e-009
-3.676127e-009
-1.967974e-009
5.336270e-010
1.913852e-009
1.567748e-009
4.110289e-010
-3.363170e-010
-3.193254e-010
-4.294056e-011
-3.360758e-011
-2.736186e-010
-4.013607e-010
-2.108394e-010
1.655296e-010
4.479600e-010
4.066967e-009
1.967543e-009
-9.042257e-010
-3.156588e-009
-3.902838e-009
-2.734472e-009
1.777005e-010
3.589776e-009
5.263107e-009
3.471236e-009
-1.063505e-009
-5.073582e-009
-5.296068e-009
-1.495792e-009
3.162413e-009
4.950995e-009
2.817815e-009
-1.115066e-009
-3.901364e-009
-4.237423e-009
-2.747026e-009
-5.426153e-010
1.850344e-009
4.211428e-009
5.936048e-009
6.166365e-009
4.588949e-009
1.793886e-009
-1.258868e-009
-3.956512e-009
-6.131766e-009
-7.663583e-009
-8.279122e-009
-7.809046e-009
-6.454121e-009
-4.648726e-009
-2.702135e-009
-6.736244e-010
1.428213e-009
3.455644e-009
5.193487e-009
6.553305e-009
7.615352e-009
8.488337e-009
9.189885e-009
9.677972e-009
9.949305e-009
1.006722e-008
1.010710e-008
1.010186e-008
1.003550e-008
9.868499e-009
9.570924e-009
9.147024e-009
8.622914e-009
7.989972e-009
7.167823e-009
6.061867e-009
4.672362e-009
3.109632e-009
1.470184e-009
-2.618967e-010
-2.117528e-009
-3.946363e-009
-5.403577e-009
-6.190275e-009
-6.256533e-009
-5.697028e-009
-4.505751e-009
-2.597771e-009
-1.420928e-010
2.254059e-009
3.855031e-009
4.293963e-009
3.674647e-009
2.247509e-009
2.420580e-010
-1.843809e-009
-3.046176e-009
-2.494628e-009
-3.842990e-010
1.825300e-009
2.517179e-009
1.323223e-009
-6.507246e-010
-1.957999e-009
-1.988576e-009
-1.050373e-009
3.023259e-010
1.599132e-009
2.233444e-009
1.545939e-009
-3.867641e-010
-2.238780e-009
-2.334870e-009
-4.086572e-010
1.793473e-009
2.115120e-009
2.802392e-010
-1.715994e-009
9.791632e-009
1.877630e-009
-6.090040e-009
-7.516220e-009
-2.660904e-009
2.959653e-009
4.576633e-009
2.061588e-009
-1.373157e-009
-2.955425e-009
-2.272337e-009
-3.054186e-010
2.037868e-009
3.962666e-009
4.237697e-009
1.815045e-009
-2.657509e-009
-6.548085e-009
-7.148940e-009
-4.013602e-009
7.649059e-010
4.535586e-009
6.103569e-009
5.871394e-009
4.577348e-009
2.460178e-009
-3.689345e-010
-3.279062e-009
-5.278072e-009
-5.778628e-009
-4.971235e-009
-3.423607e-009
-1.519225e-009
6.149678e-010
2.811621e-009
4.742154e-009
6.132797e-009
6.968786e-009
7.406008e-009
7.545881e-009
7.377231e-009
6.908436e-009
6.261175e-009
5.598007e-009
5.001221e-009
4.460486e-009
3.959407e-009
3.537035e-009
3.262502e-009
3.172603e-009
3.244856e-009
3.426013e-009
3.685141e-009
4.040012e-009
4.521204e-009
5.100136e-009
5.666953e-009
6.104686e-009
6.377250e-009
6.503212e-009
6.432141e-009
6.001702e-009
5.073772e-009
3.692629e-009
2.046680e-009
2.861836e-010
-1.519030e-009
-3.190137e-009
-4.312782e-009
-4.453731e-009
-3.523921e-009
-1.827898e-009
2.494319e-010
2.427022e-009
4.279096e-009
5.005355e-009
3.861423e-009
1.030541e-009
-2.113506e-009
-3.914282e-009
-3.691748e-009
-2.046507e-009
-4.484973e-011
1.587193e-009
2.426055e-009
2.034550e-009
3.320187e-010
-1.680814e-009
-2.245398e-009
-5.554818e-010
1.937120e-009
2.595321e-009
4.058629e-010
-2.566087e-009
-3.107294e-009
-3.814217e-010
2.899745e-009
3.240747e-009
1.874213e-010
-3.061698e-009
8.422945e-009
-2.340116e-010
-7.729061e-009
-6.452898e-009
1.613307e-009
7.788858e-009
5.947288e-009
-1.719833e-009
-7.710715e-009
-6.908873e-009
-8.300656e-010
4.998806e-009
6.604915e-009
4.196899e-009
3.851683e-010
-2.724511e-009
-4.367627e-009
-4.227443e-009
-2.078015e-009
1.414178e-009
4.334313e-009
4.760007e-009
2.444993e-009
-1.017589e-009
-3.722975e-009
-4.894738e-009
-4.824236e-009
-3.860422e-009
-1.931849e-009
9.689629e-010
4.260681e-009
7.023680e-009
8.689536e-009
9.306002e-009
9.173179e-009
8.430859e-009
7.075688e-009
5.223734e-009
3.174486e-009
1.207308e-009
-5.839807e-010
-2.223194e-009
-3.694261e-009
-4.914042e-009
-5.833445e-009
-6.499556e-009
-6.997941e-009
-7.362680e-009
-7.565405e-009
-7.580237e-009
-7.433543e-009
-7.177821e-009
-6.823570e-009
-6.314234e-009
-5.581899e-009
-4.621650e-009
-3.488199e-009
-2.213010e-009
-7.593607e-010
8.993699e-010
2.667022e-009
4.341575e-009
5.755248e-009
6.835176e-009
7.479991e-009
7.448968e-009
6.507379e-009
4.714223e-009
2.466145e-009
1.969139e-010
-1.859399e-009
-3.485485e-009
-4.181908e-009
-3.380172e-009
-1.151531e-009
1.445683e-009
3.009428e-009
2.866232e-009
1.418566e-009
-4.845465e-010
-2.193636e-009
-3.159461e-009
-2.661645e-009
-3.598083e-010
2.696197e-009
4.224192e-009
2.655367e-009
-9.510918e-010
-3.480015e-009
-2.730178e-009
2.769268e-010
2.336370e-009
1.477427e-009
-9.847977e-010
-2.049603e-009
-4.571583e-010
1.927168e-009
2.285887e-009
7.327995e-011
-2.349373e-009
2.347078e-009
-1.972504e-009
-4.745140e-009
-1.886314e-009
4.222207e-009
7.169896e-009
3.377830e-009
-3.919285e-009
-7.809926e-009
-4.678124e-009
2.275644e-009
6.468632e-009
4.459809e-009
-1.207169e-009
-5.196690e-009
-4.576287e-009
-6.770783e-010
3.274619e-009
5.239188e-009
5.038560e-009
3.127766e-009
-1.418323e-010
-3.998826e-009
-6.881906e-009
-7.318321e-009
-5.157366e-009
-1.615315e-009
1.902005e-009
4.767137e-009
6.948324e-009
8.295904e-009
8.401383e-009
7.118224e-009
4.901648e-009
2.472614e-009
2.604247e-010
-1.710290e-009
-3.489107e-009
-4.954477e-009
-5.934317e-009
-6.434861e-009
-6.639112e-009
-6.709392e-009
-6.673873e-009
-6.509840e-009
-6.263596e-009
-6.039100e-009
-5.895411e-009
-5.806257e-009
-5.728739e-009
-5.677048e-009
-5.701330e-009
-5.807370e-009
-5.932818e-009
-6.015142e-009
-6.053547e-009
-6.066847e-009
-5.997703e-009
-5.708585e-009
-5.098538e-009
-4.183174e-009
-3.010158e-009
-1.532811e-009
3.256855e-010
2.440419e-009
4.405538e-009
5.784853e-009
6.403018e-009
6.277717e-009
5.303627e-009
3.244335e-009
2.219919e-010
-2.897147e-009
-4.884906e-009
-5.037209e-009
-3.593416e-009
-1.293418e-009
1.198618e-009
3.235118e-009
3.890832e-009
2.432037e-009
-5.713665e-010
-3.013228e-009
-2.847106e-009
-1.803272e-010
2.549389e-009
2.848959e-009
5.985177e-010
-1.965212e-009
-2.600032e-009
-1.131917e-009
7.856344e-010
1.563576e-009
1.020227e-009
5.931190e-011
-4.813949e-010
-4.581105e-010
-1.873154e-010
3.861935e-011
1.385261e-010
-3.917220e-009
-1.493186e-009
1.371471e-009
2.867131e-009
2.467859e-009
6.882133e-010
-1.461863e-009
-2.621983e-009
-1.572425e-009
1.445231e-009
4.014630e-009
3.214159e-009
-1.260756e-009
-5.983581e-009
-6.611070e-009
-2.102041e-009
4.144286e-009
7.479056e-009
6.070132e-009
1.780913e-009
-2.314745e-009
-4.527425e-009
-4.819693e-009
-3.564743e-009
-9.585407e-010
2.437022e-009
5.362061e-009
6.589583e-009
5.874575e-009
3.928752e-009
1.556754e-009
-9.100005e-010
-3.354170e-009
-5.422870e-009
-6.620680e-009
-6.778065e-009
-6.207663e-009
-5.353373e-009
-4.418235e-009
-3.396284e-009
-2.342457e-009
-1.458395e-009
-9.119703e-010
-6.806529e-010
-6.237907e-010
-6.520888e-010
-7.650336e-010
-9.488206e-010
-1.114839e-009
-1.169169e-009
-1.103619e-009
-9.783798e-010
-8.336890e-010
-6.693554e-010
-5.207538e-010
-5.025532e-010
-7.270979e-010
-1.195907e-009
-1.824993e-009
-2.574351e-009
-3.471305e-009
-4.448451e-009
-5.218405e-009
-5.422755e-009
-4.922782e-009
-3.852115e-009
-2.354597e-009
-4.158177e-010
1.883145e-009
4.004000e-009
5.090615e-009
4.618876e-009
2.829869e-009
4.451275e-010
-1.878884e-009
-3.604379e-009
-4.010269e-009
-2.425628e-009
8.234334e-010
3.937794e-009
4.742352e-009
2.614021e-009
-8.134071e-010
-3.071344e-009
-2.945882e-009
-1.141642e-009
7.787263e-010
1.690284e-009
1.296630e-009
-3.680914e-011
-1.363794e-009
-1.481223e-009
3.123772e-011
1.934939e-009
2.152439e-009
3.076938e-011
-2.489395e-009
-2.663188e-009
-5.008846e-011
2.720147e-009
-7.580663e-009
6.190394e-010
7.344193e-009
5.629069e-009
-1.909567e-009
-7.077709e-009
-5.169646e-009
1.106565e-009
5.741237e-009
5.550752e-009
1.855104e-009
-2.251922e-009
-4.627328e-009
-4.443018e-009
-1.724213e-009
2.290266e-009
4.997528e-009
4.072166e-009
-1.851575e-010
-4.636219e-009
-5.945980e-009
-3.388619e-009
1.041296e-009
4.863991e-009
6.949718e-009
7.360599e-009
6.274354e-009
3.714765e-009
1.392817e-010
-3.353343e-009
-5.703545e-009
-6.609851e-009
-6.433420e-009
-5.583906e-009
-4.248472e-009
-2.658683e-009
-1.313065e-009
-7.518069e-010
-1.191627e-009
-2.503012e-009
-4.498658e-009
-7.111330e-009
-1.027497e-008
-1.375673e-008
-1.720396e-008
-2.032739e-008
-2.296992e-008
-2.501114e-008
-2.629047e-008
-2.666834e-008
-2.612116e-008
-2.472626e-008
-2.257389e-008
-1.975508e-008
-1.644391e-008
-1.292650e-008
-9.495826e-009
-6.345322e-009
-3.619295e-009
-1.538941e-009
-3.690133e-010
-1.984181e-010
-8.133967e-010
-1.863543e-009
-3.105890e-009
-4.368057e-009
-5.286788e-009
-5.286540e-009
-3.994274e-009
-1.636961e-009
1.098454e-009
3.551997e-009
5.263547e-009
5.722085e-009
4.380984e-009
1.341110e-009
-2.066659e-009
-3.883426e-009
-3.074805e-009
-4.529779e-010
2.058982e-009
2.975478e-009
2.029199e-009
-1.361009e-010
-2.411588e-009
-3.393970e-009
-2.019371e-009
1.158901e-009
3.624661e-009
2.908239e-009
-5.575993e-010
-3.272461e-009
-2.246681e-009
1.398902e-009
3.374383e-009
1.159141e-009
-2.797695e-009
-3.756799e-009
-3.388182e-010
3.660639e-009
-8.167381e-009
2.201655e-009
9.790778e-009
5.753660e-009
-4.992127e-009
-1.039212e-008
-5.038432e-009
4.705171e-009
8.738964e-009
4.071906e-009
-3.370389e-009
-6.233512e-009
-2.976532e-009
2.284401e-009
5.062058e-009
4.148006e-009
9.207590e-010
-2.847328e-009
-5.668159e-009
-6.048061e-009
-3.143723e-009
1.967890e-009
6.480232e-009
7.954087e-009
6.175175e-009
2.823922e-009
-3.425317e-010
-2.610909e-009
-3.912690e-009
-4.078324e-009
-2.927831e-009
-8.610356e-010
1.090547e-009
1.899200e-009
1.054077e-009
-1.566891e-009
-6.069881e-009
-1.257579e-008
-2.095721e-008
-3.075336e-008
-4.140690e-008
-5.248965e-008
-6.365320e-008
-7.446127e-008
-8.438763e-008
-9.297344e-008
-9.991282e-008
-1.049793e-007
-1.079482e-007
-1.086441e-007
-1.070294e-007
-1.031938e-007
-9.727890e-008
-8.947579e-008
-8.010333e-008
-6.961926e-008
-5.850578e-008
-4.717891e-008
-3.605603e-008
-2.566433e-008
-1.657020e-008
-9.160809e-009
-3.560527e-009
2.050543e-010
2.074268e-009
2.118390e-009
8.191618e-010
-9.899533e-010
-2.536158e-009
-3.367934e-009
-3.185882e-009
-1.687667e-009
1.061631e-009
4.099581e-009
5.812334e-009
5.093601e-009
2.293643e-009
-1.081276e-009
-3.499915e-009
-4.115470e-009
-2.731621e-009
1.543169e-010
2.985023e-009
3.586298e-009
1.068799e-009
-2.570859e-009
-3.726710e-009
-9.093236e-010
3.139108e-009
4.028980e-009
6.489511e-010
-3.319586e-009
-3.489761e-009
1.294735e-010
3.165066e-009
2.131902e-009
-1.433096e-009
-2.997867e-009
-6.797107e-010
2.500862e-009
-5.862790e-009
1.884301e-009
7.130533e-009
3.427836e-009
-4.548456e-009
-7.141861e-009
-1.335403e-009
5.925074e-009
6.118738e-009
-1.006120e-009
-7.441640e-009
-6.142259e-009
1.481870e-009
7.774786e-009
7.197612e-009
1.217981e-009
-4.524706e-009
-6.122251e-009
-3.821204e-009
3.514246e-012
3.438751e-009
5.447927e-009
5.233641e-009