# vtk DataFile Version 3.0
vtk output
ASCII
DATASET STRUCTURED_POINTS
DIMENSIONS 100 100 1
SPACING 1 1 1
ORIGIN 0 0 0
POINT_DATA 10000
SCALARS SFBox_profile double
LOOKUP_TABLE default 
0.000000e+000
0.000000e+000
0.000000e+000
0.000000e+000
0.000000e+000
0.000000e+000
0.000000e+000
0.000000e+000
0.000000e+000
0.000000e+000
0.000000e+000
0.000000e+000
0.000000e+000
0.000000e+000
0.000000e+000
0.000000e+000
0.000000e+000
0.000000e+000
0.000000e+000
0.000000e+000
0.000000e+000
0.000000e+000
0.000000e+000
0.000000e+000
0.000000e+000
0.000000e+000
0.000000e+000
0.000000e+000
0.000000e+000
0.000000e+000
0.000000e+000
0.000000e+000
0.000000e+000
0.000000e+000
0.000000e+000
0.000000e+000
0.000000e+000
0.000000e+000
0.000000e+000
0.000000e+000
0.000000e+000
0.000000e+000
0.000000e+000
0.000000e+000
0.000000e+000
0.000000e+000
0.000000e+000
0.000000e+000
0.000000e+000
0.000000e+000
0.000000e+000
0.000000e+000
0.000000e+000
0.000000e+000
0.000000e+000
0.000000e+000
0.000000e+000
0.000000e+000
0.000000e+000
0.000000e+000
0.000000e+000
0.000000e+000
0.000000e+000
0.000000e+000
0.000000e+000
0.000000e+000
0.000000e+000
0.000000e+000
0.000000e+000
0.000000e+000
0.000000e+000
0.000000e+000
0.000000e+000
0.000000e+000
0.000000e+000
0.000000e+000
0.000000e+000
0.000000e+000
0.000000e+000
0.000000e+000
0.000000e+000
0.000000e+000
0.000000e+000
0.000000e+000
0.000000e+000
0.000000e+000
0.000000e+000
0.000000e+000
0.000000e+000
0.000000e+000
0.000000e+000
0.000000e+000
0.000000e+000
0.000000e+000
0.000000e+000
0.000000e+000
0.000000e+000
0.000000e+000
0.000000e+000
0.000000e+000
1.809327e-008
1.169481e-008
2.505182e-009
-4.599177e-009
-6.551568e-009
-3.813841e-009
3.966317e-010
2.703696e-009
1.991481e-009
-1.720741e-010
-1.294096e-009
-2.873153e-010
1.670262e-009
2.424101e-009
9.846925e-010
-1.529469e-009
-3.001178e-009
-2.327621e-009
-3.535357e-010
1.110452e-009
1.084270e-009
1.960242e-010
-2.256172e-010
3.566891e-010
1.211201e-009
1.265368e-009
3.179011e-010
-7.816426e-010
-1.080698e-009
-4.871936e-010
2.640896e-010
4.860212e-010
2.266631e-010
7.317977e-011
4.127507e-010
1.027633e-009
1.417005e-009
1.390188e-009
1.238948e-009
1.352378e-009
1.771495e-009
2.182512e-009
2.298484e-009
2.159250e-009
2.035992e-009
2.105707e-009
2.285888e-009
2.379786e-009
2.316170e-009
2.202244e-009
2.166818e-009
2.208529e-009
2.218573e-009
2.121470e-009
1.957204e-009
1.825399e-009
1.774250e-009
1.755862e-009
1.678106e-009
1.490145e-009
1.227749e-009
9.883358e-010
8.532094e-010
8.131957e-010
7.689744e-010
6.275263e-010
4.108461e-010
2.461133e-010
2.171187e-010
2.363674e-010
1.175284e-010
-1.923580e-010
-4.883659e-010
-4.836726e-010
-1.309034e-010
2.845727e-010
4.307950e-010
2.953184e-010
1.931847e-010
3.704009e-010
6.528750e-010
5.864599e-010
-3.735999e-011
-8.544069e-010
-1.210200e-009
-7.962953e-010
2.888105e-011
5.857942e-010
5.289696e-010
1.338756e-010
-5.654226e-011
1.749742e-010
5.079175e-010
4.455310e-010
-1.452687e-010
-8.577524e-010
-1.088553e-009
-5.669982e-010
3.973263e-010
1.139861e-009
4.115298e-009
2.386140e-009
-1.228573e-011
-1.648738e-009
-1.661610e-009
-3.264820e-010
1.168250e-009
1.618527e-009
7.244928e-010
-7.023431e-010
-1.449834e-009
-9.551506e-010
2.299367e-010
9.922627e-010
7.161113e-010
-1.679633e-010
-6.734878e-010
-2.793189e-010
5.630506e-010
9.399374e-010
4.422331e-010
-4.337855e-010
-8.435486e-010
-4.753454e-010
1.865086e-010
4.457308e-010
1.393301e-010
-2.591602e-010
-2.264178e-010
2.314969e-010
6.317164e-010
5.796453e-010
1.832458e-010
-1.164350e-010
-5.276958e-011
2.074840e-010
3.052701e-010
1.086257e-010
-1.689425e-010
-2.446331e-010
-8.583829e-011
8.491136e-011
6.749959e-011
-9.731786e-011
-2.039517e-010
-1.316633e-010
3.205060e-011
1.158204e-010
6.503068e-011
-1.583598e-011
-4.378275e-012
9.927412e-011
1.895371e-010
1.871616e-010
1.224287e-010
8.736097e-011
1.310619e-010
2.174613e-010
2.743363e-010
2.659350e-010
2.187694e-010
1.910246e-010
2.201930e-010
2.880334e-010
3.304676e-010
2.955995e-010
2.065572e-010
1.566509e-010
2.159812e-010
3.372462e-010
3.824298e-010
2.704638e-010
8.592564e-011
8.769744e-013
7.399613e-011
1.627656e-010
7.970700e-011
-1.685420e-010
-3.499513e-010
-2.523461e-010
6.106305e-011
2.929559e-010
2.268807e-010
-3.316104e-011
-1.770261e-010
-3.549491e-011
2.291570e-010
3.028150e-010
6.721848e-011
-2.676250e-010
-3.822768e-010
-1.723791e-010
1.601305e-010
3.196465e-010
1.940881e-010
-7.138608e-011
-2.369573e-010
-1.808652e-010
2.383741e-011
1.961113e-010
-1.249668e-008
-8.402212e-009
-2.450414e-009
2.371397e-009
4.199480e-009
3.217089e-009
1.084720e-009
-5.044387e-010
-9.444831e-010
-7.425698e-010
-6.768879e-010
-9.773722e-010
-1.224556e-009
-8.993843e-010
4.828343e-011
1.138412e-009
1.774882e-009
1.690601e-009
1.054511e-009
2.489834e-010
-4.118507e-010
-8.024317e-010
-9.371804e-010
-8.744856e-010
-6.643870e-010
-3.449013e-010
4.352769e-011
4.421645e-010
7.655482e-010
9.186639e-010
8.480067e-010
5.940299e-010
2.868449e-010
6.460824e-011
-2.750332e-011
-6.393359e-011
-1.576928e-010
-3.459885e-010
-5.576349e-010
-6.956473e-010
-7.433725e-010
-7.741888e-010
-8.541676e-010
-9.541961e-010
-9.806434e-010
-8.923457e-010
-7.626906e-010
-7.059534e-010
-7.501763e-010
-8.066960e-010
-7.727009e-010
-6.452635e-010
-5.158675e-010
-4.610724e-010
-4.636779e-010
-4.487910e-010
-3.754123e-010
-2.694326e-010
-1.732137e-010
-9.099931e-011
2.091644e-012
1.133801e-010
2.169357e-010
2.835037e-010
3.086377e-010
3.064396e-010
2.924851e-010
2.872464e-010
3.243386e-010
4.279998e-010
5.714316e-010
6.734590e-010
6.571874e-010
5.144263e-010
3.022897e-010
7.681177e-011
-1.536727e-010
-3.972997e-010
-6.108595e-010
-6.869567e-010
-5.275296e-010
-1.382027e-010
3.455105e-010
7.238692e-010
8.397169e-010
6.580166e-010
2.785322e-010
-1.224704e-010
-3.930218e-010
-4.872355e-010
-4.625899e-010
-3.886849e-010
-2.565088e-010
2.557297e-012
3.865946e-010
7.225283e-010
7.437015e-010
3.224708e-010
-3.538142e-010
-8.645284e-010
-1.881886e-008
-1.197501e-008
-2.289252e-009
4.944209e-009
6.601647e-009
3.475502e-009
-8.432315e-010
-2.919665e-009
-1.902335e-009
3.775890e-010
1.443738e-009
4.247098e-010
-1.409569e-009
-2.090639e-009
-8.673933e-010
1.192022e-009
2.330732e-009
1.749135e-009
1.943279e-010
-9.267522e-010
-8.992756e-010
-1.921556e-010
2.436017e-010
8.014651e-012
-4.468374e-010
-4.341381e-010
1.954403e-010
9.415805e-010
1.227903e-009
9.767829e-010
5.983440e-010
5.013068e-010
7.090009e-010
9.488578e-010
1.017205e-009
9.725445e-010
9.931015e-010
1.137832e-009
1.301676e-009
1.369151e-009
1.344105e-009
1.315800e-009
1.345487e-009
1.423414e-009
1.514684e-009
1.599597e-009
1.661044e-009
1.671650e-009
1.625459e-009
1.568241e-009
1.562488e-009
1.616444e-009
1.671462e-009
1.671659e-009
1.626719e-009
1.586168e-009
1.566182e-009
1.534889e-009
1.474413e-009
1.422513e-009
1.422814e-009
1.449024e-009
1.418858e-009
1.294402e-009
1.136424e-009
1.029218e-009
9.682498e-010
8.670131e-010
6.886355e-010
5.300580e-010
5.264486e-010
6.719149e-010
7.828487e-010
6.780810e-010
3.829104e-010
1.114061e-010
2.837495e-011
5.919189e-011
-1.973438e-011
-2.935187e-010
-5.510594e-010
-4.655278e-010
4.637569e-011
6.660068e-010
9.147894e-010
5.879209e-010
-4.359349e-011
-4.747652e-010
-4.294702e-010
-9.742719e-011
8.538621e-011
-1.044991e-010
-4.367462e-010
-4.520571e-010
5.502628e-011
7.671727e-010
1.072990e-009
6.101074e-010
-3.687179e-010
-1.155586e-009
-1.100156e-008
-6.211927e-009
2.912007e-010
4.492862e-009
4.212314e-009
5.246048e-010
-3.219813e-009
-4.038892e-009
-1.564546e-009
1.894246e-009
3.465951e-009
2.154744e-009
-5.073390e-010
-2.067633e-009
-1.434228e-009
3.028214e-010
1.166724e-009
3.111102e-010
-1.246174e-009
-1.793354e-009
-6.951235e-010
1.049380e-009
1.922780e-009
1.413512e-009
3.742906e-010
-2.293759e-011
4.930952e-010
1.176251e-009
1.228861e-009
6.878131e-010
2.925040e-010
6.058238e-010
1.434362e-009
2.134882e-009
2.350033e-009
2.313393e-009
2.466346e-009
2.926704e-009
3.419617e-009
3.657485e-009
3.656337e-009
3.648474e-009
3.777082e-009
3.965230e-009
4.062865e-009
4.032343e-009
3.951907e-009
3.890762e-009
3.844680e-009
3.786012e-009
3.718718e-009
3.659707e-009
3.601146e-009
3.526575e-009
3.448020e-009
3.388447e-009
3.328594e-009
3.213323e-009
3.031718e-009
2.856683e-009
2.761972e-009
2.710960e-009
2.581544e-009
2.323552e-009
2.046358e-009
1.894515e-009
1.846540e-009
1.706300e-009
1.336613e-009
8.620731e-010
5.667542e-010
5.748957e-010
6.941977e-010
6.360773e-010
3.724620e-010
1.941602e-010
3.668927e-010
7.691925e-010
9.560171e-010
6.214411e-010
-3.996993e-011
-4.947473e-010
-4.098918e-010
3.355763e-012
2.193828e-010
-3.519374e-011
-4.813873e-010
-5.778852e-010
-1.015869e-010
5.860700e-010
8.664098e-010
4.594269e-010
-2.992497e-010
-7.630359e-010
-5.602207e-010
8.767713e-011
5.888503e-010
5.175215e-010
-2.431791e-011
-5.231833e-010
3.524099e-009
3.245298e-009
2.550562e-009
1.263219e-009
-5.770554e-010
-2.434402e-009
-3.346841e-009
-2.550055e-009
-2.589897e-010
2.188814e-009
3.208549e-009
2.243265e-009
2.564298e-010
-1.127682e-009
-1.091129e-009
-2.777151e-010
1.866088e-011
-7.091743e-010
-1.627147e-009
-1.474085e-009
3.568313e-011
1.831947e-009
2.542719e-009
1.852083e-009
7.264796e-010
3.275465e-010
8.388889e-010
1.450203e-009
1.403496e-009
8.571511e-010
6.288328e-010
1.205037e-009
2.194038e-009
2.800216e-009
2.698848e-009
2.302627e-009
2.200026e-009
2.495131e-009
2.789904e-009
2.722412e-009
2.363482e-009
2.050871e-009
1.954289e-009
1.920573e-009
1.722973e-009
1.346479e-009
9.728994e-010
7.482035e-010
6.468827e-010
5.578848e-010
4.291050e-010
2.931963e-010
1.989015e-010
1.722016e-010
2.304067e-010
3.764346e-010
5.633655e-010
7.112701e-010
7.971828e-010
9.014320e-010
1.113266e-009
1.393529e-009
1.590645e-009
1.626459e-009
1.619986e-009
1.754859e-009
2.021293e-009
2.165186e-009
1.954844e-009
1.470424e-009
1.050765e-009
9.277117e-010
9.737585e-010
8.794606e-010
5.631853e-010
3.140278e-010
4.659279e-010
9.638320e-010
1.339907e-009
1.164337e-009
4.883325e-010
-2.077290e-010
-5.013821e-010
-4.164239e-010
-3.076485e-010
-4.062790e-010
-5.509071e-010
-3.940453e-010
1.642504e-010
8.014425e-010
1.043232e-009
6.926476e-010
-7.498991e-012
-6.021841e-010
-7.866101e-010
-5.760540e-010
-1.973126e-010
1.291476e-010
3.153155e-010
3.853749e-010
1.346071e-008
8.677283e-009
2.012525e-009
-2.887866e-009
-4.141994e-009
-2.508932e-009
-2.006607e-010
1.057647e-009
1.031325e-009
5.063946e-010
1.974113e-010
1.869465e-010
2.020900e-010
1.166709e-010
3.712094e-011
2.041359e-011
-5.836887e-011
-2.654703e-010
-3.646555e-010
-5.981217e-012
7.962220e-010
1.510467e-009
1.567344e-009
9.985480e-010
4.764687e-010
6.312109e-010
1.378110e-009
2.025947e-009
2.054724e-009
1.670895e-009
1.505397e-009
1.825572e-009
2.193683e-009
1.959802e-009
9.908717e-010
-2.121220e-010
-1.104945e-009
-1.675516e-009
-2.358877e-009
-3.465146e-009
-4.831748e-009
-6.065702e-009
-7.012179e-009
-7.873467e-009
-8.892873e-009
-1.003862e-008
-1.105425e-008
-1.175552e-008
-1.219254e-008
-1.252758e-008
-1.283339e-008
-1.304889e-008
-1.308036e-008
-1.288041e-008
-1.243933e-008
-1.176712e-008
-1.091427e-008
-9.966670e-009
-8.970822e-009
-7.880292e-009
-6.630031e-009
-5.272552e-009
-3.985371e-009
-2.898585e-009
-1.944812e-009
-9.480648e-010
1.226351e-010
1.047424e-009
1.561324e-009
1.650942e-009
1.582455e-009
1.608231e-009
1.692787e-009
1.589261e-009
1.181264e-009
6.811696e-010
4.391965e-010
5.744233e-010
8.461165e-010
9.045002e-010
6.345523e-010
2.273138e-010
-5.676584e-011
-1.373848e-010
-1.196591e-010
-1.116679e-010
-1.042082e-010
-3.332638e-011
9.938755e-011
2.188924e-010
2.705486e-010
2.647659e-010
2.100087e-010
5.355042e-011
-2.431358e-010
-5.650838e-010
-6.505255e-010
-3.165107e-010
3.039135e-010
7.966953e-010
1.313724e-008
7.051359e-009
-8.996373e-010
-5.533839e-009
-4.563715e-009
2.357832e-011
3.981177e-009
4.320361e-009
1.374989e-009
-2.055088e-009
-3.366503e-009
-2.153751e-009
-1.555607e-011
1.238512e-009
1.116752e-009
4.539464e-010
2.667700e-010
7.741846e-010
1.421841e-009
1.602922e-009
1.213145e-009
6.023334e-010
1.909769e-010
2.083480e-010
6.683407e-010
1.411641e-009
2.132027e-009
2.490393e-009
2.335372e-009
1.811849e-009
1.165792e-009
4.102169e-010
-7.505095e-010
-2.602925e-009
-5.064905e-009
-7.727715e-009
-1.027843e-008
-1.281316e-008
-1.567004e-008
-1.898474e-008
-2.249684e-008
-2.581844e-008
-2.882107e-008
-3.168450e-008
-3.458700e-008
-3.743685e-008
-3.994991e-008
-4.193675e-008
-4.344159e-008
-4.460481e-008
-4.545968e-008
-4.590144e-008
-4.581278e-008
-4.515809e-008
-4.395862e-008
-4.223719e-008
-4.002445e-008
-3.738777e-008
-3.440469e-008
-3.111102e-008
-2.752273e-008
-2.373143e-008
-1.994102e-008
-1.636019e-008
-1.305732e-008
-9.961606e-009
-7.028272e-009
-4.373467e-009
-2.205856e-009
-6.253950e-010
4.735137e-010
1.277826e-009
1.855740e-009
2.112209e-009
1.946807e-009
1.432692e-009
8.240916e-010
3.933843e-010
2.621416e-010
3.632031e-010
5.282012e-010
6.080188e-010
5.538066e-010
4.323894e-010
3.656512e-010
4.105365e-010
4.667230e-010
3.309384e-010
-9.347694e-011
-6.151190e-010
-8.336381e-010
-4.876815e-010
2.345449e-010
7.746727e-010
6.772897e-010
3.279571e-011
-5.699465e-010
-5.841080e-010
-2.975942e-011
5.251585e-010
5.549987e-009
1.585115e-009
-3.194414e-009
-5.009363e-009
-2.476331e-009
2.304909e-009
5.491767e-009
4.631323e-009
5.733314e-010
-3.410774e-009
-4.456989e-009
-2.369480e-009
5.938118e-010
1.998290e-009
1.333075e-009
6.684291e-011
-1.127833e-010
1.031967e-009
2.287312e-009
2.407594e-009
1.363754e-009
2.316949e-010
4.342176e-011
8.702735e-010
1.941901e-009
2.451827e-009
2.143493e-009
1.222964e-009
-9.534092e-011
-1.868029e-009
-4.341861e-009
-7.723331e-009
-1.204599e-008
-1.718502e-008
-2.294657e-008
-2.917692e-008
-3.584884e-008
-4.304966e-008
-5.083716e-008
-5.907500e-008
-6.743113e-008
-7.557269e-008
-8.336244e-008
-9.084075e-008
-9.801853e-008
-1.047250e-007
-1.106816e-007
-1.156976e-007
-1.197507e-007
-1.228717e-007
-1.249965e-007
-1.259642e-007
-1.256463e-007
-1.240337e-007
-1.211902e-007
-1.171578e-007
-1.119441e-007
-1.055929e-007
-9.823218e-008
-9.004027e-008
-8.119283e-008
-7.187566e-008
-6.234278e-008
-5.292187e-008
-4.392597e-008
-3.555221e-008
-2.787619e-008
-2.094755e-008
-1.487768e-008
-9.817517e-009
-5.843173e-009
-2.871162e-009
-7.033483e-010
8.276922e-010
1.753889e-009
2.026601e-009
1.698424e-009
1.052544e-009
5.158326e-010
3.878897e-010
6.222204e-010
8.877735e-010
8.862292e-010
6.331651e-010
4.169762e-010
4.614550e-010
6.382218e-010
5.569882e-010
-1.513692e-011
-8.223315e-010
-1.255560e-009
-8.864336e-010
9.344207e-011
9.763523e-010
1.129386e-009
5.344638e-010
-2.310349e-010
-5.501914e-010
-3.194041e-010
2.892888e-011
-2.487108e-009
-2.567382e-009
-2.364299e-009
-1.434406e-009
2.621843e-010
2.025102e-009
2.696889e-009
1.595310e-009
-6.566478e-010
-2.363180e-009
-2.122226e-009
-1.502041e-010
1.812274e-009
2.087748e-009
6.480537e-010
-9.045142e-010
-9.627456e-010
5.179180e-010
2.100868e-009
2.435168e-009
1.605794e-009
8.845255e-010
1.257390e-009
2.347754e-009
2.797270e-009
1.552072e-009
-1.359651e-009
-5.256220e-009
-9.793362e-009
-1.540434e-008
-2.283895e-008
-3.244220e-008
-4.395326e-008
-5.690983e-008
-7.110831e-008
-8.664553e-008
-1.036094e-007
-1.218176e-007
-1.408406e-007
-1.601994e-007
-1.795077e-007
-1.984765e-007
-2.168543e-007
-2.343864e-007
-2.508001e-007
-2.658059e-007
-2.791208e-007
-2.905122e-007
-2.998119e-007
-3.068689e-007
-3.114883e-007
-3.134453e-007
-3.125817e-007
-3.088806e-007
-3.024228e-007
-2.932732e-007
-2.814394e-007
-2.669714e-007
-2.500913e-007
-2.311997e-007
-2.107494e-007
-1.891420e-007
-1.667810e-007
-1.442097e-007
-1.221339e-007
-1.012440e-007
-8.199336e-008
-6.456901e-008
-4.908401e-008
-3.575893e-008
-2.485253e-008
-1.639442e-008
-1.003521e-008
-5.236297e-009
-1.642409e-009
7.584315e-010
1.879091e-009
1.923580e-009
1.475598e-009
1.148241e-009
1.144418e-009
1.196575e-009
9.578009e-010
4.321843e-010
-7.982736e-012
-2.344443e-011
3.132604e-010
5.705394e-010
3.891154e-010
-1.531094e-010
-6.088819e-010
-5.846246e-010
-9.982257e-011
4.481580e-010
6.502993e-010
4.227705e-010
2.066457e-011
-2.389523e-010
-2.557306e-010
-1.745519e-010
-6.959895e-009
-3.416368e-009
9.800022e-010
3.181857e-009
2.232199e-009
-3.507462e-010
-2.280746e-009
-2.415914e-009
-1.185108e-009
3.728655e-010
1.585420e-009
2.232977e-009
2.154833e-009
1.238159e-009
-1.548415e-010
-1.099074e-009
-8.020205e-010
5.653202e-010
1.932323e-009
2.369381e-009
1.991823e-009
1.664867e-009
1.783781e-009
1.488988e-009
-7.849599e-010
-6.027244e-009
-1.404683e-008
-2.416281e-008
-3.635157e-008
-5.156421e-008
-7.092798e-008
-9.477801e-008
-1.225466e-007
-1.534895e-007
-1.873335e-007
-2.241582e-007
-2.637747e-007
-3.053854e-007
-3.478767e-007
-3.903465e-007
-4.322823e-007
-4.732995e-007
-5.128416e-007
-5.501863e-007
-5.846716e-007
-6.158316e-007
-6.433200e-007
-6.667769e-007
-6.858047e-007
-7.000272e-007
-7.091154e-007
-7.127703e-007
-7.107484e-007
-7.029344e-007
-6.893552e-007
-6.700836e-007
-6.451606e-007
-6.146867e-007
-5.790245e-007
-5.388763e-007
-4.951179e-007
-4.485747e-007
-4.000261e-007
-3.504469e-007
-3.011653e-007
-2.536635e-007
-2.091574e-007
-1.683766e-007
-1.317580e-007
-9.977442e-008
-7.294676e-008
-5.147090e-008
-3.489021e-008
-2.225493e-008
-1.267724e-008
-5.729123e-009
-1.289404e-009
9.421176e-010
1.684959e-009
1.793806e-009
1.773025e-009
1.624507e-009
1.168383e-009
4.560271e-010
-1.650215e-010
-3.543432e-010
-8.270977e-011
3.734060e-010
6.892315e-010
7.133258e-010
4.851221e-010
1.308600e-010
-2.091329e-010
-4.000624e-010
-3.576170e-010
-1.257051e-010
1.181005e-010
1.938665e-010
8.275108e-011
-5.686064e-011
-8.408086e-009
-2.847516e-009
3.687168e-009
6.069846e-009
2.968174e-009
-2.406287e-009
-5.485850e-009
-4.250137e-009
-3.745252e-010
2.885986e-009
3.613502e-009
2.287618e-009
6.059617e-010
-2.322662e-010
-1.308850e-010
4.613055e-010
1.204358e-009
1.927064e-009
2.395686e-009
2.341161e-009
1.672700e-009
3.680297e-010
-2.039163e-009
-6.762845e-009
-1.533174e-008
-2.877063e-008
-4.731800e-008
-7.105410e-008
-1.007270e-007
-1.377616e-007
-1.833410e-007
-2.375228e-007
-2.993160e-007
-3.675521e-007
-4.415210e-007
-5.207097e-007
-6.040806e-007
-6.898342e-007
-7.759680e-007
-8.609916e-007
-9.440328e-007
-1.024331e-006
-1.100800e-006
-1.172142e-006
-1.237287e-006
-1.295583e-006
-1.346575e-006
-1.389712e-006
-1.424334e-006
-1.449860e-006
-1.465867e-006
-1.471987e-006
-1.467828e-006
-1.453066e-006
-1.427567e-006
-1.391353e-006
-1.344476e-006
-1.287060e-006
-1.219553e-006
-1.142917e-006
-1.058498e-006
-9.677321e-007
-8.720629e-007
-7.732227e-007
-6.735009e-007
-5.755824e-007
-4.819999e-007
-3.947048e-007
-3.151275e-007
-2.445082e-007
-1.839592e-007
-1.340685e-007
-9.446761e-008
-6.390309e-008
-4.082863e-008
-2.397292e-008
-1.240445e-008
-5.195449e-009
-1.192872e-009
8.069882e-010
1.698021e-009
1.926311e-009
1.679862e-009
1.143530e-009
5.605061e-010
1.339494e-010
-3.496089e-011
8.410957e-011
4.533079e-010
8.882305e-010
1.052908e-009
6.785975e-010
-1.325407e-010
-8.731256e-010
-1.014604e-009
-4.921231e-010
2.136165e-010
5.270379e-010
3.219585e-010
-4.892596e-012
-8.462346e-009
-3.045164e-009
3.282720e-009
5.528895e-009
2.520137e-009
-2.403156e-009
-4.709358e-009
-2.723828e-009
1.291223e-009
3.665365e-009
2.739129e-009
-1.481764e-011
-1.812571e-009
-1.184700e-009
1.083081e-009
3.154908e-009
3.894775e-009
3.446683e-009
2.454836e-009
1.029098e-009
-1.582598e-009
-6.672094e-009
-1.572583e-008
-3.035427e-008
-5.227914e-008
-8.318682e-008
-1.246207e-007
-1.781088e-007
-2.453023e-007
-3.276887e-007
-4.258809e-007
-5.391061e-007
-6.654588e-007
-8.027011e-007
-9.487822e-007
-1.101604e-006
-1.258486e-006
-1.416164e-006
-1.571487e-006
-1.722132e-006
-1.866582e-006
-2.003493e-006
-2.131263e-006
-2.248250e-006
-2.353299e-006
-2.445866e-006
-2.525621e-006
-2.592038e-006
-2.644438e-006
-2.682289e-006
-2.705298e-006
-2.713174e-006
-2.705421e-006
-2.681461e-006
-2.640890e-006
-2.583510e-006
-2.509149e-006
-2.417617e-006
-2.308989e-006
-2.183948e-006
-2.043812e-006
-1.890288e-006
-1.725369e-006
-1.551603e-006
-1.372444e-006
-1.192192e-006
-1.015428e-006
-8.464049e-007
-6.888205e-007
-5.459045e-007
-4.203605e-007
-3.139436e-007
-2.269890e-007
-1.583752e-007
-1.060125e-007
-6.746497e-008
-4.029907e-008
-2.214211e-008
-1.071712e-008
-4.000678e-009
-3.828473e-010
1.321357e-009
1.956282e-009
2.057298e-009
1.841691e-009
1.324544e-009
5.890836e-010
-3.994089e-011
-1.747459e-010
2.334836e-010
7.344279e-010
7.421272e-010
1.219439e-010
-6.231985e-010
-8.237554e-010
-3.195789e-010
3.717135e-010
5.895298e-010
2.082950e-010
-2.637426e-010
-6.521178e-009
-3.381663e-009
4.138686e-010
2.118775e-009
1.105409e-009
-7.828521e-010
-1.176832e-009
4.819894e-010
2.466366e-009
2.572467e-009
3.996850e-010
-2.156183e-009
-2.663975e-009
-4.174994e-010
2.983235e-009
5.158168e-009
4.932636e-009
2.832746e-009
-2.189931e-010
-4.564841e-009
-1.228687e-008
-2.637139e-008
-4.969894e-008
-8.485146e-008
-1.346140e-007
-2.023296e-007
-2.915905e-007
-4.054960e-007
-5.459788e-007
-7.134064e-007
-9.063917e-007
-1.121827e-006
-1.355271e-006
-1.601595e-006
-1.855517e-006
-2.111738e-006
-2.364900e-006
-2.609853e-006
-2.842291e-006
-3.059249e-006
-3.258945e-006
-3.440165e-006
-3.601880e-006
-3.743461e-006
-3.865071e-006
-3.967592e-006
-4.052036e-006
-4.119075e-006
-4.169124e-006
-4.202710e-006
-4.220507e-006
-4.222949e-006
-4.209901e-006
-4.180770e-006
-4.134830e-006
-4.071283e-006
-3.988987e-006
-3.886303e-006
-3.761367e-006
-3.612614e-006
-3.439106e-006
-3.240575e-006
-3.017522e-006
-2.771636e-006
-2.506339e-006
-2.226995e-006
-1.940556e-006
-1.654883e-006
-1.378104e-006
-1.118079e-006
-8.817993e-007
-6.746413e-007
-4.997018e-007
-3.575480e-007
-2.464732e-007
-1.630811e-007
-1.029716e-007
-6.142173e-008
-3.398506e-008
-1.686426e-008
-6.960478e-009
-1.732647e-009
8.442460e-010
2.116382e-009
2.635258e-009
2.411042e-009
1.475372e-009
2.742016e-010
-5.039471e-010
-4.867155e-010
5.006345e-011
4.684055e-010
3.960722e-010
4.322106e-011
-1.072551e-010
1.283263e-010
4.335979e-010
3.683022e-010
-1.127800e-010
-5.804903e-010
-8.816607e-010
-1.495167e-009
-2.057435e-009
-1.860618e-009
-7.580015e-010
7.849865e-010
2.081074e-009
2.583202e-009
2.032856e-009
5.865734e-010
-1.025444e-009
-1.662152e-009
-5.127731e-010
2.051689e-009
4.437784e-009
4.885951e-009
2.679000e-009
-1.838219e-009
-8.675437e-009
-1.979513e-008
-3.940968e-008
-7.284590e-008
-1.252753e-007
-2.015311e-007
-3.068078e-007
-4.469391e-007
-6.273743e-007
-8.513438e-007
-1.118465e-006
-1.424512e-006
-1.762052e-006
-2.121284e-006
-2.490822e-006
-2.858575e-006
-3.212801e-006
-3.543090e-006
-3.841028e-006
-4.100555e-006
-4.318181e-006
-4.492963e-006
-4.626100e-006
-4.720279e-006
-4.779185e-006
-4.807428e-006
-4.810540e-006
-4.794590e-006
-4.765447e-006
-4.728269e-006
-4.687583e-006
-4.647621e-006
-4.612264e-006
-4.584529e-006
-4.566109e-006
-4.557372e-006
-4.557578e-006
-4.564783e-006
-4.575379e-006
-4.583714e-006
-4.582253e-006
-4.562187e-006
-4.514150e-006
-4.428884e-006
-4.298026e-006
-4.115228e-006
-3.877462e-006
-3.586127e-006
-3.247566e-006
-2.872836e-006
-2.476777e-006
-2.076469e-006
-1.689303e-006
-1.330956e-006
-1.013646e-006
-7.449803e-007
-5.275396e-007
-3.592630e-007
-2.345730e-007
-1.459970e-007
-8.577238e-008
-4.688923e-008
-2.338540e-008
-1.023271e-008
-3.330099e-009
2.427898e-010
2.054888e-009
2.630118e-009
2.154685e-009
1.056439e-009
2.453773e-011
-4.119924e-010
-2.273601e-010
1.972457e-010
4.746429e-010
5.021002e-010
4.109291e-010
3.237766e-010
2.186398e-010
1.433884e-011
-2.700245e-010
-4.852060e-010
7.428981e-009
2.994654e-009
-2.210134e-009
-4.219406e-009
-2.180236e-009
1.358426e-009
3.190730e-009
2.285866e-009
1.475148e-010
-1.067666e-009
-4.374504e-010
1.445947e-009
3.416640e-009
4.541156e-009
4.181742e-009
1.748946e-009
-3.451072e-009
-1.256616e-008
-2.809761e-008
-5.489175e-008
-1.002650e-007
-1.730049e-007
-2.821385e-007
-4.364370e-007
-6.443965e-007
-9.133906e-007
-1.247244e-006
-1.643173e-006
-2.090006e-006
-2.568757e-006
-3.054970e-006
-3.521487e-006
-3.940904e-006
-4.287904e-006
-4.541680e-006
-4.688005e-006
-4.720194e-006
-4.638745e-006
-4.450200e-006
-4.165854e-006
-3.800561e-006
-3.371582e-006
-2.897544e-006
-2.397690e-006
-1.891309e-006
-1.397090e-006
-9.323921e-007
-5.127968e-007
-1.522015e-007
1.368832e-007
3.433988e-007
4.582675e-007
4.749450e-007
3.896758e-007
2.016977e-007
-8.616543e-008
-4.665068e-007
-9.264027e-007
-1.446998e-006
-2.003730e-006
-2.567112e-006
-3.104079e-006
-3.579991e-006
-3.961372e-006
-4.219272e-006
-4.332928e-006
-4.293081e-006
-4.104107e-006
-3.784199e-006
-3.363274e-006
-2.878948e-006
-2.371393e-006
-1.878047e-006
-1.429069e-006
-1.044332e-006
-7.325370e-007
-4.925882e-007
-3.166396e-007
-1.935788e-007
-1.117460e-007
-6.038740e-008
-3.018845e-008
-1.353499e-008
-4.784180e-009
-3.431926e-010
1.697707e-009
2.265633e-009
1.937901e-009
1.223102e-009
5.452384e-010
1.569581e-010
1.111168e-010
2.839341e-010
4.424568e-010
3.842963e-010
9.952965e-011
-2.014819e-010
-2.760626e-010
-9.612106e-011
1.142800e-010
1.355124e-008
6.958176e-009
-9.134096e-010
-4.384538e-009
-2.364817e-009
1.420450e-009
2.678753e-009
6.675375e-010
-1.755949e-009
-1.564478e-009
1.437444e-009
4.844342e-009
6.191104e-009
4.785667e-009
1.170527e-009
-4.783267e-009
-1.524240e-008
-3.464587e-008
-6.963841e-008
-1.293740e-007
-2.257602e-007
-3.728482e-007
-5.852721e-007
-8.761703e-007
-1.254560e-006
-1.721581e-006
-2.265710e-006
-2.858751e-006
-3.455169e-006
-3.996028e-006
-4.416333e-006
-4.653218e-006
-4.653060e-006
-4.376980e-006
-3.804646e-006
-2.935853e-006
-1.789207e-006
-3.982629e-007
1.193385e-006
2.936442e-006
4.779136e-006
6.669668e-006
8.558233e-006
1.039846e-005
1.214816e-005
1.376955e-005
1.522931e-005
1.649838e-005
1.755136e-005
1.836582e-005
1.892185e-005
1.920221e-005
1.919260e-005
1.888212e-005
1.826406e-005
1.733735e-005
1.610865e-005
1.459469e-005
1.282444e-005
1.084101e-005
8.702638e-006
6.482339e-006
4.265710e-006
2.146590e-006
2.203874e-007
-1.424903e-006
-2.719102e-006
-3.619710e-006
-4.118738e-006
-4.244441e-006
-4.057147e-006
-3.639723e-006
-3.084490e-006
-2.479213e-006
-1.895307e-006
-1.380921e-006
-9.600887e-007
-6.369813e-007
-4.026869e-007
-2.417996e-007
-1.372254e-007
-7.303611e-008
-3.592667e-008
-1.577054e-008
-5.515006e-009
-6.373328e-010
1.519876e-009
2.313102e-009
2.287881e-009
1.682753e-009
8.259448e-010
1.740652e-010
-7.266150e-013
1.293293e-010
1.327469e-010
-1.804668e-010
-5.100017e-010
-4.026315e-010
1.804781e-010
7.394540e-010
1.270468e-008
6.662025e-009
-3.915114e-010
-3.249764e-009
-1.251514e-009
1.813407e-009
2.122181e-009
-3.005939e-010
-2.129807e-009
-6.720061e-010
3.243583e-009
6.245514e-009
5.701331e-009
1.472676e-009
-5.680277e-009
-1.729764e-008
-3.911694e-008
-8.078851e-008
-1.549227e-007
-2.770182e-007
-4.658634e-007
-7.425230e-007
-1.126442e-006
-1.628615e-006
-2.242740e-006
-2.935870e-006
-3.641041e-006
-4.255510e-006
-4.647794e-006
-4.673711e-006
-4.197638e-006
-3.113015e-006
-1.357235e-006
1.081195e-006
4.163042e-006
7.805281e-006
1.189310e-005
1.629435e-005
2.087322e-005
2.550038e-005
3.005928e-005
3.444969e-005
3.858950e-005
4.241486e-005
4.587854e-005
4.894713e-005
5.159795e-005
5.381610e-005
5.559159e-005
5.691652e-005
5.778275e-005
5.818013e-005
5.809526e-005
5.751079e-005
5.640558e-005
5.475626e-005
5.254012e-005
4.973956e-005
4.634849e-005
4.238050e-005
3.787812e-005
3.292120e-005
2.763262e-005
2.217934e-005
1.676652e-005
1.162284e-005
6.977172e-006
3.029540e-006
-7.782417e-008
-2.282570e-006
-3.611618e-006
-4.174490e-006
-4.141028e-006
-3.708547e-006
-3.066984e-006
-2.371241e-006
-1.726960e-006
-1.190494e-006
-7.789410e-007
-4.840886e-007
-2.852452e-007
-1.585231e-007
-8.223810e-008
-3.913637e-008
-1.654397e-008
-5.621042e-009
-6.141000e-010
1.672717e-009
2.519588e-009
2.272848e-009
1.303741e-009
3.172092e-010
-9.019251e-011
4.517942e-011
1.739629e-010
-7.684698e-011
-4.498863e-010
-3.941911e-010
2.077441e-010
8.171350e-010
5.157368e-009
1.959839e-009
-1.345081e-009
-1.811002e-009
3.971986e-010
2.455736e-009
2.131431e-009
1.935520e-010
-6.073807e-010
1.251684e-009
4.237993e-009
5.165011e-009
1.952289e-009
-5.672333e-009
-1.871506e-008
-4.253850e-008
-8.862310e-008
-1.738689e-007
-3.192930e-007
-5.496096e-007
-8.923731e-007