# vtk DataFile Version 3.0
vtk output
ASCII
DATASET STRUCTURED_POINTS
DIMENSIONS 100 100 1
SPACING 1 1 1
ORIGIN 0 0 0
POINT_DATA 10000
SCALARS SFBox_profile double
LOOKUP_TABLE default 
9.439920e-003
9.439920e-003
9.439920e-003
9.439920e-003
9.439920e-003
9.439920e-003
9.439920e-003
9.439920e-003
9.439920e-003
9.439920e-003
9.439921e-003
9.439921e-003
9.439921e-003
9.439922e-003
9.439922e-003
9.439923e-003
9.439924e-003
9.439926e-003
9.439928e-003
9.439929e-003
9.439932e-003
9.439934e-003
9.439937e-003
9.439940e-003
9.439943e-003
9.439946e-003
9.439949e-003
9.439951e-003
9.439954e-003
9.439957e-003
9.439960e-003
9.439962e-003
9.439964e-003
9.439966e-003
9.439967e-003
9.439969e-003
9.439970e-003
9.439971e-003
9.439972e-003
9.439972e-003
9.439973e-003
9.439973e-003
9.439973e-003
9.439973e-003
9.439973e-003
9.439973e-003
9.439972e-003
9.439972e-003
9.439972e-003
9.439971e-003
9.439971e-003
9.439970e-003
9.439970e-003
9.439969e-003
9.439968e-003
9.439968e-003
9.439967e-003
9.439966e-003
9.439965e-003
9.439964e-003
9.439963e-003
9.439961e-003
9.439959e-003
9.439957e-003
9.439954e-003
9.439952e-003
9.439948e-003
9.439945e-003
9.439942e-003
9.439939e-003
9.439936e-003
9.439933e-003
9.439930e-003
9.439928e-003
9.439926e-003
9.439925e-003
9.439923e-003
9.439922e-003
9.439922e-003
9.439921e-003
9.439921e-003
9.439920e-003
9.439920e-003
9.439920e-003
9.439920e-003
9.439920e-003
9.439920e-003
9.439920e-003
9.439920e-003
9.439920e-003
9.439920e-003
9.439920e-003
9.439920e-003
9.439920e-003
9.439920e-003
9.439920e-003
9.439920e-003
9.439920e-003
9.439920e-003
9.439920e-003
9.439920e-003
9.439920e-003
9.439920e-003
9.439920e-003
9.439920e-003
9.439920e-003
9.439920e-003
9.439920e-003
9.439920e-003
9.439920e-003
9.439921e-003
9.439921e-003
9.439921e-003
9.439922e-003
9.439922e-003
9.439923e-003
9.439924e-003
9.439926e-003
9.439928e-003
9.439929e-003
9.439932e-003
9.439934e-003
9.439937e-003
9.439940e-003
9.439943e-003
9.439946e-003
9.439949e-003
9.439951e-003
9.439954e-003
9.439957e-003
9.439960e-003
9.439962e-003
9.439964e-003
9.439966e-003
9.439967e-003
9.439969e-003
9.439970e-003
9.439971e-003
9.439972e-003
9.439972e-003
9.439973e-003
9.439973e-003
9.439973e-003
9.439973e-003
9.439973e-003
9.439973e-003
9.439972e-003
9.439972e-003
9.439972e-003
9.439971e-003
9.439971e-003
9.439970e-003
9.439970e-003
9.439969e-003
9.439968e-003
9.439968e-003
9.439967e-003
9.439966e-003
9.439965e-003
9.439964e-003
9.439963e-003
9.439961e-003
9.439959e-003
9.439957e-003
9.439954e-003
9.439952e-003
9.439948e-003
9.439945e-003
9.439942e-003
9.439939e-003
9.439936e-003
9.439933e-003
9.439930e-003
9.439928e-003
9.439926e-003
9.439925e-003
9.439923e-003
9.439922e-003
9.439922e-003
9.439921e-003
9.439921e-003
9.439920e-003
9.439920e-003
9.439920e-003
9.439920e-003
9.439920e-003
9.439920e-003
9.439920e-003
9.439920e-003
9.439920e-003
9.439920e-003
9.439920e-003
9.439920e-003
9.439920e-003
9.439920e-003
9.439920e-003
9.439920e-003
9.439920e-003
9.439920e-003
9.439920e-003
9.439920e-003
9.439920e-003
9.439920e-003
9.439920e-003
9.439920e-003
9.439920e-003
9.439920e-003
9.439920e-003
9.439920e-003
9.439921e-003
9.439921e-003
9.439921e-003
9.439922e-003
9.439923e-003
9.439924e-003
9.439925e-003
9.439926e-003
9.439928e-003
9.439930e-003
9.439933e-003
9.439935e-003
9.439938e-003
9.439941e-003
9.439944e-003
9.439947e-003
9.439949e-003
9.439951e-003
9.439953e-003
9.439955e-003
9.439956e-003
9.439957e-003
9.439957e-003
9.439957e-003
9.439956e-003
9.439955e-003
9.439953e-003
9.439952e-003
9.439950e-003
9.439948e-003
9.439946e-003
9.439943e-003
9.439941e-003
9.439939e-003
9.439937e-003
9.439935e-003
9.439933e-003
9.439931e-003
9.439930e-003
9.439929e-003
9.439928e-003
9.439928e-003
9.439928e-003
9.439928e-003
9.439930e-003
9.439931e-003
9.439933e-003
9.439935e-003
9.439938e-003
9.439941e-003
9.439943e-003
9.439946e-003
9.439948e-003
9.439949e-003
9.439950e-003
9.439950e-003
9.439950e-003
9.439949e-003
9.439947e-003
9.439945e-003
9.439942e-003
9.439939e-003
9.439936e-003
9.439933e-003
9.439931e-003
9.439928e-003
9.439926e-003
9.439925e-003
9.439923e-003
9.439922e-003
9.439922e-003
9.439921e-003
9.439921e-003
9.439920e-003
9.439920e-003
9.439920e-003
9.439920e-003
9.439920e-003
9.439920e-003
9.439920e-003
9.439920e-003
9.439920e-003
9.439920e-003
9.439920e-003
9.439920e-003
9.439920e-003
9.439920e-003
9.439920e-003
9.439920e-003
9.439920e-003
9.439920e-003
9.439920e-003
9.439920e-003
9.439920e-003
9.439920e-003
9.439920e-003
9.439920e-003
9.439920e-003
9.439920e-003
9.439921e-003
9.439921e-003
9.439922e-003
9.439922e-003
9.439923e-003
9.439925e-003
9.439926e-003
9.439928e-003
9.439931e-003
9.439933e-003
9.439936e-003
9.439939e-003
9.439942e-003
9.439945e-003
9.439947e-003
9.439949e-003
9.439950e-003
9.439950e-003
9.439949e-003
9.439947e-003
9.439943e-003
9.439938e-003
9.439932e-003
9.439925e-003
9.439916e-003
9.439907e-003
9.439897e-003
9.439887e-003
9.439876e-003
9.439865e-003
9.439854e-003
9.439843e-003
9.439833e-003
9.439823e-003
9.439813e-003
9.439805e-003
9.439797e-003
9.439790e-003
9.439784e-003
9.439780e-003
9.439777e-003
9.439775e-003
9.439776e-003
9.439778e-003
9.439783e-003
9.439789e-003
9.439797e-003
9.439807e-003
9.439819e-003
9.439832e-003
9.439846e-003
9.439861e-003
9.439876e-003
9.439890e-003
9.439903e-003
9.439915e-003
9.439925e-003
9.439933e-003
9.439938e-003
9.439942e-003
9.439944e-003
9.439944e-003
9.439943e-003
9.439941e-003
9.439938e-003
9.439936e-003
9.439933e-003
9.439930e-003
9.439928e-003
9.439926e-003
9.439924e-003
9.439923e-003
9.439922e-003
9.439921e-003
9.439921e-003
9.439920e-003
9.439920e-003
9.439920e-003
9.439920e-003
9.439920e-003
9.439920e-003
9.439920e-003
9.439920e-003
9.439920e-003
9.439920e-003
9.439920e-003
9.439920e-003
9.439920e-003
9.439920e-003
9.439920e-003
9.439920e-003
9.439920e-003
9.439920e-003
9.439920e-003
9.439920e-003
9.439920e-003
9.439920e-003
9.439920e-003
9.439921e-003
9.439921e-003
9.439921e-003
9.439922e-003
9.439923e-003
9.439925e-003
9.439926e-003
9.439929e-003
9.439931e-003
9.439934e-003
9.439938e-003
9.439941e-003
9.439944e-003
9.439947e-003
9.439949e-003
9.439949e-003
9.439948e-003
9.439944e-003
9.439938e-003
9.439928e-003
9.439916e-003
9.439899e-003
9.439879e-003
9.439856e-003
9.439830e-003
9.439801e-003
9.439770e-003
9.439737e-003
9.439703e-003
9.439667e-003
9.439632e-003
9.439597e-003
9.439562e-003
9.439528e-003
9.439496e-003
9.439466e-003
9.439438e-003
9.439412e-003
9.439390e-003
9.439370e-003
9.439354e-003
9.439342e-003
9.439335e-003
9.439332e-003
9.439335e-003
9.439343e-003
9.439358e-003
9.439378e-003
9.439404e-003
9.439435e-003
9.439472e-003
9.439513e-003
9.439558e-003
9.439605e-003
9.439653e-003
9.439700e-003
9.439746e-003
9.439788e-003
9.439826e-003
9.439858e-003
9.439885e-003
9.439907e-003
9.439922e-003
9.439933e-003
9.439939e-003
9.439942e-003
9.439943e-003
9.439941e-003
9.439939e-003
9.439936e-003
9.439933e-003
9.439930e-003
9.439927e-003
9.439925e-003
9.439924e-003
9.439922e-003
9.439922e-003
9.439921e-003
9.439921e-003
9.439920e-003
9.439920e-003
9.439920e-003
9.439920e-003
9.439920e-003
9.439920e-003
9.439920e-003
9.439920e-003
9.439920e-003
9.439920e-003
9.439920e-003
9.439920e-003
9.439920e-003
9.439920e-003
9.439920e-003
9.439920e-003
9.439920e-003
9.439920e-003
9.439920e-003
9.439920e-003
9.439921e-003
9.439921e-003
9.439922e-003
9.439923e-003
9.439924e-003
9.439926e-003
9.439928e-003
9.439931e-003
9.439935e-003
9.439938e-003
9.439942e-003
9.439946e-003
9.439949e-003
9.439950e-003
9.439949e-003
9.439945e-003
9.439935e-003
9.439920e-003
9.439898e-003
9.439869e-003
9.439831e-003
9.439784e-003
9.439729e-003
9.439665e-003
9.439593e-003
9.439513e-003
9.439428e-003
9.439338e-003
9.439245e-003
9.439149e-003
9.439052e-003
9.438956e-003
9.438861e-003
9.438769e-003
9.438680e-003
9.438596e-003
9.438517e-003
9.438445e-003
9.438379e-003
9.438321e-003
9.438272e-003
9.438232e-003
9.438203e-003
9.438186e-003
9.438181e-003
9.438189e-003
9.438212e-003
9.438250e-003
9.438303e-003
9.438372e-003
9.438456e-003
9.438553e-003
9.438663e-003
9.438783e-003
9.438909e-003
9.439039e-003
9.439169e-003
9.439296e-003
9.439416e-003
9.439526e-003
9.439624e-003
9.439708e-003
9.439777e-003
9.439833e-003
9.439874e-003
9.439904e-003
9.439924e-003
9.439936e-003
9.439941e-003
9.439943e-003
9.439941e-003
9.439939e-003
9.439935e-003
9.439932e-003
9.439929e-003
9.439926e-003
9.439924e-003
9.439923e-003
9.439922e-003
9.439921e-003
9.439921e-003
9.439920e-003
9.439920e-003
9.439920e-003
9.439920e-003
9.439920e-003
9.439920e-003
9.439920e-003
9.439920e-003
9.439920e-003
9.439920e-003
9.439920e-003
9.439920e-003
9.439920e-003
9.439920e-003
9.439920e-003
9.439920e-003
9.439920e-003
9.439921e-003
9.439921e-003
9.439922e-003
9.439922e-003
9.439924e-003
9.439925e-003
9.439928e-003
9.439931e-003
9.439934e-003
9.439938e-003
9.439943e-003
9.439947e-003
9.439951e-003
9.439952e-003
9.439949e-003
9.439941e-003
9.439925e-003
9.439899e-003
9.439860e-003
9.439805e-003
9.439733e-003
9.439640e-003
9.439528e-003
9.439394e-003
9.439239e-003
9.439065e-003
9.438873e-003
9.438666e-003
9.438446e-003
9.438216e-003
9.437981e-003
9.437742e-003
9.437502e-003
9.437266e-003
9.437035e-003
9.436812e-003
9.436599e-003
9.436397e-003
9.436210e-003
9.436038e-003
9.435884e-003
9.435748e-003
9.435633e-003
9.435542e-003
9.435475e-003
9.435436e-003
9.435426e-003
9.435448e-003
9.435504e-003
9.435596e-003
9.435724e-003
9.435890e-003
9.436091e-003
9.436325e-003
9.436590e-003
9.436880e-003
9.437189e-003
9.437509e-003
9.437832e-003
9.438150e-003
9.438454e-003
9.438737e-003
9.438992e-003
9.439216e-003
9.439407e-003
9.439562e-003
9.439685e-003
9.439778e-003
9.439845e-003
9.439890e-003
9.439918e-003
9.439934e-003
9.439941e-003
9.439943e-003
9.439941e-003
9.439938e-003
9.439934e-003
9.439931e-003
9.439928e-003
9.439925e-003
9.439923e-003
9.439922e-003
9.439921e-003
9.439921e-003
9.439920e-003
9.439920e-003
9.439920e-003
9.439920e-003
9.439920e-003
9.439920e-003
9.439920e-003
9.439920e-003
9.439920e-003
9.439920e-003
9.439920e-003
9.439920e-003
9.439920e-003
9.439921e-003
9.439921e-003
9.439921e-003
9.439921e-003
9.439922e-003
9.439923e-003
9.439924e-003
9.439927e-003
9.439929e-003
9.439933e-003
9.439937e-003
9.439942e-003
9.439948e-003
9.439952e-003
9.439954e-003
9.439951e-003
9.439941e-003
9.439920e-003
9.439882e-003
9.439823e-003
9.439738e-003
9.439619e-003
9.439462e-003
9.439263e-003
9.439017e-003
9.438724e-003
9.438383e-003
9.437996e-003
9.437567e-003
9.437101e-003
9.436604e-003
9.436082e-003
9.435543e-003
9.434994e-003
9.434442e-003
9.433894e-003
9.433356e-003
9.432833e-003
9.432331e-003
9.431854e-003
9.431406e-003
9.430991e-003
9.430612e-003
9.430272e-003
9.429976e-003
9.429726e-003
9.429527e-003
9.429384e-003
9.429301e-003
9.429283e-003
9.429335e-003
9.429461e-003
9.429666e-003
9.429952e-003
9.430320e-003
9.430769e-003
9.431294e-003
9.431889e-003
9.432543e-003
9.433244e-003
9.433975e-003
9.434718e-003
9.435455e-003
9.436168e-003
9.436838e-003
9.437451e-003
9.437996e-003
9.438466e-003
9.438859e-003
9.439176e-003
9.439423e-003
9.439608e-003
9.439740e-003
9.439829e-003
9.439886e-003
9.439919e-003
9.439936e-003
9.439942e-003
9.439943e-003
9.439940e-003
9.439936e-003
9.439932e-003
9.439929e-003
9.439926e-003
9.439924e-003
9.439922e-003
9.439921e-003
9.439921e-003
9.439920e-003
9.439920e-003
9.439920e-003
9.439920e-003
9.439920e-003
9.439920e-003
9.439920e-003
9.439920e-003
9.439920e-003
9.439920e-003
9.439920e-003
9.439920e-003
9.439921e-003
9.439921e-003
9.439922e-003
9.439922e-003
9.439924e-003
9.439925e-003
9.439928e-003
9.439931e-003
9.439936e-003
9.439941e-003
9.439947e-003
9.439952e-003
9.439955e-003
9.439954e-003
9.439945e-003
9.439922e-003
9.439878e-003
9.439803e-003
9.439688e-003
9.439521e-003
9.439288e-003
9.438978e-003
9.438581e-003
9.438087e-003
9.437491e-003
9.436791e-003
9.435991e-003
9.435095e-003
9.434114e-003
9.433059e-003
9.431946e-003
9.430790e-003
9.429607e-003
9.428413e-003
9.427222e-003
9.426048e-003
9.424904e-003
9.423800e-003
9.422747e-003
9.421751e-003
9.420821e-003
9.419963e-003
9.419183e-003
9.418487e-003
9.417883e-003
9.417376e-003
9.416975e-003
9.416688e-003
9.416524e-003
9.416494e-003
9.416606e-003
9.416871e-003
9.417297e-003
9.417890e-003
9.418653e-003
9.419585e-003
9.420680e-003
9.421924e-003
9.423301e-003
9.424784e-003
9.426342e-003
9.427940e-003
9.429539e-003
9.431100e-003
9.432583e-003
9.433957e-003
9.435193e-003
9.436274e-003
9.437191e-003
9.437944e-003
9.438542e-003
9.438999e-003
9.439336e-003
9.439574e-003
9.439734e-003
9.439835e-003
9.439894e-003
9.439926e-003
9.439940e-003
9.439943e-003
9.439942e-003
9.439938e-003
9.439934e-003
9.439930e-003
9.439927e-003
9.439924e-003
9.439923e-003
9.439922e-003
9.439921e-003
9.439920e-003
9.439920e-003
9.439920e-003
9.439920e-003
9.439920e-003
9.439920e-003
9.439920e-003
9.439920e-003
9.439920e-003
9.439920e-003
9.439920e-003
9.439922e-003
9.439922e-003
9.439923e-003
9.439924e-003
9.439926e-003
9.439929e-003
9.439933e-003
9.439938e-003
9.439944e-003
9.439951e-003
9.439956e-003
9.439958e-003
9.439952e-003
9.439932e-003
9.439889e-003
9.439809e-003
9.439677e-003
9.439473e-003
9.439172e-003
9.438751e-003
9.438182e-003
9.437444e-003
9.436514e-003
9.435379e-003
9.434032e-003
9.432473e-003
9.430713e-003
9.428770e-003
9.426668e-003
9.424437e-003
9.422109e-003
9.419718e-003
9.417297e-003
9.414879e-003
9.412491e-003
9.410161e-003
9.407909e-003
9.405754e-003
9.403714e-003
9.401800e-003
9.400025e-003
9.398399e-003
9.396930e-003
9.395628e-003
9.394504e-003
9.393567e-003
9.392832e-003
9.392313e-003
9.392024e-003
9.391985e-003
9.392212e-003
9.392724e-003
9.393537e-003
9.394664e-003
9.396113e-003
9.397887e-003
9.399978e-003
9.402370e-003
9.405034e-003
9.407929e-003
9.411001e-003
9.414186e-003
9.417409e-003
9.420594e-003
9.423663e-003
9.426541e-003
9.429169e-003
9.431499e-003
9.433505e-003
9.435177e-003
9.436527e-003
9.437578e-003
9.438369e-003
9.438941e-003
9.439337e-003
9.439599e-003
9.439763e-003
9.439860e-003
9.439911e-003
9.439935e-003
9.439943e-003
9.439943e-003
9.439939e-003
9.439935e-003
9.439930e-003
9.439927e-003
9.439924e-003
9.439923e-003
9.439922e-003
9.439921e-003
9.439920e-003
9.439920e-003
9.439920e-003
9.439920e-003
9.439920e-003
9.439920e-003
9.439920e-003
9.439920e-003
9.439920e-003
9.439920e-003
9.439923e-003
9.439924e-003
9.439925e-003
9.439928e-003
9.439931e-003
9.439935e-003
9.439941e-003
9.439948e-003
9.439955e-003
9.439960e-003
9.439959e-003
9.439947e-003
9.439913e-003
9.439842e-003
9.439712e-003
9.439497e-003
9.439159e-003
9.438658e-003
9.437944e-003
9.436968e-003
9.435679e-003
9.434033e-003
9.431997e-003
9.429551e-003
9.426691e-003
9.423435e-003
9.419816e-003
9.415881e-003
9.411692e-003
9.407315e-003
9.402820e-003
9.398277e-003
9.393748e-003
9.389293e-003
9.384961e-003
9.380793e-003
9.376824e-003
9.373080e-003
9.369580e-003
9.366339e-003
9.363370e-003
9.360681e-003
9.358281e-003
9.356180e-003
9.354387e-003
9.352915e-003
9.351780e-003
9.351000e-003
9.350597e-003
9.350595e-003
9.351020e-003
9.351901e-003
9.353264e-003
9.355135e-003
9.357536e-003
9.360481e-003
9.363974e-003
9.368005e-003
9.372548e-003
9.377556e-003
9.382957e-003
9.388659e-003
9.394541e-003
9.400469e-003
9.406296e-003
9.411872e-003
9.417062e-003
9.421752e-003
9.425862e-003
9.429350e-003
9.432213e-003
9.434484e-003
9.436221e-003
9.437502e-003
9.438410e-003
9.439027e-003
9.439427e-003
9.439674e-003
9.439817e-003
9.439893e-003
9.439929e-003
9.439942e-003
9.439943e-003
9.439940e-003
9.439935e-003
9.439931e-003
9.439927e-003
9.439925e-003
9.439923e-003
9.439922e-003
9.439921e-003
9.439920e-003
9.439920e-003
9.439920e-003
9.439920e-003
9.439920e-003
9.439920e-003
9.439920e-003
9.439920e-003
9.439920e-003
9.439926e-003
9.439927e-003
9.439929e-003
9.439933e-003
9.439937e-003
9.439944e-003
9.439951e-003
9.439958e-003
9.439963e-003
9.439960e-003
9.439940e-003
9.439888e-003
9.439781e-003
9.439588e-003
9.439261e-003
9.438742e-003
9.437958e-003
9.436823e-003
9.435243e-003
9.433122e-003
9.430373e-003
9.426925e-003
9.422734e-003
9.417793e-003
9.412131e-003
9.405817e-003
9.398954e-003
9.391668e-003
9.384104e-003
9.376406e-003
9.368715e-003
9.361160e-003
9.353848e-003
9.346870e-003
9.340292e-003
9.334161e-003
9.328505e-003
9.323337e-003
9.318660e-003
9.314466e-003
9.310747e-003
9.307489e-003
9.304681e-003
9.302312e-003
9.300375e-003
9.298865e-003
9.297784e-003
9.297134e-003
9.296925e-003
9.297170e-003
9.297887e-003
9.299103e-003
9.300848e-003
9.303163e-003
9.306095e-003
9.309696e-003
9.314021e-003
9.319125e-003
9.325049e-003
9.331812e-003
9.339399e-003
9.347745e-003
9.356729e-003
9.366166e-003
9.375820e-003
9.385415e-003
9.394663e-003
9.403291e-003
9.411072e-003
9.417848e-003
9.423540e-003
9.428150e-003
9.431746e-003
9.434448e-003
9.436399e-003
9.437754e-003
9.438655e-003
9.439228e-003
9.439574e-003
9.439771e-003
9.439874e-003
9.439922e-003
9.439941e-003
9.439944e-003
9.439941e-003
9.439936e-003
9.439931e-003
9.439927e-003
9.439924e-003
9.439923e-003
9.439921e-003
9.439921e-003
9.439920e-003
9.439920e-003
9.439920e-003
9.439920e-003
9.439920e-003
9.439920e-003
9.439920e-003
9.439920e-003
9.439930e-003
9.439932e-003
9.439935e-003
9.439940e-003
9.439946e-003
9.439954e-003
9.439962e-003
9.439966e-003
9.439960e-003
9.439932e-003
9.439860e-003
9.439713e-003
9.439443e-003
9.438980e-003
9.438231e-003
9.437078e-003
9.435376e-003
9.432962e-003
9.429665e-003
9.425324e-003
9.419808e-003
9.413039e-003
9.405011e-003
9.395803e-003
9.385583e-003
9.374589e-003
9.363121e-003
9.351501e-003
9.340056e-003
9.329083e-003
9.318838e-003
9.309517e-003
9.301257e-003
9.294135e-003
9.288173e-003
9.283346e-003
9.279591e-003
9.276821e-003
9.274930e-003
9.273804e-003
9.273333e-003
9.273410e-003
9.273933e-003
9.274809e-003
9.275951e-003
9.277273e-003
9.278692e-003
9.280125e-003
9.281490e-003
9.282711e-003
9.283723e-003
9.284479e-003
9.284965e-003
9.285208e-003
9.285292e-003
9.285369e-003
9.285662e-003
9.286464e-003
9.288117e-003
9.290987e-003
9.295414e-003
9.301658e-003
9.309848e-003
9.319934e-003
9.331673e-003
9.344637e-003
9.358259e-003
9.371902e-003
9.384945e-003
9.396861e-003
9.407274e-003
9.415986e-003
9.422970e-003
9.428340e-003
9.432302e-003
9.435107e-003
9.437012e-003
9.438250e-003
9.439020e-003
9.439474e-003
9.439727e-003
9.439857e-003
9.439917e-003
9.439939e-003
9.439944e-003
9.439941e-003
9.439936e-003
9.439931e-003
9.439927e-003
9.439924e-003
9.439922e-003
9.439921e-003
9.439921e-003
9.439920e-003
9.439920e-003
9.439920e-003
9.439920e-003
9.439920e-003
9.439920e-003
9.439920e-003
9.439937e-003
9.439939e-003
9.439943e-003
9.439950e-003
9.439958e-003
9.439966e-003
9.439970e-003
9.439962e-003
9.439925e-003
9.439834e-003
9.439646e-003
9.439292e-003
9.438676e-003
9.437658e-003
9.436058e-003
9.433647e-003
9.430159e-003
9.425310e-003
9.418825e-003
9.410488e-003
9.400188e-003
9.387974e-003
9.374085e-003
9.358968e-003
9.343249e-003
9.327687e-003
9.313095e-003
9.300262e-003
9.289880e-003
9.282484e-003
9.278429e-003
9.277877e-003
9.280814e-003
9.287072e-003
9.296359e-003
9.308286e-003
9.322406e-003
9.338238e-003
9.355294e-003
9.373107e-003
9.391237e-003
9.409281e-003
9.426867e-003
9.443646e-003
9.459279e-003
9.473418e-003
9.485703e-003
9.495749e-003
9.503150e-003
9.507490e-003
9.508368e-003
9.505425e-003
9.498398e-003
9.487166e-003
9.471816e-003
9.452699e-003
9.430475e-003
9.406135e-003
9.380979e-003
9.356545e-003
9.334482e-003
9.316377e-003
9.303554e-003
9.296893e-003
9.296684e-003
9.302575e-003
9.313620e-003
9.328424e-003
9.345370e-003
9.362858e-003
9.379525e-003
9.394387e-003
9.406886e-003
9.416854e-003
9.424425e-003
9.429914e-003
9.433722e-003
9.436249e-003
9.437855e-003
9.438828e-003
9.439388e-003
9.439692e-003
9.439845e-003
9.439914e-003
9.439939e-003
9.439944e-003
9.439941e-003
9.439935e-003
9.439930e-003
9.439927e-003
9.439924e-003
9.439922e-003
9.439921e-003
9.439921e-003
9.439920e-003
9.439920e-003
9.439920e-003
9.439920e-003
9.439920e-003
9.439920e-003
9.439946e-003
9.439949e-003
9.439955e-003
9.439962e-003
9.439971e-003
9.439974e-003
9.439964e-003
9.439922e-003
9.439815e-003
9.439588e-003
9.439154e-003
9.438381e-003
9.437076e-003
9.434978e-003
9.431747e-003
9.426977e-003
9.420220e-003
9.411049e-003
9.399139e-003
9.384393e-003
9.367061e-003
9.347849e-003
9.327966e-003
9.309088e-003
9.293233e-003
9.282557e-003
9.279125e-003
9.284682e-003
9.300486e-003
9.327215e-003
9.364953e-003
9.413243e-003
9.471182e-003
9.537529e-003
9.610809e-003
9.689412e-003
9.771677e-003
9.855963e-003
9.940714e-003
1.002450e-002
1.010603e-002
1.018415e-002
1.025782e-002
1.032607e-002
1.038793e-002
1.044239e-002
1.048836e-002
1.052463e-002
1.054989e-002
1.056275e-002
1.056179e-002
1.054568e-002
1.051330e-002
1.046389e-002
1.039729e-002
1.031410e-002
1.021588e-002
1.010528e-002
9.986039e-003
9.862896e-003
9.741278e-003
9.626855e-003
9.524958e-003
9.439965e-003
9.374757e-003
9.330350e-003
9.305816e-003
9.298507e-003
9.304565e-003
9.319599e-003
9.339368e-003
9.360336e-003
9.379968e-003
9.396784e-003
9.410207e-003
9.420299e-003
9.427495e-003
9.432384e-003
9.435555e-003
9.437519e-003
9.438679e-003
9.439329e-003
9.439672e-003
9.439840e-003
9.439913e-003
9.439939e-003
9.439944e-003
9.439940e-003
9.439935e-003
9.439930e-003
9.439926e-003
9.439923e-003
9.439922e-003
9.439921e-003
9.439920e-003
9.439920e-003
9.439920e-003
9.439920e-003
9.439920e-003
9.439920e-003
9.439959e-003
9.439963e-003
9.439969e-003
9.439976e-003
9.439980e-003
9.439969e-003
9.439924e-003
9.439806e-003
9.439550e-003
9.439049e-003
9.438133e-003
9.436552e-003
9.433949e-003
9.429850e-003
9.423666e-003
9.414740e-003
9.402443e-003
9.386346e-003
9.366480e-003
9.343635e-003
9.319660e-003
9.297642e-003
9.281891e-003
9.277665e-003
9.290663e-003
9.326368e-003
9.389387e-003
9.482927e-003
9.608477e-003
9.765757e-003
9.952878e-003
1.016666e-002
1.040300e-002
1.065723e-002
1.092444e-002
1.119970e-002
1.147825e-002
1.175566e-002
1.202789e-002
1.229142e-002
1.254317e-002
1.278049e-002
1.300104e-002
1.320264e-002
1.338307e-002
1.353999e-002
1.367075e-002
1.377235e-002
1.384142e-002
1.387423e-002
1.386690e-002
1.381557e-002
1.371674e-002
1.356769e-002
1.336699e-002
1.311503e-002
1.281462e-002
1.247141e-002
1.209416e-002
1.169471e-002
1.128745e-002
1.088837e-002
1.051369e-002
1.017817e-002
9.893445e-003
9.666616e-003
9.499466e-003
9.388494e-003
9.325814e-003
9.300756e-003
9.301764e-003
9.318148e-003
9.341309e-003
9.365263e-003
9.386533e-003
9.403628e-003
9.416375e-003
9.425314e-003
9.431257e-003
9.435019e-003
9.437290e-003
9.438595e-003
9.439307e-003
9.439671e-003
9.439844e-003
9.439916e-003
9.439940e-003
9.439943e-003
9.439939e-003
9.439934e-003
9.439929e-003
9.439925e-003
9.439923e-003
9.439922e-003
9.439921e-003
9.439920e-003
9.439920e-003
9.439920e-003
9.439920e-003
9.439920e-003
9.439976e-003
9.439979e-003
9.439985e-003
9.439988e-003
9.439978e-003
9.439932e-003
9.439810e-003
9.439538e-003
9.438991e-003
9.437968e-003
9.436155e-003
9.433098e-003
9.428169e-003
9.420566e-003
9.409372e-003
9.393715e-003
9.373084e-003
9.347845e-003
9.319931e-003
9.293596e-003
9.276014e-003
9.277439e-003
9.310728e-003
9.390165e-003
9.529776e-003
9.741491e-003
1.003357e-002
1.040959e-002
1.086821e-002
1.140359e-002
1.200627e-002
1.266438e-002
1.336477e-002
1.409395e-002
1.483885e-002
1.558721e-002
1.632792e-002
1.705120e-002
1.774864e-002
1.841323e-002
1.903922e-002
1.962188e-002
2.015717e-002
2.064133e-002
2.107053e-002
2.144044e-002
2.174594e-002
2.198098e-002
2.213840e-002
2.221012e-002
2.218725e-002
2.206061e-002
2.182128e-002
2.146148e-002
2.097562e-002
2.036156e-002
1.962196e-002
1.876565e-002
1.780865e-002
1.677474e-002
1.569511e-002
1.460692e-002
1.355073e-002
1.256677e-002
1.169074e-002
1.094950e-002
1.035781e-002
9.916749e-003
9.614478e-003
9.429199e-003
9.333631e-003
9.299827e-003
9.303156e-003
9.324677e-003
9.351727e-003
9.377148e-003
9.397819e-003
9.413111e-003
9.423648e-003
9.430497e-003
9.434723e-003
9.437205e-003
9.438592e-003
9.439325e-003
9.439689e-003
9.439855e-003
9.439921e-003
9.439941e-003
9.439943e-003
9.439938e-003
9.439932e-003
9.439928e-003
9.439925e-003
9.439922e-003
9.439921e-003
9.439921e-003
9.439920e-003
9.439920e-003
9.439920e-003
9.439920e-003
9.439996e-003
9.439999e-003
9.440000e-003
9.439990e-003
9.439946e-003
9.439827e-003
9.439555e-003
9.438992e-003
9.437909e-003
9.435943e-003
9.432541e-003
9.426920e-003
9.418046e-003
9.404705e-003
9.385737e-003
9.360572e-003
9.330176e-003
9.298469e-003
9.274070e-003
9.271937e-003
9.314242e-003
9.429794e-003
9.651659e-003
1.001319e-002
1.054330e-002
1.126209e-002
1.217787e-002
1.328618e-002
1.457081e-002
1.600629e-002
1.756122e-002
1.920161e-002
2.089371e-002
2.260597e-002
2.431023e-002
2.598220e-002
2.760154e-002
2.915170e-002
3.061970e-002
3.199570e-002
3.327251e-002
3.444485e-002
3.550864e-002
3.646012e-002
3.729503e-002
3.800791e-002
3.859151e-002
3.903637e-002
3.933065e-002
3.946011e-002
3.940836e-002
3.915742e-002
3.868860e-002
3.798370e-002
3.702676e-002
3.580628e-002
3.431782e-002
3.256707e-002
3.057286e-002
2.836973e-002
2.600942e-002
2.356048e-002
2.110532e-002
1.873438e-002
1.653746e-002
1.459337e-002
1.295957e-002
1.166440e-002
1.070421e-002
1.004638e-002
9.637644e-003
9.415432e-003
9.318869e-003
9.296897e-003
9.312110e-003
9.340658e-003
9.369614e-003
9.393461e-003
9.410928e-003
9.422729e-003
9.430214e-003
9.434710e-003
9.437276e-003
9.438668e-003
9.439381e-003
9.439722e-003
9.439872e-003
9.439928e-003
9.439943e-003
9.439942e-003
9.439936e-003
9.439931e-003
9.439927e-003
9.439924e-003
9.439922e-003
9.439921e-003
9.439920e-003
9.439920e-003
9.439920e-003
9.439920e-003
9.440018e-003
9.440017e-003
9.440007e-003
9.439967e-003
9.439857e-003
9.439599e-003
9.439050e-003
9.437966e-003
9.435944e-003
9.432356e-003
9.426275e-003
9.416437e-003
9.401307e-003
9.379396e-003
9.350054e-003
9.315052e-003
9.281183e-003
9.263841e-003
9.290909e-003
9.405590e-003
9.666438e-003
1.014320e-002
1.090835e-002
1.202587e-002
1.354004e-002
1.546726e-002
1.779303e-002
2.047440e-002
2.344670e-002
2.663261e-002
2.995116e-002
3.332525e-002
3.668663e-002
3.997847e-002
4.315579e-002
4.618466e-002
4.904079e-002
5.170797e-002
5.417659e-002
5.644220e-002
5.850413e-002
6.036405e-002
6.202456e-002
6.348789e-002
6.475464e-002
6.582279e-002
6.668689e-002
6.733745e-002
6.776059e-002
6.793783e-002
6.784616e-002
6.745825e-002
6.674311e-002
6.566710e-002
6.419556e-002
6.229539e-002
5.993855e-002
5.710695e-002
5.379846e-002
5.003376e-002
4.586336e-002
4.137311e-002
3.668655e-002
3.196150e-002
2.737921e-002
2.312557e-002
1.936651e-002
1.622283e-002
1.375145e-002
1.193937e-002
1.071259e-002
9.957087e-003
9.544856e-003
9.357074e-003
9.298843e-003
9.304116e-003
9.332931e-003
9.364716e-003
9.391084e-003
9.410120e-003
9.422689e-003
9.430451e-003
9.434982e-003
9.437492e-003
9.438811e-003
9.439464e-003
9.439765e-003
9.439890e-003
9.439934e-003
9.439943e-003
9.439940e-003
9.439934e-003
9.439929e-003
9.439925e-003
9.439923e-003
9.439921e-003
9.439921e-003
9.439920e-003
9.439920e-003
9.439920e-003
9.440038e-003
9.440028e-003
9.439994e-003
9.439897e-003
9.439664e-003
9.439157e-003
9.438127e-003
9.436157e-003
9.432567e-003
9.426323e-003
9.415958e-003
9.399621e-003
9.375444e-003
9.342598e-003
9.303639e-003
9.268749e-003
9.262218e-003
9.330429e-003
9.549033e-003
1.002551e-002
1.089322e-002
1.229511e-002
1.435915e-002
1.717173e-002
2.075693e-002
2.506840e-002
2.999584e-002
3.538328e-002
4.105301e-002
4.682878e-002
5.255354e-002
5.809982e-002
6.337319e-002
6.831056e-002
7.287549e-002
7.705248e-002
8.084141e-002
8.425276e-002
8.730387e-002
9.001592e-002
9.241166e-002
9.451353e-002
9.634214e-002
9.791511e-002
9.924609e-002
1.003441e-001
1.012129e-001
1.018508e-001
1.022500e-001
1.023963e-001
1.022685e-001
1.018383e-001
1.010692e-001
9.991596e-002
9.832490e-002
9.623387e-002
9.357421e-002
9.027443e-002
8.626689e-002
8.149828e-002
7.594425e-002
6.962779e-002
6.263860e-002
5.514851e-002
4.741547e-002
3.976880e-002
3.257166e-002
2.616472e-002
2.080488e-002
1.661875e-002
1.358803e-002
1.157161e-002
1.035395e-002
9.700842e-003
9.404020e-003
9.305214e-003
9.300068e-003
9.328949e-003
9.362936e-003
9.390981e-003
9.410796e-003
9.423532e-003
9.431170e-003
9.435497e-003
9.437819e-003
9.439000e-003