# vtk DataFile Version 3.0
vtk output
ASCII
DATASET STRUCTURED_POINTS
DIMENSIONS 100 100 1
SPACING 1 1 1
ORIGIN 0 0 0
POINT_DATA 10000
SCALARS SFBox_profile double
LOOKUP_TABLE default 
0.000000e+000
0.000000e+000
0.000000e+000
0.000000e+000
0.000000e+000
0.000000e+000
0.000000e+000
0.000000e+000
0.000000e+000
0.000000e+000
0.000000e+000
0.000000e+000
0.000000e+000
0.000000e+000
0.000000e+000
0.000000e+000
0.000000e+000
0.000000e+000
0.000000e+000
0.000000e+000
0.000000e+000
0.000000e+000
0.000000e+000
0.000000e+000
0.000000e+000
0.000000e+000
0.000000e+000
0.000000e+000
0.000000e+000
0.000000e+000
0.000000e+000
0.000000e+000
0.000000e+000
0.000000e+000
0.000000e+000
0.000000e+000
0.000000e+000
0.000000e+000
0.000000e+000
0.000000e+000
0.000000e+000
0.000000e+000
0.000000e+000
0.000000e+000
0.000000e+000
0.000000e+000
0.000000e+000
0.000000e+000
0.000000e+000
0.000000e+000
0.000000e+000
0.000000e+000
0.000000e+000
0.000000e+000
0.000000e+000
0.000000e+000
0.000000e+000
0.000000e+000
0.000000e+000
0.000000e+000
0.000000e+000
0.000000e+000
0.000000e+000
0.000000e+000
0.000000e+000
0.000000e+000
0.000000e+000
0.000000e+000
0.000000e+000
0.000000e+000
0.000000e+000
0.000000e+000
0.000000e+000
0.000000e+000
0.000000e+000
0.000000e+000
0.000000e+000
0.000000e+000
0.000000e+000
0.000000e+000
0.000000e+000
0.000000e+000
0.000000e+000
0.000000e+000
0.000000e+000
0.000000e+000
0.000000e+000
0.000000e+000
0.000000e+000
0.000000e+000
0.000000e+000
0.000000e+000
0.000000e+000
0.000000e+000
0.000000e+000
0.000000e+000
0.000000e+000
0.000000e+000
0.000000e+000
0.000000e+000
-1.983446e-009
-1.263541e-009
-3.355158e-010
3.627440e-010
8.452507e-010
1.421797e-009
2.156981e-009
2.523677e-009
1.706986e-009
-5.918998e-010
-3.553164e-009
-5.491671e-009
-4.941170e-009
-1.786836e-009
2.485314e-009
5.699587e-009
6.401572e-009
4.693103e-009
1.898779e-009
-5.619527e-010
-2.118992e-009
-3.100307e-009
-4.022528e-009
-4.895708e-009
-5.185747e-009
-4.379475e-009
-2.534560e-009
-2.808525e-010
1.680520e-009
3.067117e-009
4.058950e-009
4.939761e-009
5.746262e-009
6.254164e-009
6.247255e-009
5.751297e-009
5.006076e-009
4.245608e-009
3.530785e-009
2.781494e-009
1.932911e-009
1.036168e-009
2.162184e-010
-4.417791e-010
-9.507976e-010
-1.378135e-009
-1.761320e-009
-2.072371e-009
-2.255862e-009
-2.291108e-009
-2.213252e-009
-2.075635e-009
-1.894524e-009
-1.633343e-009
-1.244383e-009
-7.272269e-010
-1.410345e-010
4.493088e-010
1.040240e-009
1.690533e-009
2.439284e-009
3.221280e-009
3.882533e-009
4.300245e-009
4.485005e-009
4.538604e-009
4.491796e-009
4.200878e-009
3.450673e-009
2.193541e-009
6.756392e-010
-7.156996e-010
-1.756825e-009
-2.524607e-009
-3.192979e-009
-3.687817e-009
-3.598485e-009
-2.519396e-009
-5.380547e-010
1.627606e-009
3.049080e-009
3.232860e-009
2.415596e-009
1.251096e-009
2.139373e-010
-6.900816e-010
-1.643590e-009
-2.504478e-009
-2.665450e-009
-1.540556e-009
7.168462e-010
2.979570e-009
3.761865e-009
2.311817e-009
-6.745974e-010
-3.358720e-009
-3.958694e-009
-2.007335e-009
1.258275e-009
3.693654e-009
-1.094412e-009
-2.457902e-010
7.149792e-010
1.024738e-009
4.883504e-010
-4.081914e-010
-9.268769e-010
-6.809771e-010
8.024933e-011
7.217466e-010
7.740667e-010
3.054862e-010
-1.968169e-010
-3.078599e-010
-5.728004e-011
1.285987e-010
-1.268255e-010
-7.443290e-010
-1.215526e-009
-1.045557e-009
-2.009138e-010
8.508917e-010
1.534926e-009
1.620546e-009
1.326152e-009
1.023962e-009
8.663449e-010
6.914595e-010
2.571741e-010
-4.697038e-010
-1.261657e-009
-1.840020e-009
-2.110598e-009
-2.195773e-009
-2.264457e-009
-2.357615e-009
-2.378561e-009
-2.226263e-009
-1.912457e-009
-1.547838e-009
-1.233485e-009
-9.814102e-010
-7.364650e-010
-4.580877e-010
-1.692815e-010
6.967282e-011
2.228439e-010
3.077724e-010
3.675545e-010
4.213657e-010
4.457193e-010
4.029085e-010
2.845424e-010
1.237418e-010
-3.800988e-011
-1.953220e-010
-3.850023e-010
-6.413756e-010
-9.452535e-010
-1.226228e-009
-1.425389e-009
-1.554009e-009
-1.675800e-009
-1.819406e-009
-1.915408e-009
-1.842109e-009
-1.549141e-009
-1.127313e-009
-7.328218e-010
-4.312636e-010
-1.330576e-010
2.888081e-010
8.092111e-010
1.203182e-009
1.224055e-009
8.471255e-010
3.234910e-010
-3.343378e-011
-1.264989e-010
-1.331511e-010
-2.766466e-010
-5.464938e-010
-6.718488e-010
-3.988027e-010
1.994175e-010
7.083805e-010
7.064906e-010
1.541769e-010
-5.283826e-010
-7.878885e-010
-3.966317e-010
3.497133e-010
8.629437e-010
7.283262e-010
2.794226e-011
-7.255739e-010
-9.778106e-010
-5.399307e-010
2.814817e-010
9.105085e-010
2.679171e-010
8.425951e-010
1.406952e-009
1.243367e-009
4.345669e-012
-1.931590e-009
-3.518987e-009
-3.597915e-009
-1.672340e-009
1.604712e-009
4.652468e-009
5.836966e-009
4.447637e-009
1.109305e-009
-2.640825e-009
-5.275826e-009
-6.040128e-009
-5.090949e-009
-3.086469e-009
-6.694673e-010
1.756571e-009
3.924957e-009
5.539103e-009
6.280366e-009
5.976945e-009
4.733124e-009
2.873594e-009
7.584397e-010
-1.359144e-009
-3.334477e-009
-5.050814e-009
-6.378121e-009
-7.215138e-009
-7.550307e-009
-7.461473e-009
-7.052696e-009
-6.396452e-009
-5.534114e-009
-4.516336e-009
-3.425080e-009
-2.349884e-009
-1.347907e-009
-4.331766e-010
3.965258e-010
1.128577e-009
1.733683e-009
2.190250e-009
2.503243e-009
2.695316e-009
2.781069e-009
2.753719e-009
2.598052e-009
2.313380e-009
1.919220e-009
1.436754e-009
8.679595e-010
1.986696e-010
-5.747664e-010
-1.424117e-009
-2.298356e-009
-3.153508e-009
-3.966728e-009
-4.713919e-009
-5.334685e-009
-5.729620e-009
-5.802642e-009
-5.508536e-009
-4.856585e-009
-3.872447e-009
-2.574237e-009
-1.006125e-009
6.996901e-010
2.309349e-009
3.557017e-009
4.242627e-009
4.271244e-009
3.620855e-009
2.319658e-009
5.063263e-010
-1.472823e-009
-3.073171e-009
-3.752172e-009
-3.261892e-009
-1.812470e-009
3.230106e-011
1.644502e-009
2.582500e-009
2.657549e-009
1.877710e-009
4.310658e-010
-1.247444e-009
-2.477979e-009
-2.584921e-009
-1.343706e-009
7.029356e-010
2.410798e-009
2.703131e-009
1.324181e-009
-8.977862e-010
-2.542327e-009
1.594310e-009
1.084623e-009
4.669847e-010
9.938233e-012
-4.523382e-010
-1.252782e-009
-2.300926e-009
-2.834104e-009
-1.920841e-009
6.095422e-010
3.659330e-009
5.380673e-009
4.456571e-009
1.150867e-009
-2.765803e-009
-5.209015e-009
-5.161850e-009
-3.179076e-009
-7.162336e-010
1.043915e-009
1.875909e-009
2.270446e-009
2.682556e-009
3.043368e-009
2.922720e-009
2.058152e-009
6.723464e-010
-7.007223e-010
-1.648153e-009
-2.131952e-009
-2.373108e-009
-2.555180e-009
-2.662033e-009
-2.564558e-009
-2.206183e-009
-1.678000e-009
-1.133071e-009
-6.601122e-010
-2.476282e-010
1.519652e-010
5.487875e-010
9.068726e-010
1.188849e-009
1.392232e-009
1.542566e-009
1.663054e-009
1.757858e-009
1.819979e-009
1.846034e-009
1.840641e-009
1.811416e-009
1.764284e-009
1.701683e-009
1.620166e-009
1.509019e-009
1.356387e-009
1.160774e-009
9.333215e-010
6.820296e-010
3.936133e-010
4.090091e-011
-3.815177e-010
-8.308867e-010
-1.238496e-009
-1.566473e-009
-1.832774e-009
-2.060262e-009
-2.196354e-009
-2.106729e-009
-1.683068e-009
-9.689893e-010
-1.571549e-010
5.675913e-010
1.180181e-009
1.774301e-009
2.339558e-009
2.602527e-009
2.168090e-009
9.007039e-010
-8.107645e-010
-2.215994e-009
-2.711643e-009
-2.252040e-009
-1.283365e-009
-2.834078e-010
6.129904e-010
1.515941e-009
2.339848e-009
2.562425e-009
1.574420e-009
-6.038807e-010
-2.943630e-009
-3.894158e-009
-2.517469e-009
6.112333e-010
3.565608e-009
4.324814e-009
2.249390e-009
-1.355212e-009
-4.077969e-009
2.482116e-009
4.815962e-010
-1.711825e-009
-2.290207e-009
-9.137930e-010
1.129813e-009
2.113868e-009
1.330632e-009
-4.196981e-010
-1.653312e-009
-1.533076e-009
-5.008993e-010
3.017965e-010
2.101297e-010
-3.331819e-010
-2.793545e-010
9.013023e-010
2.572326e-009
3.395992e-009
2.480367e-009
1.471297e-010
-2.354024e-009
-3.863171e-009
-4.108582e-009
-3.634939e-009
-3.077029e-009
-2.553032e-009
-1.711169e-009
-2.570300e-010
1.642160e-009
3.460839e-009
4.753673e-009
5.459831e-009
5.813888e-009
6.028780e-009
6.099661e-009
5.885021e-009
5.316944e-009
4.499480e-009
3.619678e-009
2.798457e-009
2.038218e-009
1.291677e-009
5.527960e-010
-1.238290e-010
-6.735671e-010
-1.073899e-009
-1.347962e-009
-1.529029e-009
-1.627197e-009
-1.624961e-009
-1.498011e-009
-1.240843e-009
-8.768412e-010
-4.429141e-010
4.160925e-011
5.922387e-010
1.236606e-009
1.964094e-009
2.700614e-009
3.348940e-009
3.863855e-009
4.275688e-009
4.616650e-009
4.819457e-009
4.717241e-009
4.182108e-009
3.272841e-009
2.215338e-009
1.203431e-009
2.268080e-010
-8.557115e-010
-2.036867e-009
-2.982306e-009
-3.211405e-009
-2.527052e-009
-1.270452e-009
-9.514365e-011
5.645628e-010
8.068872e-010
1.025076e-009
1.362674e-009
1.464346e-009
8.480340e-010
-4.448754e-010
-1.630729e-009
-1.741091e-009
-5.222174e-010
1.177949e-009
1.992470e-009
1.163825e-009
-7.505193e-010
-2.247950e-009
-2.067314e-009
-2.283630e-010
1.932546e-009
2.772582e-009
1.606333e-009
-7.569696e-010
-2.608528e-009
2.508476e-009
-1.881531e-010
-3.156153e-009
-3.790450e-009
-1.290083e-009
2.750056e-009
5.515905e-009
5.011114e-009
1.444169e-009
-3.013804e-009
-5.821662e-009
-5.735511e-009
-3.330401e-009
-1.795381e-010
2.421620e-009
4.084272e-009
4.973250e-009
5.095797e-009
4.088167e-009
1.706188e-009
-1.581362e-009
-4.621500e-009
-6.295355e-009
-6.268843e-009
-5.081577e-009
-3.542792e-009
-2.058442e-009
-5.046168e-010
1.344640e-009
3.366415e-009
5.087012e-009
6.077816e-009
6.299430e-009
6.057255e-009
5.667757e-009
5.203650e-009
4.542572e-009
3.601896e-009
2.482303e-009
1.391905e-009
4.700801e-010
-2.938194e-010
-9.876095e-010
-1.654889e-009
-2.253215e-009
-2.711523e-009
-3.006073e-009
-3.177004e-009
-3.282569e-009
-3.345536e-009
-3.340518e-009
-3.226447e-009
-2.990660e-009
-2.664314e-009
-2.292941e-009
-1.886381e-009
-1.399024e-009
-7.715205e-010
-2.419256e-012
8.275316e-010
1.619605e-009
2.350984e-009
3.084749e-009
3.858823e-009
4.563422e-009
4.962733e-009
4.876010e-009
4.338923e-009
3.551857e-009
2.645531e-009
1.526172e-009
1.568231e-011
-1.819471e-009
-3.511981e-009
-4.440976e-009
-4.291923e-009
-3.277523e-009
-1.889110e-009
-4.469365e-010
1.051707e-009
2.612949e-009
3.837397e-009
3.971664e-009
2.517833e-009
-1.324160e-010
-2.708367e-009
-3.837615e-009
-2.996264e-009
-8.518937e-010
1.259895e-009
2.261038e-009
1.929119e-009
8.093704e-010
-3.270001e-010
-9.752600e-010
-1.037198e-009
-6.763011e-010
-1.291202e-010
3.865443e-010
6.959194e-010
1.190892e-009
-3.136717e-010
-2.080545e-009
-2.603343e-009
-1.122900e-009
1.734452e-009
4.191212e-009
4.438851e-009
1.962020e-009
-1.933952e-009
-4.910689e-009
-5.197407e-009
-2.793284e-009
6.565850e-010
3.152295e-009
3.699490e-009
2.688667e-009
1.188769e-009
-2.770031e-011
-8.512358e-010
-1.465383e-009
-1.840668e-009
-1.690465e-009
-8.664054e-010
3.325918e-010
1.325544e-009
1.717055e-009
1.568034e-009
1.212907e-009
8.649983e-010
4.429653e-010
-2.383009e-010
-1.175059e-009
-2.117104e-009
-2.786161e-009
-3.110421e-009
-3.231386e-009
-3.310634e-009
-3.365708e-009
-3.294756e-009
-3.026568e-009
-2.615669e-009
-2.192973e-009
-1.847624e-009
-1.570776e-009
-1.304146e-009
-1.024160e-009
-7.724618e-010
-6.135282e-010
-5.729548e-010
-6.185239e-010
-6.976446e-010
-7.915083e-010
-9.324230e-010
-1.164972e-009
-1.486456e-009
-1.829052e-009
-2.111186e-009
-2.311177e-009
-2.479046e-009
-2.658750e-009
-2.798840e-009
-2.763806e-009
-2.458669e-009
-1.939945e-009
-1.375721e-009
-8.779564e-010
-3.931359e-010
2.026960e-010
8.890813e-010
1.416864e-009
1.488904e-009
1.042041e-009
3.250946e-010
-3.263063e-010
-7.745028e-010
-1.100885e-009
-1.344026e-009
-1.289528e-009
-6.231959e-010
6.539379e-010
2.000050e-009
2.614064e-009
2.031738e-009
4.996347e-010
-1.207664e-009
-2.326635e-009
-2.503195e-009
-1.787672e-009
-4.237133e-010
1.224135e-009
2.571378e-009
2.867330e-009
1.639662e-009
-7.335895e-010
-2.941526e-009
-3.480143e-009
-1.788181e-009
1.156242e-009
3.398135e-009
-1.501018e-009
-8.936353e-011
1.266631e-009
1.274647e-009
2.178528e-011
-1.223200e-009
-1.313308e-009
-2.962412e-010
7.669057e-010
9.646892e-010
4.438620e-010
1.421089e-010
6.627514e-010
1.496645e-009
1.435518e-009
-2.040442e-010
-2.760463e-009
-4.633022e-009
-4.540360e-009
-2.471573e-009
4.634801e-010
3.002596e-009
4.555568e-009
5.237235e-009
5.323459e-009
4.826000e-009
3.580862e-009
1.613297e-009
-7.071348e-010
-2.888111e-009
-4.636560e-009
-5.939057e-009
-6.875213e-009
-7.426216e-009
-7.489600e-009
-7.037742e-009
-6.203586e-009
-5.193567e-009
-4.138954e-009
-3.050874e-009
-1.906372e-009
-7.468757e-010
3.219968e-010
1.213779e-009
1.923998e-009
2.506728e-009
3.000337e-009
3.385549e-009
3.613413e-009
3.664125e-009
3.571017e-009
3.386047e-009
3.125183e-009
2.752463e-009
2.221784e-009
1.533988e-009
7.463094e-010
-8.085584e-011
-9.424030e-010
-1.878888e-009
-2.896845e-009
-3.904804e-009
-4.747749e-009
-5.314793e-009
-5.599799e-009
-5.637487e-009
-5.387401e-009
-4.719032e-009
-3.545895e-009
-1.970740e-009
-2.667342e-010
1.299028e-009
2.597522e-009
3.567089e-009
4.041984e-009
3.746075e-009
2.548873e-009
7.405191e-010
-1.018244e-009
-2.103833e-009
-2.325550e-009
-1.923009e-009
-1.208775e-009
-2.979874e-010
7.528311e-010
1.610903e-009
1.671491e-009
5.995592e-010
-1.083468e-009
-2.112991e-009
-1.449711e-009
6.672777e-010
2.643780e-009
2.719806e-009
5.178249e-010
-2.433784e-009
-3.799527e-009
-2.339464e-009
9.807203e-010
3.668351e-009
-4.426738e-009
-1.346089e-010
4.471149e-009
5.377699e-009
1.775674e-009
-3.508047e-009
-6.488900e-009
-5.173135e-009
-8.089260e-010
3.511927e-009
5.400696e-009
4.636371e-009
2.589203e-009
5.709542e-010
-1.156605e-009
-2.946425e-009
-4.693852e-009
-5.471629e-009
-4.314885e-009
-1.299400e-009
2.260364e-009
4.737526e-009
5.353879e-009
4.519825e-009
3.179722e-009
1.930532e-009
7.450530e-010
-6.149102e-010
-2.093271e-009
-3.291939e-009
-3.839579e-009
-3.711123e-009
-3.176877e-009
-2.507231e-009
-1.779653e-009
-9.462375e-010
-1.094279e-011
9.097928e-010
1.684241e-009
2.275917e-009
2.739449e-009
3.129177e-009
3.439549e-009
3.635719e-009
3.718613e-009
3.739688e-009
3.753295e-009
3.769243e-009
3.760445e-009
3.710875e-009
3.643662e-009
3.596533e-009
3.575393e-009
3.542422e-009
3.454111e-009
3.304329e-009
3.118810e-009
2.904632e-009
2.616970e-009
2.191544e-009
1.612291e-009
9.328595e-010
2.198645e-010
-5.130875e-010
-1.286850e-009
-2.061172e-009
-2.683061e-009
-2.970054e-009
-2.854892e-009
-2.417314e-009
-1.746922e-009
-8.058889e-010
4.950978e-010
2.037640e-009
3.355887e-009
3.861713e-009
3.288819e-009
1.913198e-009
2.969444e-010
-1.175825e-009
-2.443416e-009
-3.427258e-009
-3.667241e-009
-2.527738e-009
4.224199e-011
2.963810e-009
4.472689e-009
3.426832e-009
3.890766e-010
-2.593637e-009
-3.495540e-009
-1.889667e-009
7.535451e-010
2.311716e-009
1.733646e-009
-2.076903e-010
-1.705382e-009
-1.505063e-009
8.016568e-011
1.540086e-009
-5.408370e-009
-5.960981e-010
4.808871e-009
6.363120e-009
2.816077e-009
-3.090603e-009
-6.905764e-009
-5.931289e-009
-1.132225e-009
3.889194e-009
5.829258e-009
4.043123e-009
5.348153e-010
-2.073261e-009
-2.605308e-009
-1.726860e-009
-7.199319e-010
-1.335481e-010
3.855264e-010
1.202191e-009
1.942759e-009
1.762674e-009
2.865082e-010
-1.858331e-009
-3.500633e-009
-3.882723e-009
-3.150528e-009
-1.980783e-009
-8.505333e-010
2.843351e-010
1.686556e-009
3.365553e-009
4.970389e-009
6.097005e-009
6.618704e-009
6.701992e-009
6.561777e-009
6.261367e-009
5.741519e-009
4.979637e-009
4.070351e-009
3.157126e-009
2.323671e-009
1.570801e-009
8.799988e-010
2.697221e-010
-2.165738e-010
-5.573369e-010
-7.675218e-010
-8.674679e-010
-8.532799e-010
-7.076170e-010
-4.316892e-010
-5.115319e-011
4.134339e-010
9.686730e-010
1.625641e-009
2.356301e-009
3.089249e-009
3.759875e-009
4.352642e-009
4.869351e-009
5.250989e-009
5.360968e-009
5.083612e-009
4.442925e-009
3.588562e-009
2.636710e-009
1.551506e-009
2.477087e-010
-1.161336e-009
-2.272746e-009
-2.646188e-009
-2.194952e-009
-1.291674e-009
-4.301978e-010
2.077789e-010
7.799350e-010
1.353703e-009
1.553215e-009
8.201587e-010
-8.572806e-010
-2.541493e-009
-2.882665e-009
-1.273694e-009
1.438776e-009
3.453821e-009
3.384089e-009
1.319775e-009
-1.307370e-009
-2.866458e-009
-2.654932e-009
-1.156029e-009
5.633812e-010
1.639892e-009
1.784333e-009
1.175293e-009
1.915383e-010
-7.635486e-010
-1.344513e-009
-2.754494e-009
-8.559136e-010
1.538634e-009
2.738620e-009
1.900935e-009
-3.012757e-010
-2.088581e-009
-1.964303e-009
-4.657203e-011
1.891408e-009
1.901679e-009
-3.467110e-010
-3.118851e-009
-4.017622e-009
-2.021017e-009
1.680582e-009
4.741157e-009
5.537784e-009
4.155830e-009
1.801312e-009
-4.874421e-010
-2.477698e-009
-4.309994e-009
-5.767805e-009
-6.194834e-009
-5.122401e-009
-2.830658e-009
-1.899715e-010
2.031966e-009
3.657481e-009
4.942427e-009
6.062961e-009
6.847870e-009
6.989480e-009
6.415279e-009
5.386969e-009
4.259955e-009
3.206012e-009
2.180929e-009
1.106392e-009
2.294161e-011
-9.381610e-010
-1.686854e-009
-2.241852e-009
-2.677542e-009
-3.037518e-009
-3.313058e-009
-3.485510e-009
-3.562136e-009
-3.566457e-009
-3.511948e-009
-3.399040e-009
-3.229421e-009
-3.004610e-009
-2.706868e-009
-2.298840e-009
-1.758736e-009
-1.110142e-009
-3.960539e-010
3.823619e-010
1.276247e-009
2.306492e-009
3.370224e-009
4.265759e-009
4.842479e-009
5.112307e-009
5.167728e-009
4.975709e-009
4.307195e-009
2.950866e-009
1.021935e-009
-9.943439e-010
-2.570674e-009
-3.508932e-009
-3.934877e-009
-3.921149e-009
-3.223478e-009
-1.544931e-009
8.799498e-010
3.070798e-009
3.864055e-009
2.837498e-009
7.149592e-010
-1.176358e-009
-1.897811e-009
-1.437742e-009
-4.260285e-010
5.053982e-010
1.032065e-009
9.996285e-010
3.041959e-010
-8.814768e-010
-1.854757e-009
-1.684963e-009
-7.046557e-011
2.062113e-009
3.040741e-009
1.832271e-009
-8.906786e-010
-3.116024e-009
2.840056e-009
-2.604837e-010
-3.350071e-009
-3.554899e-009
-7.326197e-010
2.732522e-009
4.284225e-009
3.259236e-009
8.863758e-010
-1.298090e-009
-2.721399e-009
-3.572805e-009
-3.797480e-009
-2.767327e-009
-1.154033e-010
3.305701e-009
5.639419e-009
5.422546e-009
2.821973e-009
-5.230598e-010
-2.865132e-009
-3.569977e-009
-3.144605e-009
-2.330721e-009
-1.367447e-009
-1.013486e-010
1.425933e-009
2.730787e-009
3.262530e-009
2.911590e-009
2.058077e-009
1.150402e-009
3.213610e-010
-5.683332e-010
-1.597345e-009
-2.590219e-009
-3.261529e-009
-3.487263e-009
-3.387159e-009
-3.161251e-009
-2.896863e-009
-2.548298e-009
-2.063992e-009
-1.487004e-009
-9.275696e-010
-4.691255e-010
-1.228700e-010
1.387527e-010
3.304729e-010
4.407560e-010
4.495129e-010
3.425140e-010
1.156528e-010
-2.162281e-010
-6.116181e-010
-1.020675e-009
-1.424263e-009
-1.842422e-009
-2.279513e-009
-2.658127e-009
-2.837036e-009
-2.725094e-009
-2.371314e-009
-1.906805e-009
-1.382626e-009
-7.016658e-010
2.350681e-010
1.309033e-009
2.167353e-009
2.483243e-009
2.229334e-009
1.643033e-009
9.122472e-010
-2.573263e-011
-1.276124e-009
-2.580650e-009
-3.247767e-009
-2.642211e-009
-8.069772e-010
1.437822e-009
3.060508e-009
3.490902e-009
2.777404e-009
1.247376e-009
-7.521130e-010
-2.691590e-009
-3.667026e-009
-2.807994e-009
-2.018608e-010
2.642520e-009
3.647052e-009
1.906714e-009
-1.266824e-009
-3.230717e-009
-2.279087e-009
7.419494e-010
3.093421e-009
2.607150e-009
-2.978503e-010
-2.970675e-009
7.966344e-009
9.539356e-010
-6.568196e-009
-8.258196e-009
-3.160132e-009
4.084627e-009
7.678591e-009
5.477328e-009
9.050413e-011
-4.068113e-009
-4.591493e-009
-2.374884e-009
1.199764e-010
1.343732e-009
1.463526e-009
1.272081e-009
9.199345e-010
-5.066787e-011
-1.677985e-009
-3.020467e-009
-2.850393e-009
-8.523214e-010
1.999533e-009
4.265282e-009
5.161096e-009
4.884331e-009
4.020977e-009
2.850676e-009
1.275996e-009
-7.341676e-010
-2.838854e-009
-4.518601e-009
-5.487376e-009
-5.833557e-009
-5.784057e-009
-5.421685e-009
-4.671841e-009
-3.508122e-009
-2.087253e-009
-6.585667e-010
6.214830e-010
1.754793e-009
2.803820e-009
3.771302e-009
4.588219e-009
5.192342e-009
5.588954e-009
5.834835e-009
5.982301e-009
6.045543e-009
6.006142e-009
5.835996e-009
5.519421e-009
5.067766e-009
4.513875e-009
3.877624e-009
3.130117e-009
2.209478e-009
1.096835e-009
-1.224389e-010
-1.297727e-009
-2.328992e-009
-3.224468e-009
-4.010603e-009
-4.587776e-009
-4.725811e-009
-4.250796e-009
-3.229501e-009
-1.922961e-009
-5.460134e-010
8.695662e-010
2.310453e-009
3.508766e-009
3.956501e-009
3.306246e-009
1.765896e-009
2.417971e-011
-1.253946e-009
-1.823344e-009
-1.751114e-009
-1.063346e-009
2.610693e-010
1.844860e-009
2.671854e-009
1.706778e-009
-9.501971e-010
-3.604797e-009
-4.054538e-009
-1.532817e-009
2.304456e-009
4.523831e-009
3.375778e-009
-1.368931e-010
-3.099467e-009
-3.231311e-009
-8.183484e-010
1.717380e-009
2.143402e-009
4.261564e-010
-1.422086e-009
8.654242e-009
1.685772e-009
-5.915417e-009
-7.912936e-009
-3.305004e-009
3.332039e-009
6.213325e-009
3.358487e-009
-2.090114e-009
-5.069830e-009
-3.139612e-009
1.717791e-009
5.293422e-009
4.928137e-009
1.365415e-009
-2.571971e-009
-4.670696e-009
-4.707244e-009
-3.668874e-009
-2.232233e-009
-2.824987e-010
2.301789e-009
4.857490e-009
6.211305e-009
5.702660e-009
3.774988e-009
1.521024e-009
-2.505141e-010
-1.446796e-009
-2.334148e-009
-2.974578e-009
-3.113921e-009
-2.533784e-009
-1.360128e-009
2.599240e-011
1.313639e-009
2.432573e-009
3.433303e-009
4.290716e-009
4.877095e-009
5.098275e-009
4.998739e-009
4.716222e-009
4.360244e-009
3.956793e-009
3.497272e-009
3.010682e-009
2.576091e-009
2.275960e-009
2.147541e-009
2.174056e-009
2.313154e-009
2.535043e-009
2.840383e-009
3.239200e-009
3.701981e-009
4.130967e-009
4.397029e-009
4.421679e-009
4.217660e-009
3.831559e-009
3.250537e-009
2.401144e-009
1.270719e-009
1.464292e-011
-1.104312e-009
-1.903524e-009
-2.373056e-009
-2.543484e-009
-2.295271e-009
-1.401502e-009
1.661837e-010
2.008160e-009
3.471429e-009
4.100993e-009
3.877985e-009
2.989149e-009
1.479640e-009
-6.572229e-010
-2.967954e-009
-4.325777e-009
-3.614824e-009
-8.918054e-010
2.199637e-009
3.494998e-009
2.107846e-009
-7.120778e-010
-2.591005e-009
-2.064605e-009
2.274449e-010
2.240369e-009
2.373868e-009
7.395252e-010
-1.182064e-009
-1.963755e-009
-1.344979e-009
-1.605360e-010
6.072588e-010
6.634339e-010
4.342108e-010
3.573083e-009
1.060369e-009
-1.718222e-009
-2.496437e-009
-9.107351e-010
1.195733e-009
1.451907e-009
-7.349703e-010
-3.374506e-009
-3.561080e-009
-2.675486e-010
4.370862e-009
6.684044e-009
4.640765e-009
-3.676049e-010
-4.775382e-009
-5.860892e-009
-3.698377e-009
-4.768634e-010
1.737940e-009
2.473494e-009
2.438792e-009
2.198599e-009
1.576533e-009
2.474497e-010
-1.460199e-009
-2.611044e-009
-2.477349e-009
-1.154699e-009
6.594928e-010
2.370601e-009
3.871178e-009
5.300563e-009
6.605471e-009
7.445328e-009
7.485105e-009
6.677778e-009
5.231760e-009
3.367006e-009
1.165632e-009
-1.357184e-009
-4.109723e-009
-6.897301e-009
-9.523568e-009
-1.188323e-008
-1.394924e-008
-1.569326e-008
-1.703930e-008
-1.789272e-008
-1.820045e-008
-1.797661e-008
-1.727231e-008
-1.612432e-008
-1.453591e-008
-1.251313e-008
-1.012375e-008
-7.514082e-009
-4.854473e-009
-2.266038e-009
1.838337e-010
2.403794e-009
4.218955e-009
5.432346e-009
5.965470e-009
5.910471e-009
5.407573e-009
4.488433e-009
3.109436e-009
1.379757e-009
-2.975114e-010
-1.414882e-009
-1.735130e-009
-1.427242e-009
-7.834535e-010
1.263938e-010
1.365074e-009
2.644577e-009
3.114083e-009
1.939458e-009
-7.223632e-010
-3.417622e-009
-4.330248e-009
-2.755736e-009
2.621606e-010
2.764009e-009
3.388878e-009
2.201066e-009
2.783712e-010
-1.267195e-009
-1.868351e-009
-1.461477e-009
-3.131396e-010
9.688979e-010
1.537562e-009
8.566382e-010
-6.632262e-010
-1.761300e-009
-1.371496e-009
2.939072e-010
1.803585e-009
-4.494843e-009
-5.468889e-010
3.617232e-009
4.570792e-009
2.039447e-009
-1.505485e-009
-3.502510e-009
-3.266631e-009
-1.699928e-009
1.620364e-010
1.830132e-009
2.879285e-009
2.579768e-009
5.841774e-010
-2.113570e-009
-3.462652e-009
-2.059049e-009
1.375613e-009
4.405265e-009
4.912986e-009
2.778398e-009
-3.493485e-010
-2.711855e-009
-3.735846e-009
-3.857808e-009
-3.484731e-009
-2.444633e-009
-4.277578e-010
2.316025e-009
4.935591e-009
6.607950e-009
7.079841e-009
6.569463e-009
5.267302e-009
3.061208e-009
-2.659301e-010
-4.693159e-009
-9.895415e-009
-1.548366e-008
-2.123764e-008
-2.709415e-008
-3.297240e-008
-3.867307e-008
-4.394698e-008
-4.861843e-008
-5.261461e-008
-5.588996e-008
-5.835277e-008
-5.987728e-008
-6.037543e-008
-5.984181e-008
-5.832651e-008
-5.587510e-008
-5.250947e-008
-4.827535e-008
-4.330209e-008
-3.779820e-008
-3.197643e-008
-2.599276e-008
-1.997989e-008
-1.414021e-008
-8.766791e-009
-4.127945e-009
-3.297243e-010
2.663338e-009
4.844771e-009
6.047241e-009
6.086224e-009
5.045861e-009
3.355791e-009
1.511151e-009
-2.578959e-010
-1.935065e-009
-3.308449e-009
-3.759865e-009
-2.697368e-009
-3.125505e-010
2.197670e-009
3.377154e-009
2.627212e-009
6.327464e-010
-1.274777e-009
-2.115290e-009
-1.690737e-009
-3.301921e-010
1.413673e-009
2.736347e-009
2.654567e-009
7.008160e-010
-2.210205e-009
-3.953873e-009
-2.848105e-009
5.464325e-010
3.493542e-009
3.414638e-009
4.094791e-010
-2.671505e-009
-2.927261e-009
-2.741096e-010
2.474262e-009
-1.043973e-008
-1.730023e-009
7.292876e-009
8.968573e-009
3.035451e-009
-4.172897e-009
-6.321644e-009
-2.625710e-009
2.519185e-009
4.423949e-009
2.182168e-009
-1.551882e-009
-3.775749e-009
-3.574343e-009
-1.837552e-009
4.020426e-010
2.717917e-009
4.676280e-009
5.308717e-009
3.774654e-009
4.967550e-010
-2.759054e-009
-4.192041e-009
-3.354594e-009
-1.228487e-009
9.134643e-010
2.527835e-009
3.737244e-009
4.559454e-009
4.486536e-009
2.850170e-009
-5.842970e-010
-5.525459e-009
-1.159801e-008
-1.873760e-008
-2.711324e-008
-3.676203e-008
-4.740703e-008
-5.862871e-008
-7.012926e-008
-8.177868e-008
-9.344113e-008
-1.048258e-007
-1.155278e-007
-1.251794e-007
-1.335276e-007
-1.403803e-007
-1.455206e-007
-1.487082e-007
-1.497605e-007
-1.486169e-007
-1.453191e-007
-1.399495e-007
-1.326155e-007
-1.235039e-007
-1.129322e-007
-1.013132e-007
-8.905275e-008
-7.649058e-008
-6.395324e-008
-5.183848e-008
-4.058467e-008
-3.050803e-008
-2.168364e-008
-1.404142e-008
-7.598842e-009
-2.547647e-009
9.469816e-010
3.006286e-009
3.997201e-009
4.179471e-009
3.476606e-009
1.747990e-009
-6.617407e-010
-2.763785e-009
-3.487545e-009
-2.482290e-009
-3.537955e-010
1.860495e-009
3.352552e-009
3.705382e-009
2.709253e-009
4.690341e-010
-2.136182e-009
-3.472244e-009
-2.283654e-009
8.339068e-010
3.360177e-009
2.866276e-009
-5.166605e-010
-3.807121e-009
-3.806051e-009
-2.882286e-010
3.552291e-009
4.117490e-009
9.741816e-010
-2.695300e-009
-3.315923e-009
-5.386262e-010
2.492309e-009
-1.054060e-008
-1.393128e-009
7.654593e-009
8.427042e-009
1.322492e-009
-5.930768e-009
-6.298839e-009
-1.879479e-011
6.351211e-009
6.719014e-009
1.035912e-009
-5.391466e-009
-7.330963e-009
-4.060594e-009
1.011919e-009
4.148877e-009
4.253125e-009
2.621607e-009
8.178534e-010
-6.050308e-010
-1.611970e-009
-1.788404e-009
-4.965586e-010
2.173898e-009
5.033079e-009
6.590238e-009
6.139788e-009
3.950539e-009
4.910934e-010
-4.318207e-009
-1.104564e-008
-2.014093e-008
-3.159138e-008
-4.517617e-008
-6.088838e-008
-7.897539e-008
-9.959105e-008
-1.225052e-007
-1.471727e-007
-1.730035e-007
-1.994920e-007
-2.261037e-007
-2.521284e-007
-2.767083e-007
-2.990096e-007
-3.183481e-007
-3.341678e-007
-3.459574e-007
-3.532420e-007
-3.556658e-007
-3.530685e-007
-3.454774e-007
-3.330541e-007
-3.160908e-007
-2.950729e-007
-2.707200e-007
-2.439211e-007
-2.156046e-007
-1.866687e-007
-1.580204e-007
-1.306107e-007
-1.053238e-007
-8.275757e-008
-6.311520e-008
-4.634701e-008
-3.239373e-008
-2.123437e-008
-1.268090e-008
-6.227793e-009
-1.265544e-009
2.480038e-009
4.788855e-009
5.334117e-009
4.246781e-009
2.238476e-009
1.735558e-010
-1.362985e-009
-2.027004e-009
-1.476876e-009
4.153783e-010
2.918000e-009
4.312912e-009
3.043733e-009
-5.994523e-010
-4.109709e-009
-4.633399e-009
-1.635070e-009
2.330249e-009
3.825340e-009
1.754160e-009
-1.614542e-009
-2.934219e-009
-1.098241e-009
1.781381e-009
2.679394e-009
7.904522e-010
-1.761282e-009
-2.279360e-009
-3.509317e-010
1.808277e-009
-5.028378e-009
1.426083e-010
4.704440e-009
3.840582e-009
-1.436134e-009
-5.478473e-009
-3.850948e-009
2.132104e-009
6.694448e-009
5.335720e-009
-7.628591e-010
-5.978461e-009
-5.714976e-009
-5.932075e-010
4.548705e-009
5.415242e-009
1.895649e-009
-2.583780e-009
-4.618351e-009
-3.455391e-009
-6.005025e-010
2.286595e-009
4.625063e-009