# vtk DataFile Version 3.0
vtk output
ASCII
DATASET STRUCTURED_POINTS
DIMENSIONS 100 100 1
SPACING 1 1 1
ORIGIN 0 0 0
POINT_DATA 10000
SCALARS SFBox_profile double
LOOKUP_TABLE default 
0.000000e+000
0.000000e+000
0.000000e+000
0.000000e+000
0.000000e+000
0.000000e+000
0.000000e+000
0.000000e+000
0.000000e+000
0.000000e+000
0.000000e+000
0.000000e+000
0.000000e+000
0.000000e+000
0.000000e+000
0.000000e+000
0.000000e+000
0.000000e+000
0.000000e+000
0.000000e+000
0.000000e+000
0.000000e+000
0.000000e+000
0.000000e+000
0.000000e+000
0.000000e+000
0.000000e+000
0.000000e+000
0.000000e+000
0.000000e+000
0.000000e+000
0.000000e+000
0.000000e+000
0.000000e+000
0.000000e+000
0.000000e+000
0.000000e+000
0.000000e+000
0.000000e+000
0.000000e+000
0.000000e+000
0.000000e+000
0.000000e+000
0.000000e+000
0.000000e+000
0.000000e+000
0.000000e+000
0.000000e+000
0.000000e+000
0.000000e+000
0.000000e+000
0.000000e+000
0.000000e+000
0.000000e+000
0.000000e+000
0.000000e+000
0.000000e+000
0.000000e+000
0.000000e+000
0.000000e+000
0.000000e+000
0.000000e+000
0.000000e+000
0.000000e+000
0.000000e+000
0.000000e+000
0.000000e+000
0.000000e+000
0.000000e+000
0.000000e+000
0.000000e+000
0.000000e+000
0.000000e+000
0.000000e+000
0.000000e+000
0.000000e+000
0.000000e+000
0.000000e+000
0.000000e+000
0.000000e+000
0.000000e+000
0.000000e+000
0.000000e+000
0.000000e+000
0.000000e+000
0.000000e+000
0.000000e+000
0.000000e+000
0.000000e+000
0.000000e+000
0.000000e+000
0.000000e+000
0.000000e+000
0.000000e+000
0.000000e+000
0.000000e+000
0.000000e+000
0.000000e+000
0.000000e+000
0.000000e+000
-6.699736e-010
-6.511960e-010
-6.137850e-010
-5.578871e-010
-4.833842e-010
-3.895369e-010
-2.745927e-010
-1.354460e-010
3.255382e-011
2.355105e-010
4.804827e-010
7.744616e-010
1.122760e-009
1.526842e-009
1.981734e-009
2.473305e-009
2.975820e-009
3.450252e-009
3.843805e-009
4.091008e-009
4.116499e-009
3.839334e-009
3.178395e-009
2.058223e-009
4.145405e-010
-1.801272e-009
-4.619251e-009
-8.049767e-009
-1.208424e-008
-1.669742e-008
-2.185072e-008
-2.749619e-008
-3.358047e-008
-4.004836e-008
-4.684564e-008
-5.392083e-008
-6.122597e-008
-6.871631e-008
-7.634910e-008
-8.408181e-008
-9.187001e-008
-9.966523e-008
-1.074131e-007
-1.150517e-007
-1.225108e-007
-1.297115e-007
-1.365658e-007
-1.429775e-007
-1.488426e-007
-1.540506e-007
-1.584854e-007
-1.620282e-007
-1.645591e-007
-1.659612e-007
-1.661244e-007
-1.649516e-007
-1.623646e-007
-1.583114e-007
-1.527740e-007
-1.457755e-007
-1.373864e-007
-1.277294e-007
-1.169808e-007
-1.053688e-007
-9.316720e-008
-8.068548e-008
-6.825342e-008
-5.620309e-008
-4.484831e-008
-3.446401e-008
-2.526759e-008
-1.740480e-008
-1.094197e-008
-5.865845e-009
-2.091216e-009
5.249228e-010
2.164638e-009
3.028590e-009
3.316629e-009
3.211834e-009
2.869493e-009
2.411501e-009
1.925694e-009
1.468999e-009
1.072926e-009
7.500074e-010
5.000402e-010
3.153934e-010
1.850400e-010
9.728627e-011
4.137813e-011
8.257156e-012
-9.251561e-012
-1.657788e-011
-1.769269e-011
-1.542539e-011
-1.174958e-011
-8.009839e-012
-5.086357e-012
-3.505255e-012
-6.402742e-010
-6.200042e-010
-5.793463e-010
-5.179159e-010
-4.347844e-010
-3.281362e-010
-1.949411e-010
-3.077128e-011
1.700781e-010
4.139788e-010
7.066831e-010
1.051221e-009
1.444933e-009
1.875755e-009
2.318084e-009
2.728762e-009
3.043913e-009
3.177433e-009
3.021829e-009
2.451863e-009
1.330980e-009
-4.799700e-010
-3.112683e-009
-6.681318e-009
-1.127370e-008
-1.694500e-008
-2.371452e-008
-3.156600e-008
-4.045089e-008
-5.029412e-008
-6.100129e-008
-7.246637e-008
-8.457894e-008
-9.723026e-008
-1.103177e-007
-1.237473e-007
-1.374341e-007
-1.513014e-007
-1.652778e-007
-1.792935e-007
-1.932770e-007
-2.071508e-007
-2.208280e-007
-2.342102e-007
-2.471856e-007
-2.596281e-007
-2.713978e-007
-2.823411e-007
-2.922918e-007
-3.010732e-007
-3.084993e-007
-3.143785e-007
-3.185166e-007
-3.207223e-007
-3.208136e-007
-3.186260e-007
-3.140225e-007
-3.069048e-007
-2.972257e-007
-2.850010e-007
-2.703212e-007
-2.533599e-007
-2.343795e-007
-2.137308e-007
-1.918472e-007
-1.692307e-007
-1.464314e-007
-1.240193e-007
-1.025516e-007
-8.253776e-008
-6.440521e-008
-4.847116e-008
-3.492342e-008
-2.381347e-008
-1.506285e-008
-8.482038e-009
-3.798848e-009
-6.920121e-010
1.174983e-009
2.124255e-009
2.441257e-009
2.361361e-009
2.065066e-009
1.680302e-009
1.289563e-009
9.395046e-010
6.509554e-010
4.279134e-010
2.647579e-010
1.514514e-010
7.690055e-011
3.084843e-011
4.724083e-012
-8.163655e-012
-1.278499e-011
-1.269378e-011
-1.035247e-011
-7.415104e-012
-4.945324e-012
-3.569529e-012
-5.782298e-010
-5.545497e-010
-5.065013e-010
-4.325535e-010
-3.300732e-010
-1.950698e-010
-2.210877e-011
1.953615e-010
4.639744e-010
7.883658e-010
1.167739e-009
1.590882e-009
2.029676e-009
2.431495e-009
2.711310e-009
2.744785e-009
2.363912e-009
1.356783e-009
-5.272236e-010
-3.566303e-009
-8.049602e-009
-1.425667e-008
-2.243544e-008
-3.278172e-008
-4.542298e-008
-6.040861e-008
-7.770779e-008
-9.721467e-008
-1.187598e-007
-1.421258e-007
-1.670649e-007
-1.933162e-007
-2.206210e-007
-2.487348e-007
-2.774351e-007
-3.065248e-007
-3.358317e-007
-3.652049e-007
-3.945077e-007
-4.236106e-007
-4.523822e-007
-4.806817e-007
-5.083528e-007
-5.352179e-007
-5.610759e-007
-5.857000e-007
-6.088381e-007
-6.302139e-007
-6.495278e-007
-6.664606e-007
-6.806754e-007
-6.918231e-007
-6.995475e-007
-7.034939e-007
-7.033193e-007
-6.987066e-007
-6.893806e-007
-6.751287e-007
-6.558219e-007
-6.314385e-007
-6.020865e-007
-5.680239e-007
-5.296739e-007
-4.876331e-007
-4.426681e-007
-3.957004e-007
-3.477753e-007
-3.000164e-007
-2.535663e-007
-2.095171e-007
-1.688391e-007
-1.323141e-007
-1.004823e-007
-7.361268e-008
-5.169941e-008
-3.448652e-008
-2.151642e-008
-1.219417e-008
-5.857302e-009
-1.841181e-009
4.682340e-010
1.598740e-009
1.974221e-009
1.912770e-009
1.636440e-009
1.287829e-009
9.491163e-010
6.602492e-010
4.342769e-010
2.690192e-010
1.551247e-010
8.108854e-011
3.599257e-011
1.071599e-011
-1.766949e-012
-6.559936e-012
-7.201972e-012
-6.043934e-012
-4.571312e-012
-3.642067e-012
-4.778940e-010
-4.479860e-010
-3.865237e-010
-2.900981e-010
-1.534098e-010
3.064697e-011
2.703423e-010
5.734245e-010
9.438015e-010
1.375953e-009
1.846547e-009
2.303024e-009
2.649493e-009
2.731044e-009
2.318562e-009
1.096937e-009
-1.339915e-009
-5.483959e-009
-1.189566e-008
-2.117383e-008
-3.391480e-008
-5.066504e-008
-7.187358e-008
-9.785095e-008
-1.287406e-007
-1.645066e-007
-2.049394e-007
-2.496766e-007
-2.982364e-007
-3.500569e-007
-4.045373e-007
-4.610751e-007
-5.190974e-007
-5.780825e-007
-6.375720e-007
-6.971736e-007
-7.565567e-007
-8.154408e-007
-8.735806e-007
-9.307498e-007
-9.867243e-007
-1.041268e-006
-1.094120e-006
-1.144986e-006
-1.193536e-006
-1.239396e-006
-1.282151e-006
-1.321348e-006
-1.356494e-006
-1.387063e-006
-1.412496e-006
-1.432214e-006
-1.445615e-006
-1.452097e-006
-1.451063e-006
-1.441944e-006
-1.424226e-006
-1.397477e-006
-1.361380e-006
-1.315778e-006
-1.260711e-006
-1.196460e-006
-1.123588e-006
-1.042972e-006
-9.558183e-007
-8.636661e-007
-7.683543e-007
-6.719618e-007
-5.767123e-007
-4.848485e-007
-3.984858e-007
-3.194604e-007
-2.491925e-007
-1.885849e-007
-1.379756e-007
-9.715103e-008
-6.541960e-008
-4.173047e-008
-2.481647e-008
-1.333763e-008
-6.004794e-009
-1.670129e-009
6.203023e-010
1.609239e-009
1.838527e-009
1.677169e-009
1.357573e-009
1.012422e-009
7.071828e-010
4.658706e-010
2.896490e-010
1.690770e-010
9.140773e-011
4.440686e-011
1.796463e-011
4.456948e-012
-1.494110e-012
-3.475227e-012
-3.741016e-012
-3.583170e-012
-3.287440e-010
-2.883422e-010
-2.044890e-010
-7.113985e-011
1.204074e-010
3.804350e-010
7.182577e-010
1.137228e-009
1.626124e-009
2.145736e-009
2.609783e-009
2.860033e-009
2.636818e-009
1.547866e-009
-9.596344e-010
-5.617208e-009
-1.333623e-008
-2.518559e-008
-4.234211e-008
-6.601454e-008
-9.734738e-008
-1.373161e-007
-1.866287e-007
-2.456496e-007
-3.143572e-007
-3.923417e-007
-4.788427e-007
-5.728174e-007
-6.730286e-007
-7.781398e-007
-8.868038e-007
-9.977375e-007
-1.109777e-006
-1.221910e-006
-1.333289e-006
-1.443220e-006
-1.551149e-006
-1.656627e-006
-1.759282e-006
-1.858789e-006
-1.954836e-006
-2.047110e-006
-2.135271e-006
-2.218945e-006
-2.297715e-006
-2.371114e-006
-2.438628e-006
-2.499692e-006
-2.553692e-006
-2.599969e-006
-2.637818e-006
-2.666494e-006
-2.685217e-006
-2.693176e-006
-2.689545e-006
-2.673494e-006
-2.644209e-006
-2.600925e-006
-2.542958e-006
-2.469755e-006
-2.380960e-006
-2.276485e-006
-2.156607e-006
-2.022057e-006
-1.874124e-006
-1.714722e-006
-1.546437e-006
-1.372498e-006
-1.196684e-006
-1.023141e-006
-8.561223e-007
-6.996656e-007
-5.572609e-007
-4.315472e-007
-3.241001e-007
-2.353479e-007
-1.646320e-007
-1.103954e-007
-7.045671e-008
-4.231545e-008
-2.343499e-008
-1.146521e-008
-4.386808e-009
-5.778020e-010
1.184135e-009
1.763391e-009
1.731649e-009
1.439525e-009
1.082814e-009
7.569616e-010
4.977807e-010
3.093532e-010
1.815407e-010
9.992712e-011
5.076256e-011
2.291097e-011
8.201349e-012
1.067758e-012
-2.024400e-012
-3.110000e-012
-1.138999e-010
-5.672456e-011
6.244679e-011
2.526866e-010
5.257188e-010
8.923199e-010
1.355251e-009
1.896752e-009
2.458357e-009
2.910887e-009
3.013327e-009
2.361128e-009
3.273579e-010
-3.996049e-009
-1.184569e-008
-2.480837e-008
-4.480176e-008
-7.400151e-008
-1.147092e-007
-1.691668e-007
-2.393365e-007
-3.266765e-007
-4.319512e-007
-5.551097e-007
-6.952555e-007
-8.507134e-007
-1.019177e-006
-1.197911e-006
-1.383972e-006
-1.574423e-006
-1.766502e-006
-1.957756e-006
-2.146109e-006
-2.329890e-006
-2.507810e-006
-2.678911e-006
-2.842507e-006
-2.998108e-006
-3.145367e-006
-3.284027e-006
-3.413888e-006
-3.534790e-006
-3.646591e-006
-3.749167e-006
-3.842395e-006
-3.926156e-006
-4.000319e-006
-4.064742e-006
-4.119259e-006
-4.163672e-006
-4.197747e-006
-4.221200e-006
-4.233683e-006
-4.234768e-006
-4.223920e-006
-4.200471e-006
-4.163584e-006
-4.112223e-006
-4.045135e-006
-3.960850e-006
-3.857726e-006
-3.734048e-006
-3.588192e-006
-3.418865e-006
-3.225402e-006
-3.008101e-006
-2.768541e-006
-2.509822e-006
-2.236681e-006
-1.955389e-006
-1.673425e-006
-1.398905e-006
-1.139837e-006
-9.032982e-007
-6.947083e-007
-5.173199e-007
-3.720428e-007
-2.576155e-007
-1.710605e-007
-1.082992e-007
-6.478688e-008
-3.605632e-008
-1.810285e-008
-7.599059e-009
-1.960214e-009
6.982884e-010
1.666805e-009
1.772388e-009
1.507212e-009
1.138461e-009
7.931897e-010
5.184067e-010
3.202127e-010
1.872050e-010
1.031207e-010
5.277197e-011
2.419134e-011
8.886496e-012
1.330225e-012
-1.708060e-012
1.918669e-010
2.745020e-010
4.462638e-010
7.182885e-010
1.101710e-009
1.598273e-009
2.183254e-009
2.776905e-009
3.200193e-009
3.111238e-009
1.920932e-009
-1.309528e-009
-7.980057e-009
-2.005484e-008
-4.013175e-008
-7.144652e-008
-1.177793e-007
-1.832388e-007
-2.719186e-007
-3.874481e-007
-5.324978e-007
-7.083237e-007
-9.144477e-007
-1.148548e-006
-1.406592e-006
-1.683182e-006
-1.972057e-006
-2.266640e-006
-2.560553e-006
-2.848037e-006
-3.124222e-006
-3.385273e-006
-3.628391e-006
-3.851728e-006
-4.054221e-006
-4.235410e-006
-4.395249e-006
-4.533970e-006
-4.651981e-006
-4.749831e-006
-4.828208e-006
-4.887964e-006
-4.930141e-006
-4.955994e-006
-4.966991e-006
-4.964805e-006
-4.951286e-006
-4.928428e-006
-4.898338e-006
-4.863194e-006
-4.825215e-006
-4.786603e-006
-4.749486e-006
-4.715821e-006
-4.687262e-006
-4.664991e-006
-4.649502e-006
-4.640353e-006
-4.635909e-006
-4.633118e-006
-4.627358e-006
-4.612432e-006
-4.580753e-006
-4.523783e-006
-4.432730e-006
-4.299480e-006
-4.117704e-006
-3.883997e-006
-3.598883e-006
-3.267458e-006
-2.899469e-006
-2.508695e-006
-2.111584e-006
-1.725351e-006
-1.365837e-006
-1.045609e-006
-7.726812e-007
-5.501051e-007
-3.764308e-007
-2.467961e-007
-1.542972e-007
-9.130161e-008
-5.047368e-008
-2.542524e-008
-1.101450e-008
-3.376518e-009
2.148149e-010
1.565411e-009
1.795482e-009
1.550362e-009
1.169182e-009
8.079475e-010
5.222647e-010
3.186738e-010
1.838814e-010
9.975745e-011
4.994719e-011
2.201831e-011
7.547899e-012
1.486821e-012
6.237195e-010
7.426823e-010
9.873352e-010
1.366393e-009
1.879186e-009
2.493848e-009
3.109365e-009
3.494366e-009
3.195180e-009
1.407529e-009
-3.188604e-009
-1.262186e-008
-2.982704e-008
-5.880691e-008
-1.046998e-007
-1.736824e-007
-2.726355e-007
-4.085260e-007
-5.875117e-007
-8.138640e-007
-1.088898e-006
-1.410157e-006
-1.771089e-006
-2.161339e-006
-2.567633e-006
-2.975083e-006
-3.368638e-006
-3.734418e-006
-4.060725e-006
-4.338645e-006
-4.562227e-006
-4.728326e-006
-4.836189e-006
-4.886906e-006
-4.882820e-006
-4.826981e-006
-4.722735e-006
-4.573470e-006
-4.382546e-006
-4.153368e-006
-3.889556e-006
-3.595141e-006
-3.274732e-006
-2.933629e-006
-2.577849e-006
-2.214101e-006
-1.849709e-006
-1.492517e-006
-1.150796e-006
-8.331528e-007
-5.484427e-007
-3.056658e-007
-1.138190e-007
1.832651e-008
8.255535e-008
7.167093e-008
-1.989563e-008
-1.953385e-007
-4.546283e-007
-7.936328e-007
-1.203316e-006
-1.669160e-006
-2.170967e-006
-2.683219e-006
-3.176129e-006
-3.617475e-006
-3.975210e-006
-4.220703e-006
-4.332272e-006
-4.298494e-006
-4.120602e-006
-3.813292e-006
-3.403460e-006
-2.926790e-006
-2.422721e-006
-1.928818e-006
-1.475819e-006
-1.084472e-006
-7.646699e-007
-5.166997e-007
-3.338662e-007
-2.055263e-007
-1.197684e-007
-6.531867e-008
-3.261316e-008
-1.418679e-008
-4.608738e-009
-1.742705e-010
1.489487e-009
1.805336e-009
1.565110e-009
1.170160e-009
7.977229e-010
5.073553e-010
3.038753e-010
1.714861e-010
9.036088e-011
4.346333e-011
1.850116e-011
7.834601e-012
1.226820e-009
1.393490e-009
1.729275e-009
2.228236e-009
2.850753e-009
3.476505e-009
3.825137e-009
3.331776e-009
9.649363e-010
-5.020608e-009
-1.739116e-008
-4.027542e-008
-7.948242e-008
-1.426990e-007
-2.394286e-007
-3.805015e-007
-5.769963e-007
-8.384945e-007
-1.170781e-006
-1.573370e-006
-2.037467e-006
-2.545049e-006
-3.069527e-006
-3.578036e-006
-4.034920e-006
-4.405654e-006
-4.660400e-006
-4.776551e-006
-4.739993e-006
-4.545116e-006
-4.193852e-006
-3.694088e-006
-3.057820e-006
-2.299329e-006
-1.433611e-006
-4.751963e-007
5.625372e-007
1.667577e-006
2.829062e-006
4.036777e-006
5.280515e-006
6.549467e-006
7.831747e-006
9.114131e-006
1.038199e-005
1.161937e-005
1.280920e-005
1.393348e-005
1.497344e-005
1.590971e-005
1.672234e-005
1.739096e-005
1.789483e-005
1.821316e-005
1.832552e-005
1.821256e-005
1.785700e-005
1.724506e-005
1.636817e-005
1.522500e-005
1.382375e-005
1.218441e-005
1.034072e-005
8.341513e-006
6.250897e-006
4.146702e-006
2.116744e-006
2.526232e-007
-1.358766e-006
-2.645159e-006
-3.558773e-006
-4.084026e-006
-4.240973e-006
-4.082917e-006
-3.687985e-006
-3.146215e-006
-2.545194e-006
-1.957764e-006
-1.434608e-006
-1.002708e-006
-6.687496e-007
-4.252692e-007
-2.571906e-007
-1.471198e-007
-7.877175e-008
-3.867182e-008
-1.661984e-008
-5.435573e-009
-3.842390e-010
1.464018e-009
1.805243e-009
1.549393e-009
1.139589e-009
7.621007e-010
4.743693e-010
2.771739e-010
1.518502e-010
7.737541e-011
3.689303e-011
1.935170e-011
2.053088e-009
2.274836e-009
2.705686e-009
3.297402e-009
3.913527e-009
4.233733e-009
3.596208e-009
7.561630e-010
-6.458573e-009
-2.160081e-008
-5.014352e-008
-1.000338e-007
-1.821159e-007
-3.101814e-007
-5.002980e-007
-7.690028e-007
-1.130026e-006
-1.589554e-006
-2.140690e-006
-2.758520e-006
-3.397590e-006
-3.993301e-006
-4.467661e-006
-4.738411e-006
-4.729468e-006
-4.380277e-006
-3.652188e-006
-2.530942e-006
-1.025464e-006
8.360970e-007
3.011828e-006
5.451888e-006
8.103835e-006
1.091691e-005
1.384495e-005
1.684796e-005
1.989240e-005
2.295047e-005
2.599889e-005
2.901726e-005
3.198660e-005
3.488815e-005
3.770261e-005
4.040984e-005
4.298893e-005
4.541841e-005
4.767667e-005
4.974217e-005
5.159354e-005
5.320956e-005
5.456881e-005
5.564935e-005
5.642817e-005
5.688068e-005
5.698028e-005
5.669806e-005
5.600281e-005
5.486162e-005
5.324119e-005
5.111026e-005
4.844348e-005
4.522686e-005
4.146489e-005
3.718878e-005
3.246469e-005
2.740021e-005
2.214662e-005
1.689463e-005
1.186183e-005
7.271880e-006
3.327177e-006
1.798979e-007
-2.092372e-006
-3.499582e-006
-4.136103e-006
-4.160996e-006
-3.766333e-006
-3.142169e-006
-2.447530e-006
-1.794079e-006
-1.243947e-006
-8.183986e-007
-5.114729e-007
-3.032672e-007
-1.698172e-007
-8.891523e-008
-4.265308e-008
-1.789415e-008
-5.697336e-009
-3.676253e-010
1.496387e-009
1.792939e-009
1.501471e-009
1.078112e-009
7.034269e-010
4.264575e-010
2.421249e-010
1.291388e-010
6.640699e-011
3.887052e-011
3.152114e-009
3.422801e-009
3.913815e-009
4.478587e-009
4.770548e-009
4.057918e-009
9.247019e-010
-7.177082e-009
-2.454862e-008
-5.803085e-008
-1.178802e-007
-2.185390e-007
-3.789194e-007
-6.215680e-007
-9.698204e-007
-1.441997e-006
-2.042195e-006
-2.748586e-006
-3.502073e-006
-4.199780e-006
-4.697692e-006
-4.824387e-006
-4.403976e-006
-3.282890e-006
-1.353787e-006
1.429050e-006
5.045570e-006
9.416467e-006
1.441729e-005
1.989613e-005
2.569126e-005
3.164602e-005
3.761970e-005
4.349387e-005
4.917448e-005
5.459048e-005
5.969034e-005
6.443756e-005
6.880655e-005
7.277933e-005
7.634361e-005
7.949203e-005
8.222235e-005
8.453815e-005
8.644964e-005
8.797430e-005
8.913704e-005
8.996998e-005
9.051165e-005
9.080576e-005
9.089959e-005
9.084173e-005
9.067925e-005
9.045391e-005
9.019739e-005
8.992536e-005
8.963053e-005
8.927524e-005
8.878459e-005
8.804167e-005
8.688703e-005
8.512508e-005
8.253944e-005
7.891874e-005
7.409170e-005
6.796785e-005
6.057678e-005
5.209664e-005
4.286197e-005
3.334262e-005
2.409097e-005
1.566291e-005
8.527865e-006
2.990219e-006
-8.559212e-007
-3.126277e-006
-4.100899e-006
-4.148062e-006
-3.641589e-006
-2.895203e-006
-2.128311e-006
-1.464016e-006
-9.491038e-007
-5.819787e-007
-3.376117e-007
-1.845761e-007
-9.416753e-008
-4.389025e-008
-1.778020e-008
-5.343666e-009
-1.307600e-010
1.572392e-009
1.760486e-009
1.420388e-009
9.890096e-010
6.267836e-010
3.693531e-010
2.052064e-010
1.117700e-010
7.016259e-011
4.553032e-009
4.835558e-009
5.269230e-009
5.504050e-009
4.776129e-009
1.564808e-009
-6.950055e-009
-2.568112e-008
-6.269691e-008
-1.304935e-007
-2.472444e-007
-4.374939e-007
-7.312724e-007
-1.159971e-006
-1.746844e-006
-2.490451e-006
-3.341749e-006
-4.179948e-006
-4.796985e-006
-4.901883e-006
-4.151823e-006
-2.207224e-006
1.201927e-006
6.216433e-006
1.281132e-005
2.079091e-005
2.981445e-005
3.944396e-005
4.920139e-005
5.862232e-005
6.729743e-005
7.489823e-005
8.118719e-005
8.601479e-005
8.930683e-005
9.104630e-005
9.125443e-005
8.997519e-005
8.726552e-005
8.319221e-005
7.783406e-005
7.128720e-005
6.367118e-005
5.513397e-005
4.585468e-005
3.604376e-005
2.594116e-005
1.581294e-005
5.947342e-006
-3.349444e-006
-1.175771e-005
-1.894939e-005
-2.459500e-005
-2.837344e-005
-2.998628e-005
-2.917761e-005
-2.576020e-005
-1.964794e-005
-1.089278e-005
2.772470e-007
1.342522e-005
2.788606e-005
4.277142e-005
5.700884e-005
6.942253e-005
7.885671e-005
8.433249e-005
8.521718e-005
8.137180e-005
7.323341e-005
6.179268e-005
4.845015e-005
3.477178e-005
2.220101e-005
1.180611e-005
4.135218e-006
-7.906647e-007
-3.364816e-006
-4.210419e-006
-3.989307e-006
-3.258983e-006
-2.404468e-006
-1.638860e-006
-1.044949e-006
-6.273584e-007
-3.552602e-007
-1.891205e-007
-9.367296e-008
-4.217310e-008
-1.630270e-008
-4.448999e-009
2.676071e-010
1.660770e-009
1.697545e-009
1.307493e-009
8.786978e-010
5.404025e-010
3.125486e-010
1.786542e-010
1.179831e-010
6.233991e-009
6.431226e-009
6.535902e-009
5.809630e-009
2.713645e-009
-5.699271e-009
-2.472717e-008
-6.335581e-008
-1.359662e-007
-2.641807e-007
-4.781810e-007
-8.160352e-007
-1.318324e-006
-2.014006e-006
-2.893296e-006
-3.866717e-006
-4.718026e-006
-5.070387e-006
-4.392225e-006
-2.063324e-006
2.499008e-006
9.680344e-006
1.952098e-005
3.162569e-005
4.516025e-005
5.894062e-005
7.159370e-005
8.174561e-005
8.819108e-005
9.001177e-005
8.663099e-005
7.781018e-005
6.360305e-005
4.428502e-005
2.027352e-005
-7.947244e-006
-3.988570e-005
-7.507850e-005
-1.131004e-004
-1.535527e-004
-1.960386e-004
-2.401350e-004
-2.853703e-004
-3.312099e-004
-3.770538e-004
-4.222416e-004
-4.660635e-004
-5.077723e-004
-5.465928e-004
-5.817295e-004
-6.123694e-004
-6.376838e-004
-6.568300e-004
-6.689579e-004
-6.732230e-004
-6.688129e-004
-6.549886e-004
-6.311463e-004
-5.969031e-004
-5.522050e-004
-4.974542e-004
-4.336428e-004
-3.624711e-004
-2.864178e-004
-2.087233e-004
-1.332455e-004
-6.415524e-005
-5.465388e-006
3.957008e-005
6.907774e-005
8.302569e-005
8.331918e-005
7.342316e-005
5.759972e-005
4.000426e-005
2.390958e-005
1.127841e-005
2.757042e-006
-2.019440e-006
-3.977954e-006
-4.177942e-006
-3.515642e-006
-2.597415e-006
-1.748924e-006
-1.093654e-006
-6.412254e-007
-3.535595e-007
-1.827378e-007
-8.752137e-008
-3.780426e-008
-1.373379e-008
-3.191073e-009
7.342842e-010
1.723901e-009
1.596375e-009
1.168370e-009
7.578148e-010
4.575346e-010
2.733224e-010
1.879762e-010
8.076583e-009
7.986734e-009
7.228420e-009
4.367143e-009
-3.495383e-009
-2.175453e-008
-5.986470e-008
-1.334668e-007
-2.668944e-007
-4.953311e-007
-8.647639e-007
-1.425854e-006
-2.215067e-006
-3.214595e-006
-4.286099e-006
-5.087262e-006
-5.004454e-006
-3.156841e-006
1.473701e-006
9.769863e-006
2.210781e-005
3.798971e-005
5.580582e-005
7.283275e-005
8.552587e-005
9.004894e-005
8.289010e-005
6.140389e-005
2.414545e-005
-2.906374e-005
-9.730109e-005
-1.788397e-004
-2.714767e-004
-3.728288e-004
-4.805658e-004
-5.925701e-004
-7.070188e-004
-8.223944e-004
-9.374375e-004
-1.051069e-003
-1.162309e-003
-1.270212e-003
-1.373839e-003
-1.472255e-003
-1.564558e-003
-1.649914e-003
-1.727590e-003
-1.796979e-003
-1.857602e-003
-1.909100e-003
-1.951198e-003
-1.983667e-003
-2.006260e-003
-2.018653e-003
-2.020359e-003
-2.010648e-003
-1.988460e-003
-1.952337e-003
-1.900397e-003
-1.830395e-003
-1.739902e-003
-1.626686e-003
-1.489278e-003
-1.327729e-003
-1.144411e-003
-9.446575e-004
-7.369621e-004
-5.324781e-004
-3.437124e-004
-1.825421e-004
-5.792978e-005
2.607946e-005
7.135154e-005
8.501759e-005
7.727307e-005
5.861951e-005
3.759861e-005
1.961075e-005
6.950994e-006
-3.733668e-007
-3.588696e-006
-4.247027e-006
-3.661017e-006
-2.691990e-006
-1.781996e-006
-1.088859e-006
-6.216085e-007
-3.327907e-007
-1.664544e-007
-7.672382e-008
-3.151785e-008
-1.051837e-008
-1.800929e-009
1.169127e-009
1.730505e-009
1.456892e-009
1.015228e-009
6.440895e-010
4.019285e-010
2.863811e-010
9.804773e-009
9.057897e-009
6.488463e-009
-5.198829e-010
-1.713225e-008
-5.274277e-008
-1.234320e-007
-2.551069e-007
-4.866433e-007
-8.709605e-007
-1.469140e-006
-2.328086e-006
-3.427505e-006
-4.583421e-006
-5.314230e-006
-4.718104e-006
-1.463605e-006
5.981261e-006
1.880494e-005
3.703793e-005
5.866875e-005
7.901113e-005
9.070380e-005
8.462026e-005
5.153262e-005
-1.591704e-005
-1.215547e-004
-2.649342e-004
-4.416469e-004
-6.443292e-004
-8.639182e-004
-1.090846e-003
-1.316012e-003
-1.531475e-003
-1.730843e-003
-1.909367e-003
-2.063805e-003
-2.192133e-003
-2.293244e-003
-2.366717e-003
-2.412702e-003
-2.431923e-003
-2.425721e-003
-2.396119e-003
-2.345825e-003
-2.278181e-003
-2.197050e-003
-2.106666e-003
-2.011487e-003
-1.916061e-003
-1.824924e-003
-1.742528e-003
-1.673174e-003
-1.620940e-003
-1.589556e-003
-1.582205e-003
-1.601214e-003
-1.647573e-003
-1.720286e-003
-1.815530e-003
-1.925706e-003
-2.038582e-003
-2.136942e-003
-2.199303e-003
-2.202384e-003
-2.125640e-003
-1.957349e-003
-1.700507e-003
-1.375749e-003
-1.018738e-003
-6.718038e-004
-3.731108e-004
-1.478736e-004
-3.983922e-006
6.734182e-005
8.580148e-005
7.389169e-005
5.047134e-005
2.764362e-005
1.090052e-005
1.104599e-006
-3.242883e-006
-4.256755e-006
-3.700695e-006
-2.681951e-006
-1.734540e-006
-1.031267e-006
-5.713737e-007
-2.960974e-007
-1.427779e-007
-6.295337e-008
-2.428966e-008
-7.158747e-009
-5.025456e-010
1.492304e-009
1.666350e-009
1.291149e-009
8.710287e-010
5.693998e-010
4.194803e-010
1.091178e-008
8.886219e-009
2.946371e-009
-1.143442e-008
-4.302385e-008
-1.074360e-007
-2.307592e-007
-4.536841e-007
-8.341157e-007
-1.442851e-006
-2.340465e-006
-3.514894e-006
-4.755602e-006
-5.459619e-006
-4.427971e-006
1.858585e-007
1.052709e-005
2.806547e-005
5.196113e-005
7.708973e-005
9.247152e-005
8.130297e-005
2.358375e-005
-9.891784e-005
-2.966104e-004
-5.675117e-004
-8.960856e-004
-1.255082e-003
-1.609669e-003
-1.923354e-003
-2.164303e-003
-2.310160e-003
-2.350215e-003
-2.284847e-003
-2.122955e-003
-1.878476e-003
-1.567140e-003
-1.204260e-003
-8.037186e-004
-3.778661e-004
6.216727e-005
5.061384e-004
9.445645e-004
1.368830e-003
1.771436e-003
2.146259e-003
2.488697e-003
2.795659e-003
3.065391e-003
3.297183e-003
3.490997e-003
3.647082e-003
3.765572e-003
3.846090e-003
3.887336e-003
3.886653e-003
3.839556e-003
3.739261e-003
3.576302e-003
3.338445e-003
3.011275e-003
2.580077e-003
2.033793e-003
1.371738e-003
6.129230e-004
-1.941379e-004
-9.663410e-004
-1.593726e-003
-1.967338e-003
-2.024182e-003
-1.785754e-003
-1.356320e-003
-8.742138e-004
-4.535321e-004
-1.549939e-004
1.335394e-005
7.926218e-005
8.313901e-005
6.043390e-005
3.385271e-005
1.367183e-005
1.954403e-006
-3.112736e-006
-4.249438e-006
-3.638336e-006
-2.568270e-006
-1.611951e-006
-9.284966e-007
-4.975902e-007
-2.487436e-007
-1.150902e-007
-4.813985e-008
-1.710428e-008
-4.097608e-009
5.382437e-010
1.663466e-009
1.541317e-009
1.128615e-009
7.778861e-010
5.927639e-010
1.058387e-008
6.305171e-009
-5.409833e-009
-3.203560e-008
-8.780257e-008
-1.975219e-007
-4.014941e-007
-7.598155e-007
-1.350807e-006
-2.250599e-006
-3.468254e-006
-4.799412e-006
-5.574112e-006
-4.350720e-006
1.227955e-006
1.399839e-005
3.575319e-005
6.432683e-005
8.963720e-005
9.018723e-005
3.321338e-005
-1.184229e-004
-3.922631e-004
-7.886427e-004
-1.267826e-003
-1.746826e-003
-2.111498e-003
-2.249593e-003
-2.091624e-003
-1.633718e-003
-9.308357e-004
-7.095719e-005
8.524827e-004
1.760021e-003
2.595438e-003
3.326545e-003
3.940585e-003
4.437684e-003
4.824925e-003
5.112280e-003
5.310436e-003
5.429997e-003
5.481411e-003
5.475120e-003
5.421632e-003
5.331442e-003
5.214820e-003
5.081557e-003
4.940767e-003
4.800767e-003
4.669079e-003
4.552501e-003
4.457225e-003
4.388961e-003
4.352992e-003
4.354132e-003
4.396482e-003
4.482898e-003
4.613987e-003
4.786452e-003
4.990499e-003
5.206122e-003
5.398263e-003
5.511489e-003
5.466126e-003
5.160448e-003
4.487812e-003
3.381730e-003
1.893469e-003
2.647308e-004
-1.101546e-003
-1.839170e-003
-1.864884e-003
-1.416576e-003
-8.362266e-004
-3.584627e-004
-6.614799e-005
6.174725e-005
8.671782e-005
6.640271e-005
3.711270e-005
1.458735e-005
1.903085e-006
-3.260071e-006
-4.222615e-006
-3.470892e-006
-2.359167e-006
-1.428012e-006
-7.936741e-007
-4.100075e-007
-1.969265e-007
-8.688648e-008
-3.404946e-008
-1.075232e-008
-1.633921e-009
1.242609e-009
1.690328e-009
1.394577e-009
1.024845e-009
8.098204e-010
7.636131e-009
-3.333905e-010
-2.132382e-008
-6.715757e-008
-1.599633e-007
-3.374200e-007
-6.585186e-007
-1.205362e-006
-2.068559e-006
-3.288346e-006
-4.703618e-006
-5.659120e-006
-4.592791e-006
1.261392e-006
1.546611e-005
4.035421e-005
7.250610e-005
9.576928e-005
7.431100e-005
-4.722672e-005
-3.278085e-004
-7.939824e-004
-1.390960e-003
-1.944270e-003
-2.171965e-003
-1.809594e-003
-7.944609e-004
6.733246e-004
2.252429e-003
3.637337e-003
4.656598e-003
5.269847e-003
5.518030e-003
5.476176e-003
5.224109e-003
4.831984e-003
4.355003e-003
3.833414e-003
3.295125e-003
2.759109e-003
2.238412e-003
1.742307e-003
1.277561e-003
8.490351e-004
4.599235e-004
1.118620e-004
-1.949227e-004
-4.613756e-004
-6.892911e-004
-8.809504e-004
-1.038758e-003
-1.164902e-003
-1.261046e-003
-1.328028e-003
-1.365546e-003
-1.371775e-003
-1.342892e-003
-1.272446e-003
-1.150587e-003
-9.631777e-004
-6.909964e-004
-3.094900e-004
2.099895e-004
8.957874e-004
1.765714e-003
2.807221e-003
3.944144e-003
4.991534e-003
5.621833e-003
5.411449e-003
4.067193e-003
1.814396e-003
-4.423399e-004
-1.706127e-003
-1.768956e-003
-1.189916e-003
-5.603681e-004
-1.442929e-004
4.406256e-005
8.728423e-005
6.818051e-005
3.688123e-005
1.342569e-005
9.716055e-007
-3.606609e-006
-4.131205e-006
-3.194488e-006
-2.071693e-006
-1.203265e-006
-6.429783e-007
-3.190427e-007
-1.464982e-007
-6.109044e-008
-2.197019e-008
-5.710385e-009
1.111280e-010
1.623765e-009
1.630068e-009
1.300949e-009
1.071038e-009
4.806023e-010
-1.318583e-008
-4.827614e-008
-1.227430e-007
-2.695767e-007
-5.433423e-007
-1.025115e-006
-1.815344e-006
-2.988172e-006
-4.454354e-006
-5.659442e-006
-5.089686e-006