# vtk DataFile Version 3.0
vtk output
ASCII
DATASET STRUCTURED_POINTS
DIMENSIONS 100 100 1
SPACING 1 1 1
ORIGIN 0 0 0
POINT_DATA 10000
SCALARS SFBox_profile double
LOOKUP_TABLE default 
0.000000e+000
0.000000e+000
0.000000e+000
0.000000e+000
0.000000e+000
0.000000e+000
0.000000e+000
0.000000e+000
0.000000e+000
0.000000e+000
0.000000e+000
0.000000e+000
0.000000e+000
0.000000e+000
0.000000e+000
0.000000e+000
0.000000e+000
0.000000e+000
0.000000e+000
0.000000e+000
0.000000e+000
0.000000e+000
0.000000e+000
0.000000e+000
0.000000e+000
0.000000e+000
0.000000e+000
0.000000e+000
0.000000e+000
0.000000e+000
0.000000e+000
0.000000e+000
0.000000e+000
0.000000e+000
0.000000e+000
0.000000e+000
0.000000e+000
0.000000e+000
0.000000e+000
0.000000e+000
0.000000e+000
0.000000e+000
0.000000e+000
0.000000e+000
0.000000e+000
0.000000e+000
0.000000e+000
0.000000e+000
0.000000e+000
0.000000e+000
0.000000e+000
0.000000e+000
0.000000e+000
0.000000e+000
0.000000e+000
0.000000e+000
0.000000e+000
0.000000e+000
0.000000e+000
0.000000e+000
0.000000e+000
0.000000e+000
0.000000e+000
0.000000e+000
0.000000e+000
0.000000e+000
0.000000e+000
0.000000e+000
0.000000e+000
0.000000e+000
0.000000e+000
0.000000e+000
0.000000e+000
0.000000e+000
0.000000e+000
0.000000e+000
0.000000e+000
0.000000e+000
0.000000e+000
0.000000e+000
0.000000e+000
0.000000e+000
0.000000e+000
0.000000e+000
0.000000e+000
0.000000e+000
0.000000e+000
0.000000e+000
0.000000e+000
0.000000e+000
0.000000e+000
0.000000e+000
0.000000e+000
0.000000e+000
0.000000e+000
0.000000e+000
0.000000e+000
0.000000e+000
0.000000e+000
0.000000e+000
1.230483e-009
4.654813e-011
-1.592200e-009
-2.612317e-009
-1.850931e-009
8.905518e-010
4.092481e-009
5.197595e-009
2.619147e-009
-2.544748e-009
-6.860760e-009
-7.064419e-009
-2.731654e-009
3.267400e-009
7.036500e-009
6.666199e-009
3.349589e-009
-1.920807e-010
-2.230868e-009
-3.061054e-009
-3.844477e-009
-4.846842e-009
-5.052219e-009
-3.424684e-009
-2.490401e-010
2.976647e-009
4.907908e-009
5.430775e-009
5.366381e-009
5.325792e-009
5.082271e-009
4.055905e-009
2.173579e-009
4.917700e-011
-1.644043e-009
-2.790912e-009
-3.751639e-009
-4.793943e-009
-5.773228e-009
-6.377938e-009
-6.541192e-009
-6.498244e-009
-6.487740e-009
-6.519943e-009
-6.468148e-009
-6.293106e-009
-6.091368e-009
-5.954600e-009
-5.875693e-009
-5.816972e-009
-5.796808e-009
-5.847061e-009
-5.923618e-009
-5.941485e-009
-5.904299e-009
-5.916474e-009
-6.012863e-009
-6.034016e-009
-5.766604e-009
-5.206791e-009
-4.578645e-009
-4.024528e-009
-3.354954e-009
-2.241608e-009
-6.751382e-010
9.027795e-010
2.034680e-009
2.747479e-009
3.449301e-009
4.281395e-009
4.737563e-009
4.127116e-009
2.416553e-009
4.207768e-010
-9.762769e-010
-1.693160e-009
-2.343985e-009
-3.235885e-009
-3.705207e-009
-2.722211e-009
-1.927348e-010
2.552606e-009
3.783849e-009
2.919712e-009
9.712400e-010
-5.608212e-010
-1.101485e-009
-1.220977e-009
-1.557211e-009
-1.810606e-009
-1.055114e-009
9.489854e-010
2.984810e-009
3.211474e-009
9.505674e-010
-2.350534e-009
-4.093473e-009
-2.719365e-009
8.347410e-010
3.787876e-009
-8.254443e-010
2.786165e-010
1.107966e-009
7.943518e-010
-4.048967e-010
-1.393369e-009
-1.261028e-009
-1.101060e-010
1.077025e-009
1.376177e-009
7.426096e-010
-7.381270e-011
-3.818059e-010
-2.478963e-010
-3.031132e-010
-8.962121e-010
-1.560358e-009
-1.428645e-009
-1.806735e-010
1.513507e-009
2.561241e-009
2.437315e-009
1.558001e-009
6.994698e-010
1.648559e-010
-3.834375e-010
-1.327600e-009
-2.501923e-009
-3.298370e-009
-3.302384e-009
-2.692055e-009
-1.970508e-009
-1.403860e-009
-8.294679e-010
8.599826e-012
1.068685e-009
2.034962e-009
2.671276e-009
3.042870e-009
3.367549e-009
3.732496e-009
4.030962e-009
4.146603e-009
4.111300e-009
4.050817e-009
4.032559e-009
4.025391e-009
3.989531e-009
3.941035e-009
3.910104e-009
3.886517e-009
3.849130e-009
3.822180e-009
3.845671e-009
3.887878e-009
3.845674e-009
3.667134e-009
3.431668e-009
3.245095e-009
3.063942e-009
2.702222e-009
2.057004e-009
1.272839e-009
5.986337e-010
8.618693e-011
-4.715615e-010
-1.238335e-009
-2.032653e-009
-2.445163e-009
-2.283433e-009
-1.802341e-009
-1.401230e-009
-1.136787e-009
-6.723650e-010
2.313189e-010
1.275446e-009
1.815463e-009
1.518919e-009
7.308436e-010
1.030187e-010
-9.099548e-011
-1.585256e-010
-4.884100e-010
-9.706587e-010
-1.054655e-009
-4.048585e-010
6.065437e-010
1.169083e-009
8.146845e-010
-1.112685e-010
-7.794730e-010
-6.606186e-010
2.021385e-011
5.647970e-010
4.867073e-010
-7.236893e-011
-5.402759e-010
-4.760804e-010
4.196835e-011
5.220872e-010
-3.117371e-009
-1.307627e-010
3.054918e-009
4.002858e-009
1.754913e-009
-2.424369e-009
-5.675362e-009
-5.438990e-009
-1.401367e-009
4.052315e-009
7.409170e-009
6.512425e-009
2.017400e-009
-3.282968e-009
-6.568533e-009
-6.736992e-009
-4.539358e-009
-1.423152e-009
1.599006e-009
4.142788e-009
5.954439e-009
6.583082e-009
5.640336e-009
3.257182e-009
1.388123e-010
-2.862567e-009
-5.199997e-009
-6.707525e-009
-7.375923e-009
-7.184771e-009
-6.157556e-009
-4.476716e-009
-2.451261e-009
-3.612268e-010
1.637434e-009
3.466446e-009
5.042254e-009
6.277726e-009
7.147289e-009
7.708141e-009
8.043693e-009
8.203395e-009
8.206303e-009
8.083278e-009
7.891638e-009
7.688751e-009
7.506917e-009
7.357085e-009
7.243799e-009
7.169557e-009
7.134963e-009
7.144703e-009
7.206037e-009
7.308568e-009
7.409295e-009
7.453872e-009
7.415445e-009
7.295099e-009
7.072945e-009
6.675572e-009
6.017469e-009
5.074865e-009
3.896314e-009
2.535836e-009
1.007922e-009
-6.585407e-010
-2.333224e-009
-3.793253e-009
-4.835607e-009
-5.355023e-009
-5.296462e-009
-4.581881e-009
-3.169498e-009
-1.216097e-009
8.751928e-010
2.637424e-009
3.773291e-009
4.174549e-009
3.748709e-009
2.373261e-009
1.631423e-010
-2.230733e-009
-3.771987e-009
-3.695755e-009
-2.112816e-009
5.407073e-011
1.765733e-009
2.513604e-009
2.350679e-009
1.477332e-009
2.809423e-011
-1.661348e-009
-2.779336e-009
-2.393885e-009
-3.522193e-010
2.183236e-009
3.358814e-009
2.114240e-009
-7.665140e-010
-3.119386e-009
-2.811287e-009
-1.135060e-009
1.318222e-009
3.196738e-009
2.936160e-009
8.984913e-011
-3.687562e-009
-5.434891e-009
-3.262070e-009
1.716865e-009
5.914578e-009
6.120490e-009
2.215570e-009
-2.758828e-009
-5.259060e-009
-4.136465e-009
-1.156433e-009
1.065338e-009
1.461038e-009
9.603684e-010
9.334458e-010
1.571068e-009
1.890683e-009
1.081116e-009
-4.905938e-010
-1.681098e-009
-1.771066e-009
-1.071983e-009
-3.937067e-010
-1.366519e-010
-3.706286e-011
3.084627e-010
8.877130e-010
1.316758e-009
1.315181e-009
9.909295e-010
6.502060e-010
4.405674e-010
2.589523e-010
-3.647354e-011
-4.253793e-010
-7.657087e-010
-9.733768e-010
-1.098052e-009
-1.227796e-009
-1.374273e-009
-1.481282e-009
-1.517877e-009
-1.518388e-009
-1.525233e-009
-1.527462e-009
-1.483404e-009
-1.388993e-009
-1.286509e-009
-1.195702e-009
-1.068672e-009
-8.473939e-010
-5.554935e-010
-2.874753e-010
-8.719798e-011
1.225392e-010
4.351234e-010
7.924378e-010
9.931879e-010
9.159987e-010
6.880593e-010
5.432537e-010
5.048308e-010
3.144444e-010
-2.273128e-010
-8.971383e-010
-1.176869e-009
-8.182326e-010
-1.773432e-010
1.656741e-010
1.126417e-010
1.889643e-010
8.398427e-010
1.684145e-009
1.728224e-009
4.637694e-010
-1.370717e-009
-2.351400e-009
-1.762864e-009
-3.057945e-010
6.981373e-010
7.211486e-010
4.519003e-010
7.544541e-010
1.420261e-009
1.267935e-009
-3.930071e-010
-2.577847e-009
-3.229129e-009
-1.229402e-009
2.186098e-009
4.215135e-009
2.940799e-009
-8.064812e-010
-4.002473e-009
1.527242e-009
-1.139221e-009
-2.928568e-009
-1.744922e-009
1.478205e-009
3.790991e-009
3.074321e-009
-1.143214e-011
-2.799089e-009
-3.226540e-009
-1.626731e-009
1.712208e-011
3.833008e-010
1.288026e-010
8.302641e-010
2.826943e-009
4.465480e-009
3.678866e-009
2.187076e-010
-3.887464e-009
-6.147673e-009
-5.750054e-009
-3.866631e-009
-2.050815e-009
-6.617967e-010
1.039958e-009
3.526592e-009
6.120720e-009
7.579344e-009
7.338691e-009
5.955044e-009
4.357724e-009
2.903611e-009
1.286361e-009
-7.803951e-010
-3.044973e-009
-4.945033e-009
-6.194075e-009
-6.987033e-009
-7.654930e-009
-8.267905e-009
-8.649644e-009
-8.691364e-009
-8.520993e-009
-8.348964e-009
-8.244446e-009
-8.132466e-009
-7.966391e-009
-7.812391e-009
-7.747985e-009
-7.750894e-009
-7.747894e-009
-7.739472e-009
-7.796693e-009
-7.919911e-009
-7.973699e-009
-7.824720e-009
-7.507051e-009
-7.158393e-009
-6.773344e-009
-6.115317e-009
-4.968058e-009
-3.440669e-009
-1.897435e-009
-5.393813e-010
8.276811e-010
2.466772e-009
4.180501e-009
5.297648e-009
5.316118e-009
4.466086e-009
3.443366e-009
2.565513e-009
1.410127e-009
-5.110830e-010
-2.807245e-009
-4.239578e-009
-3.882490e-009
-2.139356e-009
-3.750262e-010
4.849745e-010
7.745012e-010
1.364003e-009
2.293809e-009
2.493129e-009
1.048197e-009
-1.425308e-009
-3.017858e-009
-2.318310e-009
9.356633e-011
2.092105e-009
2.003415e-009
1.520337e-010
-1.556553e-009
-1.527126e-009
5.499649e-011
1.535205e-009
1.457463e-009
-6.630623e-011
-1.535956e-009
7.227847e-009
9.171641e-010
-5.263676e-009
-6.490773e-009
-2.133124e-009
4.161228e-009
7.499613e-009
5.525676e-009
-4.102843e-011
-5.159113e-009
-6.763619e-009
-4.721062e-009
-1.084942e-009
2.097041e-009
4.105972e-009
5.071317e-009
4.862830e-009
2.984509e-009
-4.392445e-010
-4.028931e-009
-5.946497e-009
-5.422081e-009
-3.330531e-009
-1.178980e-009
3.290627e-010
1.586509e-009
3.093028e-009
4.524406e-009
4.989698e-009
4.076785e-009
2.364936e-009
8.169728e-010
-1.654540e-010
-9.253265e-010
-1.885596e-009
-2.941996e-009
-3.616478e-009
-3.668490e-009
-3.359675e-009
-3.102494e-009
-3.003035e-009
-2.853293e-009
-2.493622e-009
-2.033014e-009
-1.685226e-009
-1.503025e-009
-1.369010e-009
-1.203214e-009
-1.067802e-009
-1.043997e-009
-1.098330e-009
-1.147342e-009
-1.209986e-009
-1.393995e-009
-1.715728e-009
-2.028721e-009
-2.204365e-009
-2.326260e-009
-2.587818e-009
-2.982134e-009
-3.213312e-009
-3.014330e-009
-2.490097e-009
-1.996151e-009
-1.649395e-009
-1.114086e-009
-2.357371e-011
1.441186e-009
2.593063e-009
2.941587e-009
2.709726e-009
2.472928e-009
2.335606e-009
1.722597e-009
1.462749e-010
-1.958122e-009
-3.425230e-009
-3.455836e-009
-2.352750e-009
-1.039299e-009
7.320544e-012
1.068805e-009
2.391049e-009
3.377124e-009
2.937264e-009
7.367036e-010
-2.097963e-009
-3.731064e-009
-3.137428e-009
-8.855200e-010
1.473937e-009
2.650943e-009
2.320287e-009
9.467581e-010
-7.163075e-010
-1.921231e-009
-2.075893e-009
-1.023561e-009
6.843461e-010
1.974140e-009
8.246196e-009
3.318786e-009
-2.604224e-009
-5.914932e-009
-4.686159e-009
2.114179e-011
4.674795e-009
5.795480e-009
2.694460e-009
-1.989229e-009
-4.591098e-009
-3.532451e-009
-3.897615e-010
1.917582e-009
1.854187e-009
2.608635e-010
-1.005120e-009
-9.965950e-010
-1.725755e-010
6.276723e-010
1.192258e-009
1.793475e-009
2.393212e-009
2.421205e-009
1.422117e-009
-3.328339e-010
-2.084131e-009
-3.341931e-009
-4.198416e-009
-4.881163e-009
-5.231196e-009
-4.819278e-009
-3.515160e-009
-1.732221e-009
-2.864262e-011
1.413646e-009
2.797942e-009
4.272778e-009
5.653233e-009
6.632748e-009
7.152780e-009
7.439928e-009
7.706276e-009
7.935010e-009
7.999374e-009
7.895462e-009
7.760396e-009
7.691213e-009
7.650335e-009
7.577415e-009
7.509279e-009
7.515693e-009
7.559932e-009
7.520497e-009
7.361413e-009
7.186764e-009
7.062240e-009
6.846611e-009
6.309897e-009
5.420544e-009
4.402695e-009
3.441922e-009
2.421158e-009
1.083572e-009
-5.447800e-010
-2.040181e-009
-2.982166e-009
-3.382688e-009
-3.572581e-009
-3.678015e-009
-3.395193e-009
-2.406964e-009
-9.172737e-010
4.246474e-010
1.157006e-009
1.395724e-009
1.495827e-009
1.478710e-009
1.039502e-009
1.384674e-010
-6.761416e-010
-7.657111e-010
-1.576449e-010
4.311634e-010
3.990945e-010
-9.446047e-011
-4.448182e-010
-4.256901e-010
-3.943755e-010
-5.995790e-010
-5.966704e-010
2.572832e-010
1.699134e-009
2.346425e-009
1.013691e-009
-1.713190e-009
-3.561237e-009
-2.605986e-009
6.791823e-010
3.583205e-009
7.815199e-010
2.768338e-009
3.291051e-009
7.485680e-010
-3.046564e-009
-4.736623e-009
-2.866397e-009
7.394993e-010
3.011597e-009
2.735934e-009
1.365015e-009
8.804188e-010
1.343136e-009
9.647436e-010
-1.482114e-009
-4.796736e-009
-6.235985e-009
-4.199572e-009
2.075069e-010
4.290480e-009
6.164800e-009
5.909153e-009
4.650808e-009
3.058764e-009
9.859896e-010
-1.698883e-009
-4.428416e-009
-6.272755e-009
-6.757840e-009
-6.133220e-009
-4.899072e-009
-3.305777e-009
-1.390731e-009
6.878258e-010
2.579101e-009
4.012652e-009
5.000483e-009
5.700646e-009
6.166647e-009
6.325464e-009
6.164389e-009
5.824990e-009
5.475420e-009
5.159113e-009
4.825134e-009
4.465965e-009
4.153181e-009
3.942419e-009
3.814056e-009
3.736713e-009
3.736049e-009
3.849529e-009
4.043657e-009
4.242534e-009
4.438401e-009
4.703391e-009
5.055172e-009
5.366260e-009
5.473816e-009
5.355244e-009
5.110578e-009
4.755600e-009
4.124154e-009
3.053554e-009
1.621060e-009
9.661158e-011
-1.333451e-009
-2.673544e-009
-3.889126e-009
-4.687201e-009
-4.694049e-009
-3.856670e-009
-2.515105e-009
-1.007486e-009
6.395381e-010
2.437625e-009
3.929602e-009
4.276822e-009
3.072698e-009
9.478194e-010
-9.050033e-010
-1.848878e-009
-2.217666e-009
-2.493621e-009
-2.351289e-009
-9.789709e-010
1.533116e-009
3.545071e-009
3.162647e-009
3.416920e-010
-2.620184e-009
-3.099029e-009
-7.582355e-010
2.024799e-009
2.506994e-009
3.359902e-010
-2.140318e-009
-2.328138e-009
-5.353753e-011
2.303228e-009
-1.099048e-008
-1.527621e-009
7.209186e-009
8.304200e-009
2.052612e-009
-5.395991e-009
-7.939612e-009
-4.499673e-009
1.104750e-009
4.447480e-009
4.309504e-009
2.583733e-009
1.275947e-009
3.821175e-010
-1.214959e-009
-3.470987e-009
-4.629175e-009
-3.143609e-009
2.990982e-010
3.169253e-009
3.520789e-009
1.735529e-009
-2.222315e-010
-9.566540e-010
-7.295147e-010
-5.603753e-010
-7.573066e-010
-6.635310e-010
3.248752e-010
1.905069e-009
3.171430e-009
3.549681e-009
3.205274e-009
2.602705e-009
1.921649e-009
1.016484e-009
-2.039493e-010
-1.558249e-009
-2.766801e-009
-3.713855e-009
-4.467508e-009
-5.107861e-009
-5.623830e-009
-5.971395e-009
-6.160784e-009
-6.253611e-009
-6.304705e-009
-6.333957e-009
-6.339121e-009
-6.312414e-009
-6.251053e-009
-6.167257e-009
-6.078864e-009
-5.973037e-009
-5.791539e-009
-5.479717e-009
-5.044295e-009
-4.525474e-009
-3.907401e-009
-3.110190e-009
-2.112050e-009
-1.038264e-009
-5.688629e-011
8.009906e-010
1.617894e-009
2.347853e-009
2.709444e-009
2.461458e-009
1.761470e-009
1.077414e-009
6.620106e-010
2.670317e-010
-4.280020e-010
-1.168652e-009
-1.207641e-009
-2.082560e-010
1.122250e-009
1.624375e-009
9.505390e-010
-4.864994e-011
-3.978134e-010
-2.353921e-010
-5.729096e-010
-1.754544e-009
-2.589600e-009
-1.503690e-009
1.425285e-009
3.997646e-009
3.831996e-009
7.911374e-010
-2.714840e-009
-3.927284e-009
-2.198427e-009
6.763664e-010
2.340737e-009
1.934339e-009
4.414414e-010
-6.344272e-010
-7.145687e-010
-3.686013e-010
-1.639218e-008
-5.795819e-009
5.433518e-009
9.803554e-009
5.899366e-009
-1.560368e-009
-6.162078e-009
-5.051813e-009
-6.038693e-010
2.592463e-009
2.215151e-009
-1.621332e-010
-1.432716e-009
-3.604095e-010
1.592296e-009
2.404307e-009
1.739406e-009
7.745972e-010
2.789397e-010
-3.859288e-010
-2.130379e-009
-4.493196e-009
-5.718507e-009
-4.537031e-009
-1.502239e-009
1.657405e-009
3.780398e-009
5.052284e-009
6.143502e-009
7.023687e-009
6.936568e-009
5.398471e-009
2.864326e-009
2.891887e-010
-1.770090e-009
-3.439498e-009
-5.026944e-009
-6.493536e-009
-7.513783e-009
-7.912765e-009
-7.871776e-009
-7.701330e-009
-7.532083e-009
-7.289631e-009
-6.905860e-009
-6.460430e-009
-6.102474e-009
-5.893736e-009
-5.776250e-009
-5.682867e-009
-5.636599e-009
-5.716115e-009
-5.938284e-009
-6.213822e-009
-6.442279e-009
-6.626320e-009
-6.837908e-009
-7.054546e-009
-7.086878e-009
-6.739649e-009
-6.028824e-009
-5.143001e-009
-4.148663e-009
-2.838414e-009
-1.012714e-009
1.103623e-009
2.902592e-009
3.959696e-009
4.441878e-009
4.761759e-009
4.862482e-009
4.129225e-009
2.203873e-009
-2.766366e-010
-2.083231e-009
-2.606503e-009
-2.403038e-009
-2.331708e-009
-2.352270e-009
-1.593642e-009
2.965996e-010
2.262960e-009
2.720076e-009
1.299128e-009
-6.305374e-010
-1.355735e-009
-5.380934e-010
6.598996e-010
9.966314e-010
3.481770e-010
-5.334772e-010
-1.032181e-009
-1.074129e-009
-7.110405e-010
1.476453e-010
1.317121e-009
1.982384e-009
1.289757e-009
-5.704033e-010
-2.193570e-009
-7.872884e-009
-5.067667e-009
-7.917253e-010
3.064118e-009
4.437798e-009
2.850672e-009
1.415070e-010
-1.210485e-009
-6.285656e-010
8.511999e-011
-9.382819e-010
-3.163178e-009
-4.000789e-009
-1.698904e-009
2.533862e-009
5.596736e-009
5.489337e-009
2.895712e-009
-8.018072e-011
-2.149491e-009
-3.446286e-009
-4.314860e-009
-4.307874e-009
-2.772419e-009
-6.338020e-011
2.406204e-009
3.450271e-009
3.140264e-009
2.379837e-009
1.702418e-009
8.316164e-010
-5.972933e-010
-2.256803e-009
-3.329099e-009
-3.370161e-009
-2.712488e-009
-1.971238e-009
-1.354981e-009
-6.086335e-010
4.746653e-010
1.703603e-009
2.703233e-009
3.338448e-009
3.795943e-009
4.282106e-009
4.767856e-009
5.080675e-009
5.166830e-009
5.161079e-009
5.194882e-009
5.221673e-009
5.094425e-009
4.780088e-009
4.408064e-009
4.075301e-009
3.675608e-009
3.014839e-009
2.089182e-009
1.142948e-009
3.821334e-010
-2.913686e-010
-1.120873e-009
-2.061650e-009
-2.667028e-009
-2.542431e-009
-1.837599e-009
-1.095345e-009
-5.823598e-010
1.670080e-011
1.058195e-009
2.220620e-009
2.637052e-009
1.850123e-009
4.049235e-010
-7.405204e-010
-1.275973e-009
-1.689081e-009
-2.310771e-009
-2.585175e-009
-1.655251e-009
4.183232e-010
2.423310e-009
3.135724e-009
2.436899e-009
1.089771e-009
-3.131878e-010
-1.682585e-009
-2.713024e-009
-2.500322e-009
-5.272207e-010
2.087056e-009
3.083135e-009
1.344956e-009
-1.549434e-009
-2.677676e-009
-8.867311e-010
1.823980e-009
2.430117e-009
2.606391e-010
-2.227297e-009
1.003454e-008
1.069393e-009
-6.626375e-009
-6.860553e-009
-1.132398e-009
4.334599e-009
5.218583e-009
2.461193e-009
-2.603843e-010
-1.057747e-009
-1.089740e-009
-1.926243e-009
-3.006015e-009
-2.438231e-009
1.909479e-010
2.828728e-009
3.117056e-009
1.028881e-009
-1.179026e-009
-1.476666e-009
1.317838e-011
1.663979e-009
2.333667e-009
2.192376e-009
1.793633e-009
1.036248e-009
-5.679736e-010
-2.902513e-009
-5.033348e-009
-6.075556e-009
-5.967852e-009
-5.213809e-009
-4.081781e-009
-2.374446e-009
2.796250e-011
2.707886e-009
4.994501e-009
6.597503e-009
7.762314e-009
8.805788e-009
9.687650e-009
1.014119e-008
1.010683e-008
9.859946e-009
9.696150e-009
9.626733e-009
9.472515e-009
9.183513e-009
8.934582e-009
8.888908e-009
8.980033e-009
9.018976e-009
8.968434e-009
8.987594e-009
9.170279e-009
9.342049e-009
9.225351e-009
8.771482e-009
8.190503e-009
7.599767e-009
6.767742e-009
5.359765e-009
3.414742e-009
1.404249e-009
-2.609396e-010
-1.638763e-009
-2.999178e-009
-4.229260e-009
-4.758807e-009
-4.205565e-009
-2.914886e-009
-1.628394e-009
-6.797807e-010
2.004665e-010
1.213458e-009
1.943291e-009
1.798323e-009
8.865666e-010
4.596394e-011
-1.300781e-010
4.190031e-011
-4.722723e-011
-2.646457e-010
1.111359e-010
1.077453e-009
1.348620e-009
-2.236394e-010
-2.755147e-009
-3.624284e-009
-1.233491e-009
2.764725e-009
4.686990e-009
2.571365e-009
-1.606168e-009
-3.872437e-009
-2.363480e-009
8.810252e-010
2.348808e-009
9.133193e-010
-1.184242e-009
2.275252e-008
7.082597e-009
-8.051194e-009
-1.198441e-008
-5.288524e-009
3.225384e-009
5.856405e-009
2.454245e-009
-1.481828e-009
-1.641470e-009
1.040456e-009
2.666991e-009
1.307409e-009
-1.295180e-009
-2.495719e-009
-1.956657e-009
-1.423852e-009
-1.915905e-009
-2.240767e-009
-6.503099e-010
2.683704e-009
5.546666e-009
5.951651e-009
3.980424e-009
1.227616e-009
-1.063362e-009
-2.823364e-009
-4.341273e-009
-5.312306e-009
-5.064936e-009
-3.469836e-009
-1.199018e-009
9.524214e-010
2.715872e-009
4.208404e-009
5.396189e-009
5.989242e-009
5.847742e-009
5.240235e-009
4.567178e-009
3.947710e-009
3.226335e-009
2.335376e-009
1.474928e-009
8.779236e-010
5.234512e-010
2.059332e-010
-1.557292e-010
-4.129713e-010
-4.198796e-010
-2.530229e-010
-9.787927e-011
3.115484e-011
3.238952e-010
8.986105e-010
1.609201e-009
2.226073e-009
2.744693e-009
3.365289e-009
4.138642e-009
4.773572e-009
4.913945e-009
4.531637e-009
3.884549e-009
3.091945e-009
1.956109e-009
3.392896e-010
-1.420440e-009
-2.702244e-009
-3.211751e-009
-3.171935e-009
-2.820342e-009
-1.975498e-009
-4.024119e-010
1.489817e-009
2.738281e-009
2.811364e-009
2.208692e-009
1.725809e-009
1.285192e-009
5.500704e-011
-2.064898e-009
-3.598391e-009
-2.817871e-009
4.551944e-011
2.527072e-009
2.345975e-009
-8.210170e-011
-2.024217e-009
-1.401184e-009
9.951445e-010
2.497141e-009
1.521534e-009
-8.541142e-010
-2.257369e-009
-1.566069e-009
1.639634e-010
1.116759e-009
6.776477e-010
-1.605565e-010
1.848875e-008
6.873395e-009
-4.751937e-009
-8.419180e-009
-4.057228e-009
1.936851e-009
3.364332e-009
-1.349646e-010
-3.664629e-009
-2.784077e-009
1.838606e-009
5.540877e-009
4.846344e-009
8.194543e-010
-2.731936e-009
-3.526822e-009
-2.532065e-009
-1.768506e-009
-1.564821e-009
-6.880065e-010
1.326204e-009
3.048355e-009
2.740906e-009
5.123290e-010
-1.709150e-009
-2.229686e-009
-1.099789e-009
4.959513e-010
1.812193e-009
3.047162e-009
4.482983e-009
5.711144e-009
5.978299e-009
5.042505e-009
3.370426e-009
1.544115e-009
-2.465354e-010
-2.059559e-009
-3.802988e-009
-5.209292e-009
-6.147666e-009
-6.758124e-009
-7.223256e-009
-7.542705e-009
-7.627730e-009
-7.529403e-009
-7.433766e-009
-7.435768e-009
-7.441885e-009
-7.348293e-009
-7.221028e-009
-7.202269e-009
-7.282484e-009
-7.286034e-009
-7.100521e-009
-6.806772e-009
-6.504436e-009
-6.090234e-009
-5.339443e-009
-4.197322e-009
-2.854157e-009
-1.483279e-009
-4.310598e-011
1.522608e-009
2.970085e-009
3.857084e-009
4.010313e-009
3.703627e-009
3.236674e-009
2.508942e-009
1.291497e-009
-1.180895e-010
-8.980042e-010
-6.056850e-010
1.577320e-010
3.864410e-010
-4.886599e-011
-2.168203e-010
5.252983e-010
1.375158e-009
8.548846e-010
-1.228007e-009
-3.133952e-009
-2.909457e-009
-5.423534e-010
2.004993e-009
2.857994e-009
1.905980e-009
3.680310e-010
-7.497213e-010
-1.281407e-009
-1.302871e-009
-7.017799e-010
3.587539e-010
1.080871e-009
7.499450e-010
-2.698431e-010
-7.975204e-010
-2.584709e-010
5.710490e-010
-3.620149e-010
3.987669e-010
7.775230e-010
6.309350e-010
6.977538e-010
1.042493e-009
5.147992e-010
-1.559587e-009
-3.696553e-009
-3.365360e-009
-5.917747e-011
3.539699e-009
4.187427e-009
1.618094e-009
-1.244132e-009
-1.646918e-009
1.141244e-010
1.548901e-009
1.095931e-009
-4.433688e-010
-1.512849e-009
-1.878406e-009
-2.438037e-009
-3.390823e-009
-3.526111e-009
-1.647622e-009
1.805363e-009
5.053331e-009
6.731958e-009
6.912933e-009
6.391798e-009
5.479865e-009
3.866715e-009
1.453103e-009
-1.163553e-009
-3.179996e-009
-4.314330e-009
-4.854003e-009
-5.123832e-009
-5.150182e-009
-4.847585e-009
-4.306647e-009
-3.753193e-009
-3.311863e-009
-2.948081e-009
-2.622491e-009
-2.379170e-009
-2.252453e-009
-2.186326e-009
-2.115836e-009
-2.072729e-009
-2.133611e-009
-2.293663e-009
-2.479144e-009
-2.683556e-009
-2.993125e-009
-3.432689e-009
-3.869395e-009
-4.149334e-009
-4.265445e-009
-4.264791e-009
-4.010866e-009
-3.217130e-009
-1.813862e-009
-1.491024e-010
1.343452e-009
2.602485e-009
3.825571e-009
4.868648e-009
5.073034e-009
3.981891e-009
2.097400e-009
5.325784e-010
-1.940162e-010
-6.736327e-010
-1.641063e-009
-2.749137e-009
-2.814206e-009
-1.355487e-009
5.835866e-010
1.500421e-009
1.056323e-009
2.000882e-010
-1.911168e-010
-1.816980e-010
-1.170850e-010
2.246981e-010
1.108784e-009
1.752652e-009
7.877251e-010
-1.729133e-009
-3.516476e-009
-2.289487e-009
1.255696e-009
3.657292e-009
2.449892e-009
-8.820957e-010
-2.567927e-009
-1.016937e-009
1.381283e-009
-1.906942e-008
-6.020022e-009
5.876644e-009
8.366567e-009
3.510650e-009
-1.236974e-009
-1.733090e-009
-2.672616e-011
1.777179e-010
-1.459323e-009
-2.379873e-009
-1.231191e-009
3.996883e-010
5.518467e-010
-2.700776e-010
6.386617e-011
2.154292e-009
4.004765e-009
3.408081e-009
5.674949e-010
-2.295622e-009
-3.495907e-009
-3.239268e-009
-2.491437e-009
-1.420752e-009
4.120246e-010
2.726769e-009
4.226648e-009
3.874785e-009
2.039827e-009
3.706005e-011
-1.247109e-009
-1.915802e-009
-2.359433e-009
-2.476161e-009
-1.845316e-009
-4.435859e-010
1.155870e-009
2.323008e-009
2.892726e-009
3.074012e-009
3.021245e-009
2.671098e-009
1.950576e-009
9.724426e-010
-3.212896e-011
-8.876546e-010
-1.523989e-009
-1.912472e-009
-2.026311e-009
-1.850864e-009
-1.385665e-009
-6.491707e-010
2.743092e-010
1.211840e-009
1.993493e-009
2.569848e-009
2.963306e-009
3.086060e-009
2.723822e-009
1.810753e-009
6.522742e-010
-2.934779e-010
-8.722221e-010
-1.294720e-009
-1.651673e-009
-1.573305e-009
-6.556775e-010
8.073882e-010
1.861429e-009
1.857767e-009
1.168336e-009
6.487121e-010
5.100794e-010
1.407439e-010
-8.544274e-010
-1.876182e-009
-1.982950e-009
-1.091204e-009
-1.133626e-012
7.641335e-010
1.500836e-009
2.350408e-009
2.393278e-009
6.418007e-010
-2.058303e-009
-3.158120e-009
-1.226967e-009
1.839779e-009
2.537370e-009
-9.165701e-011
-2.965202e-009
-2.441923e-009
1.172342e-009
3.747315e-009
2.227296e-009
-1.607992e-009
-3.250409e-009
-9.419189e-010
2.232175e-009
-2.401974e-008
-6.360512e-009
8.935468e-009
1.031709e-008
1.494109e-009
-5.498532e-009
-3.814233e-009
2.590365e-009
5.560502e-009
2.329497e-009
-2.721071e-009
-4.407195e-009
-2.450083e-009
-2.959217e-010
-2.473643e-011
-3.069588e-010
7.636018e-010
2.587259e-009
2.903209e-009
1.003709e-009
-1.187288e-009
-1.429472e-009
3.272566e-010
2.266288e-009
2.955140e-009
2.494180e-009
1.572620e-009
2.835298e-010
-1.617602e-009
-3.712049e-009
-4.880316e-009
-4.389866e-009
-2.644085e-009
-6.634669e-010
9.113275e-010
2.039386e-009
2.684530e-009
2.414206e-009
7.447649e-010
-2.315188e-009
-6.265723e-009
-1.059826e-008
-1.511320e-008
-1.976084e-008
-2.433518e-008
-2.843824e-008
-3.170308e-008
-3.396879e-008
-3.523914e-008
-3.552932e-008
-3.478088e-008
-3.291719e-008
-2.998008e-008
-2.620931e-008
-2.195290e-008
-1.747075e-008
-1.286778e-008
-8.284382e-009
-4.112845e-009
-8.807849e-010
1.153580e-009
2.187454e-009
2.539571e-009
2.222084e-009
1.068465e-009
-6.822281e-010
-2.201915e-009
-2.727521e-009
-2.309392e-009
-1.642557e-009
-1.159314e-009
-6.144893e-010
2.806191e-010
1.166177e-009
1.408966e-009
1.050010e-009
8.217160e-010
1.033473e-009
9.821884e-010
2.502699e-011
-1.066524e-009
-7.088866e-010
1.248910e-009
2.659241e-009
1.331947e-009
-2.012391e-009
-4.020785e-009
-2.409749e-009
1.232237e-009
3.130598e-009
1.642065e-009
-9.948250e-010
-1.556470e-009
2.624336e-010
1.720364e-009
6.679376e-010
-1.690386e-009
-2.324526e-009
-2.149955e-010
2.295154e-009
-1.408852e-008
-1.158027e-009
8.806042e-009
6.933541e-009
-2.626672e-009
-8.678972e-009
-5.151072e-009
3.396886e-009
7.881135e-009
4.674606e-009
-1.572411e-009
-4.259416e-009
-2.070366e-009
9.128366e-010
1.010294e-009
-1.047403e-009
-2.140983e-009
-1.146811e-009
1.556808e-010
1.282111e-010
-3.667292e-010
6.314078e-010
3.261940e-009
5.407521e-009
5.131877e-009
2.725034e-009
3.233214e-011
-1.612621e-009
-2.199819e-009
-2.142502e-009
-1.434073e-009
-3.921921e-011
1.337369e-009
1.419000e-009
-6.947000e-010
-5.034654e-009
-1.122819e-008
-1.913404e-008
-2.880783e-008
-4.001132e-008
-5.205403e-008
-6.418349e-008
-7.597460e-008
-8.724474e-008
-9.769224e-008
-1.067644e-007
-1.138943e-007
-1.187817e-007
-1.213980e-007
-1.217602e-007
-1.197705e-007
-1.153135e-007
-1.084971e-007
-9.974809e-008
-8.961941e-008
-7.850981e-008
-6.664193e-008
-5.435042e-008
-4.229551e-008
-3.124633e-008
-2.164132e-008
-1.350310e-008
-6.853488e-009
-2.038233e-009
5.904115e-010
1.285755e-009
9.413837e-010
3.951593e-010
-1.100072e-010
-6.110293e-010
-8.230470e-010
-2.945230e-010
8.142775e-010
1.615429e-009
1.533266e-009
1.158617e-009
1.490945e-009
2.352455e-009
2.258697e-009
3.233745e-010
-2.165749e-009
-2.858381e-009
-1.092125e-009
1.155865e-009
1.486053e-009
-1.882566e-010
-1.715652e-009
-1.347717e-009
3.915937e-010
1.660327e-009
1.495171e-009
5.137433e-010
-2.598076e-010
-5.496433e-010
-6.688916e-010
-7.577292e-010
-6.183566e-010
-1.425693e-010
4.554325e-010
8.492663e-010
9.053776e-010
3.600905e-009
4.593565e-009
1.451056e-009
-3.872771e-009
-6.616070e-009
-3.976656e-009
1.684853e-009
5.009136e-009
3.246366e-009
-8.884132e-010
-2.490299e-009
-8.289950e-011
3.016579e-009
2.948182e-009
-2.356177e-010
-3.147150e-009
-3.348158e-009
-1.723221e-009
-4.702862e-010
-5.019541e-011
8.075795e-010
2.596071e-009
3.881618e-009