# vtk DataFile Version 3.0
vtk output
ASCII
DATASET STRUCTURED_POINTS
DIMENSIONS 100 100 1
SPACING 1 1 1
ORIGIN 0 0 0
POINT_DATA 10000
SCALARS SFBox_profile double
LOOKUP_TABLE default 
9.439917e-003
9.439918e-003
9.439921e-003
9.439923e-003
9.439924e-003
9.439922e-003
9.439918e-003
9.439915e-003
9.439914e-003
9.439918e-003
9.439922e-003
9.439926e-003
9.439926e-003
9.439922e-003
9.439919e-003
9.439917e-003
9.439917e-003
9.439919e-003
9.439919e-003
9.439919e-003
9.439919e-003
9.439919e-003
9.439920e-003
9.439922e-003
9.439922e-003
9.439923e-003
9.439922e-003
9.439922e-003
9.439923e-003
9.439923e-003
9.439922e-003
9.439922e-003
9.439923e-003
9.439923e-003
9.439924e-003
9.439925e-003
9.439927e-003
9.439928e-003
9.439930e-003
9.439931e-003
9.439933e-003
9.439934e-003
9.439935e-003
9.439936e-003
9.439937e-003
9.439938e-003
9.439939e-003
9.439939e-003
9.439940e-003
9.439940e-003
9.439940e-003
9.439939e-003
9.439939e-003
9.439939e-003
9.439938e-003
9.439937e-003
9.439936e-003
9.439935e-003
9.439934e-003
9.439933e-003
9.439931e-003
9.439930e-003
9.439929e-003
9.439927e-003
9.439926e-003
9.439925e-003
9.439924e-003
9.439923e-003
9.439923e-003
9.439923e-003
9.439922e-003
9.439922e-003
9.439922e-003
9.439922e-003
9.439922e-003
9.439922e-003
9.439921e-003
9.439921e-003
9.439920e-003
9.439920e-003
9.439920e-003
9.439920e-003
9.439919e-003
9.439919e-003
9.439919e-003
9.439919e-003
9.439920e-003
9.439921e-003
9.439922e-003
9.439922e-003
9.439921e-003
9.439919e-003
9.439918e-003
9.439918e-003
9.439919e-003
9.439921e-003
9.439921e-003
9.439921e-003
9.439920e-003
9.439919e-003
9.439917e-003
9.439918e-003
9.439921e-003
9.439923e-003
9.439924e-003
9.439922e-003
9.439918e-003
9.439915e-003
9.439914e-003
9.439918e-003
9.439922e-003
9.439926e-003
9.439926e-003
9.439922e-003
9.439919e-003
9.439917e-003
9.439917e-003
9.439919e-003
9.439919e-003
9.439919e-003
9.439919e-003
9.439919e-003
9.439920e-003
9.439922e-003
9.439922e-003
9.439923e-003
9.439922e-003
9.439922e-003
9.439923e-003
9.439923e-003
9.439922e-003
9.439922e-003
9.439923e-003
9.439923e-003
9.439924e-003
9.439925e-003
9.439927e-003
9.439928e-003
9.439930e-003
9.439931e-003
9.439933e-003
9.439934e-003
9.439935e-003
9.439936e-003
9.439937e-003
9.439938e-003
9.439939e-003
9.439939e-003
9.439940e-003
9.439940e-003
9.439940e-003
9.439939e-003
9.439939e-003
9.439939e-003
9.439938e-003
9.439937e-003
9.439936e-003
9.439935e-003
9.439934e-003
9.439933e-003
9.439931e-003
9.439930e-003
9.439929e-003
9.439927e-003
9.439926e-003
9.439925e-003
9.439924e-003
9.439923e-003
9.439923e-003
9.439923e-003
9.439922e-003
9.439922e-003
9.439922e-003
9.439922e-003
9.439922e-003
9.439922e-003
9.439921e-003
9.439921e-003
9.439920e-003
9.439920e-003
9.439920e-003
9.439920e-003
9.439919e-003
9.439919e-003
9.439919e-003
9.439919e-003
9.439920e-003
9.439921e-003
9.439922e-003
9.439922e-003
9.439921e-003
9.439919e-003
9.439918e-003
9.439918e-003
9.439919e-003
9.439921e-003
9.439921e-003
9.439921e-003
9.439920e-003
9.439919e-003
9.439925e-003
9.439923e-003
9.439920e-003
9.439918e-003
9.439918e-003
9.439920e-003
9.439921e-003
9.439921e-003
9.439920e-003
9.439920e-003
9.439920e-003
9.439920e-003
9.439920e-003
9.439919e-003
9.439919e-003
9.439919e-003
9.439920e-003
9.439921e-003
9.439922e-003
9.439921e-003
9.439921e-003
9.439920e-003
9.439920e-003
9.439921e-003
9.439921e-003
9.439921e-003
9.439921e-003
9.439921e-003
9.439922e-003
9.439923e-003
9.439924e-003
9.439926e-003
9.439927e-003
9.439928e-003
9.439929e-003
9.439930e-003
9.439931e-003
9.439932e-003
9.439933e-003
9.439933e-003
9.439934e-003
9.439935e-003
9.439935e-003
9.439936e-003
9.439936e-003
9.439937e-003
9.439937e-003
9.439937e-003
9.439938e-003
9.439938e-003
9.439938e-003
9.439938e-003
9.439938e-003
9.439937e-003
9.439937e-003
9.439937e-003
9.439936e-003
9.439936e-003
9.439935e-003
9.439935e-003
9.439934e-003
9.439933e-003
9.439932e-003
9.439931e-003
9.439930e-003
9.439929e-003
9.439928e-003
9.439927e-003
9.439926e-003
9.439925e-003
9.439924e-003
9.439923e-003
9.439922e-003
9.439921e-003
9.439921e-003
9.439921e-003
9.439920e-003
9.439920e-003
9.439920e-003
9.439920e-003
9.439920e-003
9.439921e-003
9.439921e-003
9.439921e-003
9.439920e-003
9.439920e-003
9.439920e-003
9.439920e-003
9.439920e-003
9.439920e-003
9.439920e-003
9.439920e-003
9.439920e-003
9.439920e-003
9.439920e-003
9.439920e-003
9.439920e-003
9.439920e-003
9.439920e-003
9.439920e-003
9.439931e-003
9.439926e-003
9.439919e-003
9.439914e-003
9.439914e-003
9.439918e-003
9.439924e-003
9.439927e-003
9.439926e-003
9.439921e-003
9.439917e-003
9.439914e-003
9.439915e-003
9.439918e-003
9.439920e-003
9.439922e-003
9.439923e-003
9.439923e-003
9.439922e-003
9.439922e-003
9.439922e-003
9.439921e-003
9.439921e-003
9.439920e-003
9.439920e-003
9.439920e-003
9.439921e-003
9.439923e-003
9.439924e-003
9.439926e-003
9.439928e-003
9.439930e-003
9.439932e-003
9.439934e-003
9.439935e-003
9.439936e-003
9.439937e-003
9.439938e-003
9.439938e-003
9.439939e-003
9.439939e-003
9.439939e-003
9.439940e-003
9.439940e-003
9.439940e-003
9.439940e-003
9.439940e-003
9.439940e-003
9.439940e-003
9.439941e-003
9.439941e-003
9.439941e-003
9.439941e-003
9.439941e-003
9.439941e-003
9.439941e-003
9.439940e-003
9.439940e-003
9.439940e-003
9.439940e-003
9.439939e-003
9.439939e-003
9.439938e-003
9.439937e-003
9.439936e-003
9.439935e-003
9.439933e-003
9.439932e-003
9.439930e-003
9.439928e-003
9.439927e-003
9.439925e-003
9.439924e-003
9.439922e-003
9.439921e-003
9.439921e-003
9.439920e-003
9.439920e-003
9.439920e-003
9.439920e-003
9.439921e-003
9.439921e-003
9.439921e-003
9.439922e-003
9.439922e-003
9.439921e-003
9.439920e-003
9.439919e-003
9.439918e-003
9.439918e-003
9.439919e-003
9.439921e-003
9.439922e-003
9.439922e-003
9.439921e-003
9.439919e-003
9.439918e-003
9.439919e-003
9.439920e-003
9.439921e-003
9.439926e-003
9.439923e-003
9.439919e-003
9.439916e-003
9.439915e-003
9.439918e-003
9.439923e-003
9.439926e-003
9.439925e-003
9.439921e-003
9.439917e-003
9.439914e-003
9.439916e-003
9.439920e-003
9.439923e-003
9.439923e-003
9.439922e-003
9.439921e-003
9.439920e-003
9.439921e-003
9.439921e-003
9.439922e-003
9.439922e-003
9.439922e-003
9.439923e-003
9.439924e-003
9.439926e-003
9.439928e-003
9.439930e-003
9.439931e-003
9.439934e-003
9.439936e-003
9.439938e-003
9.439939e-003
9.439941e-003
9.439942e-003
9.439943e-003
9.439944e-003
9.439945e-003
9.439946e-003
9.439946e-003
9.439946e-003
9.439946e-003
9.439946e-003
9.439946e-003
9.439945e-003
9.439945e-003
9.439945e-003
9.439944e-003
9.439944e-003
9.439944e-003
9.439944e-003
9.439944e-003
9.439944e-003
9.439944e-003
9.439944e-003
9.439944e-003
9.439944e-003
9.439944e-003
9.439944e-003
9.439944e-003
9.439944e-003
9.439943e-003
9.439943e-003
9.439941e-003
9.439940e-003
9.439939e-003
9.439937e-003
9.439935e-003
9.439933e-003
9.439931e-003
9.439930e-003
9.439928e-003
9.439926e-003
9.439925e-003
9.439924e-003
9.439923e-003
9.439922e-003
9.439921e-003
9.439921e-003
9.439920e-003
9.439920e-003
9.439920e-003
9.439921e-003
9.439921e-003
9.439922e-003
9.439921e-003
9.439920e-003
9.439918e-003
9.439918e-003
9.439919e-003
9.439920e-003
9.439922e-003
9.439922e-003
9.439921e-003
9.439919e-003
9.439918e-003
9.439919e-003
9.439920e-003
9.439921e-003
9.439910e-003
9.439915e-003
9.439921e-003
9.439924e-003
9.439923e-003
9.439920e-003
9.439918e-003
9.439918e-003
9.439919e-003
9.439920e-003
9.439920e-003
9.439920e-003
9.439921e-003
9.439923e-003
9.439923e-003
9.439922e-003
9.439919e-003
9.439918e-003
9.439917e-003
9.439919e-003
9.439921e-003
9.439923e-003
9.439925e-003
9.439926e-003
9.439928e-003
9.439931e-003
9.439933e-003
9.439935e-003
9.439937e-003
9.439939e-003
9.439940e-003
9.439942e-003
9.439943e-003
9.439944e-003
9.439945e-003
9.439945e-003
9.439945e-003
9.439945e-003
9.439943e-003
9.439941e-003
9.439939e-003
9.439936e-003
9.439933e-003
9.439930e-003
9.439926e-003
9.439923e-003
9.439920e-003
9.439917e-003
9.439915e-003
9.439914e-003
9.439913e-003
9.439913e-003
9.439913e-003
9.439915e-003
9.439917e-003
9.439919e-003
9.439922e-003
9.439925e-003
9.439928e-003
9.439931e-003
9.439934e-003
9.439937e-003
9.439939e-003
9.439941e-003
9.439942e-003
9.439942e-003
9.439943e-003
9.439942e-003
9.439941e-003
9.439939e-003
9.439938e-003
9.439936e-003
9.439934e-003
9.439932e-003
9.439930e-003
9.439928e-003
9.439926e-003
9.439925e-003
9.439924e-003
9.439922e-003
9.439921e-003
9.439920e-003
9.439919e-003
9.439919e-003
9.439920e-003
9.439921e-003
9.439921e-003
9.439921e-003
9.439921e-003
9.439920e-003
9.439920e-003
9.439920e-003
9.439920e-003
9.439920e-003
9.439920e-003
9.439920e-003
9.439920e-003
9.439920e-003
9.439920e-003
9.439920e-003
9.439897e-003
9.439908e-003
9.439922e-003
9.439931e-003
9.439930e-003
9.439922e-003
9.439914e-003
9.439911e-003
9.439914e-003
9.439920e-003
9.439924e-003
9.439925e-003
9.439924e-003
9.439922e-003
9.439921e-003
9.439919e-003
9.439918e-003
9.439918e-003
9.439919e-003
9.439922e-003
9.439924e-003
9.439927e-003
9.439929e-003
9.439931e-003
9.439934e-003
9.439937e-003
9.439940e-003
9.439943e-003
9.439945e-003
9.439946e-003
9.439947e-003
9.439947e-003
9.439945e-003
9.439942e-003
9.439938e-003
9.439931e-003
9.439923e-003
9.439913e-003
9.439902e-003
9.439889e-003
9.439874e-003
9.439859e-003
9.439844e-003
9.439829e-003
9.439815e-003
9.439801e-003
9.439790e-003
9.439780e-003
9.439772e-003
9.439767e-003
9.439765e-003
9.439766e-003
9.439769e-003
9.439775e-003
9.439784e-003
9.439795e-003
9.439808e-003
9.439822e-003
9.439837e-003
9.439852e-003
9.439867e-003
9.439882e-003
9.439896e-003
9.439908e-003
9.439918e-003
9.439927e-003
9.439934e-003
9.439939e-003
9.439941e-003
9.439943e-003
9.439943e-003
9.439942e-003
9.439940e-003
9.439938e-003
9.439935e-003
9.439933e-003
9.439930e-003
9.439928e-003
9.439926e-003
9.439925e-003
9.439923e-003
9.439922e-003
9.439920e-003
9.439919e-003
9.439919e-003
9.439919e-003
9.439920e-003
9.439921e-003
9.439922e-003
9.439922e-003
9.439921e-003
9.439920e-003
9.439918e-003
9.439918e-003
9.439919e-003
9.439921e-003
9.439922e-003
9.439922e-003
9.439920e-003
9.439918e-003
9.439900e-003
9.439909e-003
9.439921e-003
9.439929e-003
9.439929e-003
9.439921e-003
9.439914e-003
9.439912e-003
9.439916e-003
9.439922e-003
9.439926e-003
9.439925e-003
9.439922e-003
9.439918e-003
9.439917e-003
9.439918e-003
9.439921e-003
9.439923e-003
9.439926e-003
9.439928e-003
9.439930e-003
9.439932e-003
9.439934e-003
9.439937e-003
9.439940e-003
9.439943e-003
9.439946e-003
9.439947e-003
9.439948e-003
9.439946e-003
9.439941e-003
9.439933e-003
9.439920e-003
9.439903e-003
9.439880e-003
9.439852e-003
9.439819e-003
9.439782e-003
9.439740e-003
9.439695e-003
9.439648e-003
9.439600e-003
9.439552e-003
9.439506e-003
9.439463e-003
9.439424e-003
9.439390e-003
9.439362e-003
9.439341e-003
9.439328e-003
9.439322e-003
9.439325e-003
9.439336e-003
9.439354e-003
9.439380e-003
9.439413e-003
9.439451e-003
9.439494e-003
9.439541e-003
9.439589e-003
9.439639e-003
9.439687e-003
9.439733e-003
9.439776e-003
9.439815e-003
9.439848e-003
9.439877e-003
9.439899e-003
9.439916e-003
9.439929e-003
9.439937e-003
9.439941e-003
9.439943e-003
9.439942e-003
9.439940e-003
9.439938e-003
9.439935e-003
9.439932e-003
9.439930e-003
9.439928e-003
9.439926e-003
9.439925e-003
9.439923e-003
9.439922e-003
9.439920e-003
9.439919e-003
9.439919e-003
9.439920e-003
9.439921e-003
9.439922e-003
9.439922e-003
9.439920e-003
9.439918e-003
9.439918e-003
9.439919e-003
9.439921e-003
9.439922e-003
9.439922e-003
9.439920e-003
9.439918e-003
9.439921e-003
9.439921e-003
9.439920e-003
9.439920e-003
9.439919e-003
9.439919e-003
9.439919e-003
9.439920e-003
9.439922e-003
9.439923e-003
9.439923e-003
9.439920e-003
9.439917e-003
9.439915e-003
9.439917e-003
9.439922e-003
9.439926e-003
9.439930e-003
9.439931e-003
9.439933e-003
9.439935e-003
9.439937e-003
9.439941e-003
9.439944e-003
9.439947e-003
9.439948e-003
9.439947e-003
9.439942e-003
9.439932e-003
9.439915e-003
9.439889e-003
9.439854e-003
9.439806e-003
9.439746e-003
9.439674e-003
9.439588e-003
9.439491e-003
9.439383e-003
9.439266e-003
9.439143e-003
9.439017e-003
9.438889e-003
9.438764e-003
9.438645e-003
9.438534e-003
9.438434e-003
9.438348e-003
9.438278e-003
9.438225e-003
9.438192e-003
9.438179e-003
9.438186e-003
9.438214e-003
9.438261e-003
9.438328e-003
9.438412e-003
9.438511e-003
9.438623e-003
9.438744e-003
9.438873e-003
9.439004e-003
9.439135e-003
9.439262e-003
9.439382e-003
9.439493e-003
9.439593e-003
9.439679e-003
9.439751e-003
9.439810e-003
9.439856e-003
9.439890e-003
9.439914e-003
9.439929e-003
9.439938e-003
9.439942e-003
9.439942e-003
9.439940e-003
9.439937e-003
9.439934e-003
9.439932e-003
9.439930e-003
9.439928e-003
9.439927e-003
9.439925e-003
9.439923e-003
9.439921e-003
9.439919e-003
9.439918e-003
9.439919e-003
9.439920e-003
9.439921e-003
9.439921e-003
9.439920e-003
9.439919e-003
9.439919e-003
9.439920e-003
9.439921e-003
9.439921e-003
9.439920e-003
9.439919e-003
9.439947e-003
9.439934e-003
9.439918e-003
9.439908e-003
9.439910e-003
9.439918e-003
9.439926e-003
9.439928e-003
9.439926e-003
9.439921e-003
9.439917e-003
9.439916e-003
9.439917e-003
9.439919e-003
9.439923e-003
9.439927e-003
9.439931e-003
9.439933e-003
9.439934e-003
9.439936e-003
9.439940e-003
9.439944e-003
9.439948e-003
9.439950e-003
9.439949e-003
9.439941e-003
9.439924e-003
9.439896e-003
9.439853e-003
9.439791e-003
9.439706e-003
9.439596e-003
9.439458e-003
9.439291e-003
9.439095e-003
9.438870e-003
9.438619e-003
9.438345e-003
9.438054e-003
9.437750e-003
9.437441e-003
9.437133e-003
9.436833e-003
9.436548e-003
9.436284e-003
9.436048e-003
9.435846e-003
9.435681e-003
9.435559e-003
9.435481e-003
9.435451e-003
9.435468e-003
9.435534e-003
9.435646e-003
9.435803e-003
9.436002e-003
9.436237e-003
9.436504e-003
9.436795e-003
9.437104e-003
9.437423e-003
9.437745e-003
9.438060e-003
9.438362e-003
9.438644e-003
9.438901e-003
9.439130e-003
9.439326e-003
9.439491e-003
9.439625e-003
9.439729e-003
9.439808e-003
9.439864e-003
9.439901e-003
9.439925e-003
9.439938e-003
9.439943e-003
9.439943e-003
9.439941e-003
9.439937e-003
9.439933e-003
9.439930e-003
9.439929e-003
9.439927e-003
9.439926e-003
9.439924e-003
9.439921e-003
9.439919e-003
9.439918e-003
9.439919e-003
9.439920e-003
9.439921e-003
9.439922e-003
9.439922e-003
9.439921e-003
9.439919e-003
9.439918e-003
9.439919e-003
9.439920e-003
9.439921e-003
9.439957e-003
9.439940e-003
9.439917e-003
9.439904e-003
9.439907e-003
9.439920e-003
9.439930e-003
9.439930e-003
9.439923e-003
9.439915e-003
9.439913e-003
9.439917e-003
9.439923e-003
9.439928e-003
9.439930e-003
9.439931e-003
9.439932e-003
9.439934e-003
9.439937e-003
9.439941e-003
9.439947e-003
9.439951e-003
9.439951e-003
9.439943e-003
9.439922e-003
9.439885e-003
9.439824e-003
9.439732e-003
9.439602e-003
9.439426e-003
9.439197e-003
9.438908e-003
9.438556e-003
9.438139e-003
9.437658e-003
9.437115e-003
9.436518e-003
9.435875e-003
9.435197e-003
9.434498e-003
9.433792e-003
9.433094e-003
9.432418e-003
9.431780e-003
9.431194e-003
9.430671e-003
9.430225e-003
9.429863e-003
9.429595e-003
9.429426e-003
9.429360e-003
9.429400e-003
9.429545e-003
9.429793e-003
9.430141e-003
9.430580e-003
9.431103e-003
9.431698e-003
9.432352e-003
9.433050e-003
9.433774e-003
9.434509e-003
9.435237e-003
9.435940e-003
9.436605e-003
9.437219e-003
9.437771e-003
9.438254e-003
9.438667e-003
9.439009e-003
9.439283e-003
9.439496e-003
9.439655e-003
9.439769e-003
9.439847e-003
9.439896e-003
9.439925e-003
9.439939e-003
9.439944e-003
9.439943e-003
9.439939e-003
9.439934e-003
9.439931e-003
9.439929e-003
9.439927e-003
9.439926e-003
9.439925e-003
9.439923e-003
9.439920e-003
9.439919e-003
9.439918e-003
9.439919e-003
9.439922e-003
9.439923e-003
9.439922e-003
9.439919e-003
9.439917e-003
9.439918e-003
9.439920e-003
9.439923e-003
9.439942e-003
9.439931e-003
9.439917e-003
9.439911e-003
9.439915e-003
9.439923e-003
9.439928e-003
9.439925e-003
9.439917e-003
9.439913e-003
9.439915e-003
9.439923e-003
9.439931e-003
9.439934e-003
9.439934e-003
9.439933e-003
9.439934e-003
9.439939e-003
9.439945e-003
9.439951e-003
9.439953e-003
9.439947e-003
9.439926e-003
9.439885e-003
9.439811e-003
9.439695e-003
9.439522e-003
9.439276e-003
9.438941e-003
9.438500e-003
9.437940e-003
9.437250e-003
9.436423e-003
9.435458e-003
9.434359e-003
9.433136e-003
9.431806e-003
9.430390e-003
9.428912e-003
9.427403e-003
9.425892e-003
9.424410e-003
9.422987e-003
9.421654e-003
9.420435e-003
9.419357e-003
9.418439e-003
9.417700e-003
9.417154e-003
9.416811e-003
9.416680e-003
9.416764e-003
9.417063e-003
9.417575e-003
9.418290e-003
9.419197e-003
9.420281e-003
9.421520e-003
9.422889e-003
9.424359e-003
9.425898e-003
9.427471e-003
9.429043e-003
9.430578e-003
9.432045e-003
9.433412e-003
9.434657e-003
9.435763e-003
9.436720e-003
9.437526e-003
9.438184e-003
9.438706e-003
9.439106e-003
9.439401e-003
9.439611e-003
9.439754e-003
9.439845e-003
9.439900e-003
9.439929e-003
9.439942e-003
9.439944e-003
9.439941e-003
9.439936e-003
9.439932e-003
9.439929e-003
9.439928e-003
9.439927e-003
9.439926e-003
9.439924e-003
9.439921e-003
9.439918e-003
9.439918e-003
9.439920e-003
9.439922e-003
9.439922e-003
9.439920e-003
9.439918e-003
9.439918e-003
9.439920e-003
9.439922e-003
9.439911e-003
9.439914e-003
9.439919e-003
9.439923e-003
9.439926e-003
9.439925e-003
9.439921e-003
9.439916e-003
9.439914e-003
9.439917e-003
9.439923e-003
9.439930e-003
9.439934e-003
9.439934e-003
9.439934e-003
9.439935e-003
9.439941e-003
9.439950e-003
9.439956e-003
9.439954e-003
9.439938e-003
9.439898e-003
9.439823e-003
9.439695e-003
9.439494e-003
9.439191e-003
9.438758e-003
9.438162e-003
9.437369e-003
9.436350e-003
9.435077e-003
9.433535e-003
9.431714e-003
9.429620e-003
9.427267e-003
9.424685e-003
9.421913e-003
9.418999e-003
9.415998e-003
9.412970e-003
9.409974e-003
9.407068e-003
9.404309e-003
9.401748e-003
9.399430e-003
9.397395e-003
9.395676e-003
9.394300e-003
9.393290e-003
9.392662e-003
9.392427e-003
9.392591e-003
9.393154e-003
9.394112e-003
9.395455e-003
9.397165e-003
9.399217e-003
9.401580e-003
9.404212e-003
9.407065e-003
9.410083e-003
9.413202e-003
9.416356e-003
9.419476e-003
9.422493e-003
9.425344e-003
9.427977e-003
9.430347e-003
9.432428e-003
9.434206e-003
9.435682e-003
9.436872e-003
9.437802e-003
9.438504e-003
9.439016e-003
9.439374e-003
9.439615e-003
9.439769e-003
9.439862e-003
9.439913e-003
9.439937e-003
9.439945e-003
9.439944e-003
9.439939e-003
9.439933e-003
9.439929e-003
9.439928e-003
9.439927e-003
9.439926e-003
9.439924e-003
9.439920e-003
9.439919e-003
9.439919e-003
9.439920e-003
9.439921e-003
9.439921e-003
9.439920e-003
9.439920e-003
9.439920e-003
9.439920e-003
9.439884e-003
9.439900e-003
9.439922e-003
9.439934e-003
9.439932e-003
9.439922e-003
9.439913e-003
9.439912e-003
9.439918e-003
9.439926e-003
9.439932e-003
9.439933e-003
9.439932e-003
9.439933e-003
9.439936e-003
9.439944e-003
9.439953e-003
9.439959e-003
9.439953e-003
9.439924e-003
9.439858e-003
9.439737e-003
9.439533e-003
9.439208e-003
9.438716e-003
9.438002e-003
9.437004e-003
9.435659e-003
9.433905e-003
9.431689e-003
9.428971e-003
9.425731e-003
9.421969e-003
9.417715e-003
9.413021e-003
9.407961e-003
9.402630e-003
9.397132e-003
9.391580e-003
9.386084e-003
9.380752e-003
9.375680e-003
9.370953e-003
9.366641e-003
9.362805e-003
9.359488e-003
9.356727e-003
9.354548e-003
9.352969e-003
9.352003e-003
9.351660e-003
9.351946e-003
9.352861e-003
9.354405e-003
9.356572e-003
9.359349e-003
9.362714e-003
9.366637e-003
9.371073e-003
9.375960e-003
9.381222e-003
9.386766e-003
9.392482e-003
9.398249e-003
9.403938e-003
9.409423e-003
9.414585e-003
9.419322e-003
9.423555e-003
9.427237e-003
9.430347e-003
9.432898e-003
9.434925e-003
9.436485e-003
9.437645e-003
9.438477e-003
9.439050e-003
9.439430e-003
9.439669e-003
9.439812e-003
9.439891e-003
9.439930e-003
9.439945e-003
9.439946e-003
9.439941e-003
9.439934e-003
9.439930e-003
9.439928e-003
9.439927e-003
9.439926e-003
9.439924e-003
9.439921e-003
9.439919e-003
9.439918e-003
9.439919e-003
9.439921e-003
9.439922e-003
9.439921e-003
9.439920e-003
9.439918e-003
9.439878e-003
9.439899e-003
9.439925e-003
9.439937e-003
9.439931e-003
9.439916e-003
9.439909e-003
9.439914e-003
9.439926e-003
9.439935e-003
9.439936e-003
9.439932e-003
9.439931e-003
9.439936e-003
9.439947e-003
9.439957e-003
9.439961e-003
9.439947e-003
9.439902e-003
9.439805e-003
9.439627e-003
9.439324e-003
9.438835e-003
9.438083e-003
9.436973e-003
9.435396e-003
9.433237e-003
9.430383e-003
9.426730e-003
9.422202e-003
9.416758e-003
9.410405e-003
9.403203e-003
9.395262e-003
9.386741e-003
9.377835e-003
9.368756e-003
9.359726e-003
9.350953e-003
9.342620e-003
9.334881e-003
9.327847e-003
9.321594e-003
9.316158e-003
9.311548e-003
9.307749e-003
9.304732e-003
9.302459e-003
9.300895e-003
9.300006e-003
9.299771e-003
9.300178e-003
9.301234e-003
9.302957e-003
9.305378e-003
9.308536e-003
9.312475e-003
9.317232e-003
9.322834e-003
9.329280e-003
9.336539e-003
9.344539e-003
9.353158e-003
9.362230e-003
9.371548e-003
9.380873e-003
9.389959e-003
9.398566e-003
9.406484e-003
9.413553e-003
9.419671e-003
9.424799e-003
9.428959e-003
9.432222e-003
9.434696e-003
9.436504e-003
9.437778e-003
9.438641e-003
9.439200e-003
9.439547e-003
9.439752e-003
9.439864e-003
9.439920e-003
9.439942e-003
9.439946e-003
9.439942e-003
9.439935e-003
9.439930e-003
9.439927e-003
9.439927e-003
9.439926e-003
9.439924e-003
9.439921e-003
9.439918e-003
9.439918e-003
9.439920e-003
9.439922e-003
9.439922e-003
9.439920e-003
9.439917e-003
9.439896e-003
9.439911e-003
9.439927e-003
9.439932e-003
9.439923e-003
9.439912e-003
9.439911e-003
9.439922e-003
9.439934e-003
9.439939e-003
9.439936e-003
9.439932e-003
9.439936e-003
9.439948e-003
9.439961e-003
9.439963e-003
9.439941e-003
9.439877e-003
9.439745e-003
9.439501e-003
9.439079e-003
9.438387e-003
9.437301e-003
9.435667e-003
9.433308e-003
9.430025e-003
9.425621e-003
9.419918e-003
9.412786e-003
9.404170e-003
9.394118e-003
9.382789e-003
9.370462e-003
9.357517e-003
9.344406e-003
9.331616e-003
9.319621e-003
9.308844e-003
9.299616e-003
9.292152e-003
9.286540e-003
9.282745e-003
9.280616e-003
9.279917e-003
9.280348e-003
9.281581e-003
9.283281e-003
9.285133e-003
9.286863e-003
9.288248e-003
9.289136e-003
9.289451e-003
9.289199e-003
9.288471e-003
9.287441e-003
9.286358e-003
9.285531e-003
9.285315e-003
9.286080e-003
9.288179e-003
9.291912e-003
9.297487e-003
9.304982e-003
9.314328e-003
9.325301e-003
9.337530e-003
9.350540e-003
9.363790e-003
9.376736e-003
9.388888e-003
9.399855e-003
9.409378e-003
9.417338e-003
9.423746e-003
9.428715e-003
9.432425e-003
9.435093e-003
9.436938e-003
9.438163e-003
9.438942e-003
9.439415e-003
9.439688e-003
9.439836e-003
9.439909e-003
9.439940e-003
9.439947e-003
9.439943e-003
9.439936e-003
9.439930e-003
9.439927e-003
9.439927e-003
9.439926e-003
9.439923e-003
9.439920e-003
9.439918e-003
9.439919e-003
9.439921e-003
9.439922e-003
9.439920e-003
9.439918e-003
9.439924e-003
9.439926e-003
9.439925e-003
9.439921e-003
9.439915e-003
9.439914e-003
9.439921e-003
9.439931e-003
9.439937e-003
9.439937e-003
9.439934e-003
9.439937e-003
9.439949e-003
9.439963e-003
9.439965e-003
9.439937e-003
9.439855e-003
9.439686e-003
9.439372e-003
9.438819e-003
9.437891e-003
9.436406e-003
9.434129e-003
9.430779e-003
9.426041e-003
9.419594e-003
9.411156e-003
9.400541e-003
9.387729e-003
9.372921e-003
9.356588e-003
9.339480e-003
9.322589e-003
9.307076e-003
9.294162e-003
9.285006e-003
9.280575e-003
9.281545e-003
9.288227e-003
9.300532e-003
9.317980e-003
9.339736e-003
9.364690e-003
9.391539e-003
9.418891e-003
9.445346e-003
9.469577e-003
9.490388e-003
9.506767e-003
9.517914e-003
9.523278e-003
9.522573e-003
9.515795e-003
9.503236e-003
9.485480e-003
9.463399e-003
9.438129e-003
9.411028e-003
9.383616e-003
9.357481e-003
9.334169e-003
9.315054e-003
9.301213e-003
9.293313e-003
9.291541e-003
9.295589e-003
9.304689e-003
9.317715e-003
9.333330e-003
9.350147e-003
9.366893e-003
9.382537e-003
9.396363e-003
9.407983e-003
9.417309e-003
9.424472e-003
9.429748e-003
9.433477e-003
9.436007e-003
9.437653e-003
9.438678e-003
9.439286e-003
9.439630e-003
9.439812e-003
9.439901e-003
9.439939e-003
9.439948e-003
9.439943e-003
9.439935e-003
9.439930e-003
9.439928e-003
9.439927e-003
9.439925e-003
9.439922e-003
9.439919e-003
9.439919e-003
9.439920e-003
9.439921e-003
9.439921e-003
9.439920e-003
9.439947e-003
9.439935e-003
9.439920e-003
9.439911e-003
9.439912e-003
9.439922e-003
9.439932e-003
9.439937e-003
9.439935e-003
9.439934e-003
9.439938e-003
9.439950e-003
9.439965e-003
9.439966e-003
9.439933e-003
9.439839e-003
9.439638e-003
9.439256e-003
9.438570e-003
9.437395e-003
9.435471e-003
9.432459e-003
9.427941e-003
9.421443e-003
9.412478e-003
9.400639e-003
9.385717e-003
9.367864e-003
9.347742e-003
9.326655e-003
9.306593e-003
9.290164e-003
9.280420e-003
9.280562e-003
9.293602e-003
9.322006e-003
9.367402e-003
9.430360e-003
9.510302e-003
9.605507e-003
9.713227e-003
9.829887e-003
9.951337e-003
1.007312e-002
1.019076e-002
1.029995e-002
1.039674e-002
1.047770e-002
1.053996e-002
1.058127e-002
1.060010e-002
1.059561e-002
1.056775e-002
1.051725e-002
1.044565e-002
1.035534e-002
1.024951e-002
1.013211e-002
1.000771e-002
9.881335e-003
9.758177e-003
9.643231e-003
9.540931e-003
9.454770e-003
9.387000e-003
9.338442e-003
9.308458e-003
9.295089e-003
9.295366e-003
9.305731e-003
9.322511e-003
9.342352e-003
9.362539e-003
9.381157e-003
9.397095e-003
9.409925e-003
9.419715e-003
9.426833e-003
9.431779e-003
9.435070e-003
9.437165e-003
9.438439e-003
9.439178e-003
9.439585e-003
9.439796e-003
9.439897e-003
9.439938e-003
9.439947e-003
9.439943e-003
9.439935e-003
9.439930e-003
9.439928e-003
9.439926e-003
9.439924e-003
9.439922e-003
9.439920e-003
9.439919e-003
9.439920e-003
9.439920e-003
9.439921e-003
9.439955e-003
9.439936e-003
9.439914e-003
9.439906e-003
9.439915e-003
9.439931e-003
9.439940e-003
9.439938e-003
9.439933e-003
9.439936e-003
9.439950e-003
9.439966e-003
9.439968e-003
9.439933e-003
9.439829e-003
9.439606e-003
9.439169e-003
9.438365e-003
9.436953e-003
9.434588e-003
9.430805e-003
9.425015e-003
9.416539e-003
9.404685e-003
9.388913e-003
9.369089e-003
9.345839e-003
9.320934e-003
9.297637e-003
9.280886e-003
9.277215e-003
9.294345e-003
9.340484e-003
9.423418e-003
9.549563e-003
9.723132e-003
9.945549e-003
1.021516e-002
1.052730e-002
1.087455e-002
1.124732e-002
1.163445e-002
1.202397e-002
1.240377e-002
1.276219e-002
1.308850e-002
1.337319e-002
1.360814e-002
1.378675e-002
1.390392e-002
1.395609e-002
1.394134e-002
1.385936e-002
1.371160e-002
1.350138e-002
1.323393e-002
1.291654e-002
1.255853e-002
1.217113e-002
1.176717e-002
1.136056e-002
1.096549e-002
1.059554e-002
1.026261e-002
9.975954e-003
9.741406e-003
9.560917e-003
9.432528e-003
9.350831e-003
9.307866e-003
9.294318e-003
9.300774e-003
9.318813e-003
9.341736e-003
9.364856e-003
9.385394e-003
9.402107e-003
9.414812e-003
9.423936e-003
9.430167e-003
9.434228e-003
9.436755e-003
9.438256e-003
9.439105e-003
9.439560e-003
9.439790e-003
9.439896e-003
9.439938e-003
9.439947e-003
9.439942e-003
9.439935e-003
9.439929e-003
9.439927e-003
9.439926e-003
9.439924e-003
9.439921e-003
9.439919e-003
9.439919e-003
9.439920e-003
9.439922e-003
9.439950e-003
9.439931e-003
9.439911e-003
9.439908e-003
9.439922e-003
9.439938e-003
9.439943e-003
9.439938e-003
9.439936e-003
9.439947e-003
9.439965e-003
9.439971e-003
9.439938e-003
9.439832e-003
9.439596e-003
9.439124e-003
9.438231e-003
9.436623e-003
9.433863e-003
9.429347e-003
9.422289e-003
9.411764e-003
9.396835e-003
9.376843e-003
9.351900e-003
9.323629e-003
9.296055e-003
9.276496e-003
9.276168e-003
9.310189e-003
9.396793e-003
9.555717e-003
9.805974e-003
1.016342e-002
1.063858e-002
1.123504e-002
1.194880e-002
1.276840e-002
1.367585e-002
1.464801e-002
1.565829e-002
1.667838e-002
1.767991e-002
1.863583e-002
1.952146e-002
2.031510e-002
2.099832e-002
2.155595e-002
2.197594e-002
2.224913e-002
2.236913e-002
2.233222e-002
2.213744e-002
2.178678e-002
2.128545e-002
2.064233e-002
1.987037e-002
1.898701e-002
1.801438e-002
1.697912e-002
1.591177e-002
1.484551e-002
1.381429e-002
1.285056e-002
1.198275e-002
1.123277e-002
1.061403e-002
1.013027e-002
9.775578e-003
9.535754e-003
9.390729e-003
9.317705e-003
9.294276e-003
9.300947e-003
9.322616e-003
9.348951e-003
9.373875e-003
9.394546e-003
9.410236e-003
9.421366e-003
9.428829e-003
9.433588e-003
9.436481e-003
9.438156e-003
9.439078e-003
9.439559e-003