# vtk DataFile Version 3.0
vtk output
ASCII
DATASET STRUCTURED_POINTS
DIMENSIONS 100 100 1
SPACING 1 1 1
ORIGIN 0 0 0
POINT_DATA 10000
SCALARS SFBox_profile double
LOOKUP_TABLE default 
9.439899e-003
9.439906e-003
9.439917e-003
9.439926e-003
9.439929e-003
9.439927e-003
9.439920e-003
9.439915e-003
9.439913e-003
9.439915e-003
9.439920e-003
9.439923e-003
9.439925e-003
9.439924e-003
9.439922e-003
9.439920e-003
9.439918e-003
9.439918e-003
9.439917e-003
9.439917e-003
9.439918e-003
9.439919e-003
9.439921e-003
9.439923e-003
9.439924e-003
9.439924e-003
9.439923e-003
9.439922e-003
9.439921e-003
9.439920e-003
9.439918e-003
9.439917e-003
9.439917e-003
9.439916e-003
9.439917e-003
9.439917e-003
9.439918e-003
9.439919e-003
9.439919e-003
9.439920e-003
9.439921e-003
9.439922e-003
9.439922e-003
9.439923e-003
9.439923e-003
9.439923e-003
9.439924e-003
9.439924e-003
9.439924e-003
9.439924e-003
9.439924e-003
9.439924e-003
9.439924e-003
9.439923e-003
9.439923e-003
9.439923e-003
9.439922e-003
9.439922e-003
9.439921e-003
9.439920e-003
9.439919e-003
9.439919e-003
9.439918e-003
9.439917e-003
9.439917e-003
9.439917e-003
9.439918e-003
9.439918e-003
9.439919e-003
9.439920e-003
9.439921e-003
9.439922e-003
9.439922e-003
9.439923e-003
9.439922e-003
9.439921e-003
9.439920e-003
9.439919e-003
9.439919e-003
9.439918e-003
9.439918e-003
9.439918e-003
9.439919e-003
9.439921e-003
9.439922e-003
9.439922e-003
9.439921e-003
9.439920e-003
9.439918e-003
9.439918e-003
9.439919e-003
9.439920e-003
9.439921e-003
9.439921e-003
9.439921e-003
9.439920e-003
9.439920e-003
9.439920e-003
9.439920e-003
9.439920e-003
9.439899e-003
9.439906e-003
9.439917e-003
9.439926e-003
9.439929e-003
9.439927e-003
9.439920e-003
9.439915e-003
9.439913e-003
9.439915e-003
9.439920e-003
9.439923e-003
9.439925e-003
9.439924e-003
9.439922e-003
9.439920e-003
9.439918e-003
9.439918e-003
9.439917e-003
9.439917e-003
9.439918e-003
9.439919e-003
9.439921e-003
9.439923e-003
9.439924e-003
9.439924e-003
9.439923e-003
9.439922e-003
9.439921e-003
9.439920e-003
9.439918e-003
9.439917e-003
9.439917e-003
9.439916e-003
9.439917e-003
9.439917e-003
9.439918e-003
9.439919e-003
9.439919e-003
9.439920e-003
9.439921e-003
9.439922e-003
9.439922e-003
9.439923e-003
9.439923e-003
9.439923e-003
9.439924e-003
9.439924e-003
9.439924e-003
9.439924e-003
9.439924e-003
9.439924e-003
9.439924e-003
9.439923e-003
9.439923e-003
9.439923e-003
9.439922e-003
9.439922e-003
9.439921e-003
9.439920e-003
9.439919e-003
9.439919e-003
9.439918e-003
9.439917e-003
9.439917e-003
9.439917e-003
9.439918e-003
9.439918e-003
9.439919e-003
9.439920e-003
9.439921e-003
9.439922e-003
9.439922e-003
9.439923e-003
9.439922e-003
9.439921e-003
9.439920e-003
9.439919e-003
9.439919e-003
9.439918e-003
9.439918e-003
9.439918e-003
9.439919e-003
9.439921e-003
9.439922e-003
9.439922e-003
9.439921e-003
9.439920e-003
9.439918e-003
9.439918e-003
9.439919e-003
9.439920e-003
9.439921e-003
9.439921e-003
9.439921e-003
9.439920e-003
9.439920e-003
9.439920e-003
9.439920e-003
9.439920e-003
9.439917e-003
9.439918e-003
9.439920e-003
9.439921e-003
9.439921e-003
9.439921e-003
9.439920e-003
9.439919e-003
9.439919e-003
9.439920e-003
9.439921e-003
9.439921e-003
9.439920e-003
9.439920e-003
9.439919e-003
9.439919e-003
9.439920e-003
9.439920e-003
9.439921e-003
9.439921e-003
9.439921e-003
9.439920e-003
9.439920e-003
9.439920e-003
9.439920e-003
9.439919e-003
9.439919e-003
9.439919e-003
9.439919e-003
9.439920e-003
9.439920e-003
9.439921e-003
9.439921e-003
9.439921e-003
9.439921e-003
9.439921e-003
9.439921e-003
9.439921e-003
9.439921e-003
9.439920e-003
9.439920e-003
9.439920e-003
9.439920e-003
9.439919e-003
9.439919e-003
9.439919e-003
9.439919e-003
9.439919e-003
9.439919e-003
9.439919e-003
9.439919e-003
9.439919e-003
9.439919e-003
9.439919e-003
9.439919e-003
9.439920e-003
9.439920e-003
9.439920e-003
9.439920e-003
9.439921e-003
9.439921e-003
9.439921e-003
9.439921e-003
9.439921e-003
9.439921e-003
9.439921e-003
9.439921e-003
9.439921e-003
9.439920e-003
9.439920e-003
9.439919e-003
9.439919e-003
9.439919e-003
9.439919e-003
9.439920e-003
9.439920e-003
9.439920e-003
9.439920e-003
9.439921e-003
9.439921e-003
9.439920e-003
9.439920e-003
9.439920e-003
9.439920e-003
9.439920e-003
9.439920e-003
9.439920e-003
9.439920e-003
9.439920e-003
9.439920e-003
9.439920e-003
9.439920e-003
9.439920e-003
9.439920e-003
9.439920e-003
9.439920e-003
9.439920e-003
9.439920e-003
9.439920e-003
9.439920e-003
9.439938e-003
9.439932e-003
9.439922e-003
9.439915e-003
9.439912e-003
9.439914e-003
9.439920e-003
9.439924e-003
9.439926e-003
9.439925e-003
9.439921e-003
9.439918e-003
9.439916e-003
9.439916e-003
9.439917e-003
9.439919e-003
9.439921e-003
9.439923e-003
9.439924e-003
9.439924e-003
9.439923e-003
9.439921e-003
9.439919e-003
9.439917e-003
9.439916e-003
9.439916e-003
9.439916e-003
9.439918e-003
9.439919e-003
9.439921e-003
9.439922e-003
9.439923e-003
9.439924e-003
9.439924e-003
9.439924e-003
9.439924e-003
9.439923e-003
9.439922e-003
9.439921e-003
9.439920e-003
9.439919e-003
9.439919e-003
9.439918e-003
9.439918e-003
9.439917e-003
9.439917e-003
9.439917e-003
9.439917e-003
9.439916e-003
9.439916e-003
9.439917e-003
9.439917e-003
9.439917e-003
9.439917e-003
9.439917e-003
9.439918e-003
9.439918e-003
9.439919e-003
9.439920e-003
9.439920e-003
9.439921e-003
9.439922e-003
9.439923e-003
9.439923e-003
9.439924e-003
9.439924e-003
9.439923e-003
9.439922e-003
9.439921e-003
9.439920e-003
9.439919e-003
9.439918e-003
9.439917e-003
9.439917e-003
9.439918e-003
9.439918e-003
9.439920e-003
9.439921e-003
9.439922e-003
9.439922e-003
9.439922e-003
9.439921e-003
9.439920e-003
9.439919e-003
9.439918e-003
9.439918e-003
9.439919e-003
9.439920e-003
9.439921e-003
9.439922e-003
9.439921e-003
9.439920e-003
9.439919e-003
9.439919e-003
9.439919e-003
9.439920e-003
9.439921e-003
9.439921e-003
9.439920e-003
9.439920e-003
9.439944e-003
9.439935e-003
9.439923e-003
9.439913e-003
9.439910e-003
9.439913e-003
9.439920e-003
9.439926e-003
9.439927e-003
9.439925e-003
9.439920e-003
9.439916e-003
9.439915e-003
9.439916e-003
9.439919e-003
9.439921e-003
9.439922e-003
9.439922e-003
9.439922e-003
9.439922e-003
9.439921e-003
9.439920e-003
9.439919e-003
9.439918e-003
9.439917e-003
9.439918e-003
9.439919e-003
9.439920e-003
9.439920e-003
9.439921e-003
9.439922e-003
9.439922e-003
9.439922e-003
9.439922e-003
9.439922e-003
9.439921e-003
9.439921e-003
9.439921e-003
9.439921e-003
9.439920e-003
9.439920e-003
9.439920e-003
9.439920e-003
9.439921e-003
9.439921e-003
9.439921e-003
9.439921e-003
9.439921e-003
9.439921e-003
9.439921e-003
9.439921e-003
9.439921e-003
9.439921e-003
9.439921e-003
9.439921e-003
9.439920e-003
9.439920e-003
9.439920e-003
9.439920e-003
9.439920e-003
9.439921e-003
9.439921e-003
9.439921e-003
9.439921e-003
9.439922e-003
9.439922e-003
9.439922e-003
9.439922e-003
9.439921e-003
9.439921e-003
9.439920e-003
9.439919e-003
9.439919e-003
9.439918e-003
9.439918e-003
9.439919e-003
9.439919e-003
9.439920e-003
9.439921e-003
9.439921e-003
9.439922e-003
9.439922e-003
9.439921e-003
9.439919e-003
9.439918e-003
9.439918e-003
9.439918e-003
9.439920e-003
9.439921e-003
9.439922e-003
9.439921e-003
9.439920e-003
9.439919e-003
9.439919e-003
9.439919e-003
9.439920e-003
9.439920e-003
9.439920e-003
9.439920e-003
9.439920e-003
9.439930e-003
9.439926e-003
9.439921e-003
9.439917e-003
9.439916e-003
9.439918e-003
9.439921e-003
9.439923e-003
9.439922e-003
9.439920e-003
9.439918e-003
9.439917e-003
9.439919e-003
9.439921e-003
9.439923e-003
9.439923e-003
9.439921e-003
9.439919e-003
9.439918e-003
9.439918e-003
9.439918e-003
9.439919e-003
9.439920e-003
9.439921e-003
9.439922e-003
9.439923e-003
9.439923e-003
9.439923e-003
9.439922e-003
9.439921e-003
9.439920e-003
9.439919e-003
9.439918e-003
9.439918e-003
9.439918e-003
9.439918e-003
9.439919e-003
9.439920e-003
9.439921e-003
9.439922e-003
9.439923e-003
9.439924e-003
9.439925e-003
9.439926e-003
9.439927e-003
9.439928e-003
9.439928e-003
9.439928e-003
9.439929e-003
9.439929e-003
9.439928e-003
9.439928e-003
9.439928e-003
9.439927e-003
9.439927e-003
9.439926e-003
9.439925e-003
9.439924e-003
9.439923e-003
9.439922e-003
9.439921e-003
9.439920e-003
9.439919e-003
9.439919e-003
9.439918e-003
9.439918e-003
9.439919e-003
9.439919e-003
9.439920e-003
9.439921e-003
9.439922e-003
9.439922e-003
9.439922e-003
9.439922e-003
9.439921e-003
9.439921e-003
9.439920e-003
9.439919e-003
9.439918e-003
9.439918e-003
9.439919e-003
9.439920e-003
9.439921e-003
9.439921e-003
9.439920e-003
9.439920e-003
9.439920e-003
9.439920e-003
9.439920e-003
9.439920e-003
9.439920e-003
9.439920e-003
9.439920e-003
9.439920e-003
9.439920e-003
9.439920e-003
9.439920e-003
9.439920e-003
9.439920e-003
9.439920e-003
9.439907e-003
9.439912e-003
9.439918e-003
9.439924e-003
9.439926e-003
9.439924e-003
9.439921e-003
9.439917e-003
9.439916e-003
9.439916e-003
9.439918e-003
9.439921e-003
9.439923e-003
9.439925e-003
9.439924e-003
9.439922e-003
9.439919e-003
9.439916e-003
9.439915e-003
9.439916e-003
9.439918e-003
9.439920e-003
9.439922e-003
9.439923e-003
9.439924e-003
9.439924e-003
9.439924e-003
9.439923e-003
9.439921e-003
9.439920e-003
9.439919e-003
9.439918e-003
9.439918e-003
9.439918e-003
9.439919e-003
9.439920e-003
9.439922e-003
9.439923e-003
9.439925e-003
9.439926e-003
9.439928e-003
9.439929e-003
9.439930e-003
9.439930e-003
9.439931e-003
9.439932e-003
9.439932e-003
9.439932e-003
9.439932e-003
9.439932e-003
9.439932e-003
9.439932e-003
9.439931e-003
9.439931e-003
9.439930e-003
9.439930e-003
9.439929e-003
9.439928e-003
9.439927e-003
9.439926e-003
9.439924e-003
9.439923e-003
9.439921e-003
9.439920e-003
9.439919e-003
9.439919e-003
9.439918e-003
9.439919e-003
9.439919e-003
9.439920e-003
9.439921e-003
9.439922e-003
9.439923e-003
9.439923e-003
9.439923e-003
9.439922e-003
9.439921e-003
9.439919e-003
9.439918e-003
9.439917e-003
9.439918e-003
9.439919e-003
9.439920e-003
9.439921e-003
9.439922e-003
9.439922e-003
9.439921e-003
9.439920e-003
9.439919e-003
9.439918e-003
9.439918e-003
9.439920e-003
9.439921e-003
9.439922e-003
9.439921e-003
9.439920e-003
9.439919e-003
9.439919e-003
9.439920e-003
9.439921e-003
9.439894e-003
9.439904e-003
9.439917e-003
9.439928e-003
9.439931e-003
9.439927e-003
9.439919e-003
9.439914e-003
9.439913e-003
9.439916e-003
9.439920e-003
9.439923e-003
9.439924e-003
9.439923e-003
9.439921e-003
9.439919e-003
9.439918e-003
9.439917e-003
9.439918e-003
9.439919e-003
9.439920e-003
9.439922e-003
9.439922e-003
9.439922e-003
9.439921e-003
9.439921e-003
9.439920e-003
9.439920e-003
9.439920e-003
9.439920e-003
9.439921e-003
9.439922e-003
9.439924e-003
9.439925e-003
9.439926e-003
9.439928e-003
9.439929e-003
9.439930e-003
9.439931e-003
9.439931e-003
9.439932e-003
9.439932e-003
9.439932e-003
9.439932e-003
9.439933e-003
9.439933e-003
9.439933e-003
9.439933e-003
9.439933e-003
9.439933e-003
9.439933e-003
9.439932e-003
9.439932e-003
9.439932e-003
9.439932e-003
9.439932e-003
9.439931e-003
9.439931e-003
9.439931e-003
9.439930e-003
9.439929e-003
9.439929e-003
9.439928e-003
9.439927e-003
9.439925e-003
9.439924e-003
9.439923e-003
9.439921e-003
9.439921e-003
9.439920e-003
9.439920e-003
9.439920e-003
9.439920e-003
9.439921e-003
9.439921e-003
9.439922e-003
9.439921e-003
9.439921e-003
9.439920e-003
9.439919e-003
9.439919e-003
9.439919e-003
9.439919e-003
9.439920e-003
9.439921e-003
9.439922e-003
9.439922e-003
9.439921e-003
9.439919e-003
9.439918e-003
9.439918e-003
9.439920e-003
9.439921e-003
9.439922e-003
9.439921e-003
9.439920e-003
9.439919e-003
9.439919e-003
9.439920e-003
9.439921e-003
9.439901e-003
9.439908e-003
9.439919e-003
9.439926e-003
9.439927e-003
9.439923e-003
9.439918e-003
9.439915e-003
9.439917e-003
9.439921e-003
9.439924e-003
9.439924e-003
9.439921e-003
9.439918e-003
9.439916e-003
9.439917e-003
9.439919e-003
9.439921e-003
9.439923e-003
9.439924e-003
9.439923e-003
9.439922e-003
9.439921e-003
9.439919e-003
9.439918e-003
9.439917e-003
9.439917e-003
9.439919e-003
9.439921e-003
9.439923e-003
9.439926e-003
9.439928e-003
9.439931e-003
9.439932e-003
9.439934e-003
9.439935e-003
9.439935e-003
9.439936e-003
9.439936e-003
9.439936e-003
9.439936e-003
9.439936e-003
9.439936e-003
9.439936e-003
9.439937e-003
9.439937e-003
9.439937e-003
9.439937e-003
9.439937e-003
9.439937e-003
9.439937e-003
9.439936e-003
9.439936e-003
9.439936e-003
9.439936e-003
9.439936e-003
9.439935e-003
9.439935e-003
9.439935e-003
9.439935e-003
9.439934e-003
9.439934e-003
9.439933e-003
9.439933e-003
9.439932e-003
9.439930e-003
9.439928e-003
9.439926e-003
9.439924e-003
9.439922e-003
9.439920e-003
9.439919e-003
9.439918e-003
9.439918e-003
9.439919e-003
9.439920e-003
9.439921e-003
9.439922e-003
9.439922e-003
9.439922e-003
9.439921e-003
9.439920e-003
9.439919e-003
9.439918e-003
9.439919e-003
9.439920e-003
9.439921e-003
9.439921e-003
9.439920e-003
9.439920e-003
9.439919e-003
9.439920e-003
9.439920e-003
9.439920e-003
9.439920e-003
9.439920e-003
9.439920e-003
9.439920e-003
9.439920e-003
9.439920e-003
9.439923e-003
9.439922e-003
9.439921e-003
9.439920e-003
9.439918e-003
9.439917e-003
9.439917e-003
9.439919e-003
9.439922e-003
9.439924e-003
9.439924e-003
9.439921e-003
9.439917e-003
9.439914e-003
9.439914e-003
9.439917e-003
9.439922e-003
9.439925e-003
9.439925e-003
9.439924e-003
9.439922e-003
9.439920e-003
9.439919e-003
9.439918e-003
9.439918e-003
9.439919e-003
9.439920e-003
9.439923e-003
9.439926e-003
9.439929e-003
9.439931e-003
9.439933e-003
9.439935e-003
9.439936e-003
9.439938e-003
9.439939e-003
9.439939e-003
9.439940e-003
9.439941e-003
9.439941e-003
9.439942e-003
9.439942e-003
9.439943e-003
9.439943e-003
9.439943e-003
9.439942e-003
9.439942e-003
9.439942e-003
9.439942e-003
9.439942e-003
9.439942e-003
9.439942e-003
9.439942e-003
9.439941e-003
9.439941e-003
9.439941e-003
9.439941e-003
9.439941e-003
9.439940e-003
9.439939e-003
9.439939e-003
9.439938e-003
9.439937e-003
9.439936e-003
9.439935e-003
9.439933e-003
9.439932e-003
9.439930e-003
9.439928e-003
9.439926e-003
9.439924e-003
9.439922e-003
9.439920e-003
9.439919e-003
9.439918e-003
9.439919e-003
9.439919e-003
9.439921e-003
9.439922e-003
9.439923e-003
9.439923e-003
9.439921e-003
9.439919e-003
9.439918e-003
9.439918e-003
9.439918e-003
9.439919e-003
9.439920e-003
9.439921e-003
9.439922e-003
9.439921e-003
9.439920e-003
9.439919e-003
9.439919e-003
9.439919e-003
9.439920e-003
9.439921e-003
9.439921e-003
9.439920e-003
9.439919e-003
9.439942e-003
9.439934e-003
9.439923e-003
9.439914e-003
9.439911e-003
9.439914e-003
9.439920e-003
9.439924e-003
9.439925e-003
9.439924e-003
9.439921e-003
9.439918e-003
9.439916e-003
9.439916e-003
9.439918e-003
9.439921e-003
9.439923e-003
9.439924e-003
9.439922e-003
9.439920e-003
9.439918e-003
9.439918e-003
9.439919e-003
9.439921e-003
9.439924e-003
9.439926e-003
9.439928e-003
9.439930e-003
9.439932e-003
9.439934e-003
9.439935e-003
9.439936e-003
9.439937e-003
9.439939e-003
9.439940e-003
9.439941e-003
9.439942e-003
9.439943e-003
9.439942e-003
9.439942e-003
9.439940e-003
9.439938e-003
9.439936e-003
9.439933e-003
9.439929e-003
9.439926e-003
9.439924e-003
9.439922e-003
9.439920e-003
9.439920e-003
9.439920e-003
9.439921e-003
9.439923e-003
9.439926e-003
9.439929e-003
9.439932e-003
9.439934e-003
9.439937e-003
9.439939e-003
9.439940e-003
9.439940e-003
9.439940e-003
9.439939e-003
9.439938e-003
9.439937e-003
9.439936e-003
9.439934e-003
9.439933e-003
9.439932e-003
9.439931e-003
9.439929e-003
9.439927e-003
9.439926e-003
9.439924e-003
9.439922e-003
9.439920e-003
9.439919e-003
9.439919e-003
9.439920e-003
9.439921e-003
9.439922e-003
9.439921e-003
9.439921e-003
9.439920e-003
9.439919e-003
9.439918e-003
9.439918e-003
9.439919e-003
9.439921e-003
9.439922e-003
9.439922e-003
9.439921e-003
9.439919e-003
9.439918e-003
9.439918e-003
9.439920e-003
9.439922e-003
9.439922e-003
9.439920e-003
9.439918e-003
9.439946e-003
9.439936e-003
9.439921e-003
9.439911e-003
9.439910e-003
9.439917e-003
9.439924e-003
9.439926e-003
9.439924e-003
9.439919e-003
9.439915e-003
9.439916e-003
9.439919e-003
9.439923e-003
9.439924e-003
9.439924e-003
9.439922e-003
9.439919e-003
9.439917e-003
9.439916e-003
9.439917e-003
9.439919e-003
9.439923e-003
9.439927e-003
9.439930e-003
9.439933e-003
9.439935e-003
9.439936e-003
9.439937e-003
9.439939e-003
9.439940e-003
9.439941e-003
9.439942e-003
9.439942e-003
9.439942e-003
9.439940e-003
9.439936e-003
9.439930e-003
9.439922e-003
9.439912e-003
9.439899e-003
9.439885e-003
9.439870e-003
9.439855e-003
9.439840e-003
9.439827e-003
9.439816e-003
9.439808e-003
9.439803e-003
9.439802e-003
9.439804e-003
9.439810e-003
9.439819e-003
9.439830e-003
9.439844e-003
9.439858e-003
9.439873e-003
9.439888e-003
9.439901e-003
9.439913e-003
9.439922e-003
9.439930e-003
9.439935e-003
9.439938e-003
9.439939e-003
9.439939e-003
9.439938e-003
9.439937e-003
9.439936e-003
9.439935e-003
9.439933e-003
9.439932e-003
9.439931e-003
9.439929e-003
9.439926e-003
9.439924e-003
9.439921e-003
9.439919e-003
9.439918e-003
9.439918e-003
9.439919e-003
9.439920e-003
9.439922e-003
9.439922e-003
9.439922e-003
9.439920e-003
9.439919e-003
9.439918e-003
9.439919e-003
9.439921e-003
9.439922e-003
9.439921e-003
9.439919e-003
9.439918e-003
9.439919e-003
9.439920e-003
9.439922e-003
9.439921e-003
9.439920e-003
9.439919e-003
9.439933e-003
9.439926e-003
9.439918e-003
9.439914e-003
9.439916e-003
9.439922e-003
9.439926e-003
9.439924e-003
9.439919e-003
9.439914e-003
9.439913e-003
9.439917e-003
9.439923e-003
9.439927e-003
9.439926e-003
9.439923e-003
9.439918e-003
9.439916e-003
9.439916e-003
9.439918e-003
9.439921e-003
9.439925e-003
9.439928e-003
9.439932e-003
9.439934e-003
9.439936e-003
9.439938e-003
9.439940e-003
9.439942e-003
9.439944e-003
9.439945e-003
9.439945e-003
9.439942e-003
9.439935e-003
9.439924e-003
9.439908e-003
9.439885e-003
9.439856e-003
9.439821e-003
9.439781e-003
9.439736e-003
9.439688e-003
9.439640e-003
9.439592e-003
9.439548e-003
9.439509e-003
9.439477e-003
9.439453e-003
9.439439e-003
9.439436e-003
9.439443e-003
9.439461e-003
9.439488e-003
9.439523e-003
9.439564e-003
9.439610e-003
9.439658e-003
9.439706e-003
9.439752e-003
9.439795e-003
9.439833e-003
9.439866e-003
9.439892e-003
9.439911e-003
9.439925e-003
9.439934e-003
9.439939e-003
9.439941e-003
9.439940e-003
9.439939e-003
9.439937e-003
9.439935e-003
9.439933e-003
9.439932e-003
9.439930e-003
9.439927e-003
9.439925e-003
9.439922e-003
9.439920e-003
9.439918e-003
9.439918e-003
9.439919e-003
9.439921e-003
9.439922e-003
9.439923e-003
9.439922e-003
9.439920e-003
9.439919e-003
9.439918e-003
9.439919e-003
9.439920e-003
9.439921e-003
9.439921e-003
9.439920e-003
9.439920e-003
9.439920e-003
9.439920e-003
9.439920e-003
9.439920e-003
9.439920e-003
9.439912e-003
9.439914e-003
9.439917e-003
9.439921e-003
9.439924e-003
9.439925e-003
9.439923e-003
9.439920e-003
9.439916e-003
9.439915e-003
9.439917e-003
9.439921e-003
9.439925e-003
9.439925e-003
9.439922e-003
9.439919e-003
9.439916e-003
9.439917e-003
9.439921e-003
9.439925e-003
9.439929e-003
9.439931e-003
9.439933e-003
9.439934e-003
9.439936e-003
9.439938e-003
9.439941e-003
9.439944e-003
9.439946e-003
9.439945e-003
9.439940e-003
9.439928e-003
9.439906e-003
9.439874e-003
9.439828e-003
9.439768e-003
9.439693e-003
9.439603e-003
9.439500e-003
9.439384e-003
9.439261e-003
9.439132e-003
9.439003e-003
9.438879e-003
9.438764e-003
9.438664e-003
9.438582e-003
9.438523e-003
9.438488e-003
9.438480e-003
9.438500e-003
9.438545e-003
9.438615e-003
9.438706e-003
9.438813e-003
9.438933e-003
9.439061e-003
9.439191e-003
9.439318e-003
9.439438e-003
9.439548e-003
9.439645e-003
9.439728e-003
9.439795e-003
9.439847e-003
9.439886e-003
9.439912e-003
9.439929e-003
9.439937e-003
9.439941e-003
9.439940e-003
9.439938e-003
9.439936e-003
9.439933e-003
9.439931e-003
9.439930e-003
9.439929e-003
9.439927e-003
9.439924e-003
9.439922e-003
9.439920e-003
9.439919e-003
9.439919e-003
9.439920e-003
9.439921e-003
9.439922e-003
9.439921e-003
9.439920e-003
9.439919e-003
9.439918e-003
9.439919e-003
9.439920e-003
9.439921e-003
9.439922e-003
9.439921e-003
9.439920e-003
9.439918e-003
9.439919e-003
9.439920e-003
9.439921e-003
9.439897e-003
9.439906e-003
9.439918e-003
9.439927e-003
9.439928e-003
9.439923e-003
9.439918e-003
9.439915e-003
9.439916e-003
9.439920e-003
9.439923e-003
9.439924e-003
9.439922e-003
9.439919e-003
9.439917e-003
9.439916e-003
9.439918e-003
9.439923e-003
9.439928e-003
9.439932e-003
9.439934e-003
9.439935e-003
9.439936e-003
9.439937e-003
9.439941e-003
9.439944e-003
9.439947e-003
9.439946e-003
9.439938e-003
9.439919e-003
9.439887e-003
9.439835e-003
9.439759e-003
9.439656e-003
9.439521e-003
9.439353e-003
9.439151e-003
9.438916e-003
9.438650e-003
9.438361e-003
9.438054e-003
9.437738e-003
9.437425e-003
9.437125e-003
9.436850e-003
9.436611e-003
9.436417e-003
9.436276e-003
9.436195e-003
9.436178e-003
9.436224e-003
9.436333e-003
9.436500e-003
9.436718e-003
9.436977e-003
9.437267e-003
9.437578e-003
9.437896e-003
9.438211e-003
9.438512e-003
9.438792e-003
9.439043e-003
9.439262e-003
9.439446e-003
9.439595e-003
9.439711e-003
9.439798e-003
9.439859e-003
9.439900e-003
9.439924e-003
9.439936e-003
9.439941e-003
9.439940e-003
9.439938e-003
9.439935e-003
9.439933e-003
9.439931e-003
9.439930e-003
9.439928e-003
9.439926e-003
9.439923e-003
9.439921e-003
9.439919e-003
9.439918e-003
9.439919e-003
9.439920e-003
9.439922e-003
9.439922e-003
9.439921e-003
9.439919e-003
9.439918e-003
9.439919e-003
9.439921e-003
9.439922e-003
9.439922e-003
9.439919e-003
9.439918e-003
9.439918e-003
9.439920e-003
9.439922e-003
9.439896e-003
9.439908e-003
9.439922e-003
9.439930e-003
9.439927e-003
9.439919e-003
9.439913e-003
9.439913e-003
9.439920e-003
9.439926e-003
9.439927e-003
9.439924e-003
9.439918e-003
9.439915e-003
9.439915e-003
9.439919e-003
9.439924e-003
9.439929e-003
9.439932e-003
9.439934e-003
9.439936e-003
9.439938e-003
9.439941e-003
9.439945e-003
9.439949e-003
9.439949e-003
9.439941e-003
9.439919e-003
9.439876e-003
9.439806e-003
9.439699e-003
9.439546e-003
9.439337e-003
9.439064e-003
9.438720e-003
9.438302e-003
9.437809e-003
9.437244e-003
9.436615e-003
9.435936e-003
9.435223e-003
9.434498e-003
9.433783e-003
9.433103e-003
9.432482e-003
9.431945e-003
9.431512e-003
9.431200e-003
9.431021e-003
9.430984e-003
9.431089e-003
9.431334e-003
9.431708e-003
9.432197e-003
9.432782e-003
9.433441e-003
9.434149e-003
9.434879e-003
9.435609e-003
9.436313e-003
9.436974e-003
9.437574e-003
9.438103e-003
9.438556e-003
9.438932e-003
9.439233e-003
9.439466e-003
9.439639e-003
9.439762e-003
9.439844e-003
9.439896e-003
9.439925e-003
9.439938e-003
9.439942e-003
9.439941e-003
9.439938e-003
9.439935e-003
9.439932e-003
9.439930e-003
9.439929e-003
9.439927e-003
9.439924e-003
9.439921e-003
9.439918e-003
9.439917e-003
9.439918e-003
9.439921e-003
9.439923e-003
9.439923e-003
9.439920e-003
9.439918e-003
9.439918e-003
9.439920e-003
9.439921e-003
9.439922e-003
9.439920e-003
9.439918e-003
9.439918e-003
9.439920e-003
9.439922e-003
9.439907e-003
9.439915e-003
9.439925e-003
9.439928e-003
9.439923e-003
9.439915e-003
9.439912e-003
9.439916e-003
9.439923e-003
9.439928e-003
9.439926e-003
9.439920e-003
9.439915e-003
9.439915e-003
9.439920e-003
9.439926e-003
9.439931e-003
9.439933e-003
9.439933e-003
9.439934e-003
9.439938e-003
9.439943e-003
9.439949e-003
9.439952e-003
9.439947e-003
9.439927e-003
9.439883e-003
9.439802e-003
9.439672e-003
9.439475e-003
9.439193e-003
9.438805e-003
9.438294e-003
9.437640e-003
9.436832e-003
9.435864e-003
9.434737e-003
9.433463e-003
9.432063e-003
9.430566e-003
9.429012e-003
9.427445e-003
9.425914e-003
9.424470e-003
9.423163e-003
9.422038e-003
9.421136e-003
9.420489e-003
9.420121e-003
9.420047e-003
9.420269e-003
9.420780e-003
9.421562e-003
9.422588e-003
9.423821e-003
9.425217e-003
9.426728e-003
9.428301e-003
9.429885e-003
9.431430e-003
9.432894e-003
9.434240e-003
9.435442e-003
9.436484e-003
9.437360e-003
9.438075e-003
9.438638e-003
9.439068e-003
9.439383e-003
9.439606e-003
9.439755e-003
9.439849e-003
9.439903e-003
9.439931e-003
9.439942e-003
9.439943e-003
9.439940e-003
9.439935e-003
9.439932e-003
9.439930e-003
9.439929e-003
9.439927e-003
9.439925e-003
9.439921e-003
9.439919e-003
9.439918e-003
9.439919e-003
9.439922e-003
9.439922e-003
9.439922e-003
9.439920e-003
9.439919e-003
9.439919e-003
9.439920e-003
9.439921e-003
9.439921e-003
9.439920e-003
9.439920e-003
9.439920e-003
9.439920e-003
9.439922e-003
9.439923e-003
9.439924e-003
9.439922e-003
9.439918e-003
9.439915e-003
9.439916e-003
9.439921e-003
9.439924e-003
9.439925e-003
9.439921e-003
9.439917e-003
9.439916e-003
9.439920e-003
9.439927e-003
9.439933e-003
9.439934e-003
9.439934e-003
9.439934e-003
9.439938e-003
9.439946e-003
9.439952e-003
9.439953e-003
9.439939e-003
9.439901e-003
9.439823e-003
9.439688e-003
9.439469e-003
9.439137e-003
9.438655e-003
9.437984e-003
9.437084e-003
9.435917e-003
9.434451e-003
9.432666e-003
9.430558e-003
9.428139e-003
9.425443e-003
9.422519e-003
9.419436e-003
9.416278e-003
9.413135e-003
9.410103e-003
9.407277e-003
9.404745e-003
9.402587e-003
9.400871e-003
9.399650e-003
9.398963e-003
9.398830e-003
9.399258e-003
9.400234e-003
9.401730e-003
9.403700e-003
9.406084e-003
9.408807e-003
9.411784e-003
9.414921e-003
9.418117e-003
9.421278e-003
9.424311e-003
9.427139e-003
9.429701e-003
9.431953e-003
9.433876e-003
9.435466e-003
9.436741e-003
9.437729e-003
9.438470e-003
9.439005e-003
9.439377e-003
9.439623e-003
9.439778e-003
9.439869e-003
9.439917e-003
9.439939e-003
9.439944e-003
9.439941e-003
9.439936e-003
9.439932e-003
9.439930e-003
9.439929e-003
9.439928e-003
9.439925e-003
9.439922e-003
9.439920e-003
9.439919e-003
9.439919e-003
9.439921e-003
9.439921e-003
9.439921e-003
9.439920e-003
9.439919e-003
9.439919e-003
9.439919e-003
9.439921e-003
9.439922e-003
9.439921e-003
9.439920e-003
9.439919e-003
9.439935e-003
9.439928e-003
9.439920e-003
9.439914e-003
9.439915e-003
9.439919e-003
9.439924e-003
9.439925e-003
9.439923e-003
9.439918e-003
9.439916e-003
9.439917e-003
9.439921e-003
9.439927e-003
9.439933e-003
9.439935e-003
9.439935e-003
9.439937e-003
9.439941e-003
9.439949e-003
9.439955e-003
9.439951e-003
9.439926e-003
9.439864e-003
9.439742e-003
9.439532e-003
9.439191e-003
9.438667e-003
9.437894e-003
9.436800e-003
9.435307e-003
9.433339e-003
9.430830e-003
9.427732e-003
9.424024e-003
9.419720e-003
9.414873e-003
9.409570e-003
9.403935e-003
9.398116e-003
9.392280e-003
9.386596e-003
9.381229e-003
9.376329e-003
9.372026e-003
9.368426e-003
9.365612e-003
9.363642e-003
9.362556e-003
9.362372e-003
9.363094e-003
9.364710e-003
9.367188e-003
9.370481e-003
9.374517e-003
9.379202e-003
9.384419e-003
9.390025e-003
9.395859e-003
9.401751e-003
9.407526e-003
9.413023e-003
9.418101e-003
9.422653e-003
9.426609e-003
9.429940e-003
9.432657e-003
9.434800e-003
9.436434e-003
9.437636e-003
9.438489e-003
9.439070e-003
9.439450e-003
9.439686e-003
9.439824e-003
9.439898e-003
9.439933e-003
9.439943e-003
9.439943e-003
9.439938e-003
9.439933e-003
9.439930e-003
9.439929e-003
9.439928e-003
9.439926e-003
9.439923e-003
9.439920e-003
9.439918e-003
9.439918e-003
9.439920e-003
9.439922e-003
9.439922e-003
9.439920e-003
9.439918e-003
9.439918e-003
9.439920e-003
9.439922e-003
9.439922e-003
9.439920e-003
9.439918e-003
9.439941e-003
9.439929e-003
9.439916e-003
9.439910e-003
9.439914e-003
9.439923e-003
9.439929e-003
9.439926e-003
9.439919e-003
9.439914e-003
9.439915e-003
9.439921e-003
9.439928e-003
9.439933e-003
9.439934e-003
9.439934e-003
9.439937e-003
9.439944e-003
9.439953e-003
9.439958e-003
9.439949e-003
9.439910e-003
9.439820e-003
9.439646e-003
9.439342e-003
9.438844e-003
9.438064e-003
9.436894e-003
9.435208e-003
9.432865e-003
9.429727e-003
9.425668e-003
9.420593e-003
9.414460e-003
9.407290e-003
9.399183e-003
9.390312e-003
9.380919e-003
9.371293e-003
9.361745e-003
9.352580e-003
9.344069e-003
9.336432e-003
9.329822e-003
9.324327e-003
9.319976e-003
9.316754e-003
9.314624e-003
9.313539e-003
9.313463e-003
9.314382e-003
9.316302e-003
9.319250e-003
9.323263e-003
9.328364e-003
9.334553e-003
9.341780e-003
9.349932e-003
9.358833e-003
9.368237e-003
9.377856e-003
9.387373e-003
9.396481e-003
9.404909e-003
9.412444e-003
9.418953e-003
9.424384e-003
9.428758e-003
9.432159e-003
9.434710e-003
9.436553e-003
9.437836e-003
9.438693e-003
9.439243e-003
9.439579e-003
9.439773e-003
9.439877e-003
9.439926e-003
9.439943e-003
9.439945e-003
9.439940e-003
9.439934e-003
9.439930e-003
9.439928e-003
9.439928e-003
9.439926e-003