# vtk DataFile Version 3.0
vtk output
ASCII
DATASET STRUCTURED_POINTS
DIMENSIONS 100 100 1
SPACING 1 1 1
ORIGIN 0 0 0
POINT_DATA 10000
SCALARS SFBox_profile double
LOOKUP_TABLE default 
9.439922e-003
9.439921e-003
9.439919e-003
9.439918e-003
9.439919e-003
9.439920e-003
9.439921e-003
9.439921e-003
9.439921e-003
9.439920e-003
9.439920e-003
9.439919e-003
9.439919e-003
9.439920e-003
9.439920e-003
9.439920e-003
9.439920e-003
9.439920e-003
9.439921e-003
9.439921e-003
9.439921e-003
9.439920e-003
9.439920e-003
9.439920e-003
9.439920e-003
9.439919e-003
9.439919e-003
9.439919e-003
9.439919e-003
9.439920e-003
9.439920e-003
9.439920e-003
9.439920e-003
9.439920e-003
9.439921e-003
9.439921e-003
9.439921e-003
9.439921e-003
9.439922e-003
9.439922e-003
9.439922e-003
9.439922e-003
9.439922e-003
9.439922e-003
9.439922e-003
9.439922e-003
9.439922e-003
9.439922e-003
9.439922e-003
9.439922e-003
9.439922e-003
9.439922e-003
9.439922e-003
9.439922e-003
9.439922e-003
9.439922e-003
9.439922e-003
9.439922e-003
9.439922e-003
9.439922e-003
9.439922e-003
9.439922e-003
9.439921e-003
9.439921e-003
9.439921e-003
9.439921e-003
9.439921e-003
9.439921e-003
9.439920e-003
9.439920e-003
9.439920e-003
9.439920e-003
9.439919e-003
9.439919e-003
9.439920e-003
9.439920e-003
9.439920e-003
9.439920e-003
9.439920e-003
9.439920e-003
9.439921e-003
9.439921e-003
9.439920e-003
9.439920e-003
9.439920e-003
9.439920e-003
9.439920e-003
9.439920e-003
9.439920e-003
9.439920e-003
9.439920e-003
9.439920e-003
9.439921e-003
9.439920e-003
9.439920e-003
9.439919e-003
9.439919e-003
9.439920e-003
9.439920e-003
9.439921e-003
9.439922e-003
9.439921e-003
9.439919e-003
9.439918e-003
9.439919e-003
9.439920e-003
9.439921e-003
9.439921e-003
9.439921e-003
9.439920e-003
9.439920e-003
9.439919e-003
9.439919e-003
9.439920e-003
9.439920e-003
9.439920e-003
9.439920e-003
9.439920e-003
9.439921e-003
9.439921e-003
9.439921e-003
9.439920e-003
9.439920e-003
9.439920e-003
9.439920e-003
9.439919e-003
9.439919e-003
9.439919e-003
9.439919e-003
9.439920e-003
9.439920e-003
9.439920e-003
9.439920e-003
9.439920e-003
9.439921e-003
9.439921e-003
9.439921e-003
9.439921e-003
9.439922e-003
9.439922e-003
9.439922e-003
9.439922e-003
9.439922e-003
9.439922e-003
9.439922e-003
9.439922e-003
9.439922e-003
9.439922e-003
9.439922e-003
9.439922e-003
9.439922e-003
9.439922e-003
9.439922e-003
9.439922e-003
9.439922e-003
9.439922e-003
9.439922e-003
9.439922e-003
9.439922e-003
9.439922e-003
9.439922e-003
9.439922e-003
9.439921e-003
9.439921e-003
9.439921e-003
9.439921e-003
9.439921e-003
9.439921e-003
9.439920e-003
9.439920e-003
9.439920e-003
9.439920e-003
9.439919e-003
9.439919e-003
9.439920e-003
9.439920e-003
9.439920e-003
9.439920e-003
9.439920e-003
9.439920e-003
9.439921e-003
9.439921e-003
9.439920e-003
9.439920e-003
9.439920e-003
9.439920e-003
9.439920e-003
9.439920e-003
9.439920e-003
9.439920e-003
9.439920e-003
9.439920e-003
9.439921e-003
9.439920e-003
9.439920e-003
9.439919e-003
9.439919e-003
9.439920e-003
9.439920e-003
9.439921e-003
9.439920e-003
9.439920e-003
9.439920e-003
9.439920e-003
9.439920e-003
9.439920e-003
9.439920e-003
9.439920e-003
9.439920e-003
9.439920e-003
9.439920e-003
9.439920e-003
9.439920e-003
9.439920e-003
9.439920e-003
9.439920e-003
9.439920e-003
9.439920e-003
9.439920e-003
9.439920e-003
9.439920e-003
9.439920e-003
9.439920e-003
9.439920e-003
9.439920e-003
9.439920e-003
9.439920e-003
9.439920e-003
9.439920e-003
9.439920e-003
9.439921e-003
9.439921e-003
9.439921e-003
9.439920e-003
9.439921e-003
9.439921e-003
9.439921e-003
9.439921e-003
9.439921e-003
9.439921e-003
9.439921e-003
9.439921e-003
9.439921e-003
9.439921e-003
9.439921e-003
9.439922e-003
9.439922e-003
9.439922e-003
9.439922e-003
9.439922e-003
9.439922e-003
9.439922e-003
9.439922e-003
9.439922e-003
9.439922e-003
9.439922e-003
9.439922e-003
9.439922e-003
9.439921e-003
9.439921e-003
9.439921e-003
9.439921e-003
9.439921e-003
9.439921e-003
9.439921e-003
9.439921e-003
9.439920e-003
9.439920e-003
9.439920e-003
9.439920e-003
9.439920e-003
9.439920e-003
9.439920e-003
9.439920e-003
9.439920e-003
9.439920e-003
9.439920e-003
9.439920e-003
9.439920e-003
9.439920e-003
9.439920e-003
9.439920e-003
9.439920e-003
9.439920e-003
9.439920e-003
9.439920e-003
9.439920e-003
9.439920e-003
9.439920e-003
9.439920e-003
9.439920e-003
9.439920e-003
9.439920e-003
9.439920e-003
9.439920e-003
9.439920e-003
9.439920e-003
9.439920e-003
9.439920e-003
9.439920e-003
9.439918e-003
9.439919e-003
9.439921e-003
9.439921e-003
9.439921e-003
9.439920e-003
9.439919e-003
9.439919e-003
9.439919e-003
9.439920e-003
9.439920e-003
9.439920e-003
9.439921e-003
9.439921e-003
9.439921e-003
9.439920e-003
9.439920e-003
9.439919e-003
9.439919e-003
9.439919e-003
9.439919e-003
9.439920e-003
9.439920e-003
9.439920e-003
9.439921e-003
9.439921e-003
9.439921e-003
9.439921e-003
9.439921e-003
9.439921e-003
9.439921e-003
9.439921e-003
9.439921e-003
9.439921e-003
9.439921e-003
9.439921e-003
9.439921e-003
9.439921e-003
9.439921e-003
9.439922e-003
9.439922e-003
9.439922e-003
9.439922e-003
9.439923e-003
9.439923e-003
9.439923e-003
9.439923e-003
9.439923e-003
9.439923e-003
9.439924e-003
9.439924e-003
9.439924e-003
9.439924e-003
9.439923e-003
9.439923e-003
9.439923e-003
9.439923e-003
9.439923e-003
9.439923e-003
9.439922e-003
9.439922e-003
9.439922e-003
9.439922e-003
9.439921e-003
9.439921e-003
9.439921e-003
9.439921e-003
9.439921e-003
9.439921e-003
9.439921e-003
9.439921e-003
9.439921e-003
9.439921e-003
9.439921e-003
9.439921e-003
9.439921e-003
9.439921e-003
9.439920e-003
9.439920e-003
9.439920e-003
9.439919e-003
9.439919e-003
9.439919e-003
9.439920e-003
9.439920e-003
9.439920e-003
9.439920e-003
9.439920e-003
9.439920e-003
9.439920e-003
9.439920e-003
9.439920e-003
9.439920e-003
9.439920e-003
9.439920e-003
9.439920e-003
9.439921e-003
9.439920e-003
9.439920e-003
9.439920e-003
9.439918e-003
9.439919e-003
9.439921e-003
9.439922e-003
9.439921e-003
9.439920e-003
9.439919e-003
9.439919e-003
9.439919e-003
9.439920e-003
9.439920e-003
9.439921e-003
9.439920e-003
9.439920e-003
9.439920e-003
9.439920e-003
9.439920e-003
9.439920e-003
9.439919e-003
9.439919e-003
9.439920e-003
9.439920e-003
9.439920e-003
9.439920e-003
9.439920e-003
9.439921e-003
9.439921e-003
9.439921e-003
9.439921e-003
9.439921e-003
9.439922e-003
9.439922e-003
9.439922e-003
9.439923e-003
9.439923e-003
9.439923e-003
9.439924e-003
9.439924e-003
9.439925e-003
9.439925e-003
9.439926e-003
9.439926e-003
9.439927e-003
9.439927e-003
9.439928e-003
9.439928e-003
9.439928e-003
9.439928e-003
9.439929e-003
9.439929e-003
9.439929e-003
9.439929e-003
9.439929e-003
9.439928e-003
9.439928e-003
9.439928e-003
9.439928e-003
9.439927e-003
9.439927e-003
9.439926e-003
9.439926e-003
9.439925e-003
9.439925e-003
9.439924e-003
9.439924e-003
9.439923e-003
9.439923e-003
9.439922e-003
9.439922e-003
9.439922e-003
9.439921e-003
9.439921e-003
9.439921e-003
9.439921e-003
9.439921e-003
9.439920e-003
9.439920e-003
9.439920e-003
9.439920e-003
9.439920e-003
9.439920e-003
9.439920e-003
9.439920e-003
9.439920e-003
9.439920e-003
9.439920e-003
9.439920e-003
9.439920e-003
9.439920e-003
9.439920e-003
9.439920e-003
9.439920e-003
9.439919e-003
9.439920e-003
9.439920e-003
9.439921e-003
9.439921e-003
9.439920e-003
9.439920e-003
9.439919e-003
9.439919e-003
9.439920e-003
9.439920e-003
9.439921e-003
9.439920e-003
9.439920e-003
9.439920e-003
9.439920e-003
9.439920e-003
9.439921e-003
9.439921e-003
9.439920e-003
9.439920e-003
9.439919e-003
9.439919e-003
9.439920e-003
9.439920e-003
9.439921e-003
9.439921e-003
9.439921e-003
9.439921e-003
9.439921e-003
9.439921e-003
9.439920e-003
9.439920e-003
9.439920e-003
9.439920e-003
9.439921e-003
9.439921e-003
9.439922e-003
9.439923e-003
9.439924e-003
9.439925e-003
9.439926e-003
9.439927e-003
9.439927e-003
9.439928e-003
9.439929e-003
9.439930e-003
9.439931e-003
9.439932e-003
9.439933e-003
9.439933e-003
9.439934e-003
9.439935e-003
9.439935e-003
9.439935e-003
9.439936e-003
9.439936e-003
9.439936e-003
9.439936e-003
9.439936e-003
9.439936e-003
9.439936e-003
9.439935e-003
9.439935e-003
9.439934e-003
9.439934e-003
9.439933e-003
9.439933e-003
9.439932e-003
9.439931e-003
9.439930e-003
9.439929e-003
9.439928e-003
9.439927e-003
9.439926e-003
9.439925e-003
9.439924e-003
9.439923e-003
9.439922e-003
9.439922e-003
9.439921e-003
9.439921e-003
9.439920e-003
9.439920e-003
9.439920e-003
9.439920e-003
9.439920e-003
9.439920e-003
9.439920e-003
9.439920e-003
9.439920e-003
9.439920e-003
9.439920e-003
9.439920e-003
9.439920e-003
9.439920e-003
9.439920e-003
9.439920e-003
9.439920e-003
9.439920e-003
9.439920e-003
9.439920e-003
9.439920e-003
9.439920e-003
9.439920e-003
9.439920e-003
9.439920e-003
9.439920e-003
9.439921e-003
9.439920e-003
9.439920e-003
9.439919e-003
9.439919e-003
9.439920e-003
9.439920e-003
9.439921e-003
9.439921e-003
9.439921e-003
9.439920e-003
9.439920e-003
9.439919e-003
9.439919e-003
9.439919e-003
9.439920e-003
9.439920e-003
9.439921e-003
9.439921e-003
9.439921e-003
9.439921e-003
9.439921e-003
9.439921e-003
9.439921e-003
9.439921e-003
9.439921e-003
9.439922e-003
9.439923e-003
9.439924e-003
9.439925e-003
9.439926e-003
9.439927e-003
9.439929e-003
9.439930e-003
9.439931e-003
9.439933e-003
9.439934e-003
9.439935e-003
9.439937e-003
9.439938e-003
9.439939e-003
9.439940e-003
9.439941e-003
9.439941e-003
9.439942e-003
9.439942e-003
9.439943e-003
9.439943e-003
9.439943e-003
9.439943e-003
9.439943e-003
9.439943e-003
9.439943e-003
9.439943e-003
9.439942e-003
9.439942e-003
9.439941e-003
9.439941e-003
9.439940e-003
9.439939e-003
9.439938e-003
9.439937e-003
9.439936e-003
9.439935e-003
9.439933e-003
9.439932e-003
9.439931e-003
9.439929e-003
9.439928e-003
9.439926e-003
9.439925e-003
9.439924e-003
9.439923e-003
9.439922e-003
9.439921e-003
9.439921e-003
9.439921e-003
9.439921e-003
9.439921e-003
9.439921e-003
9.439921e-003
9.439921e-003
9.439921e-003
9.439920e-003
9.439920e-003
9.439920e-003
9.439919e-003
9.439919e-003
9.439920e-003
9.439920e-003
9.439920e-003
9.439920e-003
9.439920e-003
9.439920e-003
9.439920e-003
9.439920e-003
9.439920e-003
9.439920e-003
9.439920e-003
9.439920e-003
9.439922e-003
9.439921e-003
9.439919e-003
9.439918e-003
9.439919e-003
9.439920e-003
9.439921e-003
9.439921e-003
9.439921e-003
9.439920e-003
9.439920e-003
9.439920e-003
9.439920e-003
9.439920e-003
9.439920e-003
9.439920e-003
9.439920e-003
9.439920e-003
9.439920e-003
9.439920e-003
9.439921e-003
9.439921e-003
9.439922e-003
9.439922e-003
9.439923e-003
9.439924e-003
9.439926e-003
9.439927e-003
9.439928e-003
9.439930e-003
9.439932e-003
9.439933e-003
9.439935e-003
9.439937e-003
9.439938e-003
9.439940e-003
9.439941e-003
9.439942e-003
9.439943e-003
9.439944e-003
9.439945e-003
9.439945e-003
9.439946e-003
9.439946e-003
9.439946e-003
9.439946e-003
9.439946e-003
9.439946e-003
9.439946e-003
9.439945e-003
9.439945e-003
9.439945e-003
9.439945e-003
9.439945e-003
9.439944e-003
9.439944e-003
9.439944e-003
9.439944e-003
9.439944e-003
9.439943e-003
9.439943e-003
9.439942e-003
9.439941e-003
9.439940e-003
9.439939e-003
9.439938e-003
9.439936e-003
9.439935e-003
9.439933e-003
9.439931e-003
9.439930e-003
9.439928e-003
9.439927e-003
9.439925e-003
9.439924e-003
9.439923e-003
9.439922e-003
9.439921e-003
9.439921e-003
9.439920e-003
9.439920e-003
9.439920e-003
9.439920e-003
9.439920e-003
9.439920e-003
9.439920e-003
9.439920e-003
9.439920e-003
9.439920e-003
9.439920e-003
9.439920e-003
9.439920e-003
9.439920e-003
9.439920e-003
9.439920e-003
9.439920e-003
9.439919e-003
9.439920e-003
9.439920e-003
9.439921e-003
9.439921e-003
9.439920e-003
9.439919e-003
9.439919e-003
9.439919e-003
9.439920e-003
9.439921e-003
9.439920e-003
9.439920e-003
9.439919e-003
9.439919e-003
9.439920e-003
9.439921e-003
9.439921e-003
9.439921e-003
9.439920e-003
9.439920e-003
9.439920e-003
9.439920e-003
9.439920e-003
9.439921e-003
9.439922e-003
9.439923e-003
9.439925e-003
9.439927e-003
9.439928e-003
9.439930e-003
9.439932e-003
9.439935e-003
9.439937e-003
9.439939e-003
9.439941e-003
9.439942e-003
9.439944e-003
9.439945e-003
9.439946e-003
9.439946e-003
9.439946e-003
9.439945e-003
9.439944e-003
9.439942e-003
9.439941e-003
9.439938e-003
9.439936e-003
9.439934e-003
9.439932e-003
9.439929e-003
9.439927e-003
9.439926e-003
9.439924e-003
9.439923e-003
9.439923e-003
9.439923e-003
9.439923e-003
9.439924e-003
9.439926e-003
9.439928e-003
9.439930e-003
9.439932e-003
9.439935e-003
9.439937e-003
9.439939e-003
9.439940e-003
9.439941e-003
9.439942e-003
9.439942e-003
9.439942e-003
9.439941e-003
9.439939e-003
9.439937e-003
9.439935e-003
9.439933e-003
9.439931e-003
9.439929e-003
9.439928e-003
9.439926e-003
9.439925e-003
9.439923e-003
9.439922e-003
9.439921e-003
9.439920e-003
9.439920e-003
9.439920e-003
9.439920e-003
9.439920e-003
9.439920e-003
9.439921e-003
9.439920e-003
9.439920e-003
9.439920e-003
9.439920e-003
9.439920e-003
9.439920e-003
9.439920e-003
9.439920e-003
9.439920e-003
9.439920e-003
9.439920e-003
9.439920e-003
9.439920e-003
9.439920e-003
9.439920e-003
9.439920e-003
9.439920e-003
9.439921e-003
9.439921e-003
9.439920e-003
9.439920e-003
9.439919e-003
9.439919e-003
9.439919e-003
9.439920e-003
9.439921e-003
9.439921e-003
9.439921e-003
9.439920e-003
9.439920e-003
9.439920e-003
9.439921e-003
9.439922e-003
9.439923e-003
9.439925e-003
9.439926e-003
9.439929e-003
9.439931e-003
9.439933e-003
9.439936e-003
9.439939e-003
9.439941e-003
9.439944e-003
9.439945e-003
9.439946e-003
9.439946e-003
9.439945e-003
9.439943e-003
9.439939e-003
9.439934e-003
9.439928e-003
9.439920e-003
9.439912e-003
9.439902e-003
9.439892e-003
9.439882e-003
9.439871e-003
9.439861e-003
9.439851e-003
9.439843e-003
9.439835e-003
9.439829e-003
9.439824e-003
9.439821e-003
9.439820e-003
9.439821e-003
9.439824e-003
9.439828e-003
9.439835e-003
9.439844e-003
9.439854e-003
9.439864e-003
9.439876e-003
9.439888e-003
9.439899e-003
9.439909e-003
9.439919e-003
9.439927e-003
9.439933e-003
9.439938e-003
9.439941e-003
9.439942e-003
9.439942e-003
9.439941e-003
9.439939e-003
9.439937e-003
9.439934e-003
9.439932e-003
9.439930e-003
9.439928e-003
9.439926e-003
9.439924e-003
9.439923e-003
9.439922e-003
9.439921e-003
9.439920e-003
9.439920e-003
9.439920e-003
9.439920e-003
9.439921e-003
9.439921e-003
9.439920e-003
9.439920e-003
9.439919e-003
9.439919e-003
9.439920e-003
9.439920e-003
9.439920e-003
9.439920e-003
9.439920e-003
9.439920e-003
9.439920e-003
9.439920e-003
9.439918e-003
9.439919e-003
9.439921e-003
9.439921e-003
9.439921e-003
9.439920e-003
9.439920e-003
9.439919e-003
9.439920e-003
9.439920e-003
9.439920e-003
9.439920e-003
9.439921e-003
9.439921e-003
9.439920e-003
9.439920e-003
9.439921e-003
9.439922e-003
9.439924e-003
9.439925e-003
9.439927e-003
9.439929e-003
9.439931e-003
9.439934e-003
9.439937e-003
9.439940e-003
9.439943e-003
9.439945e-003
9.439946e-003
9.439946e-003
9.439944e-003
9.439939e-003
9.439930e-003
9.439919e-003
9.439904e-003
9.439885e-003
9.439862e-003
9.439836e-003
9.439807e-003
9.439776e-003
9.439744e-003
9.439710e-003
9.439676e-003
9.439643e-003
9.439611e-003
9.439581e-003
9.439555e-003
9.439532e-003
9.439513e-003
9.439500e-003
9.439492e-003
9.439489e-003
9.439493e-003
9.439502e-003
9.439518e-003
9.439540e-003
9.439566e-003
9.439597e-003
9.439632e-003
9.439669e-003
9.439707e-003
9.439746e-003
9.439783e-003
9.439817e-003
9.439848e-003
9.439875e-003
9.439897e-003
9.439914e-003
9.439927e-003
9.439935e-003
9.439940e-003
9.439942e-003
9.439941e-003
9.439940e-003
9.439937e-003
9.439935e-003
9.439932e-003
9.439929e-003
9.439927e-003
9.439925e-003
9.439924e-003
9.439923e-003
9.439922e-003
9.439921e-003
9.439920e-003
9.439920e-003
9.439920e-003
9.439920e-003
9.439920e-003
9.439920e-003
9.439920e-003
9.439920e-003
9.439920e-003
9.439920e-003
9.439920e-003
9.439920e-003
9.439920e-003
9.439920e-003
9.439920e-003
9.439920e-003
9.439918e-003
9.439920e-003
9.439921e-003
9.439921e-003
9.439920e-003
9.439919e-003
9.439919e-003
9.439920e-003
9.439920e-003
9.439921e-003
9.439921e-003
9.439920e-003
9.439920e-003
9.439920e-003
9.439920e-003
9.439921e-003
9.439923e-003
9.439924e-003
9.439927e-003
9.439929e-003
9.439932e-003
9.439935e-003
9.439938e-003
9.439941e-003
9.439945e-003
9.439947e-003
9.439947e-003
9.439945e-003
9.439938e-003
9.439927e-003
9.439909e-003
9.439883e-003
9.439848e-003
9.439804e-003
9.439752e-003
9.439689e-003
9.439619e-003
9.439540e-003
9.439455e-003
9.439366e-003
9.439273e-003
9.439180e-003
9.439087e-003
9.438997e-003
9.438912e-003
9.438833e-003
9.438764e-003
9.438704e-003
9.438656e-003
9.438621e-003
9.438601e-003
9.438596e-003
9.438606e-003
9.438633e-003
9.438676e-003
9.438733e-003
9.438805e-003
9.438889e-003
9.438983e-003
9.439084e-003
9.439190e-003
9.439297e-003
9.439401e-003
9.439501e-003
9.439593e-003
9.439675e-003
9.439746e-003
9.439804e-003
9.439851e-003
9.439886e-003
9.439911e-003
9.439928e-003
9.439937e-003
9.439941e-003
9.439942e-003
9.439940e-003
9.439938e-003
9.439935e-003
9.439932e-003
9.439929e-003
9.439927e-003
9.439925e-003
9.439923e-003
9.439922e-003
9.439921e-003
9.439920e-003
9.439920e-003
9.439920e-003
9.439920e-003
9.439920e-003
9.439920e-003
9.439920e-003
9.439920e-003
9.439920e-003
9.439920e-003
9.439920e-003
9.439920e-003
9.439920e-003
9.439920e-003
9.439920e-003
9.439920e-003
9.439920e-003
9.439921e-003
9.439921e-003
9.439920e-003
9.439919e-003
9.439919e-003
9.439920e-003
9.439921e-003
9.439921e-003
9.439921e-003
9.439920e-003
9.439920e-003
9.439920e-003
9.439922e-003
9.439923e-003
9.439925e-003
9.439927e-003
9.439930e-003
9.439934e-003
9.439938e-003
9.439942e-003
9.439945e-003
9.439948e-003
9.439949e-003
9.439945e-003
9.439934e-003
9.439914e-003
9.439883e-003
9.439837e-003
9.439773e-003
9.439690e-003
9.439585e-003
9.439458e-003
9.439309e-003
9.439139e-003
9.438949e-003
9.438742e-003
9.438523e-003
9.438294e-003
9.438060e-003
9.437826e-003
9.437596e-003
9.437375e-003
9.437168e-003
9.436978e-003
9.436810e-003
9.436667e-003
9.436553e-003
9.436471e-003
9.436423e-003
9.436412e-003
9.436440e-003
9.436505e-003
9.436609e-003
9.436750e-003
9.436925e-003
9.437130e-003
9.437361e-003
9.437612e-003
9.437876e-003
9.438144e-003
9.438410e-003
9.438667e-003
9.438907e-003
9.439124e-003
9.439316e-003
9.439480e-003
9.439614e-003
9.439721e-003
9.439801e-003
9.439859e-003
9.439898e-003
9.439923e-003
9.439936e-003
9.439942e-003
9.439943e-003
9.439940e-003
9.439937e-003
9.439934e-003
9.439931e-003
9.439928e-003
9.439925e-003
9.439924e-003
9.439922e-003
9.439921e-003
9.439920e-003
9.439920e-003
9.439920e-003
9.439920e-003
9.439921e-003
9.439921e-003
9.439920e-003
9.439919e-003
9.439919e-003
9.439920e-003
9.439920e-003
9.439920e-003
9.439920e-003
9.439920e-003
9.439921e-003
9.439920e-003
9.439920e-003
9.439920e-003
9.439919e-003
9.439919e-003
9.439920e-003
9.439920e-003
9.439921e-003
9.439921e-003
9.439921e-003
9.439920e-003
9.439921e-003
9.439922e-003
9.439924e-003
9.439927e-003
9.439929e-003
9.439932e-003
9.439936e-003
9.439940e-003
9.439945e-003
9.439949e-003
9.439949e-003
9.439945e-003
9.439932e-003
9.439906e-003
9.439862e-003
9.439793e-003
9.439694e-003
9.439558e-003
9.439380e-003
9.439155e-003
9.438880e-003
9.438555e-003
9.438180e-003
9.437758e-003
9.437296e-003
9.436799e-003
9.436276e-003
9.435736e-003
9.435191e-003
9.434648e-003
9.434120e-003
9.433616e-003
9.433144e-003
9.432716e-003
9.432338e-003
9.432018e-003
9.431765e-003
9.431583e-003
9.431480e-003
9.431458e-003
9.431521e-003
9.431670e-003
9.431905e-003
9.432224e-003
9.432621e-003
9.433088e-003
9.433616e-003
9.434192e-003
9.434801e-003
9.435426e-003
9.436051e-003
9.436659e-003
9.437233e-003
9.437762e-003
9.438234e-003
9.438643e-003
9.438987e-003
9.439265e-003
9.439483e-003
9.439646e-003
9.439764e-003
9.439843e-003
9.439894e-003
9.439923e-003
9.439938e-003
9.439943e-003
9.439942e-003
9.439939e-003
9.439935e-003
9.439931e-003
9.439928e-003
9.439926e-003
9.439924e-003
9.439923e-003
9.439921e-003
9.439920e-003
9.439920e-003
9.439920e-003
9.439921e-003
9.439921e-003
9.439920e-003
9.439920e-003
9.439920e-003
9.439920e-003
9.439920e-003
9.439920e-003
9.439920e-003
9.439920e-003
9.439921e-003
9.439920e-003
9.439919e-003
9.439919e-003
9.439920e-003
9.439920e-003
9.439921e-003
9.439920e-003
9.439920e-003
9.439920e-003
9.439920e-003
9.439921e-003
9.439923e-003
9.439925e-003
9.439927e-003
9.439931e-003
9.439934e-003
9.439938e-003
9.439943e-003
9.439948e-003
9.439951e-003
9.439948e-003
9.439936e-003
9.439907e-003
9.439855e-003
9.439768e-003
9.439636e-003
9.439444e-003
9.439180e-003
9.438831e-003
9.438386e-003
9.437836e-003
9.437177e-003
9.436408e-003
9.435534e-003
9.434565e-003
9.433514e-003
9.432398e-003
9.431235e-003
9.430048e-003
9.428856e-003
9.427682e-003
9.426547e-003
9.425470e-003
9.424471e-003
9.423567e-003
9.422774e-003
9.422107e-003
9.421581e-003
9.421206e-003
9.420994e-003
9.420953e-003
9.421088e-003
9.421405e-003
9.421901e-003
9.422574e-003
9.423413e-003
9.424405e-003
9.425531e-003
9.426766e-003
9.428080e-003
9.429440e-003
9.430811e-003
9.432157e-003
9.433444e-003
9.434640e-003
9.435722e-003
9.436672e-003
9.437482e-003
9.438150e-003
9.438682e-003
9.439092e-003
9.439395e-003
9.439609e-003
9.439754e-003
9.439846e-003
9.439900e-003
9.439928e-003
9.439941e-003
9.439943e-003
9.439941e-003
9.439937e-003
9.439933e-003
9.439930e-003
9.439927e-003
9.439925e-003
9.439923e-003
9.439921e-003
9.439921e-003
9.439920e-003
9.439920e-003
9.439920e-003
9.439920e-003
9.439920e-003
9.439920e-003
9.439920e-003
9.439920e-003
9.439920e-003
9.439920e-003
9.439920e-003
9.439921e-003
9.439920e-003
9.439919e-003
9.439919e-003
9.439920e-003
9.439921e-003
9.439921e-003
9.439920e-003
9.439920e-003
9.439920e-003
9.439921e-003
9.439923e-003
9.439925e-003
9.439928e-003
9.439931e-003
9.439936e-003
9.439941e-003
9.439946e-003
9.439951e-003
9.439951e-003
9.439943e-003
9.439919e-003
9.439867e-003
9.439775e-003
9.439623e-003
9.439390e-003
9.439050e-003
9.438575e-003
9.437939e-003
9.437115e-003
9.436083e-003
9.434830e-003
9.433351e-003
9.431651e-003
9.429745e-003
9.427659e-003
9.425424e-003
9.423078e-003
9.420663e-003
9.418223e-003
9.415801e-003
9.413438e-003
9.411174e-003
9.409047e-003
9.407088e-003
9.405329e-003
9.403798e-003
9.402520e-003
9.401516e-003
9.400808e-003
9.400413e-003
9.400346e-003
9.400617e-003
9.401235e-003
9.402199e-003
9.403506e-003
9.405141e-003
9.407083e-003
9.409301e-003
9.411751e-003
9.414382e-003
9.417132e-003
9.419934e-003
9.422716e-003
9.425408e-003
9.427944e-003
9.430267e-003
9.432336e-003
9.434123e-003
9.435620e-003
9.436833e-003
9.437782e-003
9.438500e-003
9.439021e-003
9.439384e-003
9.439625e-003
9.439777e-003
9.439867e-003
9.439914e-003
9.439936e-003
9.439943e-003
9.439942e-003
9.439939e-003
9.439934e-003
9.439930e-003
9.439927e-003
9.439925e-003
9.439923e-003
9.439922e-003
9.439921e-003
9.439920e-003
9.439920e-003
9.439920e-003
9.439921e-003
9.439921e-003
9.439920e-003
9.439920e-003
9.439920e-003
9.439920e-003
9.439920e-003
9.439921e-003
9.439920e-003
9.439919e-003
9.439919e-003
9.439920e-003
9.439921e-003
9.439921e-003
9.439920e-003
9.439920e-003
9.439921e-003
9.439923e-003
9.439926e-003
9.439928e-003
9.439932e-003
9.439936e-003
9.439942e-003
9.439949e-003
9.439953e-003
9.439951e-003
9.439935e-003
9.439894e-003
9.439812e-003
9.439664e-003
9.439419e-003
9.439039e-003
9.438476e-003
9.437678e-003
9.436589e-003
9.435158e-003
9.433338e-003
9.431096e-003
9.428417e-003
9.425304e-003
9.421782e-003
9.417897e-003
9.413710e-003
9.409298e-003
9.404742e-003
9.400128e-003
9.395539e-003
9.391055e-003
9.386749e-003
9.382685e-003
9.378920e-003
9.375502e-003
9.372472e-003
9.369868e-003
9.367720e-003
9.366056e-003
9.364901e-003
9.364277e-003
9.364203e-003
9.364695e-003
9.365767e-003
9.367425e-003
9.369668e-003
9.372488e-003
9.375861e-003
9.379751e-003
9.384102e-003
9.388842e-003
9.393876e-003
9.399091e-003
9.404362e-003
9.409554e-003
9.414535e-003
9.419181e-003
9.423391e-003
9.427091e-003
9.430243e-003
9.432839e-003
9.434908e-003
9.436497e-003
9.437674e-003
9.438512e-003
9.439085e-003
9.439459e-003
9.439690e-003
9.439825e-003
9.439897e-003
9.439930e-003
9.439942e-003
9.439943e-003
9.439940e-003
9.439935e-003
9.439930e-003
9.439927e-003
9.439925e-003
9.439923e-003
9.439922e-003
9.439920e-003
9.439920e-003
9.439920e-003
9.439921e-003
9.439921e-003
9.439920e-003
9.439920e-003
9.439919e-003
9.439920e-003
9.439920e-003
9.439920e-003
9.439920e-003
9.439920e-003
9.439920e-003
9.439920e-003
9.439921e-003
9.439921e-003
9.439921e-003
9.439921e-003
9.439923e-003
9.439926e-003
9.439929e-003
9.439933e-003
9.439937e-003
9.439943e-003
9.439950e-003
9.439954e-003
9.439949e-003
9.439924e-003
9.439864e-003
9.439743e-003
9.439524e-003
9.439158e-003
9.438579e-003
9.437705e-003
9.436443e-003
9.434691e-003
9.432347e-003
9.429318e-003
9.425536e-003
9.420964e-003
9.415604e-003
9.409505e-003
9.402757e-003
9.395489e-003
9.387852e-003
9.380014e-003
9.372145e-003
9.364405e-003
9.356938e-003
9.349867e-003
9.343289e-003
9.337279e-003
9.331891e-003
9.327159e-003
9.323101e-003
9.319728e-003
9.317040e-003
9.315038e-003
9.313721e-003
9.313089e-003
9.313149e-003
9.313910e-003
9.315390e-003
9.317609e-003
9.320596e-003
9.324376e-003
9.328974e-003
9.334400e-003
9.340645e-003
9.347668e-003
9.355385e-003
9.363669e-003
9.372341e-003
9.381182e-003
9.389947e-003
9.398380e-003
9.406243e-003
9.413338e-003
9.419527e-003
9.424738e-003
9.428973e-003
9.432290e-003
9.434792e-003
9.436608e-003
9.437874e-003
9.438721e-003
9.439262e-003
9.439591e-003
9.439778e-003
9.439877e-003
9.439924e-003
9.439941e-003
9.439944e-003
9.439940e-003
9.439935e-003
9.439931e-003
9.439927e-003
9.439925e-003
9.439923e-003
9.439921e-003
9.439920e-003
9.439920e-003
9.439920e-003
9.439921e-003
9.439920e-003
9.439920e-003
9.439920e-003
9.439920e-003
9.439920e-003
9.439920e-003
9.439920e-003
9.439921e-003
9.439920e-003
9.439920e-003
9.439920e-003
9.439920e-003
9.439921e-003
9.439923e-003
9.439925e-003
9.439929e-003
9.439933e-003
9.439939e-003
9.439945e-003
9.439952e-003
9.439954e-003
9.439946e-003
9.439913e-003
9.439832e-003
9.439667e-003
9.439366e-003
9.438853e-003
9.438024e-003
9.436748e-003
9.434867e-003
9.432204e-003
9.428577e-003
9.423819e-003
9.417800e-003
9.410456e-003
9.401808e-003
9.391972e-003
9.381159e-003
9.369663e-003
9.357829e-003
9.346026e-003
9.334608e-003
9.323895e-003
9.314141e-003
9.305534e-003
9.298183e-003
9.292128e-003
9.287343e-003
9.283751e-003
9.281231e-003
9.279635e-003
9.278802e-003
9.278566e-003
9.278766e-003
9.279260e-003
9.279927e-003
9.280680e-003
9.281470e-003
9.282297e-003
9.283217e-003
9.284348e-003
9.285864e-003
9.287997e-003
9.291011e-003
9.295175e-003
9.300732e-003
9.307849e-003
9.316583e-003
9.326848e-003
9.338407e-003
9.350878e-003
9.363772e-003
9.376550e-003
9.388688e-003
9.399741e-003
9.409391e-003
9.417475e-003
9.423971e-003
9.428984e-003
9.432697e-003
9.435338e-003
9.437140e-003
9.438317e-003
9.439052e-003
9.439489e-003
9.439733e-003
9.439859e-003
9.439918e-003
9.439940e-003
9.439944e-003
9.439940e-003
9.439935e-003
9.439931e-003
9.439928e-003
9.439925e-003
9.439923e-003
9.439921e-003
9.439921e-003
9.439920e-003
9.439920e-003
9.439920e-003
9.439920e-003
9.439920e-003
9.439920e-003
9.439920e-003
9.439919e-003
9.439920e-003
9.439921e-003
9.439921e-003
9.439920e-003
9.439920e-003
9.439921e-003
9.439923e-003
9.439925e-003
9.439928e-003
9.439932e-003
9.439938e-003
9.439946e-003
9.439953e-003
9.439956e-003
9.439945e-003
9.439904e-003
9.439803e-003
9.439595e-003
9.439207e-003
9.438531e-003
9.437414e-003
9.435656e-003
9.433008e-003
9.429182e-003
9.423876e-003
9.416809e-003
9.407772e-003
9.396690e-003
9.383671e-003
9.369046e-003
9.353371e-003
9.337391e-003
9.321976e-003
9.308026e-003
9.296380e-003
9.287727e-003
9.282556e-003
9.281115e-003
9.283422e-003
9.289273e-003
9.298275e-003
9.309884e-003
9.323442e-003
9.338215e-003
9.353431e-003
9.368314e-003
9.382111e-003
9.394118e-003
9.403700e-003
9.410312e-003
9.413528e-003
9.413063e-003
9.408813e-003
9.400887e-003
9.389641e-003
9.375696e-003
9.359942e-003
9.343498e-003
9.327648e-003
9.313733e-003
9.303012e-003
9.296514e-003
9.294904e-003
9.298373e-003
9.306607e-003
9.318816e-003
9.333853e-003
9.350387e-003
9.367098e-003
9.382856e-003
9.396840e-003
9.408590e-003
9.417975e-003
9.425123e-003
9.430326e-003
9.433952e-003
9.436371e-003
9.437914e-003
9.438854e-003
9.439398e-003
9.439696e-003
9.439846e-003
9.439914e-003
9.439939e-003
9.439944e-003