# vtk DataFile Version 3.0
vtk output
ASCII
DATASET STRUCTURED_POINTS
DIMENSIONS 100 100 1
SPACING 1 1 1
ORIGIN 0 0 0
POINT_DATA 10000
SCALARS SFBox_profile double
LOOKUP_TABLE default 
0.000000e+000
0.000000e+000
0.000000e+000
0.000000e+000
0.000000e+000
0.000000e+000
0.000000e+000
0.000000e+000
0.000000e+000
0.000000e+000
0.000000e+000
0.000000e+000
0.000000e+000
0.000000e+000
0.000000e+000
0.000000e+000
0.000000e+000
0.000000e+000
0.000000e+000
0.000000e+000
0.000000e+000
0.000000e+000
0.000000e+000
0.000000e+000
0.000000e+000
0.000000e+000
0.000000e+000
0.000000e+000
0.000000e+000
0.000000e+000
0.000000e+000
0.000000e+000
0.000000e+000
0.000000e+000
0.000000e+000
0.000000e+000
0.000000e+000
0.000000e+000
0.000000e+000
0.000000e+000
0.000000e+000
0.000000e+000
0.000000e+000
0.000000e+000
0.000000e+000
0.000000e+000
0.000000e+000
0.000000e+000
0.000000e+000
0.000000e+000
0.000000e+000
0.000000e+000
0.000000e+000
0.000000e+000
0.000000e+000
0.000000e+000
0.000000e+000
0.000000e+000
0.000000e+000
0.000000e+000
0.000000e+000
0.000000e+000
0.000000e+000
0.000000e+000
0.000000e+000
0.000000e+000
0.000000e+000
0.000000e+000
0.000000e+000
0.000000e+000
0.000000e+000
0.000000e+000
0.000000e+000
0.000000e+000
0.000000e+000
0.000000e+000
0.000000e+000
0.000000e+000
0.000000e+000
0.000000e+000
0.000000e+000
0.000000e+000
0.000000e+000
0.000000e+000
0.000000e+000
0.000000e+000
0.000000e+000
0.000000e+000
0.000000e+000
0.000000e+000
0.000000e+000
0.000000e+000
0.000000e+000
0.000000e+000
0.000000e+000
0.000000e+000
0.000000e+000
0.000000e+000
0.000000e+000
0.000000e+000
1.092169e-010
1.673263e-010
3.088951e-010
5.582916e-010
9.145805e-010
1.355151e-009
1.863085e-009
2.447938e-009
3.132284e-009
3.901682e-009
4.638112e-009
5.059441e-009
4.674616e-009
2.751672e-009
-1.706415e-009
-9.975723e-009
-2.360439e-008
-4.437075e-008
-7.419724e-008
-1.150206e-007
-1.686305e-007
-2.364988e-007
-3.196253e-007
-4.184258e-007
-5.326798e-007
-6.615452e-007
-8.036340e-007
-9.571351e-007
-1.119964e-006
-1.289918e-006
-1.464816e-006
-1.642615e-006
-1.821493e-006
-1.999892e-006
-2.176531e-006
-2.350395e-006
-2.520704e-006
-2.686870e-006
-2.848457e-006
-3.005136e-006
-3.156655e-006
-3.302808e-006
-3.443413e-006
-3.578300e-006
-3.707296e-006
-3.830222e-006
-3.946878e-006
-4.057037e-006
-4.160432e-006
-4.256734e-006
-4.345538e-006
-4.426339e-006
-4.498509e-006
-4.561274e-006
-4.613702e-006
-4.654686e-006
-4.682942e-006
-4.697013e-006
-4.695289e-006
-4.676035e-006
-4.637437e-006
-4.577662e-006
-4.494939e-006
-4.387651e-006
-4.254454e-006
-4.094409e-006
-3.907144e-006
-3.693022e-006
-3.453324e-006
-3.190415e-006
-2.907872e-006
-2.610536e-006
-2.304438e-006
-1.996583e-006
-1.694561e-006
-1.406021e-006
-1.138053e-006
-8.965657e-007
-6.857709e-007
-5.078602e-007
-3.629411e-007
-2.492371e-007
-1.635014e-007
-1.015532e-007
-5.883255e-008
-3.088262e-008
-1.370328e-008
-3.956493e-009
9.643269e-010
2.968928e-009
3.369203e-009
3.005519e-009
2.372735e-009
1.730024e-009
1.188590e-009
7.769710e-010
4.855129e-010
2.926290e-010
1.773298e-010
1.239447e-010
1.912313e-010
3.036943e-010
5.160864e-010
8.066556e-010
1.156663e-009
1.567721e-009
2.065583e-009
2.672914e-009
3.353030e-009
3.943927e-009
4.099834e-009
3.241610e-009
5.064444e-010
-5.307991e-009
-1.579469e-008
-3.296046e-008
-5.919482e-008
-9.716587e-008
-1.496394e-007
-2.192345e-007
-3.081478e-007
-4.178869e-007
-5.490632e-007
-7.012797e-007
-8.731351e-007
-1.062342e-006
-1.265934e-006
-1.480523e-006
-1.702570e-006
-1.928623e-006
-2.155519e-006
-2.380507e-006
-2.601315e-006
-2.816163e-006
-3.023721e-006
-3.223052e-006
-3.413537e-006
-3.594810e-006
-3.766694e-006
-3.929153e-006
-4.082258e-006
-4.226153e-006
-4.361032e-006
-4.487116e-006
-4.604630e-006
-4.713790e-006
-4.814778e-006
-4.907726e-006
-4.992706e-006
-5.069713e-006
-5.138657e-006
-5.199352e-006
-5.251515e-006
-5.294756e-006
-5.328584e-006
-5.352402e-006
-5.365508e-006
-5.367092e-006
-5.356238e-006
-5.331904e-006
-5.292913e-006
-5.237929e-006
-5.165428e-006
-5.073680e-006
-4.960742e-006
-4.824498e-006
-4.662747e-006
-4.473395e-006
-4.254735e-006
-4.005836e-006
-3.727001e-006
-3.420224e-006
-3.089553e-006
-2.741259e-006
-2.383692e-006
-2.026797e-006
-1.681276e-006
-1.357525e-006
-1.064504e-006
-8.087743e-007
-5.938963e-007
-4.203045e-007
-2.856579e-007
-1.855414e-007
-1.143309e-007
-6.603078e-008
-3.494545e-008
-1.612035e-008
-5.553566e-009
-2.219799e-010
2.016871e-009
2.586996e-009
2.371800e-009
1.875950e-009
1.356436e-009
9.206267e-010
5.954125e-010
3.726595e-010
2.355398e-010
1.705028e-010
4.545203e-010
6.274296e-010
9.114505e-010
1.234383e-009
1.574792e-009
1.978284e-009
2.501822e-009
3.107638e-009
3.556312e-009
3.331677e-009
1.587703e-009
-2.917913e-009
-1.192486e-008
-2.778897e-008
-5.356861e-008
-9.301917e-008
-1.504493e-007
-2.304182e-007
-3.372858e-007
-4.746652e-007
-6.448631e-007
-8.484141e-007
-1.083815e-006
-1.347523e-006
-1.634233e-006
-1.937367e-006
-2.249693e-006
-2.563953e-006
-2.873407e-006
-3.172234e-006
-3.455766e-006
-3.720553e-006
-3.964301e-006
-4.185706e-006
-4.384249e-006
-4.559987e-006
-4.713373e-006
-4.845130e-006
-4.956177e-006
-5.047590e-006
-5.120580e-006
-5.176482e-006
-5.216726e-006
-5.242800e-006
-5.256205e-006
-5.258400e-006
-5.250764e-006
-5.234564e-006
-5.210943e-006
-5.180934e-006
-5.145485e-006
-5.105509e-006
-5.061942e-006
-5.015801e-006
-4.968249e-006
-4.920636e-006
-4.874519e-006
-4.831651e-006
-4.793918e-006
-4.763205e-006
-4.741211e-006
-4.729160e-006
-4.727460e-006
-4.735297e-006
-4.750213e-006
-4.767745e-006
-4.781195e-006
-4.781665e-006
-4.758431e-006
-4.699747e-006
-4.594081e-006
-4.431683e-006
-4.206289e-006
-3.916681e-006
-3.567732e-006
-3.170626e-006
-2.742043e-006
-2.302305e-006
-1.872775e-006
-1.473007e-006
-1.118268e-006
-8.179903e-007
-5.754077e-007
-3.883059e-007
-2.505218e-007
-1.536999e-007
-8.888237e-008
-4.768234e-008
-2.297146e-008
-9.146746e-009
-2.095772e-009
1.013352e-009
2.012655e-009
2.012156e-009
1.634044e-009
1.190707e-009
8.122851e-010
5.348667e-010
3.572241e-010
2.709659e-010
1.006458e-009
1.180663e-009
1.453644e-009
1.759423e-009
2.114644e-009
2.584006e-009
3.134686e-009
3.462351e-009
2.865868e-009
1.680360e-010
-6.384811e-009
-1.929854e-008
-4.206427e-008
-7.936079e-008
-1.371111e-007
-2.222909e-007
-3.424203e-007
-5.047226e-007
-7.150057e-007
-9.764249e-007
-1.288377e-006
-1.645814e-006
-2.039204e-006
-2.455212e-006
-2.877987e-006
-3.290785e-006
-3.677616e-006
-4.024601e-006
-4.320897e-006
-4.559099e-006
-4.735193e-006
-4.848143e-006
-4.899269e-006
-4.891532e-006
-4.828861e-006
-4.715612e-006
-4.556207e-006
-4.354964e-006
-4.116080e-006
-3.843704e-006
-3.542033e-006
-3.215370e-006
-2.868138e-006
-2.504814e-006
-2.129836e-006
-1.747494e-006
-1.361839e-006
-9.766404e-007
-5.954055e-007
-2.214659e-007
1.418745e-007
4.911429e-007
8.224714e-007
1.131364e-006
1.412481e-006
1.659473e-006
1.864886e-006
2.020186e-006
2.115912e-006
2.142026e-006
2.088462e-006
1.945924e-006
1.706917e-006
1.367021e-006
9.263061e-007
3.907892e-007
-2.262875e-007
-9.036109e-007
-1.611698e-006
-2.313838e-006
-2.968295e-006
-3.531813e-006
-3.964226e-006
-4.233640e-006
-4.321342e-006
-4.225407e-006
-3.961980e-006
-3.563579e-006
-3.074420e-006
-2.543590e-006
-2.017582e-006
-1.533959e-006
-1.117558e-006
-7.797803e-007
-5.205373e-007
-3.317331e-007
-2.010399e-007
-1.150459e-007
-6.136477e-008
-2.972668e-008
-1.229366e-008
-3.489652e-009
4.064910e-010
1.729976e-009
1.855262e-009
1.531269e-009
1.123652e-009
7.821573e-010
5.515500e-010
4.375075e-010
1.851729e-009
1.936850e-009
2.096592e-009
2.360499e-009
2.789507e-009
3.332990e-009
3.608316e-009
2.716883e-009
-8.772540e-010
-9.501007e-009
-2.656297e-008
-5.697305e-008
-1.075501e-007
-1.872114e-007
-3.067417e-007
-4.779657e-007
-7.122072e-007
-1.018037e-006
-1.398556e-006
-1.848767e-006
-2.353784e-006
-2.888607e-006
-3.419796e-006
-3.908855e-006
-4.316604e-006
-4.607589e-006
-4.753644e-006
-4.736053e-006
-4.546169e-006
-4.184689e-006
-3.659982e-006
-2.985911e-006
-2.179564e-006
-1.259216e-006
-2.427548e-007
8.533386e-007
2.014437e-006
3.227743e-006
4.481945e-006
5.766738e-006
7.072373e-006
8.389352e-006
9.708309e-006
1.102005e-005
1.231573e-005
1.358700e-005
1.482616e-005
1.602616e-005
1.718049e-005
1.828292e-005
1.932708e-005
2.030604e-005
2.121172e-005
2.203439e-005
2.276219e-005
2.338073e-005
2.387286e-005
2.421857e-005
2.439524e-005
2.437806e-005
2.414091e-005
2.365765e-005
2.290391e-005
2.185938e-005
2.051078e-005
1.885522e-005
1.690385e-005
1.468551e-005
1.224960e-005
9.667549e-006
7.031886e-006
4.452001e-006
2.046096e-006
-7.049962e-008
-1.799381e-006
-3.073131e-006
-3.866310e-006
-4.200294e-006
-4.139930e-006
-3.781973e-006
-3.237753e-006
-2.614434e-006
-1.999641e-006
-1.452910e-006
-1.004800e-006
-6.619896e-007
-4.152464e-007
-2.473393e-007
-1.390741e-007
-7.296120e-008
-3.487369e-008
-1.436007e-008
-4.227240e-009
1.665287e-010
1.639251e-009
1.796997e-009
1.487569e-009
1.111786e-009
8.284469e-010
6.835593e-010
2.854607e-009
2.803949e-009
2.830463e-009
3.096924e-009
3.596133e-009
3.881927e-009
2.845703e-009
-1.430559e-009
-1.187607e-008
-3.286422e-008
-7.089836e-008
-1.353460e-007
-2.388799e-007
-3.972516e-007
-6.280160e-007
-9.478243e-007
-1.368058e-006
-1.889069e-006
-2.494107e-006
-3.144782e-006
-3.780124e-006
-4.320518e-006
-4.676319e-006
-4.759350e-006
-4.494567e-006
-3.829259e-006
-2.738065e-006
-1.223411e-006
6.879091e-007
2.950662e-006
5.508139e-006
8.298923e-006
1.126256e-005
1.434365e-005
1.749418e-005
2.067435e-005
2.385213e-005
2.700209e-005
3.010391e-005
3.314094e-005
3.609898e-005
3.896556e-005
4.172954e-005
4.438110e-005
4.691173e-005
4.931444e-005
5.158361e-005
5.371492e-005
5.570490e-005
5.755047e-005
5.924823e-005
6.079386e-005
6.218140e-005
6.340263e-005
6.444648e-005
6.529861e-005
6.594097e-005
6.635141e-005
6.650335e-005
6.636546e-005
6.590130e-005
6.506916e-005
6.382222e-005
6.210945e-005
5.987770e-005
5.707568e-005
5.366041e-005
4.960659e-005
4.491856e-005
3.964371e-005
3.388465e-005
2.780628e-005
2.163360e-005
1.563681e-005
1.010328e-005
5.299378e-006
1.429652e-006
-1.397181e-006
-3.185733e-006
-4.049063e-006
-4.181492e-006
-3.816448e-006
-3.181535e-006
-2.463184e-006
-1.788632e-006
-1.225846e-006
-7.959322e-007
-4.902899e-007
-2.861471e-007
-1.574290e-007
-8.073609e-008
-3.769023e-008
-1.513275e-008
-4.314662e-009
2.170857e-010
1.663484e-009
1.790493e-009
1.498202e-009
1.192074e-009
1.020340e-009
3.816772e-009
3.693673e-009
3.697748e-009
4.004189e-009
4.254597e-009
3.208853e-009
-1.420960e-009
-1.316566e-008
-3.734645e-008
-8.208423e-008
-1.595026e-007
-2.865909e-007
-4.850905e-007
-7.796646e-007
-1.193433e-006
-1.740006e-006
-2.411978e-006
-3.167695e-006
-3.920394e-006
-4.535059e-006
-4.837092e-006
-4.633247e-006
-3.740663e-006
-2.016695e-006
6.180392e-007
4.168581e-006
8.567778e-006
1.368933e-005
1.936740e-005
2.541803e-005
3.165861e-005
3.792286e-005
4.407018e-005
4.998956e-005
5.559887e-005
6.084109e-005
6.567929e-005
7.009170e-005
7.406755e-005
7.760432e-005
8.070596e-005
8.338192e-005
8.564670e-005
8.751927e-005
8.902252e-005
9.018239e-005
9.102693e-005
9.158531e-005
9.188704e-005
9.196147e-005
9.183777e-005
9.154525e-005
9.111415e-005
9.057660e-005
8.996764e-005
8.932600e-005
8.869422e-005
8.811775e-005
8.764253e-005
8.731056e-005
8.715301e-005
8.718088e-005
8.737327e-005
8.766449e-005
8.793164e-005
8.798619e-005
8.757339e-005
8.638480e-005
8.408771e-005
8.037302e-005
7.501756e-005
6.795026e-005
5.930602e-005
4.944853e-005
3.894789e-005
2.850853e-005
1.885741e-005
1.061687e-005
4.195980e-006
-2.688168e-007
-2.909088e-006
-4.060257e-006
-4.160600e-006
-3.646834e-006
-2.876165e-006
-2.090294e-006
-1.418776e-006
-9.064341e-007
-5.471894e-007
-3.121320e-007
-1.674933e-007
-8.359146e-008
-3.783009e-008
-1.458169e-008
-3.819354e-009
4.917800e-010
1.776973e-009
1.860016e-009
1.627863e-009
1.452383e-009
4.620476e-009
4.588585e-009
4.718523e-009
4.855615e-009
3.852677e-009
-7.904776e-010
-1.312613e-008
-3.932406e-008
-8.896725e-008
-1.768403e-007
-3.244390e-007
-5.601792e-007
-9.170194e-007
-1.425670e-006
-2.101175e-006
-2.921691e-006
-3.801856e-006
-4.568788e-006
-4.953196e-006
-4.607268e-006
-3.153009e-006
-2.526195e-007
4.317369e-006
1.060922e-005
1.848000e-005
2.760519e-005
3.752412e-005
4.770432e-005
5.760866e-005
6.675193e-005
7.473937e-005
8.128519e-005
8.621288e-005
8.944160e-005
9.096434e-005
9.082419e-005
8.909391e-005
8.586201e-005
8.122578e-005
7.528974e-005
6.816697e-005
5.998088e-005
5.086563e-005
4.096461e-005
3.042710e-005
1.940403e-005
8.043859e-006
-3.510300e-006
-1.512154e-005
-2.665762e-005
-3.798706e-005
-4.897312e-005
-5.946630e-005
-6.929624e-005
-7.826384e-005
-8.613471e-005
-9.263530e-005
-9.745303e-005
-1.002420e-004
-1.006363e-004
-9.827219e-005
-9.282111e-005
-8.403473e-005
-7.180072e-005
-5.620712e-005
-3.760818e-005
-1.668012e-005
5.550226e-006
2.772494e-005
4.824205e-005
6.542087e-005
7.773695e-005
8.409266e-005
8.406299e-005
7.804207e-005
6.722591e-005
5.340948e-005
3.863766e-005
2.480095e-005
1.329193e-005
4.822895e-006
-5.644448e-007
-3.335408e-006
-4.218578e-006
-3.968705e-006
-3.201948e-006
-2.327859e-006
-1.561812e-006
-9.796322e-007
-5.782137e-007
-3.215742e-007
-1.678076e-007
-8.115588e-008
-3.534362e-008
-1.285525e-008
-2.855489e-009
9.502406e-010
2.008906e-009
2.079808e-009
1.968520e-009
5.320198e-009
5.519323e-009
5.706318e-009
4.864190e-009
5.218505e-010
-1.164913e-008
-3.842985e-008
-9.052333e-008
-1.849306e-007
-3.473257e-007
-6.129193e-007
-1.023782e-006
-1.619482e-006
-2.416534e-006
-3.372763e-006
-4.338460e-006
-5.007907e-006
-4.897475e-006
-3.379720e-006
2.110776e-007
6.414967e-006
1.546519e-005
2.714546e-005
4.073282e-005
5.504836e-005
6.860990e-005
7.984557e-005
8.731043e-005
8.985742e-005
8.673522e-005
7.760908e-005
6.251866e-005
4.179498e-005
1.595933e-005
-1.437543e-005
-4.858462e-005
-8.608252e-005
-1.263428e-004
-1.688943e-004
-2.133036e-004
-2.591549e-004
-3.060344e-004
-3.535251e-004
-4.012101e-004
-4.486820e-004
-4.955541e-004
-5.414698e-004
-5.861065e-004
-6.291736e-004
-6.704021e-004
-7.095302e-004
-7.462827e-004
-7.803490e-004
-8.113599e-004
-8.388663e-004
-8.623207e-004
-8.810637e-004
-8.943165e-004
-9.011829e-004
-9.006614e-004
-8.916724e-004
-8.731038e-004
-8.438832e-004
-8.030813e-004
-7.500558e-004
-6.846375e-004
-6.073521e-004
-5.196522e-004
-4.241113e-004
-3.245051e-004
-2.256985e-004
-1.332644e-004
-5.281799e-005
1.087472e-005
5.484097e-005
7.862108e-005
8.444885e-005
7.672384e-005
6.092645e-005
4.236657e-005
2.515701e-005
1.170172e-005
2.755889e-006
-2.132631e-006
-4.040002e-006
-4.149031e-006
-3.421445e-006
-2.479480e-006
-1.638590e-006
-1.006005e-006
-5.790145e-007
-3.131301e-007
-1.583993e-007
-7.388282e-008
-3.067557e-008
-1.024559e-008
-1.553456e-009
1.581978e-009
2.416248e-009
2.524204e-009
6.081240e-009
6.415098e-009
6.029825e-009
2.431882e-009
-8.793497e-009
-3.468198e-008
-8.650549e-008
-1.826747e-007
-3.521197e-007
-6.362147e-007
-1.086354e-006
-1.752444e-006
-2.654569e-006
-3.729044e-006
-4.747337e-006
-5.227111e-006
-4.383730e-006
-1.188405e-006
5.417407e-006
1.615871e-005
3.099439e-005
4.875128e-005
6.696629e-005
8.204708e-005
8.976775e-005
8.596475e-005
6.723882e-005
3.147799e-005
-2.192651e-005
-9.218069e-005
-1.774059e-004
-2.750436e-004
-3.822460e-004
-4.961964e-004
-6.143346e-004
-7.344781e-004
-8.548513e-004
-9.740429e-004
-1.090926e-003
-1.204574e-003
-1.314195e-003
-1.419096e-003
-1.518673e-003
-1.612425e-003
-1.699967e-003
-1.781040e-003
-1.855511e-003
-1.923356e-003
-1.984641e-003
-2.039488e-003
-2.088046e-003
-2.130467e-003
-2.166878e-003
-2.197375e-003
-2.222005e-003
-2.240762e-003
-2.253573e-003
-2.260281e-003
-2.260604e-003
-2.254074e-003
-2.239944e-003
-2.217066e-003
-2.183743e-003
-2.137590e-003
-2.075451e-003
-1.993454e-003
-1.887318e-003
-1.753028e-003
-1.587922e-003
-1.392106e-003
-1.169853e-003
-9.304176e-004
-6.876844e-004
-4.583650e-004
-2.590033e-004
-1.025410e-004
4.627665e-006
6.411403e-005
8.463733e-005
7.892104e-005
5.993230e-005
3.796649e-005
1.929764e-005
6.425260e-006
-7.817552e-007
-3.764598e-006
-4.225132e-006
-3.530714e-006
-2.532758e-006
-1.640417e-006
-9.821408e-007
-5.495764e-007
-2.881653e-007
-1.407897e-007
-6.293882e-008
-2.454555e-008
-7.111446e-009
-3.826452e-011
2.385111e-009
3.013109e-009
6.954388e-009
6.870790e-009
4.409492e-009
-4.995913e-009
-2.851990e-008
-7.745676e-008
-1.705351e-007
-3.384093e-007
-6.270920e-007
-1.096615e-006
-1.808612e-006
-2.791450e-006
-3.967012e-006
-5.029579e-006
-5.297836e-006
-3.617094e-006
1.557604e-006
1.176672e-005
2.779880e-005
4.870910e-005
7.090055e-005
8.767746e-005
8.972263e-005
6.662038e-005
9.042042e-006
-8.903192e-005
-2.288779e-004
-4.068793e-004
-6.154432e-004
-8.444414e-004
-1.082731e-003
-1.319491e-003
-1.545234e-003
-1.752412e-003
-1.935610e-003
-2.091383e-003
-2.217897e-003
-2.314515e-003
-2.381472e-003
-2.419666e-003
-2.430555e-003
-2.416103e-003
-2.378726e-003
-2.321204e-003
-2.246550e-003
-2.157854e-003
-2.058133e-003
-1.950217e-003
-1.836673e-003
-1.719804e-003
-1.601680e-003
-1.484229e-003
-1.369342e-003
-1.258997e-003
-1.155375e-003
-1.060971e-003
-9.786708e-004
-9.117947e-004
-8.640917e-004
-8.396667e-004
-8.428151e-004
-8.777253e-004
-9.479932e-004
-1.055869e-003
-1.201153e-003
-1.379681e-003
-1.581474e-003
-1.788907e-003
-1.975747e-003
-2.108458e-003
-2.151344e-003
-2.075999e-003
-1.872857e-003
-1.559491e-003
-1.179609e-003
-7.909216e-004
-4.475413e-004
-1.859104e-004
-1.861803e-005
6.410218e-005
8.599901e-005
7.386069e-005
4.946461e-005
2.616579e-005
9.591231e-006
2.896515e-007
-3.561422e-006
-4.241840e-006
-3.532133e-006
-2.483916e-006
-1.567279e-006
-9.113799e-007
-4.942290e-007
-2.504299e-007
-1.176081e-007
-4.990075e-008
-1.777175e-008
-3.810390e-009
1.562277e-009
3.229591e-009
7.575759e-009
5.922762e-009
-1.192998e-009
-2.099512e-008
-6.467058e-008
-1.503573e-007
-3.085318e-007
-5.873892e-007
-1.053662e-006
-1.781248e-006
-2.813149e-006
-4.072789e-006
-5.201812e-006
-5.337729e-006
-2.934613e-006
4.150732e-006
1.802022e-005
3.934867e-005
6.534488e-005
8.761325e-005
9.100212e-005
5.493217e-005
-4.223283e-005
-2.165836e-004
-4.720679e-004
-7.970996e-004
-1.165164e-003
-1.538596e-003
-1.875176e-003
-2.136246e-003
-2.293751e-003
-2.333947e-003
-2.257206e-003
-2.074767e-003
-1.804105e-003
-1.464643e-003
-1.074884e-003
-6.511099e-004
-2.072178e-004
2.449534e-004
6.952536e-004
1.135030e-003
1.557121e-003
1.955941e-003
2.327534e-003
2.669534e-003
2.980998e-003
3.262141e-003
3.514023e-003
3.738234e-003
3.936611e-003
4.111013e-003
4.263153e-003
4.394491e-003
4.506166e-003
4.598945e-003
4.673183e-003
4.728748e-003
4.764887e-003
4.780006e-003
4.771306e-003
4.734260e-003
4.661883e-003
4.543827e-003
4.365389e-003
4.106761e-003
3.743204e-003
3.247457e-003
2.596314e-003
1.783312e-003
8.372343e-004
-1.597012e-004
-1.068413e-003
-1.722280e-003
-1.993913e-003
-1.868223e-003
-1.460246e-003
-9.501149e-004
-4.917601e-004
-1.668171e-004
1.294057e-005
8.040008e-005
8.227142e-005
5.785355e-005
3.095166e-005
1.145715e-005
7.216526e-007
-3.546878e-006
-4.220253e-006
-3.426476e-006
-2.337037e-006
-1.427814e-006
-8.031737e-007
-4.206771e-007
-2.051619e-007
-9.195770e-008
-3.639878e-008
-1.111818e-008
-7.011747e-010
2.827071e-009
6.922173e-009
1.915327e-009
-1.359263e-008
-5.020297e-008
-1.250798e-007
-2.669653e-007
-5.232621e-007
-9.640426e-007
-1.674118e-006
-2.716629e-006
-4.037559e-006
-5.271724e-006
-5.442659e-006
-2.666916e-006
5.817221e-006
2.277287e-005
4.871065e-005
7.812341e-005
9.503893e-005
7.037034e-005
-3.479053e-005
-2.575754e-004
-6.144428e-004
-1.082194e-003
-1.587953e-003
-2.013843e-003
-2.226769e-003
-2.128498e-003
-1.694608e-003
-9.768661e-004
-7.470728e-005
9.011732e-004
1.856165e-003
2.724905e-003
3.472187e-003
4.086493e-003
4.571266e-003
4.937448e-003
5.198610e-003
5.368480e-003
5.460046e-003
5.485424e-003
5.455941e-003
5.382176e-003
5.273880e-003
5.139833e-003
4.987710e-003
4.824012e-003
4.654098e-003
4.482306e-003
4.312140e-003
4.146511e-003
3.987969e-003
3.838952e-003
3.701993e-003
3.579910e-003
3.475960e-003
3.393960e-003
3.338376e-003
3.314370e-003
3.327789e-003
3.385046e-003
3.492812e-003
3.657334e-003
3.883109e-003
4.170444e-003
4.511283e-003
4.882607e-003
5.237138e-003
5.492597e-003
5.524449e-003
5.173933e-003
4.292170e-003
2.841174e-003
1.027697e-003
-6.631885e-004
-1.697439e-003
-1.875506e-003
-1.451759e-003
-8.475231e-004
-3.500398e-004
-5.442547e-005
6.749674e-005
8.587149e-005
6.224218e-005
3.274853e-005
1.154320e-005
3.678693e-007
-3.726332e-006
-4.143567e-006
-3.212477e-006
-2.104541e-006
-1.238222e-006
-6.712485e-007
-3.383175e-007
-1.579258e-007
-6.676840e-008
-2.383798e-008
-5.325032e-009
1.279564e-009
3.218135e-009
-7.508088e-009
-3.633636e-008
-9.833806e-008
-2.194884e-007
-4.437929e-007
-8.403915e-007
-1.501130e-006
-2.511003e-006
-3.857294e-006
-5.223158e-006
-5.625967e-006
-2.984682e-006
6.003622e-006
2.488619e-005
5.431152e-005
8.597107e-005
9.445881e-005
3.171272e-005
-1.662031e-004
-5.515025e-004
-1.114719e-003
-1.730129e-003
-2.132007e-003
-1.994611e-003
-1.142175e-003
2.957212e-004
1.958487e-003
3.469881e-003
4.595946e-003
5.268388e-003
5.528692e-003
5.465631e-003
5.174859e-003
4.739225e-003
4.222181e-003
3.668372e-003
3.107422e-003
2.558351e-003
2.033267e-003
1.539906e-003
1.083133e-003
6.657186e-004
2.887396e-004
-4.816236e-005
-3.465287e-004
-6.087960e-004
-8.379871e-004
-1.037413e-003
-1.210415e-003
-1.360172e-003
-1.489560e-003
-1.601074e-003
-1.696789e-003
-1.778353e-003
-1.846978e-003
-1.903440e-003
-1.948034e-003
-1.980498e-003
-1.999846e-003
-2.004094e-003
-1.989807e-003
-1.951418e-003
-1.880213e-003
-1.762910e-003
-1.579819e-003
-1.302786e-003
-8.937123e-004
-3.055416e-004
5.104695e-004
1.584932e-003
2.889879e-003
4.272857e-003
5.383020e-003
5.672184e-003
4.635272e-003
2.349469e-003
-1.704169e-004
-1.646229e-003
-1.756987e-003
-1.155350e-003
-5.154428e-004
-1.121292e-004
5.694617e-005
8.671597e-005
6.241437e-005
3.123862e-005
9.833290e-006
-6.455645e-007
-3.992204e-006
-3.969352e-006
-2.894111e-006
-1.807861e-006
-1.019911e-006
-5.309462e-007
-2.563409e-007
-1.135562e-007
-4.436750e-008
-1.352913e-008
-2.145646e-009
-5.982070e-009
-2.529879e-008
-7.360642e-008
-1.721152e-007
-3.592108e-007
-6.988891e-007
-1.284128e-006
-2.218010e-006
-3.538312e-006
-5.023088e-006
-5.803990e-006
-3.810997e-006
4.592728e-006
2.380168e-005
5.529376e-005
8.926070e-005
9.159842e-005
-6.881579e-006
-2.999082e-004
-8.497532e-004
-1.570851e-003
-2.092599e-003
-1.781916e-003
-2.394482e-004
2.106560e-003
4.257566e-003
5.464058e-003
5.592134e-003
4.919718e-003
3.823430e-003
2.605225e-003
1.452016e-003
4.556515e-004
-3.550152e-004
-9.870856e-004
-1.464464e-003
-1.815819e-003
-2.068132e-003
-2.244063e-003
-2.361546e-003
-2.434398e-003
-2.473225e-003
-2.486249e-003
-2.479941e-003
-2.459460e-003
-2.428938e-003
-2.391676e-003
-2.350289e-003
-2.306828e-003
-2.262891e-003
-2.219728e-003
-2.178336e-003
-2.139553e-003
-2.104138e-003
-2.072837e-003
-2.046447e-003
-2.025869e-003
-2.012152e-003
-2.006530e-003
-2.010459e-003
-2.025633e-003
-2.053983e-003
-2.097622e-003
-2.158690e-003
-2.238985e-003
-2.339190e-003
-2.457318e-003
-2.585739e-003
-2.705679e-003
-2.777625e-003
-2.726078e-003
-2.420203e-003
-1.664149e-003
-2.410577e-004
1.907737e-003
4.331275e-003
5.817806e-003
4.996476e-003
2.020649e-003
-8.508910e-004
-1.813081e-003
-1.348231e-003
-6.139039e-004
-1.361100e-004
5.633607e-005
8.595300e-005
5.838531e-005
2.670846e-005
6.776783e-006
-1.973500e-006
-4.179176e-006
-3.659759e-006
-2.489287e-006
-1.476112e-006
-7.958957e-007
-3.963933e-007
-1.821557e-007
-7.558856e-008
-2.683336e-008
-8.396400e-009
-2.357353e-008
-5.480613e-008
-1.300393e-007
-2.789165e-007
-5.561474e-007
-1.049055e-006
-1.870192e-006
-3.104130e-006
-4.646443e-006
-5.838975e-006
-4.849135e-006
1.961746e-006
1.969136e-005
5.140871e-005
8.837074e-005
9.205877e-005
-2.477499e-005
-3.880973e-004
-1.070765e-003
-1.865823e-003
-2.008199e-003
-4.731374e-004
2.532462e-003
5.122104e-003
5.766305e-003
4.579577e-003
2.569946e-003
6.185972e-004
-8.597020e-004
-1.806216e-003
-2.323494e-003
-2.545926e-003
-2.585364e-003
-2.520115e-003
-2.400259e-003
-2.256006e-003
-2.104696e-003
-1.955756e-003
-1.813955e-003
-1.681437e-003
-1.558942e-003
-1.446496e-003
-1.343781e-003
-1.250323e-003
-1.165570e-003
-1.088941e-003
-1.019840e-003
-9.576754e-004
-9.018799e-004
-8.519268e-004
-8.073487e-004
-7.677547e-004
-7.328453e-004
-7.024255e-004
-6.764174e-004
-6.548728e-004
-6.379889e-004
-6.261287e-004
-6.198512e-004
-6.199553e-004
-6.275437e-004
-6.441162e-004
-6.717023e-004
-7.130466e-004
-7.718616e-004
-8.531528e-004
-9.636067e-004
-1.111955e-003
-1.309054e-003
-1.566937e-003
-1.894961e-003
-2.288688e-003
-2.702549e-003
-2.992565e-003
-2.826542e-003
-1.645320e-003
1.003376e-003
4.401835e-003
5.976336e-003
3.762140e-003
-1.882420e-005
-1.756530e-003
-1.413875e-003
-6.185588e-004
-1.162948e-004
6.603847e-005
8.265157e-005
5.036899e-005
2.002380e-005
3.147380e-006
-3.192963e-006
-4.144840e-006
-3.209662e-006
-2.032446e-006
-1.141661e-006
-5.867373e-007
-2.782771e-007
-1.207381e-007
-4.701622e-008
-1.861836e-008
-5.259909e-008
-9.950676e-008
-2.104061e-007
-4.261117e-007
-8.210753e-007
-1.505828e-006
-2.597004e-006
-4.101339e-006
-5.613614e-006
-5.714647e-006
-1.147263e-006
1.345350e-005
4.304612e-005
8.269545e-005
9.647575e-005
-1.136258e-005
-3.971862e-004
-1.162655e-003
-1.997179e-003
-1.691320e-003
1.051736e-003
4.709394e-003
5.898648e-003
3.984099e-003
1.009208e-003
-1.263010e-003
-2.406998e-003
-2.723477e-003
-2.603239e-003
-2.308890e-003
-1.976743e-003
-1.665655e-003
-1.395377e-003
-1.168329e-003
-9.802754e-004
-8.251157e-004
-6.968417e-004
-5.902387e-004
-5.010433e-004
-4.258829e-004
-3.621347e-004
-3.077705e-004
-2.612132e-004
-2.212195e-004
-1.867898e-004
-1.571039e-004
-1.314766e-004
-1.093294e-004
-9.017179e-005
-7.358979e-005
-5.923779e-005
-4.683277e-005
-3.614964e-005
-2.701750e-005
-1.931700e-005
-1.297897e-005
-7.985398e-006
-4.373572e-006
-2.245057e-006
-1.781977e-006
-3.274180e-006
-7.163003e-006
-1.411049e-005
-2.510808e-005
-4.164689e-005
-6.598509e-005
-1.015689e-004
-1.536949e-004
-2.305400e-004
-3.446979e-004
-5.152521e-004
-7.698648e-004
-1.144539e-003
-1.673524e-003
-2.348871e-003
-3.004128e-003
-3.074291e-003
-1.452634e-003
2.411866e-003
5.840662e-003
4.611162e-003
3.463438e-004
-1.749602e-003
-1.358993e-003
-5.286150e-004
-6.128640e-005
7.901547e-005
7.480188e-005
3.918780e-005
1.249702e-005
-2.091002e-007
-3.966522e-006
-3.831621e-006
-2.655719e-006
-1.568271e-006
-8.338292e-007
-4.073148e-007
-1.831732e-007
-7.602313e-008
-3.410741e-008
-9.591572e-008
-1.626670e-007
-3.191219e-007
-6.200315e-007
-1.161420e-006
-2.070981e-006
-3.437459e-006
-5.092115e-006
-6.102663e-006
-3.904672e-006
6.503263e-006
3.147153e-005
7.132004e-005
9.967494e-005
2.694769e-005
-3.219824e-004
-1.105783e-003
-2.021796e-003
-1.531897e-003
1.995588e-003
5.694542e-003
5.071811e-003
1.363633e-003
-1.659822e-003
-2.781385e-003
-2.697585e-003
-2.189298e-003
-1.644843e-003
-1.191726e-003
-8.475956e-004
-5.956602e-004
-4.134848e-004
-2.817943e-004
-1.860427e-004
-1.157997e-004
-6.373085e-005
-2.470677e-005
4.862175e-006
2.749523e-005
4.496835e-005
5.854269e-005
6.912455e-005
7.737680e-005
8.379513e-005
8.875940e-005
9.256736e-005
9.545663e-005
9.761908e-005
9.921059e-005
1.003581e-004
1.011649e-004
1.017156e-004
1.020796e-004
1.023149e-004
1.024710e-004
1.025913e-004
1.027150e-004
1.028783e-004
1.031144e-004
1.034523e-004
1.039126e-004
1.044999e-004
1.051883e-004
1.058947e-004
1.064314e-004
1.064207e-004
1.051391e-004
1.012307e-004
9.217100e-005
7.326713e-005
3.582447e-005
-3.607501e-005
-1.707457e-004
-4.156504e-004
-8.411620e-004
-1.523449e-003
-2.452121e-003
-3.234416e-003
-2.552019e-003
1.219324e-003
5.633042e-003
4.654202e-003
5.577679e-005
-1.802901e-003
-1.179227e-003
-3.689300e-004
5.866461e-006
8.565807e-005
6.151991e-005
2.653534e-005
5.553939e-006
-2.650683e-006
-4.151321e-006
-3.280645e-006
-2.063302e-006
-1.140030e-006
-5.735377e-007
-2.660379e-007
-1.158238e-007
-5.623089e-008
-1.558605e-007
-2.469520e-007
-4.596131e-007
-8.647467e-007
-1.578993e-006
-2.732856e-006
-4.334733e-006
-5.902137e-006
-5.699206e-006
3.341684e-007