# vtk DataFile Version 3.0
vtk output
ASCII
DATASET STRUCTURED_POINTS
DIMENSIONS 100 100 1
SPACING 1 1 1
ORIGIN 0 0 0
POINT_DATA 10000
SCALARS SFBox_profile double
LOOKUP_TABLE default 
0.000000e+000
0.000000e+000
0.000000e+000
0.000000e+000
0.000000e+000
0.000000e+000
0.000000e+000
0.000000e+000
0.000000e+000
0.000000e+000
0.000000e+000
0.000000e+000
0.000000e+000
0.000000e+000
0.000000e+000
0.000000e+000
0.000000e+000
0.000000e+000
0.000000e+000
0.000000e+000
0.000000e+000
0.000000e+000
0.000000e+000
0.000000e+000
0.000000e+000
0.000000e+000
0.000000e+000
0.000000e+000
0.000000e+000
0.000000e+000
0.000000e+000
0.000000e+000
0.000000e+000
0.000000e+000
0.000000e+000
0.000000e+000
0.000000e+000
0.000000e+000
0.000000e+000
0.000000e+000
0.000000e+000
0.000000e+000
0.000000e+000
0.000000e+000
0.000000e+000
0.000000e+000
0.000000e+000
0.000000e+000
0.000000e+000
0.000000e+000
0.000000e+000
0.000000e+000
0.000000e+000
0.000000e+000
0.000000e+000
0.000000e+000
0.000000e+000
0.000000e+000
0.000000e+000
0.000000e+000
0.000000e+000
0.000000e+000
0.000000e+000
0.000000e+000
0.000000e+000
0.000000e+000
0.000000e+000
0.000000e+000
0.000000e+000
0.000000e+000
0.000000e+000
0.000000e+000
0.000000e+000
0.000000e+000
0.000000e+000
0.000000e+000
0.000000e+000
0.000000e+000
0.000000e+000
0.000000e+000
0.000000e+000
0.000000e+000
0.000000e+000
0.000000e+000
0.000000e+000
0.000000e+000
0.000000e+000
0.000000e+000
0.000000e+000
0.000000e+000
0.000000e+000
0.000000e+000
0.000000e+000
0.000000e+000
0.000000e+000
0.000000e+000
0.000000e+000
0.000000e+000
0.000000e+000
0.000000e+000
3.025007e-009
1.313959e-009
-9.042636e-010
-2.293819e-009
-2.268392e-009
-1.202856e-009
7.270749e-011
9.685603e-010
1.418685e-009
1.606112e-009
1.526523e-009
9.058473e-010
-4.178590e-010
-2.061513e-009
-3.135932e-009
-2.841196e-009
-1.133215e-009
1.153053e-009
2.871872e-009
3.348850e-009
2.720054e-009
1.606586e-009
5.131522e-010
-4.720128e-010
-1.478028e-009
-2.473873e-009
-3.158710e-009
-3.216988e-009
-2.628259e-009
-1.690617e-009
-7.523459e-010
4.921514e-011
7.895900e-010
1.552620e-009
2.276275e-009
2.805646e-009
3.058723e-009
3.102648e-009
3.068451e-009
3.020502e-009
2.927105e-009
2.742865e-009
2.488906e-009
2.240154e-009
2.049789e-009
1.907881e-009
1.776741e-009
1.650046e-009
1.562290e-009
1.543815e-009
1.583411e-009
1.645613e-009
1.717613e-009
1.823168e-009
1.983987e-009
2.178199e-009
2.352386e-009
2.475921e-009
2.567517e-009
2.652925e-009
2.701585e-009
2.627511e-009
2.367597e-009
1.948540e-009
1.453764e-009
9.209489e-010
2.995945e-010
-4.591602e-010
-1.272568e-009
-1.921460e-009
-2.207000e-009
-2.108983e-009
-1.762985e-009
-1.277664e-009
-6.157290e-010
2.933126e-010
1.318242e-009
2.061745e-009
2.108752e-009
1.383857e-009
2.582255e-010
-7.223604e-010
-1.231506e-009
-1.301599e-009
-1.114190e-009
-7.238495e-010
-5.270334e-011
8.385233e-010
1.549361e-009
1.527913e-009
5.632481e-010
-8.750999e-010
-1.845539e-009
-1.612402e-009
-2.615805e-010
1.283219e-009
1.910818e-009
1.156585e-009
-4.303019e-010
-1.682955e-009
6.341860e-010
1.055010e-010
-4.799486e-010
-6.319041e-010
-2.358024e-010
3.689246e-010
6.768366e-010
4.301332e-010
-1.794667e-010
-6.793688e-010
-7.036677e-010
-2.685156e-010
2.863704e-010
6.099104e-010
6.073989e-010
4.331400e-010
2.590766e-010
8.448153e-011
-2.145805e-010
-6.677729e-010
-1.082474e-009
-1.166042e-009
-7.858550e-010
-1.010815e-010
5.684764e-010
9.997573e-010
1.194991e-009
1.279458e-009
1.311669e-009
1.219197e-009
9.095411e-010
4.078052e-010
-1.399274e-010
-5.925322e-010
-9.219028e-010
-1.192265e-009
-1.453695e-009
-1.679096e-009
-1.805690e-009
-1.816311e-009
-1.761086e-009
-1.702561e-009
-1.656858e-009
-1.597224e-009
-1.505079e-009
-1.401303e-009
-1.323672e-009
-1.285076e-009
-1.265967e-009
-1.246651e-009
-1.234972e-009
-1.254112e-009
-1.308405e-009
-1.373268e-009
-1.423303e-009
-1.461556e-009
-1.509311e-009
-1.566660e-009
-1.595540e-009
-1.552571e-009
-1.434549e-009
-1.277105e-009
-1.102378e-009
-8.806877e-010
-5.629497e-010
-1.544090e-010
2.603742e-010
5.823120e-010
7.835087e-010
9.097694e-010
9.909489e-010
9.691840e-010
7.473067e-010
3.190688e-010
-1.686467e-010
-5.107524e-010
-6.092079e-010
-5.337114e-010
-4.143892e-010
-2.927766e-010
-1.051033e-010
1.839948e-010
4.624421e-010
5.273923e-010
2.830635e-010
-1.261477e-010
-4.052532e-010
-3.554166e-010
-4.732536e-011
2.440718e-010
2.817543e-010
6.302234e-011
-1.984400e-010
-2.714971e-010
-1.019683e-010
1.579513e-010
2.901277e-010
1.895414e-010
-6.078847e-011
-2.640145e-010
-2.155825e-009
-1.144370e-009
2.815011e-010
1.428708e-009
1.885751e-009
1.613680e-009
7.872066e-010
-3.668567e-010
-1.564632e-009
-2.383577e-009
-2.334782e-009
-1.168006e-009
8.095310e-010
2.737192e-009
3.637308e-009
3.009222e-009
1.134493e-009
-1.132570e-009
-2.899369e-009
-3.676541e-009
-3.455100e-009
-2.491649e-009
-1.075981e-009
5.369421e-010
2.078662e-009
3.257822e-009
3.849723e-009
3.797284e-009
3.213885e-009
2.287620e-009
1.183374e-009
1.811629e-011
-1.109309e-009
-2.101163e-009
-2.883470e-009
-3.433581e-009
-3.773486e-009
-3.936756e-009
-3.947593e-009
-3.828732e-009
-3.616321e-009
-3.355725e-009
-3.082413e-009
-2.812789e-009
-2.555017e-009
-2.323171e-009
-2.135906e-009
-2.003757e-009
-1.924308e-009
-1.892107e-009
-1.909151e-009
-1.981350e-009
-2.106510e-009
-2.271214e-009
-2.461062e-009
-2.669149e-009
-2.889273e-009
-3.101990e-009
-3.273029e-009
-3.367827e-009
-3.363514e-009
-3.242631e-009
-2.979171e-009
-2.541472e-009
-1.916252e-009
-1.128862e-009
-2.375792e-010
6.865426e-010
1.563813e-009
2.289506e-009
2.731040e-009
2.768028e-009
2.354051e-009
1.546096e-009
4.805152e-010
-6.650619e-010
-1.678917e-009
-2.311673e-009
-2.331512e-009
-1.657278e-009
-4.763910e-010
7.836112e-010
1.653474e-009
1.856756e-009
1.409311e-009
5.421419e-010
-4.380406e-010
-1.224999e-009
-1.533614e-009
-1.173955e-009
-2.132730e-010
9.168848e-010
1.566002e-009
1.271150e-009
1.496176e-010
-1.081948e-009
-1.566565e-009
-9.408256e-010
3.564652e-010
1.380384e-009
-3.149089e-009
-1.275722e-009
1.078786e-009
2.416318e-009
2.177048e-009
9.250158e-010
-3.354426e-010
-1.007139e-009
-1.173842e-009
-1.187254e-009
-1.113009e-009
-6.519647e-010
3.998139e-010
1.687305e-009
2.393315e-009
1.887113e-009
3.259381e-010
-1.387003e-009
-2.280737e-009
-2.023373e-009
-1.047961e-009
-6.240319e-011
5.354197e-010
8.148710e-010
1.011616e-009
1.176533e-009
1.141971e-009
7.709188e-010
1.618670e-010
-4.158154e-010
-7.572702e-010
-8.635597e-010
-8.659127e-010
-8.551957e-010
-8.093240e-010
-6.657466e-010
-4.231071e-010
-1.530813e-010
7.155564e-011
2.370858e-010
3.763262e-010
5.148032e-010
6.429582e-010
7.362809e-010
7.881187e-010
8.157134e-010
8.392267e-010
8.625412e-010
8.755892e-010
8.706438e-010
8.522080e-010
8.307395e-010
8.088292e-010
7.758664e-010
7.178651e-010
6.321533e-010
5.292408e-010
4.172027e-010
2.864903e-010
1.178762e-010
-8.954833e-011
-3.032421e-010
-4.800227e-010
-6.053398e-010
-6.978200e-010
-7.635499e-010
-7.538545e-010
-5.932614e-010
-2.657923e-010
1.370934e-010
4.782715e-010
6.898687e-010
8.048536e-010
8.559364e-010
7.648623e-010
3.887191e-010
-2.825693e-010
-9.919029e-010
-1.340297e-009
-1.101550e-009
-4.243227e-010
2.949258e-010
7.458722e-010
9.005650e-010
8.850559e-010
7.145280e-010
2.449509e-010
-5.602370e-010
-1.355583e-009
-1.526491e-009
-7.082314e-010
7.454535e-010
1.860457e-009
1.747168e-009
3.640831e-010
-1.339649e-009
-2.096667e-009
-1.307185e-009
4.597821e-010
1.877404e-009
-1.784520e-009
-2.648604e-010
1.387618e-009
1.764161e-009
5.919204e-010
-1.098911e-009
-1.882164e-009
-1.121072e-009
5.569812e-010
1.845753e-009
1.845121e-009
7.004759e-010
-6.864220e-010
-1.500020e-009
-1.586272e-009
-1.299234e-009
-9.207391e-010
-3.394330e-010
6.825100e-010
2.007769e-009
3.002909e-009
2.989922e-009
1.831376e-009
5.978161e-011
-1.563085e-009
-2.602000e-009
-3.102423e-009
-3.291200e-009
-3.225403e-009
-2.762885e-009
-1.815953e-009
-5.474137e-010
7.163784e-010
1.736824e-009
2.497202e-009
3.105810e-009
3.616666e-009
3.972352e-009
4.099515e-009
4.015687e-009
3.823042e-009
3.614592e-009
3.409813e-009
3.181387e-009
2.923112e-009
2.674960e-009
2.486123e-009
2.369757e-009
2.302783e-009
2.264543e-009
2.264666e-009
2.328490e-009
2.460547e-009
2.631694e-009
2.806257e-009
2.975980e-009
3.156161e-009
3.343572e-009
3.486960e-009
3.513715e-009
3.389217e-009
3.136447e-009
2.783364e-009
2.299512e-009
1.614004e-009
7.167569e-010
-2.702905e-010
-1.153208e-009
-1.807730e-009
-2.238617e-009
-2.476133e-009
-2.436324e-009
-1.948195e-009
-9.686029e-010
2.443933e-010
1.233933e-009
1.668204e-009
1.565528e-009
1.185868e-009
7.222887e-010
1.563779e-010
-5.541244e-010
-1.201600e-009
-1.358262e-009
-7.697588e-010
2.795582e-010
1.073039e-009
1.029730e-009
2.262768e-010
-6.411977e-010
-8.520843e-010
-2.795783e-010
5.236621e-010
8.328976e-010
3.829612e-010
-4.255965e-010
-8.940828e-010
-6.231160e-010
1.656089e-010
8.274202e-010
6.427725e-010
8.346917e-010
7.697298e-010
4.834968e-011
-1.193250e-009
-2.203834e-009
-2.090494e-009
-5.515339e-010
1.713057e-009
3.333773e-009
3.193045e-009
1.249696e-009
-1.404773e-009
-3.314414e-009
-3.620810e-009
-2.464747e-009
-6.223620e-010
1.156092e-009
2.488548e-009
3.227330e-009
3.213019e-009
2.305852e-009
6.518527e-010
-1.202369e-009
-2.580149e-009
-3.112740e-009
-2.917144e-009
-2.360732e-009
-1.691971e-009
-9.164660e-010
1.813179e-011
1.006232e-009
1.802801e-009
2.234181e-009
2.340738e-009
2.296727e-009
2.220135e-009
2.090104e-009
1.836747e-009
1.467931e-009
1.081736e-009
7.691524e-010
5.351684e-010
3.242033e-010
1.037837e-010
-9.737486e-011
-2.315009e-010
-2.915121e-010
-3.149057e-010
-3.335651e-010
-3.351825e-010
-2.823976e-010
-1.627801e-010
-5.715485e-012
1.557496e-010
3.299215e-010
5.578037e-010
8.552218e-010
1.176403e-009
1.450816e-009
1.654042e-009
1.820703e-009
1.970986e-009
2.036842e-009
1.893113e-009
1.478466e-009
8.686130e-010
2.045374e-010
-4.449889e-010
-1.109479e-009
-1.779597e-009
-2.272170e-009
-2.297186e-009
-1.704074e-009
-6.550937e-010
4.726619e-010
1.357237e-009
1.882170e-009
2.031648e-009
1.719934e-009
8.351877e-010
-4.996993e-010
-1.769718e-009
-2.294985e-009
-1.725033e-009
-3.585482e-010
1.029453e-009
1.717085e-009
1.474860e-009
5.994282e-010
-3.817829e-010
-1.026799e-009
-1.117871e-009
-6.656811e-010
1.049291e-010
7.954857e-010
9.964914e-010
5.549552e-010
-2.585218e-010
-8.880774e-010
2.339350e-009
1.013526e-009
-6.485254e-010
-1.630273e-009
-1.603675e-009
-9.399631e-010
-1.671648e-010
4.833135e-010
1.022205e-009
1.354000e-009
1.170592e-009
2.898361e-010
-9.457674e-010
-1.746985e-009
-1.482910e-009
-2.636625e-010
1.089226e-009
1.686853e-009
1.236736e-009
1.490923e-010
-9.116582e-010
-1.525018e-009
-1.630684e-009
-1.313773e-009
-6.224707e-010
3.779033e-010
1.468181e-009
2.308448e-009
2.650031e-009
2.492240e-009
2.012351e-009
1.366505e-009
5.917201e-010
-3.110079e-010
-1.256327e-009
-2.083288e-009
-2.678720e-009
-3.058520e-009
-3.313547e-009
-3.495794e-009
-3.580415e-009
-3.532180e-009
-3.378828e-009
-3.200053e-009
-3.054142e-009
-2.936405e-009
-2.814349e-009
-2.687574e-009
-2.596741e-009
-2.575881e-009
-2.612707e-009
-2.667143e-009
-2.722108e-009
-2.799625e-009
-2.920128e-009
-3.057019e-009
-3.147673e-009
-3.151107e-009
-3.078963e-009
-2.955548e-009
-2.755188e-009
-2.403850e-009
-1.857222e-009
-1.165322e-009
-4.391563e-010
2.450667e-010
8.820888e-010
1.461491e-009
1.877795e-009
1.962670e-009
1.632481e-009
9.906182e-010
2.617704e-010
-3.678326e-010
-8.204632e-010
-1.049489e-009
-9.616643e-010
-4.945454e-010
2.152280e-010
8.062460e-010
9.186623e-010
4.858513e-010
-2.042472e-010
-7.433069e-010
-8.896387e-010
-6.434327e-010
-1.229029e-010
5.267883e-010
1.075611e-009
1.172654e-009
5.527236e-010
-6.072834e-010
-1.590650e-009
-1.582343e-009
-3.891241e-010
1.226434e-009
2.030669e-009
1.317158e-009
-4.351665e-010
-1.878641e-009
2.444140e-009
2.775407e-010
-1.997942e-009
-2.379847e-009
-6.307551e-010
1.651169e-009
2.525816e-009
1.353585e-009
-8.251091e-010
-2.341865e-009
-2.288982e-009
-1.015646e-009
4.999182e-010
1.576202e-009
2.131745e-009
2.274044e-009
1.858684e-009
6.129847e-010
-1.341433e-009
-3.247331e-009
-4.128797e-009
-3.505303e-009
-1.715268e-009
4.191258e-010
2.197818e-009
3.352185e-009
3.903362e-009
3.886598e-009
3.284149e-009
2.162815e-009
7.623494e-010
-6.090844e-010
-1.750998e-009
-2.623093e-009
-3.251186e-009
-3.631471e-009
-3.741596e-009
-3.609174e-009
-3.324846e-009
-2.979028e-009
-2.606286e-009
-2.203037e-009
-1.783580e-009
-1.396052e-009
-1.082314e-009
-8.412727e-010
-6.452662e-010
-4.853535e-010
-3.850434e-010
-3.675071e-010
-4.236038e-010
-5.245508e-010
-6.611560e-010
-8.550951e-010
-1.125298e-009
-1.453815e-009
-1.797719e-009
-2.131500e-009
-2.460418e-009
-2.781940e-009
-3.044732e-009
-3.164283e-009
-3.081689e-009
-2.791890e-009
-2.306808e-009
-1.611708e-009
-6.913437e-010
3.909864e-010
1.463291e-009
2.317425e-009
2.808206e-009
2.868102e-009
2.448887e-009
1.520213e-009
1.866550e-010
-1.208857e-009
-2.183064e-009
-2.396902e-009
-1.871633e-009
-9.200961e-010
1.155756e-010
1.018763e-009
1.611696e-009
1.642298e-009
9.282555e-010
-3.111858e-010
-1.364820e-009
-1.471581e-009
-5.049290e-010
7.815350e-010
1.312690e-009
6.342011e-010
-6.369970e-010
-1.331461e-009
-7.830514e-010
5.462030e-010
1.464298e-009
1.120976e-009
-2.187421e-010
-1.400142e-009
1.276204e-009
-5.033575e-010
-2.149204e-009
-1.834596e-009
4.908039e-010
2.991357e-009
3.491373e-009
1.341842e-009
-1.993151e-009
-4.115696e-009
-3.596342e-009
-9.770868e-010
1.872807e-009
3.316018e-009
2.999560e-009
1.654261e-009
1.512235e-010
-1.124127e-009
-2.113249e-009
-2.621754e-009
-2.270417e-009
-9.438452e-010
8.517993e-010
2.227955e-009
2.563609e-009
1.917435e-009
8.320944e-010
-1.905843e-010
-9.920655e-010
-1.628568e-009
-2.091183e-009
-2.235634e-009
-1.952327e-009
-1.318940e-009
-5.474923e-010
1.892035e-010
8.467053e-010
1.447515e-009
1.984322e-009
2.408506e-009
2.689897e-009
2.851892e-009
2.941413e-009
2.984571e-009
2.984179e-009
2.948100e-009
2.900356e-009
2.862184e-009
2.835762e-009
2.814434e-009
2.800753e-009
2.803373e-009
2.818286e-009
2.824670e-009
2.802964e-009
2.747449e-009
2.652653e-009
2.494323e-009
2.238576e-009
1.872751e-009
1.415074e-009
8.873195e-010
2.933603e-010
-3.523672e-010
-9.752791e-010
-1.446966e-009
-1.663829e-009
-1.611219e-009
-1.329660e-009
-8.314383e-010
-1.050433e-010
7.583084e-010
1.474571e-009
1.689112e-009
1.252614e-009
3.711104e-010
-5.517121e-010
-1.218129e-009
-1.550290e-009
-1.522625e-009
-1.002787e-009
9.253540e-011
1.449830e-009
2.303810e-009
1.942087e-009
3.962491e-010
-1.393163e-009
-2.226894e-009
-1.596530e-009
-7.758935e-011
1.184669e-009
1.407183e-009
6.931423e-010
-2.263457e-010
-6.815820e-010
-5.381909e-010
-1.303728e-010
1.486701e-010
1.748501e-010
9.654008e-011
-3.954193e-010
-5.943169e-010
-6.386782e-010
-1.720898e-010
7.630570e-010
1.577671e-009
1.498193e-009
2.763534e-010
-1.377811e-009
-2.194784e-009
-1.398359e-009
5.070985e-010
2.037761e-009
1.955244e-009
3.205357e-010
-1.596068e-009
-2.423717e-009
-1.743688e-009
-1.774024e-010
1.362370e-009
2.371388e-009
2.787711e-009
2.595616e-009
1.648828e-009
-5.981628e-011
-2.095015e-009
-3.713096e-009
-4.360610e-009
-4.022110e-009
-3.082863e-009
-1.915019e-009
-6.442993e-010
7.306827e-010
2.111292e-009
3.268787e-009
4.019429e-009
4.366887e-009
4.451381e-009
4.392920e-009
4.214745e-009
3.900836e-009
3.480379e-009
3.032696e-009
2.627006e-009
2.282508e-009
1.987282e-009
1.737249e-009
1.547416e-009
1.435338e-009
1.406364e-009
1.454493e-009
1.569812e-009
1.744148e-009
1.975164e-009
2.265131e-009
2.607749e-009
2.972620e-009
3.310751e-009
3.582859e-009
3.774111e-009
3.865349e-009
3.791977e-009
3.457986e-009
2.814563e-009
1.918341e-009
8.887087e-010
-1.901184e-010
-1.285531e-009
-2.306696e-009
-3.011380e-009
-3.102724e-009
-2.474949e-009
-1.351196e-009
-1.374814e-010
8.611786e-010
1.546934e-009
1.869211e-009
1.671937e-009
8.361613e-010
-3.969022e-010
-1.366795e-009
-1.428776e-009
-5.362170e-010
6.371861e-010
1.224983e-009
8.675984e-010
-6.553986e-011
-8.740993e-010
-1.088324e-009
-6.897777e-010
4.926213e-011
7.835578e-010
1.168949e-009
9.252826e-010
4.699089e-011
-1.004887e-009
-1.479440e-009
-9.136636e-010
3.745498e-010
1.431862e-009
-1.949989e-009
-1.062651e-010
1.730840e-009
1.876844e-009
3.162754e-010
-1.481414e-009
-2.039544e-009
-1.096643e-009
4.725334e-010
1.648803e-009
2.009704e-009
1.630284e-009
6.224011e-010
-9.288441e-010
-2.594277e-009
-3.471056e-009
-2.740050e-009
-4.647841e-010
2.244594e-009
3.980091e-009
4.020977e-009
2.662100e-009
7.221636e-010
-1.128700e-009
-2.579106e-009
-3.448274e-009
-3.515954e-009
-2.681480e-009
-1.198618e-009
3.910121e-010
1.614112e-009
2.336745e-009
2.689368e-009
2.794245e-009
2.629724e-009
2.141967e-009
1.405713e-009
6.161393e-010
-6.488058e-011
-6.137801e-010
-1.094790e-009
-1.542281e-009
-1.919343e-009
-2.177062e-009
-2.320551e-009
-2.403799e-009
-2.473948e-009
-2.535535e-009
-2.565727e-009
-2.551364e-009
-2.505475e-009
-2.451249e-009
-2.393255e-009
-2.304801e-009
-2.146098e-009
-1.898742e-009
-1.579523e-009
-1.211707e-009
-7.834235e-010
-2.523174e-010
3.905794e-010
1.067204e-009
1.646284e-009
2.039569e-009
2.242385e-009
2.256830e-009
1.997569e-009
1.335317e-009
2.742033e-010
-9.359895e-010
-1.915238e-009
-2.397828e-009
-2.343059e-009
-1.815945e-009
-8.463925e-010
4.924525e-010
1.867514e-009
2.678929e-009
2.428986e-009
1.167435e-009
-4.598390e-010
-1.652372e-009
-1.971002e-009
-1.477070e-009
-5.042398e-010
5.651352e-010
1.319616e-009
1.348804e-009
5.249990e-010
-6.761204e-010
-1.329912e-009
-8.094584e-010
5.145800e-010
1.442629e-009
1.016912e-009
-4.839675e-010
-1.689075e-009
-1.402405e-009
2.048946e-010
1.690688e-009
-2.838928e-009
2.894121e-010
3.281073e-009
3.141544e-009
-9.253017e-011
-3.536826e-009
-4.197302e-009
-1.589980e-009
2.076131e-009
4.031003e-009
3.213748e-009
7.151022e-010
-1.589816e-009
-2.596277e-009
-2.345057e-009
-1.352490e-009
6.409829e-012
1.430944e-009
2.374858e-009
2.192591e-009
7.426430e-010
-1.273156e-009
-2.730022e-009
-2.897483e-009
-1.862358e-009
-2.411983e-010
1.383714e-009
2.716033e-009
3.599817e-009
3.852144e-009
3.345545e-009
2.192877e-009
7.380808e-010
-6.745539e-010
-1.894602e-009
-2.929850e-009
-3.778967e-009
-4.360853e-009
-4.604837e-009
-4.554746e-009
-4.345243e-009
-4.086615e-009
-3.799594e-009
-3.461203e-009
-3.085177e-009
-2.737219e-009
-2.479913e-009
-2.322714e-009
-2.232831e-009
-2.186330e-009
-2.198872e-009
-2.305168e-009
-2.513309e-009
-2.785381e-009
-3.066940e-009
-3.333161e-009
-3.595253e-009
-3.851649e-009
-4.038460e-009
-4.047933e-009
-3.807746e-009
-3.330586e-009
-2.668623e-009
-1.830735e-009
-7.860530e-010
4.232571e-010
1.594945e-009
2.440408e-009
2.766215e-009
2.567338e-009
1.943264e-009
9.831828e-010
-1.937936e-010
-1.296982e-009
-1.879590e-009
-1.622981e-009
-6.427593e-010
5.329564e-010
1.327982e-009
1.461642e-009
9.709931e-010
3.455019e-011
-1.072128e-009
-1.864088e-009
-1.737233e-009
-4.627114e-010
1.330904e-009
2.375053e-009
1.760076e-009
-1.395934e-010
-1.824261e-009
-1.937914e-009
-5.006900e-010
1.115044e-009
1.483872e-009
4.466195e-010
-8.300881e-010
-1.072491e-009
-1.529746e-010
8.606028e-010
-2.407669e-009
1.940197e-010
2.692013e-009
2.583513e-009
-9.905517e-011
-2.873764e-009
-3.160338e-009
-6.800120e-010
2.320503e-009
3.181503e-009
1.248076e-009
-1.655767e-009
-3.010038e-009
-1.820968e-009
7.651850e-010
2.754207e-009
2.999410e-009
1.738107e-009
-1.312293e-010
-1.915809e-009
-3.267041e-009
-3.830788e-009
-3.180585e-009
-1.241373e-009
1.364995e-009
3.590159e-009
4.646194e-009
4.431876e-009
3.354024e-009
1.864024e-009
2.235025e-010
-1.389623e-009
-2.735960e-009
-3.576050e-009
-3.839134e-009
-3.656144e-009
-3.212965e-009
-2.608582e-009
-1.866397e-009
-1.035574e-009
-2.253786e-010
4.665254e-010
1.025847e-009
1.500451e-009
1.920729e-009
2.262498e-009
2.487770e-009
2.600954e-009
2.648504e-009
2.666168e-009
2.639962e-009
2.526227e-009
2.304476e-009
1.998846e-009
1.641945e-009
1.225727e-009
7.044476e-010
5.458536e-011
-6.774157e-010
-1.401233e-009
-2.052267e-009
-2.611196e-009
-3.039899e-009
-3.219993e-009
-2.997666e-009
-2.309034e-009
-1.245405e-009
1.485016e-011
1.304575e-009
2.454081e-009
3.202084e-009
3.226393e-009
2.371155e-009
8.635657e-010
-7.517542e-010
-1.937772e-009
-2.424348e-009
-2.179274e-009
-1.261679e-009
1.330056e-010
1.481122e-009
2.011038e-009
1.263079e-009
-3.284992e-010
-1.565386e-009
-1.436436e-009
-6.111864e-011
1.353557e-009
1.587157e-009
4.955115e-010
-9.262795e-010
-1.509807e-009
-9.241592e-010
1.861043e-010
9.153410e-010
8.739339e-010
3.462150e-010
-1.472995e-010
-3.442395e-010
-3.452805e-010
-3.341376e-010
-1.338656e-010
1.061281e-010
1.723213e-010
1.313868e-011
-1.005696e-010
1.990778e-010
8.374354e-010
1.087321e-009
1.927371e-010
-1.630558e-009
-2.973320e-009
-2.338719e-009
3.361858e-010
3.323398e-009
4.441039e-009
2.876768e-009
-2.277241e-010
-2.875905e-009
-3.795892e-009
-3.043308e-009
-1.404541e-009
4.325292e-010
2.078602e-009
3.152099e-009
3.191329e-009
2.009738e-009
2.330274e-011
-1.937411e-009
-3.187625e-009
-3.551481e-009
-3.233199e-009
-2.463062e-009
-1.340367e-009
5.075736e-011
1.514969e-009
2.808266e-009
3.795755e-009
4.498198e-009
4.990483e-009
5.299246e-009
5.414019e-009
5.360808e-009
5.220394e-009
5.069233e-009
4.927414e-009
4.778967e-009
4.629157e-009
4.520276e-009
4.488988e-009
4.525328e-009
4.587720e-009
4.653092e-009
4.735038e-009
4.844614e-009
4.944385e-009
4.958305e-009
4.828212e-009
4.543596e-009
4.104592e-009
3.473196e-009
2.595225e-009
1.484384e-009
2.648207e-010
-8.897578e-010
-1.843746e-009
-2.496392e-009
-2.707890e-009
-2.311329e-009
-1.280642e-009
1.107675e-010
1.367709e-009
2.064252e-009
2.058533e-009
1.432469e-009
3.209263e-010
-1.066639e-009
-2.257001e-009
-2.552898e-009
-1.528030e-009
4.167655e-010
2.119798e-009
2.489082e-009
1.388441e-009
-2.823623e-010
-1.382177e-009
-1.402674e-009
-6.518427e-010
2.210177e-010
7.340395e-010
7.109262e-010
2.112206e-010
-4.703827e-010
-8.319236e-010
-4.782255e-010
4.255774e-010
1.119017e-009
8.855297e-010
-1.854327e-010
-1.171538e-009
2.609726e-009
-2.130188e-010
-2.862737e-009
-2.738347e-009
-5.683029e-011
2.675588e-009
3.225031e-009
1.479900e-009
-9.542669e-010
-2.462731e-009
-2.511253e-009
-1.429529e-009
2.342098e-010
1.862912e-009
2.631701e-009
1.835699e-009
-3.371208e-010
-2.541934e-009
-3.152937e-009
-1.608788e-009
1.101945e-009
3.294118e-009
3.881578e-009
2.900099e-009
1.027598e-009
-1.106301e-009
-3.093924e-009
-4.520122e-009
-4.908213e-009
-4.028375e-009
-2.167582e-009
2.805673e-011
1.997319e-009
3.531482e-009
4.661311e-009
5.405682e-009
5.702617e-009
5.537633e-009
5.038746e-009
4.401564e-009
3.751214e-009
3.108827e-009
2.471721e-009
1.879848e-009
1.390807e-009
1.020584e-009
7.399317e-010
5.255629e-010
3.911307e-010
3.604302e-010
4.288070e-010
5.702980e-010
7.782135e-010
1.077724e-009
1.489162e-009
1.992502e-009
2.543540e-009
3.116561e-009
3.703915e-009
4.261363e-009
4.674855e-009
4.809859e-009
4.592382e-009
4.017137e-009
3.079094e-009
1.753772e-009
1.073071e-010
-1.578739e-009
-2.865043e-009
-3.401489e-009
-3.123254e-009
-2.198116e-009
-8.427604e-010
7.074633e-010
2.044703e-009
2.577267e-009
1.904401e-009
2.977976e-010
-1.293421e-009
-1.888446e-009
-1.221798e-009
1.194738e-010
1.242968e-009
1.578520e-009
1.057450e-009
-5.203209e-011
-1.252579e-009
-1.852232e-009
-1.282467e-009
2.960783e-010
1.777374e-009
1.876101e-009
3.891843e-010
-1.386915e-009
-1.782589e-009
-4.403785e-010
1.243316e-009
1.528598e-009
1.675861e-010
-1.329489e-009
4.566151e-009
2.604473e-011
-4.268424e-009
-4.172903e-009
-1.205707e-010
3.727838e-009
3.829484e-009
5.268284e-010
-2.770922e-009
-3.156139e-009
-7.473807e-010
1.993078e-009
2.850175e-009
1.551212e-009
-6.618463e-010
-2.446935e-009
-3.118803e-009
-2.473704e-009
-5.682498e-010
2.045415e-009
4.170540e-009
4.544018e-009
2.807818e-009
-1.316558e-010
-2.785557e-009
-4.124476e-009
-4.010681e-009
-2.840640e-009
-1.033997e-009
1.074053e-009
3.060519e-009
4.416723e-009
4.828122e-009
4.388470e-009
3.469491e-009
2.397883e-009
1.293949e-009
1.792883e-010
-8.635275e-010
-1.695048e-009
-2.244299e-009
-2.566490e-009
-2.765110e-009
-2.892041e-009
-2.942306e-009
-2.918480e-009
-2.861897e-009
-2.817775e-009
-2.796913e-009
-2.786974e-009
-2.785920e-009
-2.803238e-009
-2.831843e-009
-2.840253e-009
-2.799584e-009
-2.700052e-009
-2.524260e-009
-2.216954e-009
-1.711095e-009
-9.931319e-010
-1.221702e-010
8.276420e-010
1.814459e-009
2.774837e-009
3.525693e-009
3.783957e-009
3.348609e-009
2.270955e-009
8.211038e-010
-6.952960e-010
-2.025458e-009
-2.875055e-009
-2.861844e-009
-1.756807e-009
1.468118e-010
1.999267e-009
2.887702e-009
2.457344e-009
1.081624e-009
-5.058284e-010
-1.657331e-009
-1.962815e-009
-1.262986e-009
1.728153e-010
1.489178e-009
1.639672e-009
3.292441e-010
-1.416273e-009
-1.956360e-009
-6.186399e-010
1.447583e-009
2.255603e-009
9.745543e-010
-1.153338e-009
-2.048369e-009
-9.404439e-010
8.703556e-010
1.466677e-009
3.844279e-010
-9.683295e-010
3.853881e-009
2.011005e-010
-3.192428e-009
-3.017660e-009
1.651186e-010
2.762201e-009
2.014705e-009
-1.176390e-009
-3.305704e-009
-1.958649e-009
1.733752e-009
4.299554e-009
3.359331e-009
-2.539668e-010
-3.567241e-009
-4.264886e-009
-2.354352e-009
4.838094e-010
2.591900e-009
3.262167e-009
2.516409e-009
6.663509e-010
-1.672575e-009
-3.477813e-009
-3.728092e-009
-2.138026e-009
5.693432e-010
3.199378e-009
4.888867e-009
5.425447e-009
4.980126e-009
3.761693e-009
1.983148e-009
-4.128614e-012
-1.749249e-009
-2.940503e-009
-3.559410e-009
-3.773961e-009
-3.723715e-009
-3.445421e-009
-2.967484e-009
-2.394979e-009
-1.865346e-009
-1.449375e-009
-1.129677e-009
-8.668662e-010
-6.557031e-010
-5.129915e-010
-4.402660e-010
-4.213360e-010
-4.473185e-010
-5.246295e-010
-6.606323e-010
-8.602806e-010
-1.139751e-009
-1.520503e-009
-1.990412e-009
-2.480083e-009
-2.897859e-009
-3.182968e-009
-3.295694e-009
-3.150173e-009
-2.602672e-009
-1.564165e-009
-1.358394e-010
1.398799e-009
2.729229e-009
3.635602e-009
3.947225e-009
3.477366e-009
2.147976e-009
2.460058e-010
-1.529229e-009
-2.423627e-009
-2.121329e-009
-9.078204e-010
5.988663e-010
1.790253e-009
2.183306e-009
1.470762e-009
-2.106744e-010
-2.003506e-009
-2.643785e-009
-1.470403e-009
7.545595e-010
2.268441e-009
1.848005e-009
1.981597e-012
-1.492892e-009
-1.330960e-009
8.810265e-011
1.195681e-009
9.293473e-010
-2.574438e-010
-1.040118e-009
-6.932474e-010
2.375088e-010
6.846604e-010
2.780337e-010
-3.333806e-010
5.070757e-010
3.528464e-011
-2.721073e-010
4.271788e-011
6.245331e-010
5.528188e-010
-5.970124e-010
-1.958162e-009
-1.951007e-009
3.498703e-011
2.598572e-009
3.347808e-009
1.254541e-009
-2.075012e-009
-3.727666e-009
-2.202538e-009
1.210096e-009
3.705512e-009
3.464926e-009
9.179317e-010
-2.095311e-009
-3.968448e-009
-4.131877e-009
-2.758642e-009
-2.856433e-010
2.625583e-009
5.014207e-009
5.955884e-009
5.150538e-009
3.121923e-009
7.843510e-010
-1.163454e-009
-2.455427e-009
-3.062749e-009
-2.989079e-009
-2.301207e-009
-1.236468e-009
-1.451457e-010
7.031754e-010
1.226063e-009
1.452531e-009
1.400315e-009
1.060540e-009
4.702897e-010
-2.536626e-010
-9.679650e-010
-1.570060e-009
-2.007752e-009
-2.248007e-009
-2.261615e-009
-2.035893e-009
-1.586850e-009
-9.595354e-010
-2.306185e-010
4.899461e-010
1.082379e-009
1.459916e-009
1.583003e-009
1.424872e-009
9.471614e-010
1.512594e-010
-8.344866e-010
-1.751890e-009
-2.331868e-009
-2.415087e-009
-1.949361e-009
-9.215267e-010
6.052273e-010
2.336377e-009
3.703272e-009
4.116210e-009
3.349925e-009
1.692105e-009
-2.664823e-010
-1.924799e-009
-2.774828e-009
-2.437480e-009
-9.134212e-010
1.087460e-009
2.307878e-009
1.826804e-009
-2.613570e-011
-1.761850e-009
-1.967812e-009
-5.635689e-010
1.180192e-009
1.856526e-009
1.121457e-009
-2.259178e-010
-1.132061e-009
-1.129640e-009
-4.594818e-010
3.241414e-010
7.435502e-010
5.948486e-010
3.538532e-011
-4.762143e-010
-5.041201e-010
-4.351162e-011
4.321596e-010
-3.469551e-009
-2.349304e-010
2.869481e-009
3.024852e-009
5.605770e-010
-1.913065e-009
-2.351878e-009
-9.055123e-010
8.707209e-010
1.681509e-009
1.210994e-009
-1.697991e-010
-1.711107e-009
-2.356998e-009
-1.228282e-009
1.411085e-009
3.812926e-009
3.922223e-009
1.244374e-009
-2.504580e-009
-4.759395e-009
-4.166586e-009
-1.392993e-009
1.802997e-009
3.994703e-009
4.671227e-009