# vtk DataFile Version 3.0
vtk output
ASCII
DATASET STRUCTURED_POINTS
DIMENSIONS 100 100 1
SPACING 1 1 1
ORIGIN 0 0 0
POINT_DATA 10000
SCALARS SFBox_profile double
LOOKUP_TABLE default 
0.000000e+000
0.000000e+000
0.000000e+000
0.000000e+000
0.000000e+000
0.000000e+000
0.000000e+000
0.000000e+000
0.000000e+000
0.000000e+000
0.000000e+000
0.000000e+000
0.000000e+000
0.000000e+000
0.000000e+000
0.000000e+000
0.000000e+000
0.000000e+000
0.000000e+000
0.000000e+000
0.000000e+000
0.000000e+000
0.000000e+000
0.000000e+000
0.000000e+000
0.000000e+000
0.000000e+000
0.000000e+000
0.000000e+000
0.000000e+000
0.000000e+000
0.000000e+000
0.000000e+000
0.000000e+000
0.000000e+000
0.000000e+000
0.000000e+000
0.000000e+000
0.000000e+000
0.000000e+000
0.000000e+000
0.000000e+000
0.000000e+000
0.000000e+000
0.000000e+000
0.000000e+000
0.000000e+000
0.000000e+000
0.000000e+000
0.000000e+000
0.000000e+000
0.000000e+000
0.000000e+000
0.000000e+000
0.000000e+000
0.000000e+000
0.000000e+000
0.000000e+000
0.000000e+000
0.000000e+000
0.000000e+000
0.000000e+000
0.000000e+000
0.000000e+000
0.000000e+000
0.000000e+000
0.000000e+000
0.000000e+000
0.000000e+000
0.000000e+000
0.000000e+000
0.000000e+000
0.000000e+000
0.000000e+000
0.000000e+000
0.000000e+000
0.000000e+000
0.000000e+000
0.000000e+000
0.000000e+000
0.000000e+000
0.000000e+000
0.000000e+000
0.000000e+000
0.000000e+000
0.000000e+000
0.000000e+000
0.000000e+000
0.000000e+000
0.000000e+000
0.000000e+000
0.000000e+000
0.000000e+000
0.000000e+000
0.000000e+000
0.000000e+000
0.000000e+000
0.000000e+000
0.000000e+000
0.000000e+000
3.442909e-010
1.297016e-010
-1.152586e-010
-2.138480e-010
-1.591456e-010
-7.147840e-011
-2.648681e-011
2.408524e-011
1.489799e-010
2.985521e-010
3.211428e-010
1.271097e-010
-1.928846e-010
-4.336040e-010
-4.480718e-010
-2.453467e-010
5.592726e-011
3.270334e-010
4.806901e-010
4.804740e-010
3.571982e-010
2.130319e-010
1.581950e-010
2.133256e-010
2.965929e-010
3.355552e-010
3.730870e-010
5.182088e-010
7.888132e-010
1.054250e-009
1.173294e-009
1.162698e-009
1.174337e-009
1.301876e-009
1.466325e-009
1.530391e-009
1.488284e-009
1.477193e-009
1.596825e-009
1.780119e-009
1.885605e-009
1.882653e-009
1.881978e-009
1.979008e-009
2.126716e-009
2.203542e-009
2.174265e-009
2.126032e-009
2.142200e-009
2.193194e-009
2.186217e-009
2.094198e-009
1.987425e-009
1.935793e-009
1.921799e-009
1.875178e-009
1.769658e-009
1.649901e-009
1.564188e-009
1.502020e-009
1.413972e-009
1.275276e-009
1.108785e-009
9.508614e-010
8.149602e-010
6.930303e-010
5.778808e-010
4.747196e-010
3.980939e-010
3.640683e-010
3.759106e-010
4.056982e-010
3.975330e-010
3.092154e-010
1.565793e-010
1.693965e-012
-1.121712e-010
-1.982388e-010
-2.795907e-010
-3.165216e-010
-2.208457e-010
3.086640e-011
3.161491e-010
4.398353e-010
3.094078e-010
2.718296e-011
-2.050350e-010
-2.659251e-010
-1.895711e-010
-7.868749e-011
1.591766e-011
1.067073e-010
1.857533e-010
1.832148e-010
4.285499e-011
-1.733363e-010
-2.961856e-010
-1.966265e-010
7.358386e-011
3.035266e-010
3.020291e-010
1.488411e-010
-1.372034e-011
-5.431235e-011
1.287379e-011
6.483376e-011
2.114147e-011
-7.168485e-011
-1.106170e-010
-6.036808e-011
2.011111e-011
6.383805e-011
7.143743e-011
8.571801e-011
1.182505e-010
1.362527e-010
1.200035e-010
9.864855e-011
1.111756e-010
1.554973e-010
2.059877e-010
2.711461e-010
3.937216e-010
5.791736e-010
7.577136e-010
8.543122e-010
8.860194e-010
9.483925e-010
1.094152e-009
1.262429e-009
1.360447e-009
1.393029e-009
1.462211e-009
1.631285e-009
1.835450e-009
1.962734e-009
1.998186e-009
2.037290e-009
2.152447e-009
2.295181e-009
2.364421e-009
2.343430e-009
2.318850e-009
2.361595e-009
2.435769e-009
2.455343e-009
2.403394e-009
2.350581e-009
2.355506e-009
2.388543e-009
2.378205e-009
2.307969e-009
2.231144e-009
2.192646e-009
2.170506e-009
2.111425e-009
2.002612e-009
1.882174e-009
1.783826e-009
1.697226e-009
1.591410e-009
1.458925e-009
1.320313e-009
1.192890e-009
1.072498e-009
9.466920e-010
8.114361e-010
6.694681e-010
5.242617e-010
3.854934e-010
2.722813e-010
1.974806e-010
1.510220e-010
1.127931e-010
8.389923e-011
8.846961e-011
1.324576e-010
1.731684e-010
1.527202e-010
6.559497e-011
-2.595543e-011
-5.754216e-011
-3.314184e-011
-1.225165e-011
-2.991093e-011
-5.282306e-011
-2.834919e-011
3.813315e-011
8.005726e-011
4.835479e-011
-2.563438e-011
-6.249303e-011
-2.500545e-011
4.024636e-011
5.713294e-011
5.686419e-012
-5.728910e-011
-6.219949e-011
-2.249193e-012
6.016729e-011
1.035286e-010
5.446463e-011
2.506972e-011
6.976571e-011
1.566991e-010
1.888163e-010
9.692415e-011
-9.213829e-011
-2.753523e-010
-3.490422e-010
-2.647741e-010
-3.754185e-011
2.635734e-010
5.231227e-010
6.141306e-010
4.784785e-010
1.951771e-010
-5.218616e-011
-1.080219e-010
4.344100e-011
2.996537e-010
5.609530e-010
8.086805e-010
1.064033e-009
1.306826e-009
1.474171e-009
1.538072e-009
1.549143e-009
1.583092e-009
1.662185e-009
1.754031e-009
1.837791e-009
1.936985e-009
2.074970e-009
2.225061e-009
2.333145e-009
2.382113e-009
2.405889e-009
2.434570e-009
2.451178e-009
2.420954e-009
2.347612e-009
2.273690e-009
2.225414e-009
2.182514e-009
2.115234e-009
2.033380e-009
1.976953e-009
1.963367e-009
1.966781e-009
1.956391e-009
1.936922e-009
1.935484e-009
1.957690e-009
1.976973e-009
1.969526e-009
1.942476e-009
1.916959e-009
1.894718e-009
1.857581e-009
1.797450e-009
1.729668e-009
1.669598e-009
1.607730e-009
1.520117e-009
1.397949e-009
1.252528e-009
1.090253e-009
8.985423e-010
6.685303e-010
4.251223e-010
2.204406e-010
9.499818e-011
5.365009e-011
8.058295e-011
1.632902e-010
2.871678e-010
4.101757e-010
4.618046e-010
3.834466e-010
1.755604e-010
-9.249222e-011
-3.158352e-010
-4.032781e-010
-3.176218e-010
-9.693715e-011
1.536831e-010
3.097072e-010
2.974010e-010
1.387218e-010
-6.680899e-011
-2.081362e-010
-2.232386e-010
-1.183909e-010
4.614106e-011
1.824730e-010
2.108011e-010
1.056692e-010
-7.392221e-011
-2.108431e-010
-2.166779e-010
-1.530294e-010
-5.502004e-011
4.174077e-011
1.137760e-010
1.464295e-010
1.238755e-010
3.663669e-011
-9.489842e-011
-2.084978e-010
-2.224574e-010
-8.675993e-011
1.687730e-010
4.294473e-010
5.562357e-010
4.870100e-010
3.021083e-010
1.815631e-010
2.685167e-010
5.543353e-010
8.976949e-010
1.161207e-009
1.326094e-009
1.471791e-009
1.658939e-009
1.855665e-009
1.983093e-009
2.011949e-009
1.992464e-009
1.991519e-009
2.019548e-009
2.028027e-009
1.967433e-009
1.833870e-009
1.660618e-009
1.476582e-009
1.279803e-009
1.047863e-009
7.687781e-010
4.604795e-010
1.597655e-010
-1.093325e-010
-3.550153e-010
-6.012614e-010
-8.513516e-010
-1.074763e-009
-1.236230e-009
-1.332472e-009
-1.389050e-009
-1.420042e-009
-1.403697e-009
-1.307904e-009
-1.132733e-009
-9.129444e-010
-6.765144e-010
-4.149855e-010
-1.061804e-010
2.409863e-010
5.805939e-010
8.723501e-010
1.117574e-009
1.341662e-009
1.546675e-009
1.697034e-009
1.757829e-009
1.736223e-009
1.671848e-009
1.587680e-009
1.464038e-009
1.269860e-009
1.013773e-009
7.523564e-010
5.445726e-010
4.050138e-010
3.079248e-010
2.324631e-010
1.918489e-010
2.095336e-010
2.688422e-010
2.975576e-010
2.173163e-010
2.034255e-011
-2.006445e-010
-3.099524e-010
-2.350272e-010
-2.935017e-011
1.685366e-010
2.450364e-010
1.884811e-010
6.726534e-011
-5.075957e-011
-1.409139e-010
-1.904830e-010
-1.611118e-010
-2.214944e-011
1.731649e-010
2.820712e-010
1.878982e-010
-6.644988e-011
-2.845810e-010
-4.069545e-010
-2.569195e-010
-8.651349e-011
-1.737991e-011
-4.371284e-011
-5.844090e-011
1.793168e-011
1.541147e-010
2.490512e-010
2.350902e-010
1.339362e-010
2.808018e-011
-5.490992e-012
6.025982e-011
2.020205e-010
3.797317e-010
5.780358e-010
8.195883e-010
1.128244e-009
1.471180e-009
1.749885e-009
1.873001e-009
1.847860e-009
1.785266e-009
1.794583e-009
1.872121e-009
1.903658e-009
1.778974e-009
1.490956e-009
1.112107e-009
6.844132e-010
1.566496e-010
-5.570804e-010
-1.468757e-009
-2.487689e-009
-3.506456e-009
-4.500914e-009
-5.527991e-009
-6.627675e-009
-7.750187e-009
-8.796829e-009
-9.722021e-009
-1.056816e-008
-1.139019e-008
-1.216670e-008
-1.281064e-008
-1.326359e-008
-1.354993e-008
-1.372240e-008
-1.377336e-008
-1.362946e-008
-1.323513e-008
-1.261480e-008
-1.183580e-008
-1.092655e-008
-9.858865e-009
-8.614639e-009
-7.247161e-009
-5.859193e-009
-4.528514e-009
-3.273118e-009
-2.090928e-009
-1.015080e-009
-1.128430e-010
5.695464e-010
1.049155e-009
1.386918e-009
1.629188e-009
1.773822e-009
1.793753e-009
1.687528e-009
1.498635e-009
1.281385e-009
1.052168e-009
7.852194e-010
4.655165e-010
1.435591e-010
-7.667753e-011
-1.198486e-010
-1.389776e-011
1.246706e-010
1.888347e-010
1.654714e-010
1.196900e-010
1.016568e-010
8.656493e-011
1.952681e-011
-9.116534e-011
-1.558429e-010
-9.911341e-011
3.723473e-011
1.180686e-010
5.824238e-011
-7.381093e-011
-1.232890e-010
-2.390249e-011
1.190890e-010
1.425227e-010
1.247727e-011
-1.315794e-010
-3.025480e-010
-1.111761e-010
7.152338e-011
6.365529e-011
-1.068625e-010
-2.400406e-010
-1.701838e-010
8.664906e-011
3.711786e-010
5.245794e-010
4.886720e-010
3.137876e-010
1.215318e-010
5.748047e-011
2.260457e-010
6.238333e-010
1.133974e-009
1.607751e-009
1.961303e-009
2.189643e-009
2.299377e-009
2.261070e-009
2.045366e-009
1.680738e-009
1.230416e-009
6.954773e-010
-3.399477e-011
-1.100535e-009
-2.552707e-009
-4.319495e-009
-6.316757e-009
-8.552387e-009
-1.109637e-008
-1.395280e-008
-1.699935e-008
-2.007889e-008
-2.313432e-008
-2.621848e-008
-2.936680e-008
-3.249508e-008
-3.545313e-008
-3.816292e-008
-4.066065e-008
-4.298915e-008
-4.508428e-008
-4.680501e-008
-4.806446e-008
-4.888694e-008
-4.931900e-008
-4.931853e-008
-4.877105e-008
-4.760860e-008
-4.587388e-008
-4.365410e-008
-4.098358e-008
-3.784574e-008
-3.426465e-008
-3.036181e-008
-2.631000e-008
-2.225009e-008
-1.826999e-008
-1.445222e-008
-1.091299e-008
-7.780230e-009
-5.138413e-009
-2.999331e-009
-1.320235e-009
-4.417433e-011
8.723767e-010
1.460496e-009
1.760227e-009
1.836685e-009
1.766126e-009
1.597610e-009
1.332877e-009
9.608046e-010
5.222901e-010
1.319930e-010
-8.382709e-011
-8.200755e-011
6.611692e-011
2.382444e-010
3.488728e-010
3.729547e-010
3.050493e-010
1.346794e-010
-1.135288e-010
-3.327353e-010
-3.754921e-010
-1.826068e-010
1.278282e-010
3.301088e-010
2.796027e-010
4.084835e-011
-1.778550e-010
-2.193127e-010
-1.040066e-010
2.930277e-011
8.296090e-011
7.733756e-011
-7.191858e-011
1.108468e-010
2.727571e-010
2.296895e-010
8.119859e-012
-1.974675e-010
-2.236433e-010
-6.309337e-011
1.827763e-010
4.139752e-010
5.754462e-010
6.462189e-010
6.541630e-010
7.045452e-010
9.317713e-010
1.370125e-009
1.880425e-009
2.243965e-009
2.340861e-009
2.213464e-009
1.943213e-009
1.490822e-009
6.856859e-010
-6.413504e-010
-2.558071e-009
-5.076348e-009
-8.254756e-009
-1.220115e-008
-1.696460e-008
-2.246396e-008
-2.855530e-008
-3.515454e-008
-4.225587e-008
-4.982526e-008
-5.771764e-008
-6.573623e-008
-7.376066e-008
-8.177295e-008
-8.974426e-008
-9.753317e-008
-1.049338e-007
-1.118102e-007
-1.181363e-007
-1.238861e-007
-1.289267e-007
-1.330578e-007
-1.361457e-007
-1.381678e-007
-1.391136e-007
-1.388837e-007
-1.373275e-007
-1.343682e-007
-1.300511e-007
-1.244649e-007
-1.176611e-007
-1.096835e-007
-1.006610e-007
-9.083611e-008
-8.049935e-008
-6.992259e-008
-5.936308e-008
-4.910035e-008
-3.943117e-008
-3.061899e-008
-2.285387e-008
-1.624918e-008
-1.084779e-008
-6.617563e-009
-3.455639e-009
-1.218127e-009
2.492980e-010
1.108203e-009
1.533397e-009
1.688255e-009
1.676651e-009
1.529166e-009
1.252822e-009
8.950421e-010
5.499687e-010
3.030178e-010
1.800571e-010
1.519044e-010
1.722161e-010
1.974299e-010
1.824122e-010
9.049966e-011
-6.768056e-011
-2.118596e-010
-2.365911e-010
-1.021720e-010
1.135078e-010
2.633573e-010
2.449360e-010
7.896666e-011
-1.146679e-010
-2.145491e-010
-1.798546e-010
-5.665791e-011
7.514614e-011
1.543766e-010
5.514673e-012
1.235890e-010
2.353154e-010
2.376830e-010
1.532335e-010
7.192359e-011
3.261555e-011
1.375607e-011
2.948915e-011
1.677328e-010
4.919013e-010
9.364845e-010
1.355213e-009
1.675336e-009
1.953661e-009
2.248305e-009
2.466767e-009
2.392439e-009
1.861367e-009
8.576117e-010
-6.095181e-010
-2.705590e-009
-5.801876e-009
-1.028989e-008
-1.638466e-008
-2.411655e-008
-3.347269e-008
-4.448527e-008
-5.716648e-008
-7.140207e-008
-8.695965e-008
-1.036027e-007
-1.211610e-007
-1.394769e-007
-1.583189e-007
-1.773921e-007
-1.964322e-007
-2.152497e-007
-2.336636e-007
-2.514235e-007
-2.682366e-007
-2.838647e-007
-2.981524e-007
-3.109423e-007
-3.219948e-007
-3.310281e-007
-3.378224e-007
-3.422420e-007
-3.441500e-007
-3.433448e-007
-3.396188e-007
-3.328649e-007
-3.230961e-007
-3.103757e-007
-2.947833e-007
-2.764802e-007
-2.557864e-007
-2.331636e-007
-2.091367e-007
-1.842606e-007
-1.591521e-007
-1.344947e-007
-1.109622e-007
-8.912534e-008
-6.942928e-008
-5.221797e-008
-3.772102e-008
-2.599072e-008
-1.687504e-008
-1.008130e-008
-5.270337e-009
-2.090902e-009
-1.602541e-010
9.236447e-010
1.502431e-009
1.779256e-009
1.824755e-009
1.658117e-009
1.321945e-009
8.975384e-010
4.786614e-010
1.446947e-010
-5.498792e-011
-1.124644e-010
-6.341444e-011
3.092798e-011
1.129847e-010
1.468743e-010
1.207232e-010
4.820392e-011
-2.899082e-011
-5.899733e-011
-2.285544e-011
3.776503e-011
5.322092e-011
-7.984716e-013
-6.982305e-011
-7.538245e-011
-4.149161e-012
7.164237e-011
-5.295360e-011
-5.231948e-011
-4.875474e-011
-3.241061e-012
1.371071e-010
3.465302e-010
4.892339e-010
4.470223e-010
2.920291e-010
2.812059e-010
6.291474e-010
1.289135e-009
1.986923e-009
2.465179e-009
2.653701e-009
2.581131e-009
2.157717e-009
1.094051e-009
-9.759291e-010
-4.360192e-009
-9.347489e-009
-1.635548e-008
-2.596380e-008
-3.874142e-008
-5.502982e-008
-7.489668e-008
-9.827241e-008
-1.250814e-007
-1.552201e-007
-1.884409e-007
-2.243115e-007
-2.623068e-007
-3.019231e-007
-3.426955e-007
-3.841350e-007
-4.257003e-007
-4.668493e-007
-5.070965e-007
-5.460038e-007
-5.831333e-007
-6.180436e-007
-6.503298e-007
-6.796351e-007
-7.056029e-007
-7.278355e-007
-7.459222e-007
-7.594949e-007
-7.682240e-007
-7.717625e-007
-7.697366e-007
-7.618217e-007
-7.478197e-007
-7.276495e-007
-7.013035e-007
-6.688806e-007
-6.306957e-007
-5.873386e-007
-5.396158e-007
-4.884687e-007
-4.349830e-007
-3.804417e-007
-3.262818e-007
-2.739238e-007
-2.246145e-007
-1.793942e-007
-1.391230e-007
-1.044293e-007
-7.558350e-008
-5.244161e-008
-3.454467e-008
-2.128168e-008
-1.197151e-008
-5.854386e-009
-2.107516e-009
4.695559e-011
1.209187e-009
1.752585e-009
1.878793e-009
1.708287e-009
1.342149e-009
8.844778e-010
4.403861e-010
9.937139e-011
-8.468220e-011
-1.010076e-010
2.212848e-011
2.152331e-010
3.643786e-010
3.483623e-010
1.299499e-010
-1.743576e-010
-3.516149e-010
-2.683684e-010
-3.659861e-012
2.148054e-010
2.248315e-010
7.292754e-011
-6.441710e-011
-8.240853e-011
-3.803416e-011
3.193206e-011
-8.224973e-011
-2.213406e-010
-2.351710e-010
-8.950520e-012
4.129053e-010
8.162894e-010
9.925125e-010
9.561937e-010
9.639346e-010
1.276119e-009
1.888577e-009
2.505786e-009
2.761695e-009
2.422019e-009
1.338428e-009
-7.837208e-010
-4.544272e-009
-1.078332e-008
-2.039917e-008
-3.424843e-008
-5.317362e-008
-7.802256e-008
-1.095420e-007
-1.482032e-007
-1.941190e-007
-2.471137e-007
-3.068386e-007
-3.727974e-007
-4.442786e-007
-5.203186e-007
-5.997851e-007
-6.815259e-007
-7.644594e-007
-8.475620e-007
-9.298268e-007
-1.010275e-006
-1.088013e-006
-1.162260e-006
-1.232326e-006
-1.297570e-006
-1.357381e-006
-1.411175e-006
-1.458370e-006
-1.498391e-006
-1.530667e-006
-1.554644e-006
-1.569749e-006
-1.575373e-006
-1.570903e-006
-1.555816e-006
-1.529726e-006
-1.492354e-006
-1.443519e-006
-1.383241e-006
-1.311901e-006
-1.230301e-006
-1.139602e-006
-1.041267e-006
-9.371309e-007
-8.294765e-007
-7.209520e-007
-6.143081e-007
-5.121488e-007
-4.168245e-007
-3.303790e-007
-2.543965e-007
-1.897778e-007
-1.366372e-007
-9.442441e-008
-6.215563e-008
-3.857820e-008
-2.223986e-008
-1.157055e-008
-5.041042e-009
-1.333772e-009
5.691945e-010
1.393171e-009
1.618934e-009
1.535816e-009
1.300433e-009
9.965881e-010
6.768837e-010
3.834282e-010
1.622975e-010
6.462694e-011
1.088656e-010
2.249869e-010
2.640649e-010
1.169417e-010
-1.547854e-010
-3.385044e-010
-2.656417e-010
7.334365e-012
2.409934e-010
2.501590e-010
7.964205e-011
-7.382651e-011
-9.113249e-011
-3.805541e-011
3.078968e-010
1.954764e-010
2.196269e-011
-9.480930e-011
-1.090587e-011
3.339212e-010
8.422090e-010
1.328091e-009
1.684216e-009
1.968423e-009
2.297769e-009
2.641770e-009
2.713274e-009
2.035910e-009
6.067704e-011
-3.848663e-009
-1.058257e-008
-2.144020e-008
-3.810071e-008
-6.241156e-008
-9.614704e-008
-1.408699e-007
-1.978825e-007
-2.681594e-007
-3.522120e-007
-4.499542e-007
-5.606760e-007
-6.831364e-007
-8.156897e-007
-9.563697e-007
-1.102956e-006
-1.253094e-006
-1.404474e-006
-1.554988e-006
-1.702771e-006
-1.846172e-006
-1.983720e-006
-2.114157e-006
-2.236464e-006
-2.349838e-006
-2.453605e-006
-2.547156e-006
-2.629902e-006
-2.701279e-006
-2.760745e-006
-2.807771e-006
-2.841793e-006
-2.862172e-006
-2.868178e-006
-2.859052e-006
-2.834080e-006
-2.792609e-006
-2.734005e-006
-2.657658e-006
-2.563125e-006
-2.450337e-006
-2.319707e-006
-2.172139e-006
-2.009085e-006
-1.832738e-006
-1.646217e-006
-1.453535e-006
-1.259316e-006
-1.068467e-006
-8.859044e-007
-7.162696e-007
-5.635069e-007
-4.303953e-007
-3.182735e-007
-2.270846e-007
-1.556331e-007
-1.018760e-007
-6.319416e-008
-3.668891e-008
-1.950099e-008
-9.061886e-009
-3.217772e-009
-2.636400e-010
1.048997e-009
1.528872e-009
1.618941e-009
1.516607e-009
1.288040e-009
9.516721e-010
5.446342e-010
1.633423e-010
-6.663395e-011
-8.935295e-011
1.374355e-011
8.653258e-011
4.795982e-011
-3.569354e-011
-4.619794e-011
3.425143e-011
1.003712e-010
5.928951e-011
-4.766992e-011
-9.376449e-011
-2.619210e-011
6.667000e-011
3.780405e-010
4.622927e-010
5.197070e-010
4.670249e-010
3.751803e-010
4.409715e-010
8.219490e-010
1.493076e-009
2.256456e-009
2.870683e-009
3.139357e-009
2.840217e-009
1.535592e-009
-1.592270e-009
-7.793922e-009
-1.874229e-008
-3.655619e-008
-6.385665e-008
-1.037328e-007
-1.595066e-007
-2.343387e-007
-3.308408e-007
-4.508188e-007
-5.951192e-007
-7.634818e-007
-9.543945e-007
-1.165073e-006
-1.391669e-006
-1.629663e-006
-1.874266e-006
-2.120729e-006
-2.364566e-006
-2.601767e-006
-2.828978e-006
-3.043565e-006
-3.243569e-006
-3.427604e-006
-3.594809e-006
-3.744809e-006
-3.877639e-006
-3.993606e-006
-4.093148e-006
-4.176755e-006
-4.244937e-006
-4.298204e-006
-4.337026e-006
-4.361761e-006
-4.372595e-006
-4.369503e-006
-4.352252e-006
-4.320401e-006
-4.273230e-006
-4.209626e-006
-4.128014e-006
-4.026445e-006
-3.902788e-006
-3.754928e-006
-3.580971e-006
-3.379601e-006
-3.150622e-006
-2.895546e-006
-2.617944e-006
-2.323479e-006
-2.019686e-006
-1.715544e-006
-1.420765e-006
-1.144763e-006
-8.955162e-007
-6.786684e-007
-4.971001e-007
-3.509581e-007
-2.380279e-007
-1.543555e-007
-9.502372e-008
-5.490812e-008
-2.922529e-008
-1.381738e-008
-5.268503e-009
-9.563809e-010
9.568131e-010
1.631467e-009
1.727099e-009
1.568622e-009
1.270989e-009
8.577058e-010
3.815448e-010
-2.162137e-011
-2.022249e-010
-1.248792e-010
8.730950e-011
2.504626e-010
2.625293e-010
1.520801e-010
9.724499e-012
-9.903195e-011
-1.525275e-010
-1.424404e-010
-6.507474e-011
5.162360e-011
1.403794e-010
-6.489371e-011
3.204213e-010
8.166204e-010
1.104364e-009
1.094543e-009
1.016178e-009
1.225403e-009
1.880909e-009
2.754379e-009
3.312381e-009
2.924001e-009
9.018643e-010
-3.759179e-009
-1.277874e-008
-2.883174e-008
-5.551794e-008
-9.719502e-008
-1.588358e-007
-2.458604e-007
-3.637368e-007
-5.172591e-007
-7.096851e-007
-9.420332e-007
-1.212701e-006
-1.517370e-006
-1.849141e-006
-2.198957e-006
-2.556393e-006
-2.910691e-006
-3.251747e-006
-3.570811e-006
-3.860848e-006
-4.116687e-006
-4.335068e-006
-4.514552e-006
-4.655301e-006
-4.758785e-006
-4.827535e-006
-4.864933e-006
-4.874997e-006
-4.862132e-006
-4.830891e-006
-4.785829e-006
-4.731417e-006
-4.671982e-006
-4.611652e-006
-4.554298e-006
-4.503461e-006
-4.462224e-006
-4.433047e-006
-4.417527e-006
-4.416078e-006
-4.427530e-006
-4.448717e-006
-4.474219e-006
-4.496308e-006
-4.505138e-006
-4.489228e-006
-4.436366e-006
-4.334990e-006
-4.175875e-006
-3.953794e-006
-3.668859e-006
-3.327289e-006
-2.941393e-006
-2.528517e-006
-2.108995e-006
-1.703428e-006
-1.329953e-006
-1.002077e-006
-7.274800e-007
-5.079241e-007
-3.401964e-007
-2.177196e-007
-1.323083e-007
-7.559254e-008
-3.992403e-008
-1.885106e-008
-7.311203e-009
-1.609844e-009
7.802103e-010
1.498335e-009
1.528319e-009
1.351552e-009
1.099119e-009
7.585268e-010
3.655159e-010
5.692454e-011
-3.504948e-011
8.257668e-011
2.515141e-010
2.922893e-010
1.525286e-010
-6.295261e-011
-1.981817e-010
-1.812813e-010
-6.711543e-011
3.645576e-011
7.256605e-011
6.649520e-011
-5.749238e-010
-4.522081e-011
7.524362e-010
1.454014e-009
1.839256e-009
1.995913e-009
2.226796e-009
2.708426e-009
3.150564e-009
2.714264e-009
1.504350e-010
-6.169838e-009
-1.858994e-008
-4.073524e-008
-7.790489e-008
-1.370171e-007
-2.261930e-007
-3.541957e-007
-5.297160e-007
-7.602581e-007
-1.050515e-006
-1.400559e-006
-1.804473e-006
-2.249934e-006
-2.718842e-006
-3.188824e-006
-3.635355e-006
-4.034211e-006
-4.363866e-006
-4.607350e-006
-4.753231e-006
-4.795739e-006
-4.734318e-006
-4.572914e-006
-4.319160e-006
-3.983519e-006
-3.578473e-006
-3.117855e-006
-2.616318e-006
-2.088894e-006
-1.550591e-006
-1.016089e-006
-4.995614e-007
-1.462248e-008
4.256821e-007
8.088306e-007
1.122764e-006
1.355901e-006
1.497361e-006
1.537421e-006
1.468201e-006
1.284542e-006
9.851283e-007
5.737913e-007
6.079453e-008
-5.361728e-007
-1.191544e-006
-1.872193e-006
-2.538779e-006
-3.148332e-006
-3.658058e-006
-4.030042e-006
-4.236232e-006
-4.262844e-006
-4.113212e-006
-3.808135e-006
-3.383293e-006
-2.883944e-006
-2.357976e-006
-1.848825e-006
-1.389874e-006
-1.001539e-006
-6.913703e-007
-4.565689e-007
-2.876596e-007
-1.720739e-007
-9.688784e-008
-5.053960e-008
-2.366285e-008
-9.242387e-009
-2.321521e-009
4.654928e-010
1.295797e-009
1.416998e-009
1.356915e-009
1.198073e-009
8.969301e-010
5.045531e-010
1.790753e-010
4.283361e-011
6.273958e-011
8.991478e-011
1.971271e-011
-1.000062e-010
-1.333834e-010
-2.483694e-011
1.210193e-010
1.471161e-010
2.229403e-011
-1.170553e-010
-1.791113e-010
1.173774e-010
7.204527e-010
1.542207e-009
2.373916e-009
3.027314e-009
3.439518e-009
3.500060e-009
2.644852e-009
-4.971395e-010
-8.257650e-009
-2.408168e-008
-5.295716e-008
-1.020652e-007
-1.812198e-007
-3.026628e-007
-4.800874e-007
-7.269522e-007
-1.054057e-006
-1.466305e-006
-1.958942e-006
-2.514265e-006
-3.100136e-006
-3.671276e-006
-4.173351e-006
-4.548994e-006
-4.744435e-006
-4.715471e-006
-4.431788e-006
-3.879019e-006
-3.058492e-006
-1.985171e-006
-6.846311e-007
8.101354e-007
2.461604e-006
4.230101e-006
6.075629e-006
7.959135e-006
9.843333e-006
1.169320e-005
1.347625e-005
1.516256e-005
1.672460e-005
1.813678e-005
1.937505e-005
2.041638e-005
2.123817e-005
2.181794e-005
2.213330e-005
2.216254e-005
2.188560e-005
2.128555e-005
2.035065e-005
1.907716e-005
1.747259e-005
1.555917e-005
1.337696e-005
1.098606e-005
8.467269e-006
5.920183e-006
3.457918e-006
1.198134e-006
-7.491314e-007
-2.295239e-006
-3.385783e-006
-4.009512e-006
-4.200639e-006
-4.033088e-006
-3.607313e-006
-3.032606e-006
-2.409340e-006
-1.815622e-006
-1.301118e-006
-8.881415e-007
-5.777599e-007
-3.578089e-007
-2.102051e-007
-1.162295e-007
-5.955547e-008
-2.742251e-008
-1.058798e-008
-2.695124e-009
4.461343e-010
1.418221e-009
1.596737e-009
1.515172e-009
1.262775e-009
8.468223e-010
3.800175e-010
3.891282e-011
-8.929551e-011
-7.440597e-011
-4.406196e-011
-3.804790e-011
6.160429e-012
1.232139e-010
2.223285e-010
1.684080e-010
-4.271150e-011
-2.393633e-010
1.522606e-009
1.285386e-009
1.236592e-009
1.761568e-009
2.783196e-009
3.786400e-009
4.115373e-009
3.026222e-009
-7.594767e-010
-9.767452e-009
-2.839989e-008
-6.343696e-008
-1.245998e-007
-2.251546e-007
-3.820816e-007
-6.150770e-007
-9.437598e-007
-1.382742e-006
-1.934656e-006
-2.581984e-006
-3.279716e-006
-3.951704e-006
-4.493354e-006
-4.781516e-006
-4.689936e-006
-4.106674e-006
-2.949432e-006
-1.175646e-006
1.214112e-006
4.179144e-006
7.646419e-006
1.152091e-005
1.569611e-005
2.006315e-005
2.451761e-005
2.896410e-005
3.331896e-005
3.751136e-005
4.148330e-005
4.518886e-005
4.859283e-005
5.166900e-005
5.439815e-005
5.676601e-005
5.876131e-005
6.037388e-005
6.159283e-005
6.240481e-005
6.279259e-005
6.273404e-005
6.220151e-005
6.116169e-005
5.957646e-005
5.740543e-005
5.461078e-005
5.116467e-005
4.705926e-005
4.231901e-005
3.701348e-005
3.126798e-005
2.526773e-005
1.925193e-005
1.349505e-005
8.276209e-006
3.840952e-006
3.629968e-007
-2.084411e-006
-3.539252e-006
-4.139235e-006
-4.090132e-006
-3.622723e-006
-2.950711e-006
-2.240696e-006
-1.599849e-006
-1.079922e-006
-6.913564e-007
-4.200770e-007
-2.416592e-007
-1.306603e-007
-6.536694e-008
-2.929773e-008
-1.089806e-008
-2.514308e-009
6.882693e-010
1.568411e-009
1.603467e-009
1.370667e-009
1.004245e-009
5.637856e-010
1.826390e-010
-9.407183e-012
-1.261577e-011
5.235655e-011
8.135834e-011
7.753928e-011
9.195819e-011
1.140432e-010
7.336620e-011
-4.937915e-011
-1.647555e-010
3.660822e-009
2.982979e-009
2.344519e-009
2.464880e-009
3.337350e-009
4.102560e-009
3.390050e-009
-5.619112e-010
-1.049542e-008
-3.128098e-008
-7.112923e-008
-1.425584e-007
-2.630778e-007
-4.553678e-007
-7.461006e-007
-1.161917e-006
-1.721004e-006
-2.419598e-006
-3.214876e-006
-4.008631e-006
-4.638639e-006
-4.884472e-006
-4.490845e-006
-3.205399e-006
-8.221454e-007
2.780491e-006
7.616421e-006
1.358788e-005
2.049970e-005
2.808684e-005
3.604819e-005
4.407952e-005
5.190013e-005
5.927088e-005
6.600364e-005
7.196427e-005
7.707129e-005
8.129194e-005
8.463631e-005
8.715027e-005
8.890769e-005
9.000269e-005
9.054241e-005
9.064085e-005
9.041409e-005
8.997629e-005
8.943586e-005
8.889102e-005
8.842410e-005
8.809427e-005
8.792821e-005
8.790897e-005
8.796440e-005
8.795749e-005
8.768214e-005
8.686845e-005
8.520168e-005
8.235810e-005
7.805735e-005
7.212544e-005
6.455605e-005
5.555366e-005
4.554191e-005
3.512615e-005
2.501042e-005
1.588218e-005
8.291674e-006
2.558794e-006
-1.266617e-006
-3.382038e-006
-4.156738e-006
-4.029423e-006
-3.411720e-006
-2.623164e-006
-1.867828e-006
-1.245865e-006
-7.836295e-007
-4.660995e-007
-2.618352e-007
-1.379684e-007
-6.708660e-008
-2.905455e-008
-1.028345e-008
-2.103845e-009
7.935010e-010
1.458372e-009
1.395438e-009
1.142874e-009
8.149928e-010
4.814111e-010
2.557863e-010
1.876136e-010
1.951061e-010
1.554043e-010
3.905438e-011
-7.542574e-011
-1.072112e-010
-5.749919e-011
1.359185e-011
5.668396e-011
4.826808e-009
4.202916e-009
3.601585e-009
3.620685e-009
4.048479e-009
3.598280e-009
2.375917e-011
-1.004173e-008
-3.203891e-008
-7.513959e-008
-1.540670e-007
-2.905084e-007
-5.135541e-007
-8.580817e-007
-1.358889e-006
-2.037386e-006
-2.878238e-006
-3.796960e-006
-4.606337e-006
-4.996690e-006
-4.547196e-006
-2.778517e-006
7.579017e-007
6.374108e-006
1.415236e-005
2.389103e-005
3.510408e-005
4.707431e-005
5.894718e-005
6.984142e-005
7.895228e-005
8.562886e-005
8.941744e-005
9.007185e-005
8.753992e-005
8.193745e-005
7.351878e-005
6.264820e-005
4.977299e-005
3.539755e-005
2.005931e-005
4.307887e-006
-1.131067e-005
-2.626373e-005
-4.003623e-005
-5.213142e-005
-6.207109e-005
-6.939908e-005
-7.369086e-005
-7.457201e-005
-7.174767e-005
-6.504380e-005
-5.445899e-005
-4.022251e-005
-2.285023e-005
-3.185348e-006
1.759335e-005
3.801563e-005
5.643215e-005
7.119940e-005
8.092090e-005
8.470416e-005
8.237089e-005
7.455080e-005
6.260764e-005
4.839332e-005
3.388437e-005
2.079726e-005
1.029467e-005
2.863738e-006
-1.626015e-006
-3.733680e-006
-4.204015e-006
-3.751946e-006
-2.928065e-006
-2.077246e-006
-1.366379e-006
-8.425079e-007
-4.894843e-007
-2.679303e-007
-1.372286e-007
-6.460434e-008
-2.688808e-008
-8.993999e-009
-1.574907e-009
9.120575e-010
1.464942e-009
1.407953e-009
1.151313e-009
8.085429e-010
4.945659e-010
3.071801e-010
2.259674e-010
1.405205e-010
-1.240527e-011
-1.722303e-010
-2.225332e-010
-1.159473e-010
7.611895e-011
2.207782e-010
4.580801e-009
4.539058e-009
4.631774e-009
4.811115e-009
4.282389e-009
1.083397e-009
-8.356525e-009
-3.007862e-008
-7.418999e-008
-1.571011e-007
-3.038502e-007
-5.494788e-007
-9.375800e-007
-1.512543e-006
-2.300029e-006
-3.269841e-006
-4.280157e-006
-5.014692e-006
-4.941444e-006
-3.332262e-006
6.262946e-007
7.631464e-006
1.801264e-005
3.150027e-005