# vtk DataFile Version 3.0
vtk output
ASCII
DATASET STRUCTURED_POINTS
DIMENSIONS 100 100 1
SPACING 1 1 1
ORIGIN 0 0 0
POINT_DATA 10000
SCALARS SFBox_profile double
LOOKUP_TABLE default 
0.000000e+000
0.000000e+000
0.000000e+000
0.000000e+000
0.000000e+000
0.000000e+000
0.000000e+000
0.000000e+000
0.000000e+000
0.000000e+000
0.000000e+000
0.000000e+000
0.000000e+000
0.000000e+000
0.000000e+000
0.000000e+000
0.000000e+000
0.000000e+000
0.000000e+000
0.000000e+000
0.000000e+000
0.000000e+000
0.000000e+000
0.000000e+000
0.000000e+000
0.000000e+000
0.000000e+000
0.000000e+000
0.000000e+000
0.000000e+000
0.000000e+000
0.000000e+000
0.000000e+000
0.000000e+000
0.000000e+000
0.000000e+000
0.000000e+000
0.000000e+000
0.000000e+000
0.000000e+000
0.000000e+000
0.000000e+000
0.000000e+000
0.000000e+000
0.000000e+000
0.000000e+000
0.000000e+000
0.000000e+000
0.000000e+000
0.000000e+000
0.000000e+000
0.000000e+000
0.000000e+000
0.000000e+000
0.000000e+000
0.000000e+000
0.000000e+000
0.000000e+000
0.000000e+000
0.000000e+000
0.000000e+000
0.000000e+000
0.000000e+000
0.000000e+000
0.000000e+000
0.000000e+000
0.000000e+000
0.000000e+000
0.000000e+000
0.000000e+000
0.000000e+000
0.000000e+000
0.000000e+000
0.000000e+000
0.000000e+000
0.000000e+000
0.000000e+000
0.000000e+000
0.000000e+000
0.000000e+000
0.000000e+000
0.000000e+000
0.000000e+000
0.000000e+000
0.000000e+000
0.000000e+000
0.000000e+000
0.000000e+000
0.000000e+000
0.000000e+000
0.000000e+000
0.000000e+000
0.000000e+000
0.000000e+000
0.000000e+000
0.000000e+000
0.000000e+000
0.000000e+000
0.000000e+000
0.000000e+000
-2.583415e-010
-2.471602e-010
-2.239333e-010
-1.868506e-010
-1.329976e-010
-5.815691e-011
4.337801e-011
1.788805e-010
3.570214e-010
5.872712e-010
8.786840e-010
1.237887e-009
1.666200e-009
2.155957e-009
2.686319e-009
3.219113e-009
3.695428e-009
4.033811e-009
4.130837e-009
3.864551e-009
3.100886e-009
1.702575e-009
-4.603643e-010
-3.499899e-009
-7.500404e-009
-1.251150e-008
-1.854414e-008
-2.557028e-008
-3.352592e-008
-4.231671e-008
-5.182544e-008
-6.192007e-008
-7.246175e-008
-8.331191e-008
-9.433811e-008
-1.054186e-007
-1.164456e-007
-1.273269e-007
-1.379871e-007
-1.483670e-007
-1.584226e-007
-1.681229e-007
-1.774473e-007
-1.863815e-007
-1.949133e-007
-2.030285e-007
-2.107056e-007
-2.179121e-007
-2.245998e-007
-2.307020e-007
-2.361314e-007
-2.407788e-007
-2.445145e-007
-2.471895e-007
-2.486408e-007
-2.486968e-007
-2.471858e-007
-2.439463e-007
-2.388389e-007
-2.317598e-007
-2.226554e-007
-2.115357e-007
-1.984869e-007
-1.836805e-007
-1.673770e-007
-1.499227e-007
-1.317389e-007
-1.133023e-007
-9.511790e-008
-7.768556e-008
-6.146485e-008
-4.684094e-008
-3.409662e-008
-2.339433e-008
-1.477050e-008
-8.143243e-009
-3.331680e-009
-8.381846e-011
1.891602e-009
2.893972e-009
3.204424e-009
3.066859e-009
2.677365e-009
2.181478e-009
1.677615e-009
1.224494e-009
8.503554e-010
5.622182e-010
3.539824e-010
2.127913e-010
1.235393e-010
7.171989e-011
4.496051e-011
3.361954e-011
3.077723e-011
3.188368e-011
3.424904e-011
3.650034e-011
3.808627e-011
3.887486e-011
-2.303264e-010
-2.173495e-010
-1.901146e-010
-1.459816e-010
-8.082096e-011
1.110531e-011
1.371460e-010
3.059747e-010
5.267939e-010
8.077552e-010
1.153323e-009
1.560393e-009
2.013133e-009
2.476832e-009
2.891367e-009
3.165305e-009
3.171925e-009
2.748509e-009
1.700034e-009
-1.921820e-010
-3.157139e-009
-7.417291e-009
-1.317013e-008
-2.057064e-008
-2.971699e-008
-4.064143e-008
-5.330741e-008
-6.761289e-008
-8.339909e-008
-1.004630e-007
-1.185720e-007
-1.374781e-007
-1.569321e-007
-1.766941e-007
-1.965425e-007
-2.162799e-007
-2.357371e-007
-2.547741e-007
-2.732802e-007
-2.911724e-007
-3.083927e-007
-3.249033e-007
-3.406821e-007
-3.557160e-007
-3.699941e-007
-3.835007e-007
-3.962079e-007
-4.080687e-007
-4.190111e-007
-4.289331e-007
-4.376993e-007
-4.451398e-007
-4.510508e-007
-4.551975e-007
-4.573206e-007
-4.571450e-007
-4.543916e-007
-4.487928e-007
-4.401107e-007
-4.281575e-007
-4.128180e-007
-3.940727e-007
-3.720185e-007
-3.468862e-007
-3.190502e-007
-2.890297e-007
-2.574760e-007
-2.251483e-007
-1.928741e-007
-1.614995e-007
-1.318318e-007
-1.045806e-007
-8.030630e-008
-5.938092e-008
-4.196881e-008
-2.802913e-008
-1.733974e-008
-9.537970e-009
-4.171603e-009
-7.516830e-010
1.200061e-009
2.114699e-009
2.353117e-009
2.196479e-009
1.847902e-009
1.441925e-009
1.058132e-009
7.357922e-010
4.872693e-010
3.089729e-010
1.894363e-010
1.147038e-010
7.151014e-011
4.884454e-011
3.843974e-011
3.462756e-011
3.387652e-011
3.422422e-011
3.473171e-011
3.503545e-011
-1.724725e-010
-1.551827e-010
-1.184587e-010
-5.796723e-011
3.283280e-011
1.625383e-010
3.412326e-010
5.791522e-010
8.841408e-010
1.257392e-009
1.687047e-009
2.139423e-009
2.548078e-009
2.801529e-009
2.731207e-009
2.101910e-009
6.074603e-010
-2.125810e-009
-6.525862e-009
-1.305158e-008
-2.216062e-008
-3.427178e-008
-4.972673e-008
-6.875638e-008
-9.145682e-008
-1.177782e-007
-1.475275e-007
-1.803842e-007
-2.159261e-007
-2.536603e-007
-2.930563e-007
-3.335767e-007
-3.747036e-007
-4.159581e-007
-4.569147e-007
-4.972092e-007
-5.365420e-007
-5.746770e-007
-6.114386e-007
-6.467051e-007
-6.804011e-007
-7.124877e-007
-7.429521e-007
-7.717949e-007
-7.990179e-007
-8.246108e-007
-8.485386e-007
-8.707297e-007
-8.910656e-007
-9.093729e-007
-9.254174e-007
-9.389017e-007
-9.494667e-007
-9.566959e-007
-9.601249e-007
-9.592559e-007
-9.535763e-007
-9.425833e-007
-9.258139e-007
-9.028796e-007
-8.735051e-007
-8.375700e-007
-7.951495e-007
-7.465510e-007
-6.923428e-007
-6.333677e-007
-5.707380e-007
-5.058066e-007
-4.401107e-007
-3.752899e-007
-3.129820e-007
-2.547077e-007
-2.017554e-007
-1.550843e-007
-1.152597e-007
-8.243077e-008
-5.635478e-008
-3.646232e-008
-2.195125e-008
-1.189289e-008
-5.333655e-009
-1.378779e-009
7.498244e-010
1.683269e-009
1.899839e-009
1.737308e-009
1.416105e-009
1.066657e-009
7.558610e-010
5.096225e-010
3.301553e-010
2.080695e-010
1.300141e-010
8.295098e-011
5.612454e-011
4.161081e-011
3.409850e-011
3.034040e-011
2.853826e-011
2.781056e-011
-7.997246e-011
-5.439989e-011
2.252675e-013
9.077704e-011
2.271871e-010
4.215267e-010
6.859625e-010
1.028846e-009
1.448037e-009
1.920517e-009
2.387582e-009
2.735465e-009
2.772231e-009
2.203193e-009
6.086367e-010
-2.571020e-009
-8.036863e-009
-1.661475e-008
-2.921709e-008
-4.678359e-008
-7.020557e-008
-1.002428e-007
-1.374446e-007
-1.820870e-007
-2.341363e-007
-2.932442e-007
-3.587738e-007
-4.298516e-007
-5.054363e-007
-5.843934e-007
-6.655676e-007
-7.478439e-007
-8.301955e-007
-9.117162e-007
-9.916389e-007
-1.069342e-006
-1.144346e-006
-1.216303e-006
-1.284986e-006
-1.350264e-006
-1.412089e-006
-1.470471e-006
-1.525456e-006
-1.577107e-006
-1.625480e-006
-1.670601e-006
-1.712451e-006
-1.750942e-006
-1.785904e-006
-1.817077e-006
-1.844095e-006
-1.866491e-006
-1.883691e-006
-1.895027e-006
-1.899746e-006
-1.897029e-006
-1.886018e-006
-1.865848e-006
-1.835687e-006
-1.794786e-006
-1.742539e-006
-1.678545e-006
-1.602681e-006
-1.515174e-006
-1.416670e-006
-1.308290e-006
-1.191668e-006
-1.068945e-006
-9.427250e-007
-8.159687e-007
-6.918293e-007
-5.734373e-007
-4.636579e-007
-3.648522e-007
-2.786833e-007
-2.059987e-007
-1.468127e-007
-1.003893e-007
-6.540536e-008
-4.016203e-008
-2.280360e-008
-1.151015e-008
-4.641095e-009
-8.210147e-010
1.028490e-009
1.699442e-009
1.735556e-009
1.483266e-009
1.144288e-009
8.222434e-010
5.597568e-010
3.653146e-010
2.310462e-010
1.433967e-010
8.877939e-011
5.602529e-011
3.699442e-011
2.628299e-011
2.060284e-011
1.815509e-011
5.712403e-011
9.710545e-011
1.822896e-010
3.226467e-010
5.316006e-010
8.231683e-010
1.206397e-009
1.675568e-009
2.194371e-009
2.672354e-009
2.932528e-009
2.670456e-009
1.407412e-009
-1.556780e-009
-7.182449e-009
-1.670896e-008
-3.164169e-008
-5.369715e-008
-8.470139e-008
-1.264460e-007
-1.805154e-007
-2.481095e-007
-3.298892e-007
-4.258741e-007
-5.354085e-007
-6.572030e-007
-7.894424e-007
-9.299383e-007
-1.076303e-006
-1.226115e-006
-1.377066e-006
-1.527064e-006
-1.674309e-006
-1.817322e-006
-1.954956e-006
-2.086384e-006
-2.211062e-006
-2.328695e-006
-2.439193e-006
-2.542615e-006
-2.639134e-006
-2.728987e-006
-2.812437e-006
-2.889744e-006
-2.961129e-006
-3.026749e-006
-3.086680e-006
-3.140893e-006
-3.189244e-006
-3.231461e-006
-3.267144e-006
-3.295758e-006
-3.316640e-006
-3.329000e-006
-3.331936e-006
-3.324440e-006
-3.305417e-006
-3.273703e-006
-3.228092e-006
-3.167370e-006
-3.090365e-006
-2.996014e-006
-2.883450e-006
-2.752122e-006
-2.601933e-006
-2.433411e-006
-2.247883e-006
-2.047625e-006
-1.835961e-006
-1.617251e-006
-1.396736e-006
-1.180228e-006
-9.736433e-007
-7.824632e-007
-6.111903e-007
-4.629146e-007
-3.390726e-007
-2.394439e-007
-1.623738e-007
-1.051586e-007
-6.450181e-008
-3.695147e-008
-1.925076e-008
-8.570275e-009
-2.620936e-009
3.315083e-010
1.519570e-009
1.763401e-009
1.570774e-009
1.230102e-009
8.870866e-010
6.020412e-010
3.891969e-010
2.414081e-010
1.442490e-010
8.309768e-011
4.602366e-011
2.443471e-011
1.272095e-011
7.613131e-012
2.567000e-010
3.199022e-010
4.533186e-010
6.695260e-010
9.830244e-010
1.402864e-009
1.919208e-009
2.480790e-009
2.959856e-009
3.101607e-009
2.456782e-009
2.992825e-010
-4.464132e-009
-1.337871e-008
-2.850121e-008
-5.240918e-008
-8.813493e-008
-1.390044e-007
-2.083762e-007
-2.992965e-007
-4.141144e-007
-5.541190e-007
-7.192729e-007
-9.080988e-007
-1.117750e-006
-1.344249e-006
-1.582854e-006
-1.828476e-006
-2.076085e-006
-2.321044e-006
-2.559347e-006
-2.787754e-006
-3.003827e-006
-3.205906e-006
-3.393039e-006
-3.564881e-006
-3.721581e-006
-3.863661e-006
-3.991901e-006
-4.107220e-006
-4.210590e-006
-4.302955e-006
-4.385180e-006
-4.458019e-006
-4.522093e-006
-4.577897e-006
-4.625802e-006
-4.666073e-006
-4.698883e-006
-4.724336e-006
-4.742482e-006
-4.753328e-006
-4.756847e-006
-4.752971e-006
-4.741570e-006
-4.722420e-006
-4.695147e-006
-4.659157e-006
-4.613549e-006
-4.557024e-006
-4.487803e-006
-4.403571e-006
-4.301480e-006
-4.178243e-006
-4.030364e-006
-3.854510e-006
-3.648049e-006
-3.409696e-006
-3.140174e-006
-2.842763e-006
-2.523562e-006
-2.191331e-006
-1.856851e-006
-1.531833e-006
-1.227571e-006
-9.535807e-007
-7.165250e-007
-5.196538e-007
-3.628389e-007
-2.431323e-007
-1.556518e-007
-9.455269e-008
-5.388279e-008
-2.820383e-008
-1.294824e-008
-4.545150e-009
-3.796549e-010
1.345555e-009
1.788205e-009
1.642949e-009
1.292817e-009
9.261877e-010
6.194902e-010
3.910554e-010
2.333376e-010
1.304140e-010
6.634185e-011
2.836257e-011
7.550557e-012
-1.561896e-012
5.473075e-010
6.452366e-010
8.489127e-010
1.170272e-009
1.616458e-009
2.172612e-009
2.771778e-009
3.246096e-009
3.253110e-009
2.172378e-009
-1.028424e-009
-7.951234e-009
-2.093144e-008
-4.317640e-008
-7.883357e-008
-1.329332e-007
-2.111508e-007
-3.193523e-007
-4.629237e-007
-6.459514e-007
-8.703879e-007
-1.135384e-006
-1.436965e-006
-1.768163e-006
-2.119601e-006
-2.480418e-006
-2.839358e-006
-3.185800e-006
-3.510582e-006
-3.806528e-006
-4.068646e-006
-4.294082e-006
-4.481888e-006
-4.632697e-006
-4.748372e-006
-4.831669e-006
-4.885910e-006
-4.914695e-006
-4.921640e-006
-4.910168e-006
-4.883344e-006
-4.843788e-006
-4.793647e-006
-4.734627e-006
-4.668077e-006
-4.595107e-006
-4.516722e-006
-4.433958e-006
-4.348022e-006
-4.260403e-006
-4.172964e-006
-4.087999e-006
-4.008244e-006
-3.936842e-006
-3.877236e-006
-3.833001e-006
-3.807583e-006
-3.803963e-006
-3.824230e-006
-3.869080e-006
-3.937274e-006
-4.025103e-006
-4.125941e-006
-4.230002e-006
-4.324445e-006
-4.393954e-006
-4.421910e-006
-4.392141e-006
-4.291114e-006
-4.110272e-006
-3.848050e-006
-3.511079e-006
-3.114132e-006
-2.678614e-006
-2.229764e-006
-1.793079e-006
-1.390753e-006
-1.038954e-006
-7.464870e-007
-5.149953e-007
-3.403587e-007
-2.147274e-007
-1.285754e-007
-7.235481e-008
-3.757323e-008
-1.731877e-008
-6.364724e-009
-1.011013e-009
1.201066e-009
1.803038e-009
1.683752e-009
1.317240e-009
9.287527e-010
6.061639e-010
3.690269e-010
2.079642e-010
1.050508e-010
4.305589e-011
8.788665e-012
-6.269468e-012
9.697228e-010
1.115388e-009
1.411912e-009
1.861151e-009
2.441597e-009
3.070910e-009
3.542300e-009
3.424096e-009
1.911938e-009
-2.373138e-009
-1.163798e-008
-2.920241e-008
-5.977228e-008
-1.096263e-007
-1.866109e-007
-2.998163e-007
-4.588093e-007
-6.723598e-007
-9.467268e-007
-1.283761e-006
-1.679260e-006
-2.122078e-006
-2.594377e-006
-3.073092e-006
-3.532385e-006
-3.946538e-006
-4.292704e-006
-4.553012e-006
-4.715739e-006
-4.775528e-006
-4.732826e-006
-4.592826e-006
-4.364221e-006
-4.057982e-006
-3.686299e-006
-3.261723e-006
-2.796488e-006
-2.301985e-006
-1.788363e-006
-1.264258e-006
-7.366593e-007
-2.109287e-007
3.090361e-007
8.205083e-007
1.321545e-006
1.810541e-006
2.285768e-006
2.744928e-006
3.184752e-006
3.600671e-006
3.986563e-006
4.334613e-006
4.635278e-006
4.877393e-006
5.048420e-006
5.134878e-006
5.122964e-006
4.999390e-006
4.752471e-006
4.373447e-006
3.858045e-006
3.208192e-006
2.433754e-006
1.554052e-006
5.988148e-007
-3.918548e-007
-1.368926e-006
-2.277611e-006
-3.062301e-006
-3.672924e-006
-4.071840e-006
-4.240001e-006
-4.180854e-006
-3.920707e-006
-3.505008e-006
-2.991004e-006
-2.438384e-006
-1.900166e-006
-1.416008e-006
-1.009276e-006
-6.878905e-007
-4.478525e-007
-2.778396e-007
-1.634660e-007
-9.040770e-008
-4.622093e-008
-2.108000e-008
-7.795770e-009
-1.448885e-009
1.119299e-009
1.809447e-009
1.686517e-009
1.297897e-009
8.930810e-010
5.639099e-010
3.274677e-010
1.711855e-010
7.507879e-011
2.132683e-011
-2.428634e-012
1.575600e-009
1.779935e-009
2.182642e-009
2.753478e-009
3.395716e-009
3.868978e-009
3.661266e-009
1.791640e-009
-3.473147e-009
-1.499477e-008
-3.721676e-008
-7.664186e-008
-1.422236e-007
-2.454905e-007
-4.001425e-007
-6.208095e-007
-9.207072e-007
-1.308155e-006
-1.782370e-006
-2.329511e-006
-2.920281e-006
-3.510298e-006
-4.043724e-006
-4.459616e-006
-4.699637e-006
-4.715350e-006
-4.473605e-006
-3.959148e-006
-3.174399e-006
-2.136955e-006
-8.757519e-007
5.731531e-007
2.170464e-006
3.876767e-006
5.654774e-006
7.470791e-006
9.295564e-006
1.110469e-005
1.287872e-005
1.460302e-005
1.626742e-005
1.786559e-005
1.939433e-005
2.085260e-005
2.224052e-005
2.355831e-005
2.480533e-005
2.597917e-005
2.707487e-005
2.808436e-005
2.899603e-005
2.979453e-005
3.046071e-005
3.097177e-005
3.130161e-005
3.142138e-005
3.130024e-005
3.090652e-005
3.020919e-005
2.917987e-005
2.779551e-005
2.604174e-005
2.391705e-005
2.143738e-005
1.864081e-005
1.559147e-005
1.238142e-005
9.129181e-006
5.973562e-006
3.062142e-006
5.349516e-007
-1.494392e-006
-2.956342e-006
-3.837404e-006
-4.182629e-006
-4.086947e-006
-3.676813e-006
-3.086799e-006
-2.437370e-006
-1.819427e-006
-1.288457e-006
-8.675317e-007
-5.558005e-007
-3.384514e-007
-1.951526e-007
-1.056904e-007
-5.289980e-008
-2.363289e-008
-8.584949e-009
-1.604689e-009
1.121504e-009
1.807813e-009
1.649516e-009
1.236468e-009
8.244575e-010
5.003308e-010
2.751409e-010
1.325059e-010
5.132801e-011
1.512056e-011
2.420799e-009
2.684839e-009
3.177488e-009
3.790765e-009
4.259777e-009
4.011330e-009
1.918000e-009
-4.072695e-009
-1.745707e-008
-4.384010e-008
-9.169217e-008
-1.730539e-007
-3.039064e-007
-5.037386e-007
-7.936472e-007
-1.192237e-006
-1.708894e-006
-2.334915e-006
-3.034403e-006
-3.738132e-006
-4.343750e-006
-4.724237e-006
-4.743796e-006
-4.277652e-006
-3.230861e-006
-1.551685e-006
7.630296e-007
3.670628e-006
7.091764e-006
1.092297e-005
1.504973e-005
1.935779e-005
2.374153e-005
2.810919e-005
3.238538e-005
3.651167e-005
4.044576e-005
4.415977e-005
4.763821e-005
5.087561e-005
5.387422e-005
5.664181e-005
5.918952e-005
6.153000e-005
6.367581e-005
6.563806e-005
6.742535e-005
6.904309e-005
7.049303e-005
7.177309e-005
7.287734e-005
7.379616e-005
7.451623e-005
7.502058e-005
7.528830e-005
7.529392e-005
7.500647e-005
7.438824e-005
7.339346e-005
7.196738e-005
7.004631e-005
6.755962e-005
6.443471e-005
6.060589e-005
5.602773e-005
5.069248e-005
4.464941e-005
3.802218e-005
3.101814e-005
2.392342e-005
1.707928e-005
1.084034e-005
5.521272e-006
1.344081e-006
-1.599755e-006
-3.361180e-006
-4.115060e-006
-4.116125e-006
-3.642728e-006
-2.945105e-006
-2.211570e-006
-1.557844e-006
-1.035742e-006
-6.521427e-007
-3.890831e-007
-2.193481e-007
-1.159546e-007
-5.654758e-008
-2.453899e-008
-8.585125e-009
-1.446727e-009
1.205607e-009
1.793808e-009
1.574481e-009
1.140299e-009
7.333578e-010
4.271272e-010
2.244591e-010
1.061393e-010
5.264061e-011
3.550346e-009
3.850487e-009
4.350112e-009
4.776304e-009
4.523009e-009
2.367050e-009
-3.984264e-009
-1.855943e-008
-4.802620e-008
-1.027933e-007
-1.981447e-007
-3.550149e-007
-5.996510e-007
-9.609299e-007
-1.463691e-006
-2.116644e-006
-2.894949e-006
-3.720718e-006
-4.448389e-006
-4.863639e-006
-4.701988e-006
-3.686687e-006
-1.577656e-006
1.781494e-006
6.431124e-006
1.228569e-005
1.914692e-005
2.673482e-005
3.472779e-005
4.280246e-005
5.066579e-005
5.807582e-005
6.485103e-005
7.087080e-005
7.607025e-005
8.043206e-005
8.397683e-005
8.675303e-005
8.882728e-005
9.027538e-005
9.117501e-005
9.160018e-005
9.161776e-005
9.128599e-005
9.065466e-005
8.976657e-005
8.866009e-005
8.737220e-005
8.594184e-005
8.441316e-005
8.283838e-005
8.127985e-005
7.981090e-005
7.851501e-005
7.748278e-005
7.680618e-005
7.656968e-005
7.683809e-005
7.764106e-005
7.895514e-005
8.068502e-005
8.264663e-005
8.455659e-005
8.603377e-005
8.661952e-005
8.582243e-005
8.318922e-005
7.839563e-005
7.134033e-005
6.221579e-005
5.152811e-005
4.004727e-005
2.868849e-005
1.834866e-005
9.739863e-006
3.268411e-006
-1.007833e-006
-3.337956e-006
-4.171568e-006
-4.026072e-006
-3.370321e-006
-2.553959e-006
-1.789429e-006
-1.173285e-006
-7.247465e-007
-4.227871e-007
-2.324783e-007
-1.195841e-007
-5.655665e-008
-2.364044e-008
-7.799518e-009
-1.011701e-009
1.345487e-009
1.759288e-009
1.466394e-009
1.021147e-009
6.341451e-010
3.600055e-010
1.939377e-010
1.173856e-010
4.971675e-009
5.234584e-009
5.529499e-009
5.262510e-009
3.183033e-009
-3.126552e-009
-1.804750e-008
-4.906615e-008
-1.082569e-007
-2.139469e-007
-3.920799e-007
-6.762042e-007
-1.104074e-006
-1.707754e-006
-2.493750e-006
-3.411675e-006
-4.315980e-006
-4.934089e-006
-4.860934e-006
-3.597460e-006
-6.366801e-007
4.419350e-006
1.174364e-005
2.120506e-005
3.235002e-005
4.445087e-005
5.660896e-005
6.788476e-005
7.742232e-005
8.454254e-005
8.879272e-005
8.995275e-005
8.800948e-005
8.311446e-005
7.553824e-005
6.562838e-005
5.377334e-005
4.037166e-005
2.580609e-005
1.042335e-005
-5.479501e-006
-2.166128e-005
-3.793549e-005
-5.416277e-005
-7.023847e-005
-8.607717e-005
-1.015959e-004
-1.166970e-004
-1.312529e-004
-1.450921e-004
-1.579884e-004
-1.696533e-004
-1.797337e-004
-1.878131e-004
-1.934210e-004
-1.960482e-004
-1.951724e-004
-1.902930e-004
-1.809788e-004
-1.669280e-004
-1.480399e-004
-1.244970e-004
-9.684758e-005
-6.607553e-005
-3.363486e-005
-1.417985e-006
2.837213e-005
5.346375e-005
7.185871e-005
8.221689e-005
8.418074e-005
7.852308e-005
6.703679e-005
5.217183e-005
3.651719e-005
2.227778e-005
1.090368e-005
2.969419e-006
-1.710897e-006
-3.816319e-006
-4.208865e-006
-3.681064e-006
-2.815772e-006
-1.958541e-006
-1.263413e-006
-7.638246e-007
-4.346585e-007
-2.325197e-007
-1.159983e-007
-5.293394e-008
-2.110380e-008
-6.381268e-009
-3.940535e-010
1.499344e-009
1.696044e-009
1.334081e-009
8.949181e-010
5.461450e-010
3.229738e-010
2.172804e-010
6.613290e-009
6.676603e-009
6.330734e-009
4.397030e-009
-1.523462e-009
-1.592906e-008
-4.675785e-008
-1.072399e-007
-2.181459e-007
-4.099141e-007
-7.232962e-007
-1.205636e-006
-1.897689e-006
-2.804109e-006
-3.842439e-006
-4.774850e-006
-5.145007e-006
-4.261117e-006
-1.269655e-006
4.659916e-006
1.406529e-005
2.690741e-005
4.236656e-005
5.879721e-005
7.388458e-005
8.498200e-005
8.953395e-005
8.547106e-005
7.148518e-005
4.713330e-005
1.277431e-005
-3.060986e-005
-8.163802e-005
-1.387377e-004
-2.003051e-004
-2.648118e-004
-3.308721e-004
-3.972842e-004
-4.630538e-004
-5.274047e-004
-5.897739e-004
-6.497920e-004
-7.072507e-004
-7.620606e-004
-8.142035e-004
-8.636853e-004
-9.104908e-004
-9.545445e-004
-9.956780e-004
-1.033606e-003
-1.067907e-003
-1.098016e-003
-1.123219e-003
-1.142656e-003
-1.155327e-003
-1.160108e-003
-1.155768e-003
-1.140999e-003
-1.114465e-003
-1.074871e-003
-1.021079e-003
-9.522780e-004
-8.682180e-004
-7.695143e-004
-6.579816e-004
-5.369308e-004
-4.113051e-004
-2.875157e-004
-1.728643e-004
-7.453745e-005
1.685412e-006
5.270390e-005
7.890518e-005
8.409036e-005
7.442883e-005
5.684949e-005
3.746957e-005
2.053422e-005
8.123976e-006
5.088818e-007
-3.176272e-006
-4.231232e-006
-3.872945e-006
-2.978090e-006
-2.047583e-006
-1.294875e-006
-7.639550e-007
-4.229506e-007
-2.194913e-007
-1.057987e-007
-4.629786e-008
-1.737383e-008
-4.590105e-009
2.818093e-010
1.623447e-009
1.601063e-009
1.192305e-009
7.846336e-010
5.002775e-010
3.603099e-010
8.267747e-009
7.822987e-009
6.038819e-009
7.290853e-010
-1.244772e-008
-4.143832e-008
-9.994035e-008
-2.102099e-007
-4.060601e-007
-7.345407e-007
-1.252647e-006
-2.011787e-006
-3.018544e-006
-4.159973e-006
-5.093631e-006
-5.133842e-006
-3.208435e-006
2.014873e-006
1.176140e-005
2.655974e-005
4.556389e-005
6.601666e-005
8.311037e-005
9.046216e-005
8.117199e-005
4.916583e-005
-9.558666e-006
-9.618767e-005
-2.090562e-004
-3.442031e-004
-4.962231e-004
-6.591401e-004
-8.271234e-004
-9.949711e-004
-1.158369e-003
-1.313981e-003
-1.459428e-003
-1.593210e-003
-1.714590e-003
-1.823454e-003
-1.920152e-003
-2.005343e-003
-2.079859e-003
-2.144582e-003
-2.200366e-003
-2.247978e-003
-2.288077e-003
-2.321214e-003
-2.347852e-003
-2.368396e-003
-2.383226e-003
-2.392732e-003
-2.397331e-003
-2.397465e-003
-2.393568e-003
-2.385980e-003
-2.374821e-003
-2.359803e-003
-2.339983e-003
-2.313485e-003
-2.277222e-003
-2.226693e-003
-2.155990e-003
-2.058191e-003
-1.926325e-003
-1.755048e-003
-1.542908e-003
-1.294617e-003
-1.022338e-003
-7.449194e-004
-4.847182e-004
-2.628473e-004
-9.435162e-005
1.524615e-005
7.081928e-005
8.516206e-005
7.424096e-005
5.261961e-005
3.059309e-005
1.351539e-005
2.795431e-006
-2.500856e-006
-4.181700e-006
-3.960412e-006
-3.032609e-006
-2.047717e-006
-1.263804e-006
-7.251990e-007
-3.894725e-007
-1.954443e-007
-9.061200e-008
-3.771497e-008
-1.305510e-008
-2.722486e-009
8.962107e-010
1.686878e-009
1.482977e-009
1.067471e-009
7.297212e-010
5.535348e-010
9.521225e-009
8.036976e-009
3.473573e-009
-8.006416e-009
-3.387519e-008
-8.752313e-008
-1.914967e-007
-3.813526e-007
-7.086681e-007
-1.239150e-006
-2.036733e-006
-3.117253e-006
-4.350537e-006
-5.300982e-006
-5.041675e-006
-2.057609e-006
5.569818e-006
1.950656e-005
3.998113e-005
6.426862e-005
8.534424e-005
9.148144e-005
6.761252e-005
-1.538202e-006
-1.273118e-004
-3.134198e-004
-5.543905e-004
-8.364300e-004
-1.139874e-003
-1.442490e-003
-1.722980e-003
-1.963898e-003
-2.153343e-003
-2.285309e-003
-2.359073e-003
-2.378069e-003
-2.348609e-003
-2.278616e-003
-2.176499e-003
-2.050264e-003
-1.906919e-003
-1.752174e-003
-1.590409e-003
-1.424815e-003
-1.257654e-003
-1.090560e-003
-9.248416e-004
-7.617550e-004
-6.027325e-004
-4.495602e-004
-3.045039e-004
-1.703874e-004
-5.062602e-005
5.077557e-005
1.292579e-004
1.797697e-004
1.968673e-004
1.748721e-004
1.081362e-004
-8.497358e-006
-1.789070e-004
-4.043973e-004
-6.817158e-004
-1.000313e-003
-1.339162e-003
-1.664268e-003
-1.929168e-003
-2.081559e-003
-2.077793e-003
-1.901829e-003
-1.578517e-003
-1.170022e-003
-7.542309e-004
-3.980516e-004
-1.404455e-004
1.153437e-005
7.632423e-005
8.434843e-005
6.501375e-005
3.925367e-005
1.798855e-005
4.521177e-006
-2.065162e-006
-4.148608e-006
-3.958531e-006
-2.977608e-006
-1.959179e-006
-1.174287e-006
-6.530676e-007
-3.391559e-007
-1.639550e-007
-7.268303e-008
-2.843394e-008
-8.762888e-009
-1.039006e-009
1.365232e-009
1.684662e-009
1.371105e-009
1.009403e-009
8.016913e-010
9.676994e-009
6.303623e-009
-3.145596e-009
-2.509068e-008
-7.181795e-008
-1.648943e-007
-3.396875e-007
-6.497913e-007
-1.167400e-006
-1.969640e-006
-3.090388e-006
-4.406023e-006
-5.428272e-006
-5.029807e-006
-1.253428e-006
8.477114e-006
2.633292e-005
5.195695e-005
7.940454e-005
9.408947e-005
7.177993e-005
-1.782090e-005
-2.023253e-004
-4.944260e-004
-8.815160e-004
-1.321956e-003
-1.748851e-003
-2.083454e-003
-2.256709e-003
-2.229094e-003
-1.998446e-003
-1.593780e-003
-1.061479e-003
-4.518766e-004
1.895434e-004
8.263155e-004
1.432102e-003
1.990125e-003
2.491714e-003
2.934446e-003
3.320221e-003
3.653539e-003
3.940128e-003
4.185967e-003
4.396676e-003
4.577182e-003
4.731606e-003
4.863282e-003
4.974857e-003
5.068436e-003
5.145739e-003
5.208229e-003
5.257216e-003
5.293877e-003
5.319199e-003
5.333795e-003
5.337572e-003
5.329210e-003
5.305400e-003
5.259789e-003
5.181591e-003
5.053887e-003
4.851853e-003
4.541612e-003
4.081423e-003
3.428389e-003
2.555070e-003
1.478295e-003
2.923876e-004
-8.186789e-004
-1.624888e-003
-1.956463e-003
-1.810797e-003
-1.357456e-003
-8.242814e-004
-3.787271e-004
-9.045120e-005
4.891238e-005
8.651792e-005
7.315359e-005
4.503707e-005
2.054042e-005
5.183493e-006
-2.049276e-006
-4.169866e-006
-3.868326e-006
-2.815741e-006
-1.791169e-006
-1.037679e-006
-5.573522e-007
-2.789241e-007
-1.292880e-007
-5.435471e-008
-1.960504e-008
-4.990819e-009
2.902440e-010
1.661993e-009
1.649697e-009
1.328458e-009
1.105392e-009
7.686152e-009
1.148354e-009
-1.630434e-008
-5.495235e-008
-1.341439e-007
-2.870884e-007
-5.664606e-007
-1.047466e-006
-1.818738e-006
-2.938832e-006
-4.318168e-006
-5.478898e-006
-5.191476e-006
-1.146095e-006
9.899006e-006
3.076424e-005
6.053653e-005
8.913253e-005
9.116808e-005
2.365720e-005
-1.656722e-004
-5.157956e-004
-1.018214e-003
-1.586185e-003
-2.044978e-003
-2.173999e-003
-1.813574e-003
-9.608728e-004
2.309137e-004
1.538018e-003
2.761253e-003
3.777121e-003
4.539393e-003
5.054732e-003
5.356269e-003
5.485705e-003
5.483985e-003
5.387255e-003
5.225447e-003
5.022100e-003
4.794821e-003
4.556119e-003
4.314404e-003
4.075013e-003
3.841143e-003
3.614645e-003
3.396660e-003
3.188095e-003
2.989973e-003
2.803666e-003
2.631043e-003
2.474563e-003
2.337317e-003
2.223058e-003
2.136235e-003
2.082042e-003
2.066489e-003
2.096500e-003
2.179983e-003
2.325794e-003
2.543389e-003
2.841825e-003
3.227460e-003
3.699344e-003
4.240863e-003
4.806293e-003
5.302656e-003
5.573183e-003
5.401160e-003
4.569506e-003
3.010954e-003
1.005312e-003
-7.993944e-004
-1.768172e-003
-1.784511e-003
-1.253030e-003
-6.445515e-004
-2.079674e-004
1.490721e-005
8.431140e-005
7.699693e-005
4.710521e-005
2.060224e-005
4.588409e-006
-2.456822e-006
-4.211503e-006
-3.676437e-006
-2.555863e-006
-1.561360e-006
-8.706552e-007
-4.500984e-007
-2.161949e-007
-9.548787e-008
-3.759457e-008
-1.206661e-008
-2.028948e-009
1.212914e-009
1.828225e-009
1.663571e-009
1.459042e-009
2.104525e-009
-9.405713e-009
-3.922704e-008
-1.031568e-007
-2.304067e-007
-4.697885e-007
-8.952234e-007
-1.602459e-006
-2.675844e-006
-4.081207e-006
-5.418864e-006
-5.495069e-006
-1.832375e-006
9.375799e-006
3.180929e-005
6.460897e-005
9.399731e-005
8.244145e-005
-3.650710e-005
-3.421110e-004
-8.749396e-004
-1.549436e-003
-2.070032e-003
-1.963914e-003
-8.956453e-004
9.569888e-004
2.976331e-003
4.555827e-003
5.412972e-003
5.576150e-003
5.227111e-003
4.570714e-003
3.772540e-003
2.944776e-003
2.154367e-003
1.436434e-003
8.056888e-004
2.643828e-004
-1.924710e-004
-5.736719e-004
-8.895641e-004
-1.150576e-003
-1.366350e-003
-1.545305e-003
-1.694491e-003
-1.819623e-003
-1.925225e-003
-2.014813e-003
-2.091082e-003
-2.156098e-003
-2.211446e-003
-2.258360e-003
-2.297812e-003
-2.330549e-003
-2.357083e-003
-2.377610e-003
-2.391843e-003
-2.398709e-003
-2.395877e-003
-2.378986e-003
-2.340463e-003
-2.267706e-003
-2.140442e-003
-1.927195e-003
-1.581422e-003
-1.039522e-003
-2.262254e-004
9.219667e-004
2.400225e-003
4.035742e-003
5.374060e-003
5.691932e-003
4.393395e-003
1.780877e-003
-7.144118e-004
-1.794673e-003
-1.555907e-003
-8.647686e-004
-3.014183e-004
-8.598592e-006
8.270361e-005
7.705709e-005
4.521129e-005
1.816940e-005
2.919159e-006
-3.114484e-006
-4.188087e-006
-3.369165e-006
-2.216811e-006
-1.294161e-006
-6.922343e-007
-3.432300e-007
-1.574447e-007
-6.565758e-008
-2.369124e-008
-6.244181e-009
5.838794e-011
1.796596e-009
1.975693e-009
1.848711e-009
-8.902401e-009
-2.781349e-008
-7.579617e-008
-1.761802e-007
-3.712435e-007
-7.292192e-007
-1.346560e-006
-2.327849e-006
-3.701651e-006
-5.196626e-006
-5.794856e-006
-3.103519e-006
6.996517e-006
2.916967e-005