# vtk DataFile Version 3.0
vtk output
ASCII
DATASET STRUCTURED_POINTS
DIMENSIONS 100 100 1
SPACING 1 1 1
ORIGIN 0 0 0
POINT_DATA 10000
SCALARS SFBox_profile double
LOOKUP_TABLE default 
0.000000e+000
0.000000e+000
0.000000e+000
0.000000e+000
0.000000e+000
0.000000e+000
0.000000e+000
0.000000e+000
0.000000e+000
0.000000e+000
0.000000e+000
0.000000e+000
0.000000e+000
0.000000e+000
0.000000e+000
0.000000e+000
0.000000e+000
0.000000e+000
0.000000e+000
0.000000e+000
0.000000e+000
0.000000e+000
0.000000e+000
0.000000e+000
0.000000e+000
0.000000e+000
0.000000e+000
0.000000e+000
0.000000e+000
0.000000e+000
0.000000e+000
0.000000e+000
0.000000e+000
0.000000e+000
0.000000e+000
0.000000e+000
0.000000e+000
0.000000e+000
0.000000e+000
0.000000e+000
0.000000e+000
0.000000e+000
0.000000e+000
0.000000e+000
0.000000e+000
0.000000e+000
0.000000e+000
0.000000e+000
0.000000e+000
0.000000e+000
0.000000e+000
0.000000e+000
0.000000e+000
0.000000e+000
0.000000e+000
0.000000e+000
0.000000e+000
0.000000e+000
0.000000e+000
0.000000e+000
0.000000e+000
0.000000e+000
0.000000e+000
0.000000e+000
0.000000e+000
0.000000e+000
0.000000e+000
0.000000e+000
0.000000e+000
0.000000e+000
0.000000e+000
0.000000e+000
0.000000e+000
0.000000e+000
0.000000e+000
0.000000e+000
0.000000e+000
0.000000e+000
0.000000e+000
0.000000e+000
0.000000e+000
0.000000e+000
0.000000e+000
0.000000e+000
0.000000e+000
0.000000e+000
0.000000e+000
0.000000e+000
0.000000e+000
0.000000e+000
0.000000e+000
0.000000e+000
0.000000e+000
0.000000e+000
0.000000e+000
0.000000e+000
0.000000e+000
0.000000e+000
0.000000e+000
0.000000e+000
8.598776e-009
7.467999e-009
5.419749e-009
2.841348e-009
2.429177e-010
-1.788475e-009
-2.655217e-009
-1.890168e-009
6.090914e-010
4.329059e-009
8.031887e-009
9.930978e-009
8.139631e-009
1.171620e-009
-1.184367e-008
-3.146677e-008
-5.869984e-008
-9.576510e-008
-1.463539e-007
-2.150066e-007
-3.057782e-007
-4.208273e-007
-5.597129e-007
-7.198373e-007
-8.978127e-007
-1.090944e-006
-1.297920e-006
-1.518276e-006
-1.751004e-006
-1.993261e-006
-2.240129e-006
-2.485731e-006
-2.725099e-006
-2.955669e-006
-3.177480e-006
-3.391965e-006
-3.600165e-006
-3.801587e-006
-3.994479e-006
-4.177314e-006
-4.350355e-006
-4.516072e-006
-4.677941e-006
-4.838336e-006
-4.996950e-006
-5.150921e-006
-5.296702e-006
-5.432438e-006
-5.559201e-006
-5.680168e-006
-5.798217e-006
-5.913533e-006
-6.022839e-006
-6.120765e-006
-6.202431e-006
-6.265538e-006
-6.310650e-006
-6.339577e-006
-6.353032e-006
-6.349147e-006
-6.323729e-006
-6.271997e-006
-6.190523e-006
-6.078107e-006
-5.935122e-006
-5.761928e-006
-5.557563e-006
-5.319697e-006
-5.045920e-006
-4.735584e-006
-4.391095e-006
-4.017956e-006
-3.623701e-006
-3.216524e-006
-2.804480e-006
-2.395651e-006
-1.998870e-006
-1.624148e-006
-1.282063e-006
-9.820134e-007
-7.300276e-007
-5.272471e-007
-3.699204e-007
-2.510000e-007
-1.625781e-007
-9.798533e-008
-5.263789e-008
-2.347688e-008
-7.655241e-009
-1.494514e-009
-4.697707e-010
-2.624594e-010
1.798246e-009
5.867040e-009
9.926448e-009
1.125683e-008
8.256451e-009
1.596793e-009
-5.944631e-009
-1.088575e-008
4.566423e-009
4.173734e-009
3.443451e-009
2.473529e-009
1.408697e-009
4.739741e-010
-3.909821e-012
3.291908e-010
1.630946e-009
3.541330e-009
4.928995e-009
3.888310e-009
-1.956528e-009
-1.499706e-008
-3.734438e-008
-7.095139e-008
-1.181470e-007
-1.822397e-007
-2.676747e-007
-3.793914e-007
-5.214762e-007
-6.956930e-007
-9.006612e-007
-1.132177e-006
-1.384554e-006
-1.652247e-006
-1.930880e-006
-2.217141e-006
-2.507790e-006
-2.798592e-006
-3.084073e-006
-3.358441e-006
-3.617200e-006
-3.858442e-006
-4.082944e-006
-4.292934e-006
-4.490282e-006
-4.675268e-006
-4.846737e-006
-5.003486e-006
-5.145850e-006
-5.276264e-006
-5.398237e-006
-5.514344e-006
-5.624606e-006
-5.726476e-006
-5.816556e-006
-5.892947e-006
-5.956610e-006
-6.010776e-006
-6.058785e-006
-6.101849e-006
-6.138281e-006
-6.164710e-006
-6.178454e-006
-6.179410e-006
-6.170249e-006
-6.154824e-006
-6.135902e-006
-6.113695e-006
-6.086029e-006
-6.049838e-006
-6.002813e-006
-5.944010e-006
-5.873022e-006
-5.788335e-006
-5.686020e-006
-5.559693e-006
-5.401823e-006
-5.205670e-006
-4.966847e-006
-4.683895e-006
-4.357984e-006
-3.992385e-006
-3.592411e-006
-3.166014e-006
-2.724537e-006
-2.282792e-006
-1.857803e-006
-1.466240e-006
-1.121374e-006
-8.307449e-007
-5.955041e-007
-4.115985e-007
-2.721162e-007
-1.696340e-007
-9.760011e-008
-5.045669e-008
-2.296471e-008
-9.570461e-009
-4.479957e-009
-2.526061e-009
-3.137705e-010
3.116542e-009
6.618617e-009
8.190570e-009
6.517393e-009
1.983521e-009
-3.380356e-009
-6.952857e-009
-1.673895e-009
-9.258227e-010
3.942613e-010
1.951068e-009
3.320696e-009
4.132626e-009
4.223949e-009
3.675281e-009
2.609767e-009
7.559642e-010
-3.061994e-009
-1.125524e-008
-2.744142e-008
-5.608317e-008
-1.020294e-007
-1.702444e-007
-2.658305e-007
-3.941469e-007
-5.606131e-007
-7.698635e-007
-1.024303e-006
-1.322585e-006
-1.658770e-006
-2.022744e-006
-2.401865e-006
-2.783195e-006
-3.155368e-006
-3.509395e-006
-3.838359e-006
-4.136615e-006
-4.399322e-006
-4.622783e-006
-4.805384e-006
-4.948358e-006
-5.055611e-006
-5.132399e-006
-5.183440e-006
-5.211500e-006
-5.217271e-006
-5.200560e-006
-5.161926e-006
-5.103554e-006
-5.028653e-006
-4.939751e-006
-4.837108e-006
-4.718524e-006
-4.580856e-006
-4.422368e-006
-4.244346e-006
-4.050958e-006
-3.847528e-006
-3.638569e-006
-3.426986e-006
-3.215011e-006
-3.006138e-006
-2.806634e-006
-2.625517e-006
-2.472963e-006
-2.358134e-006
-2.287708e-006
-2.265792e-006
-2.294901e-006
-2.376942e-006
-2.513188e-006
-2.702979e-006
-2.941766e-006
-3.219585e-006
-3.520781e-006
-3.825093e-006
-4.109532e-006
-4.350327e-006
-4.524564e-006
-4.611655e-006
-4.595086e-006
-4.464730e-006
-4.219418e-006
-3.868927e-006
-3.434277e-006
-2.945615e-006
-2.437807e-006
-1.944794e-006
-1.494378e-006
-1.104914e-006
-7.846373e-007
-5.332800e-007
-3.448704e-007
-2.104801e-007
-1.201373e-007
-6.382100e-008
-3.194822e-008
-1.583165e-008
-8.303563e-009
-4.333098e-009
-1.281641e-009
1.448678e-009
3.306167e-009
3.648655e-009
2.496634e-009
6.714961e-010
-6.541582e-010
-7.252186e-009
-5.493451e-009
-2.322138e-009
1.577750e-009
5.263545e-009
7.731204e-009
8.174579e-009
6.132241e-009
1.320203e-009
-6.931185e-009
-2.049859e-008
-4.322137e-008
-8.124436e-008
-1.427703e-007
-2.373036e-007
-3.746370e-007
-5.637993e-007
-8.119782e-007
-1.123265e-006
-1.497117e-006
-1.926733e-006
-2.397936e-006
-2.889283e-006
-3.373858e-006
-3.822596e-006
-4.208273e-006
-4.508971e-006
-4.710029e-006
-4.804167e-006
-4.790254e-006
-4.671691e-006
-4.455185e-006
-4.150169e-006
-3.768467e-006
-3.323552e-006
-2.829064e-006
-2.296855e-006
-1.735372e-006
-1.149194e-006
-5.400011e-007
9.163294e-008
7.447497e-007
1.417761e-006
2.109465e-006
2.820322e-006
3.552693e-006
4.309427e-006
5.091430e-006
5.895671e-006
6.714781e-006
7.538282e-006
8.354308e-006
9.150512e-006
9.913563e-006
1.062783e-005
1.127446e-005
1.183172e-005
1.227662e-005
1.258694e-005
1.274267e-005
1.272638e-005
1.252293e-005
1.211940e-005
1.150606e-005
1.067855e-005
9.640626e-006
8.406611e-006
7.002829e-006
5.467933e-006
3.852342e-006
2.216949e-006
6.308540e-007
-8.324549e-007
-2.100943e-006
-3.111771e-006
-3.819921e-006
-4.205889e-006
-4.280224e-006
-4.083096e-006
-3.678260e-006
-3.142441e-006
-2.552708e-006
-1.975057e-006
-1.456942e-006
-1.024983e-006
-6.872764e-007
-4.384461e-007
-2.653358e-007
-1.517957e-007
-8.194704e-008
-4.199475e-008
-2.097682e-008
-1.084410e-008
-6.164346e-009
-3.644502e-009
-1.599162e-009
5.543682e-010
2.733662e-009
4.549462e-009
5.583854e-009
-9.443211e-009
-7.318085e-009
-3.399291e-009
1.575403e-009
6.423725e-009
9.633290e-009
9.615915e-009
4.908663e-009
-5.965275e-009
-2.516839e-008
-5.667753e-008
-1.074856e-007
-1.883204e-007
-3.133871e-007
-4.988986e-007
-7.604545e-007
-1.109550e-006
-1.549642e-006
-2.072351e-006
-2.654622e-006
-3.257766e-006
-3.829201e-006
-4.307140e-006
-4.627688e-006
-4.733038e-006
-4.578978e-006
-4.140013e-006
-3.411017e-006
-2.405343e-006
-1.150380e-006
3.178658e-007
1.959653e-006
3.735008e-006
5.605867e-006
7.537470e-006
9.499678e-006
1.146845e-005
1.342715e-005
1.536685e-005
1.728528e-005
1.918433e-005
2.106745e-005
2.293788e-005
2.479842e-005
2.665206e-005
2.850215e-005
3.035107e-005
3.219780e-005
3.403572e-005
3.585196e-005
3.762845e-005
3.934385e-005
4.097475e-005
4.249590e-005
4.387956e-005
4.509523e-005
4.611019e-005
4.689078e-005
4.740368e-005
4.761648e-005
4.749747e-005
4.701502e-005
4.613752e-005
4.483444e-005
4.307894e-005
4.085151e-005
3.814430e-005
3.496587e-005
3.134650e-005
2.734362e-005
2.304677e-005
1.858010e-005
1.410027e-005
9.787985e-006
5.832355e-006
2.409278e-006
-3.429000e-007
-2.345384e-006
-3.592744e-006
-4.153877e-006
-4.158464e-006
-3.771644e-006
-3.163523e-006
-2.481753e-006
-1.833970e-006
-1.282855e-006
-8.519957e-007
-5.377548e-007
-3.219612e-007
-1.818905e-007
-9.625808e-008
-4.767957e-008
-2.287596e-008
-1.195298e-008
-7.694362e-009
-5.242465e-009
-2.040763e-009
2.335799e-009
6.763460e-009
9.561295e-009
-6.734100e-009
-5.180848e-009
-2.152119e-009
1.946495e-009
6.062381e-009
8.330433e-009
6.140143e-009
-3.734298e-009
-2.529331e-008
-6.407348e-008
-1.285193e-007
-2.315123e-007
-3.911919e-007
-6.300239e-007
-9.712189e-007
-1.432097e-006
-2.014871e-006
-2.696521e-006
-3.420673e-006
-4.094880e-006
-4.595861e-006
-4.782964e-006
-4.517407e-006
-3.682861e-006
-2.202646e-006
-4.991179e-008
2.750755e-006
6.129796e-006
9.984994e-006
1.419649e-005
1.864124e-005
2.320435e-005
2.778630e-005
3.230608e-005
3.670145e-005
4.092774e-005
4.495630e-005
4.877299e-005
5.237646e-005
5.577533e-005
5.898406e-005
6.201826e-005
6.489099e-005
6.761129e-005
7.018467e-005
7.261416e-005
7.490022e-005
7.703959e-005
7.902428e-005
8.084206e-005
8.247891e-005
8.392212e-005
8.516267e-005
8.619616e-005
8.702263e-005
8.764620e-005
8.807456e-005
8.831798e-005
8.838717e-005
8.828950e-005
8.802399e-005
8.757556e-005
8.690946e-005
8.596707e-005
8.466360e-005
8.288878e-005
8.051151e-005
7.738974e-005
7.338725e-005
6.839722e-005
6.237095e-005
5.534721e-005
4.747566e-005
3.902652e-005
3.037959e-005
2.198808e-005
1.431918e-005
7.781241e-006
2.654740e-006
-9.539133e-007
-3.122036e-006
-4.080376e-006
-4.151679e-006
-3.677388e-006
-2.954310e-006
-2.197087e-006
-1.530698e-006
-1.005882e-006
-6.248470e-007
-3.658154e-007
-2.001786e-007
-1.013697e-007
-4.770450e-008
-2.224689e-008
-1.204068e-008
-7.798409e-009
-4.010075e-009
1.148531e-009
6.657170e-009
1.025868e-008
6.544664e-010
7.285304e-010
1.237606e-009
2.399436e-009
3.534626e-009
2.409575e-009
-5.117030e-009
-2.523840e-008
-6.650103e-008
-1.406547e-007
-2.640900e-007
-4.592056e-007
-7.542059e-007
-1.179170e-006
-1.756218e-006
-2.482831e-006
-3.310313e-006
-4.123494e-006
-4.730945e-006
-4.874475e-006
-4.261113e-006
-2.612187e-006
2.830996e-007
4.524304e-006
1.007787e-005
1.678062e-005
2.436551e-005
3.250159e-005
4.083856e-005
4.904650e-005
5.684473e-005
6.401753e-005
7.041792e-005
7.596262e-005
8.062164e-005
8.440548e-005
8.735232e-005
8.951694e-005
9.096169e-005
9.174877e-005
9.193316e-005
9.155627e-005
9.064230e-005
8.919889e-005
8.722215e-005
8.470365e-005
8.163705e-005
7.802299e-005
7.387367e-005
6.921854e-005
6.411108e-005
5.863514e-005
5.290871e-005
4.708454e-005
4.134840e-005
3.591555e-005
3.102543e-005
2.693336e-005
2.389867e-005
2.216883e-005
2.196016e-005
2.343534e-005
2.667874e-005
3.167044e-005
3.826121e-005
4.615151e-005
5.487904e-005
6.382095e-005
7.221776e-005
7.922517e-005
8.399676e-005
8.579464e-005
8.411667e-005
7.881791e-005
7.019303e-005
5.898426e-005
4.629243e-005
3.339699e-005
2.152332e-005
1.161983e-005
4.210314e-006
-6.406469e-007
-3.252507e-006
-4.177857e-006
-4.030544e-006
-3.346426e-006
-2.508283e-006
-1.736456e-006
-1.123108e-006
-6.811130e-007
-3.860691e-007
-2.028861e-007
-9.831044e-008
-4.482676e-008
-2.102503e-008
-1.135365e-008
-6.042126e-009
-7.519459e-010
4.647027e-009
8.201600e-009
1.091508e-008
8.928492e-009
5.771923e-009
2.285128e-009
-1.953450e-009
-9.957602e-009
-2.837001e-008
-6.816750e-008
-1.453098e-007
-2.816420e-007
-5.058497e-007
-8.530859e-007
-1.360223e-006
-2.052298e-006
-2.916179e-006
-3.861859e-006
-4.680671e-006
-5.019783e-006
-4.396061e-006
-2.263429e-006
1.872819e-006
8.323280e-006
1.710338e-005
2.787962e-005
3.998941e-005
5.253030e-005
6.449433e-005
7.491134e-005
8.296783e-005
8.808104e-005
8.992296e-005
8.840269e-005
8.362279e-005
7.582560e-005
6.534000e-005
5.253355e-005
3.777220e-005
2.138891e-005
3.662226e-006
-1.519605e-005
-3.504584e-005
-5.581763e-005
-7.750411e-005
-1.001433e-004
-1.237943e-004
-1.485094e-004
-1.743091e-004
-2.011611e-004
-2.289635e-004
-2.575304e-004
-2.865798e-004
-3.157259e-004
-3.444794e-004
-3.722533e-004
-3.983742e-004
-4.220945e-004
-4.426080e-004
-4.590694e-004
-4.706182e-004
-4.764081e-004
-4.756421e-004
-4.676149e-004
-4.517647e-004
-4.277373e-004
-3.954610e-004
-3.552312e-004
-3.077982e-004
-2.544475e-004
-1.970515e-004
-1.380700e-004
-8.046382e-005
-2.749396e-005
1.761656e-005
5.214349e-005
7.437264e-005
8.402027e-005
8.239057e-005
7.215671e-005
5.679648e-005
3.985273e-005
2.424023e-005
1.180488e-005
3.238117e-006
-1.711561e-006
-3.863078e-006
-4.210025e-006
-3.628116e-006
-2.732861e-006
-1.870344e-006
-1.183808e-006
-6.974536e-007
-3.821964e-007
-1.941599e-007
-9.189124e-008
-4.193533e-008
-1.981202e-008
-9.660898e-009
-3.245101e-009
1.892640e-009
5.051649e-009
2.128130e-008
1.712666e-008
9.849873e-009
4.614170e-010
-1.187253e-008
-3.195903e-008
-7.057240e-008
-1.460736e-007
-2.856218e-007
-5.257758e-007
-9.112337e-007
-1.488168e-006
-2.285546e-006
-3.276276e-006
-4.314543e-006
-5.060553e-006
-4.926564e-006
-3.094789e-006
1.350157e-006
9.171595e-006
2.066650e-005
3.538277e-005
5.197140e-005
6.824564e-005
8.146711e-005
8.878682e-005
8.771195e-005
7.647803e-005
5.424420e-005
2.108844e-005
-2.215617e-005
-7.414596e-005
-1.332748e-004
-1.978772e-004
-2.663718e-004
-3.373554e-004
-4.096594e-004
-4.823799e-004
-5.548818e-004
-6.267826e-004
-6.979184e-004
-7.682998e-004
-8.380575e-004
-9.073810e-004
-9.764518e-004
-1.045381e-003
-1.114161e-003
-1.182632e-003
-1.250468e-003
-1.317176e-003
-1.382100e-003
-1.444450e-003
-1.503329e-003
-1.557776e-003
-1.606800e-003
-1.649408e-003
-1.684616e-003
-1.711449e-003
-1.728928e-003
-1.736044e-003
-1.731717e-003
-1.714753e-003
-1.683818e-003
-1.637441e-003
-1.574065e-003
-1.492196e-003
-1.390652e-003
-1.268934e-003
-1.127707e-003
-9.693222e-004
-7.982554e-004
-6.212975e-004
-4.472913e-004
-2.862753e-004
-1.480357e-004
-4.028894e-005
3.305569e-005
7.292748e-005
8.483476e-005
7.724537e-005
5.930667e-005
3.879461e-005
2.088079e-005
7.955503e-006
2.299990e-007
-3.351198e-006
-4.256145e-006
-3.790507e-006
-2.849394e-006
-1.916713e-006
-1.183083e-006
-6.773418e-007
-3.610325e-007
-1.797135e-007
-8.450458e-008
-3.850883e-008
-1.718473e-008
-6.560281e-009
-4.795215e-010
2.610602e-009
2.879488e-008
2.278355e-008
1.146992e-008
-4.951119e-009
-2.907572e-008
-6.927852e-008
-1.429269e-007
-2.792452e-007
-5.210181e-007
-9.233722e-007
-1.545329e-006
-2.425293e-006
-3.527244e-006
-4.647187e-006
-5.289767e-006
-4.566655e-006
-1.213270e-006
6.170463e-006
1.860962e-005
3.604571e-005
5.663243e-005
7.631467e-005
8.897923e-005
8.732623e-005
6.425152e-005
1.433932e-005
-6.500441e-005
-1.731667e-004
-3.067158e-004
-4.602732e-004
-6.275178e-004
-8.020703e-004
-9.781277e-004
-1.150830e-003
-1.316404e-003
-1.472167e-003
-1.616430e-003
-1.748352e-003
-1.867752e-003
-1.974898e-003
-2.070311e-003
-2.154582e-003
-2.228243e-003
-2.291672e-003
-2.345037e-003
-2.388291e-003
-2.421212e-003
-2.443490e-003
-2.454844e-003
-2.455153e-003
-2.444584e-003
-2.423706e-003
-2.393578e-003
-2.355798e-003
-2.312497e-003
-2.266283e-003
-2.220131e-003
-2.177237e-003
-2.140828e-003
-2.113935e-003
-2.099108e-003
-2.098067e-003
-2.111290e-003
-2.137519e-003
-2.173233e-003
-2.212134e-003
-2.244803e-003
-2.258754e-003
-2.239199e-003
-2.170843e-003
-2.040860e-003
-1.842817e-003
-1.580576e-003
-1.270491e-003
-9.400357e-004
-6.223168e-004
-3.482370e-004
-1.393278e-004
-3.377710e-006
6.604349e-005
8.554887e-005
7.521646e-005
5.268258e-005
2.985754e-005
1.255806e-005
2.056593e-006
-2.870819e-006
-4.241266e-006
-3.842761e-006
-2.854099e-006
-1.876900e-006
-1.128282e-006
-6.292975e-007
-3.279754e-007
-1.604449e-007
-7.392869e-008
-3.178393e-008
-1.176335e-008
-2.249786e-009
1.720022e-009
3.091489e-008
2.353249e-008
8.321560e-009
-1.686577e-008
-5.846475e-008
-1.310492e-007
-2.619538e-007
-4.954237e-007
-8.936573e-007
-1.529081e-006
-2.456326e-006
-3.644683e-006
-4.850445e-006
-5.431530e-006
-4.171301e-006
7.274170e-007
1.125474e-005
2.864338e-005
5.189010e-005
7.610767e-005
9.139878e-005
8.323310e-005
3.494140e-005
-6.813863e-005
-2.340585e-004
-4.612214e-004
-7.381780e-004
-1.045703e-003
-1.360197e-003
-1.657679e-003
-1.917469e-003
-2.124639e-003
-2.270860e-003
-2.353917e-003
-2.376469e-003
-2.344516e-003
-2.265873e-003
-2.148818e-003
-2.001043e-003
-1.828976e-003
-1.637479e-003
-1.429879e-003
-1.208227e-003
-9.736891e-004
-7.269818e-004
-4.687893e-004
-2.001338e-004
7.733505e-005
3.611628e-004
6.480468e-004
9.339215e-004
1.214143e-003
1.483726e-003
1.737596e-003
1.970811e-003
2.178717e-003
2.357011e-003
2.501682e-003
2.608849e-003
2.674516e-003
2.694273e-003
2.662988e-003
2.574550e-003
2.421770e-003
2.196604e-003
1.890986e-003
1.498578e-003
1.017830e-003
4.565580e-004
-1.622232e-004
-7.946409e-004
-1.373782e-003
-1.816362e-003
-2.043285e-003
-2.011872e-003
-1.743336e-003
-1.322080e-003
-8.609656e-004
-4.567683e-004
-1.644726e-004
5.633091e-006
7.635271e-005
8.433318e-005
6.356991e-005
3.706006e-005
1.599476e-005
3.226574e-006
-2.639699e-006
-4.228337e-006
-3.797845e-006
-2.754114e-006
-1.761163e-006
-1.029185e-006
-5.586342e-007
-2.832821e-007
-1.337819e-007
-5.769517e-008
-2.113938e-008
-4.657391e-009
1.602864e-009
2.583128e-008
1.737169e-008
-2.224396e-009
-3.945505e-008
-1.073706e-007
-2.302330e-007
-4.494764e-007
-8.282524e-007
-1.447844e-006
-2.381729e-006
-3.621601e-006
-4.921549e-006
-5.545865e-006
-3.989358e-006
2.100520e-006
1.539895e-005
3.734570e-005
6.538431e-005
8.948392e-005
8.945305e-005
3.583379e-005
-1.034880e-004
-3.513997e-004
-7.080597e-004
-1.142709e-003
-1.593682e-003
-1.978370e-003
-2.214791e-003
-2.246784e-003
-2.058872e-003
-1.674086e-003
-1.139720e-003
-5.110179e-004
1.605450e-004
8.332342e-004
1.476899e-003
2.072457e-003
2.610150e-003
3.087260e-003
3.505771e-003
3.870307e-003
4.186507e-003
4.459893e-003
4.695192e-003
4.896038e-003
5.064963e-003
5.203569e-003
5.312830e-003
5.393462e-003
5.446316e-003
5.472742e-003
5.474852e-003
5.455660e-003
5.419090e-003
5.369873e-003
5.313373e-003
5.255359e-003
5.201734e-003
5.158258e-003
5.130236e-003
5.122170e-003
5.137295e-003
5.176920e-003
5.239459e-003
5.319039e-003
5.403571e-003
5.472198e-003
5.492225e-003
5.416049e-003
5.179658e-003
4.706369e-003
3.922936e-003
2.797136e-003
1.396717e-003
-6.266607e-005
-1.249921e-003
-1.872865e-003
-1.866890e-003
-1.431859e-003
-8.667827e-004
-3.897358e-004
-8.701390e-005
5.332661e-005
8.694327e-005
7.029299e-005
4.122329e-005
1.745113e-005
3.376299e-006
-2.763523e-006
-4.230883e-006
-3.657236e-006
-2.557938e-006
-1.580574e-006
-8.933917e-007
-4.682081e-007
-2.273431e-007
-1.004845e-007
-3.828083e-008
-1.035294e-008
-2.132284e-011
1.249725e-008
2.663186e-009
-2.315698e-008
-7.819037e-008
-1.854727e-007
-3.831244e-007
-7.309012e-007
-1.312012e-006
-2.215006e-006
-3.465109e-006
-4.857409e-006
-5.651162e-006
-4.171310e-006
2.413128e-006
1.753179e-005
4.302767e-005
7.466147e-005
9.565455e-005
7.101187e-005
-5.076176e-005
-3.218738e-004
-7.634963e-004
-1.327117e-003
-1.868901e-003
-2.163502e-003
-1.994945e-003
-1.285608e-003
-1.462500e-004
1.192805e-003
2.496570e-003
3.603968e-003
4.444528e-003
5.015125e-003
5.348299e-003
5.489134e-003
5.482791e-003
5.369047e-003
5.180397e-003
4.941826e-003
4.671457e-003
4.381634e-003
4.080196e-003
3.771755e-003
3.458847e-003
3.142905e-003
2.825027e-003
2.506505e-003
2.189149e-003
1.875411e-003
1.568366e-003
1.271560e-003
9.887824e-004
7.238073e-004
4.801594e-004
2.609670e-004
6.892067e-005
-9.365868e-005
-2.246525e-004
-3.218881e-004
-3.827973e-004
-4.040001e-004
-3.808255e-004
-3.067914e-004
-1.730768e-004
3.193571e-005
3.228612e-004
7.168793e-004
1.231954e-003
1.882469e-003
2.670272e-003
3.568256e-003
4.493935e-003
5.275860e-003
5.633738e-003
5.226025e-003
3.836897e-003
1.684423e-003
-4.497525e-004
-1.685683e-003
-1.794320e-003
-1.251802e-003
-6.213628e-004
-1.828921e-004
2.873076e-005
8.640374e-005
7.278553e-005
4.169779e-005
1.658322e-005
2.460724e-006
-3.183048e-006
-4.201895e-006
-3.409752e-006
-2.274739e-006
-1.348148e-006
-7.310720e-007
-3.655808e-007
-1.671241e-007
-6.780008e-008
-2.277004e-008
-6.116488e-009
-9.539805e-009
-2.198989e-008
-5.784140e-008
-1.396535e-007
-3.041998e-007
-6.078168e-007
-1.131292e-006
-1.971405e-006
-3.187985e-006
-4.649372e-006
-5.706576e-006
-4.692650e-006
1.504563e-006
1.705134e-005
4.461884e-005
7.911488e-005
9.727771e-005
4.698141e-005
-1.508520e-004
-5.698937e-004
-1.202929e-003
-1.858946e-003
-2.108453e-003
-1.465292e-003
1.572126e-004
2.250898e-003
4.095412e-003
5.235172e-003
5.599070e-003
5.351496e-003
4.720535e-003
3.902674e-003
3.034391e-003
2.197737e-003
1.435733e-003
7.664107e-004
1.927614e-004
-2.907624e-004
-6.940405e-004
-1.028551e-003
-1.305650e-003
-1.535579e-003
-1.727008e-003
-1.886915e-003
-2.020690e-003
-2.132360e-003
-2.224877e-003
-2.300422e-003
-2.360694e-003
-2.407151e-003
-2.441202e-003
-2.464334e-003
-2.478186e-003
-2.484568e-003
-2.485434e-003
-2.482825e-003
-2.478803e-003
-2.475387e-003
-2.474490e-003
-2.477843e-003
-2.486903e-003
-2.502708e-003
-2.525646e-003
-2.555085e-003
-2.588718e-003
-2.621472e-003
-2.643667e-003
-2.638024e-003
-2.574960e-003
-2.405845e-003
-2.055188e-003
-1.416877e-003
-3.687155e-004
1.167775e-003
3.092912e-003
4.938094e-003
5.798684e-003
4.783393e-003
2.072937e-003
-6.457146e-004
-1.792994e-003
-1.510442e-003
-7.943068e-004
-2.469093e-004
1.651205e-005
8.615656e-005
7.125100e-005
3.842448e-005
1.360478e-005
7.714146e-007
-3.701316e-006
-4.062544e-006
-3.047996e-006
-1.923022e-006
-1.085394e-006
-5.604320e-007
-2.656404e-007
-1.147516e-007
-4.523957e-008
-1.925562e-008
-4.043241e-008
-5.793387e-008
-1.099956e-007
-2.311454e-007
-4.756511e-007
-9.216063e-007
-1.669070e-006
-2.806370e-006
-4.287090e-006
-5.627144e-006
-5.356289e-006
-3.794515e-007
1.400977e-005
4.175482e-005
7.867669e-005
9.807068e-005
3.284630e-005
-2.257971e-004
-7.748502e-004
-1.548416e-003
-2.086554e-003
-1.507218e-003
6.688556e-004
3.506167e-003
5.409052e-003
5.649712e-003
4.582364e-003
2.938462e-003
1.292276e-003
-6.724427e-005
-1.064544e-003
-1.735118e-003
-2.152248e-003
-2.388721e-003
-2.502881e-003
-2.537049e-003
-2.520389e-003
-2.472455e-003
-2.406104e-003
-2.329620e-003
-2.248191e-003
-2.164940e-003
-2.081645e-003
-1.999253e-003
-1.918231e-003
-1.838813e-003
-1.761163e-003
-1.685478e-003
-1.612043e-003
-1.541246e-003
-1.473577e-003
-1.409609e-003
-1.349976e-003
-1.295353e-003
-1.246436e-003
-1.203939e-003
-1.168597e-003
-1.141200e-003
-1.122626e-003
-1.113902e-003
-1.116267e-003
-1.131255e-003
-1.160804e-003
-1.207377e-003
-1.274110e-003
-1.364939e-003
-1.484661e-003
-1.638758e-003
-1.832618e-003
-2.069281e-003
-2.343915e-003
-2.631587e-003
-2.862868e-003
-2.882522e-003
-2.402807e-003
-1.025861e-003
1.469853e-003
4.436816e-003
5.938287e-003
4.260564e-003
6.794818e-004
-1.565751e-003
-1.626140e-003
-8.662775e-004
-2.549701e-004
2.368940e-005
8.670715e-005
6.558624e-005
3.191633e-005
9.230737e-006
-1.176785e-006
-4.078097e-006
-3.752823e-006
-2.588274e-006
-1.536774e-006
-8.227542e-007
-4.042182e-007
-1.839794e-007
-8.031141e-008
-4.089026e-008
-8.038051e-008
-1.066730e-007
-1.836138e-007
-3.601188e-007
-7.111038e-007
-1.337484e-006
-2.347931e-006
-3.774572e-006
-5.328255e-006
-5.877287e-006
-2.671113e-006
9.123325e-006
3.481689e-005
7.307998e-005
9.905379e-005
3.848579e-005
-2.437456e-004
-8.771028e-004
-1.741599e-003
-2.038595e-003
-3.972975e-004
3.057764e-003
5.643843e-003
5.421922e-003
3.159932e-003
5.917039e-004
-1.269846e-003
-2.272571e-003
-2.646099e-003
-2.656745e-003
-2.492882e-003
-2.263318e-003
-2.023369e-003
-1.797903e-003
-1.596071e-003
-1.419531e-003
-1.266687e-003
-1.134748e-003
-1.020679e-003
-9.215953e-004
-8.349292e-004
-7.584706e-004
-6.903730e-004
-6.291345e-004
-5.735698e-004
-5.227744e-004
-4.760867e-004
-4.330470e-004
-3.933567e-004
-3.568388e-004
-3.234034e-004
-2.930190e-004
-2.656920e-004
-2.414512e-004
-2.203382e-004
-2.024053e-004
-1.877230e-004
-1.763978e-004
-1.685970e-004
-1.645810e-004
-1.647418e-004
-1.696577e-004
-1.801724e-004
-1.975107e-004
-2.234480e-004
-2.605579e-004
-3.125802e-004
-3.849657e-004
-4.856591e-004
-6.261376e-004
-8.225418e-004
-1.096163e-003
-1.470961e-003
-1.961696e-003
-2.537198e-003
-3.029222e-003
-2.967468e-003
-1.502143e-003
1.879258e-003
5.426505e-003
5.396730e-003
1.582489e-003
-1.409202e-003
-1.635954e-003
-8.232841e-004
-2.041879e-004
4.601201e-005
8.520329e-005
5.572856e-005
2.329003e-005
4.475895e-006
-2.844083e-006
-4.138853e-006
-3.269556e-006
-2.075327e-006
-1.159009e-006
-5.898450e-007
-2.796134e-007
-1.296292e-007
-7.137638e-008
-1.299254e-007
-1.700025e-007
-2.827687e-007
-5.334114e-007
-1.019184e-006
-1.860154e-006
-3.148737e-006
-4.777719e-006
-6.011129e-006
-4.698421e-006
3.581662e-006
2.502191e-005
6.213646e-005
9.728877e-005
6.111188e-005
-1.957040e-004
-8.478639e-004
-1.788933e-003
-1.961407e-003
4.896986e-004
4.595562e-003
5.916070e-003
3.341587e-003
-1.106280e-004
-2.188459e-003
-2.806995e-003
-2.640790e-003
-2.207116e-003
-1.752280e-003
-1.361699e-003
-1.050823e-003
-8.108149e-004
-6.272715e-004
-4.867501e-004
-3.784513e-004
-2.942033e-004
-2.279686e-004
-1.753136e-004
-1.329713e-004
-9.851522e-005
-7.012801e-005
-4.644014e-005
-2.641808e-005
-9.285415e-006
5.535254e-006
1.846755e-005
2.981828e-005
3.980835e-005
4.859850e-005
5.630953e-005
6.303677e-005
6.885955e-005
7.384747e-005
7.806548e-005
8.157794e-005
8.445042e-005
8.674742e-005
8.852598e-005
8.982731e-005
9.066812e-005
9.103153e-005
9.085406e-005
9.000318e-005
8.823887e-005
8.515055e-005
8.005391e-005
7.181811e-005
5.856853e-005
3.717062e-005
2.337998e-006
-5.487932e-005
-1.495532e-004
-3.065313e-004
-5.647517e-004
-9.786230e-004
-1.603506e-003
-2.427530e-003
-3.162826e-003
-2.840777e-003
4.697842e-005
4.657676e-003
5.727934e-003
1.706606e-003
-1.494319e-003
-1.548577e-003
-6.740208e-004
-1.138673e-004
7.065268e-005
7.796886e-005
4.250780e-005
1.413644e-005
3.387396e-007
-3.859190e-006
-3.838875e-006
-2.668360e-006
-1.567415e-006
-8.267673e-007
-4.048145e-007
-1.943722e-007
-1.107310e-007
-1.900393e-007
-2.499252e-007
-4.111781e-007
-7.562262e-007
-1.403863e-006
-2.482443e-006
-4.024386e-006
-5.659893e-006
-5.944921e-006
-1.338403e-006
1.431000e-005
4.678229e-005
8.848025e-005
8.670616e-005
-1.007127e-004
-6.910632e-004
-1.690572e-003
-2.038045e-003
6.359616e-004
5.145628e-003
5.456251e-003
1.414091e-003
-1.962633e-003
-2.903602e-003
-2.511813e-003
-1.813014e-003
-1.204478e-003
-7.632301e-004
-4.652994e-004
-2.697780e-004
-1.425228e-004
-5.954872e-005
-5.091097e-006
3.093920e-005
5.494907e-005
7.101789e-005
8.176685e-005
8.890212e-005
9.355064e-005
9.646773e-005
9.816694e-005
9.900178e-005
9.921745e-005
9.898373e-005
9.841678e-005
9.759500e-005
9.657206e-005
9.538787e-005
9.407708e-005
9.267416e-005
9.121493e-005
8.973578e-005
8.827270e-005
8.686208e-005
8.554303e-005
8.435951e-005
8.336060e-005
8.259842e-005
8.212568e-005
8.199480e-005
8.225994e-005
8.298029e-005
8.422248e-005
8.605941e-005
8.856397e-005
9.179478e-005
9.576618e-005
1.003833e-004
1.052995e-004
1.096076e-004
1.111830e-004
1.053201e-004
8.199853e-005
2.073829e-005
-1.179977e-004
-4.037228e-004
-9.385983e-004
-1.812217e-003
-2.891099e-003
-3.224846e-003
-6.428449e-004
4.536115e-003
5.556585e-003
1.016878e-003
-1.722484e-003
-1.329671e-003
-4.531571e-004
-1.751989e-005
8.418757e-005
6.375961e-005
2.797689e-005
6.089907e-006
-2.512574e-006
-4.118125e-006
-3.256480e-006
-2.034830e-006
-1.115122e-006
-5.616804e-007
-2.759168e-007
-1.596434e-007
-2.618881e-007
-3.482458e-007
-5.714663e-007
-1.030901e-006
-1.862627e-006
-3.183323e-006
-4.900838e-006
-6.224217e-006
-4.717940e-006
4.796965e-006
2.958834e-005