# vtk DataFile Version 3.0
vtk output
ASCII
DATASET STRUCTURED_POINTS
DIMENSIONS 100 100 1
SPACING 1 1 1
ORIGIN 0 0 0
POINT_DATA 10000
SCALARS SFBox_profile double
LOOKUP_TABLE default 
0.000000e+000
0.000000e+000
0.000000e+000
0.000000e+000
0.000000e+000
0.000000e+000
0.000000e+000
0.000000e+000
0.000000e+000
0.000000e+000
0.000000e+000
0.000000e+000
0.000000e+000
0.000000e+000
0.000000e+000
0.000000e+000
0.000000e+000
0.000000e+000
0.000000e+000
0.000000e+000
0.000000e+000
0.000000e+000
0.000000e+000
0.000000e+000
0.000000e+000
0.000000e+000
0.000000e+000
0.000000e+000
0.000000e+000
0.000000e+000
0.000000e+000
0.000000e+000
0.000000e+000
0.000000e+000
0.000000e+000
0.000000e+000
0.000000e+000
0.000000e+000
0.000000e+000
0.000000e+000
0.000000e+000
0.000000e+000
0.000000e+000
0.000000e+000
0.000000e+000
0.000000e+000
0.000000e+000
0.000000e+000
0.000000e+000
0.000000e+000
0.000000e+000
0.000000e+000
0.000000e+000
0.000000e+000
0.000000e+000
0.000000e+000
0.000000e+000
0.000000e+000
0.000000e+000
0.000000e+000
0.000000e+000
0.000000e+000
0.000000e+000
0.000000e+000
0.000000e+000
0.000000e+000
0.000000e+000
0.000000e+000
0.000000e+000
0.000000e+000
0.000000e+000
0.000000e+000
0.000000e+000
0.000000e+000
0.000000e+000
0.000000e+000
0.000000e+000
0.000000e+000
0.000000e+000
0.000000e+000
0.000000e+000
0.000000e+000
0.000000e+000
0.000000e+000
0.000000e+000
0.000000e+000
0.000000e+000
0.000000e+000
0.000000e+000
0.000000e+000
0.000000e+000
0.000000e+000
0.000000e+000
0.000000e+000
0.000000e+000
0.000000e+000
0.000000e+000
0.000000e+000
0.000000e+000
0.000000e+000
3.344113e-009
1.261927e-009
-1.400918e-009
-2.940033e-009
-2.551550e-009
-7.257195e-010
1.253343e-009
2.249405e-009
1.949294e-009
8.502669e-010
-2.931261e-010
-1.033408e-009
-1.369765e-009
-1.467686e-009
-1.333859e-009
-7.966997e-010
2.159236e-010
1.430117e-009
2.306061e-009
2.403575e-009
1.700903e-009
5.791020e-010
-4.934228e-010
-1.273294e-009
-1.790697e-009
-2.155493e-009
-2.363140e-009
-2.294259e-009
-1.870112e-009
-1.170653e-009
-3.888745e-010
3.169330e-010
9.147298e-010
1.456645e-009
1.973147e-009
2.423953e-009
2.743900e-009
2.915488e-009
2.984512e-009
3.010694e-009
3.015557e-009
2.981566e-009
2.892500e-009
2.763271e-009
2.628324e-009
2.508484e-009
2.396994e-009
2.278375e-009
2.154702e-009
2.047617e-009
1.975051e-009
1.931949e-009
1.899303e-009
1.871270e-009
1.866616e-009
1.907508e-009
1.988828e-009
2.077001e-009
2.145141e-009
2.204814e-009
2.291389e-009
2.412304e-009
2.518132e-009
2.539052e-009
2.453225e-009
2.305743e-009
2.144753e-009
1.941880e-009
1.598303e-009
1.049766e-009
3.622031e-010
-2.989898e-010
-8.092068e-010
-1.183406e-009
-1.511745e-009
-1.791456e-009
-1.850474e-009
-1.480970e-009
-6.728157e-010
2.960682e-010
1.031743e-009
1.311121e-009
1.208695e-009
9.464436e-010
6.367506e-010
2.002179e-010
-4.481906e-010
-1.149633e-009
-1.488726e-009
-1.098267e-009
-3.484634e-011
1.133723e-009
1.665358e-009
1.175989e-009
-4.681353e-011
-1.208023e-009
-1.542588e-009
-8.417400e-010
4.046969e-010
1.345142e-009
7.163534e-010
2.167127e-010
-3.853807e-010
-6.526508e-010
-4.211202e-010
9.683868e-011
4.884327e-010
4.609018e-010
6.158802e-011
-3.727198e-010
-4.934953e-010
-2.164299e-010
2.297628e-010
5.104068e-010
4.568422e-010
1.678089e-010
-1.260763e-010
-2.817233e-010
-3.339707e-010
-3.925051e-010
-4.789449e-010
-4.845645e-010
-2.875039e-010
1.033828e-010
5.325642e-010
8.232677e-010
9.126099e-010
8.665453e-010
7.788059e-010
6.724032e-010
5.009227e-010
2.287518e-010
-1.095556e-010
-4.330222e-010
-6.855808e-010
-8.739348e-010
-1.038279e-009
-1.198010e-009
-1.333502e-009
-1.415953e-009
-1.443768e-009
-1.444123e-009
-1.443295e-009
-1.443064e-009
-1.428047e-009
-1.390793e-009
-1.343467e-009
-1.304263e-009
-1.277350e-009
-1.251183e-009
-1.216419e-009
-1.180618e-009
-1.160849e-009
-1.162645e-009
-1.171716e-009
-1.170690e-009
-1.161902e-009
-1.166706e-009
-1.198178e-009
-1.238597e-009
-1.252355e-009
-1.224012e-009
-1.176372e-009
-1.141235e-009
-1.112084e-009
-1.037143e-009
-8.703589e-010
-6.273331e-010
-3.778224e-010
-1.746650e-010
2.053320e-012
2.141491e-010
4.733035e-010
6.928345e-010
7.509739e-010
6.099295e-010
3.628783e-010
1.502845e-010
2.943363e-011
-6.183306e-011
-2.053886e-010
-3.771977e-010
-4.419328e-010
-2.880724e-010
3.230754e-011
3.120846e-010
3.543859e-010
1.440450e-010
-1.364917e-010
-2.623610e-010
-1.512110e-010
8.243653e-011
2.378604e-010
1.954268e-010
-3.692887e-013
-1.940074e-010
-2.456166e-010
-1.266037e-010
7.481012e-011
2.229902e-010
-2.439558e-009
-9.855167e-010
9.106596e-010
2.095456e-009
1.991303e-009
8.407024e-010
-6.000616e-010
-1.599857e-009
-1.817404e-009
-1.318186e-009
-3.753161e-010
7.044979e-010
1.622191e-009
2.078595e-009
1.844203e-009
9.045226e-010
-4.560256e-010
-1.750192e-009
-2.525332e-009
-2.572894e-009
-1.968933e-009
-9.553387e-010
2.103277e-010
1.326337e-009
2.237943e-009
2.819697e-009
2.995173e-009
2.769897e-009
2.228243e-009
1.486594e-009
6.440530e-010
-2.305150e-010
-1.080755e-009
-1.849736e-009
-2.490758e-009
-2.985979e-009
-3.347074e-009
-3.595720e-009
-3.745644e-009
-3.803470e-009
-3.781431e-009
-3.702463e-009
-3.590656e-009
-3.459381e-009
-3.311514e-009
-3.150242e-009
-2.986267e-009
-2.833073e-009
-2.697566e-009
-2.578831e-009
-2.476511e-009
-2.397473e-009
-2.351520e-009
-2.341342e-009
-2.360028e-009
-2.400123e-009
-2.462784e-009
-2.554178e-009
-2.672206e-009
-2.800241e-009
-2.917135e-009
-3.011761e-009
-3.082606e-009
-3.120572e-009
-3.096007e-009
-2.968828e-009
-2.713174e-009
-2.328868e-009
-1.827557e-009
-1.214862e-009
-4.978125e-010
2.849118e-010
1.046222e-009
1.674089e-009
2.076123e-009
2.200652e-009
2.021073e-009
1.522493e-009
7.329388e-010
-2.193380e-010
-1.096230e-009
-1.635107e-009
-1.682584e-009
-1.270022e-009
-5.719127e-010
2.006600e-010
8.671797e-010
1.268259e-009
1.251264e-009
7.394686e-010
-1.373252e-010
-9.943547e-010
-1.350708e-009
-9.442364e-010
2.790888e-011
9.707639e-010
1.266335e-009
7.110146e-010
-3.162876e-010
-1.103099e-009
-3.656603e-009
-1.340477e-009
1.573521e-009
3.177755e-009
2.651712e-009
6.453350e-010
-1.386564e-009
-2.279424e-009
-1.837242e-009
-6.909845e-010
3.744071e-010
9.830113e-010
1.211347e-009
1.238504e-009
1.052294e-009
5.076110e-010
-3.845413e-010
-1.299230e-009
-1.773627e-009
-1.558249e-009
-8.055354e-010
7.165465e-011
7.182367e-010
1.037746e-009
1.136411e-009
1.129592e-009
1.025854e-009
7.745049e-010
3.790138e-010
-6.511812e-011
-4.390642e-010
-6.880550e-010
-8.367478e-010
-9.335308e-010
-9.953749e-010
-1.006027e-009
-9.523371e-010
-8.488171e-010
-7.267245e-010
-6.078558e-010
-4.939164e-010
-3.776239e-010
-2.576409e-010
-1.412082e-010
-3.623518e-011
5.527937e-011
1.361737e-010
2.089325e-010
2.724481e-010
3.228030e-010
3.564198e-010
3.729994e-010
3.758018e-010
3.681331e-010
3.487243e-010
3.117827e-010
2.538069e-010
1.801209e-010
1.011701e-010
1.972846e-011
-7.556459e-011
-1.980426e-010
-3.425691e-010
-4.828595e-010
-5.958419e-010
-6.865539e-010
-7.777272e-010
-8.671017e-010
-9.025715e-010
-8.170889e-010
-5.971681e-010
-3.068687e-010
-2.752328e-011
2.261713e-010
5.081817e-010
8.383261e-010
1.104497e-009
1.104382e-009
7.227998e-010
7.640451e-011
-5.397976e-010
-8.758115e-010
-9.045835e-010
-7.737935e-010
-5.903263e-010
-2.876021e-010
2.530726e-010
9.421210e-010
1.388623e-009
1.151511e-009
1.633658e-010
-1.068735e-009
-1.735822e-009
-1.316053e-009
-1.780903e-011
1.305529e-009
1.742001e-009
9.809980e-010
-4.487966e-010
-1.546318e-009
-2.081259e-009
-5.898929e-010
1.164984e-009
1.874694e-009
1.123455e-009
-3.723678e-010
-1.396133e-009
-1.202562e-009
-5.670618e-011
1.057180e-009
1.269227e-009
4.882986e-010
-6.239826e-010
-1.269764e-009
-1.135434e-009
-5.011256e-010
1.544260e-010
5.983506e-010
9.187149e-010
1.243065e-009
1.470365e-009
1.320401e-009
6.308481e-010
-4.308246e-010
-1.463647e-009
-2.129814e-009
-2.356675e-009
-2.280046e-009
-2.038993e-009
-1.651133e-009
-1.066799e-009
-2.973425e-010
5.411651e-010
1.305818e-009
1.926921e-009
2.425490e-009
2.848572e-009
3.205766e-009
3.469229e-009
3.619140e-009
3.674013e-009
3.675895e-009
3.654943e-009
3.613869e-009
3.543049e-009
3.443488e-009
3.332260e-009
3.228494e-009
3.138208e-009
3.054395e-009
2.971051e-009
2.895196e-009
2.843180e-009
2.824263e-009
2.829578e-009
2.841081e-009
2.853049e-009
2.880607e-009
2.940200e-009
3.020376e-009
3.079548e-009
3.081196e-009
3.028931e-009
2.953704e-009
2.857736e-009
2.680601e-009
2.341739e-009
1.826686e-009
1.218539e-009
6.241732e-010
6.949298e-011
-5.065340e-010
-1.130422e-009
-1.676740e-009
-1.912770e-009
-1.696689e-009
-1.132379e-009
-5.006243e-010
-1.856813e-011
3.208574e-010
6.500252e-010
9.772470e-010
1.084772e-009
7.305439e-010
-3.140195e-011
-7.681273e-010
-9.701492e-010
-4.929942e-010
2.804375e-010
7.351504e-010
5.304110e-010
-1.267979e-010
-6.718810e-010
-6.566311e-010
-1.003576e-010
5.527749e-010
7.999749e-010
4.596324e-010
-2.141752e-010
-7.349342e-010
9.492148e-010
5.834548e-010
-2.323813e-011
-6.816251e-010
-1.148127e-009
-1.156884e-009
-5.415576e-010
5.722017e-010
1.675101e-009
2.072833e-009
1.341885e-009
-2.824552e-010
-1.953320e-009
-2.737449e-009
-2.234765e-009
-7.985562e-010
7.963545e-010
1.913055e-009
2.361249e-009
2.275321e-009
1.804556e-009
9.764758e-010
-1.708073e-010
-1.413194e-009
-2.375958e-009
-2.770288e-009
-2.586362e-009
-2.049040e-009
-1.398961e-009
-7.281054e-010
-8.310791e-012
7.673024e-010
1.508258e-009
2.088501e-009
2.455617e-009
2.660552e-009
2.787236e-009
2.871044e-009
2.889893e-009
2.819156e-009
2.676946e-009
2.512543e-009
2.361350e-009
2.220924e-009
2.069758e-009
1.901216e-009
1.734124e-009
1.592733e-009
1.482452e-009
1.388891e-009
1.299748e-009
1.223554e-009
1.182981e-009
1.189183e-009
1.226960e-009
1.270972e-009
1.317316e-009
1.392164e-009
1.521106e-009
1.691050e-009
1.853615e-009
1.974880e-009
2.075143e-009
2.201973e-009
2.355521e-009
2.453500e-009
2.391707e-009
2.144120e-009
1.784695e-009
1.392024e-009
9.424358e-010
3.321101e-010
-4.704354e-010
-1.306412e-009
-1.896898e-009
-2.053426e-009
-1.812406e-009
-1.348477e-009
-7.711871e-010
-5.126754e-011
8.233812e-010
1.644533e-009
2.007388e-009
1.607927e-009
5.496632e-010
-6.535940e-010
-1.411890e-009
-1.443320e-009
-8.914532e-010
-1.317883e-010
5.025389e-010
8.411156e-010
8.304435e-010
4.816058e-010
-8.978800e-011
-6.182163e-010
-7.847466e-010
-4.479785e-010
1.920924e-010
6.926932e-010
3.120505e-009
1.184092e-009
-1.234722e-009
-2.574962e-009
-2.230073e-009
-7.501918e-010
7.978489e-010
1.640045e-009
1.630575e-009
1.035546e-009
1.731589e-010
-7.120742e-010
-1.360535e-009
-1.478255e-009
-9.271033e-010
6.717407e-011
9.754645e-010
1.314345e-009
9.830080e-010
2.822514e-010
-3.733503e-010
-7.519746e-010
-8.543533e-010
-7.532371e-010
-4.591557e-010
4.183926e-011
6.684379e-010
1.224730e-009
1.525307e-009
1.528382e-009
1.333638e-009
1.059843e-009
7.435420e-010
3.559686e-010
-1.080860e-010
-5.855606e-010
-9.909399e-010
-1.289189e-009
-1.511019e-009
-1.702067e-009
-1.871018e-009
-1.991645e-009
-2.045441e-009
-2.049613e-009
-2.040809e-009
-2.038727e-009
-2.032740e-009
-2.003681e-009
-1.952433e-009
-1.902013e-009
-1.872290e-009
-1.858212e-009
-1.838108e-009
-1.803156e-009
-1.772396e-009
-1.772182e-009
-1.801596e-009
-1.826621e-009
-1.815520e-009
-1.775803e-009
-1.743573e-009
-1.729845e-009
-1.687004e-009
-1.544972e-009
-1.284767e-009
-9.623979e-010
-6.458723e-010
-3.353578e-010
3.027108e-011
4.739249e-010
9.020840e-010
1.154019e-009
1.139929e-009
9.159867e-010
6.092688e-010
2.841999e-010
-8.220683e-011
-4.819231e-010
-7.700476e-010
-7.356437e-010
-3.094150e-010
3.134322e-010
7.893135e-010
8.809872e-010
6.009129e-010
1.255067e-010
-3.799480e-010
-8.113384e-010
-1.032198e-009
-8.371308e-010
-1.248712e-010
8.540062e-010
1.498185e-009
1.249449e-009
1.089393e-010
-1.214017e-009
-1.756110e-009
-1.053670e-009
4.312686e-010
1.613974e-009
3.002527e-009
7.752906e-010
-1.751316e-009
-2.627382e-009
-1.408737e-009
6.704624e-010
1.879489e-009
1.418182e-009
-9.665815e-011
-1.345430e-009
-1.447665e-009
-5.279383e-010
6.293800e-010
1.330378e-009
1.395265e-009
1.010312e-009
3.616359e-010
-4.922727e-010
-1.447032e-009
-2.193380e-009
-2.336778e-009
-1.698399e-009
-4.776388e-010
8.893650e-010
2.019838e-009
2.748581e-009
3.071693e-009
3.011412e-009
2.574433e-009
1.813418e-009
8.696733e-010
-8.097853e-011
-9.229028e-010
-1.631806e-009
-2.221491e-009
-2.682191e-009
-2.980846e-009
-3.107944e-009
-3.102508e-009
-3.023216e-009
-2.902824e-009
-2.738730e-009
-2.524039e-009
-2.276417e-009
-2.030811e-009
-1.809134e-009
-1.605946e-009
-1.406558e-009
-1.213922e-009
-1.051469e-009
-9.393640e-010
-8.741281e-010
-8.373497e-010
-8.232955e-010
-8.505460e-010
-9.407292e-010
-1.088796e-009
-1.263308e-009
-1.440326e-009
-1.629931e-009
-1.857873e-009
-2.119141e-009
-2.360511e-009
-2.519131e-009
-2.573481e-009
-2.541162e-009
-2.421967e-009
-2.160336e-009
-1.687069e-009
-1.002064e-009
-1.993468e-010
5.998603e-010
1.322476e-009
1.927709e-009
2.322816e-009
2.343975e-009
1.876027e-009
1.004811e-009
1.903496e-011
-7.727326e-010
-1.228982e-009
-1.371731e-009
-1.227183e-009
-7.466400e-010
5.056464e-011
8.779037e-010
1.239031e-009
8.128582e-010
-1.669981e-010
-9.735350e-010
-9.436225e-010
-7.330594e-011
9.162515e-010
1.160075e-009
3.960561e-010
-7.817359e-010
-1.400870e-009
-9.208359e-010
3.084096e-010
1.322540e-009
9.802734e-010
-1.892504e-010
-1.271132e-009
-1.090360e-009
3.475987e-010
1.819530e-009
1.936115e-009
3.746896e-010
-1.779023e-009
-2.886431e-009
-2.075043e-009
1.017043e-010
2.176106e-009
2.928410e-009
2.180986e-009
6.575256e-010
-7.692706e-010
-1.668419e-009
-2.049265e-009
-2.003444e-009
-1.499335e-009
-5.225904e-010
6.991123e-010
1.722843e-009
2.176175e-009
2.005172e-009
1.445458e-009
7.850824e-010
1.766375e-010
-3.541760e-010
-7.902795e-010
-1.065443e-009
-1.116802e-009
-9.545318e-010
-6.551121e-010
-2.937681e-010
1.002719e-010
5.255299e-010
9.674691e-010
1.391102e-009
1.768952e-009
2.101567e-009
2.404519e-009
2.682281e-009
2.923026e-009
3.117279e-009
3.272437e-009
3.403505e-009
3.513454e-009
3.590004e-009
3.623170e-009
3.619987e-009
3.596234e-009
3.555542e-009
3.484068e-009
3.369287e-009
3.218452e-009
3.050041e-009
2.866639e-009
2.645404e-009
2.362627e-009
2.022735e-009
1.651589e-009
1.260029e-009
8.293781e-010
3.485640e-010
-1.387845e-010
-5.448518e-010
-8.055988e-010
-9.230374e-010
-9.190290e-010
-7.562542e-010
-3.490096e-010
3.093976e-010
1.039809e-009
1.546422e-009
1.629831e-009
1.325535e-009
8.111123e-010
1.957869e-010
-5.353539e-010
-1.329646e-009
-1.871593e-009
-1.706012e-009
-6.675454e-010
7.987184e-010
1.830487e-009
1.780296e-009
7.423700e-010
-5.174997e-010
-1.175271e-009
-9.583281e-010
-2.459118e-010
3.475943e-010
4.758317e-010
2.325031e-010
-5.687982e-011
-1.538841e-010
-5.966572e-011
6.110250e-011
-1.357604e-009
-8.402211e-010
-8.506816e-012
8.605625e-010
1.455140e-009
1.458317e-009
6.938856e-010
-6.233136e-010
-1.802323e-009
-2.023969e-009
-9.844572e-010
7.229971e-010
1.946387e-009
1.849331e-009
5.764058e-010
-8.950665e-010
-1.570881e-009
-1.170754e-009
-1.672057e-010
7.659849e-010
1.280414e-009
1.405304e-009
1.247612e-009
7.827064e-010
-4.103169e-011
-1.081163e-009
-1.980780e-009
-2.397147e-009
-2.233054e-009
-1.640834e-009
-8.340333e-010
7.350890e-011
1.062032e-009
2.101335e-009
3.098805e-009
3.950416e-009
4.614167e-009
5.117151e-009
5.501749e-009
5.782270e-009
5.952914e-009
6.019509e-009
6.008985e-009
5.950513e-009
5.858433e-009
5.736971e-009
5.594183e-009
5.444083e-009
5.297369e-009
5.157658e-009
5.029283e-009
4.923284e-009
4.850388e-009
4.810403e-009
4.795134e-009
4.802625e-009
4.841007e-009
4.911949e-009
4.994639e-009
5.056609e-009
5.082141e-009
5.077769e-009
5.037976e-009
4.912226e-009
4.627381e-009
4.153988e-009
3.536416e-009
2.836858e-009
2.055563e-009
1.142840e-009
1.184115e-010
-8.381802e-010
-1.466060e-009
-1.623775e-009
-1.398913e-009
-9.925884e-010
-5.097695e-010
8.142553e-011
7.546400e-010
1.245451e-009
1.177004e-009
4.407165e-010
-5.669425e-010
-1.171167e-009
-9.570630e-010
-1.141146e-010
7.438807e-010
1.089916e-009
8.314299e-010
2.316008e-010
-3.943909e-010
-8.452378e-010
-9.760937e-010
-6.527080e-010
1.015163e-010
9.286179e-010
1.253772e-009
7.353945e-010
-3.486732e-010
-1.223047e-009
-2.603263e-009
-6.929308e-010
1.427281e-009
2.129339e-009
1.165778e-009
-3.854450e-010
-1.258520e-009
-1.022186e-009
-1.472735e-010
6.530117e-010
9.896973e-010
8.221670e-010
2.119884e-010
-7.244860e-010
-1.640603e-009
-1.953751e-009
-1.228623e-009
3.667474e-010
2.048641e-009
2.946534e-009
2.704109e-009
1.616688e-009
2.607692e-010
-9.474680e-010
-1.862590e-009
-2.422237e-009
-2.495006e-009
-1.962486e-009
-8.976971e-010
4.128570e-010
1.650357e-009
2.654659e-009
3.440163e-009
4.063238e-009
4.513730e-009
4.734543e-009
4.708673e-009
4.493895e-009
4.172978e-009
3.790150e-009
3.343964e-009
2.828166e-009
2.262904e-009
1.686062e-009
1.127098e-009
5.973798e-010
1.013055e-010
-3.513813e-010
-7.443784e-010
-1.059523e-009
-1.280294e-009
-1.395575e-009
-1.404482e-009
-1.314920e-009
-1.132229e-009
-8.509294e-010
-4.658457e-010
5.657339e-012
5.216143e-010
1.046633e-009
1.582248e-009
2.150057e-009
2.735546e-009
3.261600e-009
3.639251e-009
3.845723e-009
3.926762e-009
3.900836e-009
3.677578e-009
3.115000e-009
2.182513e-009
1.047900e-009
-3.030821e-011
-8.941571e-010
-1.533850e-009
-1.933760e-009
-1.930634e-009
-1.320686e-009
-1.538605e-010
1.123430e-009
1.906398e-009
1.868144e-009
1.171263e-009
2.643149e-010
-4.834180e-010
-9.254331e-010
-1.004687e-009
-6.479220e-010
8.733142e-011
8.117900e-010
9.462278e-010
2.432836e-010
-8.155720e-010
-1.288858e-009
-6.127336e-010
7.658214e-010
1.665144e-009
1.209285e-009
-3.164231e-010
-1.647358e-009
-2.407512e-009
-2.083284e-011
2.285004e-009
2.288093e-009
4.546143e-011
-2.318861e-009
-2.677432e-009
-7.720541e-010
1.751841e-009
2.938383e-009
2.113375e-009
1.285577e-010
-1.636594e-009
-2.357181e-009
-2.029602e-009
-1.044345e-009
2.260053e-010
1.443002e-009
2.181166e-009
2.058911e-009
1.073417e-009
-2.720717e-010
-1.272988e-009
-1.498677e-009
-9.940142e-010
-7.964269e-011
9.650686e-010
2.010430e-009
2.960758e-009
3.650614e-009
3.909989e-009
3.704147e-009
3.160386e-009
2.445257e-009
1.633906e-009
7.036015e-010
-3.736388e-010
-1.564512e-009
-2.800299e-009
-4.042426e-009
-5.302452e-009
-6.602052e-009
-7.928941e-009
-9.236152e-009
-1.047400e-008
-1.161339e-008
-1.264076e-008
-1.353936e-008
-1.427917e-008
-1.482217e-008
-1.513628e-008
-1.520789e-008
-1.504399e-008
-1.465944e-008
-1.405946e-008
-1.323905e-008
-1.220761e-008
-1.101375e-008
-9.733182e-009
-8.421398e-009
-7.083561e-009
-5.705926e-009
-4.318197e-009
-3.004186e-009
-1.830772e-009
-7.749798e-010
2.463256e-010
1.256000e-009
2.143858e-009
2.743625e-009
2.981566e-009
2.916595e-009
2.619854e-009
2.059140e-009
1.172438e-009
7.522068e-011
-8.650546e-010
-1.242190e-009
-9.299726e-010
-1.723292e-010
6.417117e-010
1.245803e-009
1.518459e-009
1.330181e-009
5.481635e-010
-6.877762e-010
-1.764152e-009
-1.891316e-009
-8.010254e-010
8.277553e-010
1.781439e-009
1.326000e-009
-1.028467e-010
-1.247084e-009
-1.148008e-009
-3.829702e-012
1.048948e-009
1.019944e-009
-1.604749e-011
-1.025486e-009
-1.283583e-009
4.985664e-010
2.010344e-009
1.485495e-009
-7.898445e-010
-2.743525e-009
-2.493785e-009
-1.238855e-010
2.399427e-009
3.019687e-009
1.371097e-009
-1.055426e-009
-2.351619e-009
-1.777700e-009
-1.079376e-010
1.310493e-009
1.686672e-009
1.114473e-009
1.153010e-010
-8.823059e-010
-1.627154e-009
-1.865919e-009
-1.333002e-009
7.863758e-012
1.795360e-009
3.439698e-009
4.489244e-009
4.836500e-009
4.612370e-009
3.956905e-009
2.924386e-009
1.556672e-009
-4.271057e-011
-1.754263e-009
-3.543830e-009
-5.484350e-009
-7.671865e-009
-1.013629e-008
-1.283716e-008
-1.572351e-008
-1.877225e-008
-2.196553e-008
-2.524755e-008
-2.851687e-008
-3.165973e-008
-3.458431e-008
-3.722423e-008
-3.951768e-008
-4.139032e-008
-4.275989e-008
-4.355794e-008
-4.374955e-008
-4.333333e-008
-4.232116e-008
-4.071924e-008
-3.853695e-008
-3.582228e-008
-3.268564e-008
-2.927605e-008
-2.572573e-008
-2.212450e-008
-1.855590e-008
-1.514579e-008
-1.204422e-008
-9.338067e-009
-6.991938e-009
-4.900378e-009
-3.002094e-009
-1.320697e-009
1.151317e-010
1.352317e-009
2.456114e-009
3.360042e-009
3.828456e-009
3.637577e-009
2.809689e-009
1.636773e-009
4.639858e-010
-5.052671e-010
-1.161768e-009
-1.329874e-009
-8.204985e-010
2.492316e-010
1.261711e-009
1.430600e-009
4.969802e-010
-8.962370e-010
-1.645332e-009
-1.128557e-009
2.313930e-010
1.340942e-009
1.390722e-009
4.930277e-010
-5.364396e-010
-9.501331e-010
-6.395432e-010
-6.042628e-011
2.837526e-010
2.637304e-010
1.179518e-010
1.392758e-010
4.558856e-010
5.753850e-010
9.614530e-011
-7.549776e-010
-1.212223e-009
-6.821116e-010
5.546739e-010
1.419815e-009
9.866342e-010
-5.392541e-010
-1.838580e-009
-1.617199e-009
1.692431e-010
2.201096e-009
2.919022e-009
1.812640e-009
-2.908746e-010
-2.051447e-009
-2.640651e-009
-2.070689e-009
-7.964026e-010
7.711615e-010
2.360624e-009
3.672668e-009
4.346694e-009
4.168532e-009
3.248874e-009
1.923607e-009
4.656523e-010
-1.098927e-009
-2.930590e-009
-5.207331e-009
-8.048147e-009
-1.155983e-008
-1.588227e-008
-2.114300e-008
-2.737084e-008
-3.447004e-008
-4.227458e-008
-5.061107e-008
-5.930711e-008
-6.815992e-008
-7.692300e-008
-8.533513e-008
-9.316145e-008
-1.002069e-007
-1.062969e-007
-1.112558e-007
-1.149088e-007
-1.171095e-007
-1.177652e-007
-1.168373e-007
-1.143193e-007
-1.102228e-007
-1.045974e-007
-9.757247e-008
-8.937601e-008
-8.030206e-008
-7.065640e-008
-6.074011e-008
-5.088151e-008
-4.145384e-008
-3.281791e-008
-2.522207e-008
-1.876081e-008
-1.343349e-008
-9.217013e-009
-6.043722e-009
-3.713583e-009
-1.895187e-009
-2.915347e-010
1.170831e-009
2.343416e-009
3.056451e-009
3.280605e-009
3.062582e-009
2.367062e-009
1.125796e-009
-4.688522e-010
-1.795369e-009
-2.118188e-009
-1.216775e-009
2.999228e-010
1.404124e-009
1.459617e-009
6.679502e-010
-2.374571e-010
-6.671618e-010
-5.426943e-010
-1.290242e-010
3.007920e-010
5.689298e-010
5.162618e-010
5.624246e-011
-6.123585e-010
-9.846793e-010
-6.417278e-010
2.719177e-010
1.056286e-009
1.526746e-009
2.851261e-011
-1.404491e-009
-1.429802e-009
-1.400488e-010
1.240930e-009
1.615023e-009
8.488973e-010
-4.235746e-010
-1.475185e-009
-1.847973e-009
-1.329007e-009
1.852535e-011
1.651656e-009
2.606528e-009
2.117784e-009
3.538541e-010
-1.533847e-009
-2.247944e-009
-1.338946e-009
5.534837e-010
2.345325e-009
3.328175e-009
3.434661e-009
2.918047e-009
1.967988e-009
6.481403e-010
-9.624004e-010
-2.754498e-009
-4.776771e-009
-7.389710e-009
-1.117949e-008
-1.670895e-008
-2.434407e-008
-3.426500e-008
-4.655509e-008
-6.121986e-008
-7.812564e-008
-9.696039e-008
-1.172804e-007
-1.385966e-007
-1.604194e-007
-1.822469e-007
-2.035484e-007
-2.237860e-007
-2.424606e-007
-2.591353e-007
-2.734222e-007
-2.849573e-007
-2.934004e-007
-2.984652e-007
-2.999494e-007
-2.977395e-007
-2.917939e-007
-2.821404e-007
-2.689097e-007
-2.523806e-007
-2.329906e-007
-2.112972e-007
-1.879316e-007
-1.635923e-007
-1.390623e-007
-1.151801e-007
-9.273480e-008
-7.235437e-008
-5.448130e-008
-3.942512e-008
-2.737444e-008
-1.830073e-008
-1.185757e-008
-7.444382e-009
-4.437735e-009
-2.381192e-009
-9.595770e-010
1.379211e-010
1.197398e-009
2.247837e-009
2.921081e-009
2.716449e-009
1.532107e-009
-7.195800e-011
-1.219253e-009
-1.374921e-009
-6.785761e-010
3.137167e-010
1.103539e-009
1.435301e-009
1.180215e-009
3.185992e-010
-8.300952e-010
-1.534650e-009
-1.141940e-009
1.873601e-010
1.368441e-009
1.292919e-009
-3.133120e-011
-1.348786e-009
-1.340050e-009
2.038985e-011
1.384372e-009
2.636575e-009
-3.072732e-010
-2.932518e-009
-2.530515e-009
4.211267e-010
3.010504e-009
2.911518e-009
4.611189e-010
-2.040539e-009
-2.666700e-009
-1.366191e-009
5.011551e-010
1.616510e-009
1.570497e-009
6.893823e-010
-4.802330e-010
-1.372280e-009
-1.414219e-009
-2.732472e-010
1.745092e-009
3.682779e-009
4.525161e-009
3.919105e-009
2.326734e-009
5.024707e-010
-1.158666e-009
-2.841787e-009
-5.091777e-009
-8.555594e-009
-1.395603e-008
-2.217251e-008
-3.417382e-008
-5.077692e-008
-7.244257e-008
-9.926814e-008
-1.311088e-007
-1.676520e-007
-2.083839e-007
-2.525436e-007
-2.991644e-007
-3.471853e-007
-3.955409e-007
-4.431820e-007
-4.890671e-007
-5.321810e-007
-5.715833e-007
-6.064419e-007
-6.360235e-007
-6.596661e-007
-6.767738e-007
-6.868446e-007
-6.895039e-007
-6.845144e-007
-6.717720e-007
-6.513229e-007
-6.234152e-007
-5.885514e-007
-5.474958e-007
-5.012386e-007
-4.509653e-007
-3.980584e-007
-3.440872e-007
-2.907140e-007
-2.395244e-007
-1.918866e-007
-1.489190e-007
-1.115122e-007
-8.027302e-008
-5.537515e-008
-3.647379e-008
-2.283013e-008
-1.356399e-008
-7.789467e-009
-4.541412e-009
-2.713329e-009
-1.275886e-009
3.046427e-010
1.870726e-009
2.880773e-009
2.973214e-009
2.258404e-009
1.139175e-009
-1.791667e-012
-8.569187e-010
-1.084369e-009
-4.436893e-010
7.869555e-010
1.681300e-009
1.305182e-009
-2.954103e-010
-1.854699e-009
-1.925813e-009
-3.287311e-010
1.521034e-009
1.914253e-009
5.482035e-010
-1.152202e-009
-1.491865e-009
-2.475095e-010
1.142562e-009
3.009757e-009
-2.941607e-010
-3.179880e-009
-2.636040e-009
6.178340e-010
3.147577e-009
2.482489e-009
-4.946505e-010
-2.717760e-009
-2.130989e-009
4.656372e-010
2.522726e-009
2.297696e-009
2.287792e-010
-1.868005e-009
-2.529729e-009
-1.556490e-009
3.459420e-010
2.337785e-009
3.799078e-009
4.297109e-009
3.629773e-009
2.015790e-009
4.469543e-011
-1.819411e-009
-3.826132e-009
-7.092398e-009
-1.323427e-008
-2.388644e-008
-4.050518e-008
-6.443022e-008
-9.690554e-008
-1.389048e-007
-1.909053e-007
-2.528164e-007
-3.240712e-007
-4.037258e-007
-4.904698e-007
-5.826140e-007
-6.781674e-007
-7.750057e-007
-8.710325e-007
-9.642579e-007
-1.052814e-006
-1.134973e-006
-1.209190e-006
-1.274123e-006
-1.328625e-006
-1.371689e-006
-1.402439e-006
-1.420131e-006
-1.424190e-006
-1.414214e-006
-1.389988e-006
-1.351521e-006
-1.299131e-006
-1.233513e-006
-1.155770e-006
-1.067410e-006
-9.703608e-007
-8.670004e-007
-7.601249e-007
-6.527857e-007
-5.480334e-007
-4.486970e-007
-3.572640e-007
-2.757836e-007
-2.056903e-007
-1.476030e-007
-1.012935e-007
-6.591134e-008
-4.028493e-008
-2.302842e-008
-1.244769e-008
-6.541440e-009
-3.330901e-009
-1.342642e-009
1.727362e-010
1.436855e-009
2.450565e-009
3.072653e-009
2.976137e-009
1.871132e-009
1.040339e-011
-1.609324e-009
-1.866157e-009
-5.694496e-010
1.150515e-009
1.742662e-009
6.895867e-010
-9.581114e-010
-1.599766e-009
-6.672837e-010
8.477773e-010
1.452134e-009
6.660487e-010
-5.754178e-010
-9.899470e-010
-2.973225e-010
5.725198e-010
2.137224e-009
-8.461923e-011
-1.966055e-009
-1.521935e-009
5.667201e-010
1.835187e-009
8.055122e-010
-1.391960e-009
-2.254172e-009
-6.152316e-010
2.075154e-009
3.212196e-009
1.643794e-009
-1.253958e-009
-2.976850e-009
-2.183161e-009
3.634015e-010
2.801490e-009
3.813458e-009
3.336645e-009
2.070467e-009
6.489138e-010
-7.542714e-010
-2.441101e-009
-5.261673e-009
-1.082181e-008
-2.149662e-008
-4.005947e-008
-6.918076e-008
-1.111771e-007
-1.680530e-007
-2.415355e-007
-3.328672e-007
-4.424560e-007
-5.696538e-007
-7.127850e-007
-8.693199e-007
-1.036048e-006
-1.209245e-006
-1.384905e-006
-1.559040e-006
-1.727955e-006
-1.888397e-006
-2.037583e-006
-2.173180e-006
-2.293293e-006
-2.396425e-006
-2.481402e-006
-2.547277e-006
-2.593257e-006
-2.618671e-006
-2.622956e-006
-2.605648e-006
-2.566378e-006
-2.504930e-006
-2.421336e-006
-2.315997e-006
-2.189772e-006
-2.044098e-006
-1.881141e-006
-1.703969e-006
-1.516608e-006
-1.323895e-006
-1.131180e-006
-9.439724e-007
-7.675940e-007
-6.067499e-007
-4.650207e-007
-3.444490e-007
-2.454742e-007
-1.672502e-007
-1.080729e-007
-6.562877e-008
-3.708098e-008
-1.926232e-008
-9.083309e-009
-3.911797e-009
-1.645826e-009
-5.926556e-010
4.543517e-010
1.862704e-009
3.030775e-009
2.988065e-009
1.450246e-009
-6.574056e-010
-1.853587e-009
-1.387763e-009
1.126497e-010
1.284490e-009
1.281835e-009
3.940310e-010
-4.531203e-010
-6.384757e-010
-2.678080e-010
1.598360e-010
3.036931e-010
1.850263e-010
3.087238e-012
-1.078196e-010
-1.427562e-010
2.498136e-011
3.584341e-011
1.693439e-010
3.978108e-010
4.186797e-010
-8.826825e-011
-9.702848e-010
-1.463227e-009
-8.058170e-010
8.361084e-010
2.186351e-009
1.909749e-009
2.303360e-011
-1.851980e-009
-1.870967e-009
2.815970e-010
3.036554e-009
4.348346e-009
3.446708e-009
1.256975e-009