# vtk DataFile Version 3.0
vtk output
ASCII
DATASET STRUCTURED_POINTS
DIMENSIONS 100 100 1
SPACING 1 1 1
ORIGIN 0 0 0
POINT_DATA 10000
SCALARS SFBox_profile double
LOOKUP_TABLE default 
0.000000e+000
0.000000e+000
0.000000e+000
0.000000e+000
0.000000e+000
0.000000e+000
0.000000e+000
0.000000e+000
0.000000e+000
0.000000e+000
0.000000e+000
0.000000e+000
0.000000e+000
0.000000e+000
0.000000e+000
0.000000e+000
0.000000e+000
0.000000e+000
0.000000e+000
0.000000e+000
0.000000e+000
0.000000e+000
0.000000e+000
0.000000e+000
0.000000e+000
0.000000e+000
0.000000e+000
0.000000e+000
0.000000e+000
0.000000e+000
0.000000e+000
0.000000e+000
0.000000e+000
0.000000e+000
0.000000e+000
0.000000e+000
0.000000e+000
0.000000e+000
0.000000e+000
0.000000e+000
0.000000e+000
0.000000e+000
0.000000e+000
0.000000e+000
0.000000e+000
0.000000e+000
0.000000e+000
0.000000e+000
0.000000e+000
0.000000e+000
0.000000e+000
0.000000e+000
0.000000e+000
0.000000e+000
0.000000e+000
0.000000e+000
0.000000e+000
0.000000e+000
0.000000e+000
0.000000e+000
0.000000e+000
0.000000e+000
0.000000e+000
0.000000e+000
0.000000e+000
0.000000e+000
0.000000e+000
0.000000e+000
0.000000e+000
0.000000e+000
0.000000e+000
0.000000e+000
0.000000e+000
0.000000e+000
0.000000e+000
0.000000e+000
0.000000e+000
0.000000e+000
0.000000e+000
0.000000e+000
0.000000e+000
0.000000e+000
0.000000e+000
0.000000e+000
0.000000e+000
0.000000e+000
0.000000e+000
0.000000e+000
0.000000e+000
0.000000e+000
0.000000e+000
0.000000e+000
0.000000e+000
0.000000e+000
0.000000e+000
0.000000e+000
0.000000e+000
0.000000e+000
0.000000e+000
0.000000e+000
1.086264e-009
5.820133e-010
4.205749e-010
7.005196e-010
4.829845e-010
-9.851873e-010
-2.893990e-009
-3.170288e-009
-5.673272e-010
3.527526e-009
5.775148e-009
3.849632e-009
-1.120871e-009
-5.290332e-009
-5.551498e-009
-2.328565e-009
1.142153e-009
2.228616e-009
1.332777e-009
8.269833e-010
1.957942e-009
3.402156e-009
3.053391e-009
7.160906e-010
-1.626371e-009
-2.221406e-009
-1.570006e-009
-1.568451e-009
-2.961711e-009
-4.394956e-009
-4.209803e-009
-2.575969e-009
-1.192344e-009
-1.036490e-009
-1.178597e-009
-1.827138e-010
1.856962e-009
3.398015e-009
3.500541e-009
3.041472e-009
3.460178e-009
4.777250e-009
5.597288e-009
5.064389e-009
4.060008e-009
3.995928e-009
4.886026e-009
5.373118e-009
4.663591e-009
3.661640e-009
3.709596e-009
4.695919e-009
5.199326e-009
4.492652e-009
3.593502e-009
3.848289e-009
5.005129e-009
5.502780e-009
4.627686e-009
3.534620e-009
3.653888e-009
4.659044e-009
4.846333e-009
3.462796e-009
1.779257e-009
1.381668e-009
1.990954e-009
1.822526e-009
4.595912e-011
-1.992951e-009
-2.488671e-009
-1.556146e-009
-1.069499e-009
-2.135918e-009
-3.545115e-009
-3.269135e-009
-1.087923e-009
1.053874e-009
1.419304e-009
5.536610e-010
4.484445e-010
1.876873e-009
3.252470e-009
2.452812e-009
-5.635550e-010
-3.440033e-009
-3.775163e-009
-1.504948e-009
1.206035e-009
2.234493e-009
1.391229e-009
1.195250e-010
-3.105422e-010
-4.139051e-012
7.973179e-011
-5.052225e-010
-1.128913e-009
-8.799152e-010
2.870158e-010
1.382465e-009
3.952838e-010
-5.336707e-010
-1.087257e-009
-4.741281e-010
8.509666e-010
1.642024e-009
1.084667e-009
-3.959833e-010
-1.540170e-009
-1.469441e-009
-4.781026e-010
4.047184e-010
5.743902e-010
4.245355e-010
6.878735e-010
1.348584e-009
1.497140e-009
4.104785e-010
-1.401276e-009
-2.536641e-009
-2.170393e-009
-9.449490e-010
-1.751156e-010
-2.899476e-010
-4.149603e-010
3.946605e-010
1.848502e-009
2.731402e-009
2.436151e-009
1.716615e-009
1.663934e-009
2.255123e-009
2.405550e-009
1.455338e-009
8.749648e-011
-5.669155e-010
-4.234989e-010
-5.023921e-010
-1.474149e-009
-2.698741e-009
-3.089473e-009
-2.608904e-009
-2.317069e-009
-2.897532e-009
-3.713303e-009
-3.715350e-009
-2.934916e-009
-2.461489e-009
-2.927364e-009
-3.627655e-009
-3.523433e-009
-2.721503e-009
-2.337250e-009
-2.920253e-009
-3.662731e-009
-3.523031e-009
-2.692517e-009
-2.331301e-009
-2.927505e-009
-3.583551e-009
-3.246118e-009
-2.169551e-009
-1.564157e-009
-1.911079e-009
-2.286534e-009
-1.637188e-009
-2.455091e-010
6.324426e-010
4.545550e-010
9.794855e-011
6.352501e-010
1.854317e-009
2.509331e-009
1.942051e-009
9.089911e-010
5.573748e-010
9.408448e-010
1.008528e-009
3.224505e-011
-1.390133e-009
-2.000017e-009
-1.331114e-009
-1.720349e-010
4.188591e-010
2.634830e-010
4.900587e-011
3.266536e-010
8.195775e-010
8.174578e-010
8.953075e-011
-7.890045e-010
-1.034495e-009
-4.632598e-010
3.583962e-010
7.146613e-010
4.148588e-010
-1.183856e-010
-3.486334e-010
-1.524586e-010
1.341507e-010
5.649626e-011
-9.062479e-010
-1.848966e-009
-1.671550e-009
1.346025e-010
2.750369e-009
4.206220e-009
2.831618e-009
-1.052772e-009
-4.909324e-009
-5.822137e-009
-2.948196e-009
1.706227e-009
4.987998e-009
5.170369e-009
2.988985e-009
4.106703e-010
-1.299440e-009
-2.227969e-009
-2.919550e-009
-3.375142e-009
-3.137510e-009
-2.071661e-009
-6.486558e-010
5.966492e-010
1.600187e-009
2.585459e-009
3.538869e-009
4.150967e-009
4.255670e-009
4.043865e-009
3.716259e-009
3.139445e-009
2.079495e-009
6.786025e-010
-5.872550e-010
-1.474878e-009
-2.243259e-009
-3.196216e-009
-4.153678e-009
-4.656423e-009
-4.636065e-009
-4.555637e-009
-4.771772e-009
-5.032496e-009
-4.866976e-009
-4.322413e-009
-3.962926e-009
-4.100914e-009
-4.364412e-009
-4.239176e-009
-3.813924e-009
-3.656377e-009
-4.002779e-009
-4.428215e-009
-4.455653e-009
-4.209465e-009
-4.186537e-009
-4.511900e-009
-4.760612e-009
-4.563969e-009
-4.091120e-009
-3.736040e-009
-3.519992e-009
-3.086013e-009
-2.243533e-009
-1.235238e-009
-3.723093e-010
3.681262e-010
1.192202e-009
2.071839e-009
2.728469e-009
3.022084e-009
3.105460e-009
3.083346e-009
2.727120e-009
1.760679e-009
3.566142e-010
-9.165484e-010
-1.705632e-009
-2.196285e-009
-2.634050e-009
-2.684171e-009
-1.637331e-009
5.888468e-010
2.869294e-009
3.619658e-009
2.249961e-009
-2.121112e-010
-2.023563e-009
-2.220280e-009
-1.215385e-009
-7.920356e-011
5.439605e-010
7.529780e-010
8.530653e-010
8.123793e-010
3.757794e-010
-4.203291e-010
-1.076981e-009
7.106211e-011
3.770047e-010
-6.508359e-011
-1.270843e-009
-1.771081e-009
-2.812518e-010
2.389590e-009
3.643065e-009
1.702316e-009
-2.173650e-009
-4.528237e-009
-3.075761e-009
8.652623e-010
3.601418e-009
2.793750e-009
-2.711884e-010
-2.273082e-009
-1.451261e-009
7.944265e-010
1.858740e-009
9.214511e-010
-4.847141e-010
-6.557177e-010
2.550623e-010
7.359277e-010
-2.201976e-012
-1.115604e-009
-1.361730e-009
-6.705939e-010
-5.480838e-011
-2.013570e-010
-6.938606e-010
-7.346689e-010
-2.092695e-010
3.084049e-010
4.248415e-010
4.006073e-010
6.949967e-010
1.336968e-009
1.953440e-009
2.285498e-009
2.451321e-009
2.702203e-009
3.093458e-009
3.469811e-009
3.682898e-009
3.738938e-009
3.758398e-009
3.840204e-009
3.962586e-009
4.011225e-009
3.928253e-009
3.816441e-009
3.820813e-009
3.897563e-009
3.819962e-009
3.498171e-009
3.175355e-009
3.125908e-009
3.207977e-009
2.970891e-009
2.293935e-009
1.661187e-009
1.551153e-009
1.710984e-009
1.420375e-009
5.199226e-010
-2.360345e-010
-1.479367e-010
3.895720e-010
3.161117e-010
-6.241422e-010
-1.381865e-009
-9.205476e-010
3.145385e-010
8.347031e-010
3.201499e-011
-9.344939e-010
-5.925551e-010
8.358966e-010
1.535964e-009
3.488415e-010
-1.605748e-009
-2.061185e-009
-2.473120e-010
2.098493e-009
2.585775e-009
7.593087e-010
-1.498703e-009
-2.080682e-009
-8.081144e-010
6.759437e-010
8.960669e-010
5.008301e-011
-5.206465e-010
-4.454363e-011
8.280173e-010
9.027093e-010
-9.082956e-011
-1.155038e-009
-1.007594e-009
1.639548e-009
3.116184e-009
1.226560e-009
-2.527871e-009
-4.551393e-009
-2.808551e-009
1.171724e-009
3.922475e-009
3.502082e-009
1.124862e-009
-6.307238e-010
-8.161922e-010
-8.234766e-010
-2.111731e-009
-3.877403e-009
-3.701125e-009
-5.376874e-010
3.612391e-009
5.570980e-009
4.319236e-009
1.871675e-009
7.186135e-010
1.015144e-009
8.557244e-010
-9.782449e-010
-3.403802e-009
-4.478295e-009
-3.831184e-009
-2.925411e-009
-2.999696e-009
-3.514211e-009
-3.035320e-009
-1.197604e-009
8.727319e-010
2.064183e-009
2.596929e-009
3.495076e-009
5.095057e-009
6.608754e-009
7.197303e-009
7.035814e-009
7.009963e-009
7.546710e-009
8.129868e-009
8.061239e-009
7.416703e-009
6.960418e-009
7.158906e-009
7.591367e-009
7.533841e-009
6.959915e-009
6.615635e-009
7.014385e-009
7.680314e-009
7.731902e-009
7.098614e-009
6.683359e-009
7.123051e-009
7.796506e-009
7.555092e-009
6.303380e-009
5.220946e-009
5.163048e-009
5.382384e-009
4.458724e-009
2.302334e-009
4.448796e-010
5.436191e-011
3.174082e-010
-4.948566e-010
-2.592584e-009
-4.181953e-009
-3.721858e-009
-1.969848e-009
-1.026053e-009
-1.560219e-009
-1.895128e-009
-2.399172e-010
2.772399e-009
4.544886e-009
3.469552e-009
7.411871e-010
-1.114052e-009
-1.077157e-009
-4.183858e-010
-7.193918e-010
-1.776964e-009
-1.939992e-009
-3.114089e-010
1.947862e-009
2.761227e-009
1.361342e-009
-9.117887e-010
-2.026982e-009
-1.265619e-009
2.720627e-010
1.000770e-009
4.771134e-010
-3.459706e-010
-3.337112e-009
7.065690e-010
4.255133e-009
3.872828e-009
-2.751483e-010
-4.712680e-009
-5.670470e-009
-2.330001e-009
2.563659e-009
5.253822e-009
4.227435e-009
1.082786e-009
-1.541622e-009
-2.493251e-009
-2.442521e-009
-2.199632e-009
-1.514323e-009
1.205103e-010
2.044175e-009
2.684372e-009
1.441715e-009
-3.047464e-010
-6.586688e-010
5.390866e-010
1.563483e-009
1.028684e-009
-3.681050e-010
-8.304390e-010
1.681252e-010
1.270184e-009
1.124967e-009
1.944261e-010
7.907250e-011
1.343515e-009
2.778048e-009
3.014188e-009
2.263375e-009
1.896046e-009
2.539834e-009
3.284800e-009
2.982701e-009
1.813869e-009
1.029287e-009
1.276440e-009
1.776314e-009
1.424064e-009
3.082256e-010
-3.924920e-010
4.970522e-012
7.528872e-010
6.709730e-010
-2.389422e-010
-7.607098e-010
-1.156947e-010
9.275414e-010
1.061901e-009
2.575444e-010
-1.351245e-010
7.633892e-010
2.073651e-009
2.295954e-009
1.391073e-009
8.925869e-010
1.787019e-009
3.062534e-009
3.019636e-009
1.618602e-009
6.034364e-010
1.149943e-009
2.239791e-009
2.027428e-009
3.653940e-010
-9.568561e-010
-5.909124e-010
5.997172e-010
7.453100e-010
-5.055490e-010
-1.510075e-009
-7.685056e-010
1.175337e-009
2.448779e-009
2.077881e-009
8.511244e-010
-1.765663e-011
-4.052559e-010
-1.013488e-009
-1.939764e-009
-2.205740e-009
-9.520124e-010
1.256600e-009
2.731552e-009
2.291537e-009
3.947786e-010
-1.389167e-009
-1.862934e-009
-1.088074e-009
-2.651373e-012
5.724746e-010
5.257365e-010
2.904576e-010
-3.869937e-009
-1.819698e-009
1.178607e-009
3.409121e-009
3.170315e-009
4.058521e-010
-2.706788e-009
-3.501370e-009
-1.447255e-009
1.244329e-009
1.944329e-009
4.047308e-010
-1.121034e-009
-5.562574e-010
1.648251e-009
3.146879e-009
2.372726e-009
2.920679e-011
-2.084004e-009
-3.069101e-009
-3.273878e-009
-3.056800e-009
-2.091348e-009
-1.701513e-010
1.949265e-009
3.189482e-009
3.498230e-009
3.890683e-009
4.979418e-009
6.026994e-009
5.922349e-009
4.760549e-009
3.778523e-009
3.673884e-009
3.639655e-009
2.496274e-009
3.802500e-010
-1.354674e-009
-1.907456e-009
-2.042108e-009
-2.957703e-009
-4.584109e-009
-5.656792e-009
-5.467116e-009
-4.869880e-009
-5.140676e-009
-6.235158e-009
-6.852115e-009
-6.245867e-009
-5.307203e-009
-5.390048e-009
-6.455442e-009
-7.096485e-009
-6.458108e-009
-5.424427e-009
-5.402218e-009
-6.350486e-009
-6.799024e-009
-5.864664e-009
-4.468364e-009
-4.037429e-009
-4.494778e-009
-4.357778e-009
-2.817105e-009
-8.816328e-010
6.872221e-012
-6.905834e-011
2.998977e-010
1.829931e-009
3.550813e-009
4.157763e-009
3.731066e-009
3.453148e-009
3.859963e-009
4.137309e-009
3.334831e-009
1.662483e-009
1.099589e-010
-8.565064e-010
-1.570891e-009
-2.185757e-009
-2.125646e-009
-9.476117e-010
6.498833e-010
1.323669e-009
6.498745e-010
-3.039410e-010
-2.646971e-010
6.817046e-010
1.233509e-009
5.310098e-010
-7.675744e-010
-1.296928e-009
-6.075468e-010
3.980004e-010
6.392279e-010
9.867560e-011
-3.482098e-010
-1.422788e-010
3.119560e-010
5.665661e-010
-2.722993e-009
-4.167042e-009
-1.158881e-009
3.776903e-009
5.883233e-009
3.249811e-009
-1.444312e-009
-4.107755e-009
-3.450735e-009
-1.550296e-009
-6.495693e-010
-4.488467e-010
8.585826e-010
3.480973e-009
5.122449e-009
3.595848e-009
-3.455000e-010
-3.584050e-009
-3.936006e-009
-2.159297e-009
-5.008705e-010
2.107181e-011
2.226800e-010
1.030947e-009
2.148285e-009
2.759583e-009
2.856082e-009
3.124154e-009
3.733426e-009
3.996166e-009
3.416096e-009
2.469470e-009
1.886764e-009
1.526808e-009
5.955733e-010
-1.064689e-009
-2.561227e-009
-3.121311e-009
-3.189157e-009
-3.808278e-009
-5.113692e-009
-6.106320e-009
-6.087139e-009
-5.716477e-009
-6.135951e-009
-7.351070e-009
-8.186596e-009
-7.932717e-009
-7.369977e-009
-7.688758e-009
-8.796816e-009
-9.412122e-009
-8.833874e-009
-7.901015e-009
-7.790158e-009
-8.364538e-009
-8.401832e-009
-7.335121e-009
-6.012850e-009
-5.446615e-009
-5.401458e-009
-4.825660e-009
-3.403902e-009
-1.957885e-009
-1.209993e-009
-8.122366e-010
-1.826245e-011
1.134403e-009
1.939450e-009
2.162055e-009
2.366114e-009
2.926539e-009
3.336347e-009
2.978897e-009
2.183103e-009
1.798515e-009
1.778711e-009
9.907274e-010
-1.134417e-009
-3.311974e-009
-3.532454e-009
-1.447928e-009
1.056747e-009
1.980131e-009
1.384702e-009
9.133881e-010
1.383405e-009
1.669480e-009
3.437969e-010
-2.093253e-009
-3.370514e-009
-1.969919e-009
9.911157e-010
2.813549e-009
2.040228e-009
-1.403216e-010
-1.392693e-009
-8.137456e-010
3.189268e-010
7.808977e-009
-2.003128e-010
-6.958459e-009
-6.285887e-009
3.149275e-010
6.120227e-009
6.073914e-009
1.239016e-009
-3.206002e-009
-3.664139e-009
-1.241314e-009
5.660292e-010
2.276109e-010
-6.608605e-010
-2.275541e-010
9.908153e-010
1.052703e-009
-3.280498e-010
-1.046441e-009
6.660895e-010
3.689914e-009
5.124779e-009
3.690523e-009
1.070597e-009
-3.461852e-010
-2.095807e-010
-3.045457e-011
-7.959181e-010
-1.801050e-009
-1.995187e-009
-1.585454e-009
-1.635150e-009
-2.505155e-009
-3.505208e-009
-4.091418e-009
-4.665718e-009
-5.837437e-009
-7.427782e-009
-8.794227e-009
-9.913107e-009
-1.147301e-008
-1.379966e-008
-1.628279e-008
-1.823055e-008
-1.987281e-008
-2.196330e-008
-2.454843e-008
-2.676753e-008
-2.802295e-008
-2.878378e-008
-2.981066e-008
-3.095177e-008
-3.130954e-008
-3.052528e-008
-2.926343e-008
-2.819985e-008
-2.706237e-008
-2.514463e-008
-2.245474e-008
-1.973759e-008
-1.739708e-008
-1.503373e-008
-1.228959e-008
-9.596101e-009
-7.581531e-009
-6.082959e-009
-4.426999e-009
-2.634651e-009
-1.589711e-009
-1.698162e-009
-2.033548e-009
-1.479647e-009
-3.684833e-010
-8.725656e-011
-9.595600e-010
-1.435446e-009
-4.424457e-011
2.391335e-009
3.459848e-009
2.110109e-009
3.010732e-012
-5.713054e-010
5.052656e-010
1.297624e-009
5.605034e-010
-6.304936e-010
-4.807061e-010
9.328424e-010
1.594135e-009
1.440938e-010
-2.197605e-009
-2.866006e-009
-8.932513e-010
1.920384e-009
2.918563e-009
1.359037e-009
-9.742629e-010
-1.792477e-009
-6.466375e-010
8.254624e-010
1.020324e-008
3.249920e-009
-4.072188e-009
-6.545610e-009
-3.563787e-009
1.101193e-009
3.119614e-009
1.611161e-009
-5.429155e-010
-3.156707e-010
1.956501e-009
3.133428e-009
1.136537e-009
-2.548299e-009
-4.644252e-009
-3.749767e-009
-1.371447e-009
5.417059e-010
1.925254e-009
3.768101e-009
5.749317e-009
6.073323e-009
3.917111e-009
9.715647e-010
-3.321822e-010
3.004244e-010
8.591232e-010
-2.933913e-010
-2.541706e-009
-4.274347e-009
-5.260068e-009
-6.851653e-009
-1.001784e-008
-1.414680e-008
-1.815022e-008
-2.204127e-008
-2.674432e-008
-3.266029e-008
-3.918098e-008
-4.568070e-008
-5.231665e-008
-5.949367e-008
-6.699253e-008
-7.414582e-008
-8.068375e-008
-8.687304e-008
-9.280793e-008
-9.806138e-008
-1.022262e-007
-1.053931e-007
-1.077742e-007
-1.091526e-007
-1.091268e-007
-1.077429e-007
-1.053984e-007
-1.021175e-007
-9.744796e-008
-9.127454e-008
-8.424921e-008
-7.700392e-008
-6.931271e-008
-6.065162e-008
-5.144010e-008
-4.295317e-008
-3.577877e-008
-2.909053e-008
-2.204489e-008
-1.538759e-008
-1.074282e-008
-8.353624e-009
-6.541254e-009
-3.904420e-009
-1.261572e-009
-4.572263e-010
-1.537744e-009
-2.265899e-009
-8.140847e-010
1.951404e-009
3.661862e-009
3.428469e-009
2.598395e-009
2.501434e-009
2.535951e-009
1.253157e-009
-1.222312e-009
-2.925438e-009
-2.375841e-009
-3.932673e-010
9.384027e-010
7.137467e-010
-4.073562e-011
1.033457e-011
8.075969e-010
1.171621e-009
4.121231e-010
-8.474501e-010
-1.444073e-009
-8.934597e-010
2.880560e-010
1.185327e-009
2.427037e-009
3.354706e-009
2.614741e-009
-4.493749e-010
-3.509780e-009
-4.026588e-009
-2.109719e-009
6.984738e-011
1.156784e-009
1.787710e-009
2.766353e-009
3.225324e-009
1.666635e-009
-1.502673e-009
-3.696679e-009
-2.916078e-009
-7.982899e-011
2.117145e-009
2.285148e-009
1.415612e-009
9.685199e-010
9.901615e-010
7.530236e-010
4.568906e-010
1.079071e-009
2.509948e-009
2.929996e-009
6.703871e-010
-3.921811e-009
-9.258877e-009
-1.486373e-008
-2.203346e-008
-3.200832e-008
-4.432588e-008
-5.758918e-008
-7.136093e-008
-8.646794e-008
-1.034788e-007
-1.216621e-007
-1.397829e-007
-1.573963e-007
-1.748398e-007
-1.922096e-007
-2.089167e-007
-2.242755e-007
-2.380755e-007
-2.504102e-007
-2.612555e-007
-2.704094e-007
-2.776104e-007
-2.825231e-007
-2.848235e-007
-2.845233e-007
-2.819842e-007
-2.773020e-007
-2.698846e-007
-2.591206e-007
-2.454078e-007
-2.299273e-007
-2.132191e-007
-1.946193e-007
-1.736379e-007
-1.514224e-007
-1.300018e-007
-1.101413e-007
-9.088553e-008
-7.161283e-008
-5.368936e-008
-3.918135e-008
-2.830641e-008
-1.927355e-008
-1.083629e-008
-3.974992e-009
-3.338423e-010
3.439154e-010
1.772103e-010
6.786053e-010
1.390156e-009
1.333083e-009
8.575518e-010
1.116819e-009
2.106446e-009
2.372458e-009
9.732357e-010
-1.091914e-009
-2.045262e-009
-1.459651e-009
-4.573113e-010
6.818851e-011
5.125936e-010
1.461817e-009
2.262978e-009
1.600084e-009
-5.564478e-010
-2.415690e-009
-2.259024e-009
-4.514288e-010
1.035336e-009
1.001088e-009
2.628182e-010
-1.068307e-008
-5.193981e-010
7.789888e-009
7.018974e-009
3.356849e-011
-5.150683e-009
-4.334675e-009
-3.370097e-010
1.775662e-009
6.594845e-010
-9.592733e-010
-6.458282e-010
9.188519e-010
1.747655e-009
1.608584e-009
1.903107e-009
2.992212e-009
3.230769e-009
1.241111e-009
-1.856907e-009
-3.495627e-009
-2.602001e-009
-5.649128e-010
6.701694e-010
4.214506e-010
-1.266806e-009
-5.067828e-009
-1.220507e-008
-2.302060e-008
-3.672756e-008
-5.291019e-008
-7.251175e-008
-9.671803e-008
-1.252913e-007
-1.567492e-007
-1.900785e-007
-2.254998e-007
-2.633025e-007
-3.025660e-007
-3.415958e-007
-3.793563e-007
-4.159094e-007
-4.514619e-007
-4.854846e-007
-5.169627e-007
-5.451965e-007
-5.700950e-007
-5.918040e-007
-6.102094e-007
-6.247315e-007
-6.345417e-007
-6.391236e-007
-6.386642e-007
-6.336358e-007
-6.238584e-007
-6.083389e-007
-5.864346e-007
-5.589186e-007
-5.272949e-007
-4.921044e-007
-4.526759e-007
-4.089173e-007
-3.626770e-007
-3.165730e-007
-2.717945e-007
-2.279908e-007
-1.853874e-007
-1.459765e-007
-1.119471e-007
-8.357120e-008
-5.955114e-008
-3.920560e-008
-2.327276e-008
-1.234552e-008
-5.507027e-009
-1.232665e-009
9.914356e-010
9.481023e-010
-6.159528e-010
-1.741554e-009
-1.182019e-009
2.214015e-010
8.539685e-010
5.601437e-010
6.072634e-010
1.498014e-009
1.966792e-009
8.173582e-010
-9.915271e-010
-1.238347e-009
5.759050e-010
2.202507e-009
1.284534e-009
-1.533080e-009
-3.104387e-009
-1.505984e-009
1.550507e-009
2.655782e-009
7.168369e-010
-1.781689e-009
-1.677723e-008
-3.980518e-009
7.559632e-009
8.866761e-009
2.317804e-009
-3.179627e-009
-2.379908e-009
1.695002e-009
2.743518e-009
-9.771604e-010
-5.086850e-009
-4.788995e-009
-3.630800e-010
3.878344e-009
4.947685e-009
3.839968e-009
2.936352e-009
2.588845e-009
1.522365e-009
-3.159454e-010
-1.169928e-009
-1.473265e-010
7.818809e-010
-1.593719e-009
-8.712358e-009
-1.983064e-008
-3.435084e-008
-5.338321e-008
-7.865539e-008
-1.108286e-007
-1.496865e-007
-1.954464e-007
-2.488169e-007
-3.096482e-007
-3.763479e-007
-4.470439e-007
-5.208007e-007
-5.971827e-007
-6.749931e-007
-7.521696e-007
-8.269998e-007
-8.989209e-007
-9.678814e-007
-1.033260e-006
-1.093739e-006
-1.148107e-006
-1.195879e-006
-1.237081e-006
-1.271528e-006
-1.298377e-006
-1.316423e-006
-1.324905e-006
-1.323921e-006
-1.313805e-006
-1.294132e-006
-1.263756e-006
-1.222130e-006
-1.170194e-006
-1.109475e-006
-1.040575e-006
-9.632994e-007
-8.784235e-007
-7.885697e-007
-6.968551e-007
-6.052174e-007
-5.147864e-007
-4.275343e-007
-3.464917e-007
-2.740529e-007
-2.108460e-007
-1.567055e-007
-1.119796e-007
-7.698668e-008
-5.060147e-008
-3.059503e-008
-1.565125e-008
-6.080171e-009
-1.923936e-009
-1.156520e-009
-8.403334e-010
1.675694e-010
8.035923e-010
3.020825e-010
-6.670192e-011
1.311390e-009
3.663326e-009
4.229288e-009
1.706704e-009
-1.766288e-009
-2.917922e-009
-1.158487e-009
8.928328e-010
7.566084e-010
-9.445514e-010
-1.506010e-009
3.053892e-010
2.599578e-009
2.557505e-009
-2.011276e-010
-3.013681e-009
-8.435532e-009
-2.724029e-009
2.536336e-009
3.266668e-009
5.356341e-010
-1.268213e-009
4.492838e-010
3.505675e-009
3.582668e-009
-3.826931e-010
-4.521061e-009
-4.377304e-009
-1.616440e-010
3.556513e-009
3.309618e-009
5.198200e-010
-8.383432e-010
7.820313e-010
3.267836e-009
4.138160e-009
3.153970e-009
7.918368e-010
-4.539870e-009
-1.608294e-008
-3.572265e-008
-6.292696e-008
-9.724067e-008
-1.407348e-007
-1.969649e-007
-2.679824e-007
-3.533650e-007
-4.519468e-007
-5.632072e-007
-6.864009e-007
-8.192012e-007
-9.581850e-007
-1.100496e-006
-1.244328e-006
-1.387839e-006
-1.528416e-006
-1.663455e-006
-1.791445e-006
-1.911799e-006
-2.023768e-006
-2.125941e-006
-2.216859e-006
-2.295789e-006
-2.362671e-006
-2.417347e-006
-2.458981e-006
-2.486328e-006
-2.498552e-006
-2.495578e-006
-2.477445e-006
-2.443455e-006
-2.392390e-006
-2.323692e-006
-2.237998e-006
-2.136233e-006
-2.018661e-006
-1.885503e-006
-1.738389e-006
-1.580509e-006
-1.415272e-006
-1.245597e-006
-1.074919e-006
-9.080770e-007
-7.502132e-007
-6.049430e-007
-4.743419e-007
-3.604888e-007
-2.656680e-007
-1.903489e-007
-1.318913e-007
-8.643570e-008
-5.187497e-008
-2.795583e-008
-1.356445e-008
-5.371025e-009
-2.288846e-011
3.247376e-009
3.494840e-009
1.248347e-009
-6.545666e-010
2.077963e-011
2.237715e-009
3.041383e-009
1.242203e-009
-1.305190e-009
-2.182983e-009
-1.164031e-009
9.079472e-011
4.079860e-010
2.379871e-010
4.987823e-010
1.147707e-009
1.335543e-009
5.739974e-010
-7.092760e-010
-1.648930e-009
7.936173e-009
1.846126e-009
-3.594816e-009
-4.534699e-009
-2.263217e-009
5.413233e-011
1.182131e-009
1.739367e-009
1.954585e-009
1.352465e-009
3.726148e-010
4.481726e-010
1.759279e-009
2.257174e-009
2.488883e-010
-2.704272e-009
-3.082797e-009
1.836010e-010
3.887233e-009
3.683796e-009
-2.131748e-009
-1.313237e-008
-3.024151e-008
-5.698336e-008
-9.710364e-008
-1.526047e-007
-2.251948e-007
-3.185596e-007
-4.373799e-007
-5.838218e-007
-7.559831e-007
-9.499978e-007
-1.162520e-006
-1.390395e-006
-1.628838e-006
-1.871456e-006
-2.112367e-006
-2.347580e-006
-2.574154e-006
-2.788892e-006
-2.988604e-006
-3.171332e-006
-3.336590e-006
-3.484328e-006
-3.614099e-006
-3.725383e-006
-3.818315e-006
-3.893718e-006
-3.952362e-006
-3.994368e-006
-4.019408e-006
-4.027353e-006
-4.018453e-006
-3.992686e-006
-3.949146e-006
-3.886389e-006
-3.803295e-006
-3.699131e-006
-3.572718e-006
-3.422238e-006
-3.246462e-006
-3.045916e-006
-2.822418e-006
-2.578026e-006
-2.315609e-006
-2.040670e-006
-1.761547e-006
-1.487043e-006
-1.224329e-006
-9.796155e-007
-7.597722e-007
-5.712598e-007
-4.168019e-007
-2.941238e-007
-1.987363e-007
-1.272320e-007
-7.706304e-008
-4.411275e-008
-2.258589e-008
-8.030661e-009
7.000972e-010
3.448966e-009
1.934891e-009
-3.024745e-010
-8.962216e-010
-2.589105e-010
1.715898e-010
1.792067e-010
4.638301e-010
9.501115e-010
7.735594e-010
-7.309376e-011
-3.537687e-010
5.675523e-010
1.431610e-009
6.489918e-010
-1.251111e-009
-1.955342e-009
-3.910611e-010
1.639201e-009
1.781849e-008
3.925781e-009
-7.617823e-009
-7.789655e-009
-1.089276e-009
2.742847e-009
4.500351e-010
-3.006974e-009
-2.373813e-009
1.653464e-009
4.695323e-009
4.559179e-009
2.738496e-009
1.201634e-009
2.088636e-010
-3.984353e-010
5.856841e-012
1.154852e-009
1.260311e-011
-7.735128e-009
-2.454190e-008
-5.093825e-008
-8.900405e-008
-1.446393e-007
-2.256200e-007
-3.383408e-007
-4.873285e-007
-6.766752e-007
-9.094502e-007
-1.184636e-006
-1.495554e-006
-1.832130e-006
-2.184188e-006
-2.542042e-006
-2.895090e-006
-3.231970e-006
-3.543103e-006
-3.822647e-006
-4.067749e-006
-4.276688e-006
-4.448513e-006
-4.584026e-006
-4.686066e-006
-4.758430e-006
-4.804798e-006
-4.828773e-006
-4.834429e-006
-4.826295e-006
-4.808687e-006
-4.785197e-006
-4.758817e-006
-4.732302e-006
-4.708026e-006
-4.687235e-006
-4.669536e-006
-4.653203e-006
-4.635575e-006
-4.612527e-006
-4.577573e-006
-4.522295e-006
-4.438219e-006
-4.318055e-006
-4.155209e-006
-3.943627e-006
-3.680104e-006
-3.367457e-006
-3.014837e-006
-2.634862e-006
-2.241336e-006
-1.849722e-006
-1.477581e-006
-1.141521e-006
-8.523990e-007
-6.137116e-007
-4.242969e-007
-2.811393e-007
-1.790753e-007
-1.097132e-007
-6.329056e-008
-3.243586e-008
-1.340786e-008
-3.719918e-009
1.448992e-011
1.127718e-009
1.043192e-009
-8.011373e-011
-1.201042e-009
-5.034499e-010
2.028413e-009
3.754138e-009
2.433640e-009
-5.859425e-010
-1.790978e-009
-9.631647e-011
1.596400e-009
3.138519e-010
-2.704655e-009
-3.313028e-009
6.256351e-011
3.972657e-009
1.345321e-008
5.446720e-010
-8.384573e-009
-4.918347e-009
4.023228e-009
6.601946e-009
3.440857e-010
-6.391273e-009
-5.698297e-009
7.929061e-010
5.367843e-009
4.149317e-009
6.618986e-010
5.839472e-011
2.794319e-009
5.214895e-009
4.195701e-009
-1.283116e-009
-1.266031e-008
-3.357185e-008
-6.863894e-008
-1.225467e-007
-2.019614e-007
-3.174640e-007
-4.816469e-007
-7.045683e-007
-9.909848e-007
-1.340464e-006
-1.747284e-006
-2.198547e-006
-2.673352e-006
-3.145729e-006
-3.589498e-006
-3.981177e-006
-4.300509e-006
-4.531423e-006
-4.664454e-006
-4.698167e-006
-4.637625e-006
-4.491482e-006
-4.270451e-006
-3.987330e-006
-3.656722e-006
-3.293786e-006
-2.913156e-006
-2.528907e-006
-2.154936e-006
-1.804886e-006
-1.491665e-006
-1.227141e-006
-1.022215e-006
-8.868314e-007
-8.294284e-007
-8.559148e-007
-9.689053e-007
-1.167575e-006
-1.447294e-006
-1.798212e-006
-2.203767e-006
-2.641050e-006
-3.082921e-006
-3.499589e-006
-3.858936e-006
-4.128216e-006
-4.279160e-006
-4.294009e-006
-4.168269e-006
-3.909854e-006
-3.538027e-006
-3.083256e-006
-2.584724e-006
-2.083283e-006
-1.613290e-006
-1.198598e-006
-8.531085e-007
-5.818998e-007
-3.811831e-007
-2.397572e-007
-1.436816e-007
-8.098294e-008
-4.251249e-008
-2.018835e-008
-6.949099e-009
1.060916e-009
4.183706e-009
2.675197e-009
-3.282277e-010
-7.588287e-010
1.867782e-009
3.870875e-009
2.207318e-009
-1.447933e-009
-2.824128e-009
-6.238461e-010
1.853797e-009
1.154185e-009
-1.751516e-009
-2.774662e-009
-1.398725e-010
3.179464e-009
1.134704e-009
-4.302638e-009
-5.870183e-009
3.419070e-011
7.247597e-009
7.583515e-009
8.128750e-010
-5.223754e-009
-4.225025e-009
1.313375e-009
3.986702e-009
1.081188e-009
-2.458740e-009
-9.974610e-010
4.290590e-009
6.549771e-009
2.766928e-010
-1.551559e-008
-4.142757e-008
-8.290813e-008
-1.505755e-007
-2.573631e-007
-4.173546e-007
-6.461739e-007
-9.586566e-007
-1.362734e-006
-1.853581e-006
-2.411411e-006
-3.001865e-006
-3.577032e-006
-4.078400e-006
-4.443928e-006
-4.617688e-006
-4.557601e-006
-4.239010e-006
-3.655516e-006
-2.818605e-006
-1.755321e-006
-5.033245e-007
8.947907e-007
2.395377e-006
3.955546e-006
5.534376e-006
7.094038e-006
8.600175e-006
1.002135e-005
1.132839e-005
1.249409e-005
1.349304e-005
1.430133e-005
1.489637e-005
1.525701e-005
1.536422e-005
1.520235e-005
1.476041e-005
1.403314e-005
1.302262e-005
1.174118e-005
1.021475e-005
8.484397e-006
6.605931e-006
4.649363e-006
2.698346e-006
8.464969e-007
-8.115842e-007
-2.192057e-006
-3.232010e-006
-3.896980e-006
-4.186950e-006
-4.139037e-006
-3.822470e-006
-3.325045e-006
-2.736688e-006
-2.136596e-006
-1.585392e-006
-1.120573e-006
-7.557943e-007
-4.860843e-007
-2.971327e-007
-1.725676e-007
-9.589857e-008
-5.060217e-008
-2.286945e-008
-5.372574e-009
3.317938e-009
4.066675e-009
1.005655e-009
-6.798450e-010
5.221716e-010
1.911604e-009
9.396633e-010
-1.363722e-009
-2.053796e-009
-2.561865e-010
1.868217e-009
2.008150e-009
3.906778e-010
-9.151698e-010
-7.123666e-010
1.178501e-010
-7.209701e-009
-4.336675e-009
-4.420109e-010
2.734183e-009
3.862996e-009
2.564699e-009
1.844743e-010
-7.097349e-010
1.094504e-009
3.484747e-009
3.094269e-009
-1.979610e-010
-2.408881e-009
-5.324074e-010