# vtk DataFile Version 3.0
vtk output
ASCII
DATASET STRUCTURED_POINTS
DIMENSIONS 100 100 1
SPACING 1 1 1
ORIGIN 0 0 0
POINT_DATA 10000
SCALARS SFBox_profile double
LOOKUP_TABLE default 
9.439911e-003
9.439912e-003
9.439915e-003
9.439919e-003
9.439923e-003
9.439925e-003
9.439925e-003
9.439924e-003
9.439923e-003
9.439923e-003
9.439923e-003
9.439924e-003
9.439927e-003
9.439932e-003
9.439939e-003
9.439945e-003
9.439951e-003
9.439955e-003
9.439959e-003
9.439963e-003
9.439968e-003
9.439972e-003
9.439975e-003
9.439974e-003
9.439968e-003
9.439959e-003
9.439946e-003
9.439931e-003
9.439913e-003
9.439892e-003
9.439866e-003
9.439835e-003
9.439802e-003
9.439767e-003
9.439730e-003
9.439693e-003
9.439655e-003
9.439617e-003
9.439578e-003
9.439538e-003
9.439499e-003
9.439461e-003
9.439424e-003
9.439390e-003
9.439358e-003
9.439329e-003
9.439303e-003
9.439278e-003
9.439257e-003
9.439239e-003
9.439227e-003
9.439220e-003
9.439218e-003
9.439222e-003
9.439231e-003
9.439246e-003
9.439269e-003
9.439300e-003
9.439339e-003
9.439384e-003
9.439434e-003
9.439488e-003
9.439544e-003
9.439603e-003
9.439661e-003
9.439718e-003
9.439771e-003
9.439819e-003
9.439860e-003
9.439894e-003
9.439920e-003
9.439939e-003
9.439951e-003
9.439958e-003
9.439961e-003
9.439961e-003
9.439958e-003
9.439953e-003
9.439947e-003
9.439941e-003
9.439937e-003
9.439934e-003
9.439931e-003
9.439929e-003
9.439925e-003
9.439921e-003
9.439919e-003
9.439918e-003
9.439920e-003
9.439923e-003
9.439924e-003
9.439924e-003
9.439921e-003
9.439918e-003
9.439916e-003
9.439915e-003
9.439916e-003
9.439919e-003
9.439923e-003
9.439926e-003
9.439911e-003
9.439912e-003
9.439915e-003
9.439919e-003
9.439923e-003
9.439925e-003
9.439925e-003
9.439924e-003
9.439923e-003
9.439923e-003
9.439923e-003
9.439924e-003
9.439927e-003
9.439932e-003
9.439939e-003
9.439945e-003
9.439951e-003
9.439955e-003
9.439959e-003
9.439963e-003
9.439968e-003
9.439972e-003
9.439975e-003
9.439974e-003
9.439968e-003
9.439959e-003
9.439946e-003
9.439931e-003
9.439913e-003
9.439892e-003
9.439866e-003
9.439835e-003
9.439802e-003
9.439767e-003
9.439730e-003
9.439693e-003
9.439655e-003
9.439617e-003
9.439578e-003
9.439538e-003
9.439499e-003
9.439461e-003
9.439424e-003
9.439390e-003
9.439358e-003
9.439329e-003
9.439303e-003
9.439278e-003
9.439257e-003
9.439239e-003
9.439227e-003
9.439220e-003
9.439218e-003
9.439222e-003
9.439231e-003
9.439246e-003
9.439269e-003
9.439300e-003
9.439339e-003
9.439384e-003
9.439434e-003
9.439488e-003
9.439544e-003
9.439603e-003
9.439661e-003
9.439718e-003
9.439771e-003
9.439819e-003
9.439860e-003
9.439894e-003
9.439920e-003
9.439939e-003
9.439951e-003
9.439958e-003
9.439961e-003
9.439961e-003
9.439958e-003
9.439953e-003
9.439947e-003
9.439941e-003
9.439937e-003
9.439934e-003
9.439931e-003
9.439929e-003
9.439925e-003
9.439921e-003
9.439919e-003
9.439918e-003
9.439920e-003
9.439923e-003
9.439924e-003
9.439924e-003
9.439921e-003
9.439918e-003
9.439916e-003
9.439915e-003
9.439916e-003
9.439919e-003
9.439923e-003
9.439926e-003
9.439917e-003
9.439917e-003
9.439918e-003
9.439919e-003
9.439921e-003
9.439923e-003
9.439924e-003
9.439924e-003
9.439925e-003
9.439925e-003
9.439926e-003
9.439928e-003
9.439931e-003
9.439936e-003
9.439943e-003
9.439949e-003
9.439954e-003
9.439958e-003
9.439959e-003
9.439959e-003
9.439957e-003
9.439951e-003
9.439941e-003
9.439925e-003
9.439901e-003
9.439869e-003
9.439830e-003
9.439784e-003
9.439733e-003
9.439674e-003
9.439608e-003
9.439536e-003
9.439460e-003
9.439380e-003
9.439299e-003
9.439216e-003
9.439133e-003
9.439050e-003
9.438968e-003
9.438886e-003
9.438807e-003
9.438730e-003
9.438657e-003
9.438588e-003
9.438525e-003
9.438467e-003
9.438414e-003
9.438366e-003
9.438326e-003
9.438293e-003
9.438270e-003
9.438257e-003
9.438255e-003
9.438263e-003
9.438284e-003
9.438318e-003
9.438366e-003
9.438430e-003
9.438508e-003
9.438600e-003
9.438702e-003
9.438814e-003
9.438934e-003
9.439058e-003
9.439184e-003
9.439307e-003
9.439425e-003
9.439533e-003
9.439631e-003
9.439715e-003
9.439785e-003
9.439841e-003
9.439883e-003
9.439913e-003
9.439933e-003
9.439945e-003
9.439950e-003
9.439951e-003
9.439948e-003
9.439944e-003
9.439939e-003
9.439936e-003
9.439933e-003
9.439930e-003
9.439927e-003
9.439923e-003
9.439921e-003
9.439920e-003
9.439921e-003
9.439922e-003
9.439923e-003
9.439922e-003
9.439921e-003
9.439919e-003
9.439917e-003
9.439917e-003
9.439918e-003
9.439920e-003
9.439922e-003
9.439923e-003
9.439925e-003
9.439923e-003
9.439921e-003
9.439919e-003
9.439919e-003
9.439921e-003
9.439923e-003
9.439925e-003
9.439927e-003
9.439929e-003
9.439932e-003
9.439935e-003
9.439939e-003
9.439944e-003
9.439950e-003
9.439954e-003
9.439955e-003
9.439953e-003
9.439946e-003
9.439931e-003
9.439907e-003
9.439873e-003
9.439825e-003
9.439763e-003
9.439684e-003
9.439586e-003
9.439472e-003
9.439340e-003
9.439193e-003
9.439032e-003
9.438858e-003
9.438673e-003
9.438479e-003
9.438280e-003
9.438078e-003
9.437874e-003
9.437670e-003
9.437469e-003
9.437272e-003
9.437079e-003
9.436894e-003
9.436716e-003
9.436547e-003
9.436389e-003
9.436243e-003
9.436109e-003
9.435988e-003
9.435882e-003
9.435791e-003
9.435720e-003
9.435669e-003
9.435641e-003
9.435637e-003
9.435660e-003
9.435711e-003
9.435793e-003
9.435908e-003
9.436057e-003
9.436239e-003
9.436452e-003
9.436694e-003
9.436960e-003
9.437246e-003
9.437544e-003
9.437849e-003
9.438151e-003
9.438443e-003
9.438718e-003
9.438969e-003
9.439192e-003
9.439383e-003
9.439542e-003
9.439668e-003
9.439765e-003
9.439836e-003
9.439885e-003
9.439917e-003
9.439935e-003
9.439943e-003
9.439945e-003
9.439943e-003
9.439940e-003
9.439936e-003
9.439933e-003
9.439929e-003
9.439927e-003
9.439925e-003
9.439923e-003
9.439922e-003
9.439921e-003
9.439920e-003
9.439920e-003
9.439920e-003
9.439920e-003
9.439920e-003
9.439920e-003
9.439920e-003
9.439920e-003
9.439920e-003
9.439920e-003
9.439929e-003
9.439927e-003
9.439924e-003
9.439921e-003
9.439920e-003
9.439920e-003
9.439922e-003
9.439926e-003
9.439931e-003
9.439936e-003
9.439941e-003
9.439946e-003
9.439950e-003
9.439953e-003
9.439954e-003
9.439950e-003
9.439940e-003
9.439919e-003
9.439883e-003
9.439827e-003
9.439746e-003
9.439636e-003
9.439493e-003
9.439314e-003
9.439097e-003
9.438840e-003
9.438542e-003
9.438207e-003
9.437837e-003
9.437438e-003
9.437014e-003
9.436569e-003
9.436110e-003
9.435641e-003
9.435167e-003
9.434693e-003
9.434223e-003
9.433762e-003
9.433313e-003
9.432879e-003
9.432462e-003
9.432065e-003
9.431690e-003
9.431340e-003
9.431017e-003
9.430722e-003
9.430457e-003
9.430225e-003
9.430031e-003
9.429877e-003
9.429768e-003
9.429709e-003
9.429704e-003
9.429758e-003
9.429875e-003
9.430061e-003
9.430318e-003
9.430650e-003
9.431056e-003
9.431534e-003
9.432078e-003
9.432679e-003
9.433329e-003
9.434012e-003
9.434713e-003
9.435415e-003
9.436101e-003
9.436753e-003
9.437357e-003
9.437900e-003
9.438375e-003
9.438777e-003
9.439106e-003
9.439366e-003
9.439564e-003
9.439708e-003
9.439807e-003
9.439872e-003
9.439912e-003
9.439933e-003
9.439942e-003
9.439943e-003
9.439941e-003
9.439937e-003
9.439934e-003
9.439931e-003
9.439929e-003
9.439926e-003
9.439923e-003
9.439921e-003
9.439919e-003
9.439918e-003
9.439919e-003
9.439921e-003
9.439922e-003
9.439923e-003
9.439922e-003
9.439920e-003
9.439918e-003
9.439917e-003
9.439928e-003
9.439928e-003
9.439926e-003
9.439924e-003
9.439923e-003
9.439923e-003
9.439925e-003
9.439929e-003
9.439936e-003
9.439944e-003
9.439951e-003
9.439957e-003
9.439959e-003
9.439955e-003
9.439941e-003
9.439915e-003
9.439869e-003
9.439796e-003
9.439684e-003
9.439522e-003
9.439301e-003
9.439009e-003
9.438641e-003
9.438192e-003
9.437657e-003
9.437036e-003
9.436330e-003
9.435545e-003
9.434690e-003
9.433777e-003
9.432816e-003
9.431821e-003
9.430801e-003
9.429769e-003
9.428734e-003
9.427707e-003
9.426697e-003
9.425712e-003
9.424757e-003
9.423839e-003
9.422964e-003
9.422134e-003
9.421355e-003
9.420629e-003
9.419961e-003
9.419354e-003
9.418812e-003
9.418341e-003
9.417947e-003
9.417637e-003
9.417420e-003
9.417305e-003
9.417300e-003
9.417417e-003
9.417665e-003
9.418053e-003
9.418590e-003
9.419281e-003
9.420127e-003
9.421125e-003
9.422267e-003
9.423538e-003
9.424916e-003
9.426376e-003
9.427887e-003
9.429413e-003
9.430917e-003
9.432362e-003
9.433714e-003
9.434947e-003
9.436039e-003
9.436977e-003
9.437759e-003
9.438389e-003
9.438878e-003
9.439244e-003
9.439507e-003
9.439688e-003
9.439807e-003
9.439879e-003
9.439919e-003
9.439937e-003
9.439942e-003
9.439941e-003
9.439938e-003
9.439936e-003
9.439933e-003
9.439929e-003
9.439925e-003
9.439922e-003
9.439919e-003
9.439918e-003
9.439920e-003
9.439922e-003
9.439924e-003
9.439924e-003
9.439923e-003
9.439921e-003
9.439917e-003
9.439915e-003
9.439924e-003
9.439925e-003
9.439927e-003
9.439928e-003
9.439928e-003
9.439928e-003
9.439931e-003
9.439936e-003
9.439944e-003
9.439953e-003
9.439961e-003
9.439962e-003
9.439952e-003
9.439926e-003
9.439876e-003
9.439790e-003
9.439653e-003
9.439448e-003
9.439153e-003
9.438744e-003
9.438200e-003
9.437501e-003
9.436636e-003
9.435595e-003
9.434374e-003
9.432978e-003
9.431413e-003
9.429696e-003
9.427849e-003
9.425898e-003
9.423868e-003
9.421786e-003
9.419675e-003
9.417559e-003
9.415459e-003
9.413393e-003
9.411378e-003
9.409427e-003
9.407552e-003
9.405762e-003
9.404066e-003
9.402469e-003
9.400978e-003
9.399597e-003
9.398332e-003
9.397190e-003
9.396176e-003
9.395301e-003
9.394574e-003
9.394006e-003
9.393614e-003
9.393412e-003
9.393420e-003
9.393655e-003
9.394137e-003
9.394884e-003
9.395910e-003
9.397230e-003
9.398848e-003
9.400764e-003
9.402967e-003
9.405434e-003
9.408133e-003
9.411017e-003
9.414031e-003
9.417109e-003
9.420179e-003
9.423166e-003
9.425999e-003
9.428616e-003
9.430966e-003
9.433015e-003
9.434748e-003
9.436166e-003
9.437288e-003
9.438145e-003
9.438775e-003
9.439221e-003
9.439523e-003
9.439717e-003
9.439833e-003
9.439897e-003
9.439928e-003
9.439939e-003
9.439941e-003
9.439940e-003
9.439937e-003
9.439933e-003
9.439929e-003
9.439924e-003
9.439921e-003
9.439920e-003
9.439920e-003
9.439922e-003
9.439924e-003
9.439924e-003
9.439923e-003
9.439921e-003
9.439917e-003
9.439915e-003
9.439921e-003
9.439924e-003
9.439928e-003
9.439932e-003
9.439934e-003
9.439937e-003
9.439941e-003
9.439947e-003
9.439955e-003
9.439961e-003
9.439960e-003
9.439944e-003
9.439902e-003
9.439819e-003
9.439676e-003
9.439447e-003
9.439098e-003
9.438592e-003
9.437885e-003
9.436932e-003
9.435692e-003
9.434131e-003
9.432227e-003
9.429969e-003
9.427361e-003
9.424420e-003
9.421176e-003
9.417670e-003
9.413954e-003
9.410083e-003
9.406114e-003
9.402099e-003
9.398088e-003
9.394121e-003
9.390238e-003
9.386469e-003
9.382840e-003
9.379372e-003
9.376078e-003
9.372970e-003
9.370057e-003
9.367343e-003
9.364835e-003
9.362536e-003
9.360450e-003
9.358586e-003
9.356950e-003
9.355553e-003
9.354409e-003
9.353534e-003
9.352948e-003
9.352676e-003
9.352744e-003
9.353181e-003
9.354018e-003
9.355285e-003
9.357010e-003
9.359219e-003
9.361932e-003
9.365158e-003
9.368895e-003
9.373126e-003
9.377814e-003
9.382900e-003
9.388304e-003
9.393921e-003
9.399630e-003
9.405293e-003
9.410768e-003
9.415922e-003
9.420637e-003
9.424824e-003
9.428426e-003
9.431426e-003
9.433841e-003
9.435717e-003
9.437123e-003
9.438138e-003
9.438842e-003
9.439308e-003
9.439601e-003
9.439775e-003
9.439869e-003
9.439916e-003
9.439936e-003
9.439943e-003
9.439942e-003
9.439938e-003
9.439933e-003
9.439928e-003
9.439925e-003
9.439922e-003
9.439922e-003
9.439922e-003
9.439923e-003
9.439923e-003
9.439922e-003
9.439920e-003
9.439918e-003
9.439917e-003
9.439923e-003
9.439926e-003
9.439930e-003
9.439936e-003
9.439942e-003
9.439948e-003
9.439954e-003
9.439960e-003
9.439963e-003
9.439957e-003
9.439930e-003
9.439868e-003
9.439744e-003
9.439526e-003
9.439171e-003
9.438621e-003
9.437809e-003
9.436657e-003
9.435082e-003
9.433003e-003
9.430349e-003
9.427067e-003
9.423130e-003
9.418544e-003
9.413343e-003
9.407593e-003
9.401381e-003
9.394815e-003
9.388009e-003
9.381082e-003
9.374147e-003
9.367303e-003
9.360633e-003
9.354208e-003
9.348079e-003
9.342288e-003
9.336859e-003
9.331809e-003
9.327141e-003
9.322854e-003
9.318941e-003
9.315393e-003
9.312199e-003
9.309350e-003
9.306838e-003
9.304659e-003
9.302811e-003
9.301295e-003
9.300117e-003
9.299284e-003
9.298812e-003
9.298717e-003
9.299021e-003
9.299750e-003
9.300935e-003
9.302610e-003
9.304816e-003
9.307600e-003
9.311012e-003
9.315106e-003
9.319933e-003
9.325534e-003
9.331933e-003
9.339122e-003
9.347055e-003
9.355631e-003
9.364695e-003
9.374039e-003
9.383411e-003
9.392540e-003
9.401162e-003
9.409041e-003
9.415999e-003
9.421933e-003
9.426812e-003
9.430680e-003
9.433633e-003
9.435804e-003
9.437339e-003
9.438379e-003
9.439053e-003
9.439468e-003
9.439709e-003
9.439841e-003
9.439907e-003
9.439935e-003
9.439944e-003
9.439944e-003
9.439939e-003
9.439933e-003
9.439929e-003
9.439925e-003
9.439923e-003
9.439922e-003
9.439921e-003
9.439921e-003
9.439920e-003
9.439920e-003
9.439920e-003
9.439919e-003
9.439929e-003
9.439931e-003
9.439936e-003
9.439943e-003
9.439951e-003
9.439960e-003
9.439967e-003
9.439968e-003
9.439955e-003
9.439915e-003
9.439826e-003
9.439653e-003
9.439344e-003
9.438831e-003
9.438019e-003
9.436797e-003
9.435029e-003
9.432570e-003
9.429272e-003
9.425002e-003
9.419659e-003
9.413194e-003
9.405621e-003
9.397025e-003
9.387559e-003
9.377433e-003
9.366892e-003
9.356196e-003
9.345603e-003
9.335347e-003
9.325628e-003
9.316602e-003
9.308381e-003
9.301035e-003
9.294598e-003
9.289071e-003
9.284432e-003
9.280633e-003
9.277614e-003
9.275300e-003
9.273617e-003
9.272486e-003
9.271835e-003
9.271596e-003
9.271709e-003
9.272121e-003
9.272780e-003
9.273639e-003
9.274648e-003
9.275758e-003
9.276917e-003
9.278074e-003
9.279175e-003
9.280173e-003
9.281032e-003
9.281736e-003
9.282301e-003
9.282789e-003
9.283315e-003
9.284059e-003
9.285258e-003
9.287206e-003
9.290219e-003
9.294609e-003
9.300631e-003
9.308433e-003
9.318020e-003
9.329218e-003
9.341683e-003
9.354924e-003
9.368360e-003
9.381395e-003
9.393493e-003
9.404242e-003
9.413389e-003
9.420849e-003
9.426687e-003
9.431071e-003
9.434230e-003
9.436415e-003
9.437862e-003
9.438779e-003
9.439332e-003
9.439648e-003
9.439817e-003
9.439900e-003
9.439934e-003
9.439945e-003
9.439943e-003
9.439938e-003
9.439933e-003
9.439929e-003
9.439925e-003
9.439923e-003
9.439921e-003
9.439919e-003
9.439919e-003
9.439920e-003
9.439921e-003
9.439922e-003
9.439939e-003
9.439941e-003
9.439945e-003
9.439953e-003
9.439963e-003
9.439972e-003
9.439974e-003
9.439957e-003
9.439903e-003
9.439785e-003
9.439556e-003
9.439144e-003
9.438445e-003
9.437319e-003
9.435585e-003
9.433025e-003
9.429396e-003
9.424445e-003
9.417944e-003
9.409728e-003
9.399734e-003
9.388039e-003
9.374882e-003
9.360663e-003
9.345918e-003
9.331265e-003
9.317349e-003
9.304781e-003
9.294084e-003
9.285666e-003
9.279799e-003
9.276621e-003
9.276151e-003
9.278308e-003
9.282932e-003
9.289807e-003
9.298670e-003
9.309227e-003
9.321169e-003
9.334178e-003
9.347947e-003
9.362182e-003
9.376618e-003
9.391010e-003
9.405138e-003
9.418794e-003
9.431772e-003
9.443857e-003
9.454813e-003
9.464377e-003
9.472251e-003
9.478107e-003
9.481591e-003
9.482343e-003
9.480022e-003
9.474349e-003
9.465150e-003
9.452416e-003
9.436355e-003
9.417441e-003
9.396444e-003
9.374424e-003
9.352689e-003
9.332690e-003
9.315886e-003
9.303568e-003
9.296681e-003
9.295682e-003
9.300457e-003
9.310320e-003
9.324115e-003
9.340394e-003
9.357635e-003
9.374461e-003
9.389802e-003
9.402982e-003
9.413711e-003
9.422022e-003
9.428165e-003
9.432506e-003
9.435443e-003
9.437344e-003
9.438521e-003
9.439214e-003
9.439600e-003
9.439800e-003
9.439895e-003
9.439933e-003
9.439943e-003
9.439942e-003
9.439938e-003
9.439932e-003
9.439928e-003
9.439924e-003
9.439921e-003
9.439919e-003
9.439918e-003
9.439920e-003
9.439922e-003
9.439924e-003
9.439951e-003
9.439954e-003
9.439959e-003
9.439966e-003
9.439975e-003
9.439977e-003
9.439959e-003
9.439897e-003
9.439753e-003
9.439469e-003
9.438948e-003
9.438050e-003
9.436572e-003
9.434248e-003
9.430744e-003
9.425675e-003
9.418639e-003
9.409275e-003
9.397343e-003
9.382829e-003
9.366033e-003
9.347644e-003
9.328743e-003
9.310758e-003
9.295331e-003
9.284158e-003
9.278809e-003
9.280569e-003
9.290339e-003
9.308587e-003
9.335364e-003
9.370353e-003
9.412957e-003
9.462373e-003
9.517673e-003
9.577854e-003
9.641874e-003
9.708683e-003
9.777247e-003
9.846570e-003
9.915722e-003
9.983852e-003
1.005020e-002
1.011409e-002
1.017491e-002
1.023207e-002
1.028497e-002
1.033296e-002
1.037530e-002
1.041114e-002
1.043947e-002
1.045916e-002
1.046895e-002
1.046752e-002
1.045355e-002
1.042586e-002
1.038355e-002
1.032616e-002
1.025387e-002
1.016771e-002
1.006963e-002
9.962633e-003
9.850665e-003
9.738437e-003
9.631056e-003
9.533537e-003
9.450249e-003
9.384389e-003
9.337566e-003
9.309613e-003
9.298669e-003
9.301540e-003
9.314269e-003
9.332785e-003
9.353474e-003
9.373573e-003
9.391311e-003
9.405838e-003
9.417014e-003
9.425155e-003
9.430798e-003
9.434531e-003
9.436889e-003
9.438312e-003
9.439127e-003
9.439568e-003
9.439790e-003
9.439891e-003
9.439931e-003
9.439942e-003
9.439941e-003
9.439937e-003
9.439932e-003
9.439927e-003
9.439923e-003
9.439920e-003
9.439919e-003
9.439920e-003
9.439922e-003
9.439924e-003
9.439966e-003
9.439970e-003
9.439976e-003
9.439982e-003
9.439982e-003
9.439961e-003
9.439894e-003
9.439734e-003
9.439405e-003
9.438786e-003
9.437694e-003
9.435858e-003
9.432908e-003
9.428363e-003
9.421655e-003
9.412177e-003
9.399400e-003
9.383034e-003
9.363264e-003
9.340991e-003
9.318038e-003
9.297229e-003
9.282297e-003
9.277586e-003
9.287606e-003
9.316519e-003
9.367668e-003
9.443240e-003
9.544109e-003
9.669865e-003
9.818993e-003
9.989136e-003
1.017739e-002
1.038059e-002
1.059546e-002
1.081879e-002
1.104748e-002
1.127860e-002
1.150938e-002
1.173728e-002
1.195999e-002
1.217551e-002
1.238206e-002
1.257811e-002
1.276230e-002
1.293330e-002
1.308974e-002
1.323007e-002
1.335245e-002
1.345469e-002
1.353416e-002
1.358778e-002
1.361211e-002
1.360339e-002
1.355779e-002
1.347167e-002
1.334193e-002
1.316647e-002
1.294473e-002
1.267818e-002
1.237081e-002
1.202944e-002
1.166382e-002
1.128624e-002
1.091090e-002
1.055274e-002
1.022600e-002
9.942688e-003
9.711135e-003
9.535019e-003
9.413032e-003
9.339376e-003
9.304981e-003
9.299199e-003
9.311532e-003
9.333020e-003
9.357019e-003
9.379343e-003
9.397908e-003
9.412139e-003
9.422361e-003
9.429307e-003
9.433795e-003
9.436559e-003
9.438181e-003
9.439084e-003
9.439558e-003
9.439790e-003
9.439893e-003
9.439932e-003
9.439942e-003
9.439941e-003
9.439937e-003
9.439931e-003
9.439927e-003
9.439923e-003
9.439921e-003
9.439921e-003
9.439921e-003
9.439922e-003
9.439985e-003
9.439989e-003
9.439994e-003
9.439992e-003
9.439969e-003
9.439897e-003
9.439728e-003
9.439371e-003
9.438681e-003
9.437428e-003
9.435269e-003
9.431718e-003
9.426128e-003
9.417702e-003
9.405584e-003
9.389042e-003
9.367799e-003
9.342527e-003
9.315440e-003
9.290863e-003
9.275576e-003
9.278736e-003
9.311252e-003
9.384670e-003
9.509788e-003
9.695282e-003
9.946667e-003
1.026575e-002
1.065067e-002
1.109636e-002
1.159537e-002
1.213874e-002
1.271694e-002
1.332047e-002
1.394037e-002
1.456837e-002
1.519699e-002
1.581952e-002
1.642995e-002
1.702303e-002
1.759419e-002
1.813961e-002
1.865610e-002
1.914101e-002
1.959200e-002
2.000682e-002
2.038304e-002
2.071775e-002
2.100731e-002
2.124715e-002
2.143163e-002
2.155400e-002
2.160643e-002
2.158022e-002
2.146615e-002
2.125500e-002
2.093832e-002
2.050933e-002
1.996410e-002
1.930277e-002
1.853088e-002
1.766040e-002
1.671045e-002
1.570726e-002
1.468323e-002
1.367498e-002
1.272031e-002
1.185446e-002
1.110613e-002
1.049391e-002
1.002409e-002
9.690409e-003
9.475890e-003
9.356556e-003
9.305904e-003
9.299092e-003
9.315870e-003
9.341846e-003
9.368246e-003
9.390738e-003
9.407945e-003
9.420127e-003
9.428231e-003
9.433339e-003
9.436402e-003
9.438149e-003
9.439093e-003
9.439575e-003
9.439803e-003
9.439900e-003
9.439936e-003
9.439944e-003
9.439941e-003
9.439936e-003
9.439931e-003
9.439927e-003
9.439924e-003
9.439922e-003
9.439920e-003
9.439920e-003
9.440008e-003
9.440010e-003
9.440007e-003
9.439984e-003
9.439912e-003
9.439739e-003
9.439371e-003
9.438642e-003
9.437286e-003
9.434886e-003
9.430837e-003
9.424310e-003
9.414257e-003
9.399524e-003
9.379150e-003
9.352957e-003
9.322514e-003
9.292443e-003
9.271859e-003
9.275472e-003
9.323829e-003
9.442221e-003
9.658191e-003
9.998045e-003
1.048315e-002
1.112691e-002
1.193304e-002
1.289544e-002
1.399948e-002
1.522420e-002
1.654495e-002
1.793587e-002
1.937194e-002
2.083037e-002
2.229121e-002
2.373749e-002
2.515499e-002
2.653181e-002
2.785810e-002
2.912583e-002
3.032862e-002
3.146155e-002
3.252097e-002
3.350417e-002
3.440894e-002
3.523305e-002
3.597374e-002
3.662718e-002
3.718799e-002
3.764881e-002
3.800009e-002
3.822987e-002
3.832381e-002
3.826544e-002
3.803655e-002
3.761798e-002
3.699069e-002
3.613730e-002
3.504400e-002
3.370299e-002
3.211513e-002
3.029283e-002
2.826253e-002
2.606647e-002
2.376290e-002
2.142432e-002
1.913314e-002
1.697465e-002
1.502792e-002
1.335596e-002
1.199714e-002
1.096034e-002
1.022541e-002
9.749010e-003
9.474325e-003
9.341937e-003
9.298871e-003
9.304014e-003
9.329517e-003
9.359145e-003
9.385135e-003
9.404955e-003
9.418754e-003
9.427725e-003
9.433233e-003
9.436444e-003
9.438222e-003
9.439155e-003
9.439615e-003
9.439826e-003
9.439912e-003
9.439940e-003
9.439944e-003
9.439940e-003
9.439934e-003
9.439930e-003
9.439926e-003
9.439923e-003
9.439920e-003
9.439918e-003
9.440030e-003
9.440026e-003
9.440005e-003
9.439937e-003
9.439771e-003
9.439408e-003
9.438677e-003
9.437283e-003
9.434757e-003
9.430383e-003
9.423153e-003
9.411752e-003
9.394696e-003
9.370756e-003
9.339904e-003
9.305022e-003
9.274473e-003
9.265282e-003
9.306100e-003
9.438658e-003
9.716354e-003
1.019931e-002
1.094637e-002
1.200586e-002
1.340742e-002
1.515701e-002
1.723621e-002
1.960554e-002
2.221048e-002
2.498864e-002
2.787648e-002
3.081464e-002
3.375146e-002
3.664449e-002
3.946058e-002
4.217481e-002
4.476906e-002
4.723050e-002
4.955043e-002
5.172342e-002
5.374667e-002
5.561951e-002
5.734282e-002
5.891847e-002
6.034856e-002
6.163463e-002
6.277691e-002
6.377352e-002
6.461986e-002
6.530804e-002
6.582641e-002
6.615930e-002
6.628683e-002
6.618496e-002
6.582565e-002
6.517742e-002
6.420622e-002
6.287690e-002
6.115537e-002
5.901169e-002
5.642419e-002
5.338473e-002
4.990475e-002
4.602166e-002
4.180445e-002
3.735700e-002
3.281709e-002
2.834908e-002
2.412928e-002
2.032467e-002
1.706894e-002
1.444159e-002
1.245685e-002
1.106614e-002
1.017370e-002
9.660062e-003
9.405960e-003
9.310098e-003
9.297751e-003
9.320883e-003
9.352917e-003
9.381753e-003
9.403562e-003
9.418438e-003
9.427864e-003
9.433493e-003
9.436679e-003
9.438390e-003
9.439260e-003
9.439674e-003
9.439855e-003
9.439923e-003
9.439942e-003
9.439942e-003
9.439937e-003
9.439932e-003
9.439928e-003
9.439924e-003
9.439921e-003
9.439919e-003
9.440047e-003
9.440028e-003
9.439968e-003
9.439818e-003
9.439481e-003
9.438783e-003
9.437421e-003
9.434894e-003
9.430411e-003
9.422808e-003
9.410516e-003
9.391698e-003
9.364792e-003
9.329865e-003
9.291306e-003
9.262322e-003
9.271138e-003
9.367711e-003
9.628406e-003
1.015532e-002
1.106765e-002
1.248506e-002
1.450629e-002
1.718875e-002
2.053538e-002
2.449242e-002
2.895824e-002
3.379970e-002
3.887114e-002
4.403153e-002
4.915688e-002
5.414719e-002
5.892839e-002
6.345066e-002
6.768458e-002
7.161647e-002
7.524392e-002
7.857210e-002
8.161103e-002
8.437375e-002
8.687497e-002
8.913018e-002
9.115486e-002
9.296381e-002
9.457039e-002
9.598589e-002
9.721884e-002
9.827448e-002
9.915426e-002
9.985545e-002
1.003707e-001
1.006877e-001
1.007887e-001
1.006502e-001
1.002421e-001
9.952779e-002
9.846289e-002
9.699562e-002
9.506688e-002
9.261162e-002
8.956176e-002
8.585155e-002
8.142603e-002
7.625330e-002
7.034033e-002
6.375076e-002
5.662091e-002
4.916800e-002
4.168341e-002
3.450579e-002
2.797415e-002
2.237016e-002
1.786661e-002
1.450005e-002
1.217786e-002
1.071557e-002
9.889334e-003
9.484447e-003
9.327087e-003
9.295624e-003
9.316147e-003
9.350101e-003
9.380985e-003
9.403950e-003
9.419223e-003
9.428629e-003
9.434080e-003
9.437071e-003
9.438627e-003
9.439390e-003
9.439739e-003
9.439882e-003
9.439931e-003
9.439942e-003
9.439939e-003
9.439934e-003
9.439930e-003
9.439926e-003
9.439923e-003
9.439921e-003
9.440047e-003
9.440000e-003
9.439870e-003
9.439573e-003
9.438942e-003
9.437680e-003
9.435278e-003
9.430909e-003
9.423310e-003
9.410705e-003
9.390910e-003
9.361944e-003
9.323748e-003
9.281958e-003
9.254842e-003
9.283933e-003
9.447135e-003
9.870153e-003
1.072941e-002
1.223927e-002
1.462057e-002
1.805480e-002
2.263715e-002
2.834431e-002
3.502957e-002
4.244664e-002
5.029339e-002
5.826051e-002
6.607196e-002
7.351010e-002
8.042464e-002
8.672906e-002
9.238955e-002
9.741128e-002
1.018254e-001
1.056783e-001
1.090237e-001
1.119170e-001
1.144119e-001
1.165584e-001
1.184018e-001
1.199817e-001
1.213330e-001
1.224851e-001
1.234630e-001
1.242871e-001
1.249734e-001
1.255346e-001
1.259792e-001
1.263126e-001
1.265364e-001
1.266485e-001
1.266429e-001
1.265086e-001
1.262286e-001
1.257787e-001
1.251250e-001
1.242218e-001
1.230078e-001
1.214029e-001
1.193049e-001
1.165869e-001
1.130984e-001
1.086730e-001
1.031458e-001
9.638500e-002
8.833712e-002
7.907897e-002
6.886226e-002
5.812846e-002
4.747270e-002
3.754882e-002
2.893584e-002
2.201197e-002
1.688658e-002
1.341529e-002
1.128289e-002
1.011201e-002
9.554279e-003
9.341272e-003
9.295421e-003
9.315173e-003
9.350906e-003
9.382916e-003
9.406065e-003
9.420994e-003
9.429904e-003
9.434906e-003
9.437562e-003
9.438896e-003
9.439526e-003
9.439799e-003
9.439904e-003
9.439936e-003
9.439940e-003
9.439936e-003
9.439932e-003
9.439928e-003
9.439925e-003
9.439924e-003
9.440013e-003
9.439918e-003
9.439670e-003
9.439127e-003
9.438016e-003
9.435846e-003
9.431799e-003
9.424576e-003
9.412273e-003
9.392415e-003
9.362539e-003
9.322108e-003
9.277190e-003
9.249911e-003
9.294497e-003
9.519516e-003
1.011098e-002
1.134442e-002
1.357010e-002
1.715928e-002
2.241477e-002
2.946993e-002
3.821619e-002
4.829410e-002
5.915709e-002
7.018355e-002
8.079478e-002
9.054121e-002
9.914069e-002
1.064737e-001
1.125510e-001
1.174705e-001
1.213764e-001
1.244278e-001
1.267797e-001
1.285722e-001
1.299264e-001
1.309429e-001
1.317028e-001
1.322696e-001
1.326921e-001
1.330067e-001
1.332401e-001
1.334124e-001
1.335379e-001
1.336275e-001
1.336891e-001
1.337287e-001
1.337504e-001
1.337573e-001
1.337511e-001
1.337324e-001
1.337004e-001
1.336526e-001
1.335844e-001
1.334885e-001
1.333538e-001
1.331636e-001
1.328936e-001
1.325077e-001
1.319517e-001
1.311439e-001
1.299603e-001
1.282170e-001
1.256522e-001
1.219225e-001
1.166290e-001
1.093918e-001
9.997646e-002
8.844753e-002
7.528641e-002
6.139130e-002
4.791211e-002
3.595892e-002
2.630650e-002
1.923144e-002
1.454127e-002
1.174623e-002
1.026719e-002
9.591605e-003
9.345391e-003
9.295704e-003
9.317875e-003
9.355258e-003
9.387314e-003
9.409622e-003
9.423503e-003
9.431510e-003
9.435855e-003
9.438084e-003
9.439162e-003
9.439649e-003
9.439849e-003
9.439920e-003
9.439939e-003
9.439939e-003
9.439934e-003
9.439930e-003
9.439928e-003
9.439926e-003
9.439920e-003
9.439747e-003
9.439309e-003
9.438377e-003
9.436513e-003
9.432948e-003
9.426418e-003
9.414987e-003
9.395994e-003
9.366500e-003
9.325144e-003
9.277240e-003
9.246153e-003
9.294589e-003
9.557634e-003
1.028256e-002
1.185851e-002
1.480674e-002
1.970066e-002
2.700717e-002
3.688741e-002
4.904349e-002
6.270429e-002
7.678446e-002
9.015680e-002
1.019189e-001
1.115520e-001
1.189386e-001
1.242715e-001
1.279191e-001
1.302998e-001
1.317945e-001
1.327055e-001
1.332506e-001
1.335772e-001
1.337795e-001
1.339142e-001
1.340123e-001
1.340878e-001
1.341452e-001
1.341848e-001
1.342058e-001
1.342086e-001
1.341949e-001
1.341681e-001
1.341328e-001
1.340941e-001
1.340575e-001
1.340286e-001
1.340129e-001
1.340158e-001
1.340421e-001
1.340961e-001
1.341805e-001
1.342961e-001
1.344397e-001
1.346031e-001
1.347709e-001
1.349184e-001
1.350113e-001
1.350068e-001
1.348582e-001
1.345214e-001
1.339573e-001
1.331177e-001
1.318999e-001
1.300653e-001
1.271458e-001
1.224107e-001
1.150013e-001
1.042925e-001
9.035053e-002
7.418315e-002
5.754433e-002
4.234510e-002
2.999951e-002
2.106400e-002
1.529565e-002
1.198282e-002
1.030755e-002
9.582867e-003
9.337417e-003
9.296808e-003
9.324342e-003
9.362796e-003
9.393660e-003