# vtk DataFile Version 3.0
vtk output
ASCII
DATASET STRUCTURED_POINTS
DIMENSIONS 100 100 1
SPACING 1 1 1
ORIGIN 0 0 0
POINT_DATA 10000
SCALARS SFBox_profile double
LOOKUP_TABLE default 
0.000000e+000
0.000000e+000
0.000000e+000
0.000000e+000
0.000000e+000
0.000000e+000
0.000000e+000
0.000000e+000
0.000000e+000
0.000000e+000
0.000000e+000
0.000000e+000
0.000000e+000
0.000000e+000
0.000000e+000
0.000000e+000
0.000000e+000
0.000000e+000
0.000000e+000
0.000000e+000
0.000000e+000
0.000000e+000
0.000000e+000
0.000000e+000
0.000000e+000
0.000000e+000
0.000000e+000
0.000000e+000
0.000000e+000
0.000000e+000
0.000000e+000
0.000000e+000
0.000000e+000
0.000000e+000
0.000000e+000
0.000000e+000
0.000000e+000
0.000000e+000
0.000000e+000
0.000000e+000
0.000000e+000
0.000000e+000
0.000000e+000
0.000000e+000
0.000000e+000
0.000000e+000
0.000000e+000
0.000000e+000
0.000000e+000
0.000000e+000
0.000000e+000
0.000000e+000
0.000000e+000
0.000000e+000
0.000000e+000
0.000000e+000
0.000000e+000
0.000000e+000
0.000000e+000
0.000000e+000
0.000000e+000
0.000000e+000
0.000000e+000
0.000000e+000
0.000000e+000
0.000000e+000
0.000000e+000
0.000000e+000
0.000000e+000
0.000000e+000
0.000000e+000
0.000000e+000
0.000000e+000
0.000000e+000
0.000000e+000
0.000000e+000
0.000000e+000
0.000000e+000
0.000000e+000
0.000000e+000
0.000000e+000
0.000000e+000
0.000000e+000
0.000000e+000
0.000000e+000
0.000000e+000
0.000000e+000
0.000000e+000
0.000000e+000
0.000000e+000
0.000000e+000
0.000000e+000
0.000000e+000
0.000000e+000
0.000000e+000
0.000000e+000
0.000000e+000
0.000000e+000
0.000000e+000
0.000000e+000
1.416397e-008
5.643452e-009
-4.992738e-009
-1.119111e-008
-9.851528e-009
-2.678110e-009
5.388495e-009
9.508174e-009
7.844166e-009
2.236636e-009
-3.543592e-009
-6.488070e-009
-6.010548e-009
-3.589571e-009
-1.063874e-009
8.047367e-010
2.382177e-009
4.102147e-009
5.551490e-009
5.659500e-009
3.753456e-009
3.644179e-010
-3.049301e-009
-5.193498e-009
-5.798647e-009
-5.501487e-009
-5.001053e-009
-4.396463e-009
-3.303120e-009
-1.483351e-009
7.516751e-010
2.769358e-009
4.164858e-009
5.030258e-009
5.712178e-009
6.384562e-009
6.900583e-009
7.022627e-009
6.720525e-009
6.210185e-009
5.732279e-009
5.342943e-009
4.930159e-009
4.398674e-009
3.801532e-009
3.288997e-009
2.955835e-009
2.761345e-009
2.598106e-009
2.422743e-009
2.305433e-009
2.349077e-009
2.569020e-009
2.866936e-009
3.132973e-009
3.367024e-009
3.676821e-009
4.139253e-009
4.674828e-009
5.092675e-009
5.277711e-009
5.308632e-009
5.345839e-009
5.392238e-009
5.211080e-009
4.538141e-009
3.378986e-009
2.040692e-009
8.232203e-010
-2.919878e-010
-1.565283e-009
-3.068788e-009
-4.385277e-009
-4.841539e-009
-4.104913e-009
-2.524595e-009
-8.248620e-010
5.433898e-010
1.685212e-009
2.855079e-009
3.825347e-009
3.811298e-009
2.180776e-009
-7.004610e-010
-3.397553e-009
-4.337766e-009
-3.000818e-009
-3.311467e-010
1.985767e-009
2.747438e-009
1.947434e-009
5.014261e-010
-6.146255e-010
-1.016234e-009
-9.074715e-010
-6.376628e-010
-3.479553e-010
4.615042e-012
4.108115e-010
7.037369e-010
1.770148e-009
7.350930e-010
-5.703158e-010
-1.324976e-009
-1.103107e-009
-1.339539e-010
8.337798e-010
1.047193e-009
3.248949e-010
-7.553422e-010
-1.269052e-009
-6.872852e-010
6.491025e-010
1.753713e-009
1.768978e-009
6.466030e-010
-8.481615e-010
-1.793700e-009
-1.826701e-009
-1.288804e-009
-7.443358e-010
-4.008592e-010
-3.897364e-012
7.495413e-010
1.766416e-009
2.564296e-009
2.706069e-009
2.191576e-009
1.409600e-009
7.361099e-010
2.176230e-010
-3.577488e-010
-1.135002e-009
-1.991985e-009
-2.660744e-009
-2.999981e-009
-3.109652e-009
-3.187243e-009
-3.312409e-009
-3.395414e-009
-3.316666e-009
-3.078447e-009
-2.804317e-009
-2.608089e-009
-2.489671e-009
-2.364639e-009
-2.178741e-009
-1.974777e-009
-1.844698e-009
-1.828430e-009
-1.873560e-009
-1.898458e-009
-1.887044e-009
-1.907762e-009
-2.031688e-009
-2.239508e-009
-2.427534e-009
-2.515777e-009
-2.537665e-009
-2.597720e-009
-2.731448e-009
-2.829316e-009
-2.731355e-009
-2.401010e-009
-1.973622e-009
-1.602353e-009
-1.268023e-009
-7.891098e-010
-5.140017e-011
7.948286e-010
1.418365e-009
1.611009e-009
1.480914e-009
1.304315e-009
1.190309e-009
9.478870e-010
3.354354e-010
-5.677028e-010
-1.301053e-009
-1.393475e-009
-8.100060e-010
-1.085053e-011
4.536308e-010
4.121601e-010
1.488606e-010
4.414392e-011
1.770844e-010
2.942962e-010
1.423650e-010
-2.171814e-010
-4.511437e-010
-3.044884e-010
1.166052e-010
4.272808e-010
3.335832e-010
-7.849871e-011
-4.198358e-010
-3.666771e-010
3.317388e-011
4.065286e-010
-1.229177e-008
-4.811893e-009
4.440276e-009
9.732157e-009
8.511956e-009
2.394090e-009
-4.439608e-009
-8.102800e-009
-7.172027e-009
-2.946049e-009
1.953588e-009
5.347277e-009
6.405019e-009
5.416110e-009
3.054350e-009
-7.130441e-011
-3.353251e-009
-5.993564e-009
-7.133033e-009
-6.298594e-009
-3.747799e-009
-3.508705e-010
2.906154e-009
5.377730e-009
6.854661e-009
7.359539e-009
6.942919e-009
5.672130e-009
3.731821e-009
1.442334e-009
-8.615476e-010
-2.966019e-009
-4.793204e-009
-6.310599e-009
-7.461288e-009
-8.190011e-009
-8.510123e-009
-8.512330e-009
-8.298921e-009
-7.921603e-009
-7.391411e-009
-6.737464e-009
-6.035516e-009
-5.371009e-009
-4.783924e-009
-4.262541e-009
-3.791359e-009
-3.393635e-009
-3.118347e-009
-2.990073e-009
-2.984457e-009
-3.059807e-009
-3.206543e-009
-3.453737e-009
-3.823448e-009
-4.287818e-009
-4.782481e-009
-5.261469e-009
-5.725403e-009
-6.184538e-009
-6.599276e-009
-6.873299e-009
-6.913138e-009
-6.684379e-009
-6.195822e-009
-5.434205e-009
-4.341359e-009
-2.879253e-009
-1.117011e-009
7.615216e-010
2.538143e-009
4.029504e-009
5.067204e-009
5.443116e-009
4.946486e-009
3.520051e-009
1.398171e-009
-9.304806e-010
-2.922838e-009
-4.164925e-009
-4.405761e-009
-3.518522e-009
-1.569838e-009
9.879611e-010
3.249197e-009
4.174497e-009
3.222216e-009
8.301816e-010
-1.720014e-009
-3.065644e-009
-2.626050e-009
-9.233093e-010
8.602511e-010
1.716933e-009
1.411789e-009
4.663592e-010
-3.523161e-010
-5.937242e-010
-3.465739e-010
-4.064891e-011
-1.586643e-008
-6.177336e-009
5.731789e-009
1.236060e-008
1.045405e-008
2.367456e-009
-6.113146e-009
-9.820563e-009
-7.341000e-009
-1.280330e-009
4.145418e-009
6.146867e-009
4.787518e-009
2.081773e-009
-5.836070e-011
-1.157115e-009
-1.877229e-009
-2.770080e-009
-3.486252e-009
-3.171746e-009
-1.489365e-009
8.698751e-010
2.699888e-009
3.258905e-009
2.748588e-009
1.917607e-009
1.299524e-009
8.565218e-010
2.669682e-010
-5.790133e-010
-1.426851e-009
-1.936370e-009
-2.018093e-009
-1.866228e-009
-1.712648e-009
-1.609046e-009
-1.449143e-009
-1.147243e-009
-7.474910e-010
-3.663365e-010
-7.094572e-011
1.619925e-010
3.857014e-010
6.132731e-010
8.138766e-010
9.576913e-010
1.045964e-009
1.100170e-009
1.136818e-009
1.157916e-009
1.156558e-009
1.123418e-009
1.052186e-009
9.476122e-010
8.267666e-010
7.016872e-010
5.576103e-010
3.605894e-010
9.926667e-011
-1.872346e-010
-4.430932e-010
-6.639925e-010
-9.103197e-010
-1.225334e-009
-1.543138e-009
-1.713459e-009
-1.644846e-009
-1.405015e-009
-1.134130e-009
-8.469012e-010
-3.719781e-010
4.434137e-010
1.457892e-009
2.228742e-009
2.353999e-009
1.832174e-009
1.032601e-009
2.813175e-010
-4.671060e-010
-1.448573e-009
-2.556059e-009
-3.096795e-009
-2.271206e-009
-3.301024e-011
2.534913e-009
3.847413e-009
3.018482e-009
5.988787e-010
-1.822812e-009
-2.818664e-009
-2.097264e-009
-5.015372e-010
8.214275e-010
1.269995e-009
9.944949e-010
4.861336e-010
8.167804e-011
-1.782264e-010
-3.661943e-010
-4.855278e-010
-5.840346e-009
-2.198075e-009
2.194859e-009
4.410727e-009
3.246676e-009
-1.018280e-010
-2.951166e-009
-3.100765e-009
-5.004120e-010
2.680997e-009
3.740215e-009
1.609459e-009
-2.248683e-009
-4.988941e-009
-4.624979e-009
-1.484275e-009
2.279164e-009
4.536774e-009
4.692525e-009
3.628756e-009
2.434691e-009
1.328443e-009
-2.256344e-010
-2.539964e-009
-5.039307e-009
-6.621720e-009
-6.609218e-009
-5.274035e-009
-3.458625e-009
-1.775566e-009
-2.226881e-010
1.502548e-009
3.460054e-009
5.310713e-009
6.643344e-009
7.354635e-009
7.672165e-009
7.859795e-009
7.968269e-009
7.872968e-009
7.490940e-009
6.907459e-009
6.298634e-009
5.775145e-009
5.323979e-009
4.882127e-009
4.436108e-009
4.044473e-009
3.781482e-009
3.672352e-009
3.679492e-009
3.744443e-009
3.845607e-009
4.019457e-009
4.318711e-009
4.739156e-009
5.192630e-009
5.572737e-009
5.855987e-009
6.115542e-009
6.403610e-009
6.623285e-009
6.560701e-009
6.080427e-009
5.270056e-009
4.336476e-009
3.341894e-009
2.102062e-009
4.277443e-010
-1.522070e-009
-3.206494e-009
-4.106512e-009
-4.164381e-009
-3.753508e-009
-3.181345e-009
-2.302578e-009
-7.567031e-010
1.368085e-009
3.219869e-009
3.715785e-009
2.509390e-009
4.196720e-010
-1.186318e-009
-1.512941e-009
-8.872332e-010
-2.486430e-010
-1.594643e-010
-3.577757e-010
-2.398502e-010
3.390824e-010
8.511332e-010
6.885274e-010
-1.109827e-010
-8.207468e-010
-7.395427e-010
7.618282e-011
8.344029e-010
7.819315e-010
-4.404215e-011
-8.449013e-010
9.297287e-009
3.624371e-009
-3.296505e-009
-7.199163e-009
-6.417374e-009
-2.262068e-009
2.501912e-009
5.575153e-009
6.047727e-009
4.143811e-009
6.162950e-010
-3.464803e-009
-6.646667e-009
-7.397303e-009
-4.984106e-009
-2.500605e-010
4.618273e-009
7.406691e-009
7.264845e-009
5.002776e-009
2.124466e-009
-4.065753e-010
-2.541335e-009
-4.518971e-009
-6.120971e-009
-6.676590e-009
-5.754093e-009
-3.700292e-009
-1.408026e-009
4.245838e-010
1.752914e-009
2.945266e-009
4.203586e-009
5.304779e-009
5.879212e-009
5.834905e-009
5.441570e-009
5.032076e-009
4.696313e-009
4.287207e-009
3.671082e-009
2.910149e-009
2.197987e-009
1.663936e-009
1.275145e-009
9.173295e-010
5.375606e-010
1.956407e-010
-8.557569e-012
-4.024264e-011
3.868646e-011
1.361319e-010
2.264639e-010
3.802700e-010
6.893652e-010
1.155582e-009
1.666136e-009
2.102332e-009
2.474426e-009
2.915951e-009
3.511435e-009
4.142329e-009
4.555302e-009
4.611523e-009
4.430163e-009
4.220213e-009
3.963658e-009
3.341636e-009
2.057476e-009
2.311884e-010
-1.604885e-009
-2.954384e-009
-3.757169e-009
-4.261673e-009
-4.502505e-009
-4.034608e-009
-2.343247e-009
4.330708e-010
3.272847e-009
4.887494e-009
4.646356e-009
2.938264e-009
6.959958e-010
-1.331643e-009
-2.816718e-009
-3.533682e-009
-3.108696e-009
-1.334494e-009
1.243025e-009
3.268004e-009
3.412794e-009
1.499743e-009
-1.167156e-009
-2.716762e-009
-2.176082e-009
-2.247272e-010
1.432398e-009
1.528595e-009
2.594472e-010
-1.001269e-009
1.687986e-008
6.229349e-009
-6.423751e-009
-1.279536e-008
-1.002073e-008
-1.546644e-009
6.244612e-009
8.758670e-009
5.775022e-009
5.017582e-010
-3.457599e-009
-4.527026e-009
-3.374105e-009
-1.475080e-009
2.384089e-010
1.554729e-009
2.357368e-009
2.279941e-009
1.093965e-009
-7.536710e-010
-2.245509e-009
-2.550770e-009
-1.659216e-009
-2.463384e-010
1.022285e-009
1.974465e-009
2.764349e-009
3.392428e-009
3.547795e-009
2.940745e-009
1.682154e-009
2.360064e-010
-9.966268e-010
-1.981791e-009
-2.931775e-009
-3.952222e-009
-4.881894e-009
-5.476449e-009
-5.681530e-009
-5.675576e-009
-5.663313e-009
-5.678165e-009
-5.603086e-009
-5.350676e-009
-4.983149e-009
-4.653063e-009
-4.453382e-009
-4.345488e-009
-4.229113e-009
-4.066433e-009
-3.927973e-009
-3.916860e-009
-4.053173e-009
-4.242390e-009
-4.368554e-009
-4.417854e-009
-4.490788e-009
-4.671821e-009
-4.894555e-009
-4.971069e-009
-4.777355e-009
-4.386123e-009
-3.969658e-009
-3.563550e-009
-2.979653e-009
-2.011752e-009
-7.218550e-010
5.409638e-010
1.445438e-009
1.964001e-009
2.291654e-009
2.488769e-009
2.304401e-009
1.451704e-009
5.319749e-011
-1.281458e-009
-1.894833e-009
-1.594195e-009
-7.080638e-010
3.060599e-010
1.191228e-009
1.797151e-009
1.815383e-009
8.759598e-010
-9.254837e-010
-2.676546e-009
-3.092108e-009
-1.573289e-009
1.077477e-009
3.087858e-009
3.059204e-009
1.086771e-009
-1.328304e-009
-2.491812e-009
-1.805970e-009
-9.205544e-011
1.213024e-009
1.230736e-009
2.359271e-010
-7.114248e-010
1.081956e-008
3.472433e-009
-4.851378e-009
-8.180574e-009
-4.919749e-009
1.529194e-009
5.769556e-009
4.655066e-009
-4.717776e-010
-5.161367e-009
-5.572876e-009
-1.432521e-009
4.062772e-009
7.025176e-009
5.802417e-009
1.708292e-009
-2.605567e-009
-5.297989e-009
-6.132289e-009
-5.698319e-009
-4.337748e-009
-1.963051e-009
1.308247e-009
4.693646e-009
7.094244e-009
7.864501e-009
7.165154e-009
5.602328e-009
3.643882e-009
1.429825e-009
-9.703518e-010
-3.302990e-009
-5.214540e-009
-6.527628e-009
-7.340225e-009
-7.839638e-009
-8.079615e-009
-7.979943e-009
-7.508270e-009
-6.793198e-009
-6.033427e-009
-5.328287e-009
-4.634673e-009
-3.885648e-009
-3.116200e-009
-2.451188e-009
-1.982546e-009
-1.685096e-009
-1.464260e-009
-1.275367e-009
-1.177969e-009
-1.265790e-009
-1.553245e-009
-1.949533e-009
-2.354404e-009
-2.768133e-009
-3.282440e-009
-3.951770e-009
-4.692676e-009
-5.340405e-009
-5.806699e-009
-6.145909e-009
-6.432782e-009
-6.591276e-009
-6.396888e-009
-5.675120e-009
-4.466534e-009
-2.954785e-009
-1.254200e-009
6.486797e-010
2.691838e-009
4.527309e-009
5.620332e-009
5.613326e-009
4.563005e-009
2.795634e-009
6.080840e-010
-1.755940e-009
-3.820465e-009
-4.769014e-009
-3.918564e-009
-1.467779e-009
1.309396e-009
2.851538e-009
2.493074e-009
9.406614e-010
-4.319398e-010
-7.838786e-010
-3.564796e-010
4.949075e-011
-9.519799e-012
-2.837524e-010
-3.015977e-010
1.256620e-011
2.905501e-010
2.158679e-010
-8.740896e-011
-2.306877e-010
-4.914204e-011
2.089104e-010
-3.645746e-009
-2.049075e-009
2.711771e-010
2.431582e-009
3.723138e-009
3.522218e-009
1.408434e-009
-2.241018e-009
-5.754343e-009
-6.718642e-009
-3.689318e-009
2.236231e-009
7.635343e-009
9.030049e-009
5.496762e-009
-6.378731e-010
-5.652055e-009
-7.186850e-009
-5.546781e-009
-2.702792e-009
-3.071683e-010
1.330427e-009
2.669092e-009
3.816334e-009
4.216778e-009
3.344500e-009
1.436800e-009
-6.043517e-010
-1.977787e-009
-2.545697e-009
-2.672091e-009
-2.664736e-009
-2.486433e-009
-1.957366e-009
-1.084829e-009
-1.041753e-010
7.594897e-010
1.477855e-009
2.151427e-009
2.821762e-009
3.410397e-009
3.830192e-009
4.097920e-009
4.305154e-009
4.501927e-009
4.649119e-009
4.691605e-009
4.647727e-009
4.598491e-009
4.593565e-009
4.595794e-009
4.534359e-009
4.398264e-009
4.250169e-009
4.140790e-009
4.032578e-009
3.834498e-009
3.508664e-009
3.110441e-009
2.702661e-009
2.252794e-009
1.658635e-009
8.857281e-010
3.923537e-011
-7.378698e-010
-1.412866e-009
-2.041159e-009
-2.572250e-009
-2.746914e-009
-2.286559e-009
-1.205101e-009
1.399380e-010
1.360965e-009
2.345416e-009
3.137189e-009
3.519005e-009
2.904964e-009
8.898549e-010
-2.022884e-009
-4.402771e-009
-4.847662e-009
-3.108723e-009
-2.880235e-010
2.087646e-009
3.176476e-009
3.073954e-009
2.196863e-009
7.308058e-010
-1.169631e-009
-2.834113e-009
-3.158949e-009
-1.570939e-009
1.084589e-009
2.898936e-009
2.462173e-009
2.106821e-010
-1.857803e-009
-1.978478e-009
-2.501752e-010
1.496805e-009
-1.493386e-008
-5.460207e-009
5.498789e-009
1.068425e-008
8.189807e-009
1.503170e-009
-4.230986e-009
-6.092884e-009
-4.470478e-009
-1.428090e-009
1.333258e-009
3.078657e-009
3.449493e-009
2.132495e-009
-5.798384e-010
-3.250549e-009
-3.938609e-009
-1.785045e-009
2.015136e-009
5.007670e-009
5.407696e-009
3.347849e-009
3.656555e-010
-2.141694e-009
-3.868247e-009
-5.202712e-009
-6.249416e-009
-6.492690e-009
-5.390554e-009
-3.078587e-009
-3.419180e-010
2.060346e-009
3.931422e-009
5.517395e-009
7.004830e-009
8.257011e-009
9.013680e-009
9.218799e-009
9.072422e-009
8.801857e-009
8.466046e-009
7.999937e-009
7.385438e-009
6.717353e-009
6.111116e-009
5.600989e-009
5.156027e-009
4.767268e-009
4.477953e-009
4.326995e-009
4.298971e-009
4.354168e-009
4.490225e-009
4.740115e-009
5.105640e-009
5.525812e-009
5.936406e-009
6.341282e-009
6.781715e-009
7.226045e-009
7.532800e-009
7.565225e-009
7.322783e-009
6.895254e-009
6.265242e-009
5.225508e-009
3.586808e-009
1.478314e-009
-6.440234e-010
-2.356165e-009
-3.586302e-009
-4.474773e-009
-4.916999e-009
-4.416317e-009
-2.592163e-009
1.331501e-010
2.520412e-009
3.381290e-009
2.530603e-009
8.492171e-010
-5.784908e-010
-1.294732e-009
-1.436402e-009
-1.107652e-009
-1.351669e-010
1.395181e-009
2.588979e-009
2.190190e-009
-1.095972e-010
-2.883056e-009
-3.854776e-009
-1.929781e-009
1.562080e-009
3.806329e-009
2.951017e-009
-1.861469e-010
-2.814418e-009
-2.690270e-009
-1.368672e-010
2.314068e-009
-1.490740e-008
-4.045602e-009
7.543646e-009
1.104178e-008
5.292751e-009
-3.503322e-009
-7.771538e-009
-4.765843e-009
2.011347e-009
6.612704e-009
5.734674e-009
7.263188e-010
-4.466411e-009
-6.782511e-009
-5.752508e-009
-2.659329e-009
1.112776e-009
4.685694e-009
7.213111e-009
7.628413e-009
5.335316e-009
1.061715e-009
-3.327377e-009
-6.102666e-009
-6.798393e-009
-6.119049e-009
-4.903726e-009
-3.360636e-009
-1.285915e-009
1.228187e-009
3.558059e-009
5.045736e-009
5.582151e-009
5.595483e-009
5.521306e-009
5.399570e-009
4.998945e-009
4.215917e-009
3.242759e-009
2.360959e-009
1.668778e-009
1.061537e-009
4.289154e-010
-2.026261e-010
-7.258229e-010
-1.087992e-009
-1.328165e-009
-1.503480e-009
-1.626792e-009
-1.683482e-009
-1.670762e-009
-1.592078e-009
-1.432534e-009
-1.176782e-009
-8.507802e-010
-5.069402e-010
-1.463992e-010
3.121841e-010
9.401668e-010
1.680163e-009
2.375824e-009
2.952044e-009
3.517490e-009
4.207704e-009
4.916906e-009
5.270692e-009
4.945134e-009
3.986881e-009
2.722922e-009
1.336518e-009
-3.419805e-010
-2.478115e-009
-4.679142e-009
-5.974086e-009
-5.521289e-009
-3.365974e-009
-4.365732e-010
2.197081e-009
3.961600e-009
4.689103e-009
4.165035e-009
2.164781e-009
-8.869437e-010
-3.544360e-009
-4.116602e-009
-2.154264e-009
8.646227e-010
2.604076e-009
1.876227e-009
-3.250439e-010
-1.808854e-009
-1.252834e-009
6.390975e-010
1.936204e-009
1.371625e-009
-5.078976e-010
-1.938618e-009
-1.612550e-009
1.522761e-010
1.749432e-009
-4.794829e-009
4.784671e-010
5.120875e-009
4.350840e-009
-1.360833e-009
-6.822604e-009
-6.761446e-009
-5.534500e-010
7.066757e-009
9.952154e-009
5.692686e-009
-2.506150e-009
-8.684461e-009
-8.972553e-009
-4.164789e-009
1.773632e-009
5.282392e-009
5.465398e-009
3.575194e-009
1.121303e-009
-1.189221e-009
-3.064445e-009
-3.954336e-009
-3.232017e-009
-9.639619e-010
1.846770e-009
3.977958e-009
4.895923e-009
4.889568e-009
4.428310e-009
3.595722e-009
2.206639e-009
3.066646e-010
-1.655471e-009
-3.189357e-009
-4.182264e-009
-4.881028e-009
-5.515165e-009
-6.040380e-009
-6.262717e-009
-6.121891e-009
-5.774664e-009
-5.421510e-009
-5.124623e-009
-4.818728e-009
-4.450569e-009
-4.058237e-009
-3.725747e-009
-3.506331e-009
-3.403571e-009
-3.394944e-009
-3.447784e-009
-3.531345e-009
-3.646989e-009
-3.841805e-009
-4.153379e-009
-4.526413e-009
-4.821588e-009
-4.947116e-009
-4.961239e-009
-4.981147e-009
-4.970235e-009
-4.678760e-009
-3.870634e-009
-2.600078e-009
-1.183365e-009
1.359795e-010
1.410390e-009
2.771321e-009
4.007681e-009
4.513188e-009
3.787332e-009
1.977422e-009
-1.671251e-010
-1.881443e-009
-2.824475e-009
-2.922391e-009
-2.008894e-009
3.327430e-011
2.651998e-009
4.419923e-009
3.907543e-009
1.036745e-009
-2.503441e-009
-4.437446e-009
-3.696799e-009
-1.149834e-009
1.336789e-009
2.456812e-009
2.165135e-009
1.163238e-009
6.704938e-011
-8.348201e-010
-1.313901e-009
-1.119254e-009
-3.081430e-010
5.485471e-010
7.757176e-010
2.798325e-010
-3.117400e-010
7.204291e-009
3.874364e-009
-6.078655e-010
-4.131136e-009
-5.495733e-009
-4.391267e-009
-1.192189e-009
2.851797e-009
5.578484e-009
4.962901e-009
9.339655e-010
-3.852207e-009
-5.676356e-009
-2.864512e-009
2.506923e-009
6.164122e-009
5.192952e-009
3.414093e-010
-4.928469e-009
-7.452827e-009
-6.506968e-009
-3.454869e-009
6.325067e-011
3.293607e-009
6.061760e-009
7.977312e-009
8.379034e-009
7.009607e-009
4.434446e-009
1.628338e-009
-7.721304e-010
-2.715636e-009
-4.347133e-009
-5.589144e-009
-6.196038e-009
-6.105219e-009
-5.571406e-009
-4.922224e-009
-4.268068e-009
-3.508900e-009
-2.574110e-009
-1.570650e-009
-6.851556e-010
-2.685473e-012
5.350390e-010
1.018115e-009
1.461359e-009
1.808018e-009
2.001972e-009
2.037657e-009
1.958423e-009
1.824423e-009
1.667541e-009
1.454544e-009
1.103626e-009
5.689768e-010
-8.695897e-011
-7.416690e-010
-1.356986e-009
-2.041777e-009
-2.913784e-009
-3.896088e-009
-4.711873e-009
-5.122235e-009
-5.123771e-009
-4.835383e-009
-4.204493e-009
-2.948787e-009
-8.923391e-010
1.672214e-009
4.063012e-009
5.673409e-009
6.272749e-009
5.824232e-009
4.199046e-009
1.369260e-009
-2.020750e-009
-4.533787e-009
-4.797895e-009
-2.707802e-009
2.952193e-010
2.307708e-009
2.412628e-009
1.115441e-009
-4.566797e-010
-1.523249e-009
-1.813513e-009
-1.182791e-009
3.855188e-010
2.245779e-009
2.998485e-009
1.565441e-009
-1.411279e-009
-3.594793e-009
-2.920828e-009
2.387835e-010
3.102374e-009
3.018055e-009
1.057100e-010
-2.761435e-009
1.333458e-008
3.451602e-009
-6.722620e-009
-9.338794e-009
-4.117603e-009
2.983901e-009
5.932816e-009
3.437191e-009
-1.332097e-009
-4.500767e-009
-4.480085e-009
-1.982167e-009
1.578435e-009
4.940945e-009
6.727650e-009
5.509701e-009
1.001566e-009
-4.866595e-009
-8.731551e-009
-8.237740e-009
-3.899772e-009
1.457733e-009
5.071687e-009
6.082507e-009
5.345003e-009
3.949299e-009
2.257762e-009
2.231682e-010
-1.852388e-009
-3.237493e-009
-3.407552e-009
-2.524712e-009
-1.193829e-009
1.377026e-010
1.426629e-009
2.765055e-009
4.056101e-009
5.043442e-009
5.581775e-009
5.763047e-009
5.764406e-009
5.646207e-009
5.343220e-009
4.815519e-009
4.148328e-009
3.495636e-009
2.960111e-009
2.546863e-009
2.217478e-009
1.968271e-009
1.856225e-009
1.955637e-009
2.283864e-009
2.763465e-009
3.269902e-009
3.733595e-009
4.185070e-009
4.669458e-009
5.113514e-009
5.319588e-009
5.128421e-009
4.565187e-009
3.770848e-009
2.793523e-009
1.533661e-009
-3.333482e-011
-1.622766e-009
-2.739700e-009
-3.050525e-009
-2.581113e-009
-1.498966e-009
1.728487e-010
2.400782e-009
4.642854e-009
5.744943e-009
4.686716e-009
1.595374e-009
-2.081438e-009
-4.569161e-009
-4.983019e-009
-3.612670e-009
-1.254925e-009
1.375375e-009
3.511861e-009
4.101351e-009
2.411069e-009
-8.351762e-010
-3.338019e-009
-2.959273e-009
6.659289e-011
2.924682e-009
2.742501e-009
-4.512030e-010
-3.498673e-009
-3.170500e-009
4.647131e-010
3.910299e-009
3.676071e-009
-1.479684e-010
-3.877911e-009
1.161949e-008
3.015479e-010
-9.885751e-009
-9.374216e-009
4.358713e-010
9.720629e-009
9.999874e-009
1.554298e-009
-7.853514e-009
-1.062307e-008
-5.591901e-009
2.283954e-009
7.189142e-009
6.970114e-009
3.353129e-009
-8.134347e-010
-3.745761e-009
-4.767709e-009
-3.551675e-009
-2.409143e-010
3.833082e-009
6.375210e-009
5.698056e-009
2.155279e-009
-2.149501e-009
-5.113520e-009
-6.051905e-009
-5.543816e-009
-4.282010e-009
-2.382116e-009
2.651306e-010
3.341094e-009
6.073011e-009
7.819354e-009
8.505475e-009
8.440999e-009
7.841920e-009
6.645404e-009
4.739065e-009
2.224037e-009
-6.155549e-010
-3.542147e-009
-6.484543e-009
-9.435087e-009
-1.229497e-008
-1.486204e-008
-1.695261e-008
-1.849946e-008
-1.952371e-008
-2.003163e-008
-1.995989e-008
-1.922841e-008
-1.784108e-008
-1.592045e-008
-1.362925e-008
-1.106048e-008
-8.229121e-009
-5.187592e-009
-2.123899e-009
7.027560e-010
3.131444e-009
5.151694e-009
6.741512e-009
7.695154e-009
7.712929e-009
6.702846e-009
4.921887e-009
2.744700e-009
3.568524e-010
-2.161044e-009
-4.401403e-009
-5.481981e-009
-4.621161e-009
-1.978222e-009
1.197743e-009
3.408195e-009
3.915349e-009
2.927303e-009
1.005075e-009
-1.341985e-009
-3.366232e-009
-3.838601e-009
-1.817324e-009
1.994076e-009
5.022728e-009
4.687871e-009
9.159957e-010
-3.361031e-009
-4.662788e-009
-2.180874e-009
1.485357e-009
2.915386e-009
1.185683e-009
-1.433321e-009
-2.011040e-009
-7.992783e-012
2.291864e-009
2.292254e-009
-1.618809e-010
-2.633520e-009
5.216697e-009
-2.258178e-009
-7.980063e-009
-5.289976e-009
3.599716e-009
1.013741e-008
7.921077e-009
-1.174619e-009
-8.951872e-009
-8.715887e-009
-1.293319e-009
6.268952e-009
7.521800e-009
2.134772e-009
-4.707583e-009
-7.526710e-009
-4.913979e-009
5.224416e-010
5.311351e-009
7.639033e-009
7.385717e-009
4.958128e-009
8.899803e-010
-3.657480e-009
-6.854429e-009
-7.260909e-009
-4.950651e-009
-1.380825e-009
1.879711e-009
4.188806e-009
5.687985e-009
6.463766e-009
6.141986e-009
4.284755e-009
9.287529e-010
-3.443959e-009
-8.403932e-009
-1.389639e-008
-2.005830e-008
-2.684517e-008
-3.393538e-008
-4.096011e-008
-4.772210e-008
-5.415474e-008
-6.013173e-008
-6.539138e-008
-6.965379e-008
-7.276652e-008
-7.470647e-008
-7.545993e-008
-7.494502e-008
-7.307512e-008
-6.988285e-008
-6.554853e-008
-6.029368e-008
-5.427115e-008
-4.759534e-008
-4.047457e-008
-3.325244e-008
-2.625988e-008
-1.963973e-008
-1.338773e-008
-7.595176e-009
-2.580627e-009
1.306595e-009
3.989668e-009
5.645646e-009
6.325979e-009
5.727062e-009
3.553185e-009
1.749449e-010
-3.219172e-009
-5.299416e-009
-5.448009e-009
-3.914640e-009
-1.283606e-009
1.886113e-009
4.767779e-009
6.006222e-009
4.443767e-009
5.049637e-010
-3.398291e-009
-4.480884e-009
-2.040853e-009
1.720263e-009
3.583689e-009
2.185380e-009
-9.272420e-010
-2.971769e-009
-2.500468e-009
-3.662238e-010
1.496340e-009
1.894847e-009
1.054790e-009
-5.988256e-011
-7.120406e-010
-7.473918e-010
-3.819542e-010
8.400262e-011
3.939059e-010
-1.886247e-009
-2.121660e-009
-1.438817e-009
6.890822e-010
3.040482e-009
3.386484e-009
7.493005e-010
-2.979582e-009
-4.182554e-009
-9.668183e-010
4.359585e-009
6.781555e-009
3.206027e-009
-4.189866e-009
-9.486075e-009
-8.219136e-009
-1.274972e-009
6.157300e-009
9.215469e-009
6.973128e-009
2.090437e-009
-2.184258e-009
-4.277143e-009
-4.199173e-009
-2.352018e-009
9.045437e-010
4.758113e-009
7.752270e-009
8.541873e-009
6.788538e-009
3.118447e-009
-1.775305e-009
-7.819471e-009
-1.536278e-008
-2.454021e-008
-3.504957e-008
-4.651844e-008
-5.888413e-008
-7.229317e-008
-8.669793e-008
-1.016719e-007
-1.166239e-007
-1.310966e-007
-1.448013e-007
-1.574248e-007
-1.685101e-007
-1.775641e-007
-1.842404e-007
-1.883730e-007
-1.898533e-007
-1.885424e-007
-1.843455e-007
-1.773522e-007
-1.678562e-007
-1.562277e-007
-1.428105e-007
-1.279880e-007
-1.123170e-007
-9.649865e-008
-8.114332e-008
-6.657804e-008
-5.294114e-008
-4.044518e-008
-2.943175e-008
-2.009004e-008
-1.220714e-008
-5.380749e-009
4.397450e-010
4.728201e-009
6.834992e-009
6.661856e-009
4.799295e-009
2.049445e-009
-9.446746e-010
-3.464321e-009
-4.402742e-009
-2.776272e-009
1.080206e-009
5.023478e-009
6.367485e-009
4.067763e-009
-2.870301e-010
-3.763563e-009
-4.429343e-009
-2.556489e-009
1.267761e-010
1.969817e-009
2.238401e-009
1.070730e-009
-7.314275e-010
-1.883449e-009
-1.294719e-009
8.146842e-010
2.603105e-009
2.078330e-009
-7.205471e-010
-3.291369e-009
-2.959823e-009
2.504814e-010
3.363478e-009
-7.763562e-009
-1.319629e-010
6.657674e-009
6.345894e-009
7.707995e-011
-5.938491e-009
-6.774234e-009
-2.553107e-009
2.990289e-009
6.250805e-009
5.853615e-009
2.381251e-009
-2.438242e-009
-6.085936e-009
-6.078401e-009
-1.827221e-009
4.079848e-009
7.264387e-009
5.089566e-009
-9.155069e-010
-6.272148e-009
-7.281623e-009
-3.672550e-009
2.000638e-009
6.925289e-009
9.747399e-009
1.027796e-008
8.416693e-009
3.863727e-009
-3.360645e-009
-1.269059e-008
-2.358967e-008
-3.622050e-008
-5.136168e-008
-6.970228e-008
-9.135712e-008
-1.160422e-007
-1.434941e-007
-1.735278e-007
-2.057158e-007
-2.391750e-007
-2.727534e-007
-3.053816e-007
-3.361926e-007
-3.643636e-007
-3.889776e-007
-4.091142e-007
-4.240502e-007
-4.333226e-007
-4.366191e-007
-4.336937e-007
-4.244500e-007
-4.090866e-007
-3.881071e-007
-3.621844e-007
-3.320760e-007
-2.987178e-007
-2.633452e-007
-2.273943e-007
-1.921927e-007
-1.587464e-007
-1.278344e-007
-1.002087e-007
-7.651375e-008
-5.691194e-008
-4.088032e-008
-2.755203e-008
-1.632848e-008
-7.116910e-009
-1.006348e-011
5.045916e-009
8.083772e-009
8.775214e-009
6.715472e-009
2.383806e-009
-2.305904e-009
-4.871756e-009
-4.048207e-009
-7.854980e-010
2.559904e-009
4.008922e-009
3.049907e-009
4.400916e-010
-2.466363e-009
-4.121787e-009
-3.272245e-009
1.165624e-011
3.627687e-009
4.579665e-009
1.734715e-009
-2.512176e-009
-4.092216e-009
-1.381076e-009
2.771444e-009
3.791710e-009
3.503685e-010
-3.932531e-009
-4.263345e-009
1.575776e-011
4.525267e-009
-1.182716e-008
1.356740e-009
1.216192e-008
9.684415e-009
-2.525476e-009
-1.181038e-008
-9.782292e-009
3.256813e-010
8.480333e-009
8.165490e-009
1.426995e-009
-4.871096e-009
-5.971868e-009
-2.276297e-009
2.760364e-009
6.015970e-009
6.060969e-009
2.856901e-009
-2.366133e-009
-6.972323e-009
-7.912573e-009
-3.943711e-009
2.975545e-009
8.881402e-009