# vtk DataFile Version 3.0
vtk output
ASCII
DATASET STRUCTURED_POINTS
DIMENSIONS 100 100 1
SPACING 1 1 1
ORIGIN 0 0 0
POINT_DATA 10000
SCALARS SFBox_profile double
LOOKUP_TABLE default 
9.439923e-003
9.439921e-003
9.439920e-003
9.439918e-003
9.439917e-003
9.439918e-003
9.439920e-003
9.439922e-003
9.439924e-003
9.439923e-003
9.439920e-003
9.439918e-003
9.439916e-003
9.439917e-003
9.439919e-003
9.439921e-003
9.439922e-003
9.439922e-003
9.439921e-003
9.439920e-003
9.439921e-003
9.439922e-003
9.439922e-003
9.439921e-003
9.439919e-003
9.439918e-003
9.439918e-003
9.439918e-003
9.439919e-003
9.439919e-003
9.439918e-003
9.439918e-003
9.439919e-003
9.439921e-003
9.439922e-003
9.439922e-003
9.439922e-003
9.439922e-003
9.439923e-003
9.439924e-003
9.439924e-003
9.439925e-003
9.439925e-003
9.439924e-003
9.439924e-003
9.439925e-003
9.439925e-003
9.439925e-003
9.439925e-003
9.439925e-003
9.439925e-003
9.439925e-003
9.439925e-003
9.439926e-003
9.439925e-003
9.439925e-003
9.439924e-003
9.439925e-003
9.439925e-003
9.439925e-003
9.439925e-003
9.439924e-003
9.439923e-003
9.439923e-003
9.439924e-003
9.439924e-003
9.439923e-003
9.439921e-003
9.439920e-003
9.439920e-003
9.439921e-003
9.439921e-003
9.439920e-003
9.439918e-003
9.439918e-003
9.439918e-003
9.439920e-003
9.439921e-003
9.439921e-003
9.439920e-003
9.439920e-003
9.439920e-003
9.439921e-003
9.439922e-003
9.439922e-003
9.439920e-003
9.439918e-003
9.439918e-003
9.439918e-003
9.439920e-003
9.439921e-003
9.439922e-003
9.439921e-003
9.439920e-003
9.439920e-003
9.439919e-003
9.439920e-003
9.439920e-003
9.439920e-003
9.439920e-003
9.439923e-003
9.439921e-003
9.439920e-003
9.439918e-003
9.439917e-003
9.439918e-003
9.439920e-003
9.439922e-003
9.439924e-003
9.439923e-003
9.439920e-003
9.439918e-003
9.439916e-003
9.439917e-003
9.439919e-003
9.439921e-003
9.439922e-003
9.439922e-003
9.439921e-003
9.439920e-003
9.439921e-003
9.439922e-003
9.439922e-003
9.439921e-003
9.439919e-003
9.439918e-003
9.439918e-003
9.439918e-003
9.439919e-003
9.439919e-003
9.439918e-003
9.439918e-003
9.439919e-003
9.439921e-003
9.439922e-003
9.439922e-003
9.439922e-003
9.439922e-003
9.439923e-003
9.439924e-003
9.439924e-003
9.439925e-003
9.439925e-003
9.439924e-003
9.439924e-003
9.439925e-003
9.439925e-003
9.439925e-003
9.439925e-003
9.439925e-003
9.439925e-003
9.439925e-003
9.439925e-003
9.439926e-003
9.439925e-003
9.439925e-003
9.439924e-003
9.439925e-003
9.439925e-003
9.439925e-003
9.439925e-003
9.439924e-003
9.439923e-003
9.439923e-003
9.439924e-003
9.439924e-003
9.439923e-003
9.439921e-003
9.439920e-003
9.439920e-003
9.439921e-003
9.439921e-003
9.439920e-003
9.439918e-003
9.439918e-003
9.439918e-003
9.439920e-003
9.439921e-003
9.439921e-003
9.439920e-003
9.439920e-003
9.439920e-003
9.439921e-003
9.439922e-003
9.439922e-003
9.439920e-003
9.439918e-003
9.439918e-003
9.439918e-003
9.439920e-003
9.439921e-003
9.439922e-003
9.439921e-003
9.439920e-003
9.439920e-003
9.439919e-003
9.439920e-003
9.439920e-003
9.439920e-003
9.439920e-003
9.439921e-003
9.439921e-003
9.439920e-003
9.439920e-003
9.439919e-003
9.439919e-003
9.439919e-003
9.439920e-003
9.439921e-003
9.439921e-003
9.439921e-003
9.439920e-003
9.439919e-003
9.439919e-003
9.439920e-003
9.439921e-003
9.439921e-003
9.439920e-003
9.439919e-003
9.439919e-003
9.439920e-003
9.439921e-003
9.439921e-003
9.439921e-003
9.439920e-003
9.439920e-003
9.439920e-003
9.439921e-003
9.439921e-003
9.439922e-003
9.439921e-003
9.439921e-003
9.439921e-003
9.439922e-003
9.439923e-003
9.439923e-003
9.439923e-003
9.439922e-003
9.439923e-003
9.439923e-003
9.439924e-003
9.439924e-003
9.439924e-003
9.439924e-003
9.439925e-003
9.439925e-003
9.439926e-003
9.439926e-003
9.439926e-003
9.439926e-003
9.439926e-003
9.439926e-003
9.439926e-003
9.439926e-003
9.439926e-003
9.439925e-003
9.439925e-003
9.439925e-003
9.439925e-003
9.439925e-003
9.439924e-003
9.439923e-003
9.439923e-003
9.439923e-003
9.439923e-003
9.439923e-003
9.439922e-003
9.439921e-003
9.439921e-003
9.439921e-003
9.439922e-003
9.439922e-003
9.439921e-003
9.439920e-003
9.439920e-003
9.439920e-003
9.439921e-003
9.439921e-003
9.439921e-003
9.439920e-003
9.439919e-003
9.439919e-003
9.439920e-003
9.439921e-003
9.439921e-003
9.439920e-003
9.439919e-003
9.439919e-003
9.439920e-003
9.439920e-003
9.439921e-003
9.439921e-003
9.439920e-003
9.439920e-003
9.439920e-003
9.439920e-003
9.439920e-003
9.439920e-003
9.439920e-003
9.439920e-003
9.439918e-003
9.439919e-003
9.439921e-003
9.439922e-003
9.439922e-003
9.439921e-003
9.439919e-003
9.439918e-003
9.439918e-003
9.439919e-003
9.439920e-003
9.439922e-003
9.439922e-003
9.439922e-003
9.439921e-003
9.439920e-003
9.439919e-003
9.439919e-003
9.439919e-003
9.439918e-003
9.439918e-003
9.439919e-003
9.439919e-003
9.439920e-003
9.439921e-003
9.439922e-003
9.439923e-003
9.439923e-003
9.439924e-003
9.439924e-003
9.439924e-003
9.439924e-003
9.439924e-003
9.439924e-003
9.439924e-003
9.439924e-003
9.439924e-003
9.439924e-003
9.439925e-003
9.439925e-003
9.439926e-003
9.439926e-003
9.439927e-003
9.439927e-003
9.439927e-003
9.439928e-003
9.439929e-003
9.439929e-003
9.439929e-003
9.439929e-003
9.439929e-003
9.439929e-003
9.439930e-003
9.439929e-003
9.439929e-003
9.439929e-003
9.439928e-003
9.439928e-003
9.439928e-003
9.439927e-003
9.439926e-003
9.439925e-003
9.439925e-003
9.439924e-003
9.439924e-003
9.439924e-003
9.439923e-003
9.439923e-003
9.439923e-003
9.439923e-003
9.439923e-003
9.439923e-003
9.439923e-003
9.439922e-003
9.439922e-003
9.439922e-003
9.439921e-003
9.439921e-003
9.439920e-003
9.439920e-003
9.439919e-003
9.439919e-003
9.439919e-003
9.439919e-003
9.439919e-003
9.439920e-003
9.439921e-003
9.439921e-003
9.439921e-003
9.439921e-003
9.439920e-003
9.439919e-003
9.439919e-003
9.439919e-003
9.439920e-003
9.439920e-003
9.439920e-003
9.439920e-003
9.439920e-003
9.439920e-003
9.439916e-003
9.439918e-003
9.439921e-003
9.439923e-003
9.439923e-003
9.439922e-003
9.439920e-003
9.439917e-003
9.439916e-003
9.439917e-003
9.439920e-003
9.439923e-003
9.439924e-003
9.439923e-003
9.439921e-003
9.439919e-003
9.439919e-003
9.439919e-003
9.439919e-003
9.439919e-003
9.439919e-003
9.439918e-003
9.439919e-003
9.439920e-003
9.439922e-003
9.439923e-003
9.439924e-003
9.439924e-003
9.439924e-003
9.439925e-003
9.439926e-003
9.439927e-003
9.439927e-003
9.439927e-003
9.439928e-003
9.439928e-003
9.439929e-003
9.439930e-003
9.439931e-003
9.439931e-003
9.439932e-003
9.439933e-003
9.439934e-003
9.439934e-003
9.439935e-003
9.439935e-003
9.439936e-003
9.439936e-003
9.439936e-003
9.439937e-003
9.439937e-003
9.439937e-003
9.439937e-003
9.439937e-003
9.439936e-003
9.439936e-003
9.439936e-003
9.439935e-003
9.439934e-003
9.439933e-003
9.439933e-003
9.439932e-003
9.439931e-003
9.439930e-003
9.439929e-003
9.439928e-003
9.439927e-003
9.439927e-003
9.439926e-003
9.439926e-003
9.439925e-003
9.439924e-003
9.439924e-003
9.439924e-003
9.439923e-003
9.439923e-003
9.439921e-003
9.439920e-003
9.439920e-003
9.439920e-003
9.439920e-003
9.439920e-003
9.439919e-003
9.439918e-003
9.439918e-003
9.439920e-003
9.439921e-003
9.439922e-003
9.439922e-003
9.439921e-003
9.439919e-003
9.439918e-003
9.439919e-003
9.439920e-003
9.439920e-003
9.439921e-003
9.439921e-003
9.439920e-003
9.439920e-003
9.439919e-003
9.439917e-003
9.439918e-003
9.439920e-003
9.439922e-003
9.439923e-003
9.439923e-003
9.439921e-003
9.439919e-003
9.439917e-003
9.439917e-003
9.439919e-003
9.439921e-003
9.439923e-003
9.439922e-003
9.439920e-003
9.439919e-003
9.439919e-003
9.439920e-003
9.439922e-003
9.439922e-003
9.439921e-003
9.439920e-003
9.439920e-003
9.439921e-003
9.439923e-003
9.439924e-003
9.439924e-003
9.439924e-003
9.439924e-003
9.439926e-003
9.439928e-003
9.439929e-003
9.439930e-003
9.439931e-003
9.439933e-003
9.439935e-003
9.439937e-003
9.439938e-003
9.439940e-003
9.439940e-003
9.439941e-003
9.439942e-003
9.439943e-003
9.439944e-003
9.439945e-003
9.439945e-003
9.439945e-003
9.439946e-003
9.439946e-003
9.439946e-003
9.439946e-003
9.439946e-003
9.439946e-003
9.439945e-003
9.439945e-003
9.439945e-003
9.439945e-003
9.439944e-003
9.439943e-003
9.439942e-003
9.439942e-003
9.439941e-003
9.439940e-003
9.439939e-003
9.439937e-003
9.439935e-003
9.439934e-003
9.439933e-003
9.439931e-003
9.439930e-003
9.439927e-003
9.439925e-003
9.439924e-003
9.439924e-003
9.439924e-003
9.439923e-003
9.439921e-003
9.439920e-003
9.439920e-003
9.439921e-003
9.439922e-003
9.439921e-003
9.439920e-003
9.439919e-003
9.439919e-003
9.439920e-003
9.439921e-003
9.439922e-003
9.439921e-003
9.439920e-003
9.439919e-003
9.439918e-003
9.439919e-003
9.439920e-003
9.439921e-003
9.439921e-003
9.439921e-003
9.439920e-003
9.439920e-003
9.439919e-003
9.439920e-003
9.439919e-003
9.439919e-003
9.439919e-003
9.439920e-003
9.439921e-003
9.439922e-003
9.439921e-003
9.439920e-003
9.439919e-003
9.439919e-003
9.439919e-003
9.439920e-003
9.439920e-003
9.439919e-003
9.439918e-003
9.439919e-003
9.439921e-003
9.439923e-003
9.439924e-003
9.439923e-003
9.439922e-003
9.439922e-003
9.439923e-003
9.439925e-003
9.439925e-003
9.439926e-003
9.439926e-003
9.439926e-003
9.439929e-003
9.439932e-003
9.439934e-003
9.439937e-003
9.439938e-003
9.439940e-003
9.439942e-003
9.439945e-003
9.439947e-003
9.439948e-003
9.439948e-003
9.439948e-003
9.439949e-003
9.439949e-003
9.439949e-003
9.439949e-003
9.439948e-003
9.439948e-003
9.439947e-003
9.439947e-003
9.439946e-003
9.439946e-003
9.439946e-003
9.439945e-003
9.439945e-003
9.439945e-003
9.439945e-003
9.439945e-003
9.439945e-003
9.439945e-003
9.439945e-003
9.439945e-003
9.439946e-003
9.439946e-003
9.439945e-003
9.439944e-003
9.439942e-003
9.439941e-003
9.439940e-003
9.439938e-003
9.439935e-003
9.439932e-003
9.439929e-003
9.439927e-003
9.439926e-003
9.439926e-003
9.439924e-003
9.439922e-003
9.439921e-003
9.439921e-003
9.439922e-003
9.439923e-003
9.439923e-003
9.439922e-003
9.439920e-003
9.439920e-003
9.439920e-003
9.439920e-003
9.439920e-003
9.439920e-003
9.439919e-003
9.439919e-003
9.439920e-003
9.439920e-003
9.439921e-003
9.439921e-003
9.439920e-003
9.439920e-003
9.439920e-003
9.439920e-003
9.439920e-003
9.439924e-003
9.439922e-003
9.439919e-003
9.439917e-003
9.439917e-003
9.439919e-003
9.439921e-003
9.439923e-003
9.439923e-003
9.439922e-003
9.439920e-003
9.439918e-003
9.439918e-003
9.439918e-003
9.439919e-003
9.439919e-003
9.439920e-003
9.439921e-003
9.439923e-003
9.439924e-003
9.439925e-003
9.439925e-003
9.439925e-003
9.439926e-003
9.439928e-003
9.439930e-003
9.439931e-003
9.439932e-003
9.439934e-003
9.439937e-003
9.439940e-003
9.439943e-003
9.439945e-003
9.439945e-003
9.439946e-003
9.439946e-003
9.439946e-003
9.439946e-003
9.439944e-003
9.439941e-003
9.439938e-003
9.439935e-003
9.439932e-003
9.439929e-003
9.439925e-003
9.439921e-003
9.439918e-003
9.439915e-003
9.439912e-003
9.439910e-003
9.439909e-003
9.439907e-003
9.439906e-003
9.439906e-003
9.439907e-003
9.439909e-003
9.439912e-003
9.439914e-003
9.439917e-003
9.439921e-003
9.439925e-003
9.439930e-003
9.439934e-003
9.439937e-003
9.439939e-003
9.439940e-003
9.439942e-003
9.439943e-003
9.439943e-003
9.439941e-003
9.439938e-003
9.439936e-003
9.439934e-003
9.439932e-003
9.439930e-003
9.439928e-003
9.439926e-003
9.439924e-003
9.439923e-003
9.439923e-003
9.439923e-003
9.439923e-003
9.439922e-003
9.439921e-003
9.439920e-003
9.439920e-003
9.439919e-003
9.439919e-003
9.439919e-003
9.439919e-003
9.439920e-003
9.439921e-003
9.439921e-003
9.439921e-003
9.439920e-003
9.439919e-003
9.439919e-003
9.439919e-003
9.439920e-003
9.439921e-003
9.439926e-003
9.439923e-003
9.439920e-003
9.439917e-003
9.439916e-003
9.439917e-003
9.439920e-003
9.439923e-003
9.439924e-003
9.439923e-003
9.439921e-003
9.439919e-003
9.439918e-003
9.439919e-003
9.439920e-003
9.439921e-003
9.439921e-003
9.439921e-003
9.439922e-003
9.439923e-003
9.439925e-003
9.439927e-003
9.439929e-003
9.439931e-003
9.439934e-003
9.439937e-003
9.439940e-003
9.439943e-003
9.439945e-003
9.439947e-003
9.439948e-003
9.439948e-003
9.439946e-003
9.439942e-003
9.439936e-003
9.439929e-003
9.439920e-003
9.439910e-003
9.439898e-003
9.439885e-003
9.439871e-003
9.439857e-003
9.439844e-003
9.439830e-003
9.439816e-003
9.439803e-003
9.439791e-003
9.439780e-003
9.439771e-003
9.439764e-003
9.439759e-003
9.439755e-003
9.439754e-003
9.439755e-003
9.439759e-003
9.439766e-003
9.439776e-003
9.439787e-003
9.439800e-003
9.439815e-003
9.439831e-003
9.439848e-003
9.439866e-003
9.439881e-003
9.439896e-003
9.439909e-003
9.439920e-003
9.439930e-003
9.439937e-003
9.439940e-003
9.439942e-003
9.439942e-003
9.439942e-003
9.439940e-003
9.439937e-003
9.439934e-003
9.439931e-003
9.439929e-003
9.439927e-003
9.439925e-003
9.439923e-003
9.439922e-003
9.439921e-003
9.439921e-003
9.439921e-003
9.439921e-003
9.439920e-003
9.439919e-003
9.439919e-003
9.439920e-003
9.439921e-003
9.439922e-003
9.439922e-003
9.439920e-003
9.439919e-003
9.439918e-003
9.439919e-003
9.439920e-003
9.439921e-003
9.439921e-003
9.439924e-003
9.439923e-003
9.439921e-003
9.439919e-003
9.439917e-003
9.439917e-003
9.439918e-003
9.439920e-003
9.439922e-003
9.439922e-003
9.439921e-003
9.439919e-003
9.439920e-003
9.439921e-003
9.439923e-003
9.439924e-003
9.439923e-003
9.439922e-003
9.439922e-003
9.439924e-003
9.439927e-003
9.439931e-003
9.439934e-003
9.439937e-003
9.439941e-003
9.439945e-003
9.439949e-003
9.439951e-003
9.439950e-003
9.439946e-003
9.439939e-003
9.439928e-003
9.439913e-003
9.439893e-003
9.439868e-003
9.439840e-003
9.439807e-003
9.439771e-003
9.439731e-003
9.439690e-003
9.439647e-003
9.439603e-003
9.439560e-003
9.439518e-003
9.439477e-003
9.439439e-003
9.439404e-003
9.439374e-003
9.439348e-003
9.439327e-003
9.439313e-003
9.439304e-003
9.439302e-003
9.439307e-003
9.439320e-003
9.439341e-003
9.439369e-003
9.439403e-003
9.439443e-003
9.439489e-003
9.439538e-003
9.439590e-003
9.439643e-003
9.439694e-003
9.439743e-003
9.439788e-003
9.439828e-003
9.439862e-003
9.439889e-003
9.439911e-003
9.439926e-003
9.439936e-003
9.439942e-003
9.439944e-003
9.439943e-003
9.439941e-003
9.439938e-003
9.439935e-003
9.439932e-003
9.439928e-003
9.439924e-003
9.439922e-003
9.439921e-003
9.439922e-003
9.439922e-003
9.439922e-003
9.439921e-003
9.439920e-003
9.439920e-003
9.439920e-003
9.439921e-003
9.439921e-003
9.439921e-003
9.439919e-003
9.439919e-003
9.439919e-003
9.439919e-003
9.439920e-003
9.439921e-003
9.439921e-003
9.439918e-003
9.439920e-003
9.439922e-003
9.439922e-003
9.439921e-003
9.439919e-003
9.439918e-003
9.439918e-003
9.439919e-003
9.439920e-003
9.439920e-003
9.439920e-003
9.439921e-003
9.439923e-003
9.439925e-003
9.439926e-003
9.439926e-003
9.439925e-003
9.439925e-003
9.439928e-003
9.439933e-003
9.439938e-003
9.439942e-003
9.439945e-003
9.439947e-003
9.439948e-003
9.439946e-003
9.439939e-003
9.439925e-003
9.439903e-003
9.439871e-003
9.439829e-003
9.439778e-003
9.439714e-003
9.439639e-003
9.439554e-003
9.439459e-003
9.439356e-003
9.439247e-003
9.439133e-003
9.439016e-003
9.438899e-003
9.438784e-003
9.438673e-003
9.438568e-003
9.438470e-003
9.438381e-003
9.438302e-003
9.438237e-003
9.438185e-003
9.438148e-003
9.438128e-003
9.438125e-003
9.438140e-003
9.438175e-003
9.438229e-003
9.438301e-003
9.438391e-003
9.438497e-003
9.438617e-003
9.438748e-003
9.438886e-003
9.439027e-003
9.439167e-003
9.439302e-003
9.439428e-003
9.439542e-003
9.439642e-003
9.439725e-003
9.439794e-003
9.439847e-003
9.439887e-003
9.439914e-003
9.439930e-003
9.439939e-003
9.439942e-003
9.439942e-003
9.439941e-003
9.439938e-003
9.439933e-003
9.439928e-003
9.439925e-003
9.439924e-003
9.439924e-003
9.439924e-003
9.439923e-003
9.439922e-003
9.439921e-003
9.439920e-003
9.439921e-003
9.439921e-003
9.439920e-003
9.439919e-003
9.439919e-003
9.439919e-003
9.439920e-003
9.439921e-003
9.439921e-003
9.439920e-003
9.439920e-003
9.439913e-003
9.439917e-003
9.439921e-003
9.439924e-003
9.439925e-003
9.439922e-003
9.439919e-003
9.439918e-003
9.439918e-003
9.439919e-003
9.439920e-003
9.439920e-003
9.439921e-003
9.439923e-003
9.439925e-003
9.439927e-003
9.439929e-003
9.439930e-003
9.439933e-003
9.439937e-003
9.439943e-003
9.439948e-003
9.439950e-003
9.439949e-003
9.439943e-003
9.439931e-003
9.439909e-003
9.439873e-003
9.439820e-003
9.439746e-003
9.439649e-003
9.439528e-003
9.439381e-003
9.439208e-003
9.439008e-003
9.438783e-003
9.438538e-003
9.438275e-003
9.438000e-003
9.437717e-003
9.437430e-003
9.437144e-003
9.436866e-003
9.436598e-003
9.436346e-003
9.436114e-003
9.435903e-003
9.435720e-003
9.435566e-003
9.435446e-003
9.435361e-003
9.435315e-003
9.435310e-003
9.435348e-003
9.435432e-003
9.435560e-003
9.435733e-003
9.435948e-003
9.436203e-003
9.436492e-003
9.436809e-003
9.437145e-003
9.437490e-003
9.437836e-003
9.438174e-003
9.438493e-003
9.438786e-003
9.439045e-003
9.439268e-003
9.439455e-003
9.439605e-003
9.439722e-003
9.439807e-003
9.439865e-003
9.439902e-003
9.439925e-003
9.439938e-003
9.439943e-003
9.439943e-003
9.439940e-003
9.439935e-003
9.439931e-003
9.439928e-003
9.439927e-003
9.439925e-003
9.439924e-003
9.439922e-003
9.439921e-003
9.439921e-003
9.439921e-003
9.439920e-003
9.439919e-003
9.439919e-003
9.439919e-003
9.439920e-003
9.439921e-003
9.439922e-003
9.439921e-003
9.439919e-003
9.439918e-003
9.439912e-003
9.439916e-003
9.439920e-003
9.439924e-003
9.439925e-003
9.439923e-003
9.439920e-003
9.439919e-003
9.439918e-003
9.439920e-003
9.439921e-003
9.439922e-003
9.439922e-003
9.439922e-003
9.439924e-003
9.439928e-003
9.439932e-003
9.439937e-003
9.439942e-003
9.439947e-003
9.439952e-003
9.439953e-003
9.439948e-003
9.439932e-003
9.439902e-003
9.439852e-003
9.439776e-003
9.439666e-003
9.439513e-003
9.439311e-003
9.439055e-003
9.438742e-003
9.438369e-003
9.437937e-003
9.437447e-003
9.436905e-003
9.436320e-003
9.435702e-003
9.435060e-003
9.434405e-003
9.433748e-003
9.433100e-003
9.432471e-003
9.431872e-003
9.431311e-003
9.430795e-003
9.430332e-003
9.429930e-003
9.429594e-003
9.429332e-003
9.429149e-003
9.429051e-003
9.429044e-003
9.429131e-003
9.429317e-003
9.429602e-003
9.429985e-003
9.430464e-003
9.431033e-003
9.431681e-003
9.432393e-003
9.433153e-003
9.433941e-003
9.434738e-003
9.435520e-003
9.436268e-003
9.436962e-003
9.437586e-003
9.438132e-003
9.438595e-003
9.438975e-003
9.439275e-003
9.439503e-003
9.439668e-003
9.439782e-003
9.439857e-003
9.439904e-003
9.439930e-003
9.439942e-003
9.439944e-003
9.439942e-003
9.439939e-003
9.439935e-003
9.439931e-003
9.439927e-003
9.439924e-003
9.439922e-003
9.439921e-003
9.439921e-003
9.439921e-003
9.439920e-003
9.439919e-003
9.439919e-003
9.439920e-003
9.439921e-003
9.439922e-003
9.439922e-003
9.439921e-003
9.439919e-003
9.439918e-003
9.439918e-003
9.439918e-003
9.439919e-003
9.439921e-003
9.439921e-003
9.439921e-003
9.439921e-003
9.439920e-003
9.439920e-003
9.439922e-003
9.439923e-003
9.439924e-003
9.439924e-003
9.439924e-003
9.439926e-003
9.439931e-003
9.439938e-003
9.439945e-003
9.439951e-003
9.439953e-003
9.439951e-003
9.439938e-003
9.439908e-003
9.439852e-003
9.439758e-003
9.439614e-003
9.439405e-003
9.439115e-003
9.438729e-003
9.438231e-003
9.437613e-003
9.436867e-003
9.435992e-003
9.434992e-003
9.433875e-003
9.432657e-003
9.431356e-003
9.429995e-003
9.428596e-003
9.427182e-003
9.425776e-003
9.424401e-003
9.423077e-003
9.421824e-003
9.420657e-003
9.419591e-003
9.418640e-003
9.417818e-003
9.417136e-003
9.416605e-003
9.416238e-003
9.416045e-003
9.416037e-003
9.416222e-003
9.416607e-003
9.417196e-003
9.417989e-003
9.418982e-003
9.420163e-003
9.421513e-003
9.423008e-003
9.424614e-003
9.426293e-003
9.428003e-003
9.429700e-003
9.431338e-003
9.432876e-003
9.434278e-003
9.435520e-003
9.436588e-003
9.437476e-003
9.438191e-003
9.438745e-003
9.439158e-003
9.439454e-003
9.439657e-003
9.439790e-003
9.439870e-003
9.439914e-003
9.439936e-003
9.439944e-003
9.439944e-003
9.439941e-003
9.439936e-003
9.439930e-003
9.439926e-003
9.439923e-003
9.439923e-003
9.439922e-003
9.439922e-003
9.439921e-003
9.439920e-003
9.439920e-003
9.439920e-003
9.439921e-003
9.439921e-003
9.439921e-003
9.439920e-003
9.439919e-003
9.439919e-003
9.439925e-003
9.439922e-003
9.439919e-003
9.439917e-003
9.439917e-003
9.439919e-003
9.439920e-003
9.439921e-003
9.439922e-003
9.439923e-003
9.439925e-003
9.439927e-003
9.439928e-003
9.439929e-003
9.439933e-003
9.439939e-003
9.439946e-003
9.439953e-003
9.439953e-003
9.439944e-003
9.439918e-003
9.439866e-003
9.439770e-003
9.439612e-003
9.439365e-003
9.439000e-003
9.438488e-003
9.437795e-003
9.436891e-003
9.435749e-003
9.434352e-003
9.432692e-003
9.430773e-003
9.428610e-003
9.426229e-003
9.423666e-003
9.420964e-003
9.418169e-003
9.415331e-003
9.412496e-003
9.409709e-003
9.407011e-003
9.404438e-003
9.402024e-003
9.399796e-003
9.397778e-003
9.395992e-003
9.394459e-003
9.393197e-003
9.392224e-003
9.391558e-003
9.391218e-003
9.391221e-003
9.391583e-003
9.392317e-003
9.393433e-003
9.394933e-003
9.396813e-003
9.399059e-003
9.401643e-003
9.404526e-003
9.407653e-003
9.410957e-003
9.414362e-003
9.417781e-003
9.421124e-003
9.424307e-003
9.427252e-003
9.429899e-003
9.432207e-003
9.434156e-003
9.435748e-003
9.437004e-003
9.437960e-003
9.438660e-003
9.439153e-003
9.439484e-003
9.439695e-003
9.439821e-003
9.439891e-003
9.439927e-003
9.439942e-003
9.439945e-003
9.439941e-003
9.439935e-003
9.439930e-003
9.439927e-003
9.439925e-003
9.439924e-003
9.439923e-003
9.439922e-003
9.439921e-003
9.439921e-003
9.439920e-003
9.439920e-003
9.439919e-003
9.439919e-003
9.439919e-003
9.439920e-003
9.439921e-003
9.439929e-003
9.439924e-003
9.439919e-003
9.439916e-003
9.439916e-003
9.439918e-003
9.439920e-003
9.439921e-003
9.439922e-003
9.439923e-003
9.439926e-003
9.439929e-003
9.439933e-003
9.439938e-003
9.439943e-003
9.439949e-003
9.439954e-003
9.439953e-003
9.439937e-003
9.439895e-003
9.439811e-003
9.439660e-003
9.439409e-003
9.439014e-003
9.438422e-003
9.437573e-003
9.436406e-003
9.434858e-003
9.432874e-003
9.430412e-003
9.427449e-003
9.423985e-003
9.420046e-003
9.415682e-003
9.410962e-003
9.405969e-003
9.400798e-003
9.395546e-003
9.390305e-003
9.385163e-003
9.380196e-003
9.375469e-003
9.371037e-003
9.366943e-003
9.363221e-003
9.359901e-003
9.357006e-003
9.354556e-003
9.352570e-003
9.351068e-003
9.350068e-003
9.349592e-003
9.349662e-003
9.350301e-003
9.351529e-003
9.353366e-003
9.355826e-003
9.358915e-003
9.362630e-003
9.366948e-003
9.371830e-003
9.377211e-003
9.383002e-003
9.389086e-003
9.395323e-003
9.401552e-003
9.407608e-003
9.413329e-003
9.418576e-003
9.423240e-003
9.427251e-003
9.430585e-003
9.433262e-003
9.435336e-003
9.436884e-003
9.437995e-003
9.438759e-003
9.439261e-003
9.439575e-003
9.439762e-003
9.439865e-003
9.439917e-003
9.439939e-003
9.439944e-003
9.439941e-003
9.439936e-003
9.439932e-003
9.439929e-003
9.439926e-003
9.439924e-003
9.439922e-003
9.439921e-003
9.439921e-003
9.439921e-003
9.439920e-003
9.439918e-003
9.439918e-003
9.439919e-003
9.439921e-003
9.439922e-003
9.439927e-003
9.439923e-003
9.439919e-003
9.439917e-003
9.439918e-003
9.439920e-003
9.439922e-003
9.439923e-003
9.439922e-003
9.439923e-003
9.439926e-003
9.439932e-003
9.439939e-003
9.439947e-003
9.439953e-003
9.439957e-003
9.439952e-003
9.439929e-003
9.439870e-003
9.439749e-003
9.439529e-003
9.439157e-003
9.438564e-003
9.437659e-003
9.436339e-003
9.434486e-003
9.431986e-003
9.428732e-003
9.424637e-003
9.419654e-003
9.413779e-003
9.407062e-003
9.399606e-003
9.391556e-003
9.383091e-003
9.374403e-003
9.365689e-003
9.357131e-003
9.348891e-003
9.341100e-003
9.333856e-003
9.327229e-003
9.321259e-003
9.315965e-003
9.311350e-003
9.307405e-003
9.304116e-003
9.301465e-003
9.299435e-003
9.298009e-003
9.297176e-003
9.296929e-003
9.297271e-003
9.298211e-003
9.299769e-003
9.301977e-003
9.304880e-003
9.308532e-003
9.312992e-003
9.318318e-003
9.324553e-003
9.331715e-003
9.339774e-003
9.348642e-003
9.358163e-003
9.368108e-003
9.378196e-003
9.388108e-003
9.397529e-003
9.406174e-003
9.413824e-003
9.420347e-003
9.425704e-003
9.429940e-003
9.433163e-003
9.435520e-003
9.437174e-003
9.438288e-003
9.439004e-003
9.439445e-003
9.439701e-003
9.439840e-003
9.439908e-003
9.439936e-003
9.439944e-003
9.439943e-003
9.439939e-003
9.439934e-003
9.439929e-003
9.439925e-003
9.439922e-003
9.439922e-003
9.439922e-003
9.439921e-003
9.439920e-003
9.439919e-003
9.439918e-003
9.439919e-003
9.439921e-003
9.439922e-003
9.439920e-003
9.439920e-003
9.439919e-003
9.439919e-003
9.439921e-003
9.439923e-003
9.439925e-003
9.439925e-003
9.439924e-003
9.439925e-003
9.439929e-003
9.439936e-003
9.439946e-003
9.439955e-003
9.439958e-003
9.439950e-003
9.439919e-003
9.439843e-003
9.439684e-003
9.439387e-003
9.438874e-003
9.438036e-003
9.436734e-003
9.434795e-003
9.432023e-003
9.428212e-003
9.423168e-003
9.416742e-003
9.408850e-003
9.399510e-003
9.388849e-003
9.377113e-003
9.364648e-003
9.351868e-003
9.339215e-003
9.327117e-003
9.315947e-003
9.306006e-003
9.297496e-003
9.290527e-003
9.285112e-003
9.281190e-003
9.278637e-003
9.277293e-003
9.276971e-003
9.277476e-003
9.278612e-003
9.280189e-003
9.282022e-003
9.283938e-003
9.285775e-003
9.287386e-003
9.288651e-003
9.289484e-003
9.289849e-003
9.289775e-003
9.289371e-003
9.288837e-003
9.288465e-003
9.288630e-003
9.289768e-003
9.292324e-003
9.296697e-003
9.303170e-003
9.311843e-003
9.322598e-003
9.335081e-003
9.348742e-003
9.362896e-003
9.376823e-003
9.389863e-003
9.401503e-003
9.411426e-003
9.419514e-003
9.425825e-003
9.430544e-003
9.433926e-003
9.436249e-003
9.437779e-003
9.438741e-003
9.439318e-003
9.439645e-003
9.439817e-003
9.439900e-003
9.439934e-003
9.439945e-003
9.439944e-003
9.439939e-003
9.439932e-003
9.439926e-003
9.439923e-003
9.439922e-003
9.439922e-003
9.439922e-003
9.439921e-003
9.439920e-003
9.439919e-003
9.439919e-003
9.439920e-003
9.439921e-003
9.439915e-003
9.439917e-003
9.439919e-003
9.439921e-003
9.439923e-003
9.439924e-003
9.439926e-003
9.439927e-003
9.439928e-003
9.439930e-003
9.439935e-003
9.439944e-003
9.439953e-003
9.439958e-003
9.439949e-003
9.439911e-003
9.439816e-003
9.439619e-003
9.439246e-003
9.438582e-003
9.437472e-003
9.435704e-003
9.433015e-003
9.429091e-003
9.423596e-003
9.416211e-003
9.406693e-003
9.394945e-003
9.381083e-003
9.365487e-003
9.348809e-003
9.331947e-003
9.315962e-003
9.301967e-003
9.291004e-003
9.283933e-003
9.281354e-003
9.283568e-003
9.290569e-003
9.302074e-003
9.317567e-003
9.336363e-003
9.357668e-003
9.380642e-003
9.404440e-003
9.428244e-003
9.451275e-003
9.472794e-003
9.492097e-003
9.508508e-003
9.521379e-003
9.530099e-003
9.534118e-003
9.532987e-003
9.526409e-003
9.514307e-003
9.496885e-003
9.474698e-003
9.448688e-003
9.420196e-003
9.390916e-003
9.362780e-003
9.337786e-003
9.317764e-003
9.304139e-003
9.297721e-003
9.298571e-003
9.305994e-003
9.318658e-003
9.334818e-003
9.352612e-003
9.370341e-003
9.386678e-003
9.400774e-003
9.412252e-003
9.421119e-003
9.427642e-003
9.432226e-003
9.435306e-003
9.437286e-003
9.438501e-003
9.439209e-003
9.439599e-003
9.439800e-003
9.439895e-003
9.439934e-003
9.439945e-003
9.439943e-003
9.439936e-003
9.439930e-003
9.439926e-003
9.439924e-003
9.439923e-003
9.439923e-003
9.439922e-003
9.439921e-003
9.439920e-003
9.439920e-003
9.439919e-003
9.439919e-003
9.439914e-003
9.439917e-003
9.439921e-003
9.439923e-003
9.439923e-003
9.439923e-003
9.439925e-003
9.439928e-003
9.439933e-003
9.439939e-003
9.439946e-003
9.439954e-003
9.439958e-003
9.439950e-003
9.439908e-003
9.439800e-003
9.439570e-003
9.439124e-003
9.438315e-003
9.436928e-003
9.434664e-003
9.431137e-003
9.425879e-003
9.418376e-003
9.408141e-003
9.394832e-003
9.378408e-003
9.359306e-003
9.338582e-003
9.317975e-003
9.299855e-003
9.287035e-003
9.282471e-003
9.288906e-003
9.308545e-003
9.342795e-003
9.392143e-003
9.456144e-003
9.533512e-003
9.622282e-003
9.720002e-003
9.823927e-003
9.931208e-003
1.003904e-002
1.014475e-002
1.024588e-002
1.034013e-002
1.042539e-002
1.049963e-002
1.056092e-002
1.060734e-002
1.063705e-002
1.064830e-002
1.063958e-002
1.060974e-002
1.055819e-002
1.048512e-002
1.039176e-002
1.028048e-002
1.015500e-002
1.002029e-002
9.882374e-003
9.747929e-003
9.623631e-003
9.515446e-003
9.427889e-003
9.363455e-003
9.322324e-003
9.302457e-003
9.300055e-003
9.310307e-003
9.328223e-003
9.349378e-003
9.370388e-003
9.389086e-003
9.404420e-003
9.416188e-003
9.424718e-003
9.430594e-003
9.434452e-003
9.436870e-003
9.438313e-003
9.439133e-003
9.439573e-003
9.439794e-003
9.439895e-003