# vtk DataFile Version 3.0
vtk output
ASCII
DATASET STRUCTURED_POINTS
DIMENSIONS 100 100 1
SPACING 1 1 1
ORIGIN 0 0 0
POINT_DATA 10000
SCALARS SFBox_profile double
LOOKUP_TABLE default 
0.000000e+000
0.000000e+000
0.000000e+000
0.000000e+000
0.000000e+000
0.000000e+000
0.000000e+000
0.000000e+000
0.000000e+000
0.000000e+000
0.000000e+000
0.000000e+000
0.000000e+000
0.000000e+000
0.000000e+000
0.000000e+000
0.000000e+000
0.000000e+000
0.000000e+000
0.000000e+000
0.000000e+000
0.000000e+000
0.000000e+000
0.000000e+000
0.000000e+000
0.000000e+000
0.000000e+000
0.000000e+000
0.000000e+000
0.000000e+000
0.000000e+000
0.000000e+000
0.000000e+000
0.000000e+000
0.000000e+000
0.000000e+000
0.000000e+000
0.000000e+000
0.000000e+000
0.000000e+000
0.000000e+000
0.000000e+000
0.000000e+000
0.000000e+000
0.000000e+000
0.000000e+000
0.000000e+000
0.000000e+000
0.000000e+000
0.000000e+000
0.000000e+000
0.000000e+000
0.000000e+000
0.000000e+000
0.000000e+000
0.000000e+000
0.000000e+000
0.000000e+000
0.000000e+000
0.000000e+000
0.000000e+000
0.000000e+000
0.000000e+000
0.000000e+000
0.000000e+000
0.000000e+000
0.000000e+000
0.000000e+000
0.000000e+000
0.000000e+000
0.000000e+000
0.000000e+000
0.000000e+000
0.000000e+000
0.000000e+000
0.000000e+000
0.000000e+000
0.000000e+000
0.000000e+000
0.000000e+000
0.000000e+000
0.000000e+000
0.000000e+000
0.000000e+000
0.000000e+000
0.000000e+000
0.000000e+000
0.000000e+000
0.000000e+000
0.000000e+000
0.000000e+000
0.000000e+000
0.000000e+000
0.000000e+000
0.000000e+000
0.000000e+000
0.000000e+000
0.000000e+000
0.000000e+000
0.000000e+000
2.002954e-009
6.237978e-010
-1.051683e-009
-1.917896e-009
-1.447000e-009
3.506349e-011
1.571328e-009
2.180213e-009
1.475451e-009
-1.046922e-010
-1.612362e-009
-2.221482e-009
-1.723007e-009
-5.511640e-010
6.179890e-010
1.336092e-009
1.561064e-009
1.481931e-009
1.233941e-009
7.911034e-010
9.604975e-011
-7.607594e-010
-1.525773e-009
-1.949133e-009
-1.958921e-009
-1.674330e-009
-1.265730e-009
-8.163083e-010
-3.114967e-010
2.674893e-010
8.690928e-010
1.394013e-009
1.775166e-009
2.020649e-009
2.180697e-009
2.286440e-009
2.328442e-009
2.287128e-009
2.169641e-009
2.010519e-009
1.841993e-009
1.672002e-009
1.492114e-009
1.300242e-009
1.109662e-009
9.369349e-010
7.870093e-010
6.540301e-010
5.347538e-010
4.362180e-010
3.681336e-010
3.307801e-010
3.151486e-010
3.160702e-010
3.411234e-010
4.018994e-010
4.969360e-010
6.090700e-010
7.241000e-010
8.490235e-010
1.003722e-009
1.190976e-009
1.380917e-009
1.534461e-009
1.642425e-009
1.730299e-009
1.814146e-009
1.856315e-009
1.781484e-009
1.547613e-009
1.193994e-009
8.032337e-010
4.127425e-010
-1.810565e-011
-5.315682e-010
-1.062304e-009
-1.429057e-009
-1.463628e-009
-1.157549e-009
-6.708181e-010
-1.866969e-010
2.336437e-010
6.362627e-010
1.016403e-009
1.207057e-009
9.746869e-010
2.654408e-010
-6.380483e-010
-1.239017e-009
-1.167810e-009
-4.689607e-010
4.101905e-010
9.287546e-010
8.193383e-010
2.409467e-010
-3.714442e-010
-6.225062e-010
-4.053673e-010
6.669995e-011
4.334408e-010
1.077395e-012
5.332404e-011
7.489005e-011
1.915237e-011
-7.031794e-011
-1.071182e-010
-5.799051e-011
1.782898e-011
3.286549e-011
-2.564250e-011
-6.781394e-011
9.505169e-012
1.986409e-010
3.535904e-010
3.039788e-010
1.324913e-011
-3.695278e-010
-6.191534e-010
-6.067817e-010
-3.796330e-010
-8.728600e-011
1.580809e-010
3.493706e-010
5.319487e-010
7.093260e-010
8.160991e-010
7.803692e-010
5.985356e-010
3.401943e-010
8.425917e-011
-1.406308e-010
-3.533846e-010
-5.715220e-010
-7.774146e-010
-9.333904e-010
-1.020279e-009
-1.052811e-009
-1.058673e-009
-1.050007e-009
-1.019073e-009
-9.573269e-010
-8.715233e-010
-7.790137e-010
-6.913891e-010
-6.073741e-010
-5.215586e-010
-4.358632e-010
-3.593832e-010
-2.984411e-010
-2.507858e-010
-2.114297e-010
-1.818788e-010
-1.698852e-010
-1.794217e-010
-2.042543e-010
-2.349548e-010
-2.715300e-010
-3.244761e-010
-4.002377e-010
-4.882899e-010
-5.683846e-010
-6.322162e-010
-6.924350e-010
-7.635521e-010
-8.346628e-010
-8.695090e-010
-8.401367e-010
-7.569492e-010
-6.557466e-010
-5.518308e-010
-4.162887e-010
-2.104864e-010
5.420329e-011
3.025919e-010
4.533788e-010
4.903448e-010
4.662991e-010
4.318141e-010
3.702273e-010
2.199795e-010
-3.259938e-011
-2.945182e-010
-4.195182e-010
-3.332959e-010
-1.072662e-010
9.687667e-011
1.612393e-010
9.740929e-011
9.616231e-012
-1.610188e-011
1.651009e-011
4.215096e-011
1.698360e-011
-3.591122e-011
-5.964865e-011
-2.989643e-011
2.009361e-011
3.891896e-011
1.336863e-011
-2.039255e-011
-2.156929e-009
-6.026674e-010
1.215098e-009
2.045056e-009
1.406822e-009
-1.979718e-010
-1.694856e-009
-2.160320e-009
-1.372573e-009
1.413889e-010
1.523688e-009
2.126051e-009
1.806903e-009
8.591048e-010
-2.751855e-010
-1.246484e-009
-1.863402e-009
-2.037487e-009
-1.738517e-009
-1.015694e-009
-2.989569e-011
9.778260e-010
1.780661e-009
2.250339e-009
2.369769e-009
2.185017e-009
1.756001e-009
1.144552e-009
4.255732e-010
-3.139079e-010
-9.970833e-010
-1.578415e-009
-2.042212e-009
-2.384877e-009
-2.603085e-009
-2.697792e-009
-2.682659e-009
-2.582240e-009
-2.420701e-009
-2.213960e-009
-1.972517e-009
-1.708569e-009
-1.437305e-009
-1.171612e-009
-9.181341e-010
-6.798962e-010
-4.614790e-010
-2.698158e-010
-1.102247e-010
1.618726e-011
1.099160e-010
1.690260e-010
1.896395e-010
1.704942e-010
1.149833e-010
2.713076e-011
-9.335451e-011
-2.495367e-010
-4.401400e-010
-6.561193e-010
-8.863503e-010
-1.125459e-009
-1.372298e-009
-1.618867e-009
-1.843051e-009
-2.015653e-009
-2.114229e-009
-2.126457e-009
-2.039120e-009
-1.829742e-009
-1.477917e-009
-9.888255e-010
-4.031673e-010
2.179673e-010
8.132985e-010
1.320259e-009
1.658150e-009
1.732304e-009
1.480554e-009
9.310876e-010
2.141079e-010
-4.916179e-010
-1.030768e-009
-1.301172e-009
-1.238863e-009
-8.178407e-010
-1.054734e-010
6.754439e-010
1.183404e-009
1.135151e-009
5.204490e-010
-3.288598e-010
-9.150304e-010
-8.990779e-010
-3.379523e-010
3.534535e-010
6.976724e-010
4.921650e-010
-5.856499e-011
-5.089234e-010
-2.403936e-009
-7.581230e-010
1.211775e-009
2.187490e-009
1.600176e-009
-8.282863e-011
-1.711112e-009
-2.224724e-009
-1.340425e-009
3.109363e-010
1.671805e-009
1.991998e-009
1.267135e-009
1.017813e-010
-8.159816e-010
-1.169576e-009
-1.074821e-009
-8.058657e-010
-5.093248e-010
-1.582352e-010
2.874178e-010
7.396909e-010
1.018771e-009
1.008577e-009
7.550835e-010
4.131026e-010
1.134100e-010
-1.126052e-010
-2.978214e-010
-4.602323e-010
-5.718631e-010
-5.941304e-010
-5.237035e-010
-3.956275e-010
-2.488502e-010
-9.794717e-011
6.257659e-011
2.358979e-010
4.115340e-010
5.738870e-010
7.156315e-010
8.400481e-010
9.528800e-010
1.055144e-009
1.143739e-009
1.216394e-009
1.274319e-009
1.320546e-009
1.356878e-009
1.382733e-009
1.396578e-009
1.398305e-009
1.390102e-009
1.374462e-009
1.350989e-009
1.315953e-009
1.266348e-009
1.204194e-009
1.134623e-009
1.058114e-009
9.664661e-010
8.502437e-010
7.109488e-010
5.616197e-010
4.113144e-010
2.517613e-010
6.781968e-011
-1.343538e-010
-3.157765e-010
-4.318761e-010
-4.731299e-010
-4.680610e-010
-4.360293e-010
-3.440419e-010
-1.323485e-010
2.013682e-010
5.512640e-010
7.608657e-010
7.475268e-010
5.646637e-010
3.278051e-010
8.400867e-011
-2.178963e-010
-6.038372e-010
-9.336345e-010
-9.348314e-010
-4.378135e-010
3.928821e-010
1.083230e-009
1.168263e-009
5.604436e-010
-3.499303e-010
-9.644247e-010
-9.076773e-010
-2.828288e-010
4.323378e-010
7.461040e-010
4.907096e-010
-9.303638e-011
-5.540261e-010
-3.145772e-010
-2.209177e-010
-2.767126e-011
1.957284e-010
2.959676e-010
1.782018e-010
-5.583277e-011
-1.639669e-010
-5.127043e-012
2.712440e-010
3.183793e-010
-7.323913e-011
-7.117924e-010
-1.095738e-009
-8.182715e-010
7.121748e-011
1.081387e-009
1.654753e-009
1.562350e-009
9.845459e-010
2.648041e-010
-3.827849e-010
-9.447773e-010
-1.457805e-009
-1.853787e-009
-1.976446e-009
-1.728233e-009
-1.170040e-009
-4.700721e-010
2.292212e-010
8.850846e-010
1.515072e-009
2.115859e-009
2.636706e-009
3.022756e-009
3.264634e-009
3.397995e-009
3.462740e-009
3.472375e-009
3.421318e-009
3.311158e-009
3.161846e-009
2.998946e-009
2.836300e-009
2.673876e-009
2.509643e-009
2.349535e-009
2.205140e-009
2.084129e-009
1.985560e-009
1.905193e-009
1.844018e-009
1.809497e-009
1.807423e-009
1.833955e-009
1.878700e-009
1.936962e-009
2.016173e-009
2.125597e-009
2.259026e-009
2.392988e-009
2.507315e-009
2.604766e-009
2.700615e-009
2.787527e-009
2.818258e-009
2.736634e-009
2.529120e-009
2.233980e-009
1.887576e-009
1.468782e-009
9.206772e-010
2.437731e-010
-4.430791e-010
-9.622134e-010
-1.212735e-009
-1.236865e-009
-1.136110e-009
-9.310985e-010
-5.411240e-010
6.762909e-011
7.257912e-010
1.103657e-009
9.638804e-010
3.938564e-010
-2.268068e-010
-5.196294e-010
-3.972621e-010
-8.756761e-011
1.093205e-010
8.269450e-011
-4.572802e-011
-9.673602e-011
-1.992724e-011
8.862538e-011
1.177232e-010
5.677633e-011
-1.922395e-011
-4.977071e-011
-4.527892e-011
2.416481e-009
5.954024e-010
-1.430353e-009
-2.199063e-009
-1.333707e-009
3.864951e-010
1.749946e-009
1.988090e-009
1.155210e-009
-1.332586e-010
-1.231395e-009
-1.791734e-009
-1.744310e-009
-1.136971e-009
-9.202067e-011
1.112718e-009
2.039133e-009
2.285263e-009
1.750629e-009
7.138086e-010
-3.702568e-010
-1.171652e-009
-1.620544e-009
-1.799532e-009
-1.759532e-009
-1.463951e-009
-8.868615e-010
-1.160450e-010
6.711193e-010
1.329350e-009
1.828531e-009
2.220181e-009
2.543876e-009
2.781776e-009
2.895960e-009
2.887075e-009
2.802860e-009
2.695129e-009
2.580996e-009
2.448285e-009
2.288822e-009
2.116878e-009
1.956058e-009
1.816488e-009
1.690265e-009
1.567090e-009
1.448934e-009
1.347330e-009
1.269148e-009
1.209236e-009
1.158432e-009
1.116439e-009
1.093146e-009
1.096001e-009
1.118995e-009
1.148619e-009
1.181636e-009
1.232170e-009
1.315574e-009
1.426245e-009
1.539348e-009
1.640118e-009
1.745994e-009
1.887512e-009
2.062728e-009
2.220692e-009
2.303187e-009
2.301246e-009
2.253404e-009
2.176477e-009
2.010111e-009
1.656572e-009
1.089094e-009
4.082870e-010
-2.284793e-010
-7.322836e-010
-1.115608e-009
-1.389852e-009
-1.456462e-009
-1.150772e-009
-4.288319e-010
4.957891e-010
1.235217e-009
1.479589e-009
1.190189e-009
5.703295e-010
-1.176499e-010
-6.864807e-010
-1.011342e-009
-9.746503e-010
-5.184686e-010
2.142769e-010
8.431563e-010
9.579163e-010
4.517911e-010
-3.268605e-010
-7.995292e-010
-6.146033e-010
5.107173e-011
6.276315e-010
3.358713e-009
9.723018e-010
-1.730229e-009
-2.836803e-009
-1.796941e-009
3.977868e-010
2.098887e-009
2.227104e-009
9.305580e-010
-7.226122e-010
-1.646178e-009
-1.467129e-009
-5.841791e-010
3.259811e-010
8.295543e-010
8.821493e-010
6.360826e-010
2.249550e-010
-2.612297e-010
-6.851860e-010
-8.533030e-010
-6.409440e-010
-1.091225e-010
5.323700e-010
1.083100e-009
1.467949e-009
1.711105e-009
1.833615e-009
1.807340e-009
1.605650e-009
1.268764e-009
8.950331e-010
5.688705e-010
3.098505e-010
9.337561e-011
-9.358838e-011
-2.299375e-010
-2.886909e-010
-2.726183e-010
-2.134812e-010
-1.408494e-010
-6.024845e-011
3.734017e-011
1.521656e-010
2.684693e-010
3.691395e-010
4.513946e-010
5.243135e-010
5.930557e-010
6.502646e-010
6.848940e-010
6.964835e-010
6.959938e-010
6.912100e-010
6.751608e-010
6.339428e-010
5.659780e-010
4.875613e-010
4.141812e-010
3.393232e-010
2.409456e-010
1.135932e-010
-1.249740e-011
-9.455881e-011
-1.198177e-010
-1.133754e-010
-9.501381e-011
-3.630360e-011
1.204684e-010
3.922734e-010
7.156467e-010
9.921006e-010
1.170531e-009
1.266512e-009
1.293374e-009
1.197426e-009
8.974010e-010
4.013149e-010
-1.365856e-010
-5.039006e-010
-5.833780e-010
-4.134208e-010
-1.085133e-010
2.414564e-010
5.639326e-010
7.251792e-010
5.452726e-010
-2.543345e-011
-7.330145e-010
-1.096531e-009
-7.658153e-010
1.262278e-010
9.752877e-010
1.143876e-009
4.856193e-010
-5.023836e-010
-1.057227e-009
-7.599816e-010
1.263513e-010
8.718458e-010
1.457313e-009
5.111561e-010
-5.834821e-010
-1.057581e-009
-6.606088e-010
1.871584e-010
7.281769e-010
4.828982e-010
-3.309165e-010
-9.544624e-010
-7.301574e-010
3.089745e-010
1.427661e-009
1.773545e-009
1.045036e-009
-3.230282e-010
-1.555007e-009
-2.100897e-009
-1.892146e-009
-1.178562e-009
-2.268059e-010
8.093137e-010
1.812425e-009
2.612775e-009
3.033328e-009
3.010501e-009
2.637421e-009
2.080669e-009
1.468151e-009
8.578539e-010
2.854204e-010
-1.955103e-010
-5.319444e-010
-7.137697e-010
-7.787007e-010
-7.738951e-010
-7.219589e-010
-6.263690e-010
-4.988252e-010
-3.688156e-010
-2.651834e-010
-1.961034e-010
-1.521716e-010
-1.256499e-010
-1.204888e-010
-1.429272e-010
-1.879691e-010
-2.403056e-010
-2.878867e-010
-3.300113e-010
-3.697906e-010
-4.017965e-010
-4.123503e-010
-3.933140e-010
-3.515491e-010
-3.004666e-010
-2.437138e-010
-1.736232e-010
-8.937403e-011
-1.198487e-011
2.699030e-011
1.354016e-011
-3.855786e-011
-1.103773e-010
-2.042276e-010
-3.346040e-010
-4.891660e-010
-6.102469e-010
-6.285121e-010
-5.136919e-010
-2.801895e-010
5.729362e-011
5.103671e-010
1.073360e-009
1.654477e-009
2.080728e-009
2.199796e-009
1.978564e-009
1.490356e-009
8.192775e-010
2.204458e-011
-7.868119e-010
-1.350101e-009
-1.364396e-009
-7.467167e-010
1.845552e-010
8.606900e-010
8.814764e-010
3.385088e-010
-2.701482e-010
-4.694793e-010
-1.908400e-010
2.258044e-010
3.765925e-010
1.458837e-010
-2.354312e-010
-4.280172e-010
-2.742681e-010
9.667733e-011
3.943727e-010
-1.956586e-009
-4.553559e-010
1.165752e-009
1.732224e-009
1.045193e-009
-2.170720e-010
-1.204828e-009
-1.492447e-009
-1.132605e-009
-3.573804e-010
6.164927e-010
1.514712e-009
1.923802e-009
1.482302e-009
2.410541e-010
-1.211169e-009
-2.084564e-009
-1.939667e-009
-9.631727e-010
2.576353e-010
1.208669e-009
1.731251e-009
1.934959e-009
1.944443e-009
1.778999e-009
1.435848e-009
1.006170e-009
6.587047e-010
5.166394e-010
5.762151e-010
7.455743e-010
9.384966e-010
1.116851e-009
1.260304e-009
1.327364e-009
1.261656e-009
1.027575e-009
6.265779e-010
7.909582e-011
-5.988861e-010
-1.396812e-009
-2.294892e-009
-3.258547e-009
-4.249430e-009
-5.237149e-009
-6.197458e-009
-7.102816e-009
-7.920390e-009
-8.620191e-009
-9.181239e-009
-9.587230e-009
-9.819048e-009
-9.856701e-009
-9.689949e-009
-9.323589e-009
-8.769774e-009
-8.038469e-009
-7.141693e-009
-6.108492e-009
-4.989956e-009
-3.843933e-009
-2.717024e-009
-1.647840e-009
-6.863094e-010
1.036857e-010
6.736240e-010
1.020876e-009
1.179155e-009
1.177778e-009
1.027612e-009
7.634765e-010
4.897026e-010
3.489783e-010
4.206111e-010
6.567192e-010
9.397648e-010
1.198328e-009
1.430927e-009
1.596033e-009
1.519835e-009
9.981489e-010
4.845292e-011
-9.581522e-010
-1.491931e-009
-1.262680e-009
-4.557830e-010
4.220303e-010
9.316251e-010
9.573533e-010
6.447800e-010
1.828113e-010
-2.967898e-010
-6.527011e-010
-6.974379e-010
-3.375408e-010
2.435323e-010
6.314109e-010
5.087547e-010
-2.774856e-011
-5.104141e-010
-4.186816e-009
-1.096969e-009
2.216247e-009
3.300663e-009
1.787693e-009
-7.263626e-010
-2.248580e-009
-1.946234e-009
-4.793418e-010
8.788351e-010
1.332201e-009
9.384772e-010
2.113052e-010
-4.249841e-010
-7.964008e-010
-8.116650e-010
-3.648961e-010
5.144791e-010
1.499961e-009
2.091032e-009
1.973338e-009
1.263625e-009
3.928541e-010
-2.395578e-010
-4.976564e-010
-4.554655e-010
-2.029164e-010
2.437846e-010
8.638573e-010
1.529919e-009
2.025149e-009
2.157580e-009
1.841184e-009
1.073144e-009
-1.380655e-010
-1.803106e-009
-3.922446e-009
-6.451976e-009
-9.309335e-009
-1.240760e-008
-1.567491e-008
-1.904589e-008
-2.244660e-008
-2.579481e-008
-2.901172e-008
-3.202842e-008
-3.478165e-008
-3.720885e-008
-3.924940e-008
-4.084845e-008
-4.195720e-008
-4.253237e-008
-4.254017e-008
-4.196268e-008
-4.079848e-008
-3.905760e-008
-3.676155e-008
-3.395396e-008
-3.071017e-008
-2.712993e-008
-2.331871e-008
-1.938192e-008
-1.544167e-008
-1.164961e-008
-8.163934e-009
-5.102642e-009
-2.525953e-009
-4.733275e-010
9.942507e-010
1.818882e-009
2.030259e-009
1.789986e-009
1.320786e-009
7.831740e-010
2.431123e-010
-2.283224e-010
-4.636002e-010
-2.785475e-010
3.169779e-010
1.017443e-009
1.397489e-009
1.235207e-009
6.690678e-010
4.078132e-011
-3.879514e-010
-5.484154e-010
-4.555842e-010
-1.069728e-010
4.270456e-010
8.591768e-010
7.871127e-010
7.697285e-011
-8.504689e-010
-1.242315e-009
-6.678616e-010
4.954452e-010
1.290991e-009
1.009139e-009
-1.369929e-010
-1.156551e-009
-3.385719e-009
-8.226421e-010
1.815461e-009
2.455167e-009
9.521454e-010
-1.070197e-009
-1.785334e-009
-7.167376e-010
1.013324e-009
1.812702e-009
1.013259e-009
-6.858899e-010
-1.962530e-009
-1.979830e-009
-8.736976e-010
6.189024e-010
1.829931e-009
2.482867e-009
2.565953e-009
2.123779e-009
1.260785e-009
2.582041e-010
-4.665155e-010
-6.054078e-010
-1.722674e-010
5.371996e-010
1.175601e-009
1.516220e-009
1.429531e-009
7.648181e-010
-6.846863e-010
-3.095039e-009
-6.520197e-009
-1.090141e-008
-1.615070e-008
-2.220553e-008
-2.900761e-008
-3.645485e-008
-4.439299e-008
-5.265191e-008
-6.107931e-008
-6.953957e-008
-7.789262e-008
-8.598468e-008
-9.365924e-008
-1.007712e-007
-1.071894e-007
-1.127895e-007
-1.174495e-007
-1.210517e-007
-1.234879e-007
-1.246669e-007
-1.245214e-007
-1.230105e-007
-1.201180e-007
-1.158527e-007
-1.102604e-007
-1.034411e-007
-9.555229e-008
-8.678986e-008
-7.736591e-008
-6.751210e-008
-5.750222e-008
-4.765112e-008
-3.826457e-008
-2.957814e-008
-2.175121e-008
-1.492237e-008
-9.247382e-009
-4.849550e-009
-1.723943e-009
2.838970e-010
1.379420e-009
1.710833e-009
1.393556e-009
6.477864e-010
-1.393685e-010
-5.601604e-010
-4.297923e-010
1.220344e-010
8.031230e-010
1.372122e-009
1.687569e-009
1.616383e-009
1.037079e-009
3.765953e-011
-9.299060e-010
-1.256228e-009
-6.889465e-010
3.331064e-010
9.585612e-010
6.587273e-010
-2.616443e-010
-9.161130e-010
-6.610042e-010
2.841897e-010
1.029260e-009
8.504904e-010
-1.199506e-010
-1.007901e-009
-5.908477e-011
1.499064e-010
2.169273e-010
-9.987903e-011
-6.245556e-010
-8.209944e-010
-2.595688e-010
8.690926e-010
1.728673e-009
1.471135e-009
3.885065e-011
-1.637772e-009
-2.325732e-009
-1.488954e-009
2.995699e-010
1.880139e-009
2.433326e-009
1.976439e-009
1.112680e-009
4.406242e-010
2.147422e-010
4.216310e-010
9.789940e-010
1.761384e-009
2.487766e-009
2.702019e-009
1.930443e-009
-1.434059e-010
-3.664469e-009
-8.729122e-009
-1.547474e-008
-2.403932e-008
-3.446556e-008
-4.667377e-008
-6.052221e-008
-7.586733e-008
-9.255574e-008
-1.103756e-007
-1.290396e-007
-1.482205e-007
-1.675984e-007
-1.868721e-007
-2.057408e-007
-2.238902e-007
-2.410024e-007
-2.567758e-007
-2.709337e-007
-2.832175e-007
-2.933776e-007
-3.011726e-007
-3.063804e-007
-3.088128e-007
-3.083264e-007
-3.048245e-007
-2.982574e-007
-2.886329e-007
-2.760420e-007
-2.606851e-007
-2.428722e-007
-2.229963e-007
-2.015107e-007
-1.789361e-007
-1.558748e-007
-1.329841e-007
-1.108928e-007
-9.012120e-008
-7.107135e-008
-5.407293e-008
-3.939766e-008
-2.719468e-008
-1.741976e-008
-9.869612e-009
-4.315341e-009
-5.917567e-010
1.466756e-009
2.164028e-009
1.966458e-009
1.358215e-009
6.871668e-010
1.707038e-010
6.909842e-013
3.251856e-010
1.048365e-009
1.705813e-009
1.704206e-009
8.298957e-010
-4.574703e-010
-1.318242e-009
-1.213899e-009
-3.502488e-010
5.360129e-010
8.264439e-010
4.866196e-010
-3.535699e-011
-2.889027e-010
-1.855765e-010
3.734433e-011
1.195934e-010
1.614035e-011
-1.169646e-010
3.401548e-009
9.672591e-010
-1.623284e-009
-2.506056e-009
-1.489081e-009
2.376725e-010
1.366486e-009
1.418182e-009
7.194880e-010
-1.674924e-010
-8.234153e-010
-9.694934e-010
-4.438422e-010
6.146527e-010
1.640771e-009
1.934066e-009
1.238973e-009
4.726525e-011
-7.395647e-010
-5.039250e-010
6.694180e-010
2.155312e-009
3.247101e-009
3.431066e-009
2.320764e-009
-5.133630e-010
-5.560813e-009
-1.324816e-008
-2.386735e-008
-3.764021e-008
-5.480852e-008
-7.561550e-008
-1.001936e-007
-1.284828e-007
-1.602482e-007
-1.951444e-007
-2.327428e-007
-2.725123e-007
-3.138137e-007
-3.559427e-007
-3.981933e-007
-4.398915e-007
-4.803887e-007
-5.190476e-007
-5.552483e-007
-5.884081e-007
-6.179921e-007
-6.435058e-007
-6.644799e-007
-6.804669e-007
-6.910547e-007
-6.958865e-007
-6.946775e-007
-6.872202e-007
-6.733928e-007
-6.531845e-007
-6.267401e-007
-5.943991e-007
-5.567021e-007
-5.143708e-007
-4.682947e-007
-4.195405e-007
-3.693490e-007
-3.190710e-007
-2.700430e-007
-2.234747e-007
-1.804026e-007
-1.416761e-007
-1.079044e-007
-7.935987e-008
-5.594088e-008
-3.727324e-008
-2.288557e-008
-1.230417e-008
-5.016172e-009
-4.247428e-010
2.074793e-009
2.964377e-009
2.614893e-009
1.479964e-009
2.287470e-010
-4.436334e-010
-2.375979e-010
5.219217e-010
1.149371e-009
1.156310e-009
5.900795e-010
-1.188906e-010
-5.639145e-010
-5.994631e-010
-2.871839e-010
2.218853e-010
6.875831e-010
7.892820e-010
3.358243e-010
-4.517362e-010
-9.731175e-010
-7.336591e-010
1.362866e-010
9.111131e-010
4.663460e-009
9.266377e-010
-2.701403e-009
-3.258082e-009
-9.331831e-010
1.676382e-009
2.246331e-009
6.707562e-010
-1.299042e-009
-1.930888e-009
-9.203276e-010
7.601752e-010
1.978180e-009
2.257685e-009
1.753913e-009
8.399086e-010
-9.089663e-011
-5.852516e-010
-2.283380e-010
1.010549e-009
2.533177e-009
3.301430e-009
2.318284e-009
-1.065240e-009
-7.268405e-009
-1.681251e-008
-3.048811e-008
-4.923831e-008
-7.395070e-008
-1.053644e-007
-1.440809e-007
-1.905348e-007
-2.448712e-007
-3.068307e-007
-3.757470e-007
-4.506476e-007
-5.303588e-007
-6.135619e-007
-6.988309e-007
-7.846968e-007
-8.697334e-007
-9.526153e-007
-1.032127e-006
-1.107145e-006
-1.176634e-006
-1.239646e-006
-1.295330e-006
-1.342912e-006
-1.381668e-006
-1.410913e-006
-1.430011e-006
-1.438392e-006
-1.435577e-006
-1.421186e-006
-1.394954e-006
-1.356782e-006
-1.306797e-006
-1.245416e-006
-1.173376e-006
-1.091751e-006
-1.001969e-006
-9.058500e-007
-8.055963e-007
-7.036965e-007
-6.027657e-007
-5.053847e-007
-4.139694e-007
-3.306274e-007
-2.569599e-007
-1.938741e-007
-1.415326e-007
-9.948313e-008
-6.685191e-008
-4.246472e-008
-2.491478e-008
-1.272301e-008
-4.620258e-009
2.542662e-010
2.464534e-009
2.624725e-009
1.616266e-009
4.165160e-010
-2.945004e-010
-3.418256e-010
9.000494e-011
7.158478e-010
1.236759e-009
1.319570e-009
7.484736e-010
-2.594292e-010
-1.003069e-009
-8.192744e-010
2.005656e-010
1.113937e-009
9.567510e-010
-2.378660e-010
-1.345710e-009
-1.221239e-009
1.066590e-010
1.391263e-009
3.141026e-009
1.214195e-010
-2.467030e-009
-2.152967e-009
4.244662e-010
2.483404e-009
1.972043e-009
-5.351133e-010
-2.602559e-009
-2.355379e-009
-1.049412e-010
2.211563e-009
2.930139e-009
1.962718e-009
4.961607e-010
-2.449889e-010
1.404596e-010
1.292509e-009
2.580139e-009
3.338846e-009
2.767979e-009
-1.394084e-010
-6.442408e-009
-1.710585e-008
-3.313443e-008
-5.589064e-008
-8.723407e-008
-1.292901e-007
-1.840232e-007
-2.529150e-007
-3.368463e-007
-4.360541e-007
-5.500519e-007
-6.775587e-007
-8.165614e-007
-9.645253e-007
-1.118647e-006
-1.276047e-006
-1.433889e-006
-1.589482e-006
-1.740382e-006
-1.884466e-006
-2.019936e-006
-2.145283e-006
-2.259236e-006
-2.360732e-006
-2.448883e-006
-2.522924e-006
-2.582165e-006
-2.625949e-006
-2.653643e-006
-2.664638e-006
-2.658358e-006
-2.634262e-006
-2.591861e-006
-2.530766e-006
-2.450776e-006
-2.351958e-006
-2.234743e-006
-2.100014e-006
-1.949247e-006
-1.784634e-006
-1.609161e-006
-1.426561e-006
-1.241175e-006
-1.057758e-006
-8.812203e-007
-7.162557e-007
-5.668643e-007
-4.359270e-007
-3.249941e-007
-2.343141e-007
-1.629666e-007
-1.090055e-007
-6.969246e-008
-4.194837e-008
-2.293386e-008
-1.044120e-008
-2.874267e-009
1.038705e-009
2.442241e-009
2.314541e-009
1.397863e-009
3.054050e-010
-3.465354e-010
-1.062674e-010
8.930721e-010
1.809634e-009
1.689350e-009
3.981233e-010
-1.082171e-009
-1.483327e-009
-4.974903e-010
8.551998e-010
1.216907e-009
2.729219e-010
-9.307491e-010
-1.098941e-009
-6.153017e-011
1.057760e-009
9.659775e-011
-6.827519e-010
-9.871402e-010
-9.493527e-011
1.313574e-009
1.797398e-009
6.671301e-010
-1.181145e-009
-2.025546e-009
-9.782356e-010
1.110581e-009
2.439944e-009
1.969346e-009
3.674474e-010
-6.775042e-010
-2.146706e-011
2.001167e-009
3.957952e-009
4.350781e-009
2.195271e-009
-3.237543e-009
-1.301558e-008
-2.886214e-008
-5.311727e-008
-8.865123e-008
-1.388668e-007
-2.075777e-007
-2.985455e-007
-4.147883e-007
-5.580006e-007
-7.282912e-007
-9.241747e-007
-1.142661e-006
-1.379422e-006
-1.629114e-006
-1.885873e-006
-2.143849e-006
-2.397614e-006
-2.642404e-006
-2.874244e-006
-3.090019e-006
-3.287486e-006
-3.465216e-006
-3.622463e-006
-3.759012e-006
-3.875051e-006
-3.971042e-006
-4.047602e-006
-4.105379e-006
-4.144953e-006
-4.166767e-006
-4.171063e-006
-4.157830e-006
-4.126737e-006
-4.077085e-006
-4.007794e-006
-3.917446e-006
-3.804377e-006
-3.666834e-006
-3.503244e-006
-3.312601e-006
-3.094918e-006
-2.851648e-006
-2.585988e-006
-2.303033e-006
-2.009739e-006
-1.714594e-006
-1.426908e-006
-1.155816e-006
-9.092523e-007
-6.931526e-007
-5.109990e-007
-3.636387e-007
-2.493702e-007
-1.644010e-007
-1.036954e-007
-6.195973e-008
-3.436793e-008
-1.686082e-008
-6.216089e-009
-1.314350e-010
2.759708e-009
3.216824e-009
2.023277e-009
3.759859e-010
-4.614105e-010
1.083956e-011
1.120021e-009
1.635981e-009
9.413860e-010
-3.839789e-010
-1.165021e-009
-7.982630e-010
2.111557e-010
8.433249e-010
6.027501e-010
-8.383215e-011
-4.437939e-010
-2.072994e-010
1.877979e-010
-2.634688e-009
-7.961199e-010
1.135603e-009
1.766603e-009
9.936066e-010
-2.699606e-010
-1.026160e-009
-8.420245e-010
9.723798e-011
1.218208e-009
1.822973e-009
1.459659e-009
3.567970e-010
-5.157572e-010
-1.045515e-010
1.733467e-009
3.799779e-009
4.126018e-009
9.573387e-010
-6.886028e-009
-2.065080e-008
-4.268507e-008
-7.698769e-008
-1.289943e-007
-2.049743e-007
-3.114316e-007
-4.544857e-007
-6.390055e-007
-8.675354e-007
-1.139393e-006
-1.450311e-006
-1.792688e-006
-2.156266e-006
-2.529069e-006
-2.898506e-006
-3.252553e-006
-3.580779e-006
-3.875039e-006
-4.129730e-006
-4.341759e-006
-4.510336e-006
-4.636687e-006
-4.723712e-006
-4.775586e-006
-4.797380e-006
-4.794707e-006
-4.773432e-006
-4.739407e-006
-4.698233e-006
-4.655058e-006
-4.614389e-006
-4.579896e-006
-4.554190e-006
-4.538544e-006
-4.532600e-006
-4.534091e-006
-4.538634e-006
-4.539652e-006
-4.528515e-006
-4.495014e-006
-4.428214e-006
-4.317639e-006
-4.154674e-006
-3.934017e-006
-3.655001e-006
-3.322525e-006
-2.947224e-006
-2.544650e-006
-2.133479e-006
-1.733147e-006
-1.361386e-006
-1.032118e-006
-7.540088e-007
-5.299731e-007
-3.577644e-007
-2.314309e-007
-1.430407e-007
-8.409639e-008
-4.649315e-008
-2.325681e-008
-9.186793e-009
-1.109905e-009
2.609537e-009
3.102187e-009
1.784113e-009
2.787591e-010
-3.077510e-010
9.505610e-011
7.806692e-010
1.030415e-009
6.658411e-010
1.688872e-011
-4.588773e-010
-4.923310e-010
-1.062612e-010
4.189970e-010
6.865703e-010
4.452957e-010
-1.706113e-010
-6.904093e-010
-3.958429e-009
-2.170192e-010
2.993965e-009
2.718852e-009
-1.939397e-010
-2.543005e-009
-2.175443e-009
2.326697e-010
2.366403e-009
2.660157e-009
1.414957e-009
3.999766e-011
-3.046919e-010
6.296924e-010
2.295087e-009
3.609729e-009
3.073957e-009
-1.100268e-009
-1.085558e-008
-2.854393e-008
-5.777783e-008
-1.044111e-007
-1.768538e-007
-2.853702e-007
-4.406918e-007
-6.524384e-007
-9.274754e-007
-1.268095e-006
-1.670191e-006
-2.122055e-006
-2.604469e-006
-3.092300e-006
-3.557197e-006
-3.970747e-006
-4.307505e-006
-4.547452e-006
-4.677551e-006
-4.692250e-006
-4.593035e-006
-4.387375e-006
-4.087451e-006
-3.708899e-006
-3.269695e-006
-2.789183e-006
-2.287276e-006
-1.783828e-006
-1.298155e-006
-8.486727e-007
-4.526109e-007
-1.257635e-007
1.177775e-007
2.659742e-007
3.093417e-007
2.416293e-007
6.067780e-008
-2.306071e-007
-6.232757e-007
-1.101519e-006
-1.642260e-006
-2.215416e-006
-2.785079e-006
-3.311720e-006
-3.755407e-006
-4.079879e-006
-4.257070e-006
-4.271376e-006
-4.122663e-006
-3.827102e-006
-3.415325e-006
-2.928061e-006
-2.410016e-006
-1.903215e-006
-1.441288e-006
-1.046041e-006
-7.269664e-007
-4.832262e-007
-3.068662e-007
-1.859927e-007
-1.073666e-007
-5.846196e-008
-2.902713e-008
-1.185108e-008
-2.493586e-009
1.711962e-009
2.644687e-009
1.860501e-009
6.163626e-010
-2.072413e-010
-1.752555e-010
5.821657e-010
1.363578e-009
1.333726e-009
3.006520e-010
-9.210221e-010
-1.175430e-009
-1.746384e-010
1.063590e-009
1.204921e-009
4.971829e-011
-1.191005e-009
-3.821877e-009
4.661852e-010
3.737695e-009
2.605238e-009
-1.287881e-009
-3.605179e-009
-2.076440e-009
1.472929e-009
3.506535e-009
2.516945e-009
1.695561e-010
-8.187323e-010
6.053822e-010
3.157491e-009
4.575231e-009
3.057777e-009
-2.662567e-009