# vtk DataFile Version 3.0
vtk output
ASCII
DATASET STRUCTURED_POINTS
DIMENSIONS 100 100 1
SPACING 1 1 1
ORIGIN 0 0 0
POINT_DATA 10000
SCALARS SFBox_profile double
LOOKUP_TABLE default 
0.000000e+000
0.000000e+000
0.000000e+000
0.000000e+000
0.000000e+000
0.000000e+000
0.000000e+000
0.000000e+000
0.000000e+000
0.000000e+000
0.000000e+000
0.000000e+000
0.000000e+000
0.000000e+000
0.000000e+000
0.000000e+000
0.000000e+000
0.000000e+000
0.000000e+000
0.000000e+000
0.000000e+000
0.000000e+000
0.000000e+000
0.000000e+000
0.000000e+000
0.000000e+000
0.000000e+000
0.000000e+000
0.000000e+000
0.000000e+000
0.000000e+000
0.000000e+000
0.000000e+000
0.000000e+000
0.000000e+000
0.000000e+000
0.000000e+000
0.000000e+000
0.000000e+000
0.000000e+000
0.000000e+000
0.000000e+000
0.000000e+000
0.000000e+000
0.000000e+000
0.000000e+000
0.000000e+000
0.000000e+000
0.000000e+000
0.000000e+000
0.000000e+000
0.000000e+000
0.000000e+000
0.000000e+000
0.000000e+000
0.000000e+000
0.000000e+000
0.000000e+000
0.000000e+000
0.000000e+000
0.000000e+000
0.000000e+000
0.000000e+000
0.000000e+000
0.000000e+000
0.000000e+000
0.000000e+000
0.000000e+000
0.000000e+000
0.000000e+000
0.000000e+000
0.000000e+000
0.000000e+000
0.000000e+000
0.000000e+000
0.000000e+000
0.000000e+000
0.000000e+000
0.000000e+000
0.000000e+000
0.000000e+000
0.000000e+000
0.000000e+000
0.000000e+000
0.000000e+000
0.000000e+000
0.000000e+000
0.000000e+000
0.000000e+000
0.000000e+000
0.000000e+000
0.000000e+000
0.000000e+000
0.000000e+000
0.000000e+000
0.000000e+000
0.000000e+000
0.000000e+000
0.000000e+000
0.000000e+000
-1.079021e-008
-1.073791e-008
-9.606205e-009
-6.153889e-009
-1.059607e-010
7.040233e-009
1.226527e-008
1.247925e-008
6.496734e-009
-3.712702e-009
-1.352681e-008
-1.791661e-008
-1.421480e-008
-3.704096e-009
8.993289e-009
1.833732e-008
2.059821e-008
1.533800e-008
5.055326e-009
-6.418040e-009
-1.562619e-008
-2.046467e-008
-2.030509e-008
-1.565988e-008
-7.795323e-009
1.577471e-009
1.061453e-008
1.770791e-008
2.182048e-008
2.263596e-008
2.046728e-008
1.601054e-008
1.009308e-008
3.510221e-009
-3.048791e-009
-9.033932e-009
-1.406087e-008
-1.792809e-008
-2.060729e-008
-2.220322e-008
-2.289865e-008
-2.290523e-008
-2.243121e-008
-2.166486e-008
-2.076688e-008
-1.986726e-008
-1.906486e-008
-1.842944e-008
-1.800509e-008
-1.781347e-008
-1.785597e-008
-1.811432e-008
-1.855015e-008
-1.910380e-008
-1.969291e-008
-2.021143e-008
-2.052958e-008
-2.049602e-008
-1.994403e-008
-1.870515e-008
-1.663326e-008
-1.363872e-008
-9.725909e-009
-5.023607e-009
2.002335e-010
5.540565e-009
1.047203e-008
1.438541e-008
1.665998e-008
1.678546e-008
1.451887e-008
1.002342e-008
3.924126e-009
-2.753663e-009
-8.745385e-009
-1.277050e-008
-1.380418e-008
-1.139824e-008
-5.990939e-009
9.710190e-010
7.314284e-009
1.087802e-008
1.044370e-008
6.352659e-009
4.007606e-010
-4.982243e-009
-7.814420e-009
-7.322727e-009
-4.073325e-009
4.282953e-010
4.356387e-009
6.172429e-009
5.148309e-009
1.727911e-009
-2.489497e-009
-5.360075e-009
-5.290231e-009
-2.241004e-009
2.083808e-009
5.156055e-009
-1.248186e-008
-8.208772e-009
-1.949399e-009
3.152609e-009
4.964777e-009
3.432960e-009
2.576559e-010
-2.407877e-009
-3.240411e-009
-2.222023e-009
-2.413731e-010
1.646277e-009
2.719908e-009
2.677623e-009
1.527984e-009
-4.450066e-010
-2.631583e-009
-4.165506e-009
-4.247743e-009
-2.585758e-009
3.683168e-010
3.586265e-009
5.943986e-009
6.701936e-009
5.716766e-009
3.343486e-009
1.860327e-010
-3.120167e-009
-6.020774e-009
-8.087322e-009
-9.051092e-009
-8.835008e-009
-7.553645e-009
-5.462730e-009
-2.877563e-009
-9.965099e-011
2.623452e-009
5.108050e-009
7.231534e-009
8.929167e-009
1.019045e-008
1.105010e-008
1.157250e-008
1.183443e-008
1.191145e-008
1.187051e-008
1.176703e-008
1.164406e-008
1.153168e-008
1.144663e-008
1.139221e-008
1.135854e-008
1.132320e-008
1.125186e-008
1.109905e-008
1.080960e-008
1.032172e-008
9.573044e-009
8.510248e-009
7.101122e-009
5.346627e-009
3.290494e-009
1.025558e-009
-1.303133e-009
-3.500651e-009
-5.335881e-009
-6.572391e-009
-7.014869e-009
-6.558850e-009
-5.227859e-009
-3.189873e-009
-7.549057e-010
1.647396e-009
3.526437e-009
4.445118e-009
4.176712e-009
2.834823e-009
8.820565e-010
-1.025048e-009
-2.290844e-009
-2.597697e-009
-1.979150e-009
-7.522997e-010
6.073933e-010
1.589018e-009
1.785056e-009
1.074486e-009
-2.237085e-010
-1.399911e-009
-1.708973e-009
-8.798363e-010
5.962440e-010
1.708374e-009
1.622010e-009
3.367334e-010
-1.240318e-009
-1.933449e-009
-1.195720e-009
4.420352e-010
1.753563e-009
-7.373931e-009
-1.049620e-009
7.074796e-009
1.099155e-008
7.288309e-009
-2.426833e-009
-1.236784e-008
-1.615381e-008
-1.082322e-008
1.273924e-009
1.383209e-008
2.022667e-008
1.712382e-008
5.992747e-009
-8.056865e-009
-1.906979e-008
-2.293436e-008
-1.869884e-008
-8.303723e-009
4.654465e-009
1.632687e-008
2.368025e-008
2.509478e-008
2.053542e-008
1.135595e-008
-1.969013e-010
-1.164114e-008
-2.087255e-008
-2.655076e-008
-2.819388e-008
-2.604575e-008
-2.083912e-008
-1.355613e-008
-5.232268e-009
3.188578e-009
1.095142e-008
1.754025e-008
2.268328e-008
2.632247e-008
2.856261e-008
2.961425e-008
2.974061e-008
2.921450e-008
2.828787e-008
2.717493e-008
2.604653e-008
2.503186e-008
2.422297e-008
2.367928e-008
2.343084e-008
2.348019e-008
2.380335e-008
2.434969e-008
2.504083e-008
2.576846e-008
2.639216e-008
2.673890e-008
2.660712e-008
2.577835e-008
2.403882e-008
2.121180e-008
1.719870e-008
1.202380e-008
5.873674e-009
-8.791781e-010
-7.678479e-009
-1.381848e-008
-1.851389e-008
-2.100800e-008
-2.071976e-008
-1.741815e-008
-1.138557e-008
-3.503672e-009
4.810339e-009
1.185056e-008
1.601654e-008
1.625555e-008
1.242893e-008
5.488686e-009
-2.628932e-009
-9.454268e-009
-1.275251e-008
-1.140780e-008
-6.034120e-009
1.101006e-009
6.980823e-009
9.225941e-009
7.237169e-009
2.421784e-009
-2.645241e-009
-5.617290e-009
-5.501938e-009
-2.924615e-009
4.750326e-010
3.021370e-009
3.765992e-009
2.721512e-009
6.224861e-010
-1.521937e-009
-2.836445e-009
9.934705e-009
1.056199e-008
1.023122e-008
7.017900e-009
3.927378e-010
-7.718952e-009
-1.346791e-008
-1.318604e-008
-5.901643e-009
5.448745e-009
1.519488e-008
1.802187e-008
1.209513e-008
1.893709e-010
-1.190806e-008
-1.863195e-008
-1.743956e-008
-9.609600e-009
1.049731e-009
1.040381e-008
1.570226e-008
1.611870e-008
1.234930e-008
5.906078e-009
-1.444747e-009
-8.035630e-009
-1.256488e-008
-1.432543e-008
-1.330909e-008
-1.010030e-008
-5.597791e-009
-7.096061e-010
3.844966e-009
7.592797e-009
1.027815e-008
1.181701e-008
1.226431e-008
1.178510e-008
1.061494e-008
9.010808e-009
7.207158e-009
5.389664e-009
3.688236e-009
2.182951e-009
9.153399e-010
-9.961340e-011
-8.627853e-010
-1.382430e-009
-1.668347e-009
-1.728554e-009
-1.567829e-009
-1.187474e-009
-5.861552e-010
2.378718e-010
1.282652e-009
2.536210e-009
3.968006e-009
5.518793e-009
7.090781e-009
8.542032e-009
9.690409e-009
1.033112e-008
1.026693e-008
9.344519e-009
7.489268e-009
4.736514e-009
1.262752e-009
-2.584915e-009
-6.280856e-009
-9.168941e-009
-1.058893e-008
-1.006134e-008
-7.467950e-009
-3.159312e-009
2.043778e-009
6.953714e-009
1.022945e-008
1.072542e-008
7.956389e-009
2.515421e-009
-3.854050e-009
-8.771779e-009
-1.023357e-008
-7.631601e-009
-2.152015e-009
3.760143e-009
7.590165e-009
7.910461e-009
4.901452e-009
9.455360e-011
-4.375334e-009
-6.618265e-009
-5.694524e-009
-2.037195e-009
2.594851e-009
5.811763e-009
5.809384e-009
2.498124e-009
-2.259595e-009
-5.655508e-009
3.109479e-008
2.065078e-008
5.291790e-009
-7.393224e-009
-1.223450e-008
-8.973846e-009
-1.461488e-009
5.330626e-009
8.141688e-009
6.459553e-009
1.809270e-009
-3.536723e-009
-7.437059e-009
-8.272204e-009
-5.312108e-009
7.788622e-010
7.758903e-009
1.250054e-008
1.246494e-008
7.103907e-009
-1.765743e-009
-1.087106e-008
-1.704393e-008
-1.846582e-008
-1.502525e-008
-7.900309e-009
1.129306e-009
1.022662e-008
1.780443e-008
2.270386e-008
2.432639e-008
2.268682e-008
1.832488e-008
1.209049e-008
4.900013e-009
-2.437868e-009
-9.296631e-009
-1.524062e-008
-2.001371e-008
-2.352659e-008
-2.583569e-008
-2.710558e-008
-2.756011e-008
-2.743678e-008
-2.695535e-008
-2.630237e-008
-2.562642e-008
-2.503822e-008
-2.461210e-008
-2.438777e-008
-2.437174e-008
-2.453813e-008
-2.482886e-008
-2.515333e-008
-2.538821e-008
-2.537851e-008
-2.494249e-008
-2.388409e-008
-2.201599e-008
-1.919278e-008
-1.534841e-008
-1.052981e-008
-4.920878e-009
1.143463e-009
7.174419e-009
1.254865e-008
1.657009e-008
1.858715e-008
1.814923e-008
1.515668e-008
9.954869e-009
3.347733e-009
-3.472846e-009
-9.096786e-009
-1.219749e-008
-1.195553e-008
-8.469583e-009
-2.905860e-009
2.815335e-009
6.745497e-009
7.702294e-009
5.707734e-009
1.870898e-009
-2.141053e-009
-4.734525e-009
-4.915724e-009
-2.662220e-009
9.325037e-010
3.958226e-009
4.581011e-009
2.226758e-009
-1.756008e-009
-4.705127e-009
-4.414093e-009
-8.746092e-010
3.465185e-009
5.378175e-009
3.325719e-009
-1.242950e-009
-4.909768e-009
3.699652e-008
1.996867e-008
-3.458104e-009
-1.913907e-008
-1.864824e-008
-4.311439e-009
1.308943e-008
2.186149e-008
1.676104e-008
1.457151e-009
-1.476822e-008
-2.309681e-008
-1.985983e-008
-7.459046e-009
7.982001e-009
2.002944e-008
2.444353e-008
2.012083e-008
8.852292e-009
-5.551837e-009
-1.850167e-008
-2.605973e-008
-2.618199e-008
-1.925112e-008
-7.653764e-009
5.322123e-009
1.665590e-008
2.432032e-008
2.744838e-008
2.614391e-008
2.118880e-008
1.376578e-008
5.200218e-009
-3.282730e-009
-1.074322e-008
-1.660638e-008
-2.063697e-008
-2.285822e-008
-2.346783e-008
-2.277282e-008
-2.113614e-008
-1.892562e-008
-1.646849e-008
-1.402289e-008
-1.177195e-008
-9.835258e-009
-8.286771e-009
-7.170280e-009
-6.509390e-009
-6.312968e-009
-6.577836e-009
-7.289574e-009
-8.421400e-009
-9.930497e-009
-1.175094e-008
-1.378296e-008
-1.588033e-008
-1.784081e-008
-1.940664e-008
-2.028036e-008
-2.015616e-008
-1.876269e-008
-1.591291e-008
-1.155998e-008
-5.856706e-009
7.938020e-010
7.720702e-009
1.402642e-008
1.869596e-008
2.076635e-008
1.954245e-008
1.484153e-008
7.219761e-009
-1.926828e-009
-1.052826e-008
-1.634272e-008
-1.768225e-008
-1.407388e-008
-6.549300e-009
2.577809e-009
1.037223e-008
1.418782e-008
1.262126e-008
6.240451e-009
-2.309711e-009
-9.190519e-009
-1.115686e-008
-7.418826e-009
-3.224826e-010
5.903305e-009
7.765065e-009
4.748452e-009
-4.849064e-010
-4.158718e-009
-4.148270e-009
-1.317522e-009
1.544333e-009
2.188495e-009
6.654001e-010
-1.040546e-009
1.431317e-008
4.008948e-009
-9.060089e-009
-1.521489e-008
-9.596238e-009
4.273193e-009
1.686602e-008
1.926917e-008
9.339534e-009
-6.899748e-009
-1.942865e-008
-2.083637e-008
-1.075962e-008
4.548242e-009
1.662628e-008
1.981663e-008
1.373700e-008
2.366369e-009
-8.822997e-009
-1.556150e-008
-1.606236e-008
-1.092685e-008
-2.358569e-009
6.756696e-009
1.370399e-008
1.665252e-008
1.507985e-008
9.751321e-009
2.279747e-009
-5.496568e-009
-1.203023e-008
-1.632467e-008
-1.796215e-008
-1.700627e-008
-1.386412e-008
-9.143365e-009
-3.517711e-009
2.383210e-009
8.044570e-009
1.309674e-008
1.731771e-008
2.062067e-008
2.303233e-008
2.466218e-008
2.566569e-008
2.620867e-008
2.644075e-008
2.648070e-008
2.641147e-008
2.627978e-008
2.609672e-008
2.583803e-008
2.544428e-008
2.482253e-008
2.385127e-008
2.239151e-008
2.030639e-008
1.748898e-008
1.389485e-008
9.572908e-009
4.688177e-009
-4.682962e-010
-5.485843e-009
-9.860518e-009
-1.304554e-008
-1.452856e-008
-1.393489e-008
-1.114928e-008
-6.436322e-009
-5.172777e-010
5.460895e-009
1.012113e-008
1.221386e-008
1.103910e-008
6.769376e-009
5.299825e-010
-5.817770e-009
-1.015904e-008
-1.079986e-008
-7.200492e-009
-4.943878e-010
6.611299e-009
1.083035e-008
9.945770e-009
4.232274e-009
-3.394963e-009
-8.882735e-009
-9.402204e-009
-5.030109e-009
1.414312e-009
6.240584e-009
7.130226e-009
4.262892e-009
-2.228682e-010
-3.788361e-009
-4.906707e-009
-3.553392e-009
-7.959706e-010
1.973970e-009
3.644019e-009
-2.863606e-008
-2.030587e-008
-7.447651e-009
4.486518e-009
1.117013e-008
1.108350e-008
5.526024e-009
-2.393756e-009
-8.941068e-009
-1.089475e-008
-6.812620e-009
1.870970e-009
1.087491e-008
1.493583e-008
1.085942e-008
-1.837518e-010
-1.290586e-008
-2.075978e-008
-1.957118e-008
-9.618047e-009
4.921927e-009
1.839970e-008
2.627686e-008
2.653764e-008
1.970372e-008
8.028114e-009
-5.467011e-009
-1.778457e-008
-2.654237e-008
-3.036482e-008
-2.902011e-008
-2.326381e-008
-1.446196e-008
-4.160517e-009
6.245020e-009
1.567992e-008
2.343124e-008
2.912248e-008
3.266567e-008
3.420504e-008
3.405197e-008
3.261427e-008
3.032878e-008
2.760777e-008
2.480496e-008
2.220098e-008
2.000385e-008
1.835763e-008
1.735294e-008
1.703500e-008
1.740759e-008
1.843354e-008
2.003273e-008
2.207798e-008
2.438926e-008
2.672798e-008
2.879546e-008
3.024230e-008
3.069413e-008
2.979481e-008
2.726172e-008
2.294354e-008
1.687323e-008
9.314878e-009
8.030080e-010
-7.838520e-009
-1.553102e-008
-2.106889e-008
-2.335633e-008
-2.171345e-008
-1.615905e-008
-7.564915e-009
2.387716e-009
1.147010e-008
1.737943e-008
1.839115e-008
1.406592e-008
5.721495e-009
-3.718630e-009
-1.071061e-008
-1.262994e-008
-9.084328e-009
-2.165972e-009
4.613648e-009
8.122634e-009
7.103171e-009
2.593989e-009
-2.778997e-009
-6.146963e-009
-5.761794e-009
-1.883530e-009
3.211056e-009
6.332024e-009
5.286977e-009
5.239534e-010
-4.824354e-009
-6.931701e-009
-4.102108e-009
1.758054e-009
6.395370e-009
-6.272305e-008
-3.658376e-008
-2.102705e-010
2.541422e-008
2.791593e-008
1.041943e-008
-1.241006e-008
-2.515915e-008
-2.113302e-008
-4.661984e-009
1.361903e-008
2.389066e-008
2.190227e-008
9.631417e-009
-6.910887e-009
-2.066709e-008
-2.610498e-008
-2.103448e-008
-7.387844e-009
9.492216e-009
2.307772e-008
2.846764e-008
2.431661e-008
1.291522e-008
-1.352092e-009
-1.404915e-008
-2.212705e-008
-2.436043e-008
-2.106502e-008
-1.357736e-008
-3.770455e-009
6.365607e-009
1.510318e-008
2.126410e-008
2.432555e-008
2.432841e-008
2.167530e-008
1.693708e-008
1.073214e-008
3.668135e-009
-3.694775e-009
-1.088148e-008
-1.753266e-008
-2.341257e-008
-2.839034e-008
-3.240667e-008
-3.544150e-008
-3.749183e-008
-3.856091e-008
-3.865498e-008
-3.778367e-008
-3.596075e-008
-3.320452e-008
-2.953911e-008
-2.500045e-008
-1.965106e-008
-1.360441e-008
-7.052779e-009
-2.869020e-010
6.303426e-009
1.224870e-008
1.703078e-008
2.012028e-008
2.103052e-008
1.940926e-008
1.517390e-008
8.654690e-009
6.775328e-010
-7.474655e-009
-1.423739e-008
-1.805232e-008
-1.773767e-008
-1.291009e-008
-4.366033e-009
5.786513e-009
1.450239e-008
1.876378e-008
1.684128e-008
9.232131e-009
-1.306807e-009
-1.076175e-008
-1.547039e-008
-1.363173e-008
-6.126897e-009
3.664158e-009
1.112635e-008
1.251636e-008
7.112015e-009
-1.924323e-009
-9.034430e-009
-9.726148e-009
-3.824204e-009
4.134261e-009
8.149443e-009
5.414478e-009
-1.412482e-009
-6.424070e-009
-5.473058e-009
3.025764e-010
5.567258e-009
-5.817224e-008
-3.017321e-008
7.079681e-009
2.969237e-008
2.547250e-008
1.525587e-009
-2.240608e-008
-2.894356e-008
-1.482923e-008
8.584463e-009
2.498805e-008
2.466293e-008
9.696959e-009
-9.385400e-009
-2.148659e-008
-2.124157e-008
-1.045299e-008
4.561042e-009
1.683843e-008
2.160514e-008
1.746988e-008
6.358097e-009
-7.432360e-009
-1.884337e-008
-2.391467e-008
-2.114240e-008
-1.171670e-008
1.349661e-009
1.456881e-008
2.506350e-008
3.104881e-008
3.182917e-008
2.759527e-008
1.918677e-008
7.832219e-009
-5.141845e-009
-1.857176e-008
-3.160146e-008
-4.368874e-008
-5.453155e-008
-6.399193e-008
-7.205071e-008
-7.877826e-008
-8.429741e-008
-8.873711e-008
-9.219451e-008
-9.472055e-008
-9.632853e-008
-9.701403e-008
-9.677346e-008
-9.561499e-008
-9.356018e-008
-9.063672e-008
-8.686374e-008
-8.223441e-008
-7.670433e-008
-7.019610e-008
-6.262379e-008
-5.393062e-008
-4.412699e-008
-3.332365e-008
-2.176776e-008
-9.890463e-009
1.647949e-009
1.195615e-008
1.999477e-008
2.475032e-008
2.546601e-008
2.188571e-008
1.447663e-008
4.575528e-009
-5.659354e-009
-1.363324e-008
-1.706219e-008
-1.486165e-008
-7.756368e-009
1.760553e-009
1.019497e-008
1.428722e-008
1.229436e-008
4.890806e-009
-4.732388e-009
-1.192692e-008
-1.276469e-008
-6.457780e-009
3.581023e-009
1.131019e-008
1.182834e-008
4.902379e-009
-4.590129e-009
-1.007587e-008
-8.160831e-009
-1.080418e-009
5.347160e-009
6.555521e-009
2.726328e-009
-1.962142e-009
-3.423348e-009
-1.242484e-009
1.451864e-009
-9.302696e-009
-6.358888e-010
9.071441e-009
1.098379e-008
2.641294e-009
-9.590197e-009
-1.542804e-008
-9.128377e-009
5.408248e-009
1.723103e-008
1.675050e-008
3.304469e-009
-1.410202e-008
-2.333511e-008
-1.773415e-008
-3.707906e-010
1.859000e-008
2.871343e-008
2.518403e-008
1.036949e-008
-8.707186e-009
-2.438053e-008
-3.137904e-008
-2.801044e-008
-1.590343e-008
1.018532e-009
1.791769e-008
3.048130e-008
3.602261e-008
3.387666e-008
2.505031e-008
1.146283e-008
-4.784468e-009
-2.187070e-008
-3.846303e-008
-5.377570e-008
-6.753610e-008
-7.986269e-008
-9.108106e-008
-1.015458e-007
-1.115276e-007
-1.211707e-007
-1.304866e-007
-1.393544e-007
-1.475290e-007
-1.546709e-007
-1.604026e-007
-1.643748e-007
-1.663233e-007
-1.661041e-007
-1.637089e-007
-1.592640e-007
-1.530176e-007
-1.453106e-007
-1.365315e-007
-1.270574e-007
-1.171964e-007
-1.071458e-007
-9.697399e-008
-8.661969e-008
-7.590457e-008
-6.456721e-008
-5.233899e-008
-3.906914e-008
-2.487459e-008
-1.026778e-008
3.781589e-009
1.588475e-008
2.441278e-008
2.785774e-008
2.535584e-008
1.722114e-008
5.229898e-009
-7.570061e-009
-1.756769e-008
-2.165077e-008
-1.833571e-008
-8.611216e-009
3.941966e-009
1.417149e-008
1.751955e-008
1.250036e-008
1.949090e-009
-8.203532e-009
-1.234164e-008
-8.677668e-009
-3.395247e-010
6.895062e-009
8.605234e-009
4.516785e-009
-1.846370e-009
-6.059868e-009
-5.838536e-009
-2.086821e-009
2.335540e-009
4.769493e-009
4.219290e-009
1.460293e-009
-1.797121e-009
-3.898778e-009
5.669556e-008
3.510443e-008
4.180333e-009
-1.955610e-008
-2.544028e-008
-1.402237e-008
4.995953e-009
1.954248e-008
2.175755e-008
1.111138e-008
-6.309769e-009
-2.110762e-008
-2.505564e-008
-1.527182e-008
3.835799e-009
2.242487e-008
3.047255e-008
2.350192e-008
5.097719e-009
-1.540644e-008
-2.833512e-008
-2.854762e-008
-1.707842e-008
5.771746e-010
1.766151e-008
2.881212e-008
3.128443e-008
2.494737e-008
1.161594e-008
-5.879120e-009
-2.465536e-008
-4.255839e-008
-5.856053e-008
-7.273247e-008
-8.592479e-008
-9.935922e-008
-1.142642e-007
-1.316025e-007
-1.519033e-007
-1.752008e-007
-2.010668e-007
-2.286955e-007
-2.570012e-007
-2.847116e-007
-3.104696e-007
-3.329464e-007
-3.509558e-007
-3.635468e-007
-3.700623e-007
-3.701632e-007
-3.638340e-007
-3.513787e-007
-3.334106e-007
-3.108303e-007
-2.847796e-007
-2.565625e-007
-2.275382e-007
-1.990054e-007
-1.720938e-007
-1.476722e-007
-1.262664e-007
-1.079880e-007
-9.249726e-008
-7.903699e-008
-6.656362e-008
-5.397709e-008
-4.042615e-008
-2.563693e-008
-1.017212e-008
4.506206e-009
1.627571e-008
2.290918e-008
2.284348e-008
1.596854e-008
4.166885e-009
-8.742488e-009
-1.797092e-008
-1.961085e-008
-1.268402e-008
-1.606512e-010
1.205478e-008
1.801604e-008
1.496710e-008
4.908174e-009
-6.543914e-009
-1.331673e-008
-1.218411e-008
-4.397791e-009
5.127243e-009
1.062014e-008
8.857035e-009
1.282066e-009
-6.701772e-009
-9.308056e-009
-4.653270e-009
3.545200e-009
8.662622e-009
6.503931e-009
-1.092214e-009
-7.682406e-009
9.587697e-008
5.296352e-008
-4.536262e-009
-4.092253e-008
-3.836621e-008
-7.186095e-009
2.507560e-008
3.521172e-008
1.939017e-008
-7.900386e-009
-2.707214e-008
-2.710457e-008
-1.054307e-008
1.092771e-008
2.486563e-008
2.456123e-008
1.115116e-008
-8.055607e-009
-2.340736e-008
-2.731792e-008
-1.764732e-008
1.453486e-009
2.173161e-008
3.485010e-008
3.594586e-008
2.493735e-008
5.412620e-009
-1.769395e-008
-4.019890e-008
-5.979450e-008
-7.623796e-008
-9.097934e-008
-1.065465e-007
-1.258638e-007
-1.516163e-007
-1.857582e-007
-2.292306e-007
-2.818999e-007
-3.426739e-007
-4.097195e-007
-4.806997e-007
-5.529785e-007
-6.237854e-007
-6.903639e-007
-7.501208e-007
-8.007660e-007
-8.404177e-007
-8.676586e-007
-8.815511e-007
-8.816333e-007
-8.679104e-007
-8.408502e-007
-8.013830e-007
-7.509010e-007
-6.912434e-007
-6.246497e-007
-5.536650e-007
-4.810052e-007
-4.094022e-007
-3.414505e-007
-2.794492e-007
-2.252237e-007
-1.799261e-007
-1.438543e-007
-1.163516e-007
-9.584870e-008
-8.007568e-008
-6.644825e-008
-5.259460e-008
-3.695366e-008
-1.932131e-008
-1.153822e-009
1.461580e-008
2.444464e-008
2.566235e-008
1.804756e-008
4.619160e-009
-9.090909e-009
-1.725113e-008
-1.644299e-008
-7.437575e-009
4.990113e-009
1.426162e-008
1.529999e-008
7.425744e-009
-4.791226e-009
-1.373982e-008
-1.342550e-008
-3.884057e-009
8.147734e-009
1.373803e-008
8.682880e-009
-2.755854e-009
-1.105481e-008
-9.462096e-009
5.711943e-011
8.587212e-009
8.446516e-009
2.764025e-010
-7.718049e-009
7.777061e-008
3.853223e-008
-1.125941e-008
-3.722164e-008
-2.593150e-008
6.574067e-009
3.023884e-008
2.608362e-008
-9.157204e-011
-2.517268e-008
-2.895208e-008
-9.538297e-009
1.731098e-008
3.189452e-008
2.490502e-008
2.063727e-009
-2.194188e-008
-3.361601e-008
-2.763158e-008
-7.775145e-009
1.653100e-008
3.504030e-008
4.061552e-008
3.130346e-008
1.025096e-008
-1.631894e-008
-4.215064e-008
-6.361826e-008
-8.088869e-008
-9.740088e-008
-1.183485e-007
-1.490904e-007
-1.940549e-007
-2.562045e-007
-3.368597e-007
-4.357033e-007
-5.509125e-007
-6.794276e-007
-8.173317e-007
-9.602459e-007
-1.103648e-006
-1.243091e-006
-1.374355e-006
-1.493604e-006
-1.597526e-006
-1.683433e-006
-1.749276e-006
-1.793612e-006
-1.815530e-006
-1.814613e-006
-1.790914e-006
-1.744953e-006
-1.677731e-006
-1.590768e-006
-1.486145e-006
-1.366547e-006
-1.235251e-006
-1.096050e-006
-9.531050e-007
-8.107825e-007
-6.734695e-007
-5.453568e-007
-4.301587e-007
-3.307845e-007
-2.490223e-007
-1.852978e-007
-1.385427e-007
-1.061955e-007
-8.439551e-008
-6.848601e-008
-5.391113e-008
-3.740848e-008
-1.811565e-008
1.986118e-009
1.874747e-008
2.762231e-008
2.591162e-008
1.449998e-008
-1.808891e-009
-1.579091e-008
-2.086411e-008
-1.456868e-008
-5.483921e-010
1.279430e-008
1.712346e-008
9.872390e-009
-3.439820e-009
-1.286068e-008
-1.156052e-008
-1.342698e-009
8.872488e-009
1.070433e-008
3.484344e-009
-5.581154e-009
-8.385769e-009
-3.378945e-009
3.584195e-009
5.543147e-009
1.372338e-009
-3.591720e-009
7.562337e-009
-1.997845e-009
-1.085994e-008
-8.669227e-009
4.337034e-009
1.648903e-008
1.506547e-008
-1.345187e-009
-2.010935e-008
-2.464927e-008
-8.897439e-009
1.662904e-008
3.266917e-008
2.641565e-008
1.432658e-009
-2.535280e-008
-3.628413e-008
-2.486107e-008
1.399975e-009
2.740215e-008
4.002922e-008
3.426609e-008
1.347366e-008
-1.437961e-008
-4.135510e-008
-6.291624e-008
-7.940390e-008
-9.578280e-008
-1.200775e-007
-1.611193e-007
-2.264110e-007
-3.208004e-007
-4.461666e-007
-6.018006e-007
-7.849700e-007
-9.913537e-007
-1.215355e-006
-1.450447e-006
-1.689633e-006
-1.925928e-006
-2.152769e-006
-2.364304e-006
-2.555612e-006
-2.722870e-006
-2.863431e-006
-2.975743e-006
-3.059115e-006
-3.113406e-006
-3.138738e-006
-3.135298e-006
-3.103244e-006
-3.042688e-006
-2.953790e-006
-2.836915e-006
-2.692900e-006
-2.523339e-006
-2.330843e-006
-2.119165e-006
-1.893160e-006
-1.658616e-006
-1.421997e-006
-1.190109e-006
-9.696878e-007
-7.669389e-007
-5.871082e-007
-4.341319e-007
-3.103427e-007
-2.161547e-007
-1.497300e-007
-1.068105e-007
-8.101522e-008
-6.481568e-008
-5.112012e-008
-3.506096e-008
-1.537631e-008
5.242257e-009
2.129321e-008
2.712443e-008
2.033412e-008
4.202597e-009
-1.281895e-008
-2.124519e-008
-1.637805e-008
-1.813831e-009
1.255496e-008
1.731857e-008
1.025408e-008
-2.371104e-009
-1.102037e-008
-1.030178e-008
-2.483495e-009
5.378842e-009
7.618325e-009
3.951173e-009
-1.548359e-009
-4.611574e-009
-3.951493e-009
-1.157112e-009
1.542686e-009
2.980095e-009
-7.584853e-008
-4.514259e-008
-2.196260e-009
2.865693e-008
3.290816e-008
1.363635e-008
-1.274061e-008
-2.811465e-008
-2.347281e-008
-2.993271e-009
1.955459e-008
2.940017e-008
1.977439e-008
-3.590861e-009
-2.557753e-008
-3.119063e-008
-1.555710e-008
1.255462e-008
3.632613e-008
4.153796e-008
2.470740e-008
-6.414864e-009
-3.920530e-008
-6.427180e-008
-8.033572e-008
-9.427996e-008
-1.179639e-007
-1.643640e-007
-2.446612e-007
-3.666274e-007
-5.340527e-007
-7.469066e-007
-1.001949e-006
-1.293437e-006
-1.613630e-006
-1.953038e-006
-2.300690e-006
-2.644709e-006
-2.973258e-006
-3.275640e-006
-3.543287e-006
-3.770451e-006
-3.954577e-006
-4.096308e-006
-4.199081e-006
-4.268312e-006
-4.310311e-006
-4.331136e-006
-4.335590e-006
-4.326499e-006
-4.304313e-006
-4.267068e-006
-4.210705e-006
-4.129729e-006
-4.018149e-006
-3.870589e-006
-3.683408e-006
-3.455608e-006
-3.189357e-006
-2.890069e-006
-2.566059e-006
-2.227834e-006
-1.887086e-006
-1.555572e-006
-1.244086e-006
-9.617484e-007
-7.156256e-007
-5.105224e-007
-3.487363e-007
-2.297123e-007
-1.497206e-007
-1.018058e-007
-7.629909e-008
-6.218258e-008
-4.941437e-008
-3.179165e-008
-9.132103e-009
1.286790e-008
2.596763e-008
2.474931e-008
1.086919e-008
-6.996256e-009
-1.807763e-008
-1.625686e-008
-3.904891e-009
9.991403e-009
1.608635e-008
1.089789e-008
-1.206543e-009
-1.138220e-008
-1.258281e-008
-4.470832e-009
6.429906e-009
1.162731e-008
7.231849e-009
-2.854715e-009
-1.003772e-008
-8.254544e-009
7.381118e-010
8.852597e-009
-1.240049e-007
-6.521152e-008
1.054758e-008
5.306690e-008
4.198868e-008
-1.551852e-009
-3.668727e-008
-3.668517e-008
-6.638579e-009
2.600016e-008
3.583732e-008
1.777727e-008
-1.270709e-008
-3.334692e-008
-3.050715e-008
-6.381025e-009
2.418559e-008
4.323841e-008
3.959911e-008
1.409425e-008
-2.216370e-008
-5.519066e-008
-7.694575e-008
-9.061108e-008
-1.098547e-007
-1.534382e-007
-2.389191e-007
-3.786731e-007
-5.790454e-007
-8.413461e-007
-1.162969e-006
-1.537749e-006
-1.955669e-006
-2.402422e-006
-2.859316e-006
-3.303889e-006
-3.711499e-006
-4.057867e-006
-4.322182e-006
-4.490061e-006
-4.555707e-006
-4.522923e-006
-4.404889e-006
-4.222781e-006
-4.003408e-006
-3.776159e-006
-3.569720e-006
-3.408986e-006
-3.312509e-006
-3.290645e-006
-3.344539e-006
-3.466023e-006
-3.638438e-006
-3.838321e-006
-4.037837e-006
-4.207779e-006
-4.320854e-006
-4.354852e-006
-4.295238e-006
-4.136785e-006
-3.884006e-006
-3.550313e-006
-3.155964e-006
-2.725137e-006
-2.282713e-006
-1.851453e-006
-1.450089e-006
-1.092476e-006
-7.876350e-007
-5.403050e-007
-3.515052e-007
-2.186601e-007
-1.352008e-007
-9.020949e-008
-6.921258e-008
-5.697470e-008
-4.185956e-008
-1.973156e-008
5.178447e-009
2.367479e-008
2.786831e-008
1.679807e-008
-2.116267e-009
-1.700253e-008
-1.875046e-008
-7.047951e-009
9.080320e-009
1.740191e-008
1.162113e-008
-3.316916e-009
-1.477784e-008
-1.295615e-008
2.968792e-010
1.274731e-008
1.289684e-008
9.286454e-010
-1.132007e-008
-1.188862e-008
-5.563213e-010
1.097882e-008
-1.080963e-007
-5.027488e-008
1.964404e-008
5.007347e-008
2.679743e-008
-1.880086e-008
-4.140995e-008
-2.226129e-008
1.781225e-008
4.108928e-008
2.755276e-008
-9.746456e-009
-3.886344e-008
-3.664862e-008
-5.640093e-009
3.095563e-008
4.816971e-008
3.569131e-008
1.350306e-009
-3.737524e-008
-6.588370e-008
-8.140674e-008
-9.509602e-008
-1.280270e-007
-2.041157e-007
-3.434289e-007
-5.584558e-007
-8.539086e-007
-1.228480e-006
-1.676081e-006
-2.184970e-006
-2.735126e-006
-3.295589e-006
-3.823667e-006
-4.267053e-006
-4.568863e-006
-4.674833e-006
-4.541398e-006
-4.143077e-006
-3.477648e-006
-2.568163e-006
-1.461606e-006
-2.246656e-007
1.062565e-006
2.314016e-006
3.445185e-006
4.379932e-006
5.055957e-006
5.428801e-006
5.474494e-006
5.190915e-006
4.597920e-006
3.736215e-006
2.664945e-006
1.457937e-006
1.984925e-007
-1.027199e-006
-2.137571e-006
-3.063304e-006
-3.754016e-006
-4.182999e-006
-4.349095e-006
-4.275191e-006
-4.003386e-006
-3.587674e-006
-3.085630e-006
-2.550746e-006
-2.026866e-006
-1.545547e-006
-1.126377e-006
-7.793683e-007
-5.078624e-007
-3.103764e-007
-1.807503e-007
-1.073986e-007
-7.344860e-008
-5.928084e-008
-4.747345e-008
-2.825650e-008
-2.473328e-009
2.039645e-008
2.917829e-008
1.954465e-008
-1.423357e-009
-1.881779e-008
-2.028884e-008
-5.750311e-009
1.210787e-008
1.821738e-008
8.202236e-009
-7.784937e-009
-1.468216e-008
-6.877435e-009
6.717608e-009
1.210328e-008
4.560580e-009
-6.952596e-009
-9.874387e-009
-1.624570e-009
7.995235e-009
-3.447824e-008
-8.417988e-009
1.821655e-008
2.004510e-008
-2.826240e-009
-2.514581e-008
-2.212846e-008
5.396412e-009
3.132780e-008
2.964683e-008
-1.523026e-010
-3.196241e-008
-3.679160e-008
-8.689431e-009
3.037918e-008