# vtk DataFile Version 3.0
vtk output
ASCII
DATASET STRUCTURED_POINTS
DIMENSIONS 100 100 1
SPACING 1 1 1
ORIGIN 0 0 0
POINT_DATA 10000
SCALARS SFBox_profile double
LOOKUP_TABLE default 
0.000000e+000
0.000000e+000
0.000000e+000
0.000000e+000
0.000000e+000
0.000000e+000
0.000000e+000
0.000000e+000
0.000000e+000
0.000000e+000
0.000000e+000
0.000000e+000
0.000000e+000
0.000000e+000
0.000000e+000
0.000000e+000
0.000000e+000
0.000000e+000
0.000000e+000
0.000000e+000
0.000000e+000
0.000000e+000
0.000000e+000
0.000000e+000
0.000000e+000
0.000000e+000
0.000000e+000
0.000000e+000
0.000000e+000
0.000000e+000
0.000000e+000
0.000000e+000
0.000000e+000
0.000000e+000
0.000000e+000
0.000000e+000
0.000000e+000
0.000000e+000
0.000000e+000
0.000000e+000
0.000000e+000
0.000000e+000
0.000000e+000
0.000000e+000
0.000000e+000
0.000000e+000
0.000000e+000
0.000000e+000
0.000000e+000
0.000000e+000
0.000000e+000
0.000000e+000
0.000000e+000
0.000000e+000
0.000000e+000
0.000000e+000
0.000000e+000
0.000000e+000
0.000000e+000
0.000000e+000
0.000000e+000
0.000000e+000
0.000000e+000
0.000000e+000
0.000000e+000
0.000000e+000
0.000000e+000
0.000000e+000
0.000000e+000
0.000000e+000
0.000000e+000
0.000000e+000
0.000000e+000
0.000000e+000
0.000000e+000
0.000000e+000
0.000000e+000
0.000000e+000
0.000000e+000
0.000000e+000
0.000000e+000
0.000000e+000
0.000000e+000
0.000000e+000
0.000000e+000
0.000000e+000
0.000000e+000
0.000000e+000
0.000000e+000
0.000000e+000
0.000000e+000
0.000000e+000
0.000000e+000
0.000000e+000
0.000000e+000
0.000000e+000
0.000000e+000
0.000000e+000
0.000000e+000
0.000000e+000
-6.054387e-009
-3.463188e-009
-1.957300e-010
2.173500e-009
2.859755e-009
2.074563e-009
6.619747e-010
-5.461367e-010
-1.189406e-009
-1.382086e-009
-1.369387e-009
-1.199907e-009
-7.072789e-010
2.197291e-010
1.372393e-009
2.246853e-009
2.367822e-009
1.637705e-009
4.085166e-010
-7.795583e-010
-1.560546e-009
-1.907605e-009
-2.004504e-009
-1.992751e-009
-1.843025e-009
-1.441648e-009
-7.647355e-010
5.128450e-011
8.038372e-010
1.373198e-009
1.778011e-009
2.101587e-009
2.383240e-009
2.585079e-009
2.649702e-009
2.571535e-009
2.406222e-009
2.219352e-009
2.036368e-009
1.841986e-009
1.618313e-009
1.375022e-009
1.143346e-009
9.479329e-010
7.892847e-010
6.518937e-010
5.251154e-010
4.146701e-010
3.359561e-010
2.984518e-010
2.968485e-010
3.168230e-010
3.498294e-010
4.026689e-010
4.911963e-010
6.224309e-010
7.831474e-010
9.497283e-010
1.112033e-009
1.284672e-009
1.487775e-009
1.713253e-009
1.915252e-009
2.042648e-009
2.082786e-009
2.064689e-009
2.009986e-009
1.883659e-009
1.609011e-009
1.145598e-009
5.513150e-010
-4.655798e-011
-5.515345e-010
-9.627221e-010
-1.324850e-009
-1.610724e-009
-1.674158e-009
-1.353982e-009
-6.487035e-010
2.139684e-010
9.034102e-010
1.207394e-009
1.146676e-009
8.836813e-010
5.337065e-010
8.464839e-011
-4.885394e-010
-1.047475e-009
-1.274662e-009
-8.963900e-010
2.660990e-011
1.020856e-009
1.462925e-009
1.020994e-009
-6.394106e-011
-1.098114e-009
-1.396391e-009
-7.602247e-010
3.748210e-010
1.233582e-009
-1.465736e-009
-6.647938e-010
2.643521e-010
7.725955e-010
6.464852e-010
9.082956e-011
-4.463751e-010
-5.919906e-010
-2.891628e-010
2.006648e-010
5.200850e-010
4.815565e-010
1.733581e-010
-1.577274e-010
-3.251759e-010
-3.290224e-010
-2.957891e-010
-3.139712e-010
-3.347291e-010
-2.299388e-010
6.070453e-011
4.461729e-010
7.468007e-010
8.384882e-010
7.386916e-010
5.610326e-010
3.972419e-010
2.467862e-010
5.195539e-011
-2.149378e-010
-5.088801e-010
-7.513973e-010
-9.007938e-010
-9.785722e-010
-1.032697e-009
-1.084790e-009
-1.116258e-009
-1.099246e-009
-1.032026e-009
-9.416957e-010
-8.573696e-010
-7.863108e-010
-7.161099e-010
-6.353672e-010
-5.485995e-010
-4.718190e-010
-4.168525e-010
-3.817287e-010
-3.555285e-010
-3.311903e-010
-3.132070e-010
-3.130425e-010
-3.369241e-010
-3.782523e-010
-4.231799e-010
-4.649329e-010
-5.118015e-010
-5.779756e-010
-6.645659e-010
-7.518443e-010
-8.147331e-010
-8.472950e-010
-8.674805e-010
-8.920201e-010
-9.070377e-010
-8.710897e-010
-7.544974e-010
-5.744875e-010
-3.831648e-010
-2.155244e-010
-5.466788e-011
1.404493e-010
3.685486e-010
5.560356e-010
6.079365e-010
4.964622e-010
2.947105e-010
1.137918e-010
4.268999e-012
-7.437901e-011
-1.823331e-010
-3.041615e-010
-3.400786e-010
-2.057128e-010
5.744420e-011
2.821473e-010
3.037896e-010
1.056028e-010
-1.556697e-010
-2.737468e-010
-1.607793e-010
8.452955e-011
2.623539e-010
2.333919e-010
2.323581e-011
-2.064771e-010
-2.858920e-010
-1.603533e-010
7.740894e-011
2.590555e-010
4.105322e-009
2.568269e-009
5.372880e-010
-1.134400e-009
-1.962022e-009
-1.910781e-009
-1.237886e-009
-2.608451e-010
7.620596e-010
1.604364e-009
2.017673e-009
1.782636e-009
8.614014e-010
-4.888921e-010
-1.779626e-009
-2.524033e-009
-2.482444e-009
-1.747659e-009
-6.314911e-010
5.336570e-010
1.526333e-009
2.241449e-009
2.628434e-009
2.654044e-009
2.319979e-009
1.692047e-009
8.898188e-010
3.758903e-011
-7.786346e-010
-1.514322e-009
-2.141174e-009
-2.629672e-009
-2.956987e-009
-3.123995e-009
-3.156431e-009
-3.087074e-009
-2.938336e-009
-2.722028e-009
-2.451884e-009
-2.151213e-009
-1.846525e-009
-1.555373e-009
-1.282371e-009
-1.026853e-009
-7.926391e-010
-5.894826e-010
-4.260237e-010
-3.032030e-010
-2.156289e-010
-1.591505e-010
-1.362319e-010
-1.533453e-010
-2.133702e-010
-3.115461e-010
-4.398409e-010
-5.951385e-010
-7.816259e-010
-1.003508e-009
-1.255324e-009
-1.520927e-009
-1.782847e-009
-2.030931e-009
-2.258653e-009
-2.449894e-009
-2.572282e-009
-2.587805e-009
-2.471672e-009
-2.219458e-009
-1.836108e-009
-1.323806e-009
-6.896667e-010
2.960432e-011
7.535533e-010
1.375395e-009
1.798818e-009
1.961194e-009
1.829568e-009
1.393652e-009
6.869776e-010
-1.725079e-010
-9.741096e-010
-1.478753e-009
-1.530825e-009
-1.138141e-009
-4.602330e-010
2.767932e-010
8.648809e-010
1.148912e-009
1.034838e-009
5.244081e-010
-2.244092e-010
-8.907666e-010
-1.116368e-009
-7.308071e-010
8.164887e-011
8.388983e-010
1.053803e-009
5.754843e-010
-2.798344e-010
-9.298479e-010
6.451250e-009
3.607144e-009
8.667796e-011
-2.358637e-009
-2.934362e-009
-1.985845e-009
-5.037100e-010
6.383664e-010
1.149979e-009
1.237873e-009
1.178791e-009
9.957907e-010
5.109080e-010
-3.409094e-010
-1.292181e-009
-1.859583e-009
-1.701660e-009
-8.907271e-010
1.425699e-010
9.302473e-010
1.266611e-009
1.252313e-009
1.101539e-009
9.287135e-010
7.015029e-010
3.546596e-010
-8.822437e-011
-5.104430e-010
-7.986950e-010
-9.272393e-010
-9.508306e-010
-9.323207e-010
-8.879243e-010
-7.961730e-010
-6.430755e-010
-4.476651e-010
-2.466208e-010
-6.382083e-011
1.006383e-010
2.564240e-010
4.054035e-010
5.394258e-010
6.507512e-010
7.398401e-010
8.126227e-010
8.732555e-010
9.215588e-010
9.561912e-010
9.776600e-010
9.874524e-010
9.858797e-010
9.724024e-010
9.475336e-010
9.125177e-010
8.664970e-010
8.056428e-010
7.269555e-010
6.323470e-010
5.262994e-010
4.082179e-010
2.697322e-010
1.038852e-010
-8.199722e-011
-2.665059e-010
-4.313111e-010
-5.764052e-010
-7.111110e-010
-8.255142e-010
-8.762459e-010
-8.125648e-010
-6.233683e-010
-3.532861e-010
-6.268534e-011
2.276638e-010
5.375741e-010
8.590596e-010
1.092218e-009
1.077412e-009
7.241341e-010
1.220343e-010
-4.872949e-010
-8.709958e-010
-9.534920e-010
-8.136497e-010
-5.480501e-010
-1.641665e-010
3.629826e-010
9.272402e-010
1.228181e-009
9.485939e-010
6.702341e-011
-9.857091e-010
-1.535977e-009
-1.145096e-009
9.251384e-012
1.184919e-009
1.572156e-009
8.837028e-010
-4.121629e-010
-1.409208e-009
4.098158e-009
1.803873e-009
-8.074848e-010
-2.159285e-009
-1.713913e-009
-1.454134e-010
1.261233e-009
1.546657e-009
6.770776e-010
-5.795775e-010
-1.325864e-009
-1.186975e-009
-4.561639e-010
2.907342e-010
7.031581e-010
8.399567e-010
9.378063e-010
1.063062e-009
1.012624e-009
5.410770e-010
-3.423176e-010
-1.314960e-009
-1.973329e-009
-2.124129e-009
-1.868350e-009
-1.436677e-009
-9.688851e-010
-4.463205e-010
1.986315e-010
9.465656e-010
1.673799e-009
2.251448e-009
2.641499e-009
2.895770e-009
3.078367e-009
3.203188e-009
3.242396e-009
3.178138e-009
3.033352e-009
2.854549e-009
2.674973e-009
2.499364e-009
2.319172e-009
2.134308e-009
1.958136e-009
1.806205e-009
1.685111e-009
1.592052e-009
1.521677e-009
1.471882e-009
1.445145e-009
1.446652e-009
1.480377e-009
1.544482e-009
1.630330e-009
1.728906e-009
1.840166e-009
1.973345e-009
2.132976e-009
2.303416e-009
2.452253e-009
2.554441e-009
2.611202e-009
2.636543e-009
2.620214e-009
2.511158e-009
2.251987e-009
1.836884e-009
1.327714e-009
8.005826e-010
2.772241e-010
-2.733597e-010
-8.493341e-010
-1.339087e-009
-1.559514e-009
-1.400975e-009
-9.410937e-010
-3.990958e-010
3.828793e-011
3.440059e-010
5.957233e-010
8.025728e-010
8.225424e-010
4.960425e-010
-1.215815e-010
-6.897189e-010
-8.051358e-010
-3.529076e-010
3.421663e-010
7.394535e-010
5.178573e-010
-1.485306e-010
-7.203742e-010
-7.273800e-010
-1.477559e-010
5.747806e-010
8.815956e-010
5.319834e-010
-2.167934e-010
-8.091348e-010
-8.516610e-010
-1.134450e-009
-1.193971e-009
-6.330007e-010
5.176237e-010
1.716066e-009
2.197789e-009
1.493509e-009
-1.758896e-010
-1.949872e-009
-2.842187e-009
-2.370571e-009
-8.399859e-010
9.200205e-010
2.130514e-009
2.490845e-009
2.172946e-009
1.495633e-009
6.382995e-010
-3.638169e-010
-1.426510e-009
-2.300147e-009
-2.684624e-009
-2.457678e-009
-1.773340e-009
-9.294630e-010
-1.417563e-010
5.598586e-010
1.243345e-009
1.922164e-009
2.505287e-009
2.881870e-009
3.028296e-009
3.020967e-009
2.955146e-009
2.866298e-009
2.729904e-009
2.521229e-009
2.260035e-009
1.997450e-009
1.771148e-009
1.581446e-009
1.407380e-009
1.237023e-009
1.079036e-009
9.499924e-010
8.569177e-010
7.928261e-010
7.454425e-010
7.081483e-010
6.844714e-010
6.843668e-010
7.152068e-010
7.738143e-010
8.476281e-010
9.273144e-010
1.020028e-009
1.146399e-009
1.318668e-009
1.521578e-009
1.721476e-009
1.899363e-009
2.070163e-009
2.257830e-009
2.446444e-009
2.565147e-009
2.536178e-009
2.341485e-009
2.030361e-009
1.650202e-009
1.177719e-009
5.438911e-010
-2.536859e-010
-1.069683e-009
-1.667829e-009
-1.880226e-009
-1.713715e-009
-1.295305e-009
-7.254278e-010
-1.659519e-011
8.006978e-010
1.529975e-009
1.826688e-009
1.434166e-009
4.448011e-010
-6.757815e-010
-1.365831e-009
-1.333230e-009
-7.159964e-010
6.757157e-011
6.201427e-010
7.703712e-010
5.733476e-010
1.917080e-010
-2.019715e-010
-4.569588e-010
-4.664380e-010
-2.221975e-010
1.443307e-010
4.126179e-010
-4.784573e-009
-2.832099e-009
-3.930992e-010
1.396036e-009
2.053107e-009
1.762975e-009
9.921829e-010
9.920899e-011
-7.458474e-010
-1.390239e-009
-1.586283e-009
-1.132866e-009
-1.339078e-010
9.390170e-010
1.516752e-009
1.329754e-009
5.815903e-010
-2.465250e-010
-7.634283e-010
-8.796930e-010
-7.268209e-010
-4.394354e-010
-4.630955e-011
4.552673e-010
9.819697e-010
1.368029e-009
1.490015e-009
1.367471e-009
1.128143e-009
8.827452e-010
6.460284e-010
3.744835e-010
5.784826e-011
-2.450235e-010
-4.573834e-010
-5.547323e-010
-5.756033e-010
-5.705407e-010
-5.525190e-010
-4.988747e-010
-3.913015e-010
-2.437655e-010
-9.152599e-011
3.958322e-011
1.487542e-010
2.491389e-010
3.472660e-010
4.344071e-010
4.946277e-010
5.186879e-010
5.110679e-010
4.850774e-010
4.501778e-010
4.021134e-010
3.263399e-010
2.146108e-010
7.935764e-011
-5.209992e-011
-1.618087e-010
-2.577780e-010
-3.591895e-010
-4.614246e-010
-5.221124e-010
-4.926573e-010
-3.664194e-010
-1.868365e-010
1.012844e-012
2.019365e-010
4.575799e-010
7.721999e-010
1.061005e-009
1.193162e-009
1.097650e-009
8.207952e-010
4.712161e-010
1.171688e-010
-2.392846e-010
-5.786044e-010
-7.813799e-010
-6.776899e-010
-2.135445e-010
4.325648e-010
9.264757e-010
1.002520e-009
6.372684e-010
2.942638e-011
-5.600057e-010
-9.358211e-010
-9.795557e-010
-6.265822e-010
7.504358e-011
8.608123e-010
1.281501e-009
9.726211e-010
-1.073883e-012
-1.059194e-009
-1.454752e-009
-8.463758e-010
3.779227e-010
1.343043e-009
-5.422194e-009
-2.285068e-009
1.175371e-009
2.808780e-009
2.056806e-009
1.569897e-011
-1.607213e-009
-1.778002e-009
-6.939141e-010
6.595985e-010
1.406536e-009
1.337772e-009
7.860657e-010
1.312208e-010
-5.095824e-010
-1.170807e-009
-1.752033e-009
-1.943870e-009
-1.466365e-009
-3.574830e-010
9.986438e-010
2.131162e-009
2.773386e-009
2.934969e-009
2.754079e-009
2.329950e-009
1.696335e-009
9.053089e-010
8.000233e-011
-6.350238e-010
-1.160787e-009
-1.506647e-009
-1.713698e-009
-1.793765e-009
-1.729683e-009
-1.521054e-009
-1.210813e-009
-8.611504e-010
-5.108781e-010
-1.628485e-010
1.907944e-010
5.401839e-010
8.575693e-010
1.120316e-009
1.328153e-009
1.497227e-009
1.640501e-009
1.755678e-009
1.830522e-009
1.857584e-009
1.843153e-009
1.802100e-009
1.743370e-009
1.659960e-009
1.534459e-009
1.356576e-009
1.134819e-009
8.876217e-010
6.215070e-010
3.224278e-010
-2.438861e-011
-4.045113e-010
-7.701868e-010
-1.071854e-009
-1.290803e-009
-1.431568e-009
-1.479894e-009
-1.380446e-009
-1.073189e-009
-5.574764e-010
8.803148e-011
7.550096e-010
1.365421e-009
1.867332e-009
2.176796e-009
2.160426e-009
1.721096e-009
9.206415e-010
1.280183e-012
-7.440832e-010
-1.139747e-009
-1.175583e-009
-9.167128e-010
-4.181444e-010
2.305918e-010
8.000190e-010
9.561275e-010
5.122345e-010
-3.087105e-010
-9.194917e-010
-7.960872e-010
3.867885e-011
9.417036e-010
1.134062e-009
3.727661e-010
-7.843488e-010
-1.397279e-009
-9.239302e-010
3.014660e-010
1.317315e-009
-3.018850e-009
-4.057082e-010
2.174424e-009
2.720915e-009
9.238465e-010
-1.763922e-009
-3.299310e-009
-2.573550e-009
-1.423748e-010
2.319804e-009
3.311451e-009
2.488116e-009
6.528030e-010
-1.054200e-009
-1.974443e-009
-2.128910e-009
-1.832617e-009
-1.259475e-009
-3.869125e-010
7.435146e-010
1.839485e-009
2.491979e-009
2.487351e-009
1.965293e-009
1.275155e-009
6.986127e-010
3.076056e-010
4.348651e-011
-1.270293e-010
-1.579261e-010
3.685359e-012
3.351670e-010
7.447286e-010
1.145118e-009
1.504067e-009
1.826616e-009
2.108586e-009
2.321469e-009
2.438225e-009
2.460181e-009
2.412431e-009
2.318051e-009
2.183650e-009
2.009562e-009
1.807541e-009
1.603368e-009
1.422449e-009
1.275773e-009
1.161202e-009
1.077094e-009
1.032366e-009
1.041801e-009
1.111565e-009
1.230752e-009
1.378824e-009
1.541176e-009
1.714512e-009
1.894136e-009
2.057610e-009
2.166973e-009
2.191643e-009
2.126997e-009
1.985150e-009
1.768536e-009
1.463148e-009
1.067956e-009
6.283743e-010
2.270715e-010
-6.658722e-011
-2.307821e-010
-2.646864e-010
-1.366717e-010
2.089808e-010
7.641985e-010
1.378639e-009
1.803232e-009
1.846554e-009
1.497592e-009
8.896726e-010
1.585463e-010
-6.229283e-010
-1.346074e-009
-1.747297e-009
-1.496042e-009
-5.064077e-010
8.157599e-010
1.716319e-009
1.614738e-009
5.884343e-010
-6.358039e-010
-1.226250e-009
-8.815950e-010
-2.011008e-011
6.189859e-010
5.936790e-010
6.835779e-011
-4.087538e-010
-4.171862e-010
-7.782831e-012
3.920188e-010
5.988363e-010
1.167673e-009
1.495339e-009
9.597503e-010
-4.125848e-010
-1.856940e-009
-2.353419e-009
-1.404568e-009
4.881304e-010
2.097146e-009
2.352402e-009
1.146571e-009
-6.080105e-010
-1.714131e-009
-1.580024e-009
-5.318065e-010
6.224472e-010
1.285351e-009
1.393362e-009
1.201717e-009
8.923574e-010
4.425902e-010
-1.829034e-010
-8.193072e-010
-1.145699e-009
-9.368938e-010
-2.434352e-010
6.785427e-010
1.587753e-009
2.395614e-009
3.117126e-009
3.739694e-009
4.171333e-009
4.306180e-009
4.110627e-009
3.632710e-009
2.941010e-009
2.072046e-009
1.036169e-009
-1.433978e-010
-1.412549e-009
-2.705951e-009
-3.974601e-009
-5.189655e-009
-6.325008e-009
-7.344561e-009
-8.208843e-009
-8.889754e-009
-9.374215e-009
-9.653656e-009
-9.714263e-009
-9.541099e-009
-9.131252e-009
-8.499490e-009
-7.669178e-009
-6.660506e-009
-5.493085e-009
-4.202036e-009
-2.846720e-009
-1.496646e-009
-2.077330e-010
9.813930e-010
2.025825e-009
2.855198e-009
3.393963e-009
3.609228e-009
3.530969e-009
3.213218e-009
2.680086e-009
1.933769e-009
1.033700e-009
1.543469e-010
-4.742079e-010
-7.136135e-010
-6.058858e-010
-3.027886e-010
8.437446e-011
5.312957e-010
9.814186e-010
1.224168e-009
9.843011e-010
2.073630e-010
-7.465907e-010
-1.271801e-009
-9.753459e-010
-2.744281e-011
9.370920e-010
1.297839e-009
8.907316e-010
5.576013e-011
-6.827012e-010
-9.754684e-010
-7.770528e-010
-2.540564e-010
3.449401e-010
7.582901e-010
7.758155e-010
3.564190e-010
-2.840511e-010
-7.571539e-010
3.673506e-009
1.592927e-009
-6.545255e-010
-1.695972e-009
-1.292420e-009
-1.843111e-010
7.139037e-010
9.806485e-010
7.182583e-010
1.674781e-010
-5.365851e-010
-1.240360e-009
-1.584030e-009
-1.141649e-009
1.557098e-010
1.775149e-009
2.860633e-009
2.843475e-009
1.833440e-009
4.532701e-010
-6.752182e-010
-1.294280e-009
-1.458290e-009
-1.255248e-009
-6.634977e-010
3.331251e-010
1.571715e-009
2.719470e-009
3.466017e-009
3.688390e-009
3.428738e-009
2.743518e-009
1.604621e-009
-5.852980e-011
-2.254961e-009
-4.894737e-009
-7.847896e-009
-1.101966e-008
-1.436220e-008
-1.782919e-008
-2.133879e-008
-2.478491e-008
-2.807375e-008
-3.114055e-008
-3.393451e-008
-3.639800e-008
-3.846567e-008
-4.007939e-008
-4.119738e-008
-4.178871e-008
-4.182581e-008
-4.128866e-008
-4.017628e-008
-3.850950e-008
-3.632126e-008
-3.364950e-008
-3.054698e-008
-2.709822e-008
-2.341836e-008
-1.962699e-008
-1.582390e-008
-1.209786e-008
-8.559254e-009
-5.348889e-009
-2.595414e-009
-3.598572e-010
1.363809e-009
2.581725e-009
3.245994e-009
3.296530e-009
2.773546e-009
1.874409e-009
8.717374e-010
-3.186577e-011
-7.512493e-010
-1.219310e-009
-1.286533e-009
-7.965777e-010
1.910858e-010
1.279899e-009
1.916806e-009
1.771058e-009
9.744651e-010
6.989582e-013
-6.876484e-010
-8.938314e-010
-6.725509e-010
-1.832114e-010
3.704241e-010
7.117951e-010
5.677187e-010
-8.129197e-011
-8.216620e-010
-1.015711e-009
-3.523785e-010
7.548791e-010
1.401450e-009
9.592745e-010
-3.031646e-010
-1.379168e-009
5.240526e-009
1.209726e-009
-2.768160e-009
-3.765974e-009
-1.529048e-009
1.771114e-009
3.531184e-009
2.708371e-009
2.669318e-010
-1.965236e-009
-2.779703e-009
-2.171908e-009
-8.571998e-010
5.026237e-010
1.600124e-009
2.279382e-009
2.337368e-009
1.663719e-009
5.128493e-010
-5.098139e-010
-8.307789e-010
-3.049749e-010
7.509528e-010
1.872637e-009
2.757764e-009
3.296867e-009
3.396199e-009
2.862022e-009
1.478925e-009
-8.424862e-010
-4.038812e-009
-8.010568e-009
-1.273518e-008
-1.825296e-008
-2.456298e-008
-3.155905e-008
-3.906869e-008
-4.693400e-008
-5.504084e-008
-6.327987e-008
-7.150142e-008
-7.951924e-008
-8.715128e-008
-9.424749e-008
-1.006809e-007
-1.063241e-007
-1.110431e-007
-1.147119e-007
-1.172265e-007
-1.185054e-007
-1.184860e-007
-1.171305e-007
-1.144359e-007
-1.104363e-007
-1.051953e-007
-9.880474e-008
-9.140010e-008
-8.317514e-008
-7.436920e-008
-6.522959e-008
-5.598495e-008
-4.685750e-008
-3.809053e-008
-2.993739e-008
-2.259835e-008
-1.616489e-008
-1.064133e-008
-6.031101e-009
-2.389388e-009
2.275496e-010
1.861460e-009
2.672804e-009
2.844468e-009
2.485203e-009
1.671427e-009
5.985629e-010
-3.534193e-010
-7.778468e-010
-5.124782e-010
2.395472e-010
1.062536e-009
1.594882e-009
1.658925e-009
1.211827e-009
3.070716e-010
-8.068182e-010
-1.613933e-009
-1.556675e-009
-5.225881e-010
8.644914e-010
1.586192e-009
1.059272e-009
-2.796818e-010
-1.272025e-009
-1.049743e-009
1.528573e-010
1.192813e-009
1.083111e-009
-7.037669e-011
-1.167902e-009
4.823148e-009
7.096947e-010
-3.208832e-009
-3.869679e-009
-1.146687e-009
2.424019e-009
3.922808e-009
2.384551e-009
-6.839945e-010
-2.816032e-009
-2.634888e-009
-7.023277e-010
1.308539e-009
2.108638e-009
1.598058e-009
5.253116e-010
-3.552273e-010
-7.446304e-010
-6.449579e-010
-3.973851e-011
1.123064e-009
2.684252e-009
4.151209e-009
4.907850e-009
4.546969e-009
2.982013e-009
2.648755e-010
-3.649461e-009
-8.946847e-009
-1.581863e-008
-2.434485e-008
-3.451816e-008
-4.633509e-008
-5.981474e-008
-7.491938e-008
-9.147778e-008
-1.091993e-007
-1.277528e-007
-1.468208e-007
-1.660861e-007
-1.851950e-007
-2.037572e-007
-2.213853e-007
-2.377310e-007
-2.524855e-007
-2.653588e-007
-2.760704e-007
-2.843606e-007
-2.900066e-007
-2.928291e-007
-2.926942e-007
-2.895213e-007
-2.832952e-007
-2.740706e-007
-2.619723e-007
-2.472041e-007
-2.300691e-007
-2.109811e-007
-1.904413e-007
-1.689930e-007
-1.471907e-007
-1.256027e-007
-1.048132e-007
-8.537476e-008
-6.771755e-008
-5.208870e-008
-3.857848e-008
-2.719910e-008
-1.792102e-008
-1.063196e-008
-5.099682e-009
-1.036716e-009
1.762562e-009
3.363205e-009
3.803165e-009
3.276145e-009
2.181070e-009
9.753313e-010
-6.652276e-012
-5.837527e-010
-6.410772e-010
-1.345851e-010
7.386345e-010
1.439630e-009
1.349138e-009
3.103880e-010
-1.058946e-009
-1.728970e-009
-1.109819e-009
3.636140e-010
1.528522e-009
1.476906e-009
3.389704e-010
-8.657882e-010
-1.166262e-009
-4.800711e-010
4.110259e-010
6.719469e-010
1.971042e-010
-3.744459e-010
2.183013e-009
2.584322e-010
-1.514783e-009
-1.671065e-009
-2.383469e-010
1.383913e-009
1.670279e-009
3.259009e-010
-1.428766e-009
-1.929836e-009
-5.634546e-010
1.664738e-009
2.994770e-009
2.406620e-009
4.018622e-010
-1.534287e-009
-2.165761e-009
-1.294651e-009
4.272043e-010
2.218796e-009
3.630383e-009
4.442260e-009
4.350398e-009
2.893526e-009
-3.416945e-010
-5.559604e-009
-1.286342e-008
-2.250002e-008
-3.495221e-008
-5.078346e-008
-7.040921e-008
-9.400265e-008
-1.215508e-007
-1.529205e-007
-1.878385e-007
-2.258318e-007
-2.662309e-007
-3.082527e-007
-3.510918e-007
-3.939544e-007
-4.360456e-007
-4.765682e-007
-5.147545e-007
-5.499044e-007
-5.813941e-007
-6.086604e-007
-6.311852e-007
-6.484994e-007
-6.601955e-007
-6.659380e-007
-6.654718e-007
-6.586344e-007
-6.453718e-007
-6.257514e-007
-5.999777e-007
-5.684181e-007
-5.316336e-007
-4.903901e-007
-4.456340e-007
-3.984470e-007
-3.500133e-007
-3.016018e-007
-2.545211e-007
-2.100143e-007
-1.691259e-007
-1.326150e-007
-1.009531e-007
-7.435102e-008
-5.274627e-008
-3.576660e-008
-2.277361e-008
-1.303812e-008
-5.947030e-009
-1.075829e-009
1.907776e-009
3.359086e-009
3.640383e-009
3.028588e-009
1.743205e-009
1.426625e-010
-1.153418e-009
-1.494383e-009
-6.962350e-010
6.721670e-010
1.612961e-009
1.459493e-009
4.114772e-010
-6.617980e-010
-9.739669e-010
-4.376636e-010
3.750961e-010
7.995912e-010
6.008734e-010
3.648162e-011
-4.635369e-010
-6.303915e-010
-4.557603e-010
-9.370237e-011
2.698773e-010
4.900291e-010
-2.202393e-009
-4.426902e-010
1.281597e-009
1.745000e-009
8.751677e-010
-5.119212e-010
-1.527659e-009
-1.743147e-009
-1.144153e-009
8.717304e-011
1.560238e-009
2.592465e-009
2.481731e-009
1.116593e-009
-6.847085e-010
-1.624988e-009
-9.053575e-010
1.137877e-009
3.312230e-009
4.447490e-009
4.025753e-009
2.068758e-009
-1.434324e-009
-6.923807e-009
-1.520509e-008
-2.717647e-008
-4.372228e-008
-6.581562e-008
-9.457214e-008
-1.310671e-007
-1.760243e-007
-2.296269e-007
-2.915500e-007
-3.610954e-007
-4.372704e-007
-5.187915e-007
-6.041105e-007
-6.915233e-007
-7.793147e-007
-8.658549e-007
-9.496223e-007
-1.029199e-006
-1.103283e-006
-1.170715e-006
-1.230488e-006
-1.281722e-006
-1.323638e-006
-1.355542e-006
-1.376823e-006
-1.386966e-006
-1.385559e-006
-1.372316e-006
-1.347088e-006
-1.309899e-006
-1.260975e-006
-1.200810e-006
-1.130210e-006
-1.050329e-006
-9.626643e-007
-8.690385e-007
-7.715809e-007
-6.726923e-007
-5.749403e-007
-4.808771e-007
-3.928328e-007
-3.127618e-007
-2.421528e-007
-1.819420e-007
-1.324034e-007
-9.309151e-008
-6.295197e-008
-4.059488e-008
-2.457225e-008
-1.350765e-008
-6.114868e-009
-1.276822e-009
1.762732e-009
3.292755e-009
3.346410e-009
2.153957e-009
4.264513e-010
-8.662143e-010
-1.077414e-009
-2.936647e-010
8.081068e-010
1.499727e-009
1.447550e-009
7.712967e-010
-1.536345e-010
-8.837268e-010
-1.039413e-009
-4.992028e-010
4.042732e-010
9.823596e-010
7.071008e-010
-2.447996e-010
-1.032829e-009
-8.908450e-010
1.025515e-010
1.038999e-009
-6.587499e-009
-1.407173e-009
3.504007e-009
4.470682e-009
1.577905e-009
-2.122987e-009
-3.603267e-009
-2.219390e-009
3.815508e-010
2.146893e-009
2.249481e-009
1.220492e-009
4.350587e-011
-5.988502e-010
-4.074574e-010
7.026036e-010
2.522794e-009
4.343848e-009
5.083143e-009
3.807779e-009
1.372103e-010
-5.962938e-009
-1.485836e-008
-2.777337e-008
-4.673897e-008
-7.412369e-008
-1.122163e-007
-1.630876e-007
-2.285531e-007
-3.099788e-007
-4.079422e-007
-5.219947e-007
-6.507023e-007
-7.918882e-007
-9.428768e-007
-1.100646e-006
-1.261950e-006
-1.423502e-006
-1.582194e-006
-1.735253e-006
-1.880298e-006
-2.015310e-006
-2.138597e-006
-2.248775e-006
-2.344741e-006
-2.425619e-006
-2.490688e-006
-2.539322e-006
-2.570957e-006
-2.585085e-006
-2.581251e-006
-2.559058e-006
-2.518184e-006
-2.458409e-006
-2.379683e-006
-2.282225e-006
-2.166627e-006
-2.033949e-006
-1.885808e-006
-1.724461e-006
-1.552880e-006
-1.374760e-006
-1.194393e-006
-1.016414e-006
-8.454744e-007
-6.859407e-007
-5.415830e-007
-4.152447e-007
-3.085267e-007
-2.216391e-007
-1.535354e-007
-1.022624e-007
-6.531166e-008
-3.984859e-008
-2.291772e-008
-1.179305e-008
-4.425544e-009
3.196744e-010
2.881462e-009
3.534719e-009
2.799272e-009
1.436747e-009
1.719149e-010
-5.218764e-010
-4.530473e-010
2.791225e-010
1.211659e-009
1.608490e-009
9.388187e-010
-5.310726e-010
-1.714212e-009
-1.551588e-009
-7.380349e-011
1.449139e-009
1.623354e-009
3.088804e-010
-1.181882e-009
-1.376927e-009
-1.466211e-010
1.168171e-009
-8.465826e-009
-1.991324e-009
4.013757e-009
4.983628e-009
1.325320e-009
-2.794391e-009
-3.610552e-009
-9.272729e-010
2.339019e-009
3.258045e-009
1.432683e-009
-1.135568e-009
-2.178172e-009
-9.892399e-010
1.492916e-009
3.843482e-009
5.113543e-009
4.867974e-009
2.716067e-009
-1.972970e-009
-1.007736e-008
-2.285089e-008
-4.234242e-008
-7.174672e-008
-1.152383e-007
-1.772999e-007
-2.619839e-007
-3.724607e-007
-5.107998e-007
-6.777229e-007
-8.722692e-007
-1.091599e-006
-1.331171e-006
-1.585258e-006
-1.847560e-006
-2.111705e-006
-2.371617e-006
-2.621839e-006
-2.857817e-006
-3.076068e-006
-3.274180e-006
-3.450672e-006
-3.604823e-006
-3.736515e-006
-3.846089e-006
-3.934188e-006
-4.001583e-006
-4.049016e-006
-4.077093e-006
-4.086213e-006
-4.076503e-006
-4.047771e-006
-3.999451e-006
-3.930596e-006
-3.839935e-006
-3.726001e-006
-3.587329e-006
-3.422712e-006
-3.231524e-006
-3.014126e-006
-2.772277e-006
-2.509454e-006
-2.230934e-006
-1.943625e-006
-1.655667e-006
-1.375840e-006
-1.112779e-006
-8.740352e-007
-6.651996e-007
-4.893567e-007
-3.470520e-007
-2.366526e-007
-1.548386e-007
-9.707930e-008
-5.817346e-008
-3.295161e-008
-1.699984e-008
-7.083200e-009
-1.104412e-009
2.215230e-009
3.622798e-009
3.522398e-009
2.240473e-009
3.864153e-010
-1.044935e-009
-1.159572e-009
5.081663e-011
1.476646e-009
1.727286e-009
4.384092e-010
-1.259730e-009
-1.754912e-009
-5.556432e-010
1.161091e-009
1.709322e-009
6.122577e-010
-9.270068e-010
-1.319830e-009
-2.733436e-010
9.481704e-010
-6.212496e-009
-1.457283e-009
2.749390e-009
3.070957e-009
1.865193e-010
-2.409458e-009
-1.983592e-009
9.307429e-010
3.346949e-009
2.905135e-009
1.055581e-010
-2.332495e-009
-2.098655e-009
7.313456e-010
4.035308e-009
5.566465e-009
4.411596e-009
7.789608e-010
-5.332549e-009
-1.524216e-008
-3.181228e-008
-5.917427e-008
-1.025657e-007
-1.683089e-007
-2.634839e-007
-3.950397e-007
-5.686080e-007
-7.874741e-007
-1.051895e-006
-1.358682e-006
-1.701018e-006
-2.068709e-006
-2.449055e-006
-2.828258e-006
-3.192943e-006
-3.531388e-006
-3.834312e-006
-4.095281e-006
-4.310823e-006
-4.480298e-006
-4.605523e-006
-4.690231e-006
-4.739527e-006
-4.759394e-006
-4.756284e-006
-4.736736e-006
-4.707020e-006
-4.672831e-006
-4.639039e-006
-4.609482e-006
-4.586767e-006
-4.572026e-006
-4.564671e-006
-4.562178e-006
-4.559971e-006
-4.551469e-006
-4.528321e-006
-4.480909e-006
-4.399141e-006
-4.273587e-006
-4.096828e-006
-3.864817e-006
-3.577982e-006
-3.241882e-006
-2.867228e-006
-2.469141e-006
-2.065560e-006
-1.674958e-006
-1.313882e-006
-9.949507e-007
-7.257727e-007
-5.088366e-007
-3.421087e-007
-2.200832e-007
-1.351221e-007
-7.888481e-008
-4.352065e-008
-2.234933e-008
-1.008371e-008
-2.914434e-009
1.383224e-009
3.578536e-009
3.683467e-009
2.007538e-009
-2.478259e-010
-1.489138e-009
-9.384986e-010
6.698219e-010
1.741752e-009
1.307164e-009
-1.066580e-010
-1.087014e-009
-7.870629e-010
2.874507e-010
9.235090e-010
5.176557e-010
-3.609548e-010
-7.023047e-010
-2.014434e-010
4.602023e-010
-5.199206e-010
1.374799e-010
4.107379e-010
-1.838882e-010
-1.051874e-009
-1.060919e-009
2.401416e-010
1.949898e-009
2.518942e-009
1.294064e-009
-6.285774e-010
-1.244713e-009
4.885859e-010
3.533472e-009
5.488908e-009
4.385105e-009
-2.907715e-010
-8.398611e-009
-2.107542e-008