# vtk DataFile Version 3.0
vtk output
ASCII
DATASET STRUCTURED_POINTS
DIMENSIONS 100 100 1
SPACING 1 1 1
ORIGIN 0 0 0
POINT_DATA 10000
SCALARS SFBox_profile double
LOOKUP_TABLE default 
9.439928e-003
9.439925e-003
9.439921e-003
9.439918e-003
9.439916e-003
9.439918e-003
9.439920e-003
9.439922e-003
9.439923e-003
9.439921e-003
9.439919e-003
9.439918e-003
9.439919e-003
9.439919e-003
9.439920e-003
9.439920e-003
9.439920e-003
9.439920e-003
9.439920e-003
9.439920e-003
9.439920e-003
9.439920e-003
9.439920e-003
9.439920e-003
9.439920e-003
9.439920e-003
9.439920e-003
9.439920e-003
9.439920e-003
9.439920e-003
9.439920e-003
9.439921e-003
9.439921e-003
9.439921e-003
9.439921e-003
9.439921e-003
9.439921e-003
9.439922e-003
9.439922e-003
9.439922e-003
9.439922e-003
9.439922e-003
9.439923e-003
9.439923e-003
9.439923e-003
9.439923e-003
9.439923e-003
9.439923e-003
9.439923e-003
9.439923e-003
9.439923e-003
9.439923e-003
9.439923e-003
9.439923e-003
9.439923e-003
9.439922e-003
9.439922e-003
9.439922e-003
9.439922e-003
9.439922e-003
9.439921e-003
9.439921e-003
9.439921e-003
9.439921e-003
9.439921e-003
9.439921e-003
9.439921e-003
9.439920e-003
9.439920e-003
9.439920e-003
9.439920e-003
9.439920e-003
9.439920e-003
9.439920e-003
9.439920e-003
9.439920e-003
9.439920e-003
9.439920e-003
9.439920e-003
9.439920e-003
9.439920e-003
9.439920e-003
9.439920e-003
9.439920e-003
9.439920e-003
9.439919e-003
9.439920e-003
9.439920e-003
9.439920e-003
9.439921e-003
9.439920e-003
9.439920e-003
9.439920e-003
9.439920e-003
9.439920e-003
9.439920e-003
9.439920e-003
9.439920e-003
9.439920e-003
9.439920e-003
9.439928e-003
9.439925e-003
9.439921e-003
9.439918e-003
9.439916e-003
9.439918e-003
9.439920e-003
9.439922e-003
9.439923e-003
9.439921e-003
9.439919e-003
9.439918e-003
9.439919e-003
9.439919e-003
9.439920e-003
9.439920e-003
9.439920e-003
9.439920e-003
9.439920e-003
9.439920e-003
9.439920e-003
9.439920e-003
9.439920e-003
9.439920e-003
9.439920e-003
9.439920e-003
9.439920e-003
9.439920e-003
9.439920e-003
9.439920e-003
9.439920e-003
9.439921e-003
9.439921e-003
9.439921e-003
9.439921e-003
9.439921e-003
9.439921e-003
9.439922e-003
9.439922e-003
9.439922e-003
9.439922e-003
9.439922e-003
9.439923e-003
9.439923e-003
9.439923e-003
9.439923e-003
9.439923e-003
9.439923e-003
9.439923e-003
9.439923e-003
9.439923e-003
9.439923e-003
9.439923e-003
9.439923e-003
9.439923e-003
9.439922e-003
9.439922e-003
9.439922e-003
9.439922e-003
9.439922e-003
9.439921e-003
9.439921e-003
9.439921e-003
9.439921e-003
9.439921e-003
9.439921e-003
9.439921e-003
9.439920e-003
9.439920e-003
9.439920e-003
9.439920e-003
9.439920e-003
9.439920e-003
9.439920e-003
9.439920e-003
9.439920e-003
9.439920e-003
9.439920e-003
9.439920e-003
9.439920e-003
9.439920e-003
9.439920e-003
9.439920e-003
9.439920e-003
9.439920e-003
9.439919e-003
9.439920e-003
9.439920e-003
9.439920e-003
9.439921e-003
9.439920e-003
9.439920e-003
9.439920e-003
9.439920e-003
9.439920e-003
9.439920e-003
9.439920e-003
9.439920e-003
9.439920e-003
9.439920e-003
9.439920e-003
9.439920e-003
9.439920e-003
9.439920e-003
9.439920e-003
9.439920e-003
9.439920e-003
9.439920e-003
9.439920e-003
9.439920e-003
9.439920e-003
9.439920e-003
9.439920e-003
9.439920e-003
9.439920e-003
9.439920e-003
9.439920e-003
9.439920e-003
9.439920e-003
9.439920e-003
9.439920e-003
9.439920e-003
9.439920e-003
9.439920e-003
9.439920e-003
9.439920e-003
9.439920e-003
9.439920e-003
9.439920e-003
9.439920e-003
9.439921e-003
9.439921e-003
9.439921e-003
9.439921e-003
9.439921e-003
9.439921e-003
9.439922e-003
9.439922e-003
9.439922e-003
9.439922e-003
9.439922e-003
9.439922e-003
9.439922e-003
9.439923e-003
9.439923e-003
9.439923e-003
9.439923e-003
9.439923e-003
9.439923e-003
9.439923e-003
9.439923e-003
9.439923e-003
9.439923e-003
9.439923e-003
9.439923e-003
9.439923e-003
9.439923e-003
9.439923e-003
9.439922e-003
9.439922e-003
9.439922e-003
9.439922e-003
9.439922e-003
9.439921e-003
9.439921e-003
9.439921e-003
9.439921e-003
9.439921e-003
9.439920e-003
9.439920e-003
9.439920e-003
9.439920e-003
9.439920e-003
9.439920e-003
9.439920e-003
9.439920e-003
9.439920e-003
9.439920e-003
9.439920e-003
9.439920e-003
9.439920e-003
9.439920e-003
9.439920e-003
9.439920e-003
9.439920e-003
9.439920e-003
9.439920e-003
9.439920e-003
9.439920e-003
9.439920e-003
9.439920e-003
9.439920e-003
9.439920e-003
9.439920e-003
9.439920e-003
9.439920e-003
9.439920e-003
9.439920e-003
9.439920e-003
9.439920e-003
9.439912e-003
9.439915e-003
9.439919e-003
9.439922e-003
9.439923e-003
9.439922e-003
9.439920e-003
9.439918e-003
9.439918e-003
9.439919e-003
9.439920e-003
9.439921e-003
9.439921e-003
9.439921e-003
9.439920e-003
9.439920e-003
9.439919e-003
9.439919e-003
9.439919e-003
9.439920e-003
9.439920e-003
9.439920e-003
9.439921e-003
9.439921e-003
9.439921e-003
9.439921e-003
9.439921e-003
9.439921e-003
9.439921e-003
9.439921e-003
9.439921e-003
9.439922e-003
9.439922e-003
9.439922e-003
9.439923e-003
9.439923e-003
9.439923e-003
9.439923e-003
9.439924e-003
9.439924e-003
9.439924e-003
9.439924e-003
9.439925e-003
9.439925e-003
9.439925e-003
9.439925e-003
9.439925e-003
9.439926e-003
9.439926e-003
9.439926e-003
9.439926e-003
9.439926e-003
9.439926e-003
9.439926e-003
9.439926e-003
9.439925e-003
9.439925e-003
9.439925e-003
9.439925e-003
9.439924e-003
9.439924e-003
9.439924e-003
9.439923e-003
9.439923e-003
9.439922e-003
9.439922e-003
9.439922e-003
9.439921e-003
9.439921e-003
9.439921e-003
9.439921e-003
9.439921e-003
9.439921e-003
9.439921e-003
9.439920e-003
9.439920e-003
9.439920e-003
9.439920e-003
9.439920e-003
9.439920e-003
9.439920e-003
9.439920e-003
9.439920e-003
9.439920e-003
9.439921e-003
9.439921e-003
9.439920e-003
9.439920e-003
9.439920e-003
9.439919e-003
9.439920e-003
9.439920e-003
9.439920e-003
9.439921e-003
9.439920e-003
9.439920e-003
9.439920e-003
9.439920e-003
9.439920e-003
9.439920e-003
9.439911e-003
9.439914e-003
9.439919e-003
9.439923e-003
9.439924e-003
9.439922e-003
9.439919e-003
9.439918e-003
9.439918e-003
9.439919e-003
9.439921e-003
9.439922e-003
9.439921e-003
9.439920e-003
9.439920e-003
9.439919e-003
9.439920e-003
9.439920e-003
9.439920e-003
9.439920e-003
9.439920e-003
9.439920e-003
9.439921e-003
9.439921e-003
9.439921e-003
9.439921e-003
9.439921e-003
9.439922e-003
9.439922e-003
9.439922e-003
9.439923e-003
9.439923e-003
9.439924e-003
9.439925e-003
9.439925e-003
9.439926e-003
9.439927e-003
9.439928e-003
9.439928e-003
9.439929e-003
9.439930e-003
9.439930e-003
9.439931e-003
9.439931e-003
9.439932e-003
9.439932e-003
9.439933e-003
9.439933e-003
9.439933e-003
9.439933e-003
9.439933e-003
9.439933e-003
9.439932e-003
9.439932e-003
9.439931e-003
9.439931e-003
9.439930e-003
9.439930e-003
9.439929e-003
9.439928e-003
9.439928e-003
9.439927e-003
9.439926e-003
9.439925e-003
9.439925e-003
9.439924e-003
9.439923e-003
9.439923e-003
9.439922e-003
9.439922e-003
9.439921e-003
9.439921e-003
9.439921e-003
9.439921e-003
9.439921e-003
9.439920e-003
9.439920e-003
9.439920e-003
9.439920e-003
9.439920e-003
9.439920e-003
9.439920e-003
9.439920e-003
9.439920e-003
9.439920e-003
9.439921e-003
9.439920e-003
9.439920e-003
9.439920e-003
9.439919e-003
9.439920e-003
9.439920e-003
9.439920e-003
9.439921e-003
9.439920e-003
9.439920e-003
9.439920e-003
9.439920e-003
9.439920e-003
9.439920e-003
9.439918e-003
9.439919e-003
9.439920e-003
9.439921e-003
9.439921e-003
9.439920e-003
9.439920e-003
9.439919e-003
9.439919e-003
9.439920e-003
9.439921e-003
9.439921e-003
9.439920e-003
9.439919e-003
9.439919e-003
9.439920e-003
9.439920e-003
9.439921e-003
9.439921e-003
9.439921e-003
9.439920e-003
9.439920e-003
9.439921e-003
9.439921e-003
9.439921e-003
9.439922e-003
9.439922e-003
9.439923e-003
9.439924e-003
9.439925e-003
9.439926e-003
9.439927e-003
9.439928e-003
9.439929e-003
9.439930e-003
9.439932e-003
9.439933e-003
9.439934e-003
9.439935e-003
9.439936e-003
9.439937e-003
9.439938e-003
9.439939e-003
9.439939e-003
9.439940e-003
9.439940e-003
9.439941e-003
9.439941e-003
9.439941e-003
9.439941e-003
9.439941e-003
9.439940e-003
9.439940e-003
9.439939e-003
9.439939e-003
9.439938e-003
9.439937e-003
9.439936e-003
9.439935e-003
9.439934e-003
9.439933e-003
9.439932e-003
9.439931e-003
9.439930e-003
9.439929e-003
9.439928e-003
9.439927e-003
9.439926e-003
9.439925e-003
9.439924e-003
9.439923e-003
9.439922e-003
9.439922e-003
9.439921e-003
9.439921e-003
9.439920e-003
9.439920e-003
9.439920e-003
9.439921e-003
9.439921e-003
9.439920e-003
9.439920e-003
9.439920e-003
9.439920e-003
9.439920e-003
9.439920e-003
9.439920e-003
9.439920e-003
9.439920e-003
9.439920e-003
9.439920e-003
9.439920e-003
9.439920e-003
9.439920e-003
9.439920e-003
9.439920e-003
9.439920e-003
9.439920e-003
9.439920e-003
9.439920e-003
9.439927e-003
9.439924e-003
9.439920e-003
9.439918e-003
9.439917e-003
9.439919e-003
9.439920e-003
9.439921e-003
9.439922e-003
9.439921e-003
9.439920e-003
9.439919e-003
9.439919e-003
9.439919e-003
9.439919e-003
9.439920e-003
9.439921e-003
9.439921e-003
9.439921e-003
9.439921e-003
9.439921e-003
9.439921e-003
9.439921e-003
9.439922e-003
9.439923e-003
9.439924e-003
9.439925e-003
9.439926e-003
9.439928e-003
9.439930e-003
9.439931e-003
9.439933e-003
9.439934e-003
9.439936e-003
9.439937e-003
9.439939e-003
9.439940e-003
9.439941e-003
9.439942e-003
9.439943e-003
9.439944e-003
9.439945e-003
9.439945e-003
9.439945e-003
9.439946e-003
9.439946e-003
9.439946e-003
9.439946e-003
9.439946e-003
9.439945e-003
9.439945e-003
9.439945e-003
9.439945e-003
9.439945e-003
9.439944e-003
9.439944e-003
9.439944e-003
9.439943e-003
9.439942e-003
9.439941e-003
9.439940e-003
9.439939e-003
9.439938e-003
9.439936e-003
9.439935e-003
9.439933e-003
9.439932e-003
9.439930e-003
9.439929e-003
9.439927e-003
9.439926e-003
9.439924e-003
9.439923e-003
9.439922e-003
9.439922e-003
9.439921e-003
9.439921e-003
9.439921e-003
9.439921e-003
9.439921e-003
9.439921e-003
9.439920e-003
9.439920e-003
9.439920e-003
9.439920e-003
9.439920e-003
9.439920e-003
9.439920e-003
9.439920e-003
9.439921e-003
9.439920e-003
9.439920e-003
9.439920e-003
9.439919e-003
9.439920e-003
9.439920e-003
9.439920e-003
9.439920e-003
9.439920e-003
9.439920e-003
9.439931e-003
9.439926e-003
9.439920e-003
9.439916e-003
9.439916e-003
9.439918e-003
9.439921e-003
9.439922e-003
9.439922e-003
9.439920e-003
9.439919e-003
9.439919e-003
9.439919e-003
9.439920e-003
9.439920e-003
9.439921e-003
9.439921e-003
9.439921e-003
9.439921e-003
9.439921e-003
9.439922e-003
9.439922e-003
9.439923e-003
9.439925e-003
9.439926e-003
9.439928e-003
9.439930e-003
9.439932e-003
9.439934e-003
9.439936e-003
9.439938e-003
9.439940e-003
9.439942e-003
9.439943e-003
9.439945e-003
9.439946e-003
9.439946e-003
9.439946e-003
9.439946e-003
9.439945e-003
9.439945e-003
9.439944e-003
9.439943e-003
9.439941e-003
9.439940e-003
9.439939e-003
9.439938e-003
9.439937e-003
9.439937e-003
9.439936e-003
9.439936e-003
9.439937e-003
9.439937e-003
9.439938e-003
9.439938e-003
9.439939e-003
9.439941e-003
9.439942e-003
9.439942e-003
9.439943e-003
9.439943e-003
9.439943e-003
9.439943e-003
9.439942e-003
9.439941e-003
9.439940e-003
9.439938e-003
9.439936e-003
9.439934e-003
9.439932e-003
9.439930e-003
9.439928e-003
9.439927e-003
9.439925e-003
9.439924e-003
9.439923e-003
9.439922e-003
9.439921e-003
9.439921e-003
9.439921e-003
9.439921e-003
9.439921e-003
9.439920e-003
9.439920e-003
9.439920e-003
9.439920e-003
9.439920e-003
9.439920e-003
9.439920e-003
9.439921e-003
9.439920e-003
9.439920e-003
9.439920e-003
9.439919e-003
9.439920e-003
9.439920e-003
9.439920e-003
9.439920e-003
9.439920e-003
9.439920e-003
9.439926e-003
9.439923e-003
9.439920e-003
9.439918e-003
9.439918e-003
9.439920e-003
9.439921e-003
9.439921e-003
9.439920e-003
9.439919e-003
9.439919e-003
9.439919e-003
9.439921e-003
9.439921e-003
9.439922e-003
9.439921e-003
9.439920e-003
9.439920e-003
9.439921e-003
9.439922e-003
9.439924e-003
9.439925e-003
9.439927e-003
9.439929e-003
9.439931e-003
9.439934e-003
9.439936e-003
9.439939e-003
9.439941e-003
9.439943e-003
9.439945e-003
9.439946e-003
9.439947e-003
9.439946e-003
9.439945e-003
9.439942e-003
9.439939e-003
9.439935e-003
9.439930e-003
9.439924e-003
9.439918e-003
9.439912e-003
9.439905e-003
9.439899e-003
9.439893e-003
9.439888e-003
9.439884e-003
9.439880e-003
9.439877e-003
9.439876e-003
9.439876e-003
9.439878e-003
9.439880e-003
9.439884e-003
9.439889e-003
9.439894e-003
9.439901e-003
9.439907e-003
9.439914e-003
9.439920e-003
9.439926e-003
9.439932e-003
9.439936e-003
9.439939e-003
9.439941e-003
9.439942e-003
9.439942e-003
9.439942e-003
9.439940e-003
9.439938e-003
9.439936e-003
9.439934e-003
9.439931e-003
9.439929e-003
9.439927e-003
9.439926e-003
9.439924e-003
9.439923e-003
9.439921e-003
9.439921e-003
9.439920e-003
9.439920e-003
9.439921e-003
9.439921e-003
9.439920e-003
9.439920e-003
9.439920e-003
9.439920e-003
9.439920e-003
9.439920e-003
9.439920e-003
9.439920e-003
9.439920e-003
9.439920e-003
9.439920e-003
9.439920e-003
9.439920e-003
9.439920e-003
9.439920e-003
9.439920e-003
9.439916e-003
9.439917e-003
9.439920e-003
9.439921e-003
9.439922e-003
9.439921e-003
9.439920e-003
9.439919e-003
9.439919e-003
9.439919e-003
9.439919e-003
9.439920e-003
9.439922e-003
9.439922e-003
9.439922e-003
9.439921e-003
9.439921e-003
9.439921e-003
9.439923e-003
9.439925e-003
9.439927e-003
9.439930e-003
9.439932e-003
9.439935e-003
9.439938e-003
9.439941e-003
9.439944e-003
9.439946e-003
9.439947e-003
9.439947e-003
9.439945e-003
9.439941e-003
9.439935e-003
9.439926e-003
9.439914e-003
9.439900e-003
9.439883e-003
9.439864e-003
9.439844e-003
9.439822e-003
9.439800e-003
9.439777e-003
9.439755e-003
9.439734e-003
9.439715e-003
9.439698e-003
9.439683e-003
9.439672e-003
9.439665e-003
9.439662e-003
9.439662e-003
9.439667e-003
9.439676e-003
9.439689e-003
9.439705e-003
9.439724e-003
9.439746e-003
9.439769e-003
9.439793e-003
9.439818e-003
9.439841e-003
9.439863e-003
9.439883e-003
9.439900e-003
9.439915e-003
9.439926e-003
9.439934e-003
9.439939e-003
9.439942e-003
9.439942e-003
9.439942e-003
9.439940e-003
9.439937e-003
9.439935e-003
9.439932e-003
9.439930e-003
9.439927e-003
9.439925e-003
9.439923e-003
9.439922e-003
9.439921e-003
9.439921e-003
9.439921e-003
9.439921e-003
9.439921e-003
9.439921e-003
9.439920e-003
9.439920e-003
9.439920e-003
9.439920e-003
9.439920e-003
9.439920e-003
9.439920e-003
9.439920e-003
9.439920e-003
9.439920e-003
9.439920e-003
9.439920e-003
9.439920e-003
9.439920e-003
9.439909e-003
9.439914e-003
9.439920e-003
9.439924e-003
9.439924e-003
9.439921e-003
9.439919e-003
9.439918e-003
9.439919e-003
9.439920e-003
9.439921e-003
9.439921e-003
9.439921e-003
9.439921e-003
9.439921e-003
9.439921e-003
9.439922e-003
9.439924e-003
9.439927e-003
9.439930e-003
9.439933e-003
9.439936e-003
9.439939e-003
9.439942e-003
9.439946e-003
9.439948e-003
9.439948e-003
9.439946e-003
9.439940e-003
9.439930e-003
9.439914e-003
9.439892e-003
9.439864e-003
9.439828e-003
9.439786e-003
9.439738e-003
9.439683e-003
9.439624e-003
9.439561e-003
9.439496e-003
9.439430e-003
9.439365e-003
9.439303e-003
9.439244e-003
9.439190e-003
9.439143e-003
9.439105e-003
9.439075e-003
9.439056e-003
9.439047e-003
9.439050e-003
9.439064e-003
9.439090e-003
9.439126e-003
9.439172e-003
9.439227e-003
9.439288e-003
9.439356e-003
9.439426e-003
9.439498e-003
9.439568e-003
9.439636e-003
9.439699e-003
9.439755e-003
9.439805e-003
9.439846e-003
9.439878e-003
9.439903e-003
9.439921e-003
9.439933e-003
9.439940e-003
9.439942e-003
9.439942e-003
9.439940e-003
9.439937e-003
9.439935e-003
9.439932e-003
9.439929e-003
9.439927e-003
9.439925e-003
9.439923e-003
9.439922e-003
9.439921e-003
9.439921e-003
9.439920e-003
9.439921e-003
9.439921e-003
9.439920e-003
9.439920e-003
9.439920e-003
9.439920e-003
9.439920e-003
9.439920e-003
9.439921e-003
9.439920e-003
9.439920e-003
9.439919e-003
9.439920e-003
9.439920e-003
9.439921e-003
9.439911e-003
9.439915e-003
9.439920e-003
9.439923e-003
9.439923e-003
9.439920e-003
9.439918e-003
9.439918e-003
9.439920e-003
9.439922e-003
9.439922e-003
9.439921e-003
9.439920e-003
9.439920e-003
9.439922e-003
9.439924e-003
9.439926e-003
9.439929e-003
9.439933e-003
9.439936e-003
9.439940e-003
9.439943e-003
9.439946e-003
9.439949e-003
9.439948e-003
9.439944e-003
9.439933e-003
9.439915e-003
9.439885e-003
9.439844e-003
9.439788e-003
9.439716e-003
9.439628e-003
9.439523e-003
9.439402e-003
9.439266e-003
9.439117e-003
9.438958e-003
9.438791e-003
9.438621e-003
9.438451e-003
9.438284e-003
9.438125e-003
9.437977e-003
9.437843e-003
9.437728e-003
9.437632e-003
9.437561e-003
9.437514e-003
9.437494e-003
9.437503e-003
9.437539e-003
9.437603e-003
9.437695e-003
9.437811e-003
9.437949e-003
9.438106e-003
9.438277e-003
9.438459e-003
9.438645e-003
9.438830e-003
9.439010e-003
9.439180e-003
9.439335e-003
9.439474e-003
9.439593e-003
9.439692e-003
9.439772e-003
9.439833e-003
9.439877e-003
9.439908e-003
9.439927e-003
9.439937e-003
9.439942e-003
9.439942e-003
9.439940e-003
9.439937e-003
9.439934e-003
9.439931e-003
9.439928e-003
9.439926e-003
9.439924e-003
9.439922e-003
9.439921e-003
9.439920e-003
9.439920e-003
9.439920e-003
9.439921e-003
9.439920e-003
9.439920e-003
9.439920e-003
9.439920e-003
9.439920e-003
9.439920e-003
9.439920e-003
9.439920e-003
9.439920e-003
9.439920e-003
9.439920e-003
9.439921e-003
9.439919e-003
9.439920e-003
9.439921e-003
9.439921e-003
9.439920e-003
9.439919e-003
9.439919e-003
9.439920e-003
9.439922e-003
9.439923e-003
9.439922e-003
9.439921e-003
9.439920e-003
9.439921e-003
9.439924e-003
9.439928e-003
9.439932e-003
9.439935e-003
9.439939e-003
9.439943e-003
9.439947e-003
9.439950e-003
9.439950e-003
9.439944e-003
9.439929e-003
9.439902e-003
9.439857e-003
9.439791e-003
9.439698e-003
9.439575e-003
9.439416e-003
9.439220e-003
9.438985e-003
9.438712e-003
9.438402e-003
9.438061e-003
9.437692e-003
9.437303e-003
9.436900e-003
9.436493e-003
9.436089e-003
9.435696e-003
9.435324e-003
9.434980e-003
9.434672e-003
9.434405e-003
9.434187e-003
9.434024e-003
9.433918e-003
9.433875e-003
9.433895e-003
9.433980e-003
9.434130e-003
9.434342e-003
9.434612e-003
9.434934e-003
9.435301e-003
9.435704e-003
9.436133e-003
9.436577e-003
9.437023e-003
9.437460e-003
9.437876e-003
9.438264e-003
9.438613e-003
9.438920e-003
9.439181e-003
9.439395e-003
9.439566e-003
9.439696e-003
9.439791e-003
9.439857e-003
9.439900e-003
9.439925e-003
9.439938e-003
9.439942e-003
9.439942e-003
9.439940e-003
9.439936e-003
9.439933e-003
9.439930e-003
9.439927e-003
9.439925e-003
9.439923e-003
9.439921e-003
9.439920e-003
9.439920e-003
9.439921e-003
9.439921e-003
9.439921e-003
9.439920e-003
9.439920e-003
9.439920e-003
9.439920e-003
9.439920e-003
9.439920e-003
9.439920e-003
9.439920e-003
9.439920e-003
9.439920e-003
9.439928e-003
9.439925e-003
9.439921e-003
9.439918e-003
9.439917e-003
9.439919e-003
9.439920e-003
9.439922e-003
9.439922e-003
9.439921e-003
9.439921e-003
9.439921e-003
9.439923e-003
9.439925e-003
9.439929e-003
9.439933e-003
9.439938e-003
9.439942e-003
9.439946e-003
9.439950e-003
9.439951e-003
9.439947e-003
9.439931e-003
9.439899e-003
9.439842e-003
9.439753e-003
9.439620e-003
9.439435e-003
9.439186e-003
9.438864e-003
9.438463e-003
9.437978e-003
9.437408e-003
9.436755e-003
9.436027e-003
9.435232e-003
9.434384e-003
9.433499e-003
9.432592e-003
9.431682e-003
9.430786e-003
9.429923e-003
9.429110e-003
9.428362e-003
9.427695e-003
9.427121e-003
9.426655e-003
9.426305e-003
9.426082e-003
9.425991e-003
9.426037e-003
9.426223e-003
9.426547e-003
9.427005e-003
9.427590e-003
9.428290e-003
9.429092e-003
9.429978e-003
9.430926e-003
9.431912e-003
9.432913e-003
9.433902e-003
9.434855e-003
9.435750e-003
9.436568e-003
9.437295e-003
9.437923e-003
9.438449e-003
9.438875e-003
9.439209e-003
9.439461e-003
9.439643e-003
9.439769e-003
9.439851e-003
9.439901e-003
9.439928e-003
9.439940e-003
9.439943e-003
9.439941e-003
9.439938e-003
9.439934e-003
9.439931e-003
9.439928e-003
9.439925e-003
9.439923e-003
9.439922e-003
9.439921e-003
9.439920e-003
9.439920e-003
9.439921e-003
9.439920e-003
9.439920e-003
9.439920e-003
9.439920e-003
9.439920e-003
9.439920e-003
9.439920e-003
9.439920e-003
9.439920e-003
9.439920e-003
9.439931e-003
9.439926e-003
9.439919e-003
9.439916e-003
9.439917e-003
9.439920e-003
9.439922e-003
9.439922e-003
9.439921e-003
9.439920e-003
9.439921e-003
9.439924e-003
9.439927e-003
9.439931e-003
9.439935e-003
9.439940e-003
9.439945e-003
9.439949e-003
9.439952e-003
9.439950e-003
9.439938e-003
9.439907e-003
9.439847e-003
9.439744e-003
9.439582e-003
9.439341e-003
9.439000e-003
9.438538e-003
9.437934e-003
9.437170e-003
9.436234e-003
9.435120e-003
9.433829e-003
9.432373e-003
9.430767e-003
9.429037e-003
9.427212e-003
9.425326e-003
9.423414e-003
9.421514e-003
9.419661e-003
9.417890e-003
9.416234e-003
9.414722e-003
9.413382e-003
9.412238e-003
9.411312e-003
9.410622e-003
9.410185e-003
9.410011e-003
9.410109e-003
9.410484e-003
9.411134e-003
9.412053e-003
9.413229e-003
9.414644e-003
9.416272e-003
9.418081e-003
9.420031e-003
9.422080e-003
9.424176e-003
9.426269e-003
9.428307e-003
9.430243e-003
9.432033e-003
9.433646e-003
9.435058e-003
9.436258e-003
9.437247e-003
9.438036e-003
9.438643e-003
9.439094e-003
9.439416e-003
9.439636e-003
9.439778e-003
9.439863e-003
9.439911e-003
9.439934e-003
9.439942e-003
9.439943e-003
9.439939e-003
9.439935e-003
9.439932e-003
9.439928e-003
9.439926e-003
9.439924e-003
9.439922e-003
9.439921e-003
9.439920e-003
9.439920e-003
9.439921e-003
9.439920e-003
9.439920e-003
9.439920e-003
9.439920e-003
9.439920e-003
9.439921e-003
9.439920e-003
9.439920e-003
9.439919e-003
9.439927e-003
9.439923e-003
9.439918e-003
9.439917e-003
9.439919e-003
9.439922e-003
9.439923e-003
9.439922e-003
9.439920e-003
9.439920e-003
9.439923e-003
9.439928e-003
9.439933e-003
9.439937e-003
9.439942e-003
9.439947e-003
9.439952e-003
9.439954e-003
9.439947e-003
9.439924e-003
9.439870e-003
9.439770e-003
9.439600e-003
9.439329e-003
9.438923e-003
9.438340e-003
9.437538e-003
9.436473e-003
9.435107e-003
9.433409e-003
9.431362e-003
9.428962e-003
9.426224e-003
9.423178e-003
9.419869e-003
9.416354e-003
9.412699e-003
9.408974e-003
9.405250e-003
9.401598e-003
9.398083e-003
9.394764e-003
9.391697e-003
9.388927e-003
9.386498e-003
9.384445e-003
9.382799e-003
9.381585e-003
9.380825e-003
9.380536e-003
9.380730e-003
9.381415e-003
9.382591e-003
9.384254e-003
9.386388e-003
9.388971e-003
9.391967e-003
9.395327e-003
9.398992e-003
9.402887e-003
9.406928e-003
9.411019e-003
9.415063e-003
9.418961e-003
9.422622e-003
9.425970e-003
9.428947e-003
9.431517e-003
9.433668e-003
9.435411e-003
9.436778e-003
9.437813e-003
9.438567e-003
9.439096e-003
9.439450e-003
9.439677e-003
9.439813e-003
9.439888e-003
9.439926e-003
9.439941e-003
9.439943e-003
9.439941e-003
9.439936e-003
9.439932e-003
9.439929e-003
9.439926e-003
9.439924e-003
9.439922e-003
9.439920e-003
9.439920e-003
9.439920e-003
9.439921e-003
9.439920e-003
9.439920e-003
9.439920e-003
9.439920e-003
9.439920e-003
9.439920e-003
9.439920e-003
9.439920e-003
9.439919e-003
9.439919e-003
9.439918e-003
9.439919e-003
9.439921e-003
9.439923e-003
9.439923e-003
9.439921e-003
9.439921e-003
9.439923e-003
9.439928e-003
9.439933e-003
9.439938e-003
9.439943e-003
9.439949e-003
9.439954e-003
9.439955e-003
9.439943e-003
9.439905e-003
9.439824e-003
9.439671e-003
9.439409e-003
9.438989e-003
9.438348e-003
9.437414e-003
9.436105e-003
9.434337e-003
9.432034e-003
9.429130e-003
9.425583e-003
9.421381e-003
9.416546e-003
9.411133e-003
9.405232e-003
9.398954e-003
9.392431e-003
9.385799e-003
9.379196e-003
9.372750e-003
9.366577e-003
9.360775e-003
9.355427e-003
9.350597e-003
9.346337e-003
9.342684e-003
9.339663e-003
9.337295e-003
9.335591e-003
9.334564e-003
9.334221e-003
9.334573e-003
9.335629e-003
9.337398e-003
9.339890e-003
9.343107e-003
9.347045e-003
9.351686e-003
9.356994e-003
9.362910e-003
9.369349e-003
9.376194e-003
9.383304e-003
9.390513e-003
9.397639e-003
9.404497e-003
9.410916e-003
9.416750e-003
9.421892e-003
9.426281e-003
9.429905e-003
9.432798e-003
9.435027e-003
9.436683e-003
9.437868e-003
9.438682e-003
9.439217e-003
9.439553e-003
9.439751e-003
9.439861e-003
9.439916e-003
9.439938e-003
9.439944e-003
9.439942e-003
9.439937e-003
9.439933e-003
9.439929e-003
9.439926e-003
9.439924e-003
9.439922e-003
9.439921e-003
9.439920e-003
9.439921e-003
9.439921e-003
9.439920e-003
9.439920e-003
9.439920e-003
9.439920e-003
9.439920e-003
9.439920e-003
9.439920e-003
9.439913e-003
9.439916e-003
9.439920e-003
9.439922e-003
9.439922e-003
9.439921e-003
9.439921e-003
9.439922e-003
9.439924e-003
9.439928e-003
9.439933e-003
9.439939e-003
9.439944e-003
9.439951e-003
9.439955e-003
9.439954e-003
9.439936e-003
9.439884e-003
9.439770e-003
9.439555e-003
9.439181e-003
9.438570e-003
9.437620e-003
9.436208e-003
9.434193e-003
9.431423e-003
9.427754e-003
9.423062e-003
9.417268e-003
9.410348e-003
9.402353e-003
9.393407e-003
9.383702e-003
9.373484e-003
9.363031e-003
9.352628e-003
9.342545e-003
9.333016e-003
9.324230e-003
9.316324e-003
9.309380e-003
9.303435e-003
9.298481e-003
9.294480e-003
9.291365e-003
9.289056e-003
9.287463e-003
9.286500e-003
9.286091e-003
9.286182e-003
9.286741e-003
9.287772e-003
9.289310e-003
9.291422e-003
9.294204e-003
9.297769e-003
9.302238e-003
9.307718e-003
9.314288e-003
9.321979e-003
9.330754e-003
9.340496e-003
9.351001e-003
9.361988e-003
9.373116e-003
9.384015e-003
9.394327e-003
9.403742e-003
9.412030e-003
9.419062e-003
9.424809e-003
9.429333e-003
9.432761e-003
9.435260e-003
9.437012e-003
9.438190e-003
9.438949e-003
9.439415e-003
9.439686e-003
9.439833e-003
9.439905e-003
9.439935e-003
9.439943e-003
9.439942e-003
9.439937e-003
9.439933e-003
9.439929e-003
9.439926e-003
9.439923e-003
9.439922e-003
9.439921e-003
9.439920e-003
9.439921e-003
9.439920e-003
9.439920e-003
9.439920e-003
9.439920e-003
9.439920e-003
9.439920e-003
9.439920e-003
9.439912e-003
9.439917e-003
9.439922e-003
9.439924e-003
9.439922e-003
9.439920e-003
9.439920e-003
9.439924e-003
9.439929e-003
9.439934e-003
9.439939e-003
9.439945e-003
9.439952e-003
9.439957e-003
9.439954e-003
9.439931e-003
9.439863e-003
9.439716e-003
9.439433e-003
9.438932e-003
9.438096e-003
9.436770e-003
9.434757e-003
9.431824e-003
9.427718e-003
9.422191e-003
9.415031e-003
9.406109e-003
9.395421e-003
9.383118e-003
9.369523e-003
9.355116e-003
9.340496e-003
9.326328e-003
9.313267e-003
9.301900e-003
9.292684e-003
9.285921e-003
9.281735e-003
9.280085e-003
9.280784e-003
9.283522e-003
9.287898e-003
9.293445e-003
9.299657e-003
9.306015e-003
9.312014e-003
9.317186e-003
9.321130e-003
9.323540e-003
9.324225e-003
9.323134e-003
9.320365e-003
9.316170e-003
9.310954e-003
9.305254e-003
9.299709e-003
9.295019e-003
9.291885e-003
9.290947e-003
9.292706e-003
9.297460e-003
9.305247e-003
9.315817e-003
9.328651e-003
9.343017e-003
9.358061e-003
9.372924e-003
9.386847e-003
9.399257e-003
9.409810e-003
9.418387e-003
9.425062e-003
9.430041e-003
9.433604e-003
9.436049e-003
9.437658e-003
9.438671e-003
9.439279e-003
9.439624e-003
9.439808e-003
9.439896e-003
9.439933e-003
9.439943e-003
9.439942e-003
9.439937e-003
9.439933e-003
9.439929e-003
9.439926e-003
9.439923e-003
9.439921e-003
9.439921e-003
9.439920e-003
9.439921e-003
9.439920e-003
9.439920e-003
9.439920e-003
9.439920e-003
9.439920e-003
9.439920e-003
9.439914e-003
9.439919e-003
9.439924e-003
9.439925e-003
9.439921e-003
9.439919e-003
9.439921e-003
9.439927e-003
9.439934e-003
9.439940e-003
9.439946e-003
9.439953e-003
9.439959e-003
9.439956e-003
9.439928e-003
9.439847e-003
9.439669e-003
9.439320e-003
9.438689e-003
9.437611e-003
9.435862e-003
9.433147e-003
9.429109e-003
9.423347e-003
9.415464e-003
9.405134e-003
9.392197e-003
9.376763e-003
9.359300e-003
9.340685e-003
9.322187e-003
9.305381e-003
9.291989e-003
9.283687e-003
9.281916e-003
9.287709e-003
9.301596e-003
9.323557e-003
9.353050e-003
9.389081e-003
9.430299e-003
9.475099e-003
9.521712e-003
9.568283e-003
9.612936e-003
9.653831e-003
9.689226e-003
9.717542e-003
9.737427e-003
9.747832e-003
9.748072e-003
9.737888e-003
9.717496e-003
9.687615e-003
9.649475e-003
9.604799e-003
9.555741e-003
9.504800e-003
9.454674e-003
9.408084e-003
9.367546e-003
9.335130e-003
9.312233e-003
9.299401e-003
9.296267e-003
9.301613e-003
9.313564e-003
9.329887e-003
9.348317e-003
9.366866e-003
9.384021e-003
9.398834e-003
9.410888e-003
9.420192e-003
9.427033e-003
9.431837e-003
9.435065e-003
9.437141e-003
9.438416e-003
9.439162e-003
9.439576e-003
9.439790e-003
9.439891e-003
9.439932e-003
9.439943e-003
9.439942e-003