# vtk DataFile Version 3.0
vtk output
ASCII
DATASET STRUCTURED_POINTS
DIMENSIONS 100 100 1
SPACING 1 1 1
ORIGIN 0 0 0
POINT_DATA 10000
SCALARS SFBox_profile double
LOOKUP_TABLE default 
0.000000e+000
0.000000e+000
0.000000e+000
0.000000e+000
0.000000e+000
0.000000e+000
0.000000e+000
0.000000e+000
0.000000e+000
0.000000e+000
0.000000e+000
0.000000e+000
0.000000e+000
0.000000e+000
0.000000e+000
0.000000e+000
0.000000e+000
0.000000e+000
0.000000e+000
0.000000e+000
0.000000e+000
0.000000e+000
0.000000e+000
0.000000e+000
0.000000e+000
0.000000e+000
0.000000e+000
0.000000e+000
0.000000e+000
0.000000e+000
0.000000e+000
0.000000e+000
0.000000e+000
0.000000e+000
0.000000e+000
0.000000e+000
0.000000e+000
0.000000e+000
0.000000e+000
0.000000e+000
0.000000e+000
0.000000e+000
0.000000e+000
0.000000e+000
0.000000e+000
0.000000e+000
0.000000e+000
0.000000e+000
0.000000e+000
0.000000e+000
0.000000e+000
0.000000e+000
0.000000e+000
0.000000e+000
0.000000e+000
0.000000e+000
0.000000e+000
0.000000e+000
0.000000e+000
0.000000e+000
0.000000e+000
0.000000e+000
0.000000e+000
0.000000e+000
0.000000e+000
0.000000e+000
0.000000e+000
0.000000e+000
0.000000e+000
0.000000e+000
0.000000e+000
0.000000e+000
0.000000e+000
0.000000e+000
0.000000e+000
0.000000e+000
0.000000e+000
0.000000e+000
0.000000e+000
0.000000e+000
0.000000e+000
0.000000e+000
0.000000e+000
0.000000e+000
0.000000e+000
0.000000e+000
0.000000e+000
0.000000e+000
0.000000e+000
0.000000e+000
0.000000e+000
0.000000e+000
0.000000e+000
0.000000e+000
0.000000e+000
0.000000e+000
0.000000e+000
0.000000e+000
0.000000e+000
0.000000e+000
2.201656e-010
1.720810e-010
9.107540e-011
-1.116823e-012
-8.240314e-011
-1.360576e-010
-1.543329e-010
-1.391224e-010
-9.985618e-011
-4.965370e-011
-1.163972e-012
3.659428e-011
5.962324e-011
6.851508e-011
6.676185e-011
5.868887e-011
4.781645e-011
3.613027e-011
2.427035e-011
1.228048e-011
4.048616e-013
-1.050075e-011
-1.910618e-011
-2.415662e-011
-2.509348e-011
-2.238528e-011
-1.737110e-011
-1.167344e-011
-6.469457e-012
-1.979749e-012
2.563697e-012
8.443035e-012
1.669407e-011
2.741207e-011
3.944438e-011
5.060556e-011
5.831818e-011
6.040132e-011
5.568784e-011
4.424481e-011
2.715056e-011
5.961969e-012
-1.788265e-011
-4.347666e-011
-7.050786e-011
-9.896496e-011
-1.286273e-010
-1.585854e-010
-1.870441e-010
-2.115575e-010
-2.296671e-010
-2.397168e-010
-2.415100e-010
-2.365089e-010
-2.274624e-010
-2.176071e-010
-2.098080e-010
-2.060512e-010
-2.075356e-010
-2.153233e-010
-2.311914e-010
-2.582028e-010
-3.006146e-010
-3.630417e-010
-4.491458e-010
-5.603146e-010
-6.947562e-010
-8.471573e-010
-1.008747e-009
-1.167434e-009
-1.307825e-009
-1.411296e-009
-1.456679e-009
-1.422306e-009
-1.289798e-009
-1.049279e-009
-7.047826e-010
-2.779936e-010
1.915041e-010
6.505170e-010
1.040724e-009
1.309570e-009
1.420823e-009
1.361994e-009
1.146690e-009
8.114475e-010
4.081782e-010
-5.594183e-012
-3.762606e-010
-6.614630e-010
-8.342906e-010
-8.843971e-010
-8.167939e-010
-6.492842e-010
-4.093042e-010
-1.305474e-010
1.505565e-010
3.985424e-010
5.826860e-010
6.805122e-010
1.855718e-010
1.420967e-010
6.924063e-011
-1.274806e-011
-8.332584e-011
-1.270917e-010
-1.372528e-010
-1.163031e-010
-7.402072e-011
-2.371270e-011
2.193691e-011
5.410889e-011
6.935635e-011
6.923348e-011
5.853118e-011
4.298188e-011
2.730234e-011
1.415266e-011
4.137462e-012
-3.434283e-012
-9.548246e-012
-1.473431e-011
-1.884582e-011
-2.134034e-011
-2.179710e-011
-2.032900e-011
-1.764410e-011
-1.473171e-011
-1.236027e-011
-1.067364e-011
-9.117469e-012
-6.751187e-012
-2.795256e-012
2.854408e-012
9.400920e-012
1.531869e-011
1.885614e-011
1.864487e-011
1.416087e-011
5.857205e-012
-5.070939e-012
-1.717431e-011
-2.928338e-011
-4.087057e-011
-5.209008e-011
-6.348496e-011
-7.548302e-011
-8.790547e-011
-9.973031e-011
-1.092553e-010
-1.146375e-010
-1.146086e-010
-1.090493e-010
-9.914780e-011
-8.703040e-011
-7.501365e-011
-6.481509e-011
-5.710786e-011
-5.165310e-011
-4.796022e-011
-4.615954e-011
-4.765311e-011
-5.520548e-011
-7.241853e-011
-1.028156e-010
-1.489307e-010
-2.117186e-010
-2.903588e-010
-3.822447e-010
-4.828391e-010
-5.852126e-010
-6.794415e-010
-7.524040e-010
-7.886450e-010
-7.727326e-010
-6.929187e-010
-5.452119e-010
-3.365009e-010
-8.540548e-011
1.798403e-010
4.261808e-010
6.219616e-010
7.428336e-010
7.757418e-010
7.201669e-010
5.867820e-010
3.945046e-010
1.671988e-010
-6.903166e-011
-2.877299e-010
-4.635926e-010
-5.743574e-010
-6.035619e-010
-5.440039e-010
-4.009529e-010
-1.937269e-010
4.560461e-011
2.768775e-010
4.592144e-010
5.594628e-010
1.094272e-010
7.876615e-011
2.799508e-011
-2.764446e-011
-7.272896e-011
-9.590502e-011
-9.269096e-011
-6.611248e-011
-2.515469e-011
1.834224e-011
5.328294e-011
7.229217e-011
7.323615e-011
5.900389e-011
3.584487e-011
1.098630e-011
-9.607577e-012
-2.264182e-011
-2.776799e-011
-2.686720e-011
-2.280298e-011
-1.820677e-011
-1.472082e-011
-1.285659e-011
-1.233753e-011
-1.262953e-011
-1.335574e-011
-1.443347e-011
-1.595139e-011
-1.794434e-011
-2.024625e-011
-2.251799e-011
-2.442938e-011
-2.586752e-011
-2.703682e-011
-2.837307e-011
-3.029583e-011
-3.291505e-011
-3.582856e-011
-3.812179e-011
-3.859002e-011
-3.611612e-011
-3.007077e-011
-2.057112e-011
-8.488486e-012
4.830325e-012
1.802981e-011
3.022804e-011
4.130175e-011
5.183339e-011
6.272713e-011
7.466444e-011
8.766245e-011
1.009834e-010
1.134766e-010
1.242308e-010
1.332350e-010
1.417212e-010
1.519995e-010
1.668278e-010
1.885782e-010
2.185328e-010
2.565530e-010
3.011475e-010
3.497530e-010
3.989721e-010
4.446089e-010
4.815614e-010
5.038334e-010
5.049687e-010
4.790537e-010
4.221387e-010
3.336467e-010
2.172528e-010
8.087375e-011
-6.424150e-011
-2.049762e-010
-3.278640e-010
-4.202901e-010
-4.713590e-010
-4.727638e-010
-4.201025e-010
-3.148010e-010
-1.662238e-010
7.049837e-012
1.780549e-010
3.152479e-010
3.891769e-010
3.805873e-010
2.875046e-010
1.285642e-010
-5.933936e-011
-2.293065e-010
-3.367532e-010
-3.522836e-010
-2.710283e-010
-1.151697e-010
7.159279e-011
2.363010e-010
3.321209e-010
-1.313033e-011
-1.844230e-011
-2.635844e-011
-3.281156e-011
-3.366099e-011
-2.605847e-011
-9.536243e-012
1.352301e-011
3.827133e-011
5.861296e-011
6.895559e-011
6.594673e-011
4.960895e-011
2.344674e-011
-6.542619e-012
-3.363173e-011
-5.229291e-011
-5.964468e-011
-5.596451e-011
-4.418381e-011
-2.864801e-011
-1.365490e-011
-2.289719e-012
4.112704e-012
5.834313e-012
4.169521e-012
6.780259e-013
-3.411497e-012
-7.485024e-012
-1.151136e-011
-1.580612e-011
-2.074000e-011
-2.650141e-011
-3.297409e-011
-3.971640e-011
-4.601118e-011
-5.094019e-011
-5.346285e-011
-5.249644e-011
-4.701509e-011
-3.619100e-011
-1.957562e-011
2.712220e-012
2.986517e-011
6.041035e-011
9.242351e-011
1.239004e-010
1.531665e-010
1.791689e-010
2.015216e-010
2.202895e-010
2.356331e-010
2.475158e-010
2.556677e-010
2.598707e-010
2.604596e-010
2.588118e-010
2.575814e-010
2.605515e-010
2.721471e-010
2.967944e-010
3.383286e-010
3.995616e-010
4.819769e-010
5.854095e-010
7.075914e-010
8.435710e-010
9.851864e-010
1.120862e-009
1.235988e-009
1.313967e-009
1.337856e-009
1.292399e-009
1.166255e-009
9.543006e-010
6.599196e-010
2.970728e-010
-1.083513e-010
-5.187280e-010
-8.873688e-010
-1.164312e-009
-1.305028e-009
-1.280646e-009
-1.087207e-009
-7.508969e-010
-3.266888e-010
1.106307e-010
4.818029e-010
7.212852e-010
7.933244e-010
7.010101e-010
4.851244e-010
2.125726e-010
-4.254769e-011
-2.196950e-010
-2.881275e-010
-2.536130e-010
-1.535601e-010
-4.227741e-011
2.870629e-011
-1.720377e-010
-1.387222e-010
-8.223598e-011
-1.689303e-011
4.305627e-011
8.706026e-011
1.101777e-010
1.129243e-010
9.953188e-011
7.562485e-011
4.632408e-011
1.538501e-011
-1.463357e-011
-4.165676e-011
-6.348431e-011
-7.773874e-011
-8.242606e-011
-7.677730e-011
-6.188035e-011
-4.070631e-011
-1.744132e-011
3.636750e-012
1.930354e-011
2.812507e-011
3.055556e-011
2.842410e-011
2.407048e-011
1.947502e-011
1.568564e-011
1.269340e-011
9.729818e-012
5.819429e-012
3.490863e-013
-6.546330e-012
-1.390603e-011
-2.015724e-011
-2.351075e-011
-2.237311e-011
-1.563770e-011
-2.794095e-012
1.611133e-011
4.057225e-011
6.969914e-011
1.022440e-010
1.366210e-010
1.709902e-010
2.034422e-010
2.322534e-010
2.561112e-010
2.742115e-010
2.861889e-010
2.919365e-010
2.914496e-010
2.848114e-010
2.723720e-010
2.550461e-010
2.345895e-010
2.137281e-010
1.960870e-010
1.859784e-010
1.881430e-010
2.075107e-010
2.489399e-010
3.168276e-010
4.144782e-010
5.432230e-010
7.014174e-010
8.835376e-010
1.079593e-009
1.274970e-009
1.450716e-009
1.584296e-009
1.650941e-009
1.625905e-009
1.487974e-009
1.224302e-009
8.360399e-010
3.434310e-010
-2.115524e-010
-7.670252e-010
-1.248645e-009
-1.582353e-009
-1.710133e-009
-1.604954e-009
-1.280465e-009
-7.918772e-010
-2.265971e-010
3.138336e-010
7.362005e-010
9.765229e-010
1.013561e-009
8.710685e-010
6.082104e-010
3.011191e-010
2.126966e-011
-1.827704e-010
-2.948507e-010
-3.295972e-010
-3.209161e-010
-3.051639e-010
-3.337040e-010
-2.548800e-010
-1.234572e-010
2.320561e-011
1.480125e-010
2.242850e-010
2.416033e-010
2.060217e-010
1.354006e-010
5.214372e-011
-2.386030e-011
-7.986655e-011
-1.115315e-010
-1.212519e-010
-1.149680e-010
-9.902216e-011
-7.820061e-011
-5.528110e-011
-3.168861e-011
-8.499168e-012
1.289382e-011
3.076617e-011
4.358463e-011
5.066819e-011
5.257324e-011
5.096491e-011
4.802594e-011
4.566249e-011
4.486496e-011
4.548553e-011
4.651300e-011
4.670642e-011
4.530588e-011
4.251606e-011
3.956850e-011
3.835162e-011
4.078291e-011
4.819333e-011
6.096395e-011
7.852262e-011
9.963718e-011
1.228271e-010
1.466937e-010
1.700615e-010
1.919348e-010
2.113799e-010
2.274465e-010
2.391887e-010
2.457669e-010
2.465531e-010
2.411824e-010
2.295374e-010
2.117082e-010
1.879736e-010
1.588269e-010
1.250161e-010
8.756691e-011
4.778008e-011
7.256662e-012
-3.197948e-011
-6.724048e-011
-9.488318e-011
-1.101429e-010
-1.072645e-010
-8.002471e-011
-2.257710e-011
6.956221e-011
1.985614e-010
3.633993e-010
5.589626e-010
7.749848e-010
9.949087e-010
1.195164e-009
1.345740e-009
1.413003e-009
1.365261e-009
1.180587e-009
8.552189e-010
4.099710e-010
-1.080774e-010
-6.303805e-010
-1.078235e-009
-1.378486e-009
-1.479833e-009
-1.365331e-009
-1.057446e-009
-6.139717e-010
-1.156912e-010
3.510442e-010
7.122687e-010
9.203539e-010
9.607559e-010
8.505241e-010
6.298833e-010
3.499746e-010
6.054485e-011
-1.990977e-010
-4.040135e-010
-5.424789e-010
-6.114743e-010
-4.434302e-010
-3.264269e-010
-1.332008e-010
7.799144e-011
2.495868e-010
3.410752e-010
3.385810e-010
2.553665e-010
1.241653e-010
-1.515861e-011
-1.280558e-010
-1.938882e-010
-2.086584e-010
-1.821554e-010
-1.316370e-010
-7.489056e-011
-2.509240e-011
1.133216e-011
3.400531e-011
4.619083e-011
5.210551e-011
5.504457e-011
5.673983e-011
5.772603e-011
5.813150e-011
5.830831e-011
5.898381e-011
6.096366e-011
6.467157e-011
6.986118e-011
7.571080e-011
8.127327e-011
8.605330e-011
9.040217e-011
9.550556e-011
1.029393e-010
1.139823e-010
1.289946e-010
1.471425e-010
1.665834e-010
1.850145e-010
2.003378e-010
2.111638e-010
2.169830e-010
2.180016e-010
2.147766e-010
2.078434e-010
1.974839e-010
1.836849e-010
1.662504e-010
1.449770e-010
1.198135e-010
9.094148e-011
5.874929e-011
2.368381e-011
-1.399760e-011
-5.450756e-011
-9.871222e-011
-1.480767e-010
-2.042745e-010
-2.685024e-010
-3.406743e-010
-4.187555e-010
-4.984469e-010
-5.732668e-010
-6.348982e-010
-6.736228e-010
-6.787713e-010
-6.393914e-010
-5.455367e-010
-3.905337e-010
-1.741828e-010
9.381529e-011
3.915101e-010
6.849241e-010
9.318436e-010
1.089097e-009
1.121907e-009
1.012894e-009
7.680739e-010
4.178985e-010
1.280401e-011
-3.856893e-010
-7.161219e-010
-9.279041e-010
-9.896600e-010
-8.938998e-010
-6.577896e-010
-3.204130e-010
6.285637e-011
4.282884e-010
7.134246e-010
8.674862e-010
8.610937e-010
6.933082e-010
3.939158e-010
1.952081e-011
-3.566104e-010
-6.592664e-010
-8.273497e-010
-4.409014e-010
-3.117947e-010
-1.005375e-010
1.256641e-010
3.007871e-010
3.794176e-010
3.482519e-010
2.267322e-010
5.764961e-011
-1.082716e-010
-2.282330e-010
-2.785882e-010
-2.585216e-010
-1.861834e-010
-8.977436e-011
2.641894e-012
7.109147e-011
1.073276e-010
1.139812e-010
1.006065e-010
7.874368e-011
5.790293e-011
4.353940e-011
3.706475e-011
3.719828e-011
4.167709e-011
4.854860e-011
5.670408e-011
6.576711e-011
7.570417e-011
8.652324e-011
9.823926e-011
1.110409e-010
1.254404e-010
1.422018e-010
1.619806e-010
1.848147e-010
2.097160e-010
2.346088e-010
2.567018e-010
2.731836e-010
2.819791e-010
2.822705e-010
2.746031e-010
2.605656e-010
2.422020e-010
2.213971e-010
1.994411e-010
1.768940e-010
1.537346e-010
1.296935e-010
1.046165e-010
7.870306e-011
5.249983e-011
2.660606e-011
1.144936e-012
-2.483182e-011
-5.377084e-011
-8.964799e-011
-1.374980e-010
-2.025205e-010
-2.890096e-010
-3.994001e-010
-5.336085e-010
-6.886400e-010
-8.582477e-010
-1.032450e-009
-1.196956e-009
-1.332927e-009
-1.417761e-009
-1.427540e-009
-1.341247e-009
-1.146133e-009
-8.428390e-010
-4.486587e-010
2.353820e-012
4.628409e-010
8.785322e-010
1.196213e-009
1.371748e-009
1.377006e-009
1.205085e-009
8.735397e-010
4.251665e-010
-7.455469e-011
-5.445284e-010
-9.002840e-010
-1.070569e-009
-1.015320e-009
-7.401043e-010
-3.015067e-010
2.005603e-010
6.441234e-010
9.158162e-010
9.427380e-010
7.155594e-010
2.946014e-010
-2.045404e-010
-6.426995e-010
-8.970613e-010
-2.845448e-010
-1.860147e-010
-2.695617e-011
1.380513e-010
2.557013e-010
2.903883e-010
2.341771e-010
1.075490e-010
-4.879234e-011
-1.878789e-010
-2.713256e-010
-2.802048e-010
-2.187779e-010
-1.105729e-010
1.105468e-011
1.141293e-010
1.771354e-010
1.933610e-010
1.698985e-010
1.226325e-010
6.965048e-011
2.556327e-011
-1.638773e-012
-1.081065e-011
-5.682797e-012
8.021828e-012
2.513509e-011
4.250660e-011
5.925352e-011
7.615816e-011
9.475489e-011
1.165616e-010
1.426464e-010
1.734819e-010
2.089168e-010
2.481304e-010
2.895494e-010
3.308399e-010
3.690962e-010
4.012925e-010
4.249072e-010
4.385342e-010
4.422467e-010
4.375663e-010
4.270271e-010
4.134785e-010
3.993589e-010
3.861762e-010
3.743478e-010
3.634288e-010
3.526211e-010
3.413606e-010
3.297459e-010
3.186097e-010
3.091488e-010
3.021936e-010
2.973517e-010
2.923363e-010
2.827569e-010
2.624672e-010
2.243526e-010
1.612729e-010
6.688600e-011
-6.375854e-011
-2.336893e-010
-4.432331e-010
-6.887252e-010
-9.607953e-010
-1.242755e-009
-1.509938e-009
-1.730809e-009
-1.870208e-009
-1.894427e-009
-1.777207e-009
-1.505476e-009
-1.083843e-009
-5.372506e-010
8.850419e-011
7.286806e-010
1.304589e-009
1.732499e-009
1.936873e-009
1.866917e-009
1.513367e-009
9.203884e-010
1.868503e-010
-5.471518e-010
-1.128605e-009
-1.429360e-009
-1.383165e-009
-1.009707e-009
-4.156261e-010
2.310203e-010
7.475089e-010
9.909623e-010
9.030384e-010
5.291602e-010
4.503022e-012
-4.898087e-010
-7.862560e-010
2.444229e-011
4.320133e-011
7.050793e-011
9.120136e-011
9.043927e-011
5.919522e-011
-1.616973e-012
-7.994775e-011
-1.552118e-010
-2.042989e-010
-2.091925e-010
-1.635242e-010
-7.550871e-011
3.403339e-011
1.380055e-010
2.114525e-010
2.390203e-010
2.188772e-010
1.619812e-010
8.738216e-011
1.561151e-011
-3.735046e-011
-6.360662e-011
-6.365222e-011
-4.399398e-011
-1.345202e-011
2.031969e-011
5.298952e-011
8.399879e-011
1.156147e-010
1.512919e-010
1.940833e-010
2.455960e-010
3.056447e-010
3.724695e-010
4.432408e-010
5.146184e-010
5.832193e-010
6.459898e-010
7.005180e-010
7.453165e-010
7.800427e-010
8.055765e-010
8.238632e-010
8.374945e-010
8.490915e-010
8.606504e-010
8.730575e-010
8.859543e-010
8.980233e-010
9.076244e-010
9.135652e-010
9.157131e-010
9.151922e-010
9.140462e-010
9.144502e-010
9.177447e-010
9.236368e-010
9.298414e-010
9.322251e-010
9.252791e-010
9.026146e-010
8.572339e-010
7.815651e-010
6.675376e-010
5.071494e-010
2.938739e-010
2.492907e-011
-2.960173e-010
-6.564402e-010
-1.033606e-009
-1.394790e-009
-1.699228e-009
-1.901734e-009
-1.957932e-009
-1.831152e-009
-1.500899e-009
-9.721540e-010
-2.835526e-010
4.887560e-010
1.235312e-009
1.828263e-009
2.146740e-009
2.108182e-009
1.697174e-009
9.814361e-010
1.064620e-010
-7.340683e-010
-1.346795e-009
-1.592996e-009
-1.431376e-009
-9.336524e-010
-2.651150e-010
3.659364e-010
7.744098e-010
8.580686e-010
6.294577e-010
2.080808e-010
-2.250460e-010
-4.944261e-010
4.290082e-010
3.285658e-010
1.620529e-010
-2.249661e-011
-1.793250e-010
-2.778591e-010
-3.082662e-010
-2.789542e-010
-2.087345e-010
-1.180601e-010
-2.313337e-011
6.557379e-011
1.413877e-010
1.985966e-010
2.310957e-010
2.334933e-010
2.039001e-010
1.465258e-010
7.228234e-011
-3.333751e-012
-6.439086e-011
-9.900867e-011
-1.023653e-010
-7.712474e-011
-3.132111e-011
2.524465e-011
8.460561e-011
1.429311e-010
2.009213e-010
2.624878e-010
3.324965e-010
4.145444e-010
5.095378e-010
6.154042e-010
7.278023e-010
8.413853e-010
9.510783e-010
1.052977e-009
1.144704e-009
1.225317e-009
1.294983e-009
1.354645e-009
1.405782e-009
1.450241e-009
1.490037e-009
1.527025e-009
1.562469e-009
1.596646e-009
1.628669e-009
1.656714e-009
1.678608e-009
1.692648e-009
1.698310e-009
1.696582e-009
1.689765e-009
1.680809e-009
1.672485e-009
1.666705e-009
1.664231e-009
1.664767e-009
1.667192e-009
1.669586e-009
1.668829e-009
1.659798e-009
1.634500e-009
1.581657e-009
1.487172e-009
1.335690e-009
1.113163e-009
8.101040e-010
4.252235e-010
-3.090277e-011
-5.325925e-010
-1.037105e-009
-1.485379e-009
-1.807152e-009
-1.931695e-009
-1.803875e-009
-1.402844e-009
-7.581610e-010
4.321142e-011
8.646749e-010
1.544546e-009
1.933797e-009
1.937595e-009
1.547673e-009
8.531827e-010
2.318172e-011
-7.370756e-010
-1.244216e-009
-1.390886e-009
-1.177294e-009
-7.081488e-010
-1.548329e-010
3.045623e-010
5.459796e-010
5.386260e-010
3.481933e-010
1.033118e-010
-6.114516e-011
8.217300e-010
5.902699e-010
2.139698e-010
-1.852488e-010
-4.920968e-010
-6.332326e-010
-5.942183e-010
-4.145329e-010
-1.657095e-010
7.683084e-011
2.571486e-010
3.501980e-010
3.601435e-010
3.096908e-010
2.269431e-010
1.354571e-010
5.017070e-011
-2.144294e-011
-7.573795e-011
-1.097258e-010
-1.200635e-010
-1.041162e-010
-6.177663e-011
3.523353e-012
8.546709e-011
1.769747e-010
2.727628e-010
3.711025e-010
4.739756e-010
5.855917e-010
7.099595e-010
8.485593e-010
9.990445e-010
1.155409e-009
1.309450e-009
1.452876e-009
1.579231e-009
1.685012e-009
1.769737e-009
1.835179e-009
1.884258e-009
1.920105e-009
1.945592e-009
1.963326e-009
1.975835e-009
1.985657e-009
1.995140e-009
2.006013e-009
2.018979e-009
2.033588e-009
2.048515e-009
2.062169e-009
2.073344e-009
2.081619e-009
2.087355e-009
2.091354e-009
2.094440e-009
2.097263e-009
2.100479e-009
2.105220e-009
2.113521e-009
2.128337e-009
2.152857e-009
2.189136e-009
2.236284e-009
2.288650e-009
2.334410e-009
2.354941e-009
2.325315e-009
2.216321e-009
1.998474e-009
1.648308e-009
1.156648e-009
5.374539e-010
-1.653611e-010
-8.765460e-010
-1.496596e-009
-1.918469e-009
-2.051947e-009
-1.850130e-009
-1.330119e-009
-5.798178e-010
2.542465e-010
9.977167e-010
1.491032e-009
1.632025e-009
1.405091e-009
8.865668e-010
2.231182e-010
-4.110753e-010
-8.649119e-010
-1.052072e-009
-9.699578e-010
-6.901498e-010
-3.251730e-010
1.477370e-011
2.581041e-010
3.876774e-010
4.318545e-010
4.372325e-010
1.070085e-009
7.366396e-010
2.009463e-010
-3.523001e-010
-7.503771e-010
-8.879299e-010
-7.536117e-010
-4.216924e-010
-1.596071e-011
3.375230e-010
5.505354e-010
5.928927e-010
4.894843e-010
2.999738e-010
9.214494e-011
-8.027173e-011
-1.887438e-010
-2.293112e-010
-2.140878e-010
-1.606079e-010
-8.375318e-011
7.657733e-012
1.102160e-010
2.233444e-010
3.469771e-010
4.806360e-010
6.237744e-010
7.764355e-010
9.392429e-010
1.112328e-009
1.293576e-009
1.477090e-009
1.652788e-009
1.807552e-009
1.927692e-009
2.001859e-009
2.023399e-009
1.991347e-009
1.909892e-009
1.786717e-009
1.631036e-009
1.452092e-009
1.258570e-009
1.058824e-009
8.614468e-010
6.756198e-010
5.108809e-010
3.763229e-010
2.795457e-010
2.257899e-010
2.175304e-010
2.545520e-010
3.342862e-010
4.521401e-010
6.016750e-010
7.747157e-010
9.616405e-010
1.152105e-009
1.336272e-009
1.506375e-009
1.658193e-009
1.792014e-009
1.912705e-009
2.028747e-009
2.150253e-009
2.286085e-009
2.440294e-009
2.608258e-009
2.773249e-009
2.904561e-009
2.958675e-009
2.884736e-009
2.634766e-009
2.177444e-009
1.512490e-009
6.812928e-010
-2.307686e-010
-1.103386e-009
-1.801913e-009
-2.205986e-009
-2.239450e-009
-1.893376e-009
-1.234761e-009
-3.968647e-010
4.479858e-010
1.127080e-009
1.507694e-009
1.528242e-009
1.211460e-009
6.558801e-010
8.159361e-012
-5.755251e-010
-9.678117e-010
-1.097734e-009
-9.611724e-010
-6.136692e-010
-1.503991e-010
3.191169e-010
6.943979e-010
9.011400e-010
1.055320e-009
6.926733e-010
1.172236e-010
-4.604063e-010
-8.459977e-010
-9.269246e-010
-7.029051e-010
-2.744835e-010
2.022420e-010
5.745775e-010
7.431785e-010
6.865482e-010
4.553609e-010
1.436649e-010
-1.487475e-010
-3.479396e-010
-4.217142e-010
-3.779223e-010
-2.501719e-010
-7.928641e-011
1.017943e-010
2.754176e-010
4.388081e-010
5.986628e-010
7.644644e-010
9.433009e-010
1.137227e-009
1.342677e-009
1.550778e-009
1.747686e-009
1.914779e-009
2.029224e-009
2.065561e-009
1.998589e-009
1.807136e-009
1.477731e-009
1.007051e-009
4.023968e-010
-3.198236e-010
-1.136868e-009
-2.022593e-009
-2.949556e-009
-3.889850e-009
-4.814916e-009
-5.695051e-009
-6.499412e-009
-7.196952e-009
-7.758275e-009
-8.157909e-009
-8.376430e-009
-8.402012e-009
-8.231288e-009
-7.869691e-009
-7.331473e-009
-6.639478e-009
-5.824515e-009
-4.924045e-009
-3.979956e-009
-3.035423e-009
-2.131128e-009
-1.301338e-009
-5.704029e-010
4.982113e-011
5.611672e-010
9.785852e-010
1.327427e-009
1.638380e-009
1.940234e-009
2.251392e-009
2.571854e-009
2.878021e-009
3.122698e-009
3.241798e-009
3.167635e-009
2.846655e-009
2.257735e-009
1.426289e-009
4.297533e-010
-6.084019e-010
-1.536606e-009
-2.202746e-009
-2.486441e-009
-2.329202e-009
-1.754901e-009
-8.738507e-010
1.333553e-010
1.051452e-009
1.679149e-009
1.879398e-009
1.617386e-009
9.739176e-010
1.278239e-010
-6.900645e-010
-1.259659e-009
-1.433238e-009
-1.177461e-009
-5.825924e-010
1.644589e-010
8.356107e-010
1.229148e-009
7.131844e-010
4.272416e-010
-1.812268e-011
-4.455101e-010
-6.946140e-010
-6.794832e-010
-4.147832e-010
-3.607810e-012
4.057472e-010
6.756489e-010
7.260986e-010
5.566449e-010
2.381044e-010
-1.192219e-010
-4.062873e-010
-5.491761e-010
-5.252838e-010
-3.593166e-010
-1.044940e-010
1.812780e-010
4.547444e-010
6.964034e-010
9.087256e-010
1.106879e-009
1.307026e-009
1.516537e-009
1.728368e-009
1.919682e-009
2.053480e-009
2.081842e-009
1.949937e-009
1.600635e-009
9.798251e-010
4.231295e-011
-1.242416e-009
-2.885662e-009
-4.877302e-009
-7.186410e-009
-9.764339e-009
-1.254919e-008
-1.547021e-008
-1.845113e-008
-2.141204e-008
-2.427022e-008
-2.694104e-008
-2.933955e-008
-3.138338e-008
-3.299670e-008
-3.411455e-008
-3.468690e-008
-3.468199e-008
-3.408873e-008
-3.291835e-008
-3.120535e-008
-2.900755e-008
-2.640500e-008
-2.349725e-008
-2.039863e-008
-1.723178e-008
-1.411960e-008
-1.117647e-008
-8.499414e-009
-6.160119e-009
-4.198785e-009
-2.620757e-009
-1.397079e-009
-4.697234e-010
2.383603e-010
8.093304e-010
1.314778e-009
1.801283e-009
2.280387e-009
2.725562e-009
3.077469e-009
3.257179e-009
3.185581e-009
2.805906e-009
2.105405e-009
1.131454e-009
-2.904735e-012
-1.128404e-009
-2.046114e-009
-2.569086e-009
-2.571423e-009
-2.031859e-009
-1.056584e-009
1.312084e-010
1.238957e-009
1.980981e-009
2.162599e-009
1.744691e-009
8.641290e-010
-2.017329e-010
-1.119223e-009
-1.605426e-009
-1.522038e-009
-9.223976e-010
-3.340791e-011
8.229701e-010
1.341881e-009
6.318395e-011
-3.044354e-011
-1.646121e-010
-2.651655e-010
-2.688875e-010
-1.507766e-010
6.374512e-011
3.064453e-010
4.910028e-010
5.454690e-010
4.399739e-010
1.989555e-010
-1.066453e-010
-3.837921e-010
-5.484970e-010
-5.516794e-010
-3.906097e-010
-1.032020e-010
2.506359e-010
6.118887e-010
9.403794e-010
1.221790e-009
1.462761e-009
1.677498e-009
1.871587e-009
2.028379e-009
2.101269e-009
2.012673e-009
1.658680e-009
9.176262e-010
-3.390039e-010
-2.234520e-009
-4.874733e-009
-8.336493e-009
-1.265835e-008
-1.783470e-008
-2.381433e-008
-3.050333e-008
-3.777132e-008
-4.545937e-008
-5.338781e-008
-6.136278e-008
-6.918128e-008
-7.663551e-008
-8.351729e-008
-8.962352e-008
-9.476278e-008
-9.876285e-008
-1.014781e-007
-1.027968e-007
-1.026465e-007
-1.010002e-007
-9.787950e-008
-9.335854e-008
-8.756478e-008
-8.067800e-008
-7.292557e-008
-6.457387e-008
-5.591567e-008
-4.725419e-008
-3.888470e-008
-3.107505e-008
-2.404683e-008
-1.795902e-008
-1.289646e-008
-8.865150e-009
-5.796012e-009
-3.557454e-009
-1.975593e-009
-8.594840e-010
-2.770807e-011
6.674697e-010
1.321652e-009
1.968006e-009
2.576812e-009
3.066034e-009
3.323343e-009
3.238350e-009
2.740832e-009
1.836875e-009
6.316261e-010
-6.728648e-010
-1.811676e-009
-2.520360e-009
-2.613049e-009
-2.050934e-009
-9.742977e-010
3.206401e-010
1.461034e-009
2.112134e-009
2.089601e-009
1.427454e-009
3.722218e-010
-7.000120e-010
-1.416911e-009
-1.545087e-009
-1.075347e-009
-2.236504e-010
6.542231e-010
1.202016e-009
-7.839477e-010
-5.912949e-010
-2.721352e-010
8.125674e-011
3.809137e-010
5.669658e-010
6.171438e-010
5.421009e-010
3.729212e-010
1.488312e-010
-8.988945e-011
-3.038820e-010
-4.552805e-010
-5.107618e-010
-4.480128e-010
-2.629155e-010
2.705736e-011
3.864152e-010
7.717690e-010
1.144314e-009
1.478715e-009
1.763591e-009
1.992155e-009
2.145448e-009
2.173256e-009
1.978363e-009
1.408414e-009
2.574243e-010
-1.723273e-009
-4.806349e-009
-9.264560e-009
-1.534440e-008
-2.324035e-008
-3.307267e-008
-4.487154e-008
-5.856940e-008
-7.400196e-008
-9.091699e-008
-1.089882e-007
-1.278319e-007
-1.470230e-007
-1.661098e-007
-1.846272e-007
-2.021081e-007
-2.180949e-007
-2.321519e-007
-2.438773e-007
-2.529152e-007
-2.589679e-007
-2.618064e-007
-2.612811e-007
-2.573313e-007
-2.499948e-007
-2.394157e-007
-2.258491e-007
-2.096617e-007
-1.913252e-007
-1.714026e-007
-1.505255e-007
-1.293641e-007
-1.085907e-007
-8.883936e-008
-7.066464e-008
-5.450422e-008
-4.064983e-008
-2.923085e-008
-2.021366e-008
-1.341754e-008
-8.544880e-009
-5.221550e-009
-3.041990e-009
-1.613798e-009
-5.977964e-010
2.594768e-010
1.103703e-009
1.964730e-009
2.766707e-009
3.359531e-009
3.570642e-009
3.269296e-009
2.427730e-009
1.158977e-009
-2.868961e-010
-1.575738e-009
-2.382058e-009
-2.494467e-009
-1.896296e-009
-7.870475e-010
4.713686e-010
1.471608e-009
1.901922e-009
1.658193e-009
8.810206e-010
-1.005806e-010
-8.996625e-010
-1.224848e-009
-9.940712e-010
-3.608361e-010
3.583668e-010
8.246129e-010
-1.644396e-009
-1.124570e-009
-2.974715e-010
5.418440e-010
1.127113e-009
1.309330e-009
1.090874e-009
5.998736e-010
2.450493e-011
-4.602374e-010
-7.440436e-010
-7.969817e-010
-6.531529e-010
-3.779872e-010
-3.683479e-011
3.237484e-010
6.798726e-010
1.024096e-009
1.355703e-009
1.671564e-009
1.957621e-009
2.178410e-009
2.262179e-009
2.081686e-009
1.433909e-009
2.413533e-011
-2.539799e-009
-6.738793e-009
-1.311761e-008
-2.224521e-008
-3.466426e-008
-5.083623e-008
-7.108923e-008
-9.557602e-008
-1.242478e-007
-1.568466e-007
-1.929162e-007
-2.318272e-007
-2.728117e-007
-3.150006e-007
-3.574605e-007
-3.992265e-007
-4.393304e-007
-4.768257e-007
-5.108095e-007
-5.404421e-007
-5.649647e-007
-5.837154e-007
-5.961438e-007
-6.018257e-007
-6.004786e-007
-5.919782e-007
-5.763766e-007
-5.539202e-007
-5.250642e-007
-4.904795e-007
-4.510502e-007
-4.078566e-007
-3.621413e-007
-3.152595e-007
-2.686120e-007
-2.235666e-007
-1.813719e-007
-1.430752e-007
-1.094521e-007
-8.096031e-008
-5.772422e-008
-3.955277e-008
-2.598751e-008
-1.637224e-008
-9.933614e-009
-5.862458e-009
-3.388676e-009
-1.845386e-009
-7.195603e-010
3.145099e-010
1.384624e-009
2.439493e-009
3.300607e-009
3.743018e-009
3.590015e-009
2.796871e-009
1.495746e-009
-1.872142e-011
-1.365587e-009
-2.194857e-009
-2.305982e-009
-1.722024e-009
-6.865847e-010
4.211121e-010
1.224078e-009
1.485291e-009
1.189300e-009
5.333559e-010
-1.681362e-010
-6.239271e-010
-6.888598e-010
-4.150896e-010
-1.035451e-011
2.746398e-010
-2.301090e-009
-1.489060e-009
-2.199900e-010
1.015878e-009
1.787821e-009
1.877912e-009
1.336044e-009
4.264810e-010
-4.983996e-010
-1.136746e-009
-1.332319e-009
-1.097449e-009
-5.697584e-010
6.625306e-011
6.546598e-010
1.112730e-009
1.435749e-009
1.670205e-009
1.871926e-009
2.064332e-009
2.204513e-009
2.156981e-009
1.670859e-009
3.572228e-010
-2.332259e-009
-7.119211e-009
-1.489582e-008
-2.669678e-008
-4.364111e-008
-6.684537e-008
-9.731660e-008