# vtk DataFile Version 3.0
vtk output
ASCII
DATASET STRUCTURED_POINTS
DIMENSIONS 100 100 1
SPACING 1 1 1
ORIGIN 0 0 0
POINT_DATA 10000
SCALARS SFBox_profile double
LOOKUP_TABLE default 
9.439920e-003
9.439920e-003
9.439920e-003
9.439920e-003
9.439920e-003
9.439920e-003
9.439920e-003
9.439920e-003
9.439920e-003
9.439920e-003
9.439920e-003
9.439920e-003
9.439920e-003
9.439920e-003
9.439920e-003
9.439920e-003
9.439920e-003
9.439920e-003
9.439920e-003
9.439920e-003
9.439920e-003
9.439920e-003
9.439920e-003
9.439920e-003
9.439920e-003
9.439920e-003
9.439920e-003
9.439920e-003
9.439920e-003
9.439920e-003
9.439920e-003
9.439920e-003
9.439920e-003
9.439920e-003
9.439920e-003
9.439920e-003
9.439920e-003
9.439920e-003
9.439920e-003
9.439920e-003
9.439920e-003
9.439920e-003
9.439921e-003
9.439921e-003
9.439921e-003
9.439921e-003
9.439921e-003
9.439921e-003
9.439921e-003
9.439921e-003
9.439921e-003
9.439921e-003
9.439921e-003
9.439921e-003
9.439921e-003
9.439921e-003
9.439921e-003
9.439921e-003
9.439921e-003
9.439921e-003
9.439921e-003
9.439920e-003
9.439920e-003
9.439920e-003
9.439920e-003
9.439920e-003
9.439920e-003
9.439920e-003
9.439920e-003
9.439920e-003
9.439920e-003
9.439920e-003
9.439920e-003
9.439920e-003
9.439920e-003
9.439920e-003
9.439920e-003
9.439920e-003
9.439920e-003
9.439920e-003
9.439920e-003
9.439920e-003
9.439920e-003
9.439920e-003
9.439920e-003
9.439920e-003
9.439920e-003
9.439920e-003
9.439920e-003
9.439920e-003
9.439920e-003
9.439920e-003
9.439920e-003
9.439920e-003
9.439920e-003
9.439920e-003
9.439920e-003
9.439920e-003
9.439920e-003
9.439920e-003
9.439920e-003
9.439920e-003
9.439920e-003
9.439920e-003
9.439920e-003
9.439920e-003
9.439920e-003
9.439920e-003
9.439920e-003
9.439920e-003
9.439920e-003
9.439920e-003
9.439920e-003
9.439920e-003
9.439920e-003
9.439920e-003
9.439920e-003
9.439920e-003
9.439920e-003
9.439920e-003
9.439920e-003
9.439920e-003
9.439920e-003
9.439920e-003
9.439920e-003
9.439920e-003
9.439920e-003
9.439920e-003
9.439920e-003
9.439920e-003
9.439920e-003
9.439920e-003
9.439920e-003
9.439920e-003
9.439920e-003
9.439920e-003
9.439920e-003
9.439920e-003
9.439920e-003
9.439920e-003
9.439920e-003
9.439920e-003
9.439921e-003
9.439921e-003
9.439921e-003
9.439921e-003
9.439921e-003
9.439921e-003
9.439921e-003
9.439921e-003
9.439921e-003
9.439921e-003
9.439921e-003
9.439921e-003
9.439921e-003
9.439921e-003
9.439921e-003
9.439921e-003
9.439921e-003
9.439921e-003
9.439921e-003
9.439920e-003
9.439920e-003
9.439920e-003
9.439920e-003
9.439920e-003
9.439920e-003
9.439920e-003
9.439920e-003
9.439920e-003
9.439920e-003
9.439920e-003
9.439920e-003
9.439920e-003
9.439920e-003
9.439920e-003
9.439920e-003
9.439920e-003
9.439920e-003
9.439920e-003
9.439920e-003
9.439920e-003
9.439920e-003
9.439920e-003
9.439920e-003
9.439920e-003
9.439920e-003
9.439920e-003
9.439920e-003
9.439920e-003
9.439920e-003
9.439920e-003
9.439920e-003
9.439920e-003
9.439920e-003
9.439920e-003
9.439920e-003
9.439920e-003
9.439920e-003
9.439920e-003
9.439920e-003
9.439920e-003
9.439920e-003
9.439920e-003
9.439920e-003
9.439920e-003
9.439920e-003
9.439920e-003
9.439920e-003
9.439920e-003
9.439920e-003
9.439920e-003
9.439920e-003
9.439920e-003
9.439920e-003
9.439920e-003
9.439920e-003
9.439920e-003
9.439920e-003
9.439920e-003
9.439920e-003
9.439920e-003
9.439920e-003
9.439920e-003
9.439920e-003
9.439920e-003
9.439920e-003
9.439920e-003
9.439920e-003
9.439920e-003
9.439920e-003
9.439920e-003
9.439920e-003
9.439920e-003
9.439920e-003
9.439920e-003
9.439920e-003
9.439921e-003
9.439921e-003
9.439921e-003
9.439921e-003
9.439921e-003
9.439921e-003
9.439921e-003
9.439921e-003
9.439921e-003
9.439921e-003
9.439921e-003
9.439921e-003
9.439921e-003
9.439921e-003
9.439921e-003
9.439921e-003
9.439921e-003
9.439921e-003
9.439921e-003
9.439921e-003
9.439921e-003
9.439921e-003
9.439921e-003
9.439921e-003
9.439921e-003
9.439921e-003
9.439921e-003
9.439921e-003
9.439920e-003
9.439920e-003
9.439920e-003
9.439920e-003
9.439920e-003
9.439920e-003
9.439920e-003
9.439920e-003
9.439920e-003
9.439920e-003
9.439920e-003
9.439920e-003
9.439920e-003
9.439920e-003
9.439920e-003
9.439920e-003
9.439920e-003
9.439920e-003
9.439920e-003
9.439920e-003
9.439920e-003
9.439920e-003
9.439920e-003
9.439920e-003
9.439920e-003
9.439920e-003
9.439920e-003
9.439920e-003
9.439920e-003
9.439920e-003
9.439920e-003
9.439920e-003
9.439920e-003
9.439920e-003
9.439920e-003
9.439920e-003
9.439920e-003
9.439920e-003
9.439920e-003
9.439920e-003
9.439920e-003
9.439920e-003
9.439920e-003
9.439920e-003
9.439920e-003
9.439920e-003
9.439920e-003
9.439920e-003
9.439920e-003
9.439920e-003
9.439920e-003
9.439920e-003
9.439920e-003
9.439920e-003
9.439920e-003
9.439920e-003
9.439920e-003
9.439920e-003
9.439920e-003
9.439920e-003
9.439920e-003
9.439920e-003
9.439920e-003
9.439920e-003
9.439920e-003
9.439920e-003
9.439920e-003
9.439921e-003
9.439921e-003
9.439921e-003
9.439921e-003
9.439921e-003
9.439921e-003
9.439921e-003
9.439922e-003
9.439922e-003
9.439922e-003
9.439922e-003
9.439922e-003
9.439922e-003
9.439922e-003
9.439923e-003
9.439923e-003
9.439923e-003
9.439923e-003
9.439923e-003
9.439923e-003
9.439923e-003
9.439923e-003
9.439923e-003
9.439923e-003
9.439923e-003
9.439922e-003
9.439922e-003
9.439922e-003
9.439922e-003
9.439922e-003
9.439922e-003
9.439921e-003
9.439921e-003
9.439921e-003
9.439921e-003
9.439921e-003
9.439921e-003
9.439920e-003
9.439920e-003
9.439920e-003
9.439920e-003
9.439920e-003
9.439920e-003
9.439920e-003
9.439920e-003
9.439920e-003
9.439920e-003
9.439920e-003
9.439920e-003
9.439920e-003
9.439920e-003
9.439920e-003
9.439920e-003
9.439920e-003
9.439920e-003
9.439920e-003
9.439920e-003
9.439920e-003
9.439920e-003
9.439920e-003
9.439920e-003
9.439920e-003
9.439920e-003
9.439920e-003
9.439920e-003
9.439920e-003
9.439920e-003
9.439920e-003
9.439920e-003
9.439920e-003
9.439920e-003
9.439920e-003
9.439920e-003
9.439920e-003
9.439920e-003
9.439920e-003
9.439920e-003
9.439920e-003
9.439920e-003
9.439920e-003
9.439920e-003
9.439920e-003
9.439920e-003
9.439920e-003
9.439920e-003
9.439920e-003
9.439920e-003
9.439920e-003
9.439920e-003
9.439920e-003
9.439920e-003
9.439920e-003
9.439920e-003
9.439920e-003
9.439920e-003
9.439920e-003
9.439920e-003
9.439921e-003
9.439921e-003
9.439921e-003
9.439921e-003
9.439921e-003
9.439922e-003
9.439922e-003
9.439922e-003
9.439923e-003
9.439923e-003
9.439923e-003
9.439924e-003
9.439924e-003
9.439924e-003
9.439925e-003
9.439925e-003
9.439925e-003
9.439925e-003
9.439925e-003
9.439926e-003
9.439926e-003
9.439926e-003
9.439926e-003
9.439926e-003
9.439926e-003
9.439925e-003
9.439925e-003
9.439925e-003
9.439925e-003
9.439925e-003
9.439924e-003
9.439924e-003
9.439924e-003
9.439923e-003
9.439923e-003
9.439923e-003
9.439922e-003
9.439922e-003
9.439922e-003
9.439921e-003
9.439921e-003
9.439921e-003
9.439921e-003
9.439920e-003
9.439920e-003
9.439920e-003
9.439920e-003
9.439920e-003
9.439920e-003
9.439920e-003
9.439920e-003
9.439920e-003
9.439920e-003
9.439920e-003
9.439920e-003
9.439920e-003
9.439920e-003
9.439920e-003
9.439920e-003
9.439920e-003
9.439920e-003
9.439920e-003
9.439920e-003
9.439920e-003
9.439920e-003
9.439920e-003
9.439920e-003
9.439920e-003
9.439920e-003
9.439920e-003
9.439920e-003
9.439920e-003
9.439920e-003
9.439920e-003
9.439920e-003
9.439920e-003
9.439920e-003
9.439920e-003
9.439920e-003
9.439920e-003
9.439920e-003
9.439920e-003
9.439920e-003
9.439920e-003
9.439920e-003
9.439920e-003
9.439920e-003
9.439920e-003
9.439920e-003
9.439920e-003
9.439920e-003
9.439920e-003
9.439920e-003
9.439920e-003
9.439920e-003
9.439920e-003
9.439920e-003
9.439921e-003
9.439921e-003
9.439921e-003
9.439921e-003
9.439922e-003
9.439922e-003
9.439923e-003
9.439923e-003
9.439924e-003
9.439924e-003
9.439925e-003
9.439925e-003
9.439926e-003
9.439926e-003
9.439927e-003
9.439928e-003
9.439928e-003
9.439929e-003
9.439929e-003
9.439929e-003
9.439930e-003
9.439930e-003
9.439930e-003
9.439930e-003
9.439930e-003
9.439930e-003
9.439930e-003
9.439930e-003
9.439930e-003
9.439930e-003
9.439929e-003
9.439929e-003
9.439929e-003
9.439928e-003
9.439928e-003
9.439927e-003
9.439926e-003
9.439926e-003
9.439925e-003
9.439924e-003
9.439924e-003
9.439923e-003
9.439923e-003
9.439922e-003
9.439922e-003
9.439921e-003
9.439921e-003
9.439921e-003
9.439921e-003
9.439920e-003
9.439920e-003
9.439920e-003
9.439920e-003
9.439920e-003
9.439920e-003
9.439920e-003
9.439920e-003
9.439920e-003
9.439920e-003
9.439920e-003
9.439920e-003
9.439920e-003
9.439920e-003
9.439920e-003
9.439920e-003
9.439920e-003
9.439920e-003
9.439920e-003
9.439920e-003
9.439920e-003
9.439920e-003
9.439920e-003
9.439920e-003
9.439920e-003
9.439920e-003
9.439920e-003
9.439920e-003
9.439920e-003
9.439920e-003
9.439920e-003
9.439920e-003
9.439920e-003
9.439920e-003
9.439920e-003
9.439920e-003
9.439920e-003
9.439920e-003
9.439920e-003
9.439920e-003
9.439920e-003
9.439920e-003
9.439920e-003
9.439920e-003
9.439920e-003
9.439920e-003
9.439920e-003
9.439920e-003
9.439920e-003
9.439921e-003
9.439921e-003
9.439921e-003
9.439922e-003
9.439922e-003
9.439923e-003
9.439923e-003
9.439924e-003
9.439925e-003
9.439926e-003
9.439927e-003
9.439928e-003
9.439929e-003
9.439930e-003
9.439931e-003
9.439932e-003
9.439933e-003
9.439933e-003
9.439934e-003
9.439935e-003
9.439936e-003
9.439936e-003
9.439937e-003
9.439937e-003
9.439937e-003
9.439937e-003
9.439938e-003
9.439938e-003
9.439937e-003
9.439937e-003
9.439937e-003
9.439936e-003
9.439936e-003
9.439935e-003
9.439935e-003
9.439934e-003
9.439933e-003
9.439932e-003
9.439931e-003
9.439930e-003
9.439929e-003
9.439928e-003
9.439927e-003
9.439926e-003
9.439925e-003
9.439924e-003
9.439923e-003
9.439923e-003
9.439922e-003
9.439922e-003
9.439921e-003
9.439921e-003
9.439921e-003
9.439920e-003
9.439920e-003
9.439920e-003
9.439920e-003
9.439920e-003
9.439920e-003
9.439920e-003
9.439920e-003
9.439920e-003
9.439920e-003
9.439920e-003
9.439920e-003
9.439920e-003
9.439920e-003
9.439920e-003
9.439920e-003
9.439920e-003
9.439920e-003
9.439920e-003
9.439920e-003
9.439920e-003
9.439920e-003
9.439920e-003
9.439920e-003
9.439920e-003
9.439920e-003
9.439920e-003
9.439920e-003
9.439920e-003
9.439920e-003
9.439920e-003
9.439920e-003
9.439920e-003
9.439920e-003
9.439920e-003
9.439920e-003
9.439920e-003
9.439920e-003
9.439920e-003
9.439920e-003
9.439920e-003
9.439920e-003
9.439920e-003
9.439920e-003
9.439920e-003
9.439921e-003
9.439921e-003
9.439921e-003
9.439922e-003
9.439923e-003
9.439923e-003
9.439924e-003
9.439925e-003
9.439927e-003
9.439928e-003
9.439929e-003
9.439931e-003
9.439932e-003
9.439934e-003
9.439935e-003
9.439937e-003
9.439938e-003
9.439939e-003
9.439940e-003
9.439941e-003
9.439942e-003
9.439943e-003
9.439943e-003
9.439944e-003
9.439944e-003
9.439945e-003
9.439945e-003
9.439945e-003
9.439945e-003
9.439945e-003
9.439945e-003
9.439944e-003
9.439944e-003
9.439944e-003
9.439943e-003
9.439942e-003
9.439942e-003
9.439941e-003
9.439940e-003
9.439939e-003
9.439938e-003
9.439937e-003
9.439935e-003
9.439934e-003
9.439932e-003
9.439931e-003
9.439929e-003
9.439928e-003
9.439926e-003
9.439925e-003
9.439924e-003
9.439923e-003
9.439922e-003
9.439922e-003
9.439921e-003
9.439921e-003
9.439921e-003
9.439920e-003
9.439920e-003
9.439920e-003
9.439920e-003
9.439920e-003
9.439920e-003
9.439920e-003
9.439920e-003
9.439920e-003
9.439920e-003
9.439920e-003
9.439920e-003
9.439920e-003
9.439920e-003
9.439920e-003
9.439920e-003
9.439920e-003
9.439920e-003
9.439920e-003
9.439920e-003
9.439920e-003
9.439920e-003
9.439920e-003
9.439920e-003
9.439920e-003
9.439920e-003
9.439920e-003
9.439920e-003
9.439920e-003
9.439920e-003
9.439920e-003
9.439920e-003
9.439920e-003
9.439920e-003
9.439920e-003
9.439920e-003
9.439920e-003
9.439920e-003
9.439920e-003
9.439920e-003
9.439920e-003
9.439921e-003
9.439921e-003
9.439922e-003
9.439922e-003
9.439923e-003
9.439924e-003
9.439925e-003
9.439927e-003
9.439928e-003
9.439930e-003
9.439932e-003
9.439934e-003
9.439936e-003
9.439938e-003
9.439939e-003
9.439941e-003
9.439943e-003
9.439944e-003
9.439945e-003
9.439946e-003
9.439946e-003
9.439946e-003
9.439947e-003
9.439946e-003
9.439946e-003
9.439946e-003
9.439945e-003
9.439945e-003
9.439944e-003
9.439944e-003
9.439944e-003
9.439943e-003
9.439943e-003
9.439943e-003
9.439943e-003
9.439943e-003
9.439943e-003
9.439943e-003
9.439943e-003
9.439943e-003
9.439943e-003
9.439943e-003
9.439943e-003
9.439942e-003
9.439941e-003
9.439940e-003
9.439939e-003
9.439937e-003
9.439935e-003
9.439933e-003
9.439931e-003
9.439929e-003
9.439928e-003
9.439926e-003
9.439925e-003
9.439923e-003
9.439923e-003
9.439922e-003
9.439921e-003
9.439921e-003
9.439921e-003
9.439920e-003
9.439920e-003
9.439920e-003
9.439920e-003
9.439920e-003
9.439920e-003
9.439920e-003
9.439920e-003
9.439920e-003
9.439920e-003
9.439920e-003
9.439920e-003
9.439920e-003
9.439920e-003
9.439920e-003
9.439920e-003
9.439920e-003
9.439920e-003
9.439920e-003
9.439920e-003
9.439920e-003
9.439920e-003
9.439920e-003
9.439920e-003
9.439920e-003
9.439920e-003
9.439920e-003
9.439920e-003
9.439920e-003
9.439920e-003
9.439920e-003
9.439920e-003
9.439920e-003
9.439920e-003
9.439920e-003
9.439920e-003
9.439920e-003
9.439921e-003
9.439921e-003
9.439921e-003
9.439922e-003
9.439923e-003
9.439924e-003
9.439926e-003
9.439927e-003
9.439929e-003
9.439932e-003
9.439934e-003
9.439936e-003
9.439939e-003
9.439941e-003
9.439943e-003
9.439945e-003
9.439946e-003
9.439946e-003
9.439945e-003
9.439944e-003
9.439943e-003
9.439940e-003
9.439937e-003
9.439934e-003
9.439930e-003
9.439926e-003
9.439922e-003
9.439919e-003
9.439915e-003
9.439912e-003
9.439909e-003
9.439906e-003
9.439905e-003
9.439904e-003
9.439903e-003
9.439904e-003
9.439905e-003
9.439907e-003
9.439910e-003
9.439913e-003
9.439917e-003
9.439922e-003
9.439926e-003
9.439930e-003
9.439934e-003
9.439937e-003
9.439940e-003
9.439941e-003
9.439942e-003
9.439942e-003
9.439941e-003
9.439939e-003
9.439937e-003
9.439935e-003
9.439933e-003
9.439930e-003
9.439928e-003
9.439926e-003
9.439925e-003
9.439923e-003
9.439922e-003
9.439922e-003
9.439921e-003
9.439921e-003
9.439920e-003
9.439920e-003
9.439920e-003
9.439920e-003
9.439920e-003
9.439920e-003
9.439920e-003
9.439920e-003
9.439920e-003
9.439920e-003
9.439920e-003
9.439920e-003
9.439920e-003
9.439920e-003
9.439920e-003
9.439920e-003
9.439920e-003
9.439920e-003
9.439920e-003
9.439920e-003
9.439920e-003
9.439920e-003
9.439920e-003
9.439920e-003
9.439920e-003
9.439920e-003
9.439920e-003
9.439920e-003
9.439920e-003
9.439920e-003
9.439920e-003
9.439920e-003
9.439920e-003
9.439920e-003
9.439920e-003
9.439921e-003
9.439921e-003
9.439922e-003
9.439923e-003
9.439924e-003
9.439926e-003
9.439928e-003
9.439930e-003
9.439933e-003
9.439936e-003
9.439938e-003
9.439941e-003
9.439944e-003
9.439945e-003
9.439946e-003
9.439945e-003
9.439943e-003
9.439939e-003
9.439932e-003
9.439924e-003
9.439914e-003
9.439902e-003
9.439888e-003
9.439874e-003
9.439859e-003
9.439843e-003
9.439828e-003
9.439812e-003
9.439798e-003
9.439785e-003
9.439773e-003
9.439764e-003
9.439756e-003
9.439750e-003
9.439748e-003
9.439748e-003
9.439750e-003
9.439756e-003
9.439765e-003
9.439776e-003
9.439790e-003
9.439805e-003
9.439822e-003
9.439840e-003
9.439858e-003
9.439876e-003
9.439892e-003
9.439906e-003
9.439918e-003
9.439928e-003
9.439935e-003
9.439939e-003
9.439941e-003
9.439942e-003
9.439941e-003
9.439939e-003
9.439936e-003
9.439933e-003
9.439931e-003
9.439928e-003
9.439926e-003
9.439925e-003
9.439923e-003
9.439922e-003
9.439921e-003
9.439921e-003
9.439921e-003
9.439920e-003
9.439920e-003
9.439920e-003
9.439920e-003
9.439920e-003
9.439920e-003
9.439920e-003
9.439920e-003
9.439920e-003
9.439920e-003
9.439920e-003
9.439920e-003
9.439920e-003
9.439920e-003
9.439920e-003
9.439920e-003
9.439920e-003
9.439920e-003
9.439920e-003
9.439920e-003
9.439920e-003
9.439920e-003
9.439920e-003
9.439920e-003
9.439920e-003
9.439920e-003
9.439920e-003
9.439920e-003
9.439920e-003
9.439920e-003
9.439920e-003
9.439921e-003
9.439921e-003
9.439922e-003
9.439922e-003
9.439924e-003
9.439925e-003
9.439927e-003
9.439930e-003
9.439933e-003
9.439936e-003
9.439940e-003
9.439943e-003
9.439945e-003
9.439947e-003
9.439946e-003
9.439942e-003
9.439934e-003
9.439923e-003
9.439906e-003
9.439884e-003
9.439857e-003
9.439824e-003
9.439787e-003
9.439746e-003
9.439701e-003
9.439655e-003
9.439607e-003
9.439559e-003
9.439512e-003
9.439467e-003
9.439426e-003
9.439388e-003
9.439355e-003
9.439327e-003
9.439306e-003
9.439291e-003
9.439284e-003
9.439285e-003
9.439294e-003
9.439312e-003
9.439338e-003
9.439371e-003
9.439412e-003
9.439459e-003
9.439510e-003
9.439565e-003
9.439621e-003
9.439676e-003
9.439729e-003
9.439777e-003
9.439820e-003
9.439856e-003
9.439885e-003
9.439908e-003
9.439924e-003
9.439934e-003
9.439940e-003
9.439942e-003
9.439941e-003
9.439939e-003
9.439937e-003
9.439934e-003
9.439931e-003
9.439928e-003
9.439926e-003
9.439924e-003
9.439923e-003
9.439922e-003
9.439921e-003
9.439921e-003
9.439920e-003
9.439920e-003
9.439920e-003
9.439920e-003
9.439920e-003
9.439920e-003
9.439920e-003
9.439920e-003
9.439920e-003
9.439920e-003
9.439920e-003
9.439920e-003
9.439920e-003
9.439920e-003
9.439920e-003
9.439920e-003
9.439920e-003
9.439920e-003
9.439920e-003
9.439920e-003
9.439920e-003
9.439920e-003
9.439920e-003
9.439920e-003
9.439920e-003
9.439920e-003
9.439920e-003
9.439920e-003
9.439920e-003
9.439921e-003
9.439921e-003
9.439922e-003
9.439923e-003
9.439925e-003
9.439927e-003
9.439929e-003
9.439932e-003
9.439936e-003
9.439940e-003
9.439944e-003
9.439947e-003
9.439947e-003
9.439945e-003
9.439937e-003
9.439923e-003
9.439901e-003
9.439868e-003
9.439823e-003
9.439765e-003
9.439695e-003
9.439611e-003
9.439514e-003
9.439406e-003
9.439290e-003
9.439167e-003
9.439039e-003
9.438911e-003
9.438783e-003
9.438660e-003
9.438543e-003
9.438436e-003
9.438339e-003
9.438255e-003
9.438185e-003
9.438132e-003
9.438096e-003
9.438080e-003
9.438083e-003
9.438108e-003
9.438154e-003
9.438221e-003
9.438309e-003
9.438415e-003
9.438538e-003
9.438674e-003
9.438819e-003
9.438968e-003
9.439118e-003
9.439262e-003
9.439397e-003
9.439520e-003
9.439626e-003
9.439716e-003
9.439788e-003
9.439844e-003
9.439884e-003
9.439912e-003
9.439929e-003
9.439938e-003
9.439942e-003
9.439942e-003
9.439939e-003
9.439936e-003
9.439933e-003
9.439930e-003
9.439927e-003
9.439925e-003
9.439923e-003
9.439922e-003
9.439921e-003
9.439921e-003
9.439920e-003
9.439920e-003
9.439920e-003
9.439920e-003
9.439920e-003
9.439920e-003
9.439920e-003
9.439920e-003
9.439920e-003
9.439920e-003
9.439920e-003
9.439920e-003
9.439920e-003
9.439920e-003
9.439920e-003
9.439920e-003
9.439920e-003
9.439920e-003
9.439920e-003
9.439920e-003
9.439920e-003
9.439920e-003
9.439920e-003
9.439920e-003
9.439920e-003
9.439920e-003
9.439920e-003
9.439921e-003
9.439921e-003
9.439922e-003
9.439924e-003
9.439925e-003
9.439928e-003
9.439931e-003
9.439935e-003
9.439939e-003
9.439944e-003
9.439947e-003
9.439948e-003
9.439945e-003
9.439935e-003
9.439914e-003
9.439880e-003
9.439827e-003
9.439752e-003
9.439650e-003
9.439520e-003
9.439358e-003
9.439165e-003
9.438941e-003
9.438689e-003
9.438413e-003
9.438118e-003
9.437809e-003
9.437495e-003
9.437180e-003
9.436871e-003
9.436574e-003
9.436295e-003
9.436039e-003
9.435810e-003
9.435612e-003
9.435450e-003
9.435326e-003
9.435244e-003
9.435207e-003
9.435218e-003
9.435278e-003
9.435389e-003
9.435550e-003
9.435759e-003
9.436014e-003
9.436308e-003
9.436636e-003
9.436987e-003
9.437352e-003
9.437720e-003
9.438079e-003
9.438419e-003
9.438732e-003
9.439009e-003
9.439247e-003
9.439444e-003
9.439601e-003
9.439721e-003
9.439808e-003
9.439868e-003
9.439906e-003
9.439928e-003
9.439939e-003
9.439942e-003
9.439942e-003
9.439939e-003
9.439935e-003
9.439931e-003
9.439928e-003
9.439925e-003
9.439924e-003
9.439922e-003
9.439921e-003
9.439921e-003
9.439920e-003
9.439920e-003
9.439920e-003
9.439920e-003
9.439920e-003
9.439920e-003
9.439920e-003
9.439920e-003
9.439920e-003
9.439920e-003
9.439920e-003
9.439920e-003
9.439920e-003
9.439920e-003
9.439920e-003
9.439920e-003
9.439920e-003
9.439920e-003
9.439920e-003
9.439920e-003
9.439920e-003
9.439920e-003
9.439920e-003
9.439920e-003
9.439920e-003
9.439921e-003
9.439922e-003
9.439923e-003
9.439924e-003
9.439926e-003
9.439929e-003
9.439933e-003
9.439938e-003
9.439943e-003
9.439947e-003
9.439949e-003
9.439947e-003
9.439937e-003
9.439913e-003
9.439870e-003
9.439799e-003
9.439692e-003
9.439540e-003
9.439333e-003
9.439065e-003
9.438728e-003
9.438321e-003
9.437844e-003
9.437300e-003
9.436696e-003
9.436042e-003
9.435352e-003
9.434638e-003
9.433915e-003
9.433198e-003
9.432500e-003
9.431835e-003
9.431212e-003
9.430644e-003
9.430139e-003
9.429705e-003
9.429350e-003
9.429081e-003
9.428905e-003
9.428828e-003
9.428855e-003
9.428990e-003
9.429237e-003
9.429594e-003
9.430059e-003
9.430626e-003
9.431285e-003
9.432020e-003
9.432813e-003
9.433642e-003
9.434484e-003
9.435314e-003
9.436108e-003
9.436845e-003
9.437509e-003
9.438087e-003
9.438573e-003
9.438969e-003
9.439279e-003
9.439511e-003
9.439678e-003
9.439792e-003
9.439865e-003
9.439909e-003
9.439931e-003
9.439941e-003
9.439943e-003
9.439941e-003
9.439937e-003
9.439933e-003
9.439929e-003
9.439926e-003
9.439924e-003
9.439922e-003
9.439921e-003
9.439921e-003
9.439920e-003
9.439920e-003
9.439920e-003
9.439920e-003
9.439920e-003
9.439920e-003
9.439920e-003
9.439920e-003
9.439920e-003
9.439920e-003
9.439920e-003
9.439920e-003
9.439920e-003
9.439920e-003
9.439920e-003
9.439920e-003
9.439920e-003
9.439920e-003
9.439920e-003
9.439920e-003
9.439920e-003
9.439920e-003
9.439920e-003
9.439921e-003
9.439922e-003
9.439923e-003
9.439924e-003
9.439927e-003
9.439930e-003
9.439935e-003
9.439940e-003
9.439945e-003
9.439949e-003
9.439950e-003
9.439942e-003
9.439921e-003
9.439876e-003
9.439797e-003
9.439668e-003
9.439473e-003
9.439191e-003
9.438805e-003
9.438295e-003
9.437647e-003
9.436851e-003
9.435902e-003
9.434806e-003
9.433573e-003
9.432222e-003
9.430777e-003
9.429266e-003
9.427719e-003
9.426168e-003
9.424642e-003
9.423170e-003
9.421775e-003
9.420481e-003
9.419306e-003
9.418267e-003
9.417380e-003
9.416659e-003
9.416116e-003
9.415763e-003
9.415613e-003
9.415676e-003
9.415959e-003
9.416470e-003
9.417208e-003
9.418170e-003
9.419345e-003
9.420715e-003
9.422253e-003
9.423923e-003
9.425684e-003
9.427486e-003
9.429280e-003
9.431013e-003
9.432641e-003
9.434123e-003
9.435431e-003
9.436548e-003
9.437471e-003
9.438207e-003
9.438771e-003
9.439188e-003
9.439482e-003
9.439679e-003
9.439805e-003
9.439879e-003
9.439919e-003
9.439937e-003
9.439943e-003
9.439942e-003
9.439938e-003
9.439934e-003
9.439930e-003
9.439927e-003
9.439924e-003
9.439923e-003
9.439922e-003
9.439921e-003
9.439920e-003
9.439920e-003
9.439920e-003
9.439920e-003
9.439920e-003
9.439920e-003
9.439920e-003
9.439920e-003
9.439920e-003
9.439920e-003
9.439920e-003
9.439920e-003
9.439920e-003
9.439920e-003
9.439920e-003
9.439920e-003
9.439920e-003
9.439920e-003
9.439920e-003
9.439920e-003
9.439920e-003
9.439921e-003
9.439922e-003
9.439923e-003
9.439925e-003
9.439927e-003
9.439931e-003
9.439936e-003
9.439942e-003
9.439947e-003
9.439951e-003
9.439949e-003
9.439934e-003
9.439897e-003
9.439823e-003
9.439692e-003
9.439478e-003
9.439148e-003
9.438667e-003
9.437995e-003
9.437093e-003
9.435925e-003
9.434466e-003
9.432702e-003
9.430631e-003
9.428272e-003
9.425655e-003
9.422826e-003
9.419840e-003
9.416757e-003
9.413641e-003
9.410553e-003
9.407549e-003
9.404680e-003
9.401991e-003
9.399518e-003
9.397293e-003
9.395343e-003
9.393691e-003
9.392358e-003
9.391364e-003
9.390729e-003
9.390471e-003
9.390607e-003
9.391154e-003
9.392121e-003
9.393515e-003
9.395334e-003
9.397562e-003
9.400173e-003
9.403127e-003
9.406364e-003
9.409811e-003
9.413383e-003
9.416982e-003
9.420508e-003
9.423864e-003
9.426965e-003
9.429742e-003
9.432150e-003
9.434169e-003
9.435803e-003
9.437079e-003
9.438039e-003
9.438731e-003
9.439210e-003
9.439527e-003
9.439724e-003
9.439840e-003
9.439902e-003
9.439932e-003
9.439942e-003
9.439943e-003
9.439939e-003
9.439935e-003
9.439930e-003
9.439927e-003
9.439924e-003
9.439923e-003
9.439922e-003
9.439921e-003
9.439920e-003
9.439920e-003
9.439920e-003
9.439920e-003
9.439920e-003
9.439920e-003
9.439920e-003
9.439920e-003
9.439920e-003
9.439920e-003
9.439920e-003
9.439920e-003
9.439920e-003
9.439920e-003
9.439920e-003
9.439920e-003
9.439920e-003
9.439920e-003
9.439920e-003
9.439921e-003
9.439922e-003
9.439923e-003
9.439925e-003
9.439928e-003
9.439932e-003
9.439937e-003
9.439943e-003
9.439949e-003
9.439952e-003
9.439946e-003
9.439923e-003
9.439867e-003
9.439755e-003
9.439557e-003
9.439227e-003
9.438711e-003
9.437943e-003
9.436848e-003
9.435349e-003
9.433374e-003
9.430863e-003
9.427777e-003
9.424106e-003
9.419873e-003
9.415134e-003
9.409973e-003
9.404497e-003
9.398826e-003
9.393085e-003
9.387392e-003
9.381856e-003
9.376572e-003
9.371615e-003
9.367047e-003
9.362917e-003
9.359259e-003
9.356103e-003
9.353471e-003
9.351384e-003
9.349860e-003
9.348919e-003
9.348582e-003
9.348870e-003
9.349804e-003
9.351404e-003
9.353687e-003
9.356659e-003
9.360319e-003
9.364648e-003
9.369606e-003
9.375127e-003
9.381117e-003
9.387449e-003
9.393968e-003
9.400499e-003
9.406854e-003
9.412853e-003
9.418338e-003
9.423188e-003
9.427331e-003
9.430746e-003
9.433459e-003
9.435535e-003
9.437061e-003
9.438140e-003
9.438869e-003
9.439340e-003
9.439629e-003
9.439795e-003
9.439884e-003
9.439925e-003
9.439941e-003
9.439943e-003
9.439940e-003
9.439935e-003
9.439931e-003
9.439927e-003
9.439924e-003
9.439923e-003
9.439921e-003
9.439921e-003
9.439920e-003
9.439920e-003
9.439920e-003
9.439920e-003
9.439920e-003
9.439920e-003
9.439920e-003
9.439920e-003
9.439920e-003
9.439920e-003
9.439920e-003
9.439920e-003
9.439920e-003
9.439920e-003
9.439920e-003
9.439920e-003
9.439920e-003
9.439921e-003
9.439922e-003
9.439923e-003
9.439925e-003
9.439928e-003
9.439932e-003
9.439938e-003
9.439944e-003
9.439950e-003
9.439953e-003
9.439944e-003
9.439911e-003
9.439834e-003
9.439679e-003
9.439399e-003
9.438926e-003
9.438169e-003
9.437018e-003
9.435343e-003
9.433002e-003
9.429857e-003
9.425787e-003
9.420712e-003
9.414603e-003
9.407502e-003
9.399518e-003
9.390825e-003
9.381644e-003
9.372222e-003
9.362807e-003
9.353629e-003
9.344883e-003
9.336723e-003
9.329256e-003
9.322550e-003
9.316635e-003
9.311521e-003
9.307195e-003
9.303638e-003
9.300823e-003
9.298727e-003
9.297324e-003
9.296597e-003
9.296533e-003
9.297129e-003
9.298395e-003
9.300351e-003
9.303034e-003
9.306496e-003
9.310799e-003
9.316008e-003
9.322181e-003
9.329350e-003
9.337500e-003
9.346552e-003
9.356346e-003
9.366642e-003
9.377128e-003
9.387449e-003
9.397248e-003
9.406208e-003
9.414091e-003
9.420759e-003
9.426177e-003
9.430407e-003
9.433579e-003
9.435862e-003
9.437437e-003
9.438479e-003
9.439135e-003
9.439528e-003
9.439750e-003
9.439865e-003
9.439919e-003
9.439939e-003
9.439943e-003
9.439940e-003
9.439935e-003
9.439931e-003
9.439927e-003
9.439924e-003
9.439922e-003
9.439921e-003
9.439921e-003
9.439920e-003
9.439920e-003
9.439920e-003
9.439920e-003
9.439920e-003
9.439920e-003
9.439920e-003
9.439920e-003
9.439920e-003
9.439920e-003
9.439920e-003
9.439920e-003
9.439920e-003
9.439920e-003
9.439920e-003
9.439921e-003
9.439921e-003
9.439923e-003
9.439925e-003
9.439928e-003
9.439932e-003
9.439938e-003
9.439945e-003
9.439951e-003
9.439953e-003
9.439941e-003
9.439901e-003
9.439803e-003
9.439604e-003
9.439236e-003
9.438599e-003
9.437557e-003
9.435936e-003
9.433521e-003
9.430074e-003
9.425351e-003
9.419137e-003
9.411286e-003
9.401761e-003
9.390671e-003
9.378279e-003
9.364994e-003
9.351329e-003
9.337846e-003
9.325089e-003
9.313531e-003
9.303522e-003
9.295279e-003
9.288875e-003
9.284266e-003
9.281309e-003
9.279802e-003
9.279506e-003
9.280172e-003
9.281551e-003
9.283406e-003
9.285515e-003
9.287667e-003
9.289669e-003
9.291351e-003
9.292574e-003
9.293249e-003
9.293351e-003
9.292947e-003
9.292205e-003
9.291413e-003
9.290972e-003
9.291370e-003
9.293136e-003
9.296767e-003
9.302644e-003
9.310945e-003
9.321587e-003
9.334207e-003
9.348195e-003
9.362778e-003
9.377141e-003
9.390546e-003
9.402429e-003
9.412457e-003
9.420528e-003
9.426734e-003
9.431298e-003
9.434512e-003
9.436679e-003
9.438075e-003
9.438934e-003
9.439435e-003
9.439711e-003
9.439851e-003
9.439915e-003
9.439939e-003
9.439943e-003
9.439940e-003