# vtk DataFile Version 3.0
vtk output
ASCII
DATASET STRUCTURED_POINTS
DIMENSIONS 100 100 1
SPACING 1 1 1
ORIGIN 0 0 0
POINT_DATA 10000
SCALARS SFBox_profile double
LOOKUP_TABLE default 
9.439919e-003
9.439919e-003
9.439920e-003
9.439920e-003
9.439920e-003
9.439920e-003
9.439920e-003
9.439920e-003
9.439920e-003
9.439920e-003
9.439920e-003
9.439920e-003
9.439920e-003
9.439920e-003
9.439920e-003
9.439920e-003
9.439920e-003
9.439920e-003
9.439920e-003
9.439920e-003
9.439920e-003
9.439920e-003
9.439920e-003
9.439920e-003
9.439920e-003
9.439920e-003
9.439920e-003
9.439921e-003
9.439921e-003
9.439921e-003
9.439922e-003
9.439922e-003
9.439923e-003
9.439924e-003
9.439924e-003
9.439925e-003
9.439925e-003
9.439926e-003
9.439927e-003
9.439927e-003
9.439928e-003
9.439928e-003
9.439929e-003
9.439929e-003
9.439930e-003
9.439930e-003
9.439930e-003
9.439931e-003
9.439931e-003
9.439931e-003
9.439931e-003
9.439931e-003
9.439931e-003
9.439931e-003
9.439931e-003
9.439931e-003
9.439930e-003
9.439930e-003
9.439929e-003
9.439929e-003
9.439928e-003
9.439928e-003
9.439927e-003
9.439927e-003
9.439926e-003
9.439925e-003
9.439924e-003
9.439924e-003
9.439923e-003
9.439923e-003
9.439922e-003
9.439922e-003
9.439921e-003
9.439921e-003
9.439920e-003
9.439920e-003
9.439920e-003
9.439920e-003
9.439920e-003
9.439920e-003
9.439920e-003
9.439920e-003
9.439920e-003
9.439920e-003
9.439920e-003
9.439920e-003
9.439920e-003
9.439920e-003
9.439920e-003
9.439920e-003
9.439920e-003
9.439920e-003
9.439920e-003
9.439920e-003
9.439920e-003
9.439920e-003
9.439920e-003
9.439920e-003
9.439920e-003
9.439920e-003
9.439919e-003
9.439919e-003
9.439920e-003
9.439920e-003
9.439920e-003
9.439920e-003
9.439920e-003
9.439920e-003
9.439920e-003
9.439920e-003
9.439920e-003
9.439920e-003
9.439920e-003
9.439920e-003
9.439920e-003
9.439920e-003
9.439920e-003
9.439920e-003
9.439920e-003
9.439920e-003
9.439920e-003
9.439920e-003
9.439920e-003
9.439920e-003
9.439920e-003
9.439920e-003
9.439920e-003
9.439921e-003
9.439921e-003
9.439921e-003
9.439922e-003
9.439922e-003
9.439923e-003
9.439924e-003
9.439924e-003
9.439925e-003
9.439925e-003
9.439926e-003
9.439927e-003
9.439927e-003
9.439928e-003
9.439928e-003
9.439929e-003
9.439929e-003
9.439930e-003
9.439930e-003
9.439930e-003
9.439931e-003
9.439931e-003
9.439931e-003
9.439931e-003
9.439931e-003
9.439931e-003
9.439931e-003
9.439931e-003
9.439931e-003
9.439930e-003
9.439930e-003
9.439929e-003
9.439929e-003
9.439928e-003
9.439928e-003
9.439927e-003
9.439927e-003
9.439926e-003
9.439925e-003
9.439924e-003
9.439924e-003
9.439923e-003
9.439923e-003
9.439922e-003
9.439922e-003
9.439921e-003
9.439921e-003
9.439920e-003
9.439920e-003
9.439920e-003
9.439920e-003
9.439920e-003
9.439920e-003
9.439920e-003
9.439920e-003
9.439920e-003
9.439920e-003
9.439920e-003
9.439920e-003
9.439920e-003
9.439920e-003
9.439920e-003
9.439920e-003
9.439920e-003
9.439920e-003
9.439920e-003
9.439920e-003
9.439920e-003
9.439920e-003
9.439920e-003
9.439920e-003
9.439920e-003
9.439920e-003
9.439920e-003
9.439920e-003
9.439920e-003
9.439920e-003
9.439920e-003
9.439920e-003
9.439920e-003
9.439920e-003
9.439920e-003
9.439920e-003
9.439920e-003
9.439920e-003
9.439920e-003
9.439920e-003
9.439920e-003
9.439920e-003
9.439920e-003
9.439920e-003
9.439920e-003
9.439920e-003
9.439920e-003
9.439920e-003
9.439920e-003
9.439921e-003
9.439921e-003
9.439921e-003
9.439921e-003
9.439922e-003
9.439922e-003
9.439923e-003
9.439923e-003
9.439924e-003
9.439924e-003
9.439925e-003
9.439926e-003
9.439927e-003
9.439927e-003
9.439928e-003
9.439929e-003
9.439929e-003
9.439930e-003
9.439931e-003
9.439931e-003
9.439932e-003
9.439933e-003
9.439933e-003
9.439933e-003
9.439934e-003
9.439934e-003
9.439934e-003
9.439934e-003
9.439934e-003
9.439934e-003
9.439934e-003
9.439934e-003
9.439934e-003
9.439933e-003
9.439933e-003
9.439932e-003
9.439932e-003
9.439931e-003
9.439930e-003
9.439929e-003
9.439929e-003
9.439928e-003
9.439927e-003
9.439926e-003
9.439925e-003
9.439925e-003
9.439924e-003
9.439923e-003
9.439923e-003
9.439922e-003
9.439922e-003
9.439921e-003
9.439921e-003
9.439921e-003
9.439920e-003
9.439920e-003
9.439920e-003
9.439920e-003
9.439920e-003
9.439920e-003
9.439920e-003
9.439920e-003
9.439920e-003
9.439920e-003
9.439920e-003
9.439920e-003
9.439920e-003
9.439920e-003
9.439920e-003
9.439920e-003
9.439920e-003
9.439920e-003
9.439920e-003
9.439920e-003
9.439920e-003
9.439920e-003
9.439920e-003
9.439920e-003
9.439920e-003
9.439920e-003
9.439920e-003
9.439920e-003
9.439920e-003
9.439920e-003
9.439920e-003
9.439920e-003
9.439920e-003
9.439920e-003
9.439920e-003
9.439920e-003
9.439920e-003
9.439920e-003
9.439920e-003
9.439920e-003
9.439920e-003
9.439920e-003
9.439920e-003
9.439920e-003
9.439921e-003
9.439921e-003
9.439921e-003
9.439922e-003
9.439923e-003
9.439923e-003
9.439924e-003
9.439924e-003
9.439925e-003
9.439926e-003
9.439927e-003
9.439928e-003
9.439929e-003
9.439930e-003
9.439931e-003
9.439932e-003
9.439933e-003
9.439934e-003
9.439935e-003
9.439936e-003
9.439937e-003
9.439937e-003
9.439938e-003
9.439939e-003
9.439939e-003
9.439940e-003
9.439940e-003
9.439940e-003
9.439941e-003
9.439941e-003
9.439941e-003
9.439941e-003
9.439940e-003
9.439940e-003
9.439940e-003
9.439939e-003
9.439939e-003
9.439938e-003
9.439937e-003
9.439936e-003
9.439935e-003
9.439934e-003
9.439933e-003
9.439932e-003
9.439931e-003
9.439930e-003
9.439929e-003
9.439928e-003
9.439927e-003
9.439926e-003
9.439925e-003
9.439924e-003
9.439923e-003
9.439923e-003
9.439922e-003
9.439922e-003
9.439921e-003
9.439921e-003
9.439921e-003
9.439920e-003
9.439920e-003
9.439920e-003
9.439920e-003
9.439920e-003
9.439920e-003
9.439920e-003
9.439920e-003
9.439920e-003
9.439920e-003
9.439920e-003
9.439920e-003
9.439920e-003
9.439920e-003
9.439920e-003
9.439920e-003
9.439920e-003
9.439920e-003
9.439920e-003
9.439920e-003
9.439921e-003
9.439920e-003
9.439920e-003
9.439920e-003
9.439920e-003
9.439920e-003
9.439920e-003
9.439920e-003
9.439920e-003
9.439920e-003
9.439920e-003
9.439920e-003
9.439920e-003
9.439920e-003
9.439920e-003
9.439920e-003
9.439920e-003
9.439920e-003
9.439920e-003
9.439920e-003
9.439921e-003
9.439921e-003
9.439922e-003
9.439923e-003
9.439923e-003
9.439924e-003
9.439925e-003
9.439927e-003
9.439928e-003
9.439929e-003
9.439931e-003
9.439932e-003
9.439934e-003
9.439935e-003
9.439937e-003
9.439938e-003
9.439939e-003
9.439941e-003
9.439942e-003
9.439943e-003
9.439944e-003
9.439945e-003
9.439945e-003
9.439946e-003
9.439946e-003
9.439947e-003
9.439947e-003
9.439947e-003
9.439947e-003
9.439947e-003
9.439947e-003
9.439947e-003
9.439947e-003
9.439946e-003
9.439946e-003
9.439946e-003
9.439945e-003
9.439945e-003
9.439944e-003
9.439944e-003
9.439943e-003
9.439942e-003
9.439941e-003
9.439940e-003
9.439939e-003
9.439938e-003
9.439936e-003
9.439935e-003
9.439933e-003
9.439932e-003
9.439930e-003
9.439929e-003
9.439927e-003
9.439926e-003
9.439925e-003
9.439924e-003
9.439923e-003
9.439922e-003
9.439922e-003
9.439921e-003
9.439921e-003
9.439920e-003
9.439920e-003
9.439920e-003
9.439920e-003
9.439920e-003
9.439920e-003
9.439920e-003
9.439920e-003
9.439920e-003
9.439920e-003
9.439920e-003
9.439920e-003
9.439920e-003
9.439920e-003
9.439920e-003
9.439920e-003
9.439920e-003
9.439920e-003
9.439920e-003
9.439921e-003
9.439920e-003
9.439920e-003
9.439920e-003
9.439920e-003
9.439920e-003
9.439920e-003
9.439920e-003
9.439920e-003
9.439920e-003
9.439920e-003
9.439920e-003
9.439920e-003
9.439920e-003
9.439920e-003
9.439920e-003
9.439920e-003
9.439921e-003
9.439921e-003
9.439921e-003
9.439922e-003
9.439923e-003
9.439924e-003
9.439925e-003
9.439926e-003
9.439927e-003
9.439929e-003
9.439931e-003
9.439933e-003
9.439935e-003
9.439937e-003
9.439939e-003
9.439941e-003
9.439943e-003
9.439944e-003
9.439946e-003
9.439947e-003
9.439947e-003
9.439948e-003
9.439948e-003
9.439947e-003
9.439947e-003
9.439946e-003
9.439945e-003
9.439944e-003
9.439943e-003
9.439942e-003
9.439941e-003
9.439940e-003
9.439939e-003
9.439938e-003
9.439938e-003
9.439938e-003
9.439937e-003
9.439938e-003
9.439938e-003
9.439939e-003
9.439939e-003
9.439940e-003
9.439941e-003
9.439942e-003
9.439943e-003
9.439943e-003
9.439944e-003
9.439944e-003
9.439943e-003
9.439943e-003
9.439941e-003
9.439940e-003
9.439938e-003
9.439936e-003
9.439934e-003
9.439932e-003
9.439930e-003
9.439928e-003
9.439926e-003
9.439925e-003
9.439924e-003
9.439923e-003
9.439922e-003
9.439922e-003
9.439921e-003
9.439921e-003
9.439920e-003
9.439920e-003
9.439920e-003
9.439920e-003
9.439920e-003
9.439920e-003
9.439920e-003
9.439920e-003
9.439920e-003
9.439920e-003
9.439920e-003
9.439920e-003
9.439920e-003
9.439920e-003
9.439920e-003
9.439920e-003
9.439920e-003
9.439920e-003
9.439920e-003
9.439920e-003
9.439920e-003
9.439920e-003
9.439920e-003
9.439920e-003
9.439920e-003
9.439920e-003
9.439920e-003
9.439920e-003
9.439920e-003
9.439920e-003
9.439920e-003
9.439920e-003
9.439921e-003
9.439921e-003
9.439922e-003
9.439922e-003
9.439923e-003
9.439924e-003
9.439925e-003
9.439927e-003
9.439928e-003
9.439930e-003
9.439933e-003
9.439935e-003
9.439938e-003
9.439940e-003
9.439943e-003
9.439945e-003
9.439946e-003
9.439947e-003
9.439947e-003
9.439946e-003
9.439944e-003
9.439942e-003
9.439939e-003
9.439934e-003
9.439930e-003
9.439924e-003
9.439919e-003
9.439913e-003
9.439907e-003
9.439901e-003
9.439895e-003
9.439889e-003
9.439884e-003
9.439880e-003
9.439876e-003
9.439874e-003
9.439872e-003
9.439872e-003
9.439872e-003
9.439874e-003
9.439877e-003
9.439881e-003
9.439887e-003
9.439892e-003
9.439899e-003
9.439906e-003
9.439913e-003
9.439919e-003
9.439926e-003
9.439931e-003
9.439936e-003
9.439939e-003
9.439941e-003
9.439943e-003
9.439943e-003
9.439942e-003
9.439940e-003
9.439938e-003
9.439936e-003
9.439933e-003
9.439931e-003
9.439929e-003
9.439927e-003
9.439925e-003
9.439924e-003
9.439923e-003
9.439922e-003
9.439921e-003
9.439921e-003
9.439921e-003
9.439920e-003
9.439920e-003
9.439920e-003
9.439920e-003
9.439920e-003
9.439920e-003
9.439920e-003
9.439920e-003
9.439920e-003
9.439920e-003
9.439920e-003
9.439920e-003
9.439920e-003
9.439920e-003
9.439920e-003
9.439920e-003
9.439920e-003
9.439920e-003
9.439920e-003
9.439920e-003
9.439920e-003
9.439920e-003
9.439920e-003
9.439920e-003
9.439920e-003
9.439920e-003
9.439920e-003
9.439920e-003
9.439920e-003
9.439921e-003
9.439921e-003
9.439922e-003
9.439923e-003
9.439924e-003
9.439925e-003
9.439927e-003
9.439929e-003
9.439932e-003
9.439934e-003
9.439938e-003
9.439941e-003
9.439943e-003
9.439946e-003
9.439947e-003
9.439947e-003
9.439946e-003
9.439942e-003
9.439937e-003
9.439929e-003
9.439919e-003
9.439906e-003
9.439891e-003
9.439875e-003
9.439856e-003
9.439836e-003
9.439816e-003
9.439794e-003
9.439773e-003
9.439752e-003
9.439732e-003
9.439712e-003
9.439695e-003
9.439679e-003
9.439665e-003
9.439655e-003
9.439647e-003
9.439643e-003
9.439642e-003
9.439645e-003
9.439652e-003
9.439663e-003
9.439677e-003
9.439694e-003
9.439715e-003
9.439737e-003
9.439762e-003
9.439787e-003
9.439812e-003
9.439836e-003
9.439859e-003
9.439880e-003
9.439898e-003
9.439913e-003
9.439924e-003
9.439933e-003
9.439939e-003
9.439942e-003
9.439942e-003
9.439942e-003
9.439940e-003
9.439937e-003
9.439934e-003
9.439932e-003
9.439929e-003
9.439927e-003
9.439925e-003
9.439924e-003
9.439923e-003
9.439922e-003
9.439921e-003
9.439921e-003
9.439920e-003
9.439920e-003
9.439920e-003
9.439920e-003
9.439920e-003
9.439920e-003
9.439920e-003
9.439920e-003
9.439920e-003
9.439920e-003
9.439920e-003
9.439920e-003
9.439920e-003
9.439920e-003
9.439920e-003
9.439920e-003
9.439920e-003
9.439920e-003
9.439920e-003
9.439920e-003
9.439920e-003
9.439920e-003
9.439920e-003
9.439920e-003
9.439920e-003
9.439920e-003
9.439920e-003
9.439921e-003
9.439922e-003
9.439922e-003
9.439923e-003
9.439925e-003
9.439927e-003
9.439929e-003
9.439932e-003
9.439935e-003
9.439939e-003
9.439943e-003
9.439946e-003
9.439948e-003
9.439948e-003
9.439946e-003
9.439941e-003
9.439931e-003
9.439917e-003
9.439897e-003
9.439871e-003
9.439839e-003
9.439800e-003
9.439756e-003
9.439707e-003
9.439654e-003
9.439596e-003
9.439537e-003
9.439475e-003
9.439413e-003
9.439352e-003
9.439292e-003
9.439235e-003
9.439182e-003
9.439133e-003
9.439091e-003
9.439055e-003
9.439026e-003
9.439007e-003
9.438996e-003
9.438995e-003
9.439005e-003
9.439025e-003
9.439055e-003
9.439095e-003
9.439144e-003
9.439201e-003
9.439265e-003
9.439334e-003
9.439407e-003
9.439480e-003
9.439553e-003
9.439623e-003
9.439688e-003
9.439746e-003
9.439797e-003
9.439840e-003
9.439874e-003
9.439901e-003
9.439920e-003
9.439932e-003
9.439939e-003
9.439942e-003
9.439943e-003
9.439941e-003
9.439938e-003
9.439935e-003
9.439932e-003
9.439929e-003
9.439926e-003
9.439924e-003
9.439923e-003
9.439922e-003
9.439921e-003
9.439921e-003
9.439920e-003
9.439920e-003
9.439920e-003
9.439920e-003
9.439920e-003
9.439920e-003
9.439920e-003
9.439920e-003
9.439920e-003
9.439920e-003
9.439920e-003
9.439920e-003
9.439920e-003
9.439919e-003
9.439920e-003
9.439920e-003
9.439920e-003
9.439920e-003
9.439920e-003
9.439920e-003
9.439920e-003
9.439920e-003
9.439920e-003
9.439921e-003
9.439921e-003
9.439921e-003
9.439922e-003
9.439923e-003
9.439924e-003
9.439926e-003
9.439928e-003
9.439931e-003
9.439935e-003
9.439939e-003
9.439943e-003
9.439947e-003
9.439949e-003
9.439949e-003
9.439944e-003
9.439934e-003
9.439916e-003
9.439888e-003
9.439849e-003
9.439796e-003
9.439730e-003
9.439648e-003
9.439552e-003
9.439441e-003
9.439317e-003
9.439181e-003
9.439035e-003
9.438882e-003
9.438724e-003
9.438564e-003
9.438404e-003
9.438248e-003
9.438096e-003
9.437953e-003
9.437821e-003
9.437701e-003
9.437596e-003
9.437508e-003
9.437439e-003
9.437392e-003
9.437367e-003
9.437367e-003
9.437392e-003
9.437442e-003
9.437518e-003
9.437618e-003
9.437741e-003
9.437886e-003
9.438048e-003
9.438224e-003
9.438410e-003
9.438601e-003
9.438791e-003
9.438976e-003
9.439151e-003
9.439311e-003
9.439454e-003
9.439578e-003
9.439681e-003
9.439763e-003
9.439827e-003
9.439874e-003
9.439906e-003
9.439926e-003
9.439937e-003
9.439942e-003
9.439943e-003
9.439941e-003
9.439938e-003
9.439934e-003
9.439930e-003
9.439928e-003
9.439925e-003
9.439924e-003
9.439922e-003
9.439922e-003
9.439921e-003
9.439921e-003
9.439920e-003
9.439920e-003
9.439920e-003
9.439920e-003
9.439920e-003
9.439920e-003
9.439920e-003
9.439920e-003
9.439920e-003
9.439920e-003
9.439920e-003
9.439919e-003
9.439920e-003
9.439920e-003
9.439921e-003
9.439920e-003
9.439920e-003
9.439920e-003
9.439920e-003
9.439920e-003
9.439920e-003
9.439921e-003
9.439922e-003
9.439922e-003
9.439923e-003
9.439925e-003
9.439927e-003
9.439930e-003
9.439934e-003
9.439938e-003
9.439943e-003
9.439948e-003
9.439950e-003
9.439950e-003
9.439944e-003
9.439929e-003
9.439902e-003
9.439858e-003
9.439795e-003
9.439706e-003
9.439588e-003
9.439439e-003
9.439255e-003
9.439037e-003
9.438784e-003
9.438499e-003
9.438185e-003
9.437845e-003
9.437486e-003
9.437113e-003
9.436733e-003
9.436350e-003
9.435971e-003
9.435602e-003
9.435249e-003
9.434916e-003
9.434610e-003
9.434334e-003
9.434094e-003
9.433894e-003
9.433739e-003
9.433632e-003
9.433578e-003
9.433579e-003
9.433638e-003
9.433755e-003
9.433930e-003
9.434163e-003
9.434450e-003
9.434787e-003
9.435166e-003
9.435580e-003
9.436020e-003
9.436474e-003
9.436931e-003
9.437379e-003
9.437807e-003
9.438206e-003
9.438566e-003
9.438883e-003
9.439152e-003
9.439374e-003
9.439551e-003
9.439686e-003
9.439785e-003
9.439853e-003
9.439897e-003
9.439924e-003
9.439938e-003
9.439943e-003
9.439943e-003
9.439940e-003
9.439936e-003
9.439932e-003
9.439929e-003
9.439926e-003
9.439924e-003
9.439923e-003
9.439922e-003
9.439921e-003
9.439921e-003
9.439920e-003
9.439920e-003
9.439920e-003
9.439920e-003
9.439920e-003
9.439920e-003
9.439920e-003
9.439920e-003
9.439920e-003
9.439920e-003
9.439919e-003
9.439920e-003
9.439920e-003
9.439921e-003
9.439920e-003
9.439920e-003
9.439920e-003
9.439920e-003
9.439920e-003
9.439921e-003
9.439922e-003
9.439923e-003
9.439924e-003
9.439926e-003
9.439928e-003
9.439932e-003
9.439937e-003
9.439942e-003
9.439947e-003
9.439951e-003
9.439952e-003
9.439946e-003
9.439929e-003
9.439896e-003
9.439840e-003
9.439752e-003
9.439622e-003
9.439443e-003
9.439204e-003
9.438898e-003
9.438518e-003
9.438062e-003
9.437529e-003
9.436921e-003
9.436245e-003
9.435510e-003
9.434725e-003
9.433903e-003
9.433057e-003
9.432201e-003
9.431348e-003
9.430510e-003
9.429700e-003
9.428928e-003
9.428206e-003
9.427544e-003
9.426952e-003
9.426438e-003
9.426013e-003
9.425684e-003
9.425460e-003
9.425348e-003
9.425354e-003
9.425482e-003
9.425736e-003
9.426116e-003
9.426619e-003
9.427240e-003
9.427971e-003
9.428799e-003
9.429707e-003
9.430677e-003
9.431686e-003
9.432709e-003
9.433722e-003
9.434699e-003
9.435618e-003
9.436460e-003
9.437209e-003
9.437856e-003
9.438399e-003
9.438840e-003
9.439185e-003
9.439445e-003
9.439633e-003
9.439763e-003
9.439848e-003
9.439899e-003
9.439927e-003
9.439940e-003
9.439943e-003
9.439942e-003
9.439938e-003
9.439934e-003
9.439930e-003
9.439927e-003
9.439925e-003
9.439923e-003
9.439922e-003
9.439921e-003
9.439921e-003
9.439920e-003
9.439920e-003
9.439920e-003
9.439920e-003
9.439920e-003
9.439920e-003
9.439920e-003
9.439920e-003
9.439920e-003
9.439920e-003
9.439920e-003
9.439920e-003
9.439920e-003
9.439920e-003
9.439920e-003
9.439920e-003
9.439920e-003
9.439921e-003
9.439922e-003
9.439923e-003
9.439924e-003
9.439926e-003
9.439930e-003
9.439934e-003
9.439939e-003
9.439945e-003
9.439951e-003
9.439954e-003
9.439950e-003
9.439936e-003
9.439903e-003
9.439842e-003
9.439738e-003
9.439577e-003
9.439339e-003
9.439006e-003
9.438557e-003
9.437974e-003
9.437243e-003
9.436353e-003
9.435301e-003
9.434088e-003
9.432725e-003
9.431228e-003
9.429617e-003
9.427919e-003
9.426159e-003
9.424366e-003
9.422568e-003
9.420792e-003
9.419063e-003
9.417404e-003
9.415837e-003
9.414380e-003
9.413053e-003
9.411873e-003
9.410856e-003
9.410018e-003
9.409374e-003
9.408939e-003
9.408726e-003
9.408745e-003
9.409007e-003
9.409516e-003
9.410276e-003
9.411283e-003
9.412530e-003
9.414003e-003
9.415680e-003
9.417532e-003
9.419525e-003
9.421615e-003
9.423754e-003
9.425893e-003
9.427979e-003
9.429963e-003
9.431802e-003
9.433460e-003
9.434913e-003
9.436149e-003
9.437169e-003
9.437981e-003
9.438607e-003
9.439072e-003
9.439403e-003
9.439628e-003
9.439773e-003
9.439861e-003
9.439910e-003
9.439934e-003
9.439943e-003
9.439943e-003
9.439940e-003
9.439936e-003
9.439931e-003
9.439928e-003
9.439925e-003
9.439923e-003
9.439922e-003
9.439921e-003
9.439921e-003
9.439920e-003
9.439920e-003
9.439920e-003
9.439920e-003
9.439920e-003
9.439920e-003
9.439920e-003
9.439920e-003
9.439920e-003
9.439920e-003
9.439920e-003
9.439920e-003
9.439920e-003
9.439920e-003
9.439921e-003
9.439921e-003
9.439922e-003
9.439923e-003
9.439925e-003
9.439927e-003
9.439931e-003
9.439935e-003
9.439941e-003
9.439948e-003
9.439953e-003
9.439954e-003
9.439946e-003
9.439920e-003
9.439864e-003
9.439761e-003
9.439588e-003
9.439317e-003
9.438912e-003
9.438336e-003
9.437548e-003
9.436511e-003
9.435189e-003
9.433558e-003
9.431604e-003
9.429327e-003
9.426742e-003
9.423879e-003
9.420777e-003
9.417486e-003
9.414063e-003
9.410564e-003
9.407046e-003
9.403563e-003
9.400165e-003
9.396895e-003
9.393794e-003
9.390896e-003
9.388232e-003
9.385828e-003
9.383712e-003
9.381905e-003
9.380430e-003
9.379310e-003
9.378564e-003
9.378211e-003
9.378271e-003
9.378757e-003
9.379681e-003
9.381051e-003
9.382869e-003
9.385126e-003
9.387807e-003
9.390885e-003
9.394317e-003
9.398050e-003
9.402013e-003
9.406126e-003
9.410296e-003
9.414423e-003
9.418408e-003
9.422158e-003
9.425593e-003
9.428650e-003
9.431292e-003
9.433504e-003
9.435298e-003
9.436703e-003
9.437766e-003
9.438540e-003
9.439081e-003
9.439443e-003
9.439673e-003
9.439811e-003
9.439887e-003
9.439926e-003
9.439941e-003
9.439944e-003
9.439941e-003
9.439937e-003
9.439932e-003
9.439928e-003
9.439925e-003
9.439923e-003
9.439922e-003
9.439921e-003
9.439921e-003
9.439920e-003
9.439920e-003
9.439920e-003
9.439920e-003
9.439920e-003
9.439920e-003
9.439920e-003
9.439921e-003
9.439920e-003
9.439920e-003
9.439919e-003
9.439920e-003
9.439921e-003
9.439921e-003
9.439922e-003
9.439923e-003
9.439925e-003
9.439927e-003
9.439931e-003
9.439937e-003
9.439943e-003
9.439950e-003
9.439955e-003
9.439954e-003
9.439939e-003
9.439899e-003
9.439813e-003
9.439656e-003
9.439389e-003
9.438964e-003
9.438319e-003
9.437386e-003
9.436088e-003
9.434349e-003
9.432098e-003
9.429280e-003
9.425861e-003
9.421837e-003
9.417230e-003
9.412097e-003
9.406518e-003
9.400594e-003
9.394439e-003
9.388168e-003
9.381894e-003
9.375722e-003
9.369744e-003
9.364037e-003
9.358664e-003
9.353678e-003
9.349118e-003
9.345014e-003
9.341392e-003
9.338270e-003
9.335663e-003
9.333586e-003
9.332051e-003
9.331071e-003
9.330661e-003
9.330838e-003
9.331620e-003
9.333027e-003
9.335078e-003
9.337793e-003
9.341184e-003
9.345257e-003
9.350005e-003
9.355403e-003
9.361400e-003
9.367920e-003
9.374855e-003
9.382068e-003
9.389394e-003
9.396650e-003
9.403650e-003
9.410213e-003
9.416188e-003
9.421459e-003
9.425963e-003
9.429682e-003
9.432650e-003
9.434935e-003
9.436629e-003
9.437839e-003
9.438668e-003
9.439211e-003
9.439551e-003
9.439751e-003
9.439861e-003
9.439915e-003
9.439938e-003
9.439944e-003
9.439942e-003
9.439937e-003
9.439933e-003
9.439928e-003
9.439925e-003
9.439923e-003
9.439922e-003
9.439921e-003
9.439921e-003
9.439920e-003
9.439920e-003
9.439920e-003
9.439920e-003
9.439920e-003
9.439920e-003
9.439922e-003
9.439921e-003
9.439920e-003
9.439919e-003
9.439920e-003
9.439921e-003
9.439922e-003
9.439923e-003
9.439925e-003
9.439928e-003
9.439932e-003
9.439938e-003
9.439945e-003
9.439952e-003
9.439957e-003
9.439953e-003
9.439932e-003
9.439875e-003
9.439755e-003
9.439532e-003
9.439147e-003
9.438523e-003
9.437560e-003
9.436138e-003
9.434122e-003
9.431371e-003
9.427753e-003
9.423158e-003
9.417522e-003
9.410833e-003
9.403146e-003
9.394582e-003
9.385319e-003
9.375577e-003
9.365601e-003
9.355633e-003
9.345904e-003
9.336610e-003
9.327909e-003
9.319918e-003
9.312713e-003
9.306337e-003
9.300801e-003
9.296094e-003
9.292188e-003
9.289036e-003
9.286584e-003
9.284771e-003
9.283532e-003
9.282806e-003
9.282535e-003
9.282677e-003
9.283205e-003
9.284113e-003
9.285423e-003
9.287181e-003
9.289464e-003
9.292372e-003
9.296021e-003
9.300535e-003
9.306032e-003
9.312601e-003
9.320285e-003
9.329064e-003
9.338835e-003
9.349406e-003
9.360501e-003
9.371777e-003
9.382857e-003
9.393368e-003
9.402983e-003
9.411460e-003
9.418655e-003
9.424536e-003
9.429162e-003
9.432662e-003
9.435208e-003
9.436989e-003
9.438183e-003
9.438949e-003
9.439417e-003
9.439688e-003
9.439834e-003
9.439905e-003
9.439935e-003
9.439944e-003
9.439943e-003
9.439938e-003
9.439933e-003
9.439928e-003
9.439925e-003
9.439923e-003
9.439922e-003
9.439921e-003
9.439921e-003
9.439920e-003
9.439920e-003
9.439920e-003
9.439920e-003
9.439920e-003
9.439921e-003
9.439921e-003
9.439920e-003
9.439920e-003
9.439920e-003
9.439922e-003
9.439923e-003
9.439925e-003
9.439928e-003
9.439932e-003
9.439938e-003
9.439946e-003
9.439954e-003
9.439959e-003
9.439953e-003
9.439925e-003
9.439851e-003
9.439696e-003
9.439401e-003
9.438882e-003
9.438022e-003
9.436666e-003
9.434621e-003
9.431663e-003
9.427552e-003
9.422055e-003
9.414984e-003
9.406233e-003
9.395814e-003
9.383885e-003
9.370754e-003
9.356863e-003
9.342748e-003
9.328989e-003
9.316148e-003
9.304719e-003
9.295090e-003
9.287520e-003
9.282134e-003
9.278939e-003
9.277836e-003
9.278651e-003
9.281150e-003
9.285058e-003
9.290066e-003
9.295843e-003
9.302038e-003
9.308289e-003
9.314232e-003
9.319512e-003
9.323803e-003
9.326823e-003
9.328355e-003
9.328268e-003
9.326535e-003
9.323252e-003
9.318647e-003
9.313085e-003
9.307059e-003
9.301171e-003
9.296093e-003
9.292522e-003
9.291108e-003
9.292386e-003
9.296695e-003
9.304115e-003
9.314434e-003
9.327153e-003
9.341536e-003
9.356709e-003
9.371775e-003
9.385938e-003
9.398587e-003
9.409351e-003
9.418097e-003
9.424896e-003
9.429958e-003
9.433571e-003
9.436044e-003
9.437665e-003
9.438681e-003
9.439288e-003
9.439630e-003
9.439811e-003
9.439898e-003
9.439933e-003
9.439944e-003
9.439943e-003
9.439938e-003
9.439932e-003
9.439928e-003
9.439925e-003
9.439923e-003
9.439922e-003
9.439921e-003
9.439920e-003
9.439920e-003
9.439920e-003
9.439920e-003
9.439920e-003
9.439921e-003
9.439920e-003
9.439920e-003
9.439921e-003
9.439921e-003
9.439923e-003
9.439925e-003
9.439928e-003
9.439932e-003
9.439938e-003
9.439946e-003
9.439954e-003
9.439960e-003
9.439954e-003
9.439921e-003
9.439833e-003
9.439645e-003
9.439279e-003
9.438621e-003
9.437505e-003
9.435704e-003
9.432926e-003
9.428823e-003
9.423008e-003
9.415109e-003
9.404831e-003
9.392050e-003
9.376900e-003
9.359853e-003
9.341744e-003
9.323743e-003
9.307259e-003
9.293793e-003
9.284773e-003
9.281394e-003
9.284503e-003
9.294536e-003
9.311506e-003
9.335048e-003
9.364489e-003
9.398934e-003
9.437344e-003
9.478600e-003
9.521538e-003
9.564967e-003
9.607673e-003
9.648420e-003
9.685961e-003
9.719050e-003
9.746478e-003
9.767108e-003
9.779936e-003
9.784142e-003
9.779159e-003
9.764737e-003
9.741004e-003
9.708521e-003
9.668311e-003
9.621874e-003
9.571163e-003
9.518513e-003
9.466529e-003
9.417910e-003
9.375223e-003
9.340653e-003
9.315735e-003
9.301159e-003
9.296663e-003
9.301078e-003
9.312513e-003
9.328665e-003
9.347171e-003
9.365932e-003
9.383344e-003
9.398397e-003
9.410643e-003
9.420079e-003
9.427001e-003
9.431847e-003
9.435092e-003
9.437169e-003
9.438440e-003
9.439179e-003
9.439586e-003
9.439796e-003
9.439894e-003
9.439933e-003
9.439944e-003
9.439942e-003
9.439937e-003
9.439932e-003
9.439928e-003
9.439925e-003
9.439923e-003
9.439921e-003
9.439921e-003
9.439920e-003
9.439920e-003
9.439920e-003
9.439920e-003
9.439920e-003
9.439920e-003
9.439921e-003
9.439922e-003
9.439923e-003
9.439924e-003
9.439927e-003
9.439932e-003
9.439938e-003
9.439946e-003
9.439955e-003
9.439960e-003
9.439955e-003
9.439920e-003
9.439824e-003
9.439610e-003
9.439185e-003
9.438399e-003
9.437033e-003
9.434773e-003
9.431205e-003
9.425816e-003
9.418028e-003
9.407279e-003
9.393160e-003
9.375605e-003
9.355121e-003
9.332996e-003
9.311419e-003
9.293453e-003
9.282818e-003
9.283514e-003
9.299346e-003
9.333455e-003
9.387952e-003
9.463704e-003
9.560306e-003
9.676197e-003
9.808890e-003
9.955258e-003
1.011181e-002
1.027491e-002
1.044095e-002
1.060639e-002
1.076778e-002
1.092170e-002
1.106479e-002
1.119365e-002
1.130495e-002
1.139540e-002
1.146190e-002
1.150165e-002
1.151227e-002
1.149200e-002
1.143983e-002
1.135572e-002
1.124072e-002
1.109717e-002
1.092874e-002
1.074049e-002
1.053880e-002
1.033115e-002
1.012581e-002
9.931193e-003
9.755253e-003
9.604613e-003
9.483837e-003
9.394871e-003
9.336859e-003
9.306382e-003
9.298127e-003
9.305819e-003
9.323208e-003
9.344904e-003
9.366867e-003
9.386548e-003
9.402712e-003
9.415103e-003
9.424064e-003
9.430217e-003
9.434244e-003
9.436760e-003
9.438259e-003
9.439109e-003
9.439564e-003
9.439791e-003
9.439894e-003
9.439934e-003
9.439944e-003
9.439942e-003
9.439936e-003
9.439931e-003
9.439927e-003
9.439924e-003
9.439922e-003
9.439921e-003
9.439921e-003
9.439920e-003
9.439920e-003
9.439920e-003
9.439919e-003
9.439920e-003
9.439922e-003
9.439923e-003
9.439924e-003
9.439927e-003
9.439931e-003
9.439937e-003
9.439945e-003
9.439955e-003
9.439961e-003
9.439957e-003
9.439923e-003
9.439825e-003
9.439599e-003
9.439133e-003
9.438249e-003
9.436670e-003
9.433991e-003
9.429653e-003
9.422948e-003
9.413056e-003
9.399186e-003
9.380819e-003
9.358114e-003
9.332428e-003
9.306865e-003
9.286696e-003
9.279431e-003
9.294421e-003
9.341960e-003
9.432032e-003
9.572985e-003
9.770404e-003
1.002642e-002
1.033956e-002
1.070504e-002
1.111545e-002
1.156159e-002
1.203333e-002
1.252036e-002
1.301273e-002
1.350107e-002
1.397673e-002
1.443160e-002
1.485796e-002
1.524826e-002
1.559507e-002
1.589101e-002
1.612882e-002
1.630156e-002
1.640275e-002
1.642676e-002
1.636905e-002
1.622661e-002
1.599830e-002
1.568537e-002
1.529178e-002
1.482468e-002
1.429464e-002
1.371581e-002
1.310579e-002
1.248509e-002
1.187612e-002
1.130155e-002
1.078233e-002
1.033537e-002
9.971647e-003
9.694834e-003
9.501171e-003
9.380483e-003
9.318252e-003
9.298223e-003
9.304924e-003
9.325524e-003
9.350748e-003
9.374864e-003
9.395047e-003
9.410476e-003
9.421478e-003
9.428882e-003
9.433614e-003
9.436496e-003
9.438167e-003
9.439088e-003
9.439567e-003