# vtk DataFile Version 3.0
vtk output
ASCII
DATASET STRUCTURED_POINTS
DIMENSIONS 100 100 1
SPACING 1 1 1
ORIGIN 0 0 0
POINT_DATA 10000
SCALARS SFBox_profile double
LOOKUP_TABLE default 
9.439920e-003
9.439920e-003
9.439920e-003
9.439920e-003
9.439920e-003
9.439920e-003
9.439920e-003
9.439920e-003
9.439920e-003
9.439920e-003
9.439920e-003
9.439920e-003
9.439920e-003
9.439920e-003
9.439920e-003
9.439920e-003
9.439920e-003
9.439920e-003
9.439920e-003
9.439920e-003
9.439920e-003
9.439920e-003
9.439920e-003
9.439920e-003
9.439920e-003
9.439920e-003
9.439921e-003
9.439921e-003
9.439921e-003
9.439922e-003
9.439922e-003
9.439923e-003
9.439923e-003
9.439924e-003
9.439925e-003
9.439925e-003
9.439926e-003
9.439927e-003
9.439927e-003
9.439928e-003
9.439928e-003
9.439929e-003
9.439929e-003
9.439930e-003
9.439930e-003
9.439931e-003
9.439931e-003
9.439931e-003
9.439932e-003
9.439932e-003
9.439932e-003
9.439932e-003
9.439932e-003
9.439932e-003
9.439932e-003
9.439931e-003
9.439931e-003
9.439931e-003
9.439930e-003
9.439930e-003
9.439929e-003
9.439928e-003
9.439928e-003
9.439927e-003
9.439926e-003
9.439926e-003
9.439925e-003
9.439924e-003
9.439924e-003
9.439923e-003
9.439922e-003
9.439922e-003
9.439921e-003
9.439921e-003
9.439921e-003
9.439920e-003
9.439920e-003
9.439920e-003
9.439920e-003
9.439920e-003
9.439920e-003
9.439920e-003
9.439920e-003
9.439920e-003
9.439920e-003
9.439920e-003
9.439920e-003
9.439920e-003
9.439920e-003
9.439920e-003
9.439920e-003
9.439920e-003
9.439920e-003
9.439920e-003
9.439920e-003
9.439920e-003
9.439920e-003
9.439920e-003
9.439920e-003
9.439920e-003
9.439920e-003
9.439920e-003
9.439920e-003
9.439920e-003
9.439920e-003
9.439920e-003
9.439920e-003
9.439920e-003
9.439920e-003
9.439920e-003
9.439920e-003
9.439920e-003
9.439920e-003
9.439920e-003
9.439920e-003
9.439920e-003
9.439920e-003
9.439920e-003
9.439920e-003
9.439920e-003
9.439920e-003
9.439920e-003
9.439920e-003
9.439920e-003
9.439920e-003
9.439920e-003
9.439921e-003
9.439921e-003
9.439921e-003
9.439922e-003
9.439922e-003
9.439923e-003
9.439923e-003
9.439924e-003
9.439925e-003
9.439925e-003
9.439926e-003
9.439927e-003
9.439927e-003
9.439928e-003
9.439928e-003
9.439929e-003
9.439929e-003
9.439930e-003
9.439930e-003
9.439931e-003
9.439931e-003
9.439931e-003
9.439932e-003
9.439932e-003
9.439932e-003
9.439932e-003
9.439932e-003
9.439932e-003
9.439932e-003
9.439931e-003
9.439931e-003
9.439931e-003
9.439930e-003
9.439930e-003
9.439929e-003
9.439928e-003
9.439928e-003
9.439927e-003
9.439926e-003
9.439926e-003
9.439925e-003
9.439924e-003
9.439924e-003
9.439923e-003
9.439922e-003
9.439922e-003
9.439921e-003
9.439921e-003
9.439921e-003
9.439920e-003
9.439920e-003
9.439920e-003
9.439920e-003
9.439920e-003
9.439920e-003
9.439920e-003
9.439920e-003
9.439920e-003
9.439920e-003
9.439920e-003
9.439920e-003
9.439920e-003
9.439920e-003
9.439920e-003
9.439920e-003
9.439920e-003
9.439920e-003
9.439920e-003
9.439920e-003
9.439920e-003
9.439920e-003
9.439920e-003
9.439920e-003
9.439920e-003
9.439920e-003
9.439920e-003
9.439920e-003
9.439920e-003
9.439920e-003
9.439920e-003
9.439920e-003
9.439920e-003
9.439920e-003
9.439920e-003
9.439920e-003
9.439920e-003
9.439920e-003
9.439920e-003
9.439920e-003
9.439920e-003
9.439920e-003
9.439920e-003
9.439920e-003
9.439920e-003
9.439920e-003
9.439920e-003
9.439920e-003
9.439921e-003
9.439921e-003
9.439921e-003
9.439922e-003
9.439922e-003
9.439922e-003
9.439923e-003
9.439924e-003
9.439924e-003
9.439925e-003
9.439926e-003
9.439926e-003
9.439927e-003
9.439928e-003
9.439929e-003
9.439929e-003
9.439930e-003
9.439931e-003
9.439932e-003
9.439932e-003
9.439933e-003
9.439934e-003
9.439934e-003
9.439935e-003
9.439935e-003
9.439935e-003
9.439935e-003
9.439936e-003
9.439936e-003
9.439935e-003
9.439935e-003
9.439935e-003
9.439935e-003
9.439934e-003
9.439934e-003
9.439933e-003
9.439933e-003
9.439932e-003
9.439931e-003
9.439930e-003
9.439929e-003
9.439928e-003
9.439927e-003
9.439927e-003
9.439926e-003
9.439925e-003
9.439924e-003
9.439923e-003
9.439923e-003
9.439922e-003
9.439922e-003
9.439921e-003
9.439921e-003
9.439921e-003
9.439921e-003
9.439920e-003
9.439920e-003
9.439920e-003
9.439920e-003
9.439920e-003
9.439920e-003
9.439920e-003
9.439920e-003
9.439920e-003
9.439920e-003
9.439920e-003
9.439920e-003
9.439920e-003
9.439920e-003
9.439920e-003
9.439920e-003
9.439920e-003
9.439920e-003
9.439920e-003
9.439920e-003
9.439920e-003
9.439920e-003
9.439920e-003
9.439920e-003
9.439920e-003
9.439920e-003
9.439920e-003
9.439920e-003
9.439920e-003
9.439920e-003
9.439920e-003
9.439920e-003
9.439920e-003
9.439920e-003
9.439920e-003
9.439920e-003
9.439920e-003
9.439920e-003
9.439920e-003
9.439920e-003
9.439920e-003
9.439920e-003
9.439920e-003
9.439921e-003
9.439921e-003
9.439922e-003
9.439922e-003
9.439923e-003
9.439923e-003
9.439924e-003
9.439925e-003
9.439925e-003
9.439926e-003
9.439927e-003
9.439928e-003
9.439929e-003
9.439930e-003
9.439932e-003
9.439933e-003
9.439934e-003
9.439935e-003
9.439936e-003
9.439937e-003
9.439938e-003
9.439939e-003
9.439940e-003
9.439940e-003
9.439941e-003
9.439941e-003
9.439942e-003
9.439942e-003
9.439942e-003
9.439942e-003
9.439942e-003
9.439942e-003
9.439942e-003
9.439942e-003
9.439941e-003
9.439941e-003
9.439940e-003
9.439939e-003
9.439939e-003
9.439938e-003
9.439937e-003
9.439936e-003
9.439934e-003
9.439933e-003
9.439932e-003
9.439931e-003
9.439929e-003
9.439928e-003
9.439927e-003
9.439926e-003
9.439925e-003
9.439924e-003
9.439923e-003
9.439923e-003
9.439922e-003
9.439922e-003
9.439921e-003
9.439921e-003
9.439921e-003
9.439920e-003
9.439920e-003
9.439920e-003
9.439920e-003
9.439920e-003
9.439920e-003
9.439920e-003
9.439920e-003
9.439920e-003
9.439920e-003
9.439920e-003
9.439920e-003
9.439920e-003
9.439920e-003
9.439920e-003
9.439920e-003
9.439920e-003
9.439920e-003
9.439920e-003
9.439920e-003
9.439919e-003
9.439920e-003
9.439920e-003
9.439920e-003
9.439920e-003
9.439920e-003
9.439920e-003
9.439920e-003
9.439920e-003
9.439920e-003
9.439920e-003
9.439920e-003
9.439920e-003
9.439920e-003
9.439920e-003
9.439920e-003
9.439920e-003
9.439920e-003
9.439920e-003
9.439921e-003
9.439921e-003
9.439922e-003
9.439922e-003
9.439923e-003
9.439924e-003
9.439925e-003
9.439926e-003
9.439927e-003
9.439928e-003
9.439930e-003
9.439931e-003
9.439933e-003
9.439934e-003
9.439936e-003
9.439938e-003
9.439939e-003
9.439941e-003
9.439942e-003
9.439943e-003
9.439944e-003
9.439945e-003
9.439946e-003
9.439946e-003
9.439947e-003
9.439947e-003
9.439947e-003
9.439948e-003
9.439948e-003
9.439948e-003
9.439948e-003
9.439947e-003
9.439947e-003
9.439947e-003
9.439947e-003
9.439947e-003
9.439946e-003
9.439946e-003
9.439946e-003
9.439945e-003
9.439945e-003
9.439944e-003
9.439943e-003
9.439942e-003
9.439941e-003
9.439940e-003
9.439939e-003
9.439937e-003
9.439936e-003
9.439934e-003
9.439932e-003
9.439931e-003
9.439929e-003
9.439928e-003
9.439926e-003
9.439925e-003
9.439924e-003
9.439923e-003
9.439922e-003
9.439922e-003
9.439921e-003
9.439921e-003
9.439920e-003
9.439920e-003
9.439920e-003
9.439920e-003
9.439920e-003
9.439920e-003
9.439920e-003
9.439920e-003
9.439920e-003
9.439920e-003
9.439920e-003
9.439920e-003
9.439920e-003
9.439920e-003
9.439920e-003
9.439920e-003
9.439920e-003
9.439920e-003
9.439920e-003
9.439920e-003
9.439920e-003
9.439920e-003
9.439920e-003
9.439920e-003
9.439920e-003
9.439920e-003
9.439920e-003
9.439920e-003
9.439920e-003
9.439920e-003
9.439920e-003
9.439920e-003
9.439920e-003
9.439920e-003
9.439920e-003
9.439921e-003
9.439921e-003
9.439921e-003
9.439922e-003
9.439922e-003
9.439923e-003
9.439924e-003
9.439925e-003
9.439926e-003
9.439928e-003
9.439930e-003
9.439932e-003
9.439934e-003
9.439936e-003
9.439939e-003
9.439941e-003
9.439943e-003
9.439944e-003
9.439946e-003
9.439947e-003
9.439947e-003
9.439948e-003
9.439948e-003
9.439947e-003
9.439947e-003
9.439946e-003
9.439945e-003
9.439943e-003
9.439942e-003
9.439940e-003
9.439939e-003
9.439937e-003
9.439936e-003
9.439935e-003
9.439934e-003
9.439933e-003
9.439933e-003
9.439933e-003
9.439933e-003
9.439934e-003
9.439935e-003
9.439936e-003
9.439938e-003
9.439939e-003
9.439940e-003
9.439942e-003
9.439943e-003
9.439943e-003
9.439944e-003
9.439944e-003
9.439943e-003
9.439942e-003
9.439941e-003
9.439939e-003
9.439937e-003
9.439935e-003
9.439933e-003
9.439931e-003
9.439929e-003
9.439927e-003
9.439925e-003
9.439924e-003
9.439923e-003
9.439922e-003
9.439922e-003
9.439921e-003
9.439921e-003
9.439921e-003
9.439920e-003
9.439920e-003
9.439920e-003
9.439920e-003
9.439920e-003
9.439920e-003
9.439920e-003
9.439920e-003
9.439920e-003
9.439920e-003
9.439920e-003
9.439920e-003
9.439920e-003
9.439920e-003
9.439920e-003
9.439920e-003
9.439921e-003
9.439920e-003
9.439920e-003
9.439920e-003
9.439920e-003
9.439920e-003
9.439920e-003
9.439920e-003
9.439920e-003
9.439920e-003
9.439920e-003
9.439920e-003
9.439920e-003
9.439920e-003
9.439920e-003
9.439921e-003
9.439921e-003
9.439922e-003
9.439922e-003
9.439923e-003
9.439924e-003
9.439926e-003
9.439927e-003
9.439929e-003
9.439931e-003
9.439934e-003
9.439937e-003
9.439939e-003
9.439942e-003
9.439944e-003
9.439946e-003
9.439947e-003
9.439947e-003
9.439947e-003
9.439945e-003
9.439943e-003
9.439939e-003
9.439935e-003
9.439929e-003
9.439923e-003
9.439917e-003
9.439909e-003
9.439902e-003
9.439895e-003
9.439887e-003
9.439880e-003
9.439873e-003
9.439867e-003
9.439862e-003
9.439858e-003
9.439855e-003
9.439853e-003
9.439853e-003
9.439854e-003
9.439856e-003
9.439860e-003
9.439865e-003
9.439871e-003
9.439879e-003
9.439887e-003
9.439895e-003
9.439903e-003
9.439912e-003
9.439919e-003
9.439926e-003
9.439932e-003
9.439937e-003
9.439940e-003
9.439942e-003
9.439943e-003
9.439943e-003
9.439941e-003
9.439939e-003
9.439937e-003
9.439934e-003
9.439932e-003
9.439929e-003
9.439927e-003
9.439925e-003
9.439924e-003
9.439923e-003
9.439922e-003
9.439922e-003
9.439921e-003
9.439921e-003
9.439920e-003
9.439920e-003
9.439920e-003
9.439920e-003
9.439920e-003
9.439920e-003
9.439920e-003
9.439920e-003
9.439920e-003
9.439920e-003
9.439920e-003
9.439920e-003
9.439920e-003
9.439920e-003
9.439920e-003
9.439921e-003
9.439920e-003
9.439920e-003
9.439920e-003
9.439920e-003
9.439920e-003
9.439920e-003
9.439920e-003
9.439920e-003
9.439920e-003
9.439920e-003
9.439920e-003
9.439920e-003
9.439920e-003
9.439921e-003
9.439921e-003
9.439922e-003
9.439923e-003
9.439924e-003
9.439926e-003
9.439928e-003
9.439930e-003
9.439933e-003
9.439936e-003
9.439939e-003
9.439942e-003
9.439945e-003
9.439947e-003
9.439948e-003
9.439947e-003
9.439944e-003
9.439940e-003
9.439932e-003
9.439923e-003
9.439910e-003
9.439895e-003
9.439877e-003
9.439857e-003
9.439836e-003
9.439812e-003
9.439788e-003
9.439763e-003
9.439738e-003
9.439713e-003
9.439689e-003
9.439666e-003
9.439646e-003
9.439627e-003
9.439612e-003
9.439599e-003
9.439591e-003
9.439586e-003
9.439585e-003
9.439589e-003
9.439598e-003
9.439610e-003
9.439627e-003
9.439648e-003
9.439672e-003
9.439698e-003
9.439727e-003
9.439756e-003
9.439786e-003
9.439814e-003
9.439841e-003
9.439865e-003
9.439887e-003
9.439904e-003
9.439919e-003
9.439929e-003
9.439937e-003
9.439941e-003
9.439942e-003
9.439942e-003
9.439941e-003
9.439938e-003
9.439936e-003
9.439933e-003
9.439930e-003
9.439927e-003
9.439925e-003
9.439924e-003
9.439923e-003
9.439922e-003
9.439921e-003
9.439921e-003
9.439920e-003
9.439920e-003
9.439920e-003
9.439920e-003
9.439920e-003
9.439920e-003
9.439920e-003
9.439920e-003
9.439920e-003
9.439920e-003
9.439920e-003
9.439920e-003
9.439920e-003
9.439920e-003
9.439920e-003
9.439920e-003
9.439920e-003
9.439920e-003
9.439920e-003
9.439920e-003
9.439920e-003
9.439920e-003
9.439920e-003
9.439920e-003
9.439920e-003
9.439920e-003
9.439921e-003
9.439921e-003
9.439922e-003
9.439923e-003
9.439924e-003
9.439925e-003
9.439927e-003
9.439930e-003
9.439933e-003
9.439937e-003
9.439941e-003
9.439944e-003
9.439947e-003
9.439949e-003
9.439948e-003
9.439945e-003
9.439937e-003
9.439925e-003
9.439907e-003
9.439883e-003
9.439853e-003
9.439815e-003
9.439771e-003
9.439720e-003
9.439663e-003
9.439602e-003
9.439536e-003
9.439467e-003
9.439396e-003
9.439325e-003
9.439254e-003
9.439186e-003
9.439120e-003
9.439059e-003
9.439003e-003
9.438954e-003
9.438913e-003
9.438880e-003
9.438858e-003
9.438847e-003
9.438846e-003
9.438858e-003
9.438881e-003
9.438917e-003
9.438963e-003
9.439020e-003
9.439086e-003
9.439160e-003
9.439240e-003
9.439323e-003
9.439407e-003
9.439490e-003
9.439570e-003
9.439644e-003
9.439712e-003
9.439770e-003
9.439820e-003
9.439860e-003
9.439891e-003
9.439913e-003
9.439928e-003
9.439937e-003
9.439942e-003
9.439943e-003
9.439942e-003
9.439939e-003
9.439936e-003
9.439932e-003
9.439929e-003
9.439927e-003
9.439925e-003
9.439923e-003
9.439922e-003
9.439921e-003
9.439921e-003
9.439921e-003
9.439920e-003
9.439920e-003
9.439920e-003
9.439920e-003
9.439920e-003
9.439920e-003
9.439920e-003
9.439920e-003
9.439920e-003
9.439920e-003
9.439920e-003
9.439920e-003
9.439920e-003
9.439920e-003
9.439920e-003
9.439920e-003
9.439920e-003
9.439920e-003
9.439920e-003
9.439920e-003
9.439920e-003
9.439920e-003
9.439920e-003
9.439921e-003
9.439922e-003
9.439922e-003
9.439923e-003
9.439925e-003
9.439926e-003
9.439929e-003
9.439932e-003
9.439937e-003
9.439941e-003
9.439945e-003
9.439948e-003
9.439950e-003
9.439948e-003
9.439941e-003
9.439928e-003
9.439906e-003
9.439872e-003
9.439826e-003
9.439765e-003
9.439688e-003
9.439595e-003
9.439485e-003
9.439359e-003
9.439218e-003
9.439063e-003
9.438898e-003
9.438725e-003
9.438546e-003
9.438365e-003
9.438183e-003
9.438005e-003
9.437833e-003
9.437670e-003
9.437519e-003
9.437382e-003
9.437263e-003
9.437164e-003
9.437086e-003
9.437033e-003
9.437006e-003
9.437007e-003
9.437037e-003
9.437095e-003
9.437183e-003
9.437299e-003
9.437440e-003
9.437605e-003
9.437790e-003
9.437990e-003
9.438200e-003
9.438416e-003
9.438631e-003
9.438840e-003
9.439037e-003
9.439218e-003
9.439380e-003
9.439520e-003
9.439637e-003
9.439732e-003
9.439805e-003
9.439859e-003
9.439896e-003
9.439921e-003
9.439935e-003
9.439941e-003
9.439943e-003
9.439942e-003
9.439939e-003
9.439935e-003
9.439931e-003
9.439928e-003
9.439926e-003
9.439924e-003
9.439923e-003
9.439922e-003
9.439921e-003
9.439921e-003
9.439920e-003
9.439920e-003
9.439920e-003
9.439920e-003
9.439920e-003
9.439920e-003
9.439920e-003
9.439920e-003
9.439920e-003
9.439920e-003
9.439920e-003
9.439919e-003
9.439919e-003
9.439920e-003
9.439921e-003
9.439920e-003
9.439920e-003
9.439920e-003
9.439920e-003
9.439920e-003
9.439921e-003
9.439921e-003
9.439922e-003
9.439922e-003
9.439924e-003
9.439925e-003
9.439928e-003
9.439931e-003
9.439935e-003
9.439940e-003
9.439945e-003
9.439949e-003
9.439951e-003
9.439949e-003
9.439940e-003
9.439921e-003
9.439888e-003
9.439836e-003
9.439762e-003
9.439659e-003
9.439524e-003
9.439354e-003
9.439145e-003
9.438898e-003
9.438613e-003
9.438293e-003
9.437940e-003
9.437559e-003
9.437157e-003
9.436739e-003
9.436312e-003
9.435882e-003
9.435456e-003
9.435041e-003
9.434643e-003
9.434268e-003
9.433922e-003
9.433611e-003
9.433341e-003
9.433116e-003
9.432943e-003
9.432825e-003
9.432766e-003
9.432770e-003
9.432839e-003
9.432975e-003
9.433176e-003
9.433441e-003
9.433766e-003
9.434146e-003
9.434574e-003
9.435040e-003
9.435533e-003
9.436042e-003
9.436554e-003
9.437055e-003
9.437534e-003
9.437979e-003
9.438383e-003
9.438738e-003
9.439041e-003
9.439291e-003
9.439490e-003
9.439643e-003
9.439756e-003
9.439835e-003
9.439886e-003
9.439918e-003
9.439935e-003
9.439942e-003
9.439943e-003
9.439941e-003
9.439937e-003
9.439933e-003
9.439930e-003
9.439927e-003
9.439925e-003
9.439923e-003
9.439922e-003
9.439921e-003
9.439921e-003
9.439920e-003
9.439920e-003
9.439920e-003
9.439920e-003
9.439920e-003
9.439920e-003
9.439920e-003
9.439920e-003
9.439920e-003
9.439920e-003
9.439919e-003
9.439919e-003
9.439920e-003
9.439921e-003
9.439920e-003
9.439920e-003
9.439920e-003
9.439920e-003
9.439921e-003
9.439921e-003
9.439922e-003
9.439923e-003
9.439924e-003
9.439926e-003
9.439929e-003
9.439934e-003
9.439938e-003
9.439944e-003
9.439949e-003
9.439952e-003
9.439951e-003
9.439942e-003
9.439921e-003
9.439881e-003
9.439814e-003
9.439711e-003
9.439561e-003
9.439356e-003
9.439083e-003
9.438737e-003
9.438309e-003
9.437796e-003
9.437199e-003
9.436521e-003
9.435768e-003
9.434950e-003
9.434078e-003
9.433165e-003
9.432226e-003
9.431274e-003
9.430325e-003
9.429392e-003
9.428489e-003
9.427628e-003
9.426822e-003
9.426083e-003
9.425422e-003
9.424849e-003
9.424376e-003
9.424011e-003
9.423765e-003
9.423645e-003
9.423658e-003
9.423808e-003
9.424098e-003
9.424528e-003
9.425095e-003
9.425792e-003
9.426610e-003
9.427534e-003
9.428546e-003
9.429625e-003
9.430745e-003
9.431880e-003
9.433003e-003
9.434086e-003
9.435105e-003
9.436039e-003
9.436871e-003
9.437592e-003
9.438198e-003
9.438690e-003
9.439077e-003
9.439370e-003
9.439583e-003
9.439731e-003
9.439828e-003
9.439888e-003
9.439922e-003
9.439938e-003
9.439943e-003
9.439943e-003
9.439939e-003
9.439935e-003
9.439931e-003
9.439928e-003
9.439925e-003
9.439923e-003
9.439922e-003
9.439921e-003
9.439921e-003
9.439920e-003
9.439920e-003
9.439920e-003
9.439920e-003
9.439920e-003
9.439920e-003
9.439920e-003
9.439920e-003
9.439920e-003
9.439920e-003
9.439920e-003
9.439920e-003
9.439920e-003
9.439920e-003
9.439920e-003
9.439920e-003
9.439921e-003
9.439921e-003
9.439922e-003
9.439923e-003
9.439925e-003
9.439927e-003
9.439931e-003
9.439935e-003
9.439941e-003
9.439947e-003
9.439952e-003
9.439953e-003
9.439948e-003
9.439929e-003
9.439888e-003
9.439815e-003
9.439693e-003
9.439506e-003
9.439234e-003
9.438854e-003
9.438345e-003
9.437689e-003
9.436869e-003
9.435875e-003
9.434703e-003
9.433358e-003
9.431850e-003
9.430197e-003
9.428421e-003
9.426551e-003
9.424615e-003
9.422642e-003
9.420664e-003
9.418710e-003
9.416805e-003
9.414977e-003
9.413248e-003
9.411641e-003
9.410177e-003
9.408875e-003
9.407755e-003
9.406835e-003
9.406131e-003
9.405660e-003
9.405435e-003
9.405468e-003
9.405769e-003
9.406344e-003
9.407194e-003
9.408315e-003
9.409698e-003
9.411326e-003
9.413176e-003
9.415217e-003
9.417408e-003
9.419705e-003
9.422055e-003
9.424404e-003
9.426695e-003
9.428876e-003
9.430899e-003
9.432726e-003
9.434330e-003
9.435697e-003
9.436827e-003
9.437731e-003
9.438430e-003
9.438950e-003
9.439322e-003
9.439577e-003
9.439743e-003
9.439844e-003
9.439901e-003
9.439930e-003
9.439942e-003
9.439944e-003
9.439941e-003
9.439937e-003
9.439932e-003
9.439928e-003
9.439925e-003
9.439923e-003
9.439922e-003
9.439921e-003
9.439921e-003
9.439920e-003
9.439920e-003
9.439920e-003
9.439920e-003
9.439920e-003
9.439920e-003
9.439920e-003
9.439920e-003
9.439921e-003
9.439920e-003
9.439920e-003
9.439920e-003
9.439920e-003
9.439920e-003
9.439921e-003
9.439921e-003
9.439922e-003
9.439923e-003
9.439925e-003
9.439928e-003
9.439932e-003
9.439937e-003
9.439943e-003
9.439950e-003
9.439954e-003
9.439953e-003
9.439941e-003
9.439908e-003
9.439841e-003
9.439719e-003
9.439518e-003
9.439205e-003
9.438742e-003
9.438088e-003
9.437200e-003
9.436035e-003
9.434559e-003
9.432745e-003
9.430582e-003
9.428070e-003
9.425229e-003
9.422090e-003
9.418699e-003
9.415109e-003
9.411381e-003
9.407576e-003
9.403753e-003
9.399971e-003
9.396283e-003
9.392736e-003
9.389372e-003
9.386230e-003
9.383343e-003
9.380741e-003
9.378453e-003
9.376505e-003
9.374921e-003
9.373724e-003
9.372935e-003
9.372575e-003
9.372661e-003
9.373210e-003
9.374232e-003
9.375734e-003
9.377717e-003
9.380172e-003
9.383083e-003
9.386418e-003
9.390136e-003
9.394178e-003
9.398471e-003
9.402928e-003
9.407450e-003
9.411932e-003
9.416266e-003
9.420352e-003
9.424101e-003
9.427446e-003
9.430343e-003
9.432776e-003
9.434755e-003
9.436310e-003
9.437491e-003
9.438353e-003
9.438959e-003
9.439367e-003
9.439628e-003
9.439786e-003
9.439874e-003
9.439919e-003
9.439939e-003
9.439944e-003
9.439942e-003
9.439938e-003
9.439933e-003
9.439929e-003
9.439926e-003
9.439924e-003
9.439922e-003
9.439921e-003
9.439921e-003
9.439920e-003
9.439920e-003
9.439920e-003
9.439920e-003
9.439920e-003
9.439920e-003
9.439920e-003
9.439921e-003
9.439921e-003
9.439920e-003
9.439919e-003
9.439920e-003
9.439921e-003
9.439921e-003
9.439922e-003
9.439923e-003
9.439925e-003
9.439928e-003
9.439933e-003
9.439939e-003
9.439946e-003
9.439952e-003
9.439956e-003
9.439952e-003
9.439932e-003
9.439882e-003
9.439780e-003
9.439595e-003
9.439285e-003
9.438797e-003
9.438062e-003
9.437006e-003
9.435546e-003
9.433601e-003
9.431096e-003
9.427976e-003
9.424210e-003
9.419796e-003
9.414766e-003
9.409185e-003
9.403144e-003
9.396755e-003
9.390139e-003
9.383421e-003
9.376722e-003
9.370151e-003
9.363805e-003
9.357765e-003
9.352097e-003
9.346855e-003
9.342078e-003
9.337799e-003
9.334040e-003
9.330816e-003
9.328142e-003
9.326027e-003
9.324480e-003
9.323512e-003
9.323135e-003
9.323362e-003
9.324210e-003
9.325699e-003
9.327851e-003
9.330686e-003
9.334222e-003
9.338470e-003
9.343430e-003
9.349082e-003
9.355380e-003
9.362252e-003
9.369587e-003
9.377245e-003
9.385053e-003
9.392816e-003
9.400333e-003
9.407408e-003
9.413873e-003
9.419598e-003
9.424506e-003
9.428575e-003
9.431834e-003
9.434351e-003
9.436227e-003
9.437571e-003
9.438496e-003
9.439106e-003
9.439489e-003
9.439717e-003
9.439843e-003
9.439907e-003
9.439935e-003
9.439944e-003
9.439943e-003
9.439939e-003
9.439934e-003
9.439929e-003
9.439926e-003
9.439923e-003
9.439922e-003
9.439921e-003
9.439921e-003
9.439920e-003
9.439920e-003
9.439920e-003
9.439920e-003
9.439920e-003
9.439920e-003
9.439921e-003
9.439920e-003
9.439920e-003
9.439920e-003
9.439920e-003
9.439921e-003
9.439922e-003
9.439923e-003
9.439925e-003
9.439928e-003
9.439933e-003
9.439940e-003
9.439947e-003
9.439954e-003
9.439957e-003
9.439951e-003
9.439922e-003
9.439852e-003
9.439710e-003
9.439449e-003
9.439004e-003
9.438290e-003
9.437194e-003
9.435588e-003
9.433326e-003
9.430258e-003
9.426245e-003
9.421180e-003
9.415002e-003
9.407714e-003
9.399390e-003
9.390176e-003
9.380277e-003
9.369940e-003
9.359432e-003
9.349018e-003
9.338941e-003
9.329407e-003
9.320580e-003
9.312578e-003
9.305476e-003
9.299308e-003
9.294078e-003
9.289759e-003
9.286304e-003
9.283643e-003
9.281697e-003
9.280377e-003
9.279591e-003
9.279252e-003
9.279284e-003
9.279623e-003
9.280232e-003
9.281097e-003
9.282241e-003
9.283718e-003
9.285622e-003
9.288077e-003
9.291234e-003
9.295257e-003
9.300304e-003
9.306505e-003
9.313940e-003
9.322615e-003
9.332443e-003
9.343236e-003
9.354706e-003
9.366488e-003
9.378171e-003
9.389341e-003
9.399630e-003
9.408756e-003
9.416546e-003
9.422944e-003
9.428000e-003
9.431843e-003
9.434652e-003
9.436624e-003
9.437954e-003
9.438811e-003
9.439338e-003
9.439645e-003
9.439812e-003
9.439896e-003
9.439932e-003
9.439943e-003
9.439943e-003
9.439939e-003
9.439934e-003
9.439929e-003
9.439926e-003
9.439923e-003
9.439922e-003
9.439921e-003
9.439921e-003
9.439920e-003
9.439920e-003
9.439920e-003
9.439920e-003
9.439920e-003
9.439920e-003
9.439920e-003
9.439920e-003
9.439920e-003
9.439921e-003
9.439922e-003
9.439924e-003
9.439925e-003
9.439928e-003
9.439933e-003
9.439940e-003
9.439948e-003
9.439956e-003
9.439959e-003
9.439949e-003
9.439913e-003
9.439824e-003
9.439640e-003
9.439295e-003
9.438697e-003
9.437713e-003
9.436174e-003
9.433870e-003
9.430557e-003
9.425983e-003
9.419907e-003
9.412144e-003
9.402608e-003
9.391348e-003
9.378575e-003
9.364664e-003
9.350129e-003
9.335581e-003
9.321663e-003
9.308989e-003
9.298088e-003
9.289363e-003
9.283074e-003
9.279338e-003
9.278136e-003
9.279343e-003
9.282742e-003
9.288043e-003
9.294901e-003
9.302923e-003
9.311680e-003
9.320716e-003
9.329563e-003
9.337757e-003
9.344850e-003
9.350440e-003
9.354180e-003
9.355810e-003
9.355176e-003
9.352253e-003
9.347165e-003
9.340199e-003
9.331806e-003
9.322599e-003
9.313319e-003
9.304793e-003
9.297877e-003
9.293370e-003
9.291935e-003
9.294011e-003
9.299742e-003
9.308939e-003
9.321082e-003
9.335377e-003
9.350857e-003
9.366516e-003
9.381439e-003
9.394909e-003
9.406471e-003
9.415932e-003
9.423331e-003
9.428870e-003
9.432843e-003
9.435575e-003
9.437376e-003
9.438510e-003
9.439192e-003
9.439579e-003
9.439786e-003
9.439886e-003
9.439929e-003
9.439943e-003
9.439943e-003
9.439939e-003
9.439933e-003
9.439929e-003
9.439925e-003
9.439923e-003
9.439922e-003
9.439921e-003
9.439921e-003
9.439920e-003
9.439920e-003
9.439920e-003
9.439920e-003
9.439920e-003
9.439920e-003
9.439920e-003
9.439921e-003
9.439922e-003
9.439923e-003
9.439925e-003
9.439928e-003
9.439933e-003
9.439940e-003
9.439948e-003
9.439956e-003
9.439960e-003
9.439949e-003
9.439907e-003
9.439802e-003
9.439579e-003
9.439153e-003
9.438395e-003
9.437120e-003
9.435079e-003
9.431953e-003
9.427366e-003
9.420911e-003
9.412207e-003
9.400978e-003
9.387150e-003
9.370953e-003
9.352999e-003
9.334300e-003
9.316226e-003
9.300384e-003
9.288455e-003
9.282002e-003
9.282305e-003
9.290244e-003
9.306234e-003
9.330233e-003
9.361789e-003
9.400124e-003
9.444218e-003
9.492882e-003
9.544810e-003
9.598609e-003
9.652821e-003
9.705929e-003
9.756383e-003
9.802620e-003
9.843101e-003
9.876354e-003
9.901027e-003
9.915940e-003
9.920154e-003
9.913040e-003
9.894348e-003
9.864281e-003
9.823552e-003
9.773428e-003
9.715731e-003
9.652811e-003
9.587449e-003
9.522718e-003
9.461778e-003
9.407622e-003
9.362795e-003
9.329112e-003
9.307439e-003
9.297573e-003
9.298283e-003
9.307503e-003
9.322668e-003
9.341106e-003
9.360402e-003
9.378675e-003
9.394691e-003
9.407855e-003
9.418080e-003
9.425629e-003
9.430944e-003
9.434522e-003
9.436824e-003
9.438240e-003
9.439070e-003
9.439530e-003
9.439768e-003
9.439882e-003
9.439928e-003
9.439943e-003
9.439943e-003
9.439938e-003
9.439933e-003
9.439928e-003
9.439925e-003
9.439923e-003
9.439922e-003
9.439921e-003
9.439920e-003
9.439920e-003
9.439920e-003
9.439920e-003
9.439919e-003
9.439920e-003
9.439921e-003
9.439922e-003
9.439923e-003
9.439925e-003
9.439928e-003
9.439933e-003
9.439940e-003
9.439948e-003
9.439957e-003
9.439961e-003
9.439951e-003
9.439906e-003
9.439790e-003
9.439538e-003
9.439042e-003
9.438138e-003
9.436579e-003
9.434020e-003
9.430009e-003
9.423993e-003
9.415366e-003
9.403561e-003
9.388215e-003
9.369388e-003
9.347813e-003
9.325118e-003
9.303937e-003
9.287846e-003
9.281090e-003
9.288139e-003
9.313159e-003
9.359506e-003
9.429344e-003
9.523450e-003
9.641208e-003
9.780773e-003
9.939333e-003
1.011341e-002
1.029915e-002
1.049248e-002
1.068931e-002
1.088550e-002
1.107691e-002
1.125936e-002
1.142871e-002
1.158079e-002
1.171157e-002
1.181715e-002
1.189393e-002
1.193871e-002
1.194887e-002
1.192247e-002
1.185852e-002
1.175710e-002
1.161963e-002
1.144895e-002
1.124947e-002
1.102716e-002
1.078945e-002
1.054498e-002
1.030315e-002
1.007354e-002
9.865113e-003
9.685390e-003
9.539620e-003
9.430171e-003
9.356299e-003
9.314374e-003
9.298586e-003
9.301947e-003
9.317406e-003
9.338778e-003
9.361348e-003
9.382049e-003
9.399306e-003
9.412675e-003
9.422419e-003
9.429153e-003
9.433586e-003
9.436370e-003
9.438039e-003
9.438991e-003
9.439504e-003
9.439763e-003
9.439882e-003
9.439930e-003
9.439943e-003
9.439942e-003
9.439937e-003
9.439932e-003
9.439927e-003
9.439924e-003
9.439922e-003
9.439921e-003
9.439921e-003
9.439920e-003
9.439920e-003
9.439920e-003
9.439919e-003
9.439921e-003
9.439922e-003
9.439923e-003
9.439925e-003
9.439927e-003
9.439932e-003
9.439939e-003
9.439948e-003
9.439957e-003
9.439962e-003
9.439953e-003
9.439910e-003
9.439791e-003
9.439524e-003
9.438982e-003
9.437965e-003
9.436164e-003
9.433131e-003
9.428258e-003
9.420781e-003
9.409843e-003
9.394657e-003
9.374807e-003
9.350712e-003
9.324215e-003
9.299178e-003
9.281895e-003
9.281102e-003
9.307433e-003
9.372356e-003
9.486753e-003
9.659474e-003
9.896168e-003
1.019863e-002
1.056470e-002
1.098874e-002
1.146239e-002
1.197550e-002
1.251704e-002
1.307581e-002
1.364093e-002
1.420199e-002
1.474906e-002
1.527259e-002
1.576328e-002
1.621201e-002
1.660981e-002
1.694796e-002
1.721807e-002
1.741227e-002
1.752344e-002
1.754544e-002
1.747349e-002
1.730451e-002
1.703760e-002
1.667451e-002
1.622012e-002
1.568283e-002
1.507488e-002
1.441242e-002
1.371525e-002
1.300628e-002
1.231036e-002
1.165258e-002
1.105619e-002
1.054018e-002
1.011710e-002
9.791622e-003
9.560190e-003
9.412040e-003
9.331375e-003
9.300203e-003
9.301140e-003
9.319554e-003
9.344678e-003
9.369695e-003
9.391090e-003
9.407669e-003
9.419603e-003
9.427692e-003
9.432894e-003
9.436079e-003
9.437938e-003
9.438968e-003
9.439508e-003