# vtk DataFile Version 3.0
vtk output
ASCII
DATASET STRUCTURED_POINTS
DIMENSIONS 100 100 1
SPACING 1 1 1
ORIGIN 0 0 0
POINT_DATA 10000
SCALARS SFBox_profile double
LOOKUP_TABLE default 
9.439955e-003
9.439959e-003
9.439968e-003
9.439981e-003
9.439998e-003
9.440012e-003
9.440016e-003
9.439990e-003
9.439900e-003
9.439689e-003
9.439265e-003
9.438489e-003
9.437158e-003
9.434992e-003
9.431629e-003
9.426630e-003
9.419495e-003
9.409711e-003
9.396818e-003
9.380495e-003
9.360653e-003
9.337519e-003
9.311674e-003
9.284044e-003
9.255829e-003
9.228382e-003
9.203073e-003
9.181154e-003
9.163646e-003
9.151288e-003
9.144508e-003
9.143453e-003
9.148028e-003
9.157962e-003
9.172877e-003
9.192354e-003
9.215995e-003
9.243463e-003
9.274505e-003
9.308951e-003
9.346697e-003
9.387676e-003
9.431821e-003
9.479029e-003
9.529134e-003
9.581889e-003
9.636955e-003
9.693910e-003
9.752252e-003
9.811416e-003
9.870787e-003
9.929707e-003
9.987482e-003
1.004338e-002
1.009663e-002
1.014640e-002
1.019179e-002
1.023180e-002
1.026534e-002
1.029123e-002
1.030819e-002
1.031489e-002
1.031001e-002
1.029231e-002
1.026076e-002
1.021468e-002
1.015385e-002
1.007877e-002
9.990721e-003
9.891899e-003
9.785453e-003
9.675384e-003
9.566351e-003
9.463340e-003
9.371230e-003
9.294308e-003
9.235780e-003
9.197366e-003
9.179062e-003
9.179132e-003
9.194367e-003
9.220578e-003
9.253230e-003
9.288073e-003
9.321649e-003
9.351567e-003
9.376544e-003
9.396240e-003
9.410991e-003
9.421525e-003
9.428712e-003
9.433402e-003
9.436328e-003
9.438069e-003
9.439052e-003
9.439574e-003
9.439831e-003
9.439945e-003
9.439989e-003
9.440002e-003
9.439955e-003
9.439959e-003
9.439968e-003
9.439981e-003
9.439998e-003
9.440012e-003
9.440016e-003
9.439990e-003
9.439900e-003
9.439689e-003
9.439265e-003
9.438489e-003
9.437158e-003
9.434992e-003
9.431629e-003
9.426630e-003
9.419495e-003
9.409711e-003
9.396818e-003
9.380495e-003
9.360653e-003
9.337519e-003
9.311674e-003
9.284044e-003
9.255829e-003
9.228382e-003
9.203073e-003
9.181154e-003
9.163646e-003
9.151288e-003
9.144508e-003
9.143453e-003
9.148028e-003
9.157962e-003
9.172877e-003
9.192354e-003
9.215995e-003
9.243463e-003
9.274505e-003
9.308951e-003
9.346697e-003
9.387676e-003
9.431821e-003
9.479029e-003
9.529134e-003
9.581889e-003
9.636955e-003
9.693910e-003
9.752252e-003
9.811416e-003
9.870787e-003
9.929707e-003
9.987482e-003
1.004338e-002
1.009663e-002
1.014640e-002
1.019179e-002
1.023180e-002
1.026534e-002
1.029123e-002
1.030819e-002
1.031489e-002
1.031001e-002
1.029231e-002
1.026076e-002
1.021468e-002
1.015385e-002
1.007877e-002
9.990721e-003
9.891899e-003
9.785453e-003
9.675384e-003
9.566351e-003
9.463340e-003
9.371230e-003
9.294308e-003
9.235780e-003
9.197366e-003
9.179062e-003
9.179132e-003
9.194367e-003
9.220578e-003
9.253230e-003
9.288073e-003
9.321649e-003
9.351567e-003
9.376544e-003
9.396240e-003
9.410991e-003
9.421525e-003
9.428712e-003
9.433402e-003
9.436328e-003
9.438069e-003
9.439052e-003
9.439574e-003
9.439831e-003
9.439945e-003
9.439989e-003
9.440002e-003
9.439962e-003
9.439966e-003
9.439975e-003
9.439986e-003
9.439998e-003
9.440002e-003
9.439983e-003
9.439909e-003
9.439730e-003
9.439358e-003
9.438657e-003
9.437423e-003
9.435367e-003
9.432096e-003
9.427123e-003
9.419878e-003
9.409771e-003
9.396289e-003
9.379136e-003
9.358407e-003
9.334743e-003
9.309438e-003
9.284436e-003
9.262200e-003
9.245471e-003
9.236959e-003
9.239029e-003
9.253467e-003
9.281338e-003
9.322965e-003
9.378011e-003
9.445613e-003
9.524551e-003
9.613426e-003
9.710813e-003
9.815403e-003
9.926101e-003
1.004208e-002
1.016281e-002
1.028799e-002
1.041751e-002
1.055131e-002
1.068936e-002
1.083150e-002
1.097741e-002
1.112658e-002
1.127827e-002
1.143157e-002
1.158537e-002
1.173846e-002
1.188950e-002
1.203709e-002
1.217975e-002
1.231594e-002
1.244403e-002
1.256227e-002
1.266872e-002
1.276129e-002
1.283761e-002
1.289509e-002
1.293092e-002
1.294209e-002
1.292551e-002
1.287817e-002
1.279732e-002
1.268079e-002
1.252727e-002
1.233669e-002
1.211058e-002
1.185236e-002
1.156752e-002
1.126365e-002
1.095020e-002
1.063803e-002
1.033864e-002
1.006326e-002
9.821759e-003
9.621582e-003
9.466872e-003
9.357985e-003
9.291541e-003
9.261070e-003
9.258135e-003
9.273701e-003
9.299416e-003
9.328551e-003
9.356433e-003
9.380399e-003
9.399416e-003
9.413557e-003
9.423498e-003
9.430143e-003
9.434376e-003
9.436948e-003
9.438436e-003
9.439252e-003
9.439672e-003
9.439873e-003
9.439960e-003
9.439991e-003
9.439975e-003
9.439979e-003
9.439986e-003
9.439993e-003
9.439993e-003
9.439970e-003
9.439892e-003
9.439704e-003
9.439310e-003
9.438555e-003
9.437202e-003
9.434901e-003
9.431169e-003
9.425383e-003
9.416805e-003
9.404672e-003
9.388369e-003
9.367713e-003
9.343320e-003
9.317005e-003
9.292085e-003
9.273462e-003
9.267371e-003
9.280796e-003
9.320644e-003
9.392866e-003
9.501729e-003
9.649380e-003
9.835765e-003
1.005887e-002
1.031516e-002
1.060016e-002
1.090892e-002
1.123658e-002
1.157865e-002
1.193137e-002
1.229182e-002
1.265800e-002
1.302877e-002
1.340367e-002
1.378270e-002
1.416604e-002
1.455381e-002
1.494583e-002
1.534150e-002
1.573970e-002
1.613883e-002
1.653678e-002
1.693111e-002
1.731907e-002
1.769773e-002
1.806401e-002
1.841471e-002
1.874652e-002
1.905594e-002
1.933918e-002
1.959211e-002
1.981015e-002
1.998812e-002
2.012028e-002
2.020025e-002
2.022111e-002
2.017555e-002
2.005618e-002
1.985585e-002
1.956827e-002
1.918866e-002
1.871454e-002
1.814659e-002
1.748946e-002
1.675251e-002
1.595021e-002
1.510212e-002
1.423242e-002
1.336868e-002
1.254010e-002
1.177511e-002
1.109851e-002
1.052875e-002
1.007567e-002
9.739349e-003
9.510598e-003
9.372857e-003
9.305323e-003
9.286408e-003
9.296760e-003
9.321195e-003
9.349352e-003
9.375257e-003
9.396273e-003
9.411904e-003
9.422768e-003
9.429901e-003
9.434351e-003
9.436994e-003
9.438488e-003
9.439289e-003
9.439695e-003
9.439884e-003
9.439956e-003
9.439993e-003
9.439996e-003
9.439999e-003
9.439996e-003
9.439970e-003
9.439888e-003
9.439692e-003
9.439276e-003
9.438463e-003
9.436973e-003
9.434383e-003
9.430089e-003
9.423283e-003
9.412990e-003
9.398192e-003
9.378131e-003
9.352837e-003
9.323914e-003
9.295494e-003
9.275111e-003
9.274163e-003
9.307585e-003
9.392604e-003
9.546684e-003
9.785136e-003
1.011894e-002
1.055331e-002
1.108727e-002
1.171422e-002
1.242320e-002
1.320052e-002
1.403139e-002
1.490132e-002
1.579709e-002
1.670751e-002
1.762378e-002
1.853965e-002
1.945133e-002
2.035712e-002
2.125689e-002
2.215151e-002
2.304213e-002
2.392966e-002
2.481430e-002
2.569526e-002
2.657066e-002
2.743755e-002
2.829208e-002
2.912970e-002
2.994539e-002
3.073383e-002
3.148952e-002
3.220683e-002
3.287996e-002
3.350280e-002
3.406880e-002
3.457067e-002
3.500026e-002
3.534829e-002
3.560418e-002
3.575603e-002
3.579059e-002
3.569347e-002
3.544947e-002
3.504316e-002
3.445975e-002
3.368614e-002
3.271240e-002
3.153340e-002
3.015064e-002
2.857414e-002
2.682406e-002
2.493192e-002
2.294097e-002
2.090539e-002
1.888799e-002
1.695608e-002
1.517555e-002
1.360375e-002
1.228234e-002
1.123179e-002
1.044904e-002
9.909336e-003
9.571898e-003
9.387975e-003
9.309153e-003
9.293838e-003
9.310741e-003
9.339325e-003
9.368099e-003
9.391966e-003
9.409652e-003
9.421758e-003
9.429542e-003
9.434283e-003
9.437031e-003
9.438545e-003
9.439336e-003
9.439719e-003
9.439871e-003
9.440012e-003
9.440012e-003
9.440008e-003
9.439981e-003
9.439902e-003
9.439709e-003
9.439290e-003
9.438455e-003
9.436887e-003
9.434094e-003
9.429347e-003
9.421641e-003
9.409723e-003
9.392261e-003
9.368309e-003
9.338224e-003
9.305171e-003
9.277178e-003
9.269351e-003
9.305476e-003
9.418063e-003
9.646098e-003
1.003049e-002
1.060809e-002
1.140572e-002
1.243588e-002
1.369499e-002
1.516454e-002
1.681444e-002
1.860752e-002
2.050414e-002
2.246609e-002
2.445927e-002
2.645531e-002
2.843228e-002
3.037468e-002
3.227307e-002
3.412321e-002
3.592500e-002
3.768117e-002
3.939593e-002
4.107370e-002
4.271808e-002
4.433113e-002
4.591298e-002
4.746181e-002
4.897398e-002
5.044441e-002
5.186703e-002
5.323517e-002
5.454188e-002
5.578012e-002
5.694280e-002
5.802272e-002
5.901230e-002
5.990328e-002
6.068638e-002
6.135090e-002
6.188433e-002
6.227202e-002
6.249693e-002
6.253945e-002
6.237739e-002
6.198616e-002
6.133922e-002
6.040875e-002
5.916688e-002
5.758737e-002
5.564784e-002
5.333275e-002
5.063692e-002
4.756958e-002
4.415873e-002
4.045513e-002
3.653522e-002
3.250172e-002
2.848039e-002
2.461178e-002
2.103757e-002
1.788313e-002
1.523952e-002
1.314990e-002
1.160449e-002
1.054622e-002
9.885470e-003
9.519370e-003
9.349998e-003
9.296950e-003
9.302551e-003
9.330737e-003
9.362238e-003
9.388802e-003
9.408299e-003
9.421382e-003
9.429591e-003
9.434462e-003
9.437206e-003
9.438671e-003
9.439397e-003
9.439690e-003
9.440030e-003
9.440024e-003
9.440001e-003
9.439929e-003
9.439751e-003
9.439353e-003
9.438541e-003
9.436977e-003
9.434119e-003
9.429135e-003
9.420837e-003
9.407684e-003
9.387988e-003
9.360549e-003
9.326071e-003
9.289739e-003
9.265139e-003
9.279083e-003
9.375981e-003
9.619558e-003
1.008972e-002
1.087359e-002
1.205188e-002
1.368405e-002
1.579636e-002
1.837640e-002
2.137530e-002
2.471621e-002
2.830640e-002
3.204954e-002
3.585580e-002
3.964845e-002
4.336704e-002
4.696781e-002
5.042246e-002
5.371598e-002
5.684417e-002
5.981101e-002
6.262606e-002
6.530199e-002
6.785233e-002
7.028974e-002
7.262466e-002
7.486462e-002
7.701406e-002
7.907452e-002
8.104517e-002
8.292344e-002
8.470570e-002
8.638782e-002
8.796556e-002
8.943475e-002
9.079134e-002
9.203116e-002
9.314972e-002
9.414173e-002
9.500072e-002
9.571856e-002
9.628494e-002
9.668692e-002
9.690844e-002
9.692979e-002
9.672717e-002
9.627223e-002
9.553166e-002
9.446694e-002
9.303436e-002
9.118547e-002
8.886834e-002
8.602985e-002
8.261956e-002
7.859567e-002
7.393331e-002
6.863540e-002
6.274521e-002
5.635871e-002
4.963319e-002
4.278731e-002
3.608808e-002
2.982225e-002
2.425520e-002
1.958645e-002
1.591529e-002
1.322854e-002
1.141486e-002
1.029986e-002
9.688931e-003
9.403959e-003
9.305340e-003
9.297926e-003
9.325353e-003
9.359136e-003
9.387751e-003
9.408397e-003
9.421915e-003
9.430167e-003
9.434920e-003
9.437506e-003
9.438807e-003
9.439340e-003
9.440042e-003
9.440023e-003
9.439963e-003
9.439808e-003
9.439452e-003
9.438704e-003
9.437226e-003
9.434454e-003
9.429492e-003
9.421011e-003
9.407210e-003
9.386025e-003
9.355895e-003
9.317696e-003
9.278647e-003
9.258881e-003
9.300588e-003
9.477795e-003
9.902664e-003
1.072291e-002
1.210628e-002
1.421249e-002
1.715902e-002
2.099122e-002
2.566727e-002
3.106279e-002
3.699297e-002
4.324403e-002
4.960448e-002
5.588912e-002
6.195248e-002
6.769268e-002
7.304834e-002
7.799166e-002
8.252043e-002
8.665030e-002
9.040822e-002
9.382722e-002
9.694239e-002
9.978791e-002
1.023950e-001
1.047909e-001
1.069979e-001
1.090341e-001
1.109135e-001
1.126469e-001
1.142424e-001
1.157068e-001
1.170456e-001
1.182641e-001
1.193668e-001
1.203583e-001
1.212428e-001
1.220240e-001
1.227053e-001
1.232888e-001
1.237758e-001
1.241663e-001
1.244583e-001
1.246480e-001
1.247290e-001
1.246918e-001
1.245230e-001
1.242040e-001
1.237103e-001
1.230093e-001
1.220586e-001
1.208032e-001
1.191740e-001
1.170845e-001
1.144307e-001
1.110914e-001
1.069346e-001
1.018294e-001
9.566752e-002
8.839375e-002
8.004314e-002
7.077706e-002
6.090537e-002
5.087824e-002
4.123539e-002
3.251540e-002
2.514841e-002
1.936971e-002
1.518772e-002
1.241616e-002
1.075169e-002
9.862334e-003
9.455839e-003
9.314041e-003
9.296189e-003
9.323709e-003
9.359347e-003
9.389108e-003
9.410029e-003
9.423329e-003
9.431196e-003
9.435561e-003
9.437792e-003
9.438715e-003
9.440039e-003
9.439995e-003
9.439868e-003
9.439568e-003
9.438916e-003
9.437593e-003
9.435043e-003
9.430358e-003
9.422129e-003
9.408367e-003
9.386647e-003
9.354924e-003
9.313856e-003
9.272002e-003
9.255521e-003
9.323235e-003
9.585222e-003
1.021855e-002
1.146931e-002
1.362967e-002
1.698556e-002
2.174441e-002
2.796620e-002
3.552610e-002
4.412609e-002
5.335203e-002
6.275387e-002
7.192105e-002
8.053309e-002
8.837938e-002
9.535362e-002
1.014337e-001
1.066571e-001
1.110974e-001
1.148457e-001
1.179970e-001
1.206414e-001
1.228595e-001
1.247206e-001
1.262827e-001
1.275940e-001
1.286939e-001
1.296151e-001
1.303845e-001
1.310253e-001
1.315567e-001
1.319957e-001
1.323566e-001
1.326518e-001
1.328920e-001
1.330861e-001
1.332414e-001
1.333642e-001
1.334594e-001
1.335312e-001
1.335828e-001
1.336169e-001
1.336351e-001
1.336387e-001
1.336281e-001
1.336029e-001
1.335614e-001
1.335007e-001
1.334158e-001
1.332991e-001
1.331394e-001
1.329205e-001
1.326182e-001
1.321975e-001
1.316067e-001
1.307691e-001
1.295728e-001
1.278577e-001
1.254052e-001
1.219368e-001
1.171309e-001
1.106701e-001
1.023225e-001
9.205219e-002
8.012478e-002
6.715563e-002
5.404777e-002
4.181056e-002
3.131308e-002
2.307490e-002
1.718452e-002
1.336634e-002
1.114072e-002
9.992621e-003
9.487475e-003
9.317730e-003
9.296472e-003
9.325909e-003
9.362912e-003
9.392737e-003
9.412980e-003
9.425403e-003
9.432462e-003
9.436130e-003
9.437664e-003
9.440009e-003
9.439921e-003
9.439682e-003
9.439144e-003
9.438019e-003
9.435795e-003
9.431596e-003
9.424017e-003
9.410975e-003
9.389762e-003
9.357768e-003
9.314927e-003
9.269790e-003
9.252085e-003
9.334403e-003
9.662624e-003
1.048733e-002
1.217825e-002
1.519717e-002
2.001105e-002
2.695302e-002
3.607560e-002
4.706527e-002
5.927158e-002
7.184960e-002
8.395584e-002
9.491777e-002
1.043239e-001
1.120277e-001
1.180909e-001
1.227047e-001
1.261176e-001
1.285839e-001
1.303334e-001
1.315565e-001
1.324018e-001
1.329791e-001
1.333673e-001
1.336225e-001
1.337849e-001
1.338835e-001
1.339401e-001
1.339708e-001
1.339878e-001
1.339993e-001
1.340105e-001
1.340239e-001
1.340400e-001
1.340578e-001
1.340756e-001
1.340917e-001
1.341046e-001
1.341136e-001
1.341188e-001
1.341213e-001
1.341226e-001
1.341252e-001
1.341318e-001
1.341454e-001
1.341689e-001
1.342050e-001
1.342556e-001
1.343214e-001
1.344011e-001
1.344907e-001
1.345822e-001
1.346633e-001
1.347163e-001
1.347189e-001
1.346454e-001
1.344691e-001
1.341630e-001
1.336962e-001
1.330174e-001
1.320210e-001
1.304945e-001
1.280578e-001
1.241311e-001
1.179977e-001
1.090212e-001
9.698268e-002
8.237299e-002
6.642958e-002
5.082740e-002
3.714712e-002
2.639716e-002
1.882451e-002
1.404795e-002
1.136397e-002
1.003951e-002
9.486841e-003
9.314259e-003
9.298830e-003
9.331942e-003
9.369501e-003
9.398184e-003
9.416815e-003
9.427744e-003
9.433535e-003
9.435986e-003
9.439929e-003
9.439770e-003
9.439354e-003
9.438448e-003
9.436604e-003
9.433031e-003
9.426402e-003
9.414659e-003
9.394942e-003
9.364108e-003
9.320947e-003
9.272409e-003
9.247859e-003
9.326400e-003
9.680079e-003
1.062653e-002
1.266693e-002
1.646590e-002
2.272679e-002
3.195196e-002
4.415691e-002
5.868620e-002
7.427708e-002
8.939251e-002
1.026742e-001
1.132940e-001
1.210612e-001
1.262955e-001
1.295806e-001
1.315326e-001
1.326582e-001
1.333120e-001
1.337115e-001
1.339729e-001
1.341473e-001
1.342498e-001
1.342808e-001
1.342386e-001
1.341241e-001
1.339417e-001
1.336976e-001
1.333985e-001
1.330500e-001
1.326569e-001
1.322229e-001
1.317513e-001
1.312456e-001
1.307101e-001
1.301504e-001
1.295731e-001
1.289860e-001
1.283981e-001
1.278189e-001
1.272588e-001
1.267284e-001
1.262391e-001
1.258026e-001
1.254314e-001
1.251390e-001
1.249399e-001
1.248497e-001
1.248850e-001
1.250630e-001
1.254008e-001
1.259141e-001
1.266149e-001
1.275087e-001
1.285904e-001
1.298387e-001
1.312095e-001
1.326288e-001
1.339860e-001
1.351312e-001
1.358847e-001
1.360700e-001
1.355741e-001
1.344011e-001
1.326181e-001
1.301004e-001
1.261888e-001
1.196363e-001
1.091671e-001
9.444096e-002
7.665720e-002
5.821501e-002
4.166188e-002
2.868697e-002
1.973887e-002
1.428677e-002
1.135723e-002
9.987829e-003
9.454371e-003
9.306078e-003
9.304307e-003
9.341617e-003
9.378430e-003
9.404721e-003
9.420876e-003
9.429658e-003
9.433426e-003
9.439773e-003
9.439507e-003
9.438825e-003
9.437375e-003
9.434484e-003
9.428975e-003
9.418930e-003
9.401509e-003
9.373198e-003
9.331509e-003
9.280545e-003
9.245170e-003
9.301163e-003
9.628676e-003
1.058772e-002
1.279067e-002
1.710973e-002
2.452970e-002
3.578663e-002
5.086559e-002
6.862629e-002
8.690789e-002
1.032385e-001
1.158173e-001
1.241582e-001
1.289947e-001
1.316006e-001
1.330809e-001
1.340433e-001
1.346571e-001
1.348848e-001
1.346747e-001
1.340346e-001
1.330245e-001
1.317255e-001
1.302171e-001
1.285672e-001
1.268289e-001
1.250418e-001
1.232334e-001
1.214220e-001
1.196188e-001
1.178309e-001
1.160631e-001
1.143199e-001
1.126061e-001
1.109278e-001
1.092921e-001
1.077071e-001
1.061814e-001
1.047238e-001
1.033431e-001
1.020481e-001
1.008471e-001
9.974893e-002
9.876281e-002
9.789896e-002
9.716919e-002
9.658747e-002
9.617054e-002
9.593846e-002
9.591517e-002
9.612895e-002
9.661275e-002
9.740430e-002
9.854585e-002
1.000832e-001
1.020637e-001
1.045326e-001
1.075265e-001
1.110627e-001
1.151219e-001
1.196215e-001
1.243791e-001
1.290702e-001
1.332014e-001
1.361454e-001
1.373098e-001
1.364623e-001
1.339771e-001
1.304022e-001
1.252576e-001
1.165797e-001
1.025503e-001
8.367587e-002
6.296306e-002
4.408210e-002
2.947191e-002
1.970967e-002
1.401924e-002
1.112287e-002
9.854766e-003
9.402773e-003
9.298830e-003
9.314101e-003
9.354309e-003
9.388658e-003
9.411336e-003
9.424105e-003
9.429681e-003
9.439507e-003
9.439086e-003
9.438025e-003
9.435806e-003
9.431452e-003
9.423286e-003
9.408665e-003
9.383967e-003
9.345643e-003
9.294499e-003
9.248017e-003
9.269484e-003
9.525744e-003
1.038061e-002
1.250662e-002
1.694480e-002
2.497669e-002
3.766314e-002
5.506642e-002
7.554347e-002
9.582725e-002
1.123523e-001
1.232050e-001
1.290716e-001
1.321433e-001
1.341162e-001
1.353330e-001
1.354073e-001
1.340774e-001
1.314632e-001
1.279143e-001
1.238174e-001
1.194930e-001
1.151669e-001
1.109789e-001
1.070048e-001
1.032766e-001
9.979872e-002
9.655978e-002
9.353996e-002
9.071641e-002
8.806674e-002
8.557123e-002
8.321401e-002
8.098336e-002
7.887149e-002
7.687392e-002
7.498866e-002
7.321537e-002
7.155469e-002
7.000771e-002
6.857565e-002
6.725982e-002
6.606174e-002
6.498342e-002
6.402778e-002
6.319912e-002
6.250362e-002
6.194994e-002
6.154983e-002
6.131878e-002
6.127678e-002
6.144917e-002
6.186772e-002
6.257173e-002
6.360954e-002
6.503999e-002
6.693420e-002
6.937700e-002
7.246791e-002
7.632022e-002
8.105612e-002
8.679353e-002
9.361722e-002
1.015236e-001
1.103278e-001
1.195306e-001
1.281820e-001
1.348731e-001
1.381197e-001
1.373230e-001
1.335750e-001
1.283452e-001
1.205193e-001
1.069815e-001
8.713163e-002
6.452688e-002
4.400364e-002
2.858864e-002
1.874522e-002
1.331777e-002
1.072872e-002
9.681702e-003
9.350612e-003
9.298161e-003
9.328487e-003
9.368757e-003
9.398728e-003
9.416484e-003
9.424421e-003
9.439095e-003
9.438461e-003
9.436880e-003
9.433617e-003
9.427305e-003
9.415649e-003
9.395213e-003
9.361859e-003
9.313524e-003
9.259526e-003
9.245182e-003
9.406297e-003
1.006932e-002
1.189511e-002
1.600679e-002
2.393960e-002
3.716578e-002
5.606312e-002
7.872094e-002
1.007569e-001
1.173611e-001
1.267716e-001
1.313881e-001
1.343123e-001
1.359570e-001
1.350695e-001
1.311167e-001
1.247437e-001
1.170493e-001
1.089933e-001
1.012057e-001
9.401900e-002
8.756241e-002
8.184603e-002
7.681931e-002
7.240617e-002
6.852418e-002
6.509415e-002
6.204444e-002
5.931276e-002
5.684658e-002
5.460292e-002
5.254762e-002
5.065438e-002
4.890352e-002
4.728071e-002
4.577569e-002
4.438113e-002
4.309166e-002
4.190315e-002
4.081220e-002
3.981589e-002
3.891167e-002
3.809743e-002
3.737170e-002
3.673385e-002
3.618442e-002
3.572545e-002
3.536080e-002
3.509662e-002
3.494177e-002
3.490845e-002
3.501295e-002
3.527662e-002
3.572712e-002
3.640017e-002
3.734183e-002
3.861146e-002
4.028578e-002
4.246410e-002
4.527482e-002
4.888297e-002
5.349696e-002
5.937008e-002
6.678699e-002
7.601637e-002
8.719978e-002
1.001397e-001
1.139752e-001
1.268524e-001
1.359985e-001
1.389511e-001
1.359528e-001
1.301220e-001
1.221878e-001
1.083026e-001
8.701116e-002
6.275579e-002
4.144318e-002
2.622503e-002
1.707664e-002
1.236155e-002
1.027881e-002
9.515686e-003
9.313746e-003
9.306846e-003
9.346200e-003
9.382952e-003
9.406466e-003
9.417317e-003
9.438501e-003
9.437586e-003
9.435320e-003
9.430697e-003
9.421870e-003
9.405837e-003
9.378426e-003
9.335712e-003
9.280045e-003
9.238179e-003
9.306185e-003
9.742638e-003
1.112538e-002
1.454074e-002
2.165664e-002
3.436500e-002
5.365341e-002
7.788061e-002
1.018928e-001
1.193760e-001
1.283309e-001
1.327406e-001
1.357303e-001
1.355380e-001
1.301240e-001
1.202651e-001
1.082185e-001
9.598809e-002
8.475581e-002
7.500321e-002
6.678953e-002
5.997324e-002
5.434426e-002
4.968988e-002
4.582164e-002
4.258261e-002
3.984588e-002
3.751022e-002
3.549534e-002
3.373792e-002
3.218832e-002
3.080801e-002
2.956752e-002
2.844458e-002
2.742260e-002
2.648934e-002
2.563573e-002
2.485496e-002
2.414175e-002
2.349180e-002
2.290149e-002
2.236765e-002
2.188748e-002
2.145857e-002
2.107901e-002
2.074741e-002
2.046314e-002
2.022642e-002
2.003852e-002
1.990197e-002
1.982082e-002
1.980097e-002
1.985066e-002
1.998104e-002
2.020711e-002
2.054887e-002
2.103314e-002
2.169598e-002
2.258634e-002
2.377137e-002
2.534407e-002
2.743442e-002
3.022470e-002
3.396905e-002
3.901453e-002
4.581397e-002
5.490650e-002
6.681679e-002
8.179415e-002
9.931132e-002
1.173712e-001
1.321193e-001
1.390905e-001
1.371584e-001
1.307133e-001
1.221099e-001
1.067581e-001
8.332364e-002
5.783399e-002
3.683455e-002
2.286974e-002
1.507757e-002
1.136755e-002
9.872152e-003
9.391205e-003
9.299492e-003
9.323688e-003
9.364405e-003
9.393865e-003
9.408083e-003
9.437694e-003
9.436420e-003
9.433289e-003
9.426962e-003
9.415035e-003
9.393767e-003
9.358518e-003
9.306975e-003
9.250700e-003
9.247392e-003
9.476249e-003
1.038405e-002
1.290517e-002
1.865887e-002
2.981964e-002
4.815401e-002
7.298338e-002
9.924083e-002
1.190005e-001
1.286945e-001
1.332509e-001
1.360703e-001
1.333710e-001
1.229314e-001
1.074238e-001
9.076279e-002
7.556376e-002
6.289042e-002
5.282693e-002
4.502381e-002
3.902134e-002
3.439475e-002
3.079984e-002
2.797436e-002
2.572417e-002
2.390702e-002
2.241871e-002
2.118237e-002
2.014083e-002
1.925125e-002
1.848144e-002
1.780723e-002
1.721052e-002
1.667789e-002
1.619940e-002
1.576770e-002
1.537730e-002
1.502403e-002
1.470457e-002
1.441622e-002
1.415668e-002
1.392393e-002
1.371619e-002
1.353192e-002
1.336982e-002
1.322890e-002
1.310853e-002
1.300846e-002
1.292893e-002
1.287075e-002
1.283540e-002
1.282519e-002
1.284350e-002
1.289505e-002
1.298637e-002
1.312647e-002
1.332778e-002
1.360762e-002
1.399044e-002
1.451133e-002
1.522150e-002
1.619707e-002
1.755292e-002
1.946401e-002
2.219687e-002
2.615177e-002
3.190842e-002
4.024726e-002
5.207584e-002
6.812734e-002
8.826177e-002
1.103504e-001
1.293986e-001
1.389864e-001
1.371707e-001
1.300445e-001
1.202684e-001
1.020969e-001
7.610887e-002
5.033873e-002
3.097077e-002
1.917457e-002
1.313801e-002
1.051532e-002
9.570928e-003
9.321174e-003
9.305786e-003
9.344156e-003
9.378732e-003
9.396531e-003
9.436650e-003
9.434937e-003
9.430751e-003
9.422371e-003
9.406782e-003
9.379556e-003
9.336139e-003
9.278060e-003
9.233032e-003
9.307935e-003
9.805843e-003
1.143632e-002
1.558838e-002
2.444994e-002
4.044408e-002
6.434411e-002
9.243339e-002
1.159549e-001
1.280652e-001
1.329118e-001
1.357858e-001
1.316286e-001
1.173346e-001
9.725536e-002
7.705222e-002
5.995587e-002
4.682304e-002
3.725108e-002
3.044058e-002
2.561995e-002
2.218355e-002
1.969811e-002
1.786709e-002
1.649101e-002
1.543590e-002
1.461105e-002
1.395417e-002
1.342177e-002
1.298291e-002
1.261532e-002
1.230275e-002
1.203332e-002
1.179832e-002
1.159136e-002
1.140776e-002
1.124408e-002
1.109773e-002
1.096674e-002
1.084953e-002
1.074481e-002
1.065146e-002
1.056851e-002
1.049509e-002
1.043047e-002
1.037399e-002
1.032512e-002
1.028349e-002
1.024887e-002
1.022120e-002
1.020064e-002
1.018758e-002
1.018271e-002
1.018712e-002
1.020239e-002
1.023079e-002
1.027555e-002
1.034129e-002
1.043468e-002
1.056552e-002
1.074849e-002
1.100615e-002
1.137404e-002
1.190953e-002
1.270709e-002
1.392435e-002
1.582470e-002
1.884195e-002
2.366371e-002
3.130114e-002
4.304469e-002
6.009553e-002
8.258542e-002
1.079282e-001
1.295414e-001
1.392339e-001
1.359619e-001
1.281498e-001
1.161142e-001
9.377185e-002
6.576024e-002
4.130174e-002
2.483889e-002
1.576197e-002
1.154588e-002
9.900109e-003
9.390700e-003
9.298943e-003
9.324045e-003
9.361415e-003
9.382615e-003
9.435362e-003
9.433129e-003
9.427705e-003
9.416945e-003
9.397205e-003
9.363539e-003
9.312355e-003
9.252113e-003
9.235619e-003
9.440962e-003
1.034055e-002
1.297950e-002
1.926598e-002
3.187304e-002
5.296517e-002
8.122898e-002
1.090480e-001
1.260617e-001
1.319851e-001
1.351465e-001
1.317265e-001
1.158709e-001
9.241929e-002
6.910396e-002
5.025453e-002
3.672559e-002
2.765299e-002
2.177016e-002
1.799041e-002
1.554203e-002
1.392492e-002
1.282901e-002
1.206509e-002
1.151740e-002
1.111414e-002
1.080982e-002
1.057494e-002
1.038983e-002
1.024108e-002
1.011936e-002
1.001807e-002
9.932485e-003
9.859219e-003
9.795827e-003
9.740539e-003
9.692058e-003
9.649419e-003
9.611875e-003
9.578830e-003
9.549783e-003
9.524306e-003
9.502018e-003
9.482580e-003
9.465693e-003
9.451092e-003
9.438552e-003
9.427887e-003
9.418960e-003
9.411682e-003
9.406021e-003
9.402006e-003
9.399743e-003
9.399440e-003
9.401440e-003
9.406280e-003
9.414775e-003
9.428160e-003
9.448321e-003
9.478197e-003
9.522479e-003
9.588880e-003
9.690502e-003
9.850310e-003
1.010971e-002
1.054493e-002
1.129773e-002
1.263051e-002
1.501705e-002
1.927010e-002
2.666334e-002
3.889663e-002
5.757488e-002
8.277034e-002
1.107056e-001
1.325015e-001
1.391591e-001
1.335088e-001
1.248690e-001
1.084610e-001
8.155802e-002
5.336599e-002
3.207027e-002
1.935194e-002
1.305268e-002
1.042669e-002
9.529141e-003
9.311090e-003
9.306640e-003
9.342597e-003
9.366464e-003
9.433837e-003
9.431013e-003
9.424189e-003
9.410771e-003
9.386518e-003
9.346248e-003
9.288515e-003
9.232504e-003
9.266403e-003
9.663216e-003
1.110907e-002
1.504221e-002
2.389709e-002
4.061109e-002
6.640423e-002
9.690663e-002
1.209706e-001
1.307803e-001
1.339727e-001
1.331860e-001
1.191048e-001
9.394252e-002
6.750342e-002
4.623745e-002
3.161933e-002
2.249462e-002
1.710918e-002
1.401106e-002
1.223176e-002
1.119272e-002
1.056802e-002
1.017873e-002
9.926833e-003
9.757839e-003
9.640678e-003
9.557055e-003
9.495823e-003
9.449952e-003
9.414871e-003
9.387525e-003
9.365833e-003
9.348357e-003
9.334091e-003
9.322329e-003
9.312569e-003
9.304449e-003
9.297702e-003
9.292120e-003
9.287534e-003
9.283796e-003
9.280776e-003
9.278358e-003
9.276434e-003
9.274908e-003
9.273688e-003
9.272691e-003
9.271838e-003
9.271061e-003
9.270296e-003
9.269484e-003
9.268571e-003
9.267505e-003
9.266239e-003
9.264736e-003
9.262980e-003
9.260982e-003
9.258808e-003
9.256627e-003
9.254803e-003
9.254087e-003
9.256010e-003
9.263723e-003
9.283807e-003
9.330201e-003
9.432743e-003
9.655350e-003
1.013339e-002
1.114581e-002
1.324058e-002
1.741639e-002
2.529205e-002
3.901745e-002
6.041411e-002
8.879793e-002
1.180091e-001
1.364926e-001
1.374732e-001
1.301578e-001
1.189806e-001
9.608708e-002
6.632273e-002
4.064922e-002
2.392716e-002
1.509434e-002
1.119152e-002
9.757019e-003
9.350776e-003
9.295028e-003
9.323259e-003
9.348400e-003
9.432106e-003
9.428632e-003
9.420279e-003
9.404003e-003
9.375037e-003
9.328351e-003
9.266033e-003
9.222131e-003
9.330749e-003
9.982231e-003
1.211311e-002
1.758553e-002
2.929970e-002
5.012685e-002
7.963748e-002
1.099292e-001
1.280989e-001
1.326896e-001
1.340586e-001
1.254313e-001
1.016557e-001
7.248487e-002
4.771587e-002
3.071902e-002
2.054981e-002
1.499519e-002
1.213297e-002
1.070476e-002
9.999178e-003
9.647611e-003
9.468541e-003
9.374671e-003
9.324076e-003
9.296293e-003
9.281026e-003
9.272896e-003
9.268970e-003
9.267583e-003
9.267751e-003
9.268879e-003
9.270598e-003
9.272679e-003
9.274977e-003
9.277399e-003
9.279886e-003
9.282400e-003
9.284915e-003
9.287410e-003
9.289863e-003
9.292253e-003
9.294555e-003
9.296746e-003
9.298805e-003
9.300709e-003
9.302433e-003
9.303950e-003
9.305229e-003
9.306238e-003
9.306941e-003
9.307295e-003
9.307247e-003
9.306730e-003
9.305660e-003
9.303935e-003
9.301428e-003
9.297976e-003
9.293368e-003
9.287331e-003
9.279516e-003
9.269494e-003
9.256788e-003
9.241023e-003
9.222431e-003
9.203252e-003
9.191447e-003
9.209984e-003
9.318844e-003
9.663829e-003
1.057542e-002
1.274401e-002
1.746622e-002
2.682962e-002
4.341400e-002
6.875508e-002
1.001320e-001
1.276289e-001