# vtk DataFile Version 3.0
vtk output
ASCII
DATASET STRUCTURED_POINTS
DIMENSIONS 100 100 1
SPACING 1 1 1
ORIGIN 0 0 0
POINT_DATA 10000
SCALARS SFBox_profile double
LOOKUP_TABLE default 
0.000000e+000
0.000000e+000
0.000000e+000
0.000000e+000
0.000000e+000
0.000000e+000
0.000000e+000
0.000000e+000
0.000000e+000
0.000000e+000
0.000000e+000
0.000000e+000
0.000000e+000
0.000000e+000
0.000000e+000
0.000000e+000
0.000000e+000
0.000000e+000
0.000000e+000
0.000000e+000
0.000000e+000
0.000000e+000
0.000000e+000
0.000000e+000
0.000000e+000
0.000000e+000
0.000000e+000
0.000000e+000
0.000000e+000
0.000000e+000
0.000000e+000
0.000000e+000
0.000000e+000
0.000000e+000
0.000000e+000
0.000000e+000
0.000000e+000
0.000000e+000
0.000000e+000
0.000000e+000
0.000000e+000
0.000000e+000
0.000000e+000
0.000000e+000
0.000000e+000
0.000000e+000
0.000000e+000
0.000000e+000
0.000000e+000
0.000000e+000
0.000000e+000
0.000000e+000
0.000000e+000
0.000000e+000
0.000000e+000
0.000000e+000
0.000000e+000
0.000000e+000
0.000000e+000
0.000000e+000
0.000000e+000
0.000000e+000
0.000000e+000
0.000000e+000
0.000000e+000
0.000000e+000
0.000000e+000
0.000000e+000
0.000000e+000
0.000000e+000
0.000000e+000
0.000000e+000
0.000000e+000
0.000000e+000
0.000000e+000
0.000000e+000
0.000000e+000
0.000000e+000
0.000000e+000
0.000000e+000
0.000000e+000
0.000000e+000
0.000000e+000
0.000000e+000
0.000000e+000
0.000000e+000
0.000000e+000
0.000000e+000
0.000000e+000
0.000000e+000
0.000000e+000
0.000000e+000
0.000000e+000
0.000000e+000
0.000000e+000
0.000000e+000
0.000000e+000
0.000000e+000
0.000000e+000
0.000000e+000
3.905895e-009
2.689880e-009
8.294315e-010
-8.176081e-010
-1.566106e-009
-1.286715e-009
-4.352419e-010
3.252795e-010
6.154526e-010
5.302665e-010
3.986716e-010
3.957638e-010
4.013698e-010
2.010099e-010
-2.332276e-010
-6.826228e-010
-8.732312e-010
-7.044583e-010
-3.133393e-010
4.497642e-011
1.850163e-010
1.176865e-010
3.301256e-011
1.336836e-010
4.343681e-010
7.208861e-010
7.532693e-010
5.316784e-010
3.189937e-010
3.508882e-010
5.470014e-010
5.858938e-010
2.908561e-010
-1.315149e-010
-3.159179e-010
-1.751626e-010
-8.172235e-012
-1.278837e-010
-4.658040e-010
-6.557570e-010
-4.970119e-010
-2.075145e-010
-1.425657e-010
-3.437389e-010
-5.026000e-010
-3.809994e-010
-1.314346e-010
-9.433981e-011
-3.412442e-010
-5.705641e-010
-4.978922e-010
-2.279543e-010
-1.171432e-010
-3.062148e-010
-5.365903e-010
-4.890886e-010
-1.975288e-010
3.986877e-012
-7.576661e-011
-2.378422e-010
-1.635685e-010
1.585036e-010
4.119380e-010
3.630948e-010
1.633801e-010
1.485076e-010
3.975265e-010
6.242744e-010
5.404840e-010
2.221134e-010
1.058461e-011
7.792226e-011
2.098928e-010
8.124298e-011
-3.212442e-010
-6.515482e-010
-5.896996e-010
-1.955054e-010
1.774554e-010
2.803965e-010
2.012851e-010
1.833273e-010
2.848762e-010
3.024501e-010
4.230400e-011
-3.905075e-010
-6.345823e-010
-4.200220e-010
1.387476e-010
6.090927e-010
6.092420e-010
1.390300e-010
-4.200073e-010
-6.244785e-010
-3.297754e-010
2.044077e-010
5.379511e-010
4.116067e-010
-4.883056e-011
-4.464422e-010
3.959654e-010
2.481415e-010
1.872197e-011
-1.627823e-010
-1.686709e-010
1.013128e-011
2.189462e-010
2.571330e-010
6.808397e-011
-1.987245e-010
-3.297645e-010
-2.447762e-010
-4.540869e-011
1.120870e-010
1.609933e-010
1.438042e-010
1.307402e-010
1.512675e-010
1.887986e-010
2.019172e-010
1.449173e-010
5.086493e-012
-1.555065e-010
-2.241954e-010
-1.490705e-010
-2.272837e-011
-3.751130e-012
-1.278300e-010
-2.369048e-010
-1.499771e-010
1.071096e-010
3.094302e-010
2.999719e-010
1.932197e-010
2.417403e-010
5.137493e-010
7.913453e-010
8.354122e-010
6.887601e-010
6.237639e-010
7.927937e-010
1.031210e-009
1.072352e-009
8.970933e-010
7.602048e-010
8.571790e-010
1.068870e-009
1.120330e-009
9.440431e-010
7.676962e-010
8.112846e-010
9.951223e-010
1.044665e-009
8.520413e-010
6.159969e-010
5.776040e-010
7.034296e-010
7.336539e-010
5.279159e-010
2.509707e-010
1.561543e-010
2.552689e-010
3.084296e-010
1.431996e-010
-1.174021e-010
-2.137269e-010
-8.438445e-011
5.792229e-011
3.659294e-012
-1.838323e-010
-2.502693e-010
-7.467037e-011
1.759858e-010
2.498844e-010
1.098428e-010
-3.963490e-011
-1.603585e-011
1.221880e-010
1.631421e-010
1.269185e-011
-1.859820e-010
-2.198877e-010
-5.168361e-011
1.418707e-010
1.683167e-010
2.050871e-011
-1.330875e-010
-1.354088e-010
5.825675e-012
1.442784e-010
1.483585e-010
1.945823e-011
-1.241377e-010
-1.603374e-010
-6.393003e-011
8.192536e-011
1.589651e-010
1.076745e-010
-2.895927e-011
-1.416914e-010
-3.392717e-009
-2.351385e-009
-7.886759e-010
5.875129e-010
1.286305e-009
1.232891e-009
6.878332e-010
1.998505e-011
-4.917140e-010
-7.402546e-010
-7.600491e-010
-6.319407e-010
-3.965664e-010
-4.880179e-011
3.817629e-010
7.626056e-010
9.134241e-010
7.615291e-010
4.313480e-010
1.442690e-010
1.668716e-011
-2.438860e-011
-1.171751e-010
-2.874576e-010
-4.300574e-010
-4.550599e-010
-3.980205e-010
-3.537300e-010
-3.345279e-010
-2.515573e-010
-4.283356e-011
2.322343e-010
4.648951e-010
6.358701e-010
8.267197e-010
1.087099e-009
1.345403e-009
1.493799e-009
1.534382e-009
1.580448e-009
1.702075e-009
1.824890e-009
1.827693e-009
1.714999e-009
1.630341e-009
1.683010e-009
1.811999e-009
1.866614e-009
1.798333e-009
1.712849e-009
1.719075e-009
1.780748e-009
1.767379e-009
1.630985e-009
1.468510e-009
1.387527e-009
1.358228e-009
1.251231e-009
1.010402e-009
7.306872e-010
5.395272e-010
4.401405e-010
3.206037e-010
1.106201e-010
-1.225482e-010
-2.597196e-010
-2.779571e-010
-2.682151e-010
-3.076896e-010
-3.584318e-010
-3.187778e-010
-1.520446e-010
7.217068e-011
2.615622e-010
3.868518e-010
4.629817e-010
4.729197e-010
3.573764e-010
9.601384e-011
-2.254746e-010
-4.564349e-010
-4.915974e-010
-3.345039e-010
-6.714440e-011
2.105622e-010
4.021755e-010
4.166330e-010
2.122427e-010
-1.299335e-010
-4.034905e-010
-4.064530e-010
-1.175309e-010
2.535934e-010
4.195652e-010
2.541570e-010
-9.708156e-011
-3.395272e-010
-2.803035e-010
1.165672e-011
2.720293e-010
-4.059683e-009
-2.729854e-009
-7.738856e-010
8.453700e-010
1.481871e-009
1.127925e-009
3.014020e-010
-3.722146e-010
-5.678737e-010
-3.894373e-010
-1.706166e-010
-1.403664e-010
-2.360507e-010
-2.139133e-010
6.130191e-011
4.391022e-010
6.084616e-010
4.106392e-010
1.716829e-011
-2.246122e-010
-1.285065e-010
1.611896e-010
3.414738e-010
2.704585e-010
9.167440e-011
4.856374e-011
2.162041e-010
4.459163e-010
5.569328e-010
5.362177e-010
5.278056e-010
6.519398e-010
8.749816e-010
1.063454e-009
1.135391e-009
1.132302e-009
1.151438e-009
1.236404e-009
1.346341e-009
1.415908e-009
1.423693e-009
1.399972e-009
1.383694e-009
1.385543e-009
1.391541e-009
1.391453e-009
1.394282e-009
1.413944e-009
1.444372e-009
1.456729e-009
1.427495e-009
1.368035e-009
1.317957e-009
1.302907e-009
1.303091e-009
1.273009e-009
1.193284e-009
1.092244e-009
1.008390e-009
9.403138e-010
8.506221e-010
7.215235e-010
5.875166e-010
4.955321e-010
4.407900e-010
3.678663e-010
2.453531e-010
1.182750e-010
5.963799e-011
7.372097e-011
8.039750e-011
1.694297e-011
-6.428195e-011
-3.935366e-011
1.333615e-010
3.312138e-010
3.729636e-010
2.063707e-010
-3.729933e-011
-1.880977e-010
-2.112807e-010
-2.045810e-010
-2.304851e-010
-2.046073e-010
-6.155893e-013
3.386392e-010
5.525334e-010
3.858421e-010
-1.214484e-010
-5.964363e-010
-6.329915e-010
-1.663943e-010
4.381899e-010
6.853005e-010
3.750022e-010
-2.250929e-010
-6.111403e-010
-4.711701e-010
5.850662e-011
5.186442e-010
-1.188251e-009
-6.606365e-010
5.064229e-011
4.880023e-010
3.932353e-010
-1.082757e-010
-5.922620e-010
-6.463762e-010
-1.858355e-010
4.746076e-010
8.641094e-010
7.266297e-010
2.109152e-010
-2.822713e-010
-4.549332e-010
-3.437783e-010
-2.227865e-010
-2.883357e-010
-4.488622e-010
-4.294814e-010
-7.668906e-011
4.591156e-010
8.581618e-010
9.452032e-010
8.553123e-010
8.789698e-010
1.151594e-009
1.515382e-009
1.695096e-009
1.593218e-009
1.385277e-009
1.317767e-009
1.437337e-009
1.552024e-009
1.462538e-009
1.197014e-009
9.812473e-010
9.822335e-010
1.124988e-009
1.194114e-009
1.093669e-009
9.523824e-010
9.521692e-010
1.096667e-009
1.207691e-009
1.150819e-009
1.003029e-009
9.495469e-010
1.043108e-009
1.136316e-009
1.075885e-009
9.078745e-010
8.253308e-010
9.223441e-010
1.072634e-009
1.092734e-009
9.798162e-010
9.139077e-010
1.019261e-009
1.195773e-009
1.243708e-009
1.122355e-009
1.003820e-009
1.046208e-009
1.178861e-009
1.184250e-009
9.787290e-010
7.292802e-010
6.450741e-010
7.016453e-010
6.546183e-010
3.421956e-010
-9.349470e-011
-3.476789e-010
-2.944942e-010
-1.169622e-010
-7.003821e-011
-1.695700e-010
-1.892032e-010
3.099421e-011
3.443812e-010
4.304357e-010
1.603586e-010
-2.281396e-010
-3.609283e-010
-1.191666e-010
2.331364e-010
3.228066e-010
5.081415e-011
-3.110285e-010
-3.969713e-010
-1.077690e-010
2.979963e-010
4.521873e-010
2.145015e-010
-2.098507e-010
-4.588383e-010
-3.251735e-010
7.695276e-011
4.154706e-010
2.427940e-009
1.803426e-009
8.221368e-010
-1.491673e-010
-8.315046e-010
-1.101812e-009
-9.528748e-010
-4.547486e-010
2.287049e-010
8.348902e-010
1.094837e-009
8.942497e-010
3.654539e-010
-1.931422e-010
-5.201806e-010
-5.519306e-010
-4.134402e-010
-2.653211e-010
-1.535554e-010
4.169482e-012
2.946686e-010
6.796109e-010
1.002018e-009
1.137689e-009
1.139919e-009
1.207429e-009
1.479174e-009
1.864002e-009
2.109941e-009
2.067648e-009
1.863779e-009
1.769779e-009
1.893782e-009
2.051409e-009
1.984650e-009
1.682267e-009
1.410958e-009
1.402441e-009
1.571132e-009
1.618645e-009
1.407616e-009
1.139118e-009
1.101308e-009
1.299331e-009
1.439193e-009
1.295039e-009
9.953684e-010
8.599980e-010
9.952408e-010
1.168541e-009
1.122363e-009
9.152381e-010
8.430859e-010
1.045459e-009
1.316702e-009
1.373096e-009
1.225219e-009
1.163065e-009
1.369639e-009
1.669714e-009
1.746830e-009
1.548634e-009
1.351507e-009
1.397983e-009
1.577774e-009
1.568720e-009
1.258031e-009
8.992366e-010
7.976219e-010
9.212475e-010
9.318612e-010
5.999382e-010
8.757516e-011
-2.453754e-010
-2.607418e-010
-1.672704e-010
-2.133310e-010
-3.485285e-010
-2.842075e-010
1.188385e-010
6.120590e-010
7.702741e-010
4.245222e-010
-1.600290e-010
-5.405800e-010
-4.973027e-010
-1.739820e-010
1.268255e-010
2.290560e-010
1.693706e-010
7.111701e-011
7.179568e-013
-4.884916e-011
-8.745202e-011
-9.224982e-011
-4.586876e-011
2.202071e-011
5.669166e-011
3.894904e-011
6.286449e-012
3.589369e-009
2.401107e-009
6.992268e-010
-6.447939e-010
-1.126214e-009
-8.326889e-010
-2.334353e-010
2.185663e-010
3.478939e-010
2.500599e-010
1.135490e-010
4.997842e-011
4.708607e-011
4.260761e-011
2.825334e-011
7.681823e-011
2.601566e-010
5.440723e-010
7.889175e-010
8.784268e-010
8.419011e-010
8.212502e-010
9.108884e-010
1.061788e-009
1.170224e-009
1.233581e-009
1.357112e-009
1.588953e-009
1.807569e-009
1.841655e-009
1.691803e-009
1.553574e-009
1.575696e-009
1.649645e-009
1.524306e-009
1.127942e-009
6.820102e-010
4.321441e-010
3.260248e-010
6.968828e-011
-4.827481e-010
-1.105478e-009
-1.456448e-009
-1.503548e-009
-1.566927e-009
-1.903828e-009
-2.363630e-009
-2.565379e-009
-2.374999e-009
-2.063790e-009
-1.943569e-009
-1.960243e-009
-1.780617e-009
-1.253224e-009
-6.285863e-010
-2.451151e-010
-9.779787e-011
1.368482e-010
6.511147e-010
1.226578e-009
1.495944e-009
1.405085e-009
1.272539e-009
1.372032e-009
1.583546e-009
1.562613e-009
1.202197e-009
7.894718e-010
6.614818e-010
8.041175e-010
8.955532e-010
7.187668e-010
4.123215e-010
2.608498e-010
3.191070e-010
3.542973e-010
1.649428e-010
-1.414686e-010
-2.614999e-010
-5.413679e-011
2.892467e-010
4.479179e-010
2.913640e-010
-3.580030e-011
-3.007875e-010
-3.834586e-010
-2.939022e-010
-7.992130e-011
1.990524e-010
4.188898e-010
4.082256e-010
1.024695e-010
-3.207937e-010
-5.285479e-010
-3.198766e-010
1.568100e-010
5.003369e-010
4.086096e-010
-3.888349e-011
-4.428889e-010
1.668233e-009
8.313194e-010
-2.272596e-010
-7.663039e-010
-4.836024e-010
2.946579e-010
9.095360e-010
8.753384e-010
2.081111e-010
-6.282609e-010
-1.079357e-009
-8.914741e-010
-2.585213e-010
3.782721e-010
7.101593e-010
7.875789e-010
8.873490e-010
1.165761e-009
1.474814e-009
1.547675e-009
1.337993e-009
1.106568e-009
1.138868e-009
1.422154e-009
1.667219e-009
1.642193e-009
1.406381e-009
1.169630e-009
9.824243e-010
6.657421e-010
5.689776e-011
-7.757658e-010
-1.643822e-009
-2.515193e-009
-3.562670e-009
-4.906828e-009
-6.411099e-009
-7.830554e-009
-9.125139e-009
-1.049772e-008
-1.207847e-008
-1.367601e-008
-1.495558e-008
-1.583237e-008
-1.655397e-008
-1.734141e-008
-1.805478e-008
-1.833604e-008
-1.805226e-008
-1.745442e-008
-1.683844e-008
-1.615910e-008
-1.511186e-008
-1.357220e-008
-1.180413e-008
-1.016027e-008
-8.676020e-009
-7.097264e-009
-5.297831e-009
-3.524752e-009
-2.143693e-009
-1.220810e-009
-4.860556e-010
2.862534e-010
9.844636e-010
1.326288e-009
1.250128e-009
1.020028e-009
9.262885e-010
9.826778e-010
9.936350e-010
8.644966e-010
7.306375e-010
7.533981e-010
8.776976e-010
8.779693e-010
6.258353e-010
2.341612e-010
-8.384978e-011
-2.331035e-010
-2.632553e-010
-2.253571e-010
-1.010954e-010
9.591706e-011
2.293953e-010
1.503190e-010
-9.441811e-011
-2.452401e-010
-9.347234e-011
2.511055e-010
4.246291e-010
1.838736e-010
-3.012942e-010
-5.744550e-010
-3.365954e-010
2.378892e-010
6.395522e-010
4.922602e-010
-9.316285e-011
-6.108810e-010
-1.138623e-009
-1.140171e-009
-9.678608e-010
-4.672736e-010
2.907576e-010
9.881992e-010
1.244308e-009
8.712568e-010
3.018906e-011
-8.185578e-010
-1.171879e-009
-8.165414e-010
-7.486407e-013
7.395149e-010
1.011801e-009
8.868955e-010
7.836041e-010
1.015120e-009
1.470503e-009
1.779604e-009
1.767090e-009
1.655936e-009
1.768815e-009
2.081567e-009
2.173681e-009
1.645197e-009
5.016082e-010
-9.471069e-010
-2.525104e-009
-4.415562e-009
-6.915508e-009
-1.006285e-008
-1.361016e-008
-1.734079e-008
-2.128423e-008
-2.555903e-008
-3.009233e-008
-3.461729e-008
-3.894342e-008
-4.310936e-008
-4.720116e-008
-5.109865e-008
-5.451874e-008
-5.730306e-008
-5.954412e-008
-6.136386e-008
-6.264983e-008
-6.312537e-008
-6.266914e-008
-6.144576e-008
-5.966245e-008
-5.728314e-008
-5.409630e-008
-5.005170e-008
-4.541396e-008
-4.052990e-008
-3.552658e-008
-3.033934e-008
-2.501240e-008
-1.985003e-008
-1.521011e-008
-1.121551e-008
-7.755027e-009
-4.745799e-009
-2.292204e-009
-5.438755e-010
5.302680e-010
1.142821e-009
1.481307e-009
1.585737e-009
1.456868e-009
1.207884e-009
1.023161e-009
9.764947e-010
9.671691e-010
8.663829e-010
6.712848e-010
4.611466e-010
2.433393e-010
-5.599315e-011
-4.134666e-010
-6.051615e-010
-3.952919e-010
1.504567e-010
6.217288e-010
6.182171e-010
1.541692e-010
-3.386066e-010
-4.359739e-010
-1.290524e-010
2.088445e-010
2.346572e-010
-2.577184e-011
-2.490766e-010
-1.779806e-010
1.203444e-010
3.429454e-010
2.604899e-010
-6.757896e-011
-3.566882e-010
-2.296123e-009
-1.640745e-009
-6.677648e-010
1.652062e-010
5.631148e-010
5.356097e-010
3.038802e-010
8.136384e-011
-5.418329e-011
-9.979469e-011
-1.080072e-011
2.763320e-010
6.932395e-010
9.931831e-010
9.573630e-010
6.683375e-010
5.032954e-010
7.787040e-010
1.408455e-009
1.974633e-009
2.147674e-009
1.965125e-009
1.631740e-009
1.086097e-009
-1.210583e-010
-2.465566e-009
-6.034189e-009
-1.055744e-008
-1.584026e-008
-2.205048e-008
-2.951369e-008
-3.828428e-008
-4.802524e-008
-5.831901e-008
-6.899438e-008
-8.007511e-008
-9.146966e-008
-1.028359e-007
-1.137834e-007
-1.241206e-007
-1.338258e-007
-1.428175e-007
-1.508534e-007
-1.576727e-007
-1.631513e-007
-1.672522e-007
-1.698693e-007
-1.708106e-007
-1.699455e-007
-1.672918e-007
-1.629147e-007
-1.567959e-007
-1.488812e-007
-1.392565e-007
-1.282124e-007
-1.161147e-007
-1.032645e-007
-8.993170e-008
-7.648062e-008
-6.338003e-008
-5.106131e-008
-3.980823e-008
-2.980220e-008
-2.121370e-008
-1.417472e-008
-8.668110e-009
-4.518537e-009
-1.531361e-009
4.016222e-010
1.380803e-009
1.646384e-009
1.557161e-009
1.383709e-009
1.172778e-009
8.704257e-010
5.442955e-010
3.902801e-010
4.866300e-010
6.235378e-010
4.875253e-010
3.608111e-011
-3.875930e-010
-3.850771e-010
6.125765e-011
5.370556e-010
5.995957e-010
2.032373e-010
-2.925537e-010
-4.993774e-010
-3.377490e-010
-2.301658e-011
1.986948e-010
2.437000e-010
1.644889e-010
3.269164e-011
-1.001738e-010
-1.722277e-010
-1.251050e-010
2.252861e-011
1.545113e-010
-1.392100e-009
-5.774978e-010
4.203904e-010
8.430748e-010
4.103171e-010
-4.660287e-010
-1.037447e-009
-8.369825e-010
-2.238197e-011
8.357432e-010
1.278452e-009
1.282389e-009
1.125115e-009
1.028488e-009
1.001803e-009
9.989790e-010
1.101418e-009
1.435377e-009
1.913137e-009
2.147686e-009
1.683791e-009
2.757885e-010
-2.134077e-009
-5.705818e-009
-1.087582e-008
-1.816571e-008
-2.784208e-008
-3.984188e-008
-5.404452e-008
-7.052702e-008
-8.945790e-008
-1.107509e-007
-1.339151e-007
-1.582969e-007
-1.834259e-007
-2.090618e-007
-2.349297e-007
-2.605110e-007
-2.851554e-007
-3.083601e-007
-3.298721e-007
-3.495225e-007
-3.670230e-007
-3.819609e-007
-3.939490e-007
-4.027282e-007
-4.081285e-007
-4.099818e-007
-4.080957e-007
-4.022945e-007
-3.924734e-007
-3.786418e-007
-3.609521e-007
-3.396944e-007
-3.152590e-007
-2.881244e-007
-2.589084e-007
-2.284138e-007
-1.975595e-007
-1.672207e-007
-1.381384e-007
-1.109845e-007
-8.644167e-008
-6.510512e-008
-4.725129e-008
-3.274827e-008
-2.125572e-008
-1.250316e-008
-6.319915e-009
-2.405933e-009
-1.863025e-010
9.991233e-010
1.562940e-009
1.602509e-009
1.186636e-009
6.252344e-010
3.516016e-010
5.329857e-010
8.897607e-010
9.779103e-010
6.420106e-010
1.448308e-010
-1.406855e-010
-1.038060e-010
6.309292e-011
1.302041e-010
5.301435e-011
-6.675374e-011
-1.475439e-010
-1.790435e-010
-1.424943e-010
1.139513e-011
2.490627e-010
3.803401e-010
2.073335e-010
-2.156952e-010
-5.387188e-010
-4.226339e-010
8.964589e-011
5.594789e-010
-5.128816e-011
5.353539e-010
1.135701e-009
1.092670e-009
2.483363e-010
-8.676486e-010
-1.430531e-009
-9.890028e-010
1.604927e-010
1.231114e-009
1.609776e-009
1.329874e-009
9.456906e-010
9.791848e-010
1.491612e-009
2.140032e-009
2.547580e-009
2.530746e-009
1.965993e-009
5.201249e-010
-2.407283e-009
-7.481535e-009
-1.524367e-008
-2.615491e-008
-4.076534e-008
-5.973005e-008
-8.360071e-008
-1.126168e-007
-1.467175e-007
-1.857044e-007
-2.292979e-007
-2.770019e-007
-3.279819e-007
-3.811777e-007
-4.355789e-007
-4.903711e-007
-5.448110e-007
-5.980227e-007
-6.489977e-007
-6.968168e-007
-7.408346e-007
-7.806130e-007
-8.156914e-007
-8.454552e-007
-8.692323e-007
-8.864868e-007
-8.968859e-007
-9.001802e-007
-8.960450e-007
-8.840760e-007
-8.639735e-007
-8.357460e-007
-7.997364e-007
-7.564647e-007
-7.065057e-007
-6.505913e-007
-5.898477e-007
-5.258666e-007
-4.604623e-007
-3.953438e-007
-3.320372e-007
-2.720659e-007
-2.170242e-007
-1.682891e-007
-1.265944e-007
-9.193310e-008
-6.389823e-008
-4.205514e-008
-2.593463e-008
-1.475779e-008
-7.374550e-009
-2.621474e-009
2.611593e-010
1.624391e-009
1.792500e-009
1.337761e-009
9.071429e-010
8.262566e-010
9.665980e-010
1.019425e-009
8.417491e-010
5.175512e-010
1.753588e-010
-1.310450e-010
-3.518627e-010
-3.717952e-010
-1.253335e-010
2.334058e-010
3.913315e-010
1.872942e-010
-1.712162e-010
-2.914004e-010
-2.792480e-011
3.223357e-010
3.253001e-010
-9.310653e-011
-5.200114e-010
-4.758553e-010
5.629998e-011
5.779315e-010
2.889626e-010
4.795949e-010
6.599286e-010
5.902105e-010
2.098889e-010
-2.590105e-010
-4.448313e-010
-1.328259e-010
5.096765e-010
1.033606e-009
1.102354e-009
8.353572e-010
7.437719e-010
1.263557e-009
2.297038e-009
3.189806e-009
3.141284e-009
1.606313e-009
-1.732100e-009
-7.367548e-009
-1.629697e-008
-2.992102e-008
-4.964993e-008
-7.663837e-008
-1.118529e-007
-1.562394e-007
-2.106465e-007
-2.754918e-007
-3.505023e-007
-4.347814e-007
-5.270798e-007
-6.259585e-007
-7.297490e-007
-8.365206e-007
-9.442477e-007
-1.051074e-006
-1.155407e-006
-1.255794e-006
-1.350782e-006
-1.438994e-006
-1.519327e-006
-1.590996e-006
-1.653348e-006
-1.705625e-006
-1.746962e-006
-1.776588e-006
-1.793974e-006
-1.798728e-006
-1.790359e-006
-1.768219e-006
-1.731759e-006
-1.680850e-006
-1.615837e-006
-1.537307e-006
-1.445931e-006
-1.342675e-006
-1.229208e-006
-1.108028e-006
-9.821363e-007
-8.545958e-007
-7.284346e-007
-6.068375e-007
-4.931269e-007
-3.902589e-007
-3.001923e-007
-2.237108e-007
-1.607705e-007
-1.108735e-007
-7.305606e-008
-4.569949e-008
-2.666386e-008
-1.383506e-008
-5.611475e-009
-8.969460e-010
1.253334e-009
1.829992e-009
1.700386e-009
1.370024e-009
1.016922e-009
7.259363e-010
5.888084e-010
5.806155e-010
4.933109e-010
1.476337e-010
-3.240265e-010
-5.248691e-010
-2.100628e-010
3.797155e-010
6.948758e-010
4.248215e-010
-1.712780e-010
-5.257280e-010
-3.425872e-010
1.229302e-010
3.677877e-010
1.773436e-010
-1.827169e-010
-2.955878e-010
-5.645398e-011
2.357569e-010
3.331797e-013
-2.860126e-010
-5.352151e-010
-4.171086e-010
8.811344e-011
6.805925e-010
1.027233e-009
1.040196e-009
8.853033e-010
7.715551e-010
7.950578e-010
9.886022e-010
1.422656e-009
2.109504e-009
2.722609e-009
2.438507e-009
1.271890e-010
-5.302100e-009
-1.484280e-008
-2.977660e-008
-5.211508e-008
-8.456401e-008
-1.299517e-007
-1.906239e-007
-2.682802e-007
-3.641494e-007
-4.789932e-007
-6.127070e-007
-7.638881e-007
-9.298872e-007
-1.107357e-006
-1.292791e-006
-1.482665e-006
-1.673336e-006
-1.861132e-006
-2.042754e-006
-2.215600e-006
-2.377721e-006
-2.527514e-006
-2.663564e-006
-2.784760e-006
-2.890430e-006
-2.980205e-006
-3.053706e-006
-3.110389e-006
-3.149690e-006
-3.171216e-006
-3.174676e-006
-3.159604e-006
-3.125223e-006
-3.070664e-006
-2.995328e-006
-2.898984e-006
-2.781554e-006
-2.642990e-006
-2.483611e-006
-2.304696e-006
-2.108796e-006
-1.899536e-006
-1.681272e-006
-1.459036e-006
-1.238678e-006
-1.026635e-006
-8.291073e-007
-6.510896e-007
-4.958924e-007
-3.652236e-007
-2.593613e-007
-1.771204e-007
-1.158749e-007
-7.203287e-008
-4.185239e-008
-2.205258e-008
-9.906026e-009
-3.080968e-009
3.483454e-010
1.730876e-009
1.860065e-009
1.297193e-009
6.382431e-010
3.797081e-010
5.737394e-010
8.009367e-010
6.306979e-010
1.066432e-010
-2.970674e-010
-2.073938e-010
2.325344e-010
5.239571e-010
3.455215e-010
-1.355215e-010
-4.744560e-010
-4.031828e-010
-4.427899e-011
2.729741e-010
3.355557e-010
1.818415e-010
-1.555929e-011
-1.352318e-010
-1.734161e-010
4.262468e-010
-3.568038e-010
-1.162394e-009
-1.159791e-009
-1.987679e-010
1.064141e-009
1.770226e-009
1.619645e-009
1.081485e-009
8.956562e-010
1.392211e-009
2.269052e-009
2.915989e-009
2.780918e-009
1.301478e-009
-2.504345e-009
-1.030230e-008
-2.433209e-008
-4.723168e-008
-8.217660e-008
-1.331926e-007
-2.050726e-007
-3.026173e-007
-4.296272e-007
-5.883121e-007
-7.792484e-007
-1.001396e-006
-1.251798e-006
-1.525278e-006
-1.814761e-006
-2.112303e-006
-2.410200e-006
-2.701507e-006
-2.980042e-006
-3.240463e-006
-3.478699e-006
-3.692351e-006
-3.880567e-006
-4.043462e-006
-4.181602e-006
-4.295931e-006
-4.387885e-006
-4.459274e-006
-4.511902e-006
-4.547259e-006
-4.566566e-006
-4.570953e-006
-4.561411e-006
-4.538443e-006
-4.501752e-006
-4.450265e-006
-4.382354e-006
-4.295897e-006
-4.188086e-006
-4.055385e-006
-3.894023e-006
-3.700904e-006
-3.474425e-006
-3.214924e-006
-2.925000e-006
-2.609963e-006
-2.278154e-006
-1.940543e-006
-1.609431e-006
-1.296757e-006
-1.012717e-006
-7.648760e-007
-5.575590e-007
-3.915081e-007
-2.641251e-007
-1.704664e-007
-1.045599e-007
-6.038306e-008
-3.230622e-008
-1.536310e-008
-5.636604e-009
-5.190045e-010
1.543710e-009
1.697234e-009
1.089973e-009
6.752255e-010
7.698647e-010
1.030601e-009
9.815664e-010
5.491057e-010
6.841809e-011
-1.388514e-010
-7.439636e-011
3.982864e-011
5.015280e-011
-2.140175e-011
-9.304166e-011
-1.287177e-010
-1.099478e-010
7.572990e-013
1.886283e-010
3.159226e-010
2.200122e-010
-8.429581e-011
-3.587716e-010
1.767928e-009
7.119131e-010
-5.408789e-010
-9.949301e-010
-3.492893e-010
7.885718e-010
1.505554e-009
1.453917e-009
1.159019e-009
1.447649e-009
2.542274e-009
3.691435e-009
3.612520e-009
1.128058e-009
-4.826794e-009
-1.593216e-008
-3.525434e-008
-6.739990e-008
-1.181400e-007
-1.940679e-007
-3.024686e-007
-4.509069e-007
-6.460436e-007
-8.919455e-007
-1.188733e-006
-1.532096e-006
-1.913456e-006
-2.320350e-006
-2.737115e-006
-3.146314e-006
-3.530890e-006
-3.876245e-006
-4.171388e-006
-4.409108e-006
-4.585813e-006
-4.701526e-006
-4.759772e-006
-4.766890e-006
-4.730843e-006
-4.660169e-006
-4.563528e-006
-4.449677e-006
-4.327340e-006
-4.204828e-006
-4.089705e-006
-3.988756e-006
-3.908124e-006
-3.853197e-006
-3.828086e-006
-3.834950e-006
-3.873503e-006
-3.940720e-006
-4.030499e-006
-4.133219e-006
-4.235568e-006
-4.321109e-006
-4.371663e-006
-4.369180e-006
-4.297836e-006
-4.146333e-006
-3.910276e-006
-3.593953e-006
-3.210663e-006
-2.781235e-006
-2.331129e-006
-1.886902e-006
-1.472605e-006
-1.106644e-006
-7.998024e-007
-5.550455e-007
-3.690247e-007
-2.343593e-007
-1.416651e-007
-8.101593e-008
-4.313275e-008
-2.043581e-008
-7.579904e-009
-1.128283e-009
1.303542e-009
1.651936e-009
1.376045e-009
1.185788e-009
1.111963e-009
9.590897e-010
6.775213e-010
3.567036e-010
5.243410e-011
-2.189302e-010
-3.585964e-010
-2.259669e-010
1.309045e-010
3.977491e-010
2.855014e-010
-1.093025e-010
-3.597364e-010
-1.858141e-010
2.028088e-010
3.423930e-010
6.963721e-011
-2.795715e-010
2.462207e-009
1.700223e-009
6.591085e-010
-2.307810e-011
-7.227401e-012
5.113222e-010
1.033392e-009
1.291704e-009
1.548162e-009
2.245288e-009
3.253912e-009
3.436065e-009
9.140525e-010
-6.420130e-009
-2.101221e-008
-4.661216e-008
-8.937125e-008
-1.581296e-007
-2.637104e-007
-4.177867e-007
-6.317137e-007
-9.149693e-007
-1.272665e-006
-1.702434e-006
-2.191957e-006
-2.718375e-006
-3.249828e-006
-3.748552e-006
-4.174872e-006
-4.491715e-006
-4.669057e-006
-4.687286e-006
-4.538568e-006
-4.226239e-006
-3.763097e-006
-3.169443e-006
-2.471039e-006
-1.696815e-006
-8.765058e-007
-3.883887e-008
7.893043e-007
1.582981e-006
2.319087e-006
2.976348e-006
3.535291e-006
3.978043e-006
4.288125e-006
4.450616e-006
4.452926e-006
4.286037e-006
3.945937e-006
3.435083e-006
2.763969e-006
1.952758e-006
1.032556e-006
4.565624e-008
-9.557496e-007
-1.912583e-006
-2.763650e-006
-3.452050e-006
-3.932574e-006
-4.178698e-006
-4.187324e-006
-3.979864e-006
-3.599121e-006
-3.102368e-006
-2.551821e-006
-2.004605e-006
-1.504823e-006
-1.079726e-006
-7.402842e-007
-4.846602e-007
-3.026429e-007
-1.797838e-007
-1.008637e-007
-5.246505e-008
-2.427459e-008
-9.033562e-009
-1.728485e-009
1.133389e-009
1.832172e-009
1.627059e-009
1.131647e-009
7.057374e-010
5.444162e-010
5.517565e-010
4.161499e-010
-9.043414e-013
-4.047025e-010
-3.521509e-010
1.806561e-010
6.602467e-010
5.441222e-010
-8.851811e-011
-5.948786e-010
-4.850616e-010
3.997715e-011
3.635643e-010
1.936548e-010
-1.337380e-010
1.003660e-009
1.172467e-009
1.242943e-009
1.048357e-009
7.764925e-010
7.829611e-010
1.212195e-009
1.896838e-009
2.577949e-009
2.997489e-009
2.541077e-009
-3.145160e-010
-8.282092e-009
-2.529866e-008
-5.687686e-008
-1.110931e-007
-1.996600e-007
-3.380375e-007
-5.439880e-007
-8.347673e-007
-1.223300e-006
-1.713307e-006
-2.293485e-006
-2.932008e-006
-3.573853e-006
-4.143215e-006
-4.551389e-006
-4.708273e-006
-4.534667e-006
-3.972802e-006
-2.993393e-006
-1.598174e-006
1.821848e-007
2.293762e-006
4.666826e-006
7.223266e-006
9.883056e-006
1.256942e-005
1.521250e-005
1.775130e-005
2.013382e-005
2.231616e-005
2.426091e-005
2.593566e-005
2.731143e-005
2.836141e-005
2.905991e-005
2.938199e-005
2.930388e-005
2.880429e-005
2.786661e-005
2.648187e-005
2.465254e-005
2.239713e-005
1.975532e-005
1.679254e-005
1.360286e-005
1.030855e-005
7.055020e-006
4.000020e-006
1.297329e-006
-9.229544e-007
-2.573703e-006
-3.625015e-006
-4.109244e-006
-4.114394e-006
-3.766447e-006
-3.204932e-006
-2.558524e-006
-1.927318e-006
-1.375247e-006
-9.319609e-007
-6.006974e-007
-3.682509e-007
-2.141257e-007
-1.172229e-007
-5.950970e-008
-2.714762e-008
-1.022610e-008
-2.130106e-009
1.138497e-009
1.814776e-009
1.291849e-009
6.364603e-010
4.784456e-010
7.380100e-010
8.460339e-010
4.454311e-010
-1.611401e-010
-3.581631e-010
3.542411e-011
5.221830e-010
4.963086e-010
-5.020477e-011
-5.299544e-010
-4.552408e-010
1.644539e-011
3.202431e-010
1.769247e-010
-1.149571e-010
-1.927406e-009
-6.281161e-010
9.197168e-010
1.674974e-009
1.583254e-009
1.466186e-009
2.036647e-009
3.129649e-009
3.817794e-009
2.952412e-009
-8.145239e-010
-9.847199e-009
-2.864949e-008
-6.471662e-008
-1.291663e-007
-2.374682e-007
-4.099511e-007
-6.708724e-007
-1.044646e-006
-1.548501e-006
-2.181812e-006
-2.913470e-006
-3.670192e-006
-4.330427e-006