# vtk DataFile Version 3.0
vtk output
ASCII
DATASET STRUCTURED_POINTS
DIMENSIONS 100 100 1
SPACING 1 1 1
ORIGIN 0 0 0
POINT_DATA 10000
SCALARS SFBox_profile double
LOOKUP_TABLE default 
0.000000e+000
0.000000e+000
0.000000e+000
0.000000e+000
0.000000e+000
0.000000e+000
0.000000e+000
0.000000e+000
0.000000e+000
0.000000e+000
0.000000e+000
0.000000e+000
0.000000e+000
0.000000e+000
0.000000e+000
0.000000e+000
0.000000e+000
0.000000e+000
0.000000e+000
0.000000e+000
0.000000e+000
0.000000e+000
0.000000e+000
0.000000e+000
0.000000e+000
0.000000e+000
0.000000e+000
0.000000e+000
0.000000e+000
0.000000e+000
0.000000e+000
0.000000e+000
0.000000e+000
0.000000e+000
0.000000e+000
0.000000e+000
0.000000e+000
0.000000e+000
0.000000e+000
0.000000e+000
0.000000e+000
0.000000e+000
0.000000e+000
0.000000e+000
0.000000e+000
0.000000e+000
0.000000e+000
0.000000e+000
0.000000e+000
0.000000e+000
0.000000e+000
0.000000e+000
0.000000e+000
0.000000e+000
0.000000e+000
0.000000e+000
0.000000e+000
0.000000e+000
0.000000e+000
0.000000e+000
0.000000e+000
0.000000e+000
0.000000e+000
0.000000e+000
0.000000e+000
0.000000e+000
0.000000e+000
0.000000e+000
0.000000e+000
0.000000e+000
0.000000e+000
0.000000e+000
0.000000e+000
0.000000e+000
0.000000e+000
0.000000e+000
0.000000e+000
0.000000e+000
0.000000e+000
0.000000e+000
0.000000e+000
0.000000e+000
0.000000e+000
0.000000e+000
0.000000e+000
0.000000e+000
0.000000e+000
0.000000e+000
0.000000e+000
0.000000e+000
0.000000e+000
0.000000e+000
0.000000e+000
0.000000e+000
0.000000e+000
0.000000e+000
0.000000e+000
0.000000e+000
0.000000e+000
0.000000e+000
-2.657274e-009
-9.746434e-010
1.191377e-009
2.444437e-009
2.090136e-009
5.084036e-010
-1.204145e-009
-2.022798e-009
-1.639365e-009
-5.323940e-010
5.149700e-010
1.017270e-009
1.030853e-009
9.057169e-010
8.423152e-010
6.913668e-010
1.695821e-010
-7.497911e-010
-1.681452e-009
-2.083048e-009
-1.691202e-009
-7.309779e-010
2.887145e-010
9.865336e-010
1.341479e-009
1.564177e-009
1.786402e-009
1.902025e-009
1.700738e-009
1.121354e-009
3.452843e-010
-3.571264e-010
-8.510122e-010
-1.201616e-009
-1.539195e-009
-1.893467e-009
-2.172650e-009
-2.283493e-009
-2.239712e-009
-2.142694e-009
-2.074672e-009
-2.032731e-009
-1.965252e-009
-1.848971e-009
-1.712723e-009
-1.594481e-009
-1.498885e-009
-1.406993e-009
-1.313230e-009
-1.232822e-009
-1.172863e-009
-1.116114e-009
-1.048429e-009
-9.932307e-010
-9.965778e-010
-1.070037e-009
-1.164866e-009
-1.223662e-009
-1.256136e-009
-1.339807e-009
-1.526943e-009
-1.760285e-009
-1.908403e-009
-1.897809e-009
-1.793110e-009
-1.719017e-009
-1.698848e-009
-1.597203e-009
-1.252901e-009
-6.705476e-010
-5.361481e-011
3.765328e-010
5.897404e-010
7.509898e-010
1.002378e-009
1.258132e-009
1.251558e-009
8.089117e-010
7.104884e-011
-5.811643e-010
-8.427085e-010
-7.336040e-010
-5.341680e-010
-4.751219e-010
-4.992509e-010
-3.385977e-010
1.673614e-010
8.319052e-010
1.210407e-009
9.590929e-010
1.496812e-010
-7.392265e-010
-1.154812e-009
-8.614816e-010
-9.321833e-011
6.285098e-010
8.561885e-010
4.969347e-010
-1.592568e-010
-6.522908e-010
-5.278334e-010
-1.585005e-010
2.996886e-010
5.212430e-010
3.582939e-010
-5.904931e-011
-4.170335e-010
-4.493094e-010
-1.397323e-010
2.623984e-010
4.377126e-010
2.532607e-010
-1.314797e-010
-4.023948e-010
-3.558452e-010
-5.929730e-011
2.313827e-010
3.132389e-010
2.062595e-010
9.721704e-011
1.263235e-010
2.374100e-010
2.406569e-010
1.682450e-011
-3.501792e-010
-6.456860e-010
-7.211940e-010
-6.131177e-010
-4.726526e-010
-3.961832e-010
-3.389419e-010
-1.906632e-010
8.512639e-011
4.033631e-010
6.431052e-010
7.621394e-010
8.173291e-010
8.829859e-010
9.689292e-010
1.024754e-009
1.009888e-009
9.408071e-010
8.675714e-010
8.192941e-010
7.853035e-010
7.442628e-010
6.950692e-010
6.519939e-010
6.204336e-010
5.926053e-010
5.675688e-010
5.610034e-010
5.844172e-010
6.215458e-010
6.414151e-010
6.396530e-010
6.537113e-010
7.217853e-010
8.282769e-010
9.072142e-010
9.116609e-010
8.712919e-010
8.620215e-010
9.120694e-010
9.531592e-010
8.846809e-010
6.881646e-010
4.603831e-010
3.166729e-010
2.657081e-010
1.996622e-010
2.028687e-011
-2.350950e-010
-4.133603e-010
-3.999335e-010
-2.438045e-010
-1.135083e-010
-1.247473e-010
-2.215692e-010
-2.395716e-010
-8.701086e-011
1.462635e-010
2.680000e-010
1.723820e-010
-5.155477e-011
-1.992574e-010
-1.385388e-010
7.421316e-011
2.524963e-010
2.478466e-010
7.006804e-011
-1.380552e-010
-2.302953e-010
-1.675812e-010
-2.461757e-011
8.972202e-011
1.153642e-010
6.458809e-011
-1.036634e-011
-6.040489e-011
2.026257e-009
7.942173e-010
-8.075879e-010
-1.784196e-009
-1.639241e-009
-6.057665e-010
6.197200e-010
1.380405e-009
1.419423e-009
8.937501e-010
1.343605e-010
-5.918563e-010
-1.143269e-009
-1.422867e-009
-1.318295e-009
-7.623987e-010
1.489132e-010
1.127598e-009
1.818184e-009
1.987775e-009
1.628779e-009
9.075673e-010
3.158250e-011
-8.414595e-010
-1.602371e-009
-2.150999e-009
-2.394151e-009
-2.289542e-009
-1.878884e-009
-1.264802e-009
-5.520992e-010
1.889331e-010
9.116322e-010
1.565298e-009
2.093899e-009
2.463638e-009
2.683217e-009
2.790309e-009
2.819093e-009
2.783652e-009
2.689337e-009
2.551053e-009
2.394361e-009
2.240857e-009
2.097817e-009
1.962734e-009
1.833359e-009
1.710708e-009
1.596233e-009
1.492117e-009
1.405020e-009
1.344362e-009
1.313427e-009
1.305363e-009
1.313541e-009
1.345812e-009
1.421948e-009
1.551866e-009
1.718869e-009
1.890642e-009
2.047647e-009
2.194009e-009
2.334566e-009
2.444486e-009
2.471124e-009
2.371095e-009
2.141747e-009
1.811036e-009
1.400483e-009
9.100872e-010
3.470374e-010
-2.371222e-010
-7.515650e-010
-1.115249e-009
-1.297254e-009
-1.305102e-009
-1.142918e-009
-8.017535e-010
-3.051478e-010
2.431380e-010
6.809386e-010
8.800609e-010
8.260527e-010
6.050633e-010
3.130465e-010
-1.255046e-011
-3.633907e-010
-6.722868e-010
-7.852028e-010
-5.610727e-010
-2.857895e-011
5.561820e-010
8.418839e-010
6.283214e-010
3.509105e-011
-5.548830e-010
-7.518735e-010
-4.324000e-010
1.718009e-010
6.351021e-010
2.981267e-009
1.090632e-009
-1.315880e-009
-2.668734e-009
-2.242149e-009
-5.283932e-010
1.243465e-009
2.020606e-009
1.580485e-009
4.973161e-010
-4.443941e-010
-8.501248e-010
-8.589216e-010
-8.084912e-010
-8.147639e-010
-6.777727e-010
-1.647428e-010
6.542615e-010
1.375129e-009
1.570323e-009
1.139501e-009
3.718864e-010
-3.159095e-010
-6.997934e-010
-8.389380e-010
-9.039583e-010
-9.587128e-010
-9.154148e-010
-6.716487e-010
-2.534701e-010
1.884421e-010
5.080841e-010
6.728068e-010
7.497424e-010
8.082576e-010
8.523728e-010
8.425033e-010
7.616986e-010
6.449997e-010
5.464434e-010
4.897540e-010
4.574662e-010
4.221062e-010
3.779671e-010
3.399145e-010
3.181829e-010
3.030108e-010
2.759770e-010
2.312992e-010
1.803637e-010
1.352755e-010
9.337348e-011
4.295020e-011
-1.680640e-011
-6.797674e-011
-9.089505e-011
-8.656135e-011
-7.443434e-011
-6.389681e-011
-3.387161e-011
4.824143e-011
1.836874e-010
3.273308e-010
4.273031e-010
4.796361e-010
5.295178e-010
6.061529e-010
6.629027e-010
6.041049e-010
3.866016e-010
8.644777e-011
-1.577812e-010
-2.787686e-010
-3.436896e-010
-4.614877e-010
-6.244747e-010
-6.687830e-010
-4.265397e-010
7.183532e-011
5.677520e-010
7.779808e-010
6.442317e-010
3.739665e-010
2.198635e-010
2.175868e-010
1.567964e-010
-1.710313e-010
-6.933170e-010
-1.041459e-009
-8.489059e-010
-1.041933e-010
7.685535e-010
1.195541e-009
8.813488e-010
3.591102e-011
-7.729209e-010
-1.019129e-009
-5.724335e-010
2.330403e-010
8.396286e-010
1.617512e-009
4.872650e-010
-8.887692e-010
-1.519870e-009
-1.014227e-009
1.729267e-010
1.115089e-009
1.128781e-009
2.823960e-010
-6.938023e-010
-1.017772e-009
-4.819984e-010
4.197901e-010
9.503790e-010
7.510614e-010
8.263125e-011
-4.905743e-010
-6.349023e-010
-4.881762e-010
-4.158213e-010
-5.736283e-010
-7.336117e-010
-5.318252e-010
1.390895e-010
9.979031e-010
1.620002e-009
1.792937e-009
1.632450e-009
1.383804e-009
1.152051e-009
8.393537e-010
3.159958e-010
-3.920305e-010
-1.101422e-009
-1.635451e-009
-1.962872e-009
-2.175297e-009
-2.355202e-009
-2.490910e-009
-2.517100e-009
-2.411368e-009
-2.229409e-009
-2.049369e-009
-1.901509e-009
-1.762784e-009
-1.609309e-009
-1.454875e-009
-1.332556e-009
-1.252284e-009
-1.193372e-009
-1.139799e-009
-1.107915e-009
-1.126660e-009
-1.195415e-009
-1.278588e-009
-1.350820e-009
-1.436416e-009
-1.584380e-009
-1.799010e-009
-2.011506e-009
-2.140140e-009
-2.177822e-009
-2.198012e-009
-2.256078e-009
-2.294957e-009
-2.179012e-009
-1.839546e-009
-1.371820e-009
-9.564245e-010
-6.732767e-010
-4.169210e-010
-2.802389e-011
4.890846e-010
9.134127e-010
1.006966e-009
7.699701e-010
4.671711e-010
3.712356e-010
4.818463e-010
5.267768e-010
2.624746e-010
-2.341563e-010
-5.996203e-010
-5.290974e-010
-9.051608e-011
3.153267e-010
3.204137e-010
-7.051783e-011
-4.888745e-010
-5.425148e-010
-1.622633e-010
3.544094e-010
6.141822e-010
4.493088e-010
1.856811e-011
-3.565590e-010
-4.435945e-010
-2.346515e-010
9.603830e-011
3.304027e-010
-9.515962e-010
-5.073419e-010
1.319936e-010
6.768734e-010
9.351229e-010
8.289872e-010
3.564437e-010
-3.874015e-010
-1.136470e-009
-1.476926e-009
-1.073097e-009
2.608670e-011
1.291442e-009
2.000953e-009
1.737582e-009
6.880815e-010
-5.255903e-010
-1.334089e-009
-1.589727e-009
-1.511417e-009
-1.325116e-009
-1.002901e-009
-3.613844e-010
6.230683e-010
1.654186e-009
2.302116e-009
2.347559e-009
1.930741e-009
1.369285e-009
8.556602e-010
3.455980e-010
-2.836519e-010
-1.016414e-009
-1.668286e-009
-2.056510e-009
-2.165935e-009
-2.133522e-009
-2.090285e-009
-2.046110e-009
-1.929109e-009
-1.706732e-009
-1.438860e-009
-1.213904e-009
-1.059308e-009
-9.328769e-010
-7.912831e-010
-6.422573e-010
-5.213301e-010
-4.360282e-010
-3.567829e-010
-2.641644e-010
-1.834199e-010
-1.544888e-010
-1.757733e-010
-2.019215e-010
-2.082017e-010
-2.398850e-010
-3.715346e-010
-6.129566e-010
-8.787620e-010
-1.074163e-009
-1.204439e-009
-1.368748e-009
-1.626537e-009
-1.887468e-009
-1.970226e-009
-1.785616e-009
-1.439091e-009
-1.120374e-009
-8.908773e-010
-6.147515e-010
-1.315664e-010
5.113981e-010
1.038955e-009
1.189135e-009
9.677193e-010
6.362429e-010
4.376746e-010
3.550145e-010
1.678096e-010
-2.540146e-010
-7.436647e-010
-9.538182e-010
-6.857224e-010
-9.410140e-011
4.379154e-010
6.208111e-010
4.607788e-010
1.744581e-010
-5.041251e-011
-1.868965e-010
-2.892355e-010
-3.429274e-010
-2.468608e-010
4.434766e-011
3.916601e-010
5.327833e-010
3.082745e-010
-1.618535e-010
-5.402678e-010
-2.741716e-009
-1.067175e-009
1.045799e-009
2.243259e-009
1.975593e-009
7.078367e-010
-6.181890e-010
-1.319418e-009
-1.306478e-009
-8.782164e-010
-3.230728e-010
2.537650e-010
7.986512e-010
1.142589e-009
1.062079e-009
5.179660e-010
-2.187262e-010
-7.377258e-010
-8.114311e-010
-5.473903e-010
-2.290923e-010
-3.229260e-011
8.266035e-011
2.209566e-010
3.559357e-010
3.283719e-010
3.922651e-011
-3.990082e-010
-7.370944e-010
-8.115002e-010
-6.705114e-010
-4.771609e-010
-3.149622e-010
-1.173841e-010
2.169070e-010
6.749940e-010
1.121723e-009
1.430839e-009
1.596321e-009
1.704396e-009
1.817142e-009
1.910584e-009
1.927117e-009
1.861178e-009
1.770347e-009
1.709113e-009
1.677165e-009
1.643702e-009
1.604849e-009
1.592661e-009
1.626629e-009
1.680319e-009
1.715150e-009
1.737853e-009
1.798044e-009
1.918343e-009
2.045979e-009
2.099383e-009
2.063024e-009
2.009822e-009
2.009134e-009
2.024684e-009
1.935804e-009
1.673976e-009
1.317523e-009
1.020779e-009
8.472787e-010
7.020389e-010
4.529516e-010
1.067269e-010
-1.717937e-010
-2.329848e-010
-1.151201e-010
-1.339717e-011
-7.356179e-011
-2.433110e-010
-3.498072e-010
-3.090234e-010
-2.200383e-010
-2.350527e-010
-3.619448e-010
-4.368396e-010
-3.043299e-010
1.928344e-012
2.875965e-010
4.013569e-010
3.767859e-010
3.494290e-010
3.530750e-010
2.493249e-010
-1.009720e-010
-6.008507e-010
-8.973804e-010
-6.582246e-010
8.806931e-011
8.816646e-010
1.141948e-009
6.264114e-010
-3.439581e-010
-1.095122e-009
-2.498916e-009
-7.533718e-010
1.305314e-009
2.164417e-009
1.373713e-009
-2.331237e-010
-1.330958e-009
-1.189965e-009
-1.601592e-010
7.704651e-010
8.694471e-010
2.039358e-010
-5.685695e-010
-8.586918e-010
-5.997632e-010
-1.392162e-010
2.069540e-010
4.319600e-010
7.057471e-010
1.057208e-009
1.260852e-009
1.044953e-009
3.712935e-010
-5.181708e-010
-1.311690e-009
-1.848076e-009
-2.132630e-009
-2.193049e-009
-1.984748e-009
-1.453818e-009
-6.534713e-010
2.488867e-010
1.089346e-009
1.810979e-009
2.440803e-009
2.987197e-009
3.392517e-009
3.592715e-009
3.598739e-009
3.494944e-009
3.360135e-009
3.209753e-009
3.021156e-009
2.796166e-009
2.576787e-009
2.401218e-009
2.266058e-009
2.144952e-009
2.032867e-009
1.952352e-009
1.915557e-009
1.900797e-009
1.882683e-009
1.876259e-009
1.928575e-009
2.059431e-009
2.227902e-009
2.376293e-009
2.501520e-009
2.658344e-009
2.879292e-009
3.107535e-009
3.234228e-009
3.204807e-009
3.065811e-009
2.890307e-009
2.672153e-009
2.325445e-009
1.798075e-009
1.161065e-009
5.574940e-010
6.802972e-011
-3.412159e-010
-7.229883e-010
-1.030823e-009
-1.141951e-009
-1.008220e-009
-7.458847e-010
-5.309527e-010
-4.059879e-010
-2.360253e-010
1.066266e-010
5.298533e-010
7.488619e-010
5.657673e-010
1.123122e-010
-2.299224e-010
-1.855613e-010
1.365705e-010
3.398913e-010
1.317895e-010
-3.717446e-010
-7.296948e-010
-5.724479e-010
5.608960e-011
7.141254e-010
9.097818e-010
4.817225e-010
-2.832215e-010
-8.617233e-010
-5.950887e-010
1.226332e-010
8.140261e-010
7.398498e-010
-1.661601e-010
-1.187558e-009
-1.391289e-009
-4.322374e-010
1.081445e-009
2.015478e-009
1.611931e-009
1.097479e-010
-1.453776e-009
-2.080136e-009
-1.545890e-009
-4.271011e-010
5.159298e-010
9.576814e-010
1.083142e-009
1.172607e-009
1.215369e-009
9.541563e-010
2.484562e-010
-6.843415e-010
-1.412306e-009
-1.642567e-009
-1.411573e-009
-9.568033e-010
-4.606229e-010
5.534953e-011
6.264027e-010
1.207720e-009
1.673790e-009
1.930787e-009
1.992213e-009
1.938528e-009
1.828847e-009
1.671349e-009
1.465844e-009
1.244196e-009
1.055591e-009
9.251322e-010
8.426342e-010
7.888398e-010
7.577030e-010
7.490155e-010
7.523199e-010
7.508294e-010
7.379106e-010
7.178506e-010
6.888920e-010
6.375668e-010
5.584689e-010
4.721055e-010
4.094494e-010
3.782134e-010
3.581002e-010
3.375307e-010
3.438387e-010
4.194740e-010
5.679217e-010
7.414090e-010
8.937365e-010
1.031470e-009
1.189436e-009
1.355349e-009
1.447735e-009
1.393577e-009
1.216830e-009
1.015518e-009
8.391947e-010
6.213369e-010
2.747802e-010
-1.481902e-010
-4.424810e-010
-4.437202e-010
-2.267044e-010
-5.804991e-011
-1.154274e-010
-2.760035e-010
-2.373647e-010
1.285826e-010
5.751154e-010
6.845453e-010
2.917848e-010
-3.153931e-010
-6.449323e-010
-4.554916e-010
3.785260e-011
3.968174e-010
3.728949e-010
8.748999e-011
-1.562067e-010
-1.854952e-010
-7.123085e-011
2.040773e-011
2.240167e-011
-5.051187e-012
4.754971e-012
3.622541e-011
1.455007e-009
7.977023e-010
-1.253809e-010
-8.895060e-010
-1.260193e-009
-1.176999e-009
-6.436158e-010
2.470870e-010
1.176765e-009
1.625764e-009
1.209728e-009
8.086521e-011
-1.054293e-009
-1.440139e-009
-8.938133e-010
4.778124e-011
6.182830e-010
4.855043e-010
-4.030849e-011
-4.062815e-010
-3.681422e-010
-1.334957e-010
-1.766652e-011
-4.694234e-011
5.388476e-011
5.163340e-010
1.237483e-009
1.856159e-009
2.084308e-009
1.927231e-009
1.593025e-009
1.243090e-009
8.690298e-010
3.905120e-010
-1.849694e-010
-7.318978e-010
-1.117017e-009
-1.306160e-009
-1.357317e-009
-1.334325e-009
-1.249535e-009
-1.084255e-009
-8.406333e-010
-5.592287e-010
-2.916373e-010
-6.679831e-011
1.157182e-010
2.674459e-010
3.903842e-010
4.715027e-010
4.945668e-010
4.577262e-010
3.784474e-010
2.764049e-010
1.500274e-010
-2.265252e-011
-2.514454e-010
-5.060214e-010
-7.345553e-010
-9.161143e-010
-1.080320e-009
-1.256252e-009
-1.405683e-009
-1.435246e-009
-1.295438e-009
-1.052618e-009
-8.277542e-010
-6.536303e-010
-4.259686e-010
-3.558951e-011
4.566380e-010
8.274698e-010
9.133790e-010
8.070467e-010
7.767428e-010
9.621171e-010
1.183679e-009
1.110453e-009
6.304636e-010
1.371135e-011
-3.358262e-010
-2.850241e-010
-9.088664e-011
-1.013403e-010
-3.696236e-010
-6.070224e-010
-5.144866e-010
-1.127544e-010
2.912012e-010
4.401736e-010
3.692034e-010
2.900814e-010
2.837294e-010
1.893182e-010
-1.621875e-010
-6.452170e-010
-8.544820e-010
-4.835808e-010
3.094628e-010
9.580510e-010
2.312200e-009
7.447517e-010
-1.046328e-009
-1.747295e-009
-1.122953e-009
1.576112e-012
6.475809e-010
5.224843e-010
5.888903e-011
-1.982743e-010
-1.177480e-010
6.886551e-011
1.785966e-010
2.851766e-010
5.023462e-010
6.836210e-010
4.806467e-010
-2.565285e-010
-1.202689e-009
-1.763281e-009
-1.580956e-009
-8.171083e-010
6.876942e-011
7.720330e-010
1.336632e-009
1.929430e-009
2.511656e-009
2.804000e-009
2.570565e-009
1.881071e-009
1.059469e-009
3.954328e-010
-5.919588e-011
-4.202623e-010
-7.564986e-010
-9.890342e-010
-9.933237e-010
-7.544548e-010
-3.930270e-010
-5.029338e-011
2.248797e-010
4.721929e-010
7.296744e-010
9.722840e-010
1.140163e-009
1.208782e-009
1.215899e-009
1.220123e-009
1.243503e-009
1.262029e-009
1.249524e-009
1.219991e-009
1.216179e-009
1.255179e-009
1.296314e-009
1.276844e-009
1.180872e-009
1.057464e-009
9.554152e-010
8.473992e-010
6.463261e-010
3.143967e-010
-6.062267e-011
-3.318310e-010
-4.458532e-010
-5.000504e-010
-6.139090e-010
-7.519057e-010
-7.232440e-010
-3.929497e-010
1.282449e-010
5.581456e-010
7.283394e-010
7.597566e-010
9.075407e-010
1.235406e-009
1.498362e-009
1.388800e-009
8.774919e-010
2.584506e-010
-1.555329e-010
-3.327090e-010
-4.731558e-010
-6.872527e-010
-8.090206e-010
-5.895282e-010
-4.744036e-011
4.595566e-010
5.687010e-010
2.954447e-010
2.232789e-011
7.693725e-011
3.521098e-010
4.011223e-010
-6.314299e-011
-7.845644e-010
-1.124918e-009
-6.541733e-010
3.918607e-010
1.246490e-009
1.765423e-009
1.187344e-010
-1.524152e-009
-1.628566e-009
-1.629176e-010
1.466728e-009
1.772052e-009
5.118113e-010
-1.194972e-009
-1.957874e-009
-1.305783e-009
8.366007e-011
1.160881e-009
1.409130e-009
1.047024e-009
5.357469e-010
6.919526e-011
-4.272477e-010
-9.431770e-010
-1.211441e-009
-9.535727e-010
-2.265200e-010
5.700037e-010
1.049343e-009
1.154449e-009
1.101017e-009
1.061833e-009
9.845989e-010
7.341459e-010
3.468023e-010
6.865248e-011
1.305769e-010
5.274681e-010
1.047595e-009
1.496384e-009
1.850644e-009
2.191303e-009
2.530324e-009
2.749067e-009
2.708194e-009
2.385425e-009
1.883164e-009
1.313530e-009
7.034283e-010
1.965795e-011
-7.348553e-010
-1.477219e-009
-2.102094e-009
-2.566234e-009
-2.898636e-009
-3.128364e-009
-3.221685e-009
-3.108518e-009
-2.768805e-009
-2.271910e-009
-1.713603e-009
-1.121604e-009
-4.494121e-010
3.224431e-010
1.098179e-009
1.714301e-009
2.087017e-009
2.287193e-009
2.438427e-009
2.547799e-009
2.480638e-009
2.131713e-009
1.597022e-009
1.123020e-009
8.661279e-010
7.383934e-010
5.338130e-010
1.968695e-010
-8.978223e-011
-1.145102e-010
1.044279e-010
3.288522e-010
3.729893e-010
3.024016e-010
3.076028e-010
4.106198e-010
3.916277e-010
6.449102e-011
-4.195284e-010
-6.425842e-010
-3.470553e-010
2.437838e-010
6.002342e-010
4.076856e-010
-1.117341e-010
-4.259896e-010
-2.351921e-010
2.326152e-010
4.649256e-010
1.841628e-010
-3.778063e-010
-6.999340e-010
-4.549902e-010
1.947536e-010
7.358628e-010
5.789881e-010
-4.425030e-010
-1.299638e-009
-9.228596e-010
5.773994e-010
1.954133e-009
1.937073e-009
4.046677e-010
-1.465330e-009
-2.216987e-009
-1.372047e-009
2.273664e-010
1.256307e-009
1.080125e-009
1.685695e-010
-5.244122e-010
-4.832925e-010
5.171744e-011
5.378401e-010
7.287805e-010
7.801376e-010
8.797160e-010
9.389973e-010
7.118990e-010
1.440805e-010
-4.990034e-010
-8.685166e-010
-8.346044e-010
-5.156677e-010
-5.578241e-011
5.406153e-010
1.324352e-009
2.208495e-009
2.932236e-009
3.234332e-009
3.029347e-009
2.391126e-009
1.390510e-009
-3.251057e-012
-1.849842e-009
-4.103959e-009
-6.593635e-009
-9.134498e-009
-1.163943e-008
-1.410041e-008
-1.648124e-008
-1.866158e-008
-2.049917e-008
-2.192740e-008
-2.296529e-008
-2.362943e-008
-2.386116e-008
-2.356443e-008
-2.271135e-008
-2.138379e-008
-1.969458e-008
-1.768453e-008
-1.533013e-008
-1.266333e-008
-9.855208e-009
-7.144756e-009
-4.681335e-009
-2.467899e-009
-4.788704e-010
1.193872e-009
2.363401e-009
2.931930e-009
3.015841e-009
2.844856e-009
2.544656e-009
2.067632e-009
1.358760e-009
5.413055e-010
-1.307121e-010
-5.105923e-010
-6.837510e-010
-8.018461e-010
-8.289397e-010
-5.501611e-010
1.170755e-010
8.793355e-010
1.241576e-009
9.733317e-010
3.599262e-010
-6.953086e-011
-6.489490e-011
1.352399e-010
1.222798e-010
-2.088768e-010
-5.572449e-010
-5.669503e-010
-2.106541e-010
2.095590e-010
3.943957e-010
3.124818e-010
1.406658e-010
2.409634e-011
-3.851599e-011
-1.017966e-010
-1.578205e-010
-4.184750e-010
-4.500655e-010
-3.797284e-010
-5.986946e-011
4.817847e-010
9.338136e-010
8.822482e-010
2.263067e-010
-5.856329e-010
-8.660405e-010
-3.540943e-010
4.388759e-010
6.578007e-010
-4.333919e-011
-1.091761e-009
-1.494588e-009
-7.707229e-010
6.177699e-010
1.735880e-009
2.016400e-009
1.623261e-009
1.079669e-009
6.841860e-010
3.536206e-010
-5.191814e-011
-4.090478e-010
-4.098098e-010
9.447089e-011
9.116119e-010
1.673626e-009
2.113271e-009
2.134955e-009
1.662045e-009
5.109824e-010
-1.534833e-009
-4.556705e-009
-8.454402e-009
-1.306723e-008
-1.829898e-008
-2.409953e-008
-3.035234e-008
-3.683093e-008
-4.328550e-008
-4.954943e-008
-5.553592e-008
-6.114018e-008
-6.618027e-008
-7.045344e-008
-7.383323e-008
-7.628216e-008
-7.776647e-008
-7.818806e-008
-7.742898e-008
-7.545867e-008
-7.236979e-008
-6.829632e-008
-6.332071e-008
-5.749623e-008
-5.096285e-008
-4.400482e-008
-3.695993e-008
-3.007769e-008
-2.349557e-008
-1.735448e-008
-1.188747e-008
-7.340213e-009
-3.803081e-009
-1.168013e-009
7.217294e-010
1.914219e-009
2.392431e-009
2.263920e-009
1.825223e-009
1.368140e-009
9.438859e-010
4.045225e-010
-2.824851e-010
-8.259585e-010
-8.176807e-010
-1.747909e-010
6.888640e-010
1.201996e-009
1.142610e-009
7.642630e-010
4.312198e-010
2.172883e-010
-6.482489e-011
-4.883281e-010
-8.072688e-010
-7.119409e-010
-2.344167e-010
2.243172e-010
3.199905e-010
1.439576e-010
8.432382e-011
3.198730e-010
5.615163e-010
3.802100e-010
-2.456259e-010
-8.197511e-010
-1.013751e-009
-5.403326e-012
8.932202e-010
7.787430e-010
-1.437680e-010
-8.957827e-010
-7.896078e-010
-2.835658e-011
6.814744e-010
8.985219e-010
7.110147e-010
3.679297e-010
-9.028049e-011
-7.069822e-010
-1.251572e-009
-1.237838e-009
-4.252133e-010
7.790060e-010
1.571512e-009
1.471292e-009
7.533938e-010
1.449846e-010
1.363757e-010
6.356610e-010
1.246569e-009
1.749099e-009
2.217678e-009
2.713294e-009
2.981615e-009
2.517860e-009
8.866259e-010
-2.085969e-009
-6.419137e-009
-1.218387e-008
-1.953720e-008
-2.857163e-008
-3.919388e-008
-5.117484e-008
-6.428093e-008
-7.831440e-008
-9.303635e-008
-1.081030e-007
-1.231120e-007
-1.377001e-007
-1.515683e-007
-1.644178e-007
-1.758996e-007
-1.856572e-007
-1.934106e-007
-1.989750e-007
-2.021965e-007
-2.029030e-007
-2.009512e-007
-1.963181e-007
-1.891252e-007
-1.795671e-007
-1.678476e-007
-1.542176e-007
-1.390655e-007
-1.229269e-007
-1.063732e-007
-8.989717e-008
-7.392452e-008
-5.890289e-008
-4.530433e-008
-3.348222e-008
-2.353800e-008
-1.537704e-008
-8.902718e-009
-4.102314e-009
-9.011340e-010
1.019515e-009
2.148994e-009
2.828562e-009
3.045865e-009
2.626840e-009
1.643521e-009
5.574174e-010
-1.061033e-010
-2.008759e-010
-1.166387e-011
1.327533e-010
2.047162e-010
3.688712e-010
6.007290e-010
5.840796e-010
8.972860e-011
-6.184298e-010
-9.250307e-010
-4.975592e-010
2.893336e-010
6.856352e-010
3.528157e-010
-2.610470e-010
-4.101914e-010
1.100010e-010
7.099079e-010
6.442386e-010
-1.469477e-010
-9.279882e-010
-1.454532e-009
3.653064e-010
1.921345e-009
1.493674e-009
-5.397636e-010
-2.206434e-009
-1.982791e-009
-2.044250e-010
1.467933e-009
1.752073e-009
8.002074e-010
-2.795996e-010
-6.518062e-010
-3.726588e-010
2.718898e-011
2.501152e-010
3.804118e-010
4.972610e-010
4.293800e-010
1.937868e-011
-4.900979e-010
-5.299184e-010
2.652429e-010
1.659446e-009
2.993712e-009
3.709375e-009
3.619548e-009
2.680305e-009
6.060258e-010
-3.200228e-009
-9.357654e-009
-1.822970e-008
-2.995097e-008
-4.465036e-008
-6.255246e-008
-8.383664e-008
-1.084386e-007
-1.360165e-007
-1.660764e-007
-1.980796e-007
-2.314268e-007
-2.653987e-007
-2.991732e-007
-3.319212e-007
-3.628749e-007
-3.913171e-007
-4.165484e-007
-4.379067e-007
-4.548255e-007
-4.668543e-007
-4.736264e-007
-4.748384e-007
-4.702944e-007
-4.599736e-007
-4.440423e-007
-4.228094e-007
-3.967116e-007
-3.663716e-007
-3.326525e-007
-2.966081e-007
-2.593470e-007
-2.219457e-007
-1.854742e-007
-1.510243e-007
-1.195943e-007
-9.186835e-008
-6.811181e-008
-4.831002e-008
-3.238787e-008
-2.023348e-008
-1.149984e-008
-5.484946e-009
-1.350413e-009
1.472519e-009
3.123339e-009
3.589918e-009
3.101683e-009
2.170427e-009
1.245385e-009
4.370261e-010
-3.265890e-010
-9.271089e-010
-1.007548e-009
-3.951485e-010
5.129639e-010
9.730644e-010
6.058184e-010
-1.733849e-010
-5.482616e-010
-1.539242e-010
5.330804e-010
7.130166e-010
1.370135e-010
-6.156409e-010
-7.585548e-010
-1.420178e-010
5.877608e-010
6.749005e-010
4.718959e-011
-6.192048e-010
-1.806499e-009
2.805131e-010
2.140272e-009
1.821820e-009
-3.281048e-010
-2.155418e-009
-1.952158e-009
-1.005831e-010
1.480401e-009
1.352451e-009
-9.638818e-011
-1.240032e-009
-9.360716e-010
4.540088e-010
1.636979e-009
1.728427e-009
9.237858e-010
1.729761e-011
-4.519059e-010
-4.723466e-010
-1.845745e-010
4.577504e-010
1.522565e-009
2.712236e-009
3.316619e-009
2.589230e-009
7.476052e-011
-4.508690e-009
-1.166666e-008
-2.231613e-008
-3.755827e-008
-5.831616e-008
-8.521121e-008
-1.186991e-007
-1.591715e-007
-2.068210e-007
-2.613958e-007
-3.221076e-007
-3.877702e-007
-4.570017e-007
-5.283185e-007
-6.001269e-007
-6.707420e-007
-7.384898e-007
-8.018222e-007
-8.593609e-007
-9.098778e-007
-9.522777e-007
-9.856089e-007
-1.009074e-006
-1.022026e-006
-1.023974e-006
-1.014623e-006
-9.939106e-007
-9.620203e-007
-9.193779e-007
-8.667103e-007
-8.051377e-007
-7.362058e-007
-6.617910e-007
-5.839566e-007
-5.048875e-007
-4.269015e-007
-3.523703e-007
-2.834444e-007
-2.217193e-007
-1.681096e-007
-1.230029e-007
-8.645263e-008
-5.815151e-008
-3.725580e-008
-2.240423e-008
-1.209622e-008
-5.149966e-009
-8.157999e-010
1.495664e-009
2.456460e-009
2.692242e-009
2.473744e-009
1.724899e-009
4.675250e-010
-7.982181e-010
-1.319392e-009
-7.775835e-010
3.215790e-010
1.065064e-009
9.726300e-010
3.798529e-010
-1.944873e-011
6.895214e-011
3.094229e-010
2.183541e-010
-2.479766e-010
-6.544673e-010
-5.840725e-010
-8.565178e-011
3.899671e-010
4.478981e-010
1.123363e-010
-2.342290e-010
-1.661527e-009
-1.255123e-010
1.366233e-009
1.425739e-009
1.806753e-010
-9.731450e-010
-8.720772e-010
2.218285e-010
9.555362e-010
3.768978e-010
-1.002581e-009
-1.708976e-009
-8.434747e-010
9.701739e-010
2.206871e-009
1.938452e-009
6.498588e-010
-3.658741e-010
-2.618668e-010
7.640761e-010
1.939444e-009
2.702281e-009
2.901523e-009
2.359461e-009
4.577665e-010
-3.790392e-009
-1.142101e-008
-2.346249e-008
-4.122634e-008
-6.653245e-008
-1.015145e-007
-1.481364e-007
-2.078282e-007
-2.814244e-007
-3.692082e-007
-4.708125e-007
-5.850142e-007
-7.096767e-007
-8.419769e-007
-9.787739e-007
-1.116885e-006
-1.253189e-006
-1.384680e-006
-1.508559e-006
-1.622375e-006
-1.724083e-006
-1.812009e-006
-1.884765e-006
-1.941179e-006
-1.980263e-006
-2.001214e-006
-2.003424e-006
-1.986501e-006
-1.950268e-006
-1.894775e-006
-1.820362e-006
-1.727805e-006
-1.618484e-006
-1.494448e-006
-1.358355e-006
-1.213388e-006
-1.063265e-006
-9.122338e-007
-7.648538e-007
-6.255156e-007
-4.979092e-007
-3.847458e-007
-2.877597e-007
-2.077431e-007
-1.444365e-007
-9.644530e-008
-6.149246e-008
-3.700590e-008
-2.063663e-008
-1.035774e-008
-4.291068e-009
-7.261613e-010
1.516415e-009
2.801862e-009
2.965296e-009
2.025394e-009
6.134186e-010
-3.589567e-010
-4.297833e-010
9.910426e-011
5.862046e-010
6.935652e-010
5.502808e-010
3.858617e-010
2.031287e-010
-1.059674e-010
-4.553497e-010
-5.672946e-010
-3.123296e-010
8.372801e-011
2.728050e-010
1.702378e-010
1.195251e-012
-2.418831e-011
4.554523e-011
-5.775846e-010
-3.978099e-010
-7.083888e-011
2.695769e-010
4.490353e-010
4.434353e-010
3.976755e-010
3.745124e-010
1.894332e-010
-3.339599e-010
-9.493303e-010
-1.040806e-009
-2.731677e-010
8.681279e-010
1.406573e-009
8.732834e-010
-9.650169e-011
-3.031885e-010
8.447249e-010
2.736771e-009
4.102977e-009
4.006880e-009
2.193662e-009
-1.494775e-009
-7.925846e-009