# vtk DataFile Version 3.0
vtk output
ASCII
DATASET STRUCTURED_POINTS
DIMENSIONS 100 100 1
SPACING 1 1 1
ORIGIN 0 0 0
POINT_DATA 10000
SCALARS SFBox_profile double
LOOKUP_TABLE default 
0.000000e+000
0.000000e+000
0.000000e+000
0.000000e+000
0.000000e+000
0.000000e+000
0.000000e+000
0.000000e+000
0.000000e+000
0.000000e+000
0.000000e+000
0.000000e+000
0.000000e+000
0.000000e+000
0.000000e+000
0.000000e+000
0.000000e+000
0.000000e+000
0.000000e+000
0.000000e+000
0.000000e+000
0.000000e+000
0.000000e+000
0.000000e+000
0.000000e+000
0.000000e+000
0.000000e+000
0.000000e+000
0.000000e+000
0.000000e+000
0.000000e+000
0.000000e+000
0.000000e+000
0.000000e+000
0.000000e+000
0.000000e+000
0.000000e+000
0.000000e+000
0.000000e+000
0.000000e+000
0.000000e+000
0.000000e+000
0.000000e+000
0.000000e+000
0.000000e+000
0.000000e+000
0.000000e+000
0.000000e+000
0.000000e+000
0.000000e+000
0.000000e+000
0.000000e+000
0.000000e+000
0.000000e+000
0.000000e+000
0.000000e+000
0.000000e+000
0.000000e+000
0.000000e+000
0.000000e+000
0.000000e+000
0.000000e+000
0.000000e+000
0.000000e+000
0.000000e+000
0.000000e+000
0.000000e+000
0.000000e+000
0.000000e+000
0.000000e+000
0.000000e+000
0.000000e+000
0.000000e+000
0.000000e+000
0.000000e+000
0.000000e+000
0.000000e+000
0.000000e+000
0.000000e+000
0.000000e+000
0.000000e+000
0.000000e+000
0.000000e+000
0.000000e+000
0.000000e+000
0.000000e+000
0.000000e+000
0.000000e+000
0.000000e+000
0.000000e+000
0.000000e+000
0.000000e+000
0.000000e+000
0.000000e+000
0.000000e+000
0.000000e+000
0.000000e+000
0.000000e+000
0.000000e+000
0.000000e+000
-1.989278e-011
-1.972345e-011
-1.939025e-011
-1.890777e-011
-1.829382e-011
-1.756494e-011
-1.674128e-011
-1.583650e-011
-1.485897e-011
-1.381701e-011
-1.271690e-011
-1.155949e-011
-1.034910e-011
-9.093313e-012
-7.799933e-012
-6.479857e-012
-5.147499e-012
-3.820674e-012
-2.516703e-012
-1.253450e-012
-5.332919e-014
1.066328e-012
2.087034e-012
2.997734e-012
3.780003e-012
4.429913e-012
4.944087e-012
5.315676e-012
5.553317e-012
5.660840e-012
5.648871e-012
5.528888e-012
5.312875e-012
5.023851e-012
4.674256e-012
4.286683e-012
3.878787e-012
3.467404e-012
3.074284e-012
2.706419e-012
2.378302e-012
2.101406e-012
1.875082e-012
1.700728e-012
1.580640e-012
1.507619e-012
1.476445e-012
1.480976e-012
1.510469e-012
1.558115e-012
1.619369e-012
1.683081e-012
1.744627e-012
1.803338e-012
1.847985e-012
1.879660e-012
1.896765e-012
1.898406e-012
1.879776e-012
1.846071e-012
1.796707e-012
1.730085e-012
1.654792e-012
1.568668e-012
1.475727e-012
1.378225e-012
1.278867e-012
1.182285e-012
1.086707e-012
9.951882e-013
9.086949e-013
8.282256e-013
7.513932e-013
6.757504e-013
6.065570e-013
5.363458e-013
4.650044e-013
3.893265e-013
3.121009e-013
2.287362e-013
1.336345e-013
3.462454e-014
-7.794557e-014
-1.985876e-013
-3.294573e-013
-4.680300e-013
-6.151675e-013
-7.662387e-013
-9.216912e-013
-1.077903e-012
-1.232446e-012
-1.378609e-012
-1.516975e-012
-1.644583e-012
-1.755311e-012
-1.851897e-012
-1.929726e-012
-1.990522e-012
-2.031450e-012
-2.049704e-012
-1.896482e-011
-1.881121e-011
-1.851283e-011
-1.808045e-011
-1.752766e-011
-1.686963e-011
-1.611966e-011
-1.528782e-011
-1.438239e-011
-1.340567e-011
-1.236155e-011
-1.125004e-011
-1.007609e-011
-8.846117e-012
-7.567447e-012
-6.255373e-012
-4.927171e-012
-3.597720e-012
-2.293374e-012
-1.034361e-012
1.593609e-013
1.265222e-012
2.267442e-012
3.150856e-012
3.900054e-012
4.514927e-012
4.990184e-012
5.324556e-012
5.525787e-012
5.596089e-012
5.551145e-012
5.404485e-012
5.168471e-012
4.864329e-012
4.509938e-012
4.123738e-012
3.726479e-012
3.333224e-012
2.960655e-012
2.624663e-012
2.331828e-012
2.088252e-012
1.898647e-012
1.762966e-012
1.673090e-012
1.626541e-012
1.615718e-012
1.630032e-012
1.664132e-012
1.709422e-012
1.756330e-012
1.800375e-012
1.837630e-012
1.863281e-012
1.875724e-012
1.875494e-012
1.859430e-012
1.830393e-012
1.785692e-012
1.734699e-012
1.673753e-012
1.602452e-012
1.525873e-012
1.444429e-012
1.362746e-012
1.278259e-012
1.195613e-012
1.116376e-012
1.037898e-012
9.656101e-013
8.917596e-013
8.256756e-013
7.588915e-013
6.941386e-013
6.313516e-013
5.640481e-013
4.929214e-013
4.179867e-013
3.392114e-013
2.520207e-013
1.556647e-013
4.953557e-014
-6.141344e-014
-1.862660e-013
-3.196368e-013
-4.602105e-013
-6.075816e-013
-7.604224e-013
-9.155145e-013
-1.071302e-012
-1.221695e-012
-1.370990e-012
-1.506348e-012
-1.633143e-012
-1.746242e-012
-1.842755e-012
-1.920407e-012
-1.978035e-012
-2.020223e-012
-2.038843e-012
-1.714859e-011
-1.703133e-011
-1.680062e-011
-1.646452e-011
-1.603129e-011
-1.550590e-011
-1.489551e-011
-1.420584e-011
-1.343342e-011
-1.257771e-011
-1.163416e-011
-1.060696e-011
-9.500339e-012
-8.315532e-012
-7.069240e-012
-5.775907e-012
-4.460782e-012
-3.143667e-012
-1.850204e-012
-6.115088e-013
5.519575e-013
1.614104e-012
2.560631e-012
3.377042e-012
4.056632e-012
4.593917e-012
4.989211e-012
5.248585e-012
5.377981e-012
5.391784e-012
5.298956e-012
5.118740e-012
4.868189e-012
4.562845e-012
4.227954e-012
3.879391e-012
3.537132e-012
3.214969e-012
2.929236e-012
2.691539e-012
2.504844e-012
2.370323e-012
2.288719e-012
2.253378e-012
2.256402e-012
2.288333e-012
2.335470e-012
2.389124e-012
2.438703e-012
2.474792e-012
2.494930e-012
2.487412e-012
2.455714e-012
2.400553e-012
2.319394e-012
2.218849e-012
2.105737e-012
1.982280e-012
1.851865e-012
1.726315e-012
1.602058e-012
1.483807e-012
1.377940e-012
1.283191e-012
1.196837e-012
1.120418e-012
1.056628e-012
9.988409e-013
9.458106e-013
9.007032e-013
8.579551e-013
8.136572e-013
7.691891e-013
7.204646e-013
6.709964e-013
6.123300e-013
5.460035e-013
4.746289e-013
3.921480e-013
2.975986e-013
1.976582e-013
8.694272e-014
-3.476895e-014
-1.620081e-013
-2.998028e-013
-4.427540e-013
-5.936262e-013
-7.466624e-013
-9.032979e-013
-1.056606e-012
-1.208559e-012
-1.351608e-012
-1.489115e-012
-1.613410e-012
-1.725170e-012
-1.822263e-012
-1.900272e-012
-1.959458e-012
-2.001315e-012
-2.018258e-012
-1.453190e-011
-1.446485e-011
-1.433540e-011
-1.413560e-011
-1.387012e-011
-1.353172e-011
-1.311326e-011
-1.260857e-011
-1.201225e-011
-1.131156e-011
-1.050321e-011
-9.589504e-012
-8.564383e-012
-7.448956e-012
-6.252150e-012
-5.002656e-012
-3.724476e-012
-2.446843e-012
-1.208005e-012
-3.737147e-014
1.039993e-012
2.000971e-012
2.833010e-012
3.528266e-012
4.082897e-012
4.498065e-012
4.784364e-012
4.950152e-012
5.006844e-012
4.972796e-012
4.861495e-012
4.688847e-012
4.483960e-012
4.258053e-012
4.034484e-012
3.834998e-012
3.673264e-012
3.562525e-012
3.513554e-012
3.528007e-012
3.606564e-012
3.737298e-012
3.914773e-012
4.123168e-012
4.344145e-012
4.557193e-012
4.749247e-012
4.899239e-012
4.994400e-012
5.024915e-012
4.984352e-012
4.871124e-012
4.689461e-012
4.441823e-012
4.143632e-012
3.806261e-012
3.445517e-012
3.076198e-012
2.709224e-012
2.360705e-012
2.040599e-012
1.758930e-012
1.516507e-012
1.318663e-012
1.159015e-012
1.035307e-012
9.485048e-013
8.867918e-013
8.452482e-013
8.185010e-013
8.013220e-013
7.853465e-013
7.701213e-013
7.465056e-013
7.140073e-013
6.705640e-013
6.169378e-013
5.476135e-013
4.645656e-013
3.700828e-013
2.636675e-013
1.429231e-013
1.389568e-014
-1.218625e-013
-2.661945e-013
-4.163173e-013
-5.697961e-013
-7.264962e-013
-8.823663e-013
-1.034078e-012
-1.184445e-012
-1.326429e-012
-1.461597e-012
-1.584948e-012
-1.693326e-012
-1.790703e-012
-1.867250e-012
-1.925500e-012
-1.967677e-012
-1.987265e-012
-1.123191e-011
-1.123136e-011
-1.122191e-011
-1.119419e-011
-1.112820e-011
-1.101255e-011
-1.081466e-011
-1.052239e-011
-1.012021e-011
-9.590697e-012
-8.929752e-012
-8.133329e-012
-7.214741e-012
-6.184453e-012
-5.068568e-012
-3.896586e-012
-2.710392e-012
-1.546055e-012
-4.387034e-013
5.774143e-013
1.474660e-012
2.249073e-012
2.888376e-012
3.398626e-012
3.783835e-012
4.064131e-012
4.245180e-012
4.350618e-012
4.394960e-012
4.396472e-012
4.377817e-012
4.359624e-012
4.364326e-012
4.416198e-012
4.536394e-012
4.740793e-012
5.040265e-012
5.445203e-012
5.947639e-012
6.544631e-012
7.214696e-012
7.938896e-012
8.682327e-012
9.415176e-012
1.010524e-011
1.071449e-011
1.121484e-011
1.157531e-011
1.177754e-011
1.180212e-011
1.164584e-011
1.130957e-011
1.080441e-011
1.015187e-011
9.373812e-012
8.507705e-012
7.582229e-012
6.632512e-012
5.697353e-012
4.805394e-012
3.982281e-012
3.247092e-012
2.610498e-012
2.082997e-012
1.659968e-012
1.334679e-012
1.099490e-012
9.395454e-013
8.399263e-013
7.842374e-013
7.600395e-013
7.548123e-013
7.564506e-013
7.594228e-013
7.489772e-013
7.262883e-013
6.897448e-013
6.315149e-013
5.540344e-013
4.602975e-013
3.496590e-013
2.244909e-013
8.691366e-014
-6.120570e-014
-2.159350e-013
-3.738998e-013
-5.321356e-013
-6.917410e-013
-8.493654e-013
-1.006155e-012
-1.151617e-012
-1.293359e-012
-1.426280e-012
-1.545184e-012
-1.652657e-012
-1.744349e-012
-1.820869e-012
-1.879049e-012
-1.920579e-012
-1.941404e-012
-7.401298e-012
-7.472826e-012
-7.597564e-012
-7.754672e-012
-7.905595e-012
-8.012937e-012
-8.043768e-012
-7.964772e-012
-7.750498e-012
-7.385815e-012
-6.868269e-012
-6.198282e-012
-5.393387e-012
-4.482395e-012
-3.494889e-012
-2.481478e-012
-1.484172e-012
-5.435243e-013
3.021282e-013
1.034858e-012
1.644185e-012
2.136842e-012
2.520380e-012
2.821091e-012
3.057246e-012
3.253940e-012
3.433946e-012
3.615918e-012
3.824881e-012
4.087847e-012
4.428737e-012
4.880441e-012
5.467964e-012
6.220070e-012
7.159712e-012
8.297377e-012
9.637704e-012
1.117260e-011
1.287681e-011
1.471635e-011
1.664168e-011
1.860174e-011
2.052945e-011
2.235333e-011
2.401412e-011
2.544196e-011
2.657645e-011
2.737057e-011
2.778474e-011
2.779809e-011
2.740060e-011
2.659948e-011
2.542747e-011
2.391805e-011
2.213048e-011
2.013056e-011
1.799016e-011
1.578384e-011
1.358749e-011
1.146732e-011
9.483857e-012
7.680742e-012
6.091497e-012
4.736330e-012
3.616118e-012
2.726003e-012
2.043642e-012
1.545147e-012
1.201393e-012
9.802815e-013
8.534838e-013
7.896185e-013
7.680311e-013
7.694230e-013
7.737737e-013
7.706391e-013
7.515476e-013
7.122149e-013
6.507422e-013
5.611203e-013
4.517503e-013
3.239779e-013
1.781645e-013
2.065134e-014
-1.448725e-013
-3.102955e-013
-4.812493e-013
-6.475865e-013
-8.078851e-013
-9.660448e-013
-1.113481e-012
-1.250454e-012
-1.378845e-012
-1.494272e-012
-1.600714e-012
-1.687435e-012
-1.763553e-012
-1.818614e-012
-1.859324e-012
-1.877761e-012
-3.209339e-012
-3.347297e-012
-3.602107e-012
-3.930446e-012
-4.279702e-012
-4.596980e-012
-4.831077e-012
-4.934949e-012
-4.886906e-012
-4.668336e-012
-4.282996e-012
-3.746601e-012
-3.089150e-012
-2.356548e-012
-1.596684e-012
-8.639483e-013
-2.050444e-013
3.483796e-013
7.796334e-013
1.099900e-012
1.327403e-012
1.498355e-012
1.651633e-012
1.826031e-012
2.055566e-012
2.371766e-012
2.805394e-012
3.386569e-012
4.147145e-012
5.128518e-012
6.372464e-012
7.926893e-012
9.833562e-012
1.213658e-011
1.484966e-011
1.798588e-011
2.152541e-011
2.542548e-011
2.962168e-011
3.402391e-011
3.852546e-011
4.300405e-011
4.732730e-011
5.135678e-011
5.496592e-011
5.802199e-011
6.041939e-011
6.206603e-011
6.289052e-011
6.285878e-011
6.195630e-011
6.020561e-011
5.766414e-011
5.440995e-011
5.055679e-011
4.623298e-011
4.158318e-011
3.676225e-011
3.191876e-011
2.719624e-011
2.272048e-011
1.859582e-011
1.489843e-011
1.167466e-011
8.947425e-012
6.709445e-012
4.929362e-012
3.563190e-012
2.559425e-012
1.853024e-012
1.382752e-012
1.091332e-012
9.284371e-013
8.499452e-013
8.195186e-013
8.106845e-013
8.019482e-013
7.783142e-013
7.348392e-013
6.632417e-013
5.652706e-013
4.390920e-013
2.917036e-013
1.269075e-013
-4.600714e-014
-2.282262e-013
-4.093660e-013
-5.855792e-013
-7.544307e-013
-9.128578e-013
-1.061966e-012
-1.198333e-012
-1.322774e-012
-1.435327e-012
-1.534330e-012
-1.618885e-012
-1.688179e-012
-1.741705e-012
-1.777122e-012
-1.795640e-012
1.181299e-012
9.903574e-013
6.377270e-013
1.780799e-013
-3.258443e-013
-8.020068e-013
-1.187352e-012
-1.434184e-012
-1.513125e-012
-1.422033e-012
-1.170043e-012
-7.995292e-013
-3.604134e-013
7.992858e-014
4.565626e-013
7.252646e-013
8.527772e-013
8.458860e-013
7.358637e-013
5.817366e-013
4.470728e-013
4.040853e-013
5.148177e-013
8.363448e-013
1.413044e-012
2.280074e-012
3.480701e-012
5.066784e-012
7.103175e-012
9.666791e-012
1.284838e-011
1.673087e-011
2.139562e-011
2.690448e-011
3.327675e-011
4.049674e-011
4.850362e-011
5.718438e-011
6.638006e-011
7.589974e-011
8.550731e-011
9.495429e-011
1.039753e-010
1.123007e-010
1.196787e-010
1.258703e-010
1.306742e-010
1.339223e-010
1.354941e-010
1.353276e-010
1.334076e-010
1.297815e-010
1.245578e-010
1.178926e-010
1.099916e-010
1.011061e-010
9.151111e-011
8.150304e-011
7.137694e-011
6.141278e-011
5.187108e-011
4.296821e-011
3.488070e-011
2.771741e-011
2.154129e-011
1.636562e-011
1.214438e-011
8.810849e-012
6.260323e-012
4.376827e-012
3.038413e-012
2.131175e-012
1.550066e-012
1.198079e-012
1.006029e-012
9.095555e-013
8.625710e-013
8.358942e-013
8.015349e-013
7.482583e-013
6.672654e-013
5.552721e-013
4.151648e-013
2.513520e-013
7.068771e-014
-1.188649e-013
-3.105223e-013
-4.998288e-013
-6.779300e-013
-8.441686e-013
-9.969442e-013
-1.134611e-012
-1.256853e-012
-1.362602e-012
-1.455627e-012
-1.533241e-012
-1.594237e-012
-1.641995e-012
-1.677216e-012
-1.692560e-012
5.636452e-012
5.417429e-012
5.015796e-012
4.489980e-012
3.908222e-012
3.350723e-012
2.881873e-012
2.550889e-012
2.377461e-012
2.349716e-012
2.429870e-012
2.549412e-012
2.627588e-012
2.583578e-012
2.366930e-012
1.951969e-012
1.373122e-012
7.054291e-013
5.209190e-014
-4.654746e-013
-7.285714e-013
-6.369253e-013
-1.133569e-013
9.039845e-013
2.464193e-012
4.633780e-012
7.489750e-012
1.115483e-011
1.576873e-011
2.151375e-011
2.857079e-011
3.711724e-011
4.729772e-011
5.919045e-011
7.280598e-011
8.806567e-011
1.047984e-010
1.227385e-010
1.415420e-010
1.607938e-010
1.800304e-010
1.987556e-010
2.164653e-010
2.326641e-010
2.468869e-010
2.587164e-010
2.677965e-010
2.738482e-010
2.766758e-010
2.761743e-010
2.723392e-010
2.652615e-010
2.551344e-010
2.422351e-010
2.269331e-010
2.096653e-010
1.909318e-010
1.712624e-010
1.512025e-010
1.312905e-010
1.120245e-010
9.384707e-011
7.711699e-011
6.209776e-011
4.895426e-011
3.774608e-011
2.844428e-011
2.093341e-011
1.504066e-011
1.055861e-011
7.258835e-012
4.911913e-012
3.309958e-012
2.264317e-012
1.615559e-012
1.237143e-012
1.032941e-012
9.280789e-013
8.627692e-013
8.139423e-013
7.460238e-013
6.553093e-013
5.320723e-013
3.798601e-013
2.022836e-013
7.591043e-015
-1.915533e-013
-3.884923e-013
-5.806821e-013
-7.558816e-013
-9.132726e-013
-1.052250e-012
-1.171518e-012
-1.273522e-012
-1.360007e-012
-1.430563e-012
-1.486031e-012
-1.525887e-012
-1.552755e-012
-1.566664e-012
1.005609e-011
9.847695e-012
9.464724e-012
8.958198e-012
8.397599e-012
7.850988e-012
7.378883e-012
7.015303e-012
6.760422e-012
6.573914e-012
6.379734e-012
6.077468e-012
5.570707e-012
4.794631e-012
3.745947e-012
2.482513e-012
1.145441e-012
-9.467069e-014
-1.039853e-012
-1.509241e-012
-1.352563e-012
-4.597595e-013
1.245792e-012
3.836072e-012
7.403255e-012
1.208335e-011
1.808501e-011
2.569196e-011
3.524667e-011
4.712094e-011
6.168965e-011
7.926682e-011
1.000702e-010
1.241769e-010
1.515080e-010
1.818042e-010
2.146289e-010
2.493952e-010
2.853810e-010
3.217645e-010
3.576638e-010
3.921811e-010
4.244297e-010
4.535811e-010
4.788772e-010
4.996680e-010
5.154195e-010
5.257256e-010
5.303174e-010
5.290726e-010
5.220012e-010
5.092626e-010
4.911550e-010
4.681118e-010
4.406964e-010
4.095946e-010
3.755976e-010
3.395751e-010
3.024531e-010
2.651709e-010
2.286413e-010
1.937071e-010
1.610945e-010
1.313856e-010
1.049828e-010
8.210811e-011
6.279459e-011
4.691950e-011
3.422667e-011
2.436310e-011
1.692081e-011
1.147955e-011
7.629345e-012
5.001063e-012
3.278480e-012
2.194710e-012
1.551001e-012
1.188106e-012
9.881038e-013
8.826940e-013
8.030253e-013
7.261133e-013
6.253632e-013
4.963984e-013
3.345957e-013
1.488706e-013
-5.054800e-014
-2.561142e-013
-4.535444e-013
-6.403323e-013
-8.061337e-013
-9.497109e-013
-1.069162e-012
-1.169325e-012
-1.247527e-012
-1.305975e-012
-1.354593e-012
-1.385154e-012
-1.406784e-012
-1.414012e-012
1.441142e-011
1.425545e-011
1.396337e-011
1.357427e-011
1.313702e-011
1.269902e-011
1.229114e-011
1.192348e-011
1.154476e-011
1.108366e-011
1.041595e-011
9.429536e-012
8.055924e-012
6.297904e-012
4.272235e-012
2.178922e-012
2.941481e-013
-1.093126e-012
-1.715100e-012
-1.358157e-012
1.170369e-013
2.817383e-012
6.823150e-012
1.226875e-011
1.938763e-011
2.854164e-011
4.024474e-011
5.513813e-011
7.393716e-011
9.736327e-011
1.260469e-010
1.604498e-010
2.007800e-010
2.469487e-010
2.985406e-010
3.548141e-010
4.147379e-010
4.770461e-010
5.403115e-010
6.030179e-010
6.636565e-010
7.207766e-010
7.730604e-010
8.193623e-010
8.587270e-010
8.904044e-010
9.138459e-010
9.286832e-010
9.347132e-010
9.318875e-010
9.202783e-010
9.000945e-010
8.716672e-010
8.354638e-010
7.921100e-010
7.423987e-010
6.873046e-010
6.279873e-010
5.657658e-010
5.020911e-010
4.384778e-010
3.764275e-010
3.173473e-010
2.624567e-010
2.127285e-010
1.688139e-010
1.310370e-010
9.940430e-011
7.363440e-011
5.322046e-011
3.751490e-011
2.577816e-011
1.727540e-011
1.130542e-011
7.255730e-012
4.602828e-012
2.935229e-012
1.932332e-012
1.356580e-012
1.044963e-012
8.737322e-013
7.684460e-013
6.790990e-013
5.751368e-013
4.453975e-013
2.825252e-013
9.790573e-014
-1.010022e-013
-3.017219e-013
-4.932570e-013
-6.669816e-013
-8.183676e-013
-9.410371e-013
-1.041671e-012
-1.113423e-012
-1.165207e-012
-1.201230e-012
-1.223055e-012
-1.235207e-012
-1.240111e-012
1.872832e-011
1.866292e-011
1.853819e-011
1.835485e-011
1.813489e-011
1.788000e-011
1.757366e-011
1.715797e-011
1.653696e-011
1.557582e-011
1.413915e-011
1.215712e-011
9.654775e-012
6.800934e-012
3.899009e-012
1.333946e-012
-4.772839e-013
-1.163474e-012
-4.375416e-013
1.878777e-012
5.895655e-012
1.171929e-011
1.952961e-011
2.969932e-011
4.283794e-011
5.983088e-011
8.181354e-011
1.100604e-010
1.458654e-010
1.903730e-010
2.444072e-010
3.083369e-010
3.819648e-010
4.644772e-010
5.544568e-010
6.499583e-010
7.486371e-010
8.479062e-010
9.451382e-010
1.037831e-009
1.123780e-009
1.201186e-009
1.268724e-009
1.325567e-009
1.371331e-009
1.406012e-009
1.429873e-009
1.443322e-009
1.446800e-009
1.440683e-009
1.425215e-009
1.400479e-009
1.366417e-009
1.322904e-009
1.269832e-009
1.207251e-009
1.135490e-009
1.055273e-009
9.677864e-010
8.746944e-010
7.780984e-010
6.804006e-010
5.841508e-010
4.918389e-010
4.056886e-010
3.274984e-010
2.585062e-010
1.993511e-010
1.500793e-010
1.102212e-010
7.892006e-011
5.506329e-011
3.742491e-011
2.477546e-011
1.598445e-011
1.007123e-011
6.225502e-012
3.816538e-012
2.364905e-012
1.534690e-012
1.077469e-012
8.391520e-013
7.069574e-013
6.098378e-013
5.108387e-013
3.899978e-013
2.379072e-013
6.022928e-014
-1.325568e-013
-3.221229e-013
-4.989441e-013
-6.551987e-013
-7.830753e-013
-8.819374e-013
-9.512255e-013
-9.967941e-013
-1.025013e-012
-1.036682e-012
-1.040055e-012
-1.041406e-012
2.310152e-011
2.315510e-011
2.324565e-011
2.333898e-011
2.339628e-011
2.335196e-011
2.310106e-011
2.250972e-011
2.140146e-011
1.961590e-011
1.707035e-011
1.382125e-011
1.011113e-011
6.355304e-012
3.093277e-012
8.888590e-013
2.441611e-013
1.526631e-012
4.948386e-012
1.061750e-011
1.863069e-011
2.923547e-011
4.298267e-011
6.085587e-011
8.430823e-011
1.152248e-010
1.557475e-010
2.080390e-010
2.739708e-010
3.548217e-010
4.509818e-010
5.617546e-010
6.852471e-010
8.183954e-010
9.571250e-010
1.096655e-009
1.231873e-009
1.357809e-009
1.470080e-009
1.565294e-009
1.641334e-009
1.697525e-009
1.734620e-009
1.754643e-009
1.760606e-009
1.756130e-009
1.745002e-009
1.730749e-009
1.716224e-009
1.703282e-009
1.692569e-009
1.683449e-009
1.674067e-009
1.661590e-009
1.642553e-009
1.613313e-009
1.570553e-009
1.511766e-009
1.435643e-009
1.342346e-009
1.233566e-009
1.112397e-009
9.830365e-010
8.503155e-010
7.192057e-010
5.943003e-010
4.794136e-010
3.772948e-010
2.895124e-010
2.164982e-010
1.577069e-010
1.118638e-010
7.724086e-011
5.190408e-011
3.393654e-011
2.159273e-011
1.337650e-011
8.081206e-012
4.789459e-012
2.818994e-012
1.693103e-012
1.085150e-012
7.751099e-013
6.197359e-013
5.271227e-013
4.457716e-013
3.405372e-013
2.093166e-013
4.961732e-014
-1.240677e-013
-2.987132e-013
-4.549764e-013
-5.870923e-013
-6.881554e-013
-7.560065e-013
-7.991618e-013
-8.176436e-013
-8.227491e-013
-8.232905e-013
-8.210918e-013
2.766134e-011
2.784768e-011
2.817753e-011
2.857070e-011
2.890277e-011
2.900230e-011
2.865612e-011
2.762074e-011
2.566900e-011
2.269266e-011
1.876535e-011
1.420789e-011
9.580355e-012
5.600195e-012
3.025363e-012
2.514054e-012
4.533386e-012
9.317539e-012
1.693714e-011
2.745508e-011
4.116846e-011
5.886496e-011
8.203029e-011
1.129426e-010
1.545753e-010
2.103285e-010
2.835807e-010
3.771310e-010
4.926191e-010
6.299483e-010
7.868754e-010
9.587441e-010
1.138491e-009
1.316978e-009
1.483611e-009
1.627242e-009
1.737263e-009
1.804767e-009
1.823611e-009
1.791237e-009
1.709167e-009
1.583078e-009
1.422430e-009
1.239752e-009
1.049580e-009
8.672346e-010
7.074821e-010
5.832689e-010
5.045600e-010
4.774414e-010
5.035358e-010
5.797973e-010
6.987292e-010
8.490052e-010
1.016499e-009
1.185590e-009
1.340671e-009
1.467663e-009
1.555378e-009
1.596554e-009
1.588424e-009
1.532739e-009
1.435269e-009
1.304846e-009
1.152122e-009
9.882569e-010
8.236752e-010
6.671476e-010
5.251838e-010
4.018427e-010
2.988670e-010
2.160725e-010
1.518569e-010
1.037523e-010
6.891263e-011
4.449203e-011
2.791585e-011
1.701492e-011
1.006934e-011
5.792686e-012
3.255178e-012
1.817819e-012
1.055326e-012
6.820890e-013
5.177294e-013
4.441281e-013
3.917503e-013
3.181709e-013
2.156028e-013
7.933725e-014
-7.240703e-014
-2.203180e-013
-3.512109e-013
-4.553290e-013
-5.256356e-013
-5.663999e-013
-5.815215e-013
-5.844039e-013
-5.783777e-013
-5.764364e-013
3.255436e-011
3.286818e-011
3.342438e-011
3.407013e-011
3.457096e-011
3.462424e-011
3.387538e-011
3.200155e-011
2.880980e-011
2.436058e-011
1.903526e-011
1.354821e-011
8.832779e-012
5.885023e-012
5.563769e-012
8.458735e-012
1.481679e-011
2.463757e-011
3.789236e-011
5.488851e-011
7.668094e-011
1.054131e-010
1.444725e-010
1.983536e-010
2.721742e-010
3.709052e-010
4.983638e-010
6.561094e-010
8.423380e-010
1.050941e-009
1.270873e-009
1.485981e-009
1.675495e-009
1.815224e-009
1.879464e-009
1.843479e-009
1.686323e-009
1.393594e-009
9.598056e-010
3.900008e-010
-2.996166e-010
-1.082136e-009
-1.921432e-009
-2.774542e-009
-3.594702e-009
-4.334748e-009
-4.950595e-009
-5.404546e-009
-5.668171e-009
-5.724567e-009
-5.569810e-009
-5.213456e-009
-4.678051e-009
-3.997555e-009
-3.214811e-009
-2.378154e-009
-1.537496e-009
-7.401993e-010
-2.720161e-011
5.701732e-010
1.032316e-009
1.352104e-009
1.534274e-009
1.593524e-009
1.551697e-009
1.434522e-009
1.268373e-009
1.077538e-009
8.822697e-010
6.977108e-010
5.337295e-010
3.953991e-010
2.839245e-010
1.977528e-010
1.336768e-010
8.773141e-011
5.591561e-011
3.459373e-011
2.075462e-011
1.204763e-011
6.745693e-012
3.632217e-012
1.894445e-012
9.906239e-013
5.739698e-013
4.182207e-013
3.791885e-013
3.669915e-013
3.387075e-013
2.683317e-013
1.667103e-013
4.359306e-014
-7.441974e-014
-1.773953e-013
-2.528413e-013
-2.948370e-013
-3.157183e-013
-3.188802e-013
-3.130631e-013
-3.098139e-013
3.792774e-011
3.833691e-011
3.904291e-011
3.979394e-011
4.022407e-011
3.987146e-011
3.827771e-011
3.512140e-011
3.037332e-011
2.444016e-011
1.816111e-011
1.270542e-011
9.354316e-012
9.224622e-012
1.306549e-011
2.114696e-011
3.335237e-011
4.948680e-011
6.979547e-011
9.558827e-011
1.298040e-010
1.772637e-010
2.444544e-010
3.387503e-010
4.670847e-010
6.341945e-010
8.405697e-010
1.080298e-009
1.339049e-009
1.592444e-009
1.805239e-009
1.931715e-009
1.917587e-009
1.703634e-009
1.230901e-009
4.470499e-010
-6.868919e-010
-2.190231e-009
-4.057707e-009
-6.256646e-009
-8.726670e-009
-1.138199e-008
-1.411607e-008
-1.680819e-008
-1.933125e-008
-2.156010e-008
-2.337993e-008
-2.469394e-008
-2.543002e-008
-2.554584e-008
-2.503222e-008
-2.391435e-008
-2.225072e-008
-2.012966e-008
-1.766354e-008
-1.498094e-008
-1.221731e-008
-9.504783e-009
-6.962379e-009
-4.687371e-009
-2.749000e-009
-1.185268e-009
-3.108510e-012
8.181926e-010
1.320997e-009
1.561735e-009
1.602981e-009
1.506273e-009
1.326543e-009
1.108573e-009
8.855539e-010
6.793671e-010
5.021282e-010
3.583707e-010
2.474040e-010
1.654304e-010
1.072491e-010
6.745016e-011
4.114314e-011
2.429897e-011
1.384456e-011
7.557565e-012
3.913861e-012
1.910317e-012
9.007735e-013
4.652894e-013
3.390475e-013
3.520991e-013
3.992018e-013
4.189848e-013
3.927775e-013
3.252100e-013
2.340230e-013
1.435684e-013
6.790499e-014
1.644247e-014
-9.877189e-015
-2.083695e-014
-2.164403e-014
-2.025842e-014
4.388844e-011
4.432426e-011
4.501710e-011
4.559901e-011
4.555664e-011
4.429699e-011
4.133747e-011
3.651815e-011
3.017208e-011
2.322155e-011
1.705479e-011
1.325182e-011
1.325405e-011
1.802818e-011
2.789841e-011
4.260414e-011
6.168852e-011
8.521979e-011
1.146963e-010
1.539344e-010
2.094818e-010
2.903458e-010
4.067345e-010
5.679083e-010
7.791764e-010
1.038246e-009
1.331166e-009
1.628076e-009
1.879386e-009
2.012996e-009
1.933580e-009
1.524864e-009
6.555899e-010
-8.106500e-010
-3.002213e-009
-6.024224e-009
-9.943193e-009
-1.477364e-008
-2.046859e-008
-2.691555e-008
-3.393833e-008
-4.130485e-008
-4.873978e-008
-5.594090e-008
-6.259738e-008
-6.840882e-008
-7.310347e-008
-7.645477e-008
-7.829530e-008
-7.852760e-008
-7.713116e-008
-7.416520e-008
-6.976674e-008
-6.414366e-008
-5.756272e-008
-5.033296e-008
-4.278518e-008
-3.524914e-008
-2.803037e-008
-2.138909e-008
-1.552344e-008
-1.055933e-008
-6.547879e-009
-3.470649e-009
-1.251575e-009
2.265984e-010
1.103974e-009
1.526040e-009
1.629215e-009
1.530814e-009
1.323743e-009
1.075473e-009
8.302334e-010
6.131619e-010
4.351888e-010
2.977739e-010
1.968966e-010
1.260401e-010
7.819470e-011
4.701500e-011
2.734179e-011
1.529719e-011
8.149355e-012
4.066284e-012
1.866026e-012
7.923747e-013
3.753023e-013
3.057239e-013
3.893248e-013
5.003219e-013
5.788127e-013
5.979458e-013
5.622533e-013
4.998160e-013
4.319803e-013
3.736619e-013
3.323345e-013
3.095539e-013
2.955710e-013
2.936201e-013
5.046042e-011
5.079713e-011
5.121108e-011
5.120705e-011
5.013869e-011
4.738047e-011
4.259323e-011
3.599234e-011
2.849158e-011
2.163565e-011
1.731599e-011
1.733072e-011
2.294345e-011
3.457833e-011
5.182951e-011
7.389951e-011
1.005057e-010
1.331964e-010
1.766303e-010
2.393226e-010
3.332891e-010
4.722115e-010
6.680421e-010
9.261313e-010
1.239010e-009
1.579001e-009
1.889927e-009
2.078648e-009
2.007617e-009
1.490412e-009
2.924622e-010
-1.860955e-009
-5.268203e-009
-1.022635e-008
-1.699976e-008
-2.578565e-008
-3.668120e-008
-4.965702e-008
-6.454104e-008
-8.101523e-008
-9.862582e-008
-1.168055e-007
-1.349053e-007
-1.522319e-007
-1.680876e-007
-1.818102e-007
-1.928090e-007
-2.005970e-007
-2.048173e-007
-2.052634e-007
-2.018923e-007
-1.948304e-007
-1.843707e-007
-1.709604e-007
-1.551796e-007
-1.377091e-007
-1.192900e-007
-1.006765e-007
-8.258568e-008
-6.564916e-008
-5.037235e-008
-3.710573e-008
-2.603245e-008
-1.717335e-008
-1.040820e-008
-5.509051e-009
-2.180154e-009
-9.806144e-011
1.053434e-009
1.557284e-009
1.647552e-009
1.503682e-009
1.252659e-009
9.763585e-010
7.213918e-010
5.092471e-010
3.452499e-010
2.256374e-010
1.425440e-010
8.720455e-011
5.167835e-011
2.959547e-011
1.626862e-011
8.465490e-012
4.074974e-012
1.761024e-012
6.895358e-013
3.297088e-013
3.440166e-013
5.110009e-013
6.978458e-013
8.286851e-013
8.855274e-013
8.787152e-013
8.324124e-013
7.721162e-013
7.154350e-013
6.731650e-013
6.449523e-013
6.323938e-013
5.754616e-011
5.759202e-011
5.734704e-011
5.620103e-011
5.346649e-011
4.865541e-011
4.181677e-011
3.379139e-011
2.621474e-011
2.124938e-011
2.107892e-011
2.733191e-011
4.061469e-011
6.040980e-011
8.549629e-011
1.150671e-010
1.504498e-010
1.969799e-010
2.652164e-010
3.706028e-010
5.309451e-010
7.613633e-010
1.066731e-009
1.431603e-009
1.807548e-009
2.097902e-009
2.140646e-009
1.691225e-009
4.086827e-010
-2.150348e-009
-6.524783e-009
-1.332527e-008
-2.319164e-008
-3.673321e-008
-5.445762e-008
-7.669698e-008
-1.035421e-007
-1.347952e-007
-1.699485e-007
-2.081929e-007
-2.484537e-007
-2.894504e-007
-3.297705e-007
-3.679503e-007
-4.025548e-007
-4.322511e-007
-4.558726e-007
-4.724719e-007
-4.813626e-007
-4.821503e-007
-4.747538e-007
-4.594153e-007