# vtk DataFile Version 3.0
vtk output
ASCII
DATASET STRUCTURED_POINTS
DIMENSIONS 100 100 1
SPACING 1 1 1
ORIGIN 0 0 0
POINT_DATA 10000
SCALARS SFBox_profile double
LOOKUP_TABLE default 
0.000000e+000
0.000000e+000
0.000000e+000
0.000000e+000
0.000000e+000
0.000000e+000
0.000000e+000
0.000000e+000
0.000000e+000
0.000000e+000
0.000000e+000
0.000000e+000
0.000000e+000
0.000000e+000
0.000000e+000
0.000000e+000
0.000000e+000
0.000000e+000
0.000000e+000
0.000000e+000
0.000000e+000
0.000000e+000
0.000000e+000
0.000000e+000
0.000000e+000
0.000000e+000
0.000000e+000
0.000000e+000
0.000000e+000
0.000000e+000
0.000000e+000
0.000000e+000
0.000000e+000
0.000000e+000
0.000000e+000
0.000000e+000
0.000000e+000
0.000000e+000
0.000000e+000
0.000000e+000
0.000000e+000
0.000000e+000
0.000000e+000
0.000000e+000
0.000000e+000
0.000000e+000
0.000000e+000
0.000000e+000
0.000000e+000
0.000000e+000
0.000000e+000
0.000000e+000
0.000000e+000
0.000000e+000
0.000000e+000
0.000000e+000
0.000000e+000
0.000000e+000
0.000000e+000
0.000000e+000
0.000000e+000
0.000000e+000
0.000000e+000
0.000000e+000
0.000000e+000
0.000000e+000
0.000000e+000
0.000000e+000
0.000000e+000
0.000000e+000
0.000000e+000
0.000000e+000
0.000000e+000
0.000000e+000
0.000000e+000
0.000000e+000
0.000000e+000
0.000000e+000
0.000000e+000
0.000000e+000
0.000000e+000
0.000000e+000
0.000000e+000
0.000000e+000
0.000000e+000
0.000000e+000
0.000000e+000
0.000000e+000
0.000000e+000
0.000000e+000
0.000000e+000
0.000000e+000
0.000000e+000
0.000000e+000
0.000000e+000
0.000000e+000
0.000000e+000
0.000000e+000
0.000000e+000
0.000000e+000
1.575852e-009
9.151245e-010
-3.479831e-011
-8.084188e-010
-1.104947e-009
-9.233458e-010
-5.030419e-010
-1.259901e-010
7.734700e-011
1.851870e-010
3.725121e-010
7.213348e-010
1.103551e-009
1.236159e-009
8.807755e-010
4.586261e-011
-9.630503e-010
-1.697591e-009
-1.830768e-009
-1.352849e-009
-5.638189e-010
1.311343e-010
4.791781e-010
5.132251e-010
4.780402e-010
6.166491e-010
9.806360e-010
1.400770e-009
1.628406e-009
1.530224e-009
1.184659e-009
8.105217e-010
5.907412e-010
5.337855e-010
4.812789e-010
2.510954e-010
-2.036367e-010
-7.502778e-010
-1.182163e-009
-1.384566e-009
-1.421887e-009
-1.473717e-009
-1.675817e-009
-2.003168e-009
-2.295540e-009
-2.401850e-009
-2.315435e-009
-2.180257e-009
-2.162539e-009
-2.302649e-009
-2.480323e-009
-2.524878e-009
-2.370978e-009
-2.118482e-009
-1.941057e-009
-1.925815e-009
-1.990172e-009
-1.953369e-009
-1.699753e-009
-1.286280e-009
-8.953787e-010
-6.734964e-010
-5.999821e-010
-5.057612e-010
-2.280441e-010
2.351992e-010
7.095143e-010
9.845502e-010
9.905885e-010
8.569363e-010
7.986033e-010
9.256809e-010
1.137926e-009
1.197031e-009
9.204951e-010
3.390553e-010
-3.110847e-010
-7.551514e-010
-8.714123e-010
-7.557194e-010
-6.127097e-010
-5.682006e-010
-5.597212e-010
-3.975154e-010
5.020229e-011
6.966309e-010
1.236328e-009
1.323368e-009
8.111486e-010
-1.140728e-010
-1.006360e-009
-1.403600e-009
-1.093432e-009
-2.399124e-010
7.034990e-010
1.241303e-009
1.101445e-009
3.741563e-010
-5.443474e-010
-1.165837e-009
5.670232e-010
2.647736e-010
-1.434257e-010
-4.150401e-010
-4.080789e-010
-1.595630e-010
1.494563e-010
3.171584e-010
2.519960e-010
2.618736e-011
-1.824987e-010
-2.194240e-010
-6.216780e-011
1.668253e-010
2.926440e-010
2.182139e-010
-2.787473e-012
-2.044080e-010
-2.306496e-010
-5.176103e-011
2.112914e-010
3.726813e-010
3.151155e-010
7.295901e-011
-1.954096e-010
-3.244901e-010
-2.603778e-010
-9.323684e-011
1.913464e-011
-2.336485e-011
-1.861537e-010
-3.309112e-010
-3.292582e-010
-1.677811e-010
4.100670e-011
1.514274e-010
1.050757e-010
-2.173825e-011
-8.447372e-011
4.719710e-012
2.005858e-010
3.636933e-010
3.817962e-010
2.675010e-010
1.455388e-010
1.403664e-010
2.644521e-010
4.080401e-010
4.400269e-010
3.283793e-010
1.699156e-010
1.016633e-010
1.748165e-010
3.073491e-010
3.594747e-010
2.629424e-010
8.502460e-011
-3.229001e-011
-2.624427e-012
1.244833e-010
2.074352e-010
1.413547e-010
-4.505044e-011
-2.126864e-010
-2.351145e-010
-1.114490e-010
3.168871e-011
5.120871e-011
-8.602824e-011
-2.719158e-010
-3.479197e-010
-2.395402e-010
-1.973773e-011
1.513000e-010
1.577701e-010
2.065803e-011
-1.244105e-010
-1.429219e-010
-1.382644e-011
1.532941e-010
2.089319e-010
8.811360e-011
-1.310541e-010
-2.812110e-010
-2.308807e-010
1.368771e-011
3.055204e-010
4.544639e-010
3.552540e-010
5.762352e-011
-2.661858e-010
-4.303670e-010
-3.474474e-010
-7.440148e-011
2.284535e-010
3.931589e-010
3.350779e-010
9.115692e-011
-2.074127e-010
-4.066037e-010
-7.432155e-010
-5.340052e-010
-1.922455e-010
1.822309e-010
5.041895e-010
7.168168e-010
7.812237e-010
6.641671e-010
3.476724e-010
-1.383730e-010
-6.871753e-010
-1.124230e-009
-1.268046e-009
-1.017943e-009
-4.180364e-010
3.468932e-010
1.029186e-009
1.429009e-009
1.475109e-009
1.231480e-009
8.337637e-010
4.033821e-010
-3.407806e-012
-3.861289e-010
-7.525112e-010
-1.080816e-009
-1.324632e-009
-1.450596e-009
-1.468513e-009
-1.421547e-009
-1.343813e-009
-1.226399e-009
-1.027199e-009
-7.182901e-010
-3.261203e-010
7.692566e-011
4.260407e-010
7.140718e-010
9.895095e-010
1.301676e-009
1.644071e-009
1.951320e-009
2.155334e-009
2.248539e-009
2.292844e-009
2.363566e-009
2.480379e-009
2.591227e-009
2.625132e-009
2.563323e-009
2.459827e-009
2.391158e-009
2.383359e-009
2.386768e-009
2.322828e-009
2.157762e-009
1.932490e-009
1.720945e-009
1.557936e-009
1.406118e-009
1.192998e-009
8.816968e-010
5.082439e-010
1.517008e-010
-1.326301e-010
-3.537962e-010
-5.640514e-010
-7.995171e-010
-1.039790e-009
-1.222084e-009
-1.292539e-009
-1.244587e-009
-1.110803e-009
-9.215459e-010
-6.747402e-010
-3.480438e-010
5.780343e-011
4.863945e-010
8.367434e-010
1.012292e-009
9.701057e-010
7.351040e-010
3.761954e-010
-2.819777e-011
-4.058532e-010
-6.842622e-010
-7.858167e-010
-6.500491e-010
-2.807949e-010
2.165345e-010
6.496471e-010
8.186210e-010
6.245526e-010
1.416547e-010
-4.010725e-010
-7.309996e-010
-6.789625e-010
-2.774191e-010
2.514558e-010
6.157979e-010
-1.480654e-009
-8.857355e-010
-2.164658e-011
7.072018e-010
1.041476e-009
9.733248e-010
6.829735e-010
3.700215e-010
1.100838e-010
-1.610909e-010
-5.346075e-010
-9.848840e-010
-1.319854e-009
-1.280267e-009
-7.279191e-010
2.143195e-010
1.185367e-009
1.774798e-009
1.758916e-009
1.224300e-009
4.940563e-010
-8.905442e-011
-3.684735e-010
-4.290759e-010
-4.792547e-010
-6.653573e-010
-9.640225e-010
-1.223396e-009
-1.300889e-009
-1.175086e-009
-9.449925e-010
-7.325562e-010
-5.825032e-010
-4.436680e-010
-2.357414e-010
6.843887e-011
4.187713e-010
7.345007e-010
9.702107e-010
1.140695e-009
1.290530e-009
1.445913e-009
1.595227e-009
1.709460e-009
1.774486e-009
1.802201e-009
1.815091e-009
1.825892e-009
1.833336e-009
1.832789e-009
1.824710e-009
1.810987e-009
1.787256e-009
1.744782e-009
1.681559e-009
1.607477e-009
1.532944e-009
1.451153e-009
1.336298e-009
1.165813e-009
9.466222e-010
7.153232e-010
5.059765e-010
3.153272e-010
1.042990e-010
-1.585298e-010
-4.513144e-010
-7.009477e-010
-8.403249e-010
-8.712726e-010
-8.689907e-010
-9.130241e-010
-1.001280e-009
-1.028979e-009
-8.635508e-010
-4.603455e-010
7.938244e-011
5.637860e-010
8.388701e-010
8.848971e-010
8.006758e-010
6.918939e-010
5.645094e-010
3.229277e-010
-1.166935e-010
-6.915488e-010
-1.159773e-009
-1.222546e-009
-7.314997e-010
1.647538e-010
1.052829e-009
1.467076e-009
1.160355e-009
2.652403e-010
-7.597468e-010
-1.374833e-009
-1.256100e-009
-4.755851e-010
5.372489e-010
1.230490e-009
-1.241890e-009
-5.735374e-010
3.272973e-010
9.292335e-010
9.321108e-010
4.274715e-010
-1.975361e-010
-5.363742e-010
-4.299709e-010
-4.786605e-011
2.623920e-010
2.432719e-010
-8.219069e-011
-4.350261e-010
-5.005588e-010
-1.790455e-010
3.241415e-010
6.419456e-010
5.191003e-010
9.836981e-012
-5.523047e-010
-7.923941e-010
-5.606003e-010
-2.722570e-011
4.593420e-010
6.342454e-010
4.934017e-010
2.588818e-010
1.776347e-010
3.252291e-010
5.674593e-010
6.931539e-010
5.933199e-010
3.374340e-010
9.704875e-011
-3.495772e-012
2.058526e-011
4.690398e-011
-3.918454e-011
-2.507859e-010
-4.993731e-010
-6.756140e-010
-7.358063e-010
-7.254410e-010
-7.307309e-010
-8.055009e-010
-9.321093e-010
-1.041259e-009
-1.069395e-009
-1.007975e-009
-9.087636e-010
-8.425177e-010
-8.423030e-010
-8.751344e-010
-8.667461e-010
-7.637519e-010
-5.839271e-010
-4.087691e-010
-3.174640e-010
-3.149788e-010
-3.204834e-010
-2.353437e-010
-3.706002e-011
1.869863e-010
3.064406e-010
2.649253e-010
1.418756e-010
9.341119e-011
2.132756e-010
4.349872e-010
5.710249e-010
4.676851e-010
1.462699e-010
-1.970430e-010
-3.427439e-010
-2.270840e-010
5.891201e-012
1.292876e-010
3.237869e-011
-1.775760e-010
-2.638140e-010
-7.097327e-011
3.175290e-010
6.144701e-010
5.413239e-010
5.784312e-011
-5.722690e-010
-9.401289e-010
-7.681791e-010
-1.102598e-010
6.651483e-010
1.098515e-009
9.224109e-010
2.242397e-010
-6.070209e-010
-1.108941e-009
-1.007804e-009
-3.654539e-010
4.630991e-010
1.028219e-009
-3.230626e-010
9.707480e-011
5.923229e-010
7.475489e-010
3.590559e-010
-4.178050e-010
-1.147119e-009
-1.372785e-009
-9.027061e-010
6.162080e-011
1.036299e-009
1.540400e-009
1.373569e-009
7.071499e-010
-6.374849e-011
-5.949464e-010
-7.968373e-010
-8.282568e-010
-9.037359e-010
-1.079160e-009
-1.191807e-009
-1.001303e-009
-4.116381e-010
4.135302e-010
1.143096e-009
1.508233e-009
1.486226e-009
1.292887e-009
1.194775e-009
1.296856e-009
1.474606e-009
1.495063e-009
1.216786e-009
7.022991e-010
1.590666e-010
-2.300172e-010
-4.411408e-010
-6.039506e-010
-8.729060e-010
-1.290629e-009
-1.754704e-009
-2.106428e-009
-2.260360e-009
-2.267238e-009
-2.264159e-009
-2.359011e-009
-2.545579e-009
-2.716043e-009
-2.756702e-009
-2.646189e-009
-2.474841e-009
-2.368989e-009
-2.382780e-009
-2.449053e-009
-2.433789e-009
-2.251333e-009
-1.942090e-009
-1.641474e-009
-1.461306e-009
-1.385435e-009
-1.276266e-009
-9.949922e-010
-5.340269e-010
-4.055799e-011
2.993694e-010
4.208588e-010
4.411469e-010
5.588064e-010
8.716968e-010
1.273040e-009
1.523630e-009
1.445254e-009
1.070167e-009
6.148035e-010
2.976388e-010
1.590561e-010
4.245440e-011
-2.431620e-010
-7.184699e-010
-1.167919e-009
-1.280209e-009
-8.902251e-010
-1.304947e-010
6.306091e-010
1.020904e-009
8.962108e-010
4.095765e-010
-1.163770e-010
-4.068036e-010
-3.859432e-010
-1.749212e-010
3.243608e-011
1.083311e-010
5.055383e-011
-5.500905e-011
-1.166788e-010
-9.654131e-011
-1.632484e-011
7.414839e-011
1.307411e-010
6.015857e-010
5.868754e-010
4.855149e-010
2.093780e-010
-2.663312e-010
-8.400666e-010
-1.285133e-009
-1.340758e-009
-8.631226e-010
5.017969e-011
1.057042e-009
1.720238e-009
1.737415e-009
1.111136e-009
1.441995e-010
-7.417407e-010
-1.244265e-009
-1.316709e-009
-1.122795e-009
-8.650798e-010
-6.309332e-010
-3.712315e-010
-8.311961e-012
4.386511e-010
8.304585e-010
1.009974e-009
9.375842e-010
7.356051e-010
5.955856e-010
6.230574e-010
7.513217e-010
7.990460e-010
6.244334e-010
2.466241e-010
-1.669563e-010
-4.350676e-010
-5.049560e-010
-4.842475e-010
-5.391891e-010
-7.483317e-010
-1.035799e-009
-1.238379e-009
-1.246684e-009
-1.099106e-009
-9.491786e-010
-9.354879e-010
-1.066188e-009
-1.217072e-009
-1.244256e-009
-1.113285e-009
-9.315069e-010
-8.541720e-010
-9.457223e-010
-1.119215e-009
-1.210015e-009
-1.120948e-009
-9.098319e-010
-7.383249e-010
-7.242642e-010
-8.291144e-010
-8.850132e-010
-7.423178e-010
-4.078004e-010
-4.739164e-011
1.537706e-010
1.521370e-010
8.352915e-011
1.417395e-010
4.040042e-010
7.579242e-010
9.945425e-010
9.842886e-010
7.794295e-010
5.538300e-010
4.371152e-010
3.942975e-010
2.605289e-010
-9.756493e-011
-6.343590e-010
-1.120649e-009
-1.290121e-009
-1.021261e-009
-4.162742e-010
2.714914e-010
7.911365e-010
1.010187e-009
9.272121e-010
6.108439e-010
1.452961e-010
-3.699504e-010
-7.930745e-010
-9.521389e-010
-7.282535e-010
-1.627765e-010
5.061040e-010
9.384976e-010
8.842556e-010
3.506633e-010
-3.756727e-010
-8.843570e-010
1.029303e-009
5.778971e-010
-4.288475e-011
-5.056592e-010
-6.467362e-010
-5.326180e-010
-3.528365e-010
-2.425466e-010
-1.838281e-010
-5.947125e-011
1.984570e-010
5.027844e-010
6.490741e-010
4.754894e-010
1.558195e-011
-4.877502e-010
-7.319278e-010
-5.615592e-010
-7.711570e-011
4.360737e-010
7.022714e-010
6.259124e-010
3.179405e-010
-2.341039e-011
-2.673957e-010
-4.169654e-010
-5.501471e-010
-7.094711e-010
-8.482863e-010
-8.794313e-010
-7.713825e-010
-5.926768e-010
-4.565354e-010
-4.150757e-010
-4.042952e-010
-2.971099e-010
-2.113481e-011
3.661108e-010
7.174761e-010
9.203838e-010
9.939768e-010
1.068935e-009
1.265063e-009
1.576698e-009
1.871913e-009
2.008945e-009
1.964802e-009
1.857224e-009
1.837611e-009
1.951895e-009
2.097912e-009
2.120072e-009
1.954819e-009
1.691783e-009
1.492606e-009
1.441802e-009
1.468378e-009
1.412137e-009
1.174025e-009
8.111908e-010
4.883913e-010
3.307556e-010
3.139682e-010
2.921216e-010
1.352552e-010
-1.515724e-010
-4.354143e-010
-5.771612e-010
-5.514078e-010
-4.547523e-010
-4.013273e-010
-4.099042e-010
-3.908420e-010
-2.431178e-010
3.309614e-011
3.158740e-010
4.526565e-010
3.792978e-010
1.612640e-010
-7.236395e-011
-2.322245e-010
-3.116787e-010
-3.388768e-010
-3.016103e-010
-1.373996e-010
1.854686e-010
5.705472e-010
7.907490e-010
6.223783e-010
3.425870e-011
-7.199338e-010
-1.207571e-009
-1.080104e-009
-3.239530e-010
6.826565e-010
1.368441e-009
1.312114e-009
5.135123e-010
-5.862803e-010
-1.357944e-009
9.286048e-010
1.990167e-010
-7.000147e-010
-1.114797e-009
-7.471450e-010
1.594125e-010
1.005878e-009
1.250436e-009
7.572306e-010
-1.483355e-010
-9.323094e-010
-1.214490e-009
-9.810132e-010
-5.157092e-010
-1.335875e-010
6.105751e-011
2.072729e-010
5.046561e-010
9.835116e-010
1.428474e-009
1.523490e-009
1.099862e-009
2.829448e-010
-5.830699e-010
-1.170788e-009
-1.376718e-009
-1.342624e-009
-1.293171e-009
-1.340051e-009
-1.415121e-009
-1.369290e-009
-1.127479e-009
-7.531721e-010
-3.739378e-010
-5.375790e-011
2.581828e-010
6.557034e-010
1.158883e-009
1.673702e-009
2.070755e-009
2.304859e-009
2.455037e-009
2.643020e-009
2.909903e-009
3.173723e-009
3.311297e-009
3.283903e-009
3.181451e-009
3.139524e-009
3.209835e-009
3.311813e-009
3.313541e-009
3.162407e-009
2.936560e-009
2.766641e-009
2.705571e-009
2.675093e-009
2.541150e-009
2.242970e-009
1.849178e-009
1.488430e-009
1.226428e-009
1.011627e-009
7.399527e-010
3.687985e-010
-3.639192e-011
-3.679430e-010
-5.831057e-010
-7.395280e-010
-9.205481e-010
-1.126920e-009
-1.249747e-009
-1.160191e-009
-8.329883e-010
-3.821987e-010
2.961124e-011
3.226343e-010
5.420127e-010
7.662885e-010
9.722984e-010
1.000681e-009
6.806161e-010
1.958529e-011
-7.160244e-010
-1.130230e-009
-9.647656e-010
-3.053386e-010
4.429253e-010
8.120746e-010
5.846913e-010
-5.840037e-011
-6.613260e-010
-8.010663e-010
-3.685989e-010
3.629587e-010
9.206562e-010
9.378361e-010
3.855817e-010
-4.117209e-010
-9.785109e-010
5.841306e-010
-1.535304e-010
-1.021368e-009
-1.302315e-009
-6.672820e-010
5.915250e-010
1.736565e-009
2.051932e-009
1.297683e-009
-1.411554e-010
-1.501683e-009
-2.115894e-009
-1.793659e-009
-8.719849e-010
7.492650e-011
6.353313e-010
7.791368e-010
7.620664e-010
8.294281e-010
9.810238e-010
9.892828e-010
6.385733e-010
-3.599513e-011
-7.275347e-010
-1.078731e-009
-9.574260e-010
-5.508107e-010
-2.007855e-010
-1.260460e-010
-2.675934e-010
-3.769092e-010
-2.506211e-010
1.029926e-010
5.014732e-010
7.719507e-010
8.983786e-010
1.002334e-009
1.196073e-009
1.463547e-009
1.683051e-009
1.756348e-009
1.706312e-009
1.646708e-009
1.663249e-009
1.732759e-009
1.760774e-009
1.691440e-009
1.570778e-009
1.498454e-009
1.523002e-009
1.593520e-009
1.617849e-009
1.562647e-009
1.487226e-009
1.475687e-009
1.541709e-009
1.609436e-009
1.591352e-009
1.478804e-009
1.346570e-009
1.265907e-009
1.221354e-009
1.125306e-009
9.192331e-010
6.522871e-010
4.449147e-010
3.651558e-010
3.448975e-010
2.334315e-010
-5.145642e-011
-4.219406e-010
-6.781710e-010
-6.823217e-010
-4.843054e-010
-2.713125e-010
-1.806118e-010
-1.546799e-010
9.801073e-012
4.457952e-010
1.026005e-009
1.389016e-009
1.191365e-009
3.940229e-010
-6.531793e-010
-1.412026e-009
-1.500074e-009
-9.276344e-010
-6.503304e-011
6.168260e-010
8.340760e-010
6.135256e-010
2.026704e-010
-1.304465e-010
-2.535670e-010
-1.966702e-010
-7.272876e-011
2.079094e-011
5.067002e-011
3.736623e-011
1.829928e-011
2.150570e-010
-2.089884e-010
-7.101559e-010
-8.612156e-010
-4.377351e-010
4.134397e-010
1.230033e-009
1.500469e-009
9.912974e-010
-7.342341e-011
-1.117402e-009
-1.558266e-009
-1.176835e-009
-2.560939e-010
6.150385e-010
9.395119e-010
6.269019e-010
1.762747e-012
-4.823902e-010
-5.855299e-010
-4.098509e-010
-2.336769e-010
-2.198307e-010
-2.648618e-010
-1.170975e-010
3.566517e-010
1.009851e-009
1.514296e-009
1.630743e-009
1.406749e-009
1.124795e-009
1.052719e-009
1.224088e-009
1.438428e-009
1.463091e-009
1.239605e-009
9.107748e-010
6.654118e-010
5.645647e-010
5.113883e-010
3.730659e-010
1.184725e-010
-1.623206e-010
-3.587903e-010
-4.451202e-010
-4.854618e-010
-5.498691e-010
-6.410724e-010
-7.066404e-010
-7.096363e-010
-6.701542e-010
-6.328977e-010
-6.063949e-010
-5.512824e-010
-4.332985e-010
-2.754573e-010
-1.405774e-010
-5.731040e-011
2.375288e-011
1.821825e-010
4.298333e-010
6.727954e-010
7.909643e-010
7.659505e-010
7.212598e-010
8.147652e-010
1.075696e-009
1.350125e-009
1.424971e-009
1.223814e-009
8.847544e-010
6.341379e-010
5.683445e-010
5.555622e-010
3.648958e-010
-8.691999e-011
-6.043766e-010
-8.372634e-010
-5.693240e-010
7.525051e-011
6.918050e-010
8.803183e-010
5.265979e-010
-1.376479e-010
-7.224373e-010
-9.459374e-010
-7.744189e-010
-3.648710e-010
9.171594e-011
4.741933e-010
7.194898e-010
7.618410e-010
5.304524e-010
3.313361e-011
-5.601449e-010
-9.489188e-010
-8.723749e-010
-3.076809e-010
4.657186e-010
1.012231e-009
-2.175935e-010
-5.431285e-011
1.143942e-010
1.377581e-010
7.952328e-012
-1.441634e-010
-1.828334e-010
-9.837809e-011
-6.303489e-012
-1.295637e-011
-8.090669e-011
-3.965227e-011
2.445009e-010
6.868384e-010
9.755239e-010
7.830415e-010
4.386761e-011
-9.383426e-010
-1.666376e-009
-1.784481e-009
-1.307705e-009
-5.645746e-010
8.567213e-011
5.130882e-010
8.409467e-010
1.242508e-009
1.722799e-009
2.095830e-009
2.169293e-009
1.946951e-009
1.645782e-009
1.508158e-009
1.587958e-009
1.712043e-009
1.648256e-009
1.317186e-009
8.530613e-010
4.711373e-010
2.796976e-010
2.114228e-010
1.193989e-010
-7.378494e-011
-3.178869e-010
-5.044742e-010
-5.753572e-010
-5.617853e-010
-5.344564e-010
-5.343764e-010
-5.552178e-010
-5.757611e-010
-5.880500e-010
-5.889853e-010
-5.612210e-010
-4.845398e-010
-3.717173e-010
-2.766621e-010
-2.446233e-010
-2.479789e-010
-1.877226e-010
1.727832e-011
3.327289e-010
6.130361e-010
7.261078e-010
6.877420e-010
6.650308e-010
8.263142e-010
1.172503e-009
1.518361e-009
1.654980e-009
1.543750e-009
1.350075e-009
1.273956e-009
1.335326e-009
1.326621e-009
9.929686e-010
2.831886e-010
-5.592669e-010
-1.154547e-009
-1.258968e-009
-9.204507e-010
-4.006762e-010
4.149284e-011
3.042611e-010
4.210994e-010
4.315700e-010
3.079675e-010
2.091556e-011
-3.384152e-010
-5.404771e-010
-3.716506e-010
1.516671e-010
7.132607e-010
8.790810e-010
4.248979e-010
-4.436773e-010
-1.176814e-009
-1.242938e-009
-5.168990e-010
5.962385e-010
1.409231e-009
-8.272591e-010
2.481106e-012
9.654164e-010
1.279462e-009
6.521127e-010
-5.296739e-010
-1.504338e-009
-1.680021e-009
-1.009522e-009
5.278777e-011
9.277059e-010
1.298850e-009
1.224275e-009
9.444484e-010
6.106412e-010
1.904136e-010
-3.903518e-010
-1.044066e-009
-1.486354e-009
-1.428652e-009
-8.291462e-010
3.530737e-011
7.557729e-010
1.080926e-009
1.063474e-009
9.523550e-010
9.497736e-010
1.059983e-009
1.148998e-009
1.125775e-009
1.050254e-009
1.065201e-009
1.234260e-009
1.459725e-009
1.565702e-009
1.462741e-009
1.231336e-009
1.046795e-009
1.023548e-009
1.126954e-009
1.224501e-009
1.212954e-009
1.098514e-009
9.693296e-010
9.064467e-010
9.227598e-010
9.721877e-010
9.990771e-010
9.756524e-010
9.084587e-010
8.293392e-010
7.839913e-010
8.112608e-010
9.106952e-010
1.024983e-009
1.071818e-009
1.016670e-009
9.213193e-010
9.049424e-010
1.034035e-009
1.241382e-009
1.365693e-009
1.292316e-009
1.066208e-009
8.600443e-010
8.164059e-010
9.131617e-010
9.884781e-010
9.079787e-010
7.107412e-010
5.833895e-010
6.777428e-010
9.452529e-010
1.151769e-009
1.065094e-009
6.431597e-010
5.450819e-011
-4.716894e-010
-8.091872e-010
-9.595076e-010
-9.438129e-010
-7.117481e-010
-1.954904e-010
5.312256e-010
1.170507e-009
1.334349e-009
8.342492e-010
-1.098498e-010
-9.506716e-010
-1.168508e-009
-6.466114e-010
2.273641e-010
8.285931e-010
7.420986e-010
5.936573e-011
-6.943890e-010
-9.463821e-010
-4.916855e-010
3.616893e-010
1.017136e-009
-1.467154e-009
-2.107207e-010
1.311530e-009
1.955419e-009
1.226754e-009
-4.024721e-010
-1.856720e-009
-2.213805e-009
-1.312050e-009
2.026078e-010
1.380290e-009
1.621647e-009
1.008623e-009
1.190006e-010
-4.657260e-010
-5.474843e-010
-3.233206e-010
-9.078300e-011
4.469565e-011
2.045871e-010
5.274914e-010
9.545009e-010
1.232219e-009
1.130424e-009
6.622683e-010
9.733481e-011
-2.428463e-010
-2.189865e-010
6.270691e-011
3.885711e-010
6.269476e-010
7.963705e-010
9.779038e-010
1.187503e-009
1.343205e-009
1.348100e-009
1.190476e-009
9.551620e-010
7.389095e-010
5.586214e-010
3.407681e-010
-4.469777e-012
-4.985085e-010
-1.072785e-009
-1.618983e-009
-2.060146e-009
-2.386693e-009
-2.639849e-009
-2.863889e-009
-3.061816e-009
-3.181418e-009
-3.142454e-009
-2.893265e-009
-2.460094e-009
-1.945213e-009
-1.461820e-009
-1.051034e-009
-6.561311e-010
-1.886877e-010
3.652220e-010
9.002769e-010
1.261972e-009
1.374101e-009
1.301737e-009
1.183405e-009
1.095525e-009
9.855571e-010
7.459520e-010
3.573678e-010
-4.714204e-011
-2.710094e-010
-2.155714e-010
4.292453e-011
3.337184e-010
5.418613e-010
6.715363e-010
7.631905e-010
7.704999e-010
5.583753e-010
5.881594e-011
-5.635185e-010
-9.345941e-010
-7.252415e-010
5.069970e-011
9.624044e-010
1.418106e-009
1.080806e-009
1.245381e-010
-8.741078e-010
-1.330735e-009
-1.038214e-009
-2.674308e-010
4.625464e-010
7.495755e-010
5.422051e-010
1.046813e-010
-2.186439e-010
-2.475981e-010
-5.503508e-011
1.333809e-010
-1.656026e-009
-5.143489e-010
9.347638e-010
1.701991e-009
1.306032e-009
7.422016e-011
-1.110650e-009
-1.437850e-009
-7.336490e-010
4.337998e-010
1.182023e-009
9.598641e-010
-6.392870e-011
-1.148240e-009
-1.533798e-009
-9.724232e-010
1.580751e-010
1.198238e-009
1.697994e-009
1.662542e-009
1.405866e-009
1.203309e-009
1.072577e-009
8.510617e-010
4.477772e-010
1.143060e-012
-2.114553e-010
-1.851363e-011
4.814065e-010
9.841018e-010
1.204234e-009
1.055214e-009
6.404572e-010
9.425474e-011
-5.643096e-010
-1.438449e-009
-2.640419e-009
-4.182019e-009
-5.969337e-009
-7.890245e-009
-9.898479e-009
-1.201419e-008
-1.424857e-008
-1.653036e-008
-1.870453e-008
-2.060407e-008
-2.213209e-008
-2.328557e-008
-2.410377e-008
-2.458837e-008
-2.466594e-008
-2.422879e-008
-2.322319e-008
-2.170989e-008
-1.984103e-008
-1.776901e-008
-1.556713e-008
-1.323503e-008
-1.078384e-008
-8.315978e-009
-6.013853e-009
-4.039416e-009
-2.439325e-009
-1.151508e-009
-1.089854e-010
6.662147e-010
1.082062e-009
1.095996e-009
8.113135e-010
4.410187e-010
1.637303e-010
1.430115e-011
-7.624902e-011
-1.332097e-010
-5.017400e-011
3.189799e-010
9.557068e-010
1.571116e-009
1.749817e-009
1.265894e-009
3.086203e-010
-5.992321e-010
-9.553365e-010
-6.313731e-010
5.354031e-011
5.879550e-010
6.360020e-010
2.326430e-010
-3.106350e-010
-6.660688e-010
-6.904111e-010
-4.411906e-010
-6.299599e-011
3.155733e-010
5.981363e-010
6.934768e-010
5.299926e-010
1.258417e-010
-3.628564e-010
-6.967835e-010
-9.353942e-010
-5.294551e-010
5.762418e-011
5.221120e-010
6.464060e-010
4.374619e-010
1.337688e-010
3.508170e-011
2.495431e-010
5.602033e-010
5.601892e-010
-5.301271e-012
-9.556000e-010
-1.714062e-009
-1.692015e-009
-7.410584e-010
6.917798e-010
1.852132e-009
2.197944e-009
1.747489e-009
9.965737e-010
5.024156e-010
4.916893e-010
7.948900e-010
1.103715e-009
1.275116e-009
1.402080e-009
1.617563e-009
1.850679e-009
1.781784e-009
1.037998e-009
-5.589575e-010
-2.919528e-009
-5.840055e-009
-9.225388e-009
-1.317311e-008
-1.785617e-008
-2.332904e-008
-2.943901e-008
-3.590962e-008
-4.250038e-008
-4.908909e-008
-5.561356e-008
-6.194869e-008
-6.784992e-008
-7.302028e-008
-7.723568e-008
-8.040987e-008
-8.254274e-008
-8.360938e-008
-8.350300e-008
-8.209010e-008
-7.932655e-008
-7.532318e-008
-7.029882e-008
-6.446922e-008
-5.798304e-008
-5.096624e-008
-4.362158e-008
-3.626641e-008
-2.925016e-008
-2.281848e-008
-1.705467e-008
-1.195781e-008
-7.575802e-009
-4.047890e-009
-1.499572e-009
1.078654e-010
1.008083e-009
1.486402e-009
1.690646e-009
1.588874e-009
1.131362e-009
4.612771e-010
-5.579245e-011
-5.677526e-011
5.165817e-010
1.316417e-009
1.807915e-009
1.646942e-009
9.108315e-010
5.741413e-012
-6.468866e-010
-8.712775e-010
-7.561662e-010
-4.814999e-010
-1.600352e-010
1.639252e-010
4.141056e-010
4.499119e-010
1.835359e-010
-2.651169e-010
-5.718466e-010
-4.347507e-010
1.430420e-010
7.813760e-010
9.753709e-010
4.983830e-010
-3.785071e-010
-1.056929e-009
6.213352e-010
-6.563058e-011
-8.376115e-010
-1.051326e-009
-5.183446e-010
3.978350e-010
1.113204e-009
1.265150e-009
9.023374e-010
3.258650e-010
-2.037783e-010
-6.056014e-010
-8.791466e-010
-9.432873e-010
-6.399571e-010
7.036353e-011
9.335742e-010
1.481320e-009
1.363827e-009
6.666989e-010
-8.815927e-011
-2.988103e-010
2.793438e-010
1.370513e-009
2.407026e-009
2.928028e-009
2.797800e-009
2.083567e-009
7.537956e-010
-1.492744e-009
-5.107091e-009
-1.040884e-008
-1.741928e-008
-2.595715e-008
-3.588302e-008
-4.724051e-008
-6.015610e-008
-7.460027e-008
-9.024299e-008
-1.065372e-007
-1.229437e-007
-1.390875e-007
-1.547195e-007
-1.695541e-007
-1.831651e-007
-1.950464e-007
-2.047749e-007
-2.121118e-007
-2.169523e-007
-2.191920e-007
-2.186584e-007
-2.151839e-007
-2.087467e-007
-1.995362e-007
-1.878813e-007
-1.741234e-007
-1.585748e-007
-1.416053e-007
-1.237529e-007
-1.057121e-007
-8.817305e-008
-7.164248e-008
-5.640793e-008
-4.266728e-008
-3.067113e-008
-2.070722e-008
-1.292155e-008
-7.158521e-009
-3.009355e-009
-6.073125e-011
1.875269e-009
2.772324e-009
2.640200e-009
1.772664e-009
7.373632e-010
8.825006e-011
4.399782e-011
4.108946e-010
8.032538e-010
9.496070e-010
8.228734e-010
5.322726e-010
1.510603e-010
-3.128494e-010
-7.891665e-010
-1.050299e-009
-8.267240e-010
-7.996727e-011
8.324655e-010
1.323771e-009
1.008755e-009
5.443888e-011
-8.804805e-010
-1.121812e-009
-5.093456e-010
4.602801e-010
1.016787e-009
7.290812e-010
-1.500485e-010
-8.932100e-010
2.248015e-009
6.311513e-010
-1.333079e-009
-2.232028e-009
-1.536694e-009
1.059017e-010
1.465578e-009
1.679922e-009
8.169090e-010
-3.215994e-010
-9.011118e-010
-6.514763e-010
7.575144e-011
7.243555e-010
9.888422e-010
9.292536e-010
7.438422e-010
5.122188e-010
1.874811e-010
-1.946379e-010
-3.730270e-010
-4.005996e-012
9.983289e-010
2.242060e-009
2.987104e-009
2.528222e-009
4.931745e-010
-3.200298e-009
-8.659084e-009
-1.627979e-008
-2.670614e-008
-4.052560e-008
-5.799434e-008
-7.902807e-008
-1.034187e-007
-1.310192e-007
-1.616953e-007
-1.950971e-007
-2.305001e-007
-2.668931e-007
-3.032489e-007
-3.387373e-007
-3.727114e-007
-4.045246e-007
-4.333960e-007
-4.584688e-007
-4.789985e-007
-4.944803e-007
-5.046006e-007
-5.090905e-007
-5.076558e-007
-5.000724e-007
-4.863496e-007
-4.667945e-007
-4.419187e-007
-4.123033e-007
-3.785824e-007
-3.415686e-007
-3.023710e-007
-2.623347e-007
-2.228030e-007
-1.848861e-007
-1.494202e-007
-1.171031e-007
-8.860780e-008
-6.449532e-008
-4.497548e-008
-2.975735e-008
-1.818035e-008
-9.556844e-009
-3.445400e-009
3.698651e-010
2.139182e-009
2.366607e-009
1.761737e-009
9.698985e-010
3.420997e-010
-5.209665e-011
-2.266080e-010
-1.378274e-010
2.444374e-010
7.617925e-010
1.045613e-009
7.662813e-010
-3.270917e-011
-8.533289e-010
-1.067725e-009
-4.285311e-010
6.687377e-010
1.434306e-009
1.280098e-009
2.877935e-010
-8.408053e-010
-1.321305e-009
-8.824596e-010
5.406019e-011
7.405977e-010
7.060632e-010
1.046458e-010
-4.577574e-010
2.918018e-009
1.033329e-009
-1.289466e-009
-2.430558e-009
-1.769693e-009
-4.299336e-011
1.325751e-009
1.352078e-009
1.956851e-010
-1.063512e-009
-1.337531e-009
-3.713797e-010
1.134065e-009
2.144278e-009
2.092832e-009
1.217076e-009
2.384220e-010
-2.450820e-010
-1.150716e-010
3.827458e-010
9.842502e-010
1.574645e-009
2.020475e-009
1.884915e-009
3.605796e-010
-3.490478e-009
-1.043164e-008
-2.099284e-008