# vtk DataFile Version 3.0
vtk output
ASCII
DATASET STRUCTURED_POINTS
DIMENSIONS 100 100 1
SPACING 1 1 1
ORIGIN 0 0 0
POINT_DATA 10000
SCALARS SFBox_profile double
LOOKUP_TABLE default 
9.439919e-003
9.439919e-003
9.439920e-003
9.439920e-003
9.439921e-003
9.439921e-003
9.439921e-003
9.439920e-003
9.439919e-003
9.439919e-003
9.439919e-003
9.439919e-003
9.439921e-003
9.439922e-003
9.439924e-003
9.439924e-003
9.439924e-003
9.439924e-003
9.439924e-003
9.439926e-003
9.439928e-003
9.439932e-003
9.439935e-003
9.439938e-003
9.439941e-003
9.439943e-003
9.439944e-003
9.439947e-003
9.439950e-003
9.439953e-003
9.439957e-003
9.439960e-003
9.439961e-003
9.439963e-003
9.439964e-003
9.439965e-003
9.439967e-003
9.439969e-003
9.439971e-003
9.439971e-003
9.439972e-003
9.439972e-003
9.439971e-003
9.439971e-003
9.439972e-003
9.439972e-003
9.439972e-003
9.439972e-003
9.439971e-003
9.439971e-003
9.439970e-003
9.439970e-003
9.439969e-003
9.439969e-003
9.439968e-003
9.439967e-003
9.439966e-003
9.439965e-003
9.439964e-003
9.439963e-003
9.439961e-003
9.439959e-003
9.439957e-003
9.439955e-003
9.439952e-003
9.439949e-003
9.439946e-003
9.439943e-003
9.439940e-003
9.439937e-003
9.439934e-003
9.439931e-003
9.439928e-003
9.439926e-003
9.439924e-003
9.439922e-003
9.439921e-003
9.439920e-003
9.439920e-003
9.439920e-003
9.439920e-003
9.439920e-003
9.439921e-003
9.439922e-003
9.439923e-003
9.439923e-003
9.439923e-003
9.439921e-003
9.439919e-003
9.439917e-003
9.439916e-003
9.439917e-003
9.439919e-003
9.439921e-003
9.439923e-003
9.439924e-003
9.439923e-003
9.439921e-003
9.439918e-003
9.439917e-003
9.439919e-003
9.439919e-003
9.439920e-003
9.439920e-003
9.439921e-003
9.439921e-003
9.439921e-003
9.439920e-003
9.439919e-003
9.439919e-003
9.439919e-003
9.439919e-003
9.439921e-003
9.439922e-003
9.439924e-003
9.439924e-003
9.439924e-003
9.439924e-003
9.439924e-003
9.439926e-003
9.439928e-003
9.439932e-003
9.439935e-003
9.439938e-003
9.439941e-003
9.439943e-003
9.439944e-003
9.439947e-003
9.439950e-003
9.439953e-003
9.439957e-003
9.439960e-003
9.439961e-003
9.439963e-003
9.439964e-003
9.439965e-003
9.439967e-003
9.439969e-003
9.439971e-003
9.439971e-003
9.439972e-003
9.439972e-003
9.439971e-003
9.439971e-003
9.439972e-003
9.439972e-003
9.439972e-003
9.439972e-003
9.439971e-003
9.439971e-003
9.439970e-003
9.439970e-003
9.439969e-003
9.439969e-003
9.439968e-003
9.439967e-003
9.439966e-003
9.439965e-003
9.439964e-003
9.439963e-003
9.439961e-003
9.439959e-003
9.439957e-003
9.439955e-003
9.439952e-003
9.439949e-003
9.439946e-003
9.439943e-003
9.439940e-003
9.439937e-003
9.439934e-003
9.439931e-003
9.439928e-003
9.439926e-003
9.439924e-003
9.439922e-003
9.439921e-003
9.439920e-003
9.439920e-003
9.439920e-003
9.439920e-003
9.439920e-003
9.439921e-003
9.439922e-003
9.439923e-003
9.439923e-003
9.439923e-003
9.439921e-003
9.439919e-003
9.439917e-003
9.439916e-003
9.439917e-003
9.439919e-003
9.439921e-003
9.439923e-003
9.439924e-003
9.439923e-003
9.439921e-003
9.439918e-003
9.439917e-003
9.439919e-003
9.439919e-003
9.439920e-003
9.439920e-003
9.439920e-003
9.439921e-003
9.439921e-003
9.439920e-003
9.439920e-003
9.439920e-003
9.439920e-003
9.439920e-003
9.439921e-003
9.439923e-003
9.439924e-003
9.439925e-003
9.439926e-003
9.439927e-003
9.439928e-003
9.439929e-003
9.439932e-003
9.439935e-003
9.439939e-003
9.439942e-003
9.439945e-003
9.439947e-003
9.439948e-003
9.439950e-003
9.439952e-003
9.439954e-003
9.439956e-003
9.439958e-003
9.439958e-003
9.439957e-003
9.439956e-003
9.439955e-003
9.439955e-003
9.439954e-003
9.439953e-003
9.439952e-003
9.439950e-003
9.439947e-003
9.439945e-003
9.439943e-003
9.439941e-003
9.439940e-003
9.439939e-003
9.439938e-003
9.439937e-003
9.439936e-003
9.439936e-003
9.439936e-003
9.439937e-003
9.439937e-003
9.439939e-003
9.439940e-003
9.439942e-003
9.439944e-003
9.439946e-003
9.439948e-003
9.439949e-003
9.439950e-003
9.439951e-003
9.439951e-003
9.439950e-003
9.439949e-003
9.439947e-003
9.439945e-003
9.439942e-003
9.439940e-003
9.439937e-003
9.439934e-003
9.439931e-003
9.439928e-003
9.439926e-003
9.439924e-003
9.439923e-003
9.439922e-003
9.439922e-003
9.439921e-003
9.439921e-003
9.439920e-003
9.439920e-003
9.439921e-003
9.439921e-003
9.439922e-003
9.439921e-003
9.439921e-003
9.439919e-003
9.439918e-003
9.439918e-003
9.439918e-003
9.439919e-003
9.439921e-003
9.439922e-003
9.439922e-003
9.439922e-003
9.439920e-003
9.439919e-003
9.439918e-003
9.439920e-003
9.439920e-003
9.439920e-003
9.439920e-003
9.439920e-003
9.439920e-003
9.439920e-003
9.439921e-003
9.439921e-003
9.439921e-003
9.439921e-003
9.439922e-003
9.439922e-003
9.439923e-003
9.439925e-003
9.439927e-003
9.439930e-003
9.439932e-003
9.439934e-003
9.439936e-003
9.439939e-003
9.439942e-003
9.439945e-003
9.439948e-003
9.439950e-003
9.439950e-003
9.439950e-003
9.439949e-003
9.439947e-003
9.439944e-003
9.439941e-003
9.439936e-003
9.439930e-003
9.439923e-003
9.439915e-003
9.439907e-003
9.439898e-003
9.439889e-003
9.439880e-003
9.439871e-003
9.439862e-003
9.439853e-003
9.439844e-003
9.439836e-003
9.439829e-003
9.439822e-003
9.439817e-003
9.439813e-003
9.439811e-003
9.439810e-003
9.439810e-003
9.439813e-003
9.439817e-003
9.439823e-003
9.439830e-003
9.439839e-003
9.439850e-003
9.439861e-003
9.439873e-003
9.439885e-003
9.439897e-003
9.439908e-003
9.439918e-003
9.439926e-003
9.439933e-003
9.439938e-003
9.439942e-003
9.439943e-003
9.439944e-003
9.439943e-003
9.439941e-003
9.439939e-003
9.439936e-003
9.439934e-003
9.439931e-003
9.439929e-003
9.439927e-003
9.439926e-003
9.439925e-003
9.439923e-003
9.439922e-003
9.439921e-003
9.439920e-003
9.439920e-003
9.439919e-003
9.439920e-003
9.439920e-003
9.439920e-003
9.439920e-003
9.439920e-003
9.439920e-003
9.439920e-003
9.439920e-003
9.439920e-003
9.439920e-003
9.439920e-003
9.439920e-003
9.439920e-003
9.439920e-003
9.439920e-003
9.439921e-003
9.439920e-003
9.439920e-003
9.439919e-003
9.439919e-003
9.439919e-003
9.439920e-003
9.439921e-003
9.439922e-003
9.439923e-003
9.439924e-003
9.439924e-003
9.439925e-003
9.439926e-003
9.439928e-003
9.439931e-003
9.439935e-003
9.439939e-003
9.439943e-003
9.439946e-003
9.439947e-003
9.439948e-003
9.439948e-003
9.439947e-003
9.439944e-003
9.439939e-003
9.439930e-003
9.439919e-003
9.439904e-003
9.439887e-003
9.439867e-003
9.439845e-003
9.439820e-003
9.439794e-003
9.439765e-003
9.439736e-003
9.439705e-003
9.439674e-003
9.439644e-003
9.439614e-003
9.439585e-003
9.439557e-003
9.439531e-003
9.439507e-003
9.439486e-003
9.439467e-003
9.439453e-003
9.439442e-003
9.439435e-003
9.439434e-003
9.439437e-003
9.439445e-003
9.439459e-003
9.439479e-003
9.439503e-003
9.439532e-003
9.439565e-003
9.439602e-003
9.439641e-003
9.439681e-003
9.439722e-003
9.439761e-003
9.439798e-003
9.439831e-003
9.439861e-003
9.439885e-003
9.439905e-003
9.439920e-003
9.439931e-003
9.439938e-003
9.439942e-003
9.439943e-003
9.439942e-003
9.439940e-003
9.439938e-003
9.439935e-003
9.439933e-003
9.439930e-003
9.439928e-003
9.439926e-003
9.439924e-003
9.439922e-003
9.439920e-003
9.439919e-003
9.439918e-003
9.439918e-003
9.439918e-003
9.439919e-003
9.439921e-003
9.439922e-003
9.439922e-003
9.439922e-003
9.439921e-003
9.439920e-003
9.439918e-003
9.439918e-003
9.439918e-003
9.439920e-003
9.439921e-003
9.439922e-003
9.439922e-003
9.439921e-003
9.439920e-003
9.439919e-003
9.439919e-003
9.439919e-003
9.439920e-003
9.439922e-003
9.439924e-003
9.439925e-003
9.439927e-003
9.439928e-003
9.439929e-003
9.439931e-003
9.439934e-003
9.439938e-003
9.439943e-003
9.439948e-003
9.439951e-003
9.439952e-003
9.439949e-003
9.439943e-003
9.439932e-003
9.439918e-003
9.439898e-003
9.439871e-003
9.439837e-003
9.439795e-003
9.439744e-003
9.439687e-003
9.439624e-003
9.439555e-003
9.439481e-003
9.439404e-003
9.439323e-003
9.439239e-003
9.439154e-003
9.439069e-003
9.438986e-003
9.438905e-003
9.438827e-003
9.438754e-003
9.438686e-003
9.438624e-003
9.438569e-003
9.438522e-003
9.438485e-003
9.438458e-003
9.438443e-003
9.438440e-003
9.438450e-003
9.438474e-003
9.438512e-003
9.438564e-003
9.438629e-003
9.438707e-003
9.438796e-003
9.438895e-003
9.439002e-003
9.439113e-003
9.439226e-003
9.439336e-003
9.439443e-003
9.439542e-003
9.439631e-003
9.439709e-003
9.439774e-003
9.439828e-003
9.439869e-003
9.439900e-003
9.439920e-003
9.439934e-003
9.439941e-003
9.439944e-003
9.439943e-003
9.439941e-003
9.439938e-003
9.439935e-003
9.439931e-003
9.439928e-003
9.439926e-003
9.439923e-003
9.439921e-003
9.439920e-003
9.439918e-003
9.439918e-003
9.439918e-003
9.439919e-003
9.439921e-003
9.439923e-003
9.439923e-003
9.439923e-003
9.439921e-003
9.439919e-003
9.439917e-003
9.439917e-003
9.439917e-003
9.439919e-003
9.439922e-003
9.439923e-003
9.439922e-003
9.439922e-003
9.439921e-003
9.439920e-003
9.439920e-003
9.439920e-003
9.439921e-003
9.439922e-003
9.439925e-003
9.439928e-003
9.439931e-003
9.439934e-003
9.439936e-003
9.439939e-003
9.439942e-003
9.439946e-003
9.439950e-003
9.439952e-003
9.439950e-003
9.439940e-003
9.439922e-003
9.439893e-003
9.439852e-003
9.439798e-003
9.439730e-003
9.439645e-003
9.439541e-003
9.439420e-003
9.439280e-003
9.439123e-003
9.438953e-003
9.438770e-003
9.438578e-003
9.438377e-003
9.438171e-003
9.437961e-003
9.437750e-003
9.437540e-003
9.437336e-003
9.437138e-003
9.436950e-003
9.436773e-003
9.436609e-003
9.436462e-003
9.436332e-003
9.436222e-003
9.436135e-003
9.436074e-003
9.436039e-003
9.436034e-003
9.436060e-003
9.436118e-003
9.436210e-003
9.436336e-003
9.436495e-003
9.436685e-003
9.436904e-003
9.437147e-003
9.437409e-003
9.437684e-003
9.437965e-003
9.438246e-003
9.438517e-003
9.438773e-003
9.439008e-003
9.439217e-003
9.439397e-003
9.439548e-003
9.439669e-003
9.439763e-003
9.439832e-003
9.439881e-003
9.439912e-003
9.439931e-003
9.439941e-003
9.439944e-003
9.439943e-003
9.439939e-003
9.439936e-003
9.439932e-003
9.439929e-003
9.439926e-003
9.439924e-003
9.439922e-003
9.439920e-003
9.439919e-003
9.439919e-003
9.439920e-003
9.439921e-003
9.439922e-003
9.439923e-003
9.439923e-003
9.439921e-003
9.439919e-003
9.439917e-003
9.439917e-003
9.439917e-003
9.439920e-003
9.439922e-003
9.439923e-003
9.439922e-003
9.439922e-003
9.439922e-003
9.439922e-003
9.439921e-003
9.439921e-003
9.439922e-003
9.439924e-003
9.439927e-003
9.439932e-003
9.439937e-003
9.439941e-003
9.439945e-003
9.439949e-003
9.439951e-003
9.439951e-003
9.439947e-003
9.439935e-003
9.439911e-003
9.439870e-003
9.439807e-003
9.439718e-003
9.439597e-003
9.439444e-003
9.439253e-003
9.439023e-003
9.438752e-003
9.438441e-003
9.438090e-003
9.437704e-003
9.437287e-003
9.436846e-003
9.436385e-003
9.435910e-003
9.435425e-003
9.434937e-003
9.434451e-003
9.433972e-003
9.433506e-003
9.433059e-003
9.432634e-003
9.432237e-003
9.431872e-003
9.431543e-003
9.431256e-003
9.431015e-003
9.430826e-003
9.430691e-003
9.430618e-003
9.430609e-003
9.430669e-003
9.430802e-003
9.431010e-003
9.431293e-003
9.431651e-003
9.432080e-003
9.432575e-003
9.433127e-003
9.433726e-003
9.434359e-003
9.435010e-003
9.435664e-003
9.436303e-003
9.436913e-003
9.437478e-003
9.437989e-003
9.438437e-003
9.438818e-003
9.439131e-003
9.439380e-003
9.439570e-003
9.439709e-003
9.439807e-003
9.439871e-003
9.439910e-003
9.439931e-003
9.439940e-003
9.439942e-003
9.439940e-003
9.439937e-003
9.439933e-003
9.439930e-003
9.439928e-003
9.439926e-003
9.439924e-003
9.439922e-003
9.439921e-003
9.439920e-003
9.439921e-003
9.439921e-003
9.439922e-003
9.439921e-003
9.439920e-003
9.439919e-003
9.439918e-003
9.439918e-003
9.439918e-003
9.439920e-003
9.439921e-003
9.439922e-003
9.439921e-003
9.439922e-003
9.439922e-003
9.439923e-003
9.439924e-003
9.439925e-003
9.439926e-003
9.439928e-003
9.439932e-003
9.439937e-003
9.439944e-003
9.439950e-003
9.439955e-003
9.439956e-003
9.439951e-003
9.439935e-003
9.439906e-003
9.439854e-003
9.439772e-003
9.439648e-003
9.439471e-003
9.439232e-003
9.438921e-003
9.438531e-003
9.438057e-003
9.437495e-003
9.436845e-003
9.436110e-003
9.435294e-003
9.434408e-003
9.433462e-003
9.432468e-003
9.431440e-003
9.430390e-003
9.429329e-003
9.428269e-003
9.427221e-003
9.426197e-003
9.425207e-003
9.424260e-003
9.423367e-003
9.422536e-003
9.421775e-003
9.421094e-003
9.420502e-003
9.420007e-003
9.419619e-003
9.419347e-003
9.419201e-003
9.419188e-003
9.419318e-003
9.419598e-003
9.420034e-003
9.420628e-003
9.421378e-003
9.422280e-003
9.423325e-003
9.424496e-003
9.425773e-003
9.427130e-003
9.428538e-003
9.429963e-003
9.431370e-003
9.432725e-003
9.433997e-003
9.435158e-003
9.436190e-003
9.437080e-003
9.437825e-003
9.438428e-003
9.438899e-003
9.439253e-003
9.439510e-003
9.439687e-003
9.439804e-003
9.439875e-003
9.439914e-003
9.439934e-003
9.439941e-003
9.439941e-003
9.439939e-003
9.439936e-003
9.439933e-003
9.439930e-003
9.439927e-003
9.439925e-003
9.439922e-003
9.439921e-003
9.439920e-003
9.439920e-003
9.439920e-003
9.439920e-003
9.439920e-003
9.439920e-003
9.439920e-003
9.439920e-003
9.439920e-003
9.439920e-003
9.439920e-003
9.439921e-003
9.439920e-003
9.439921e-003
9.439923e-003
9.439925e-003
9.439927e-003
9.439929e-003
9.439931e-003
9.439934e-003
9.439939e-003
9.439945e-003
9.439952e-003
9.439958e-003
9.439958e-003
9.439947e-003
9.439917e-003
9.439860e-003
9.439762e-003
9.439610e-003
9.439383e-003
9.439061e-003
9.438619e-003
9.438038e-003
9.437298e-003
9.436386e-003
9.435293e-003
9.434017e-003
9.432563e-003
9.430940e-003
9.429165e-003
9.427260e-003
9.425249e-003
9.423159e-003
9.421019e-003
9.418854e-003
9.416689e-003
9.414547e-003
9.412449e-003
9.410416e-003
9.408466e-003
9.406617e-003
9.404883e-003
9.403281e-003
9.401825e-003
9.400529e-003
9.399408e-003
9.398478e-003
9.397754e-003
9.397252e-003
9.396988e-003
9.396979e-003
9.397240e-003
9.397785e-003
9.398626e-003
9.399769e-003
9.401216e-003
9.402961e-003
9.404990e-003
9.407279e-003
9.409795e-003
9.412493e-003
9.415318e-003
9.418207e-003
9.421093e-003
9.423906e-003
9.426580e-003
9.429055e-003
9.431283e-003
9.433233e-003
9.434889e-003
9.436250e-003
9.437333e-003
9.438165e-003
9.438780e-003
9.439218e-003
9.439516e-003
9.439709e-003
9.439826e-003
9.439892e-003
9.439926e-003
9.439940e-003
9.439944e-003
9.439942e-003
9.439939e-003
9.439935e-003
9.439931e-003
9.439927e-003
9.439924e-003
9.439922e-003
9.439920e-003
9.439919e-003
9.439919e-003
9.439919e-003
9.439920e-003
9.439921e-003
9.439921e-003
9.439922e-003
9.439921e-003
9.439920e-003
9.439919e-003
9.439919e-003
9.439920e-003
9.439921e-003
9.439924e-003
9.439927e-003
9.439931e-003
9.439935e-003
9.439939e-003
9.439943e-003
9.439949e-003
9.439954e-003
9.439958e-003
9.439954e-003
9.439935e-003
9.439887e-003
9.439793e-003
9.439631e-003
9.439375e-003
9.438989e-003
9.438435e-003
9.437670e-003
9.436649e-003
9.435331e-003
9.433684e-003
9.431684e-003
9.429325e-003
9.426611e-003
9.423563e-003
9.420214e-003
9.416606e-003
9.412790e-003
9.408822e-003
9.404759e-003
9.400657e-003
9.396565e-003
9.392532e-003
9.388597e-003
9.384797e-003
9.381164e-003
9.377724e-003
9.374502e-003
9.371519e-003
9.368794e-003
9.366345e-003
9.364190e-003
9.362348e-003
9.360838e-003
9.359680e-003
9.358897e-003
9.358511e-003
9.358546e-003
9.359024e-003
9.359970e-003
9.361404e-003
9.363344e-003
9.365801e-003
9.368777e-003
9.372262e-003
9.376234e-003
9.380652e-003
9.385457e-003
9.390568e-003
9.395885e-003
9.401292e-003
9.406660e-003
9.411856e-003
9.416755e-003
9.421247e-003
9.425246e-003
9.428700e-003
9.431588e-003
9.433925e-003
9.435751e-003
9.437128e-003
9.438128e-003
9.438826e-003
9.439292e-003
9.439588e-003
9.439766e-003
9.439866e-003
9.439916e-003
9.439938e-003
9.439945e-003
9.439944e-003
9.439939e-003
9.439934e-003
9.439930e-003
9.439926e-003
9.439923e-003
9.439921e-003
9.439919e-003
9.439918e-003
9.439919e-003
9.439920e-003
9.439921e-003
9.439922e-003
9.439923e-003
9.439922e-003
9.439920e-003
9.439918e-003
9.439917e-003
9.439921e-003
9.439922e-003
9.439926e-003
9.439930e-003
9.439936e-003
9.439943e-003
9.439949e-003
9.439955e-003
9.439960e-003
9.439959e-003
9.439948e-003
9.439916e-003
9.439843e-003
9.439702e-003
9.439457e-003
9.439059e-003
9.438449e-003
9.437558e-003
9.436308e-003
9.434614e-003
9.432397e-003
9.429588e-003
9.426138e-003
9.422023e-003
9.417254e-003
9.411873e-003
9.405949e-003
9.399575e-003
9.392860e-003
9.385922e-003
9.378877e-003
9.371840e-003
9.364912e-003
9.358182e-003
9.351723e-003
9.345595e-003
9.339841e-003
9.334496e-003
9.329582e-003
9.325113e-003
9.321098e-003
9.317538e-003
9.314437e-003
9.311795e-003
9.309614e-003
9.307897e-003
9.306651e-003
9.305886e-003
9.305613e-003
9.305849e-003
9.306613e-003
9.307934e-003
9.309841e-003
9.312372e-003
9.315565e-003
9.319462e-003
9.324101e-003
9.329509e-003
9.335698e-003
9.342649e-003
9.350305e-003
9.358565e-003
9.367275e-003
9.376237e-003
9.385216e-003
9.393960e-003
9.402223e-003
9.409786e-003
9.416485e-003
9.422217e-003
9.426953e-003
9.430728e-003
9.433627e-003
9.435772e-003
9.437298e-003
9.438341e-003
9.439022e-003
9.439447e-003
9.439698e-003
9.439836e-003
9.439905e-003
9.439935e-003
9.439944e-003
9.439943e-003
9.439938e-003
9.439933e-003
9.439929e-003
9.439925e-003
9.439923e-003
9.439921e-003
9.439920e-003
9.439919e-003
9.439920e-003
9.439921e-003
9.439922e-003
9.439923e-003
9.439922e-003
9.439920e-003
9.439918e-003
9.439917e-003
9.439924e-003
9.439926e-003
9.439929e-003
9.439935e-003
9.439943e-003
9.439952e-003
9.439961e-003
9.439967e-003
9.439964e-003
9.439945e-003
9.439896e-003
9.439790e-003
9.439591e-003
9.439241e-003
9.438665e-003
9.437764e-003
9.436418e-003
9.434491e-003
9.431836e-003
9.428308e-003
9.423777e-003
9.418151e-003
9.411392e-003
9.403527e-003
9.394656e-003
9.384945e-003
9.374613e-003
9.363914e-003
9.353112e-003
9.342466e-003
9.332211e-003
9.322546e-003
9.313629e-003
9.305578e-003
9.298465e-003
9.292327e-003
9.287166e-003
9.282956e-003
9.279645e-003
9.277165e-003
9.275434e-003
9.274359e-003
9.273845e-003
9.273798e-003
9.274123e-003
9.274733e-003
9.275542e-003
9.276471e-003
9.277448e-003
9.278413e-003
9.279326e-003
9.280169e-003
9.280961e-003
9.281765e-003
9.282692e-003
9.283912e-003
9.285646e-003
9.288154e-003
9.291716e-003
9.296596e-003
9.303003e-003
9.311049e-003
9.320711e-003
9.331815e-003
9.344036e-003
9.356922e-003
9.369942e-003
9.382553e-003
9.394263e-003
9.404689e-003
9.413595e-003
9.420895e-003
9.426638e-003
9.430979e-003
9.434129e-003
9.436324e-003
9.437791e-003
9.438728e-003
9.439299e-003
9.439628e-003
9.439806e-003
9.439893e-003
9.439930e-003
9.439941e-003
9.439942e-003
9.439938e-003
9.439933e-003
9.439929e-003
9.439926e-003
9.439924e-003
9.439922e-003
9.439920e-003
9.439920e-003
9.439921e-003
9.439922e-003
9.439922e-003
9.439921e-003
9.439920e-003
9.439919e-003
9.439918e-003
9.439932e-003
9.439933e-003
9.439937e-003
9.439943e-003
9.439953e-003
9.439963e-003
9.439971e-003
9.439969e-003
9.439946e-003
9.439880e-003
9.439740e-003
9.439474e-003
9.439002e-003
9.438213e-003
9.436956e-003
9.435040e-003
9.432240e-003
9.428306e-003
9.422991e-003
9.416075e-003
9.407413e-003
9.396970e-003
9.384858e-003
9.371352e-003
9.356887e-003
9.342024e-003
9.327402e-003
9.313674e-003
9.301454e-003
9.291263e-003
9.283506e-003
9.278452e-003
9.276236e-003
9.276876e-003
9.280284e-003
9.286284e-003
9.294628e-003
9.305005e-003
9.317060e-003
9.330401e-003
9.344612e-003
9.359265e-003
9.373931e-003
9.388184e-003
9.401605e-003
9.413780e-003
9.424303e-003
9.432774e-003
9.438808e-003
9.442044e-003
9.442175e-003
9.438971e-003
9.432324e-003
9.422290e-003
9.409129e-003
9.393345e-003
9.375699e-003
9.357200e-003
9.339052e-003
9.322563e-003
9.309025e-003
9.299564e-003
9.294991e-003
9.295686e-003
9.301526e-003
9.311891e-003
9.325744e-003
9.341784e-003
9.358639e-003
9.375055e-003
9.390044e-003
9.402970e-003
9.413547e-003
9.421791e-003
9.427928e-003
9.432298e-003
9.435279e-003
9.437224e-003
9.438439e-003
9.439161e-003
9.439567e-003
9.439781e-003
9.439884e-003
9.439927e-003
9.439941e-003
9.439942e-003
9.439939e-003
9.439934e-003
9.439930e-003
9.439927e-003
9.439924e-003
9.439922e-003
9.439920e-003
9.439920e-003
9.439920e-003
9.439920e-003
9.439921e-003
9.439920e-003
9.439920e-003
9.439919e-003
9.439943e-003
9.439945e-003
9.439948e-003
9.439955e-003
9.439964e-003
9.439972e-003
9.439971e-003
9.439946e-003
9.439870e-003
9.439701e-003
9.439369e-003
9.438769e-003
9.437747e-003
9.436088e-003
9.433506e-003
9.429654e-003
9.424137e-003
9.416557e-003
9.406572e-003
9.393989e-003
9.378859e-003
9.361569e-003
9.342902e-003
9.324033e-003
9.306461e-003
9.291877e-003
9.281996e-003
9.278384e-003
9.282308e-003
9.294646e-003
9.315845e-003
9.345938e-003
9.384593e-003
9.431187e-003
9.484874e-003
9.544641e-003
9.609351e-003
9.677773e-003
9.748604e-003
9.820500e-003
9.892094e-003
9.962022e-003
1.002894e-002
1.009152e-002
1.014846e-002
1.019847e-002
1.024026e-002
1.027254e-002
1.029400e-002
1.030342e-002
1.029965e-002
1.028174e-002
1.024907e-002
1.020148e-002
1.013941e-002
1.006409e-002
9.977547e-003
9.882732e-003
9.783376e-003
9.683817e-003
9.588673e-003
9.502431e-003
9.428974e-003
9.371137e-003
9.330364e-003
9.306537e-003
9.298037e-003
9.302048e-003
9.315043e-003
9.333346e-003
9.353654e-003
9.373400e-003
9.390902e-003
9.405325e-003
9.416502e-003
9.424709e-003
9.430444e-003
9.434270e-003
9.436710e-003
9.438194e-003
9.439054e-003
9.439526e-003
9.439768e-003
9.439881e-003
9.439928e-003
9.439943e-003
9.439944e-003
9.439940e-003
9.439934e-003
9.439930e-003
9.439926e-003
9.439923e-003
9.439920e-003
9.439919e-003
9.439919e-003
9.439919e-003
9.439920e-003
9.439920e-003
9.439921e-003
9.439921e-003
9.439959e-003
9.439960e-003
9.439964e-003
9.439969e-003
9.439974e-003
9.439972e-003
9.439945e-003
9.439864e-003
9.439674e-003
9.439289e-003
9.438574e-003
9.437325e-003
9.435250e-003
9.431952e-003
9.426929e-003
9.419594e-003
9.409347e-003
9.395698e-003
9.378453e-003
9.357949e-003
9.335297e-003
9.312560e-003
9.292806e-003
9.279966e-003
9.278510e-003
9.292986e-003
9.327517e-003
9.385351e-003
9.468564e-003
9.577928e-003
9.712952e-003
9.872065e-003
1.005286e-002
1.025235e-002
1.046722e-002
1.069395e-002
1.092891e-002
1.116846e-002
1.140892e-002
1.164665e-002
1.187807e-002
1.209967e-002
1.230807e-002
1.249997e-002
1.267213e-002
1.282131e-002
1.294426e-002
1.303763e-002
1.309803e-002
1.312205e-002
1.310646e-002
1.304836e-002
1.294555e-002
1.279685e-002
1.260258e-002
1.236494e-002
1.208836e-002
1.177979e-002
1.144859e-002
1.110630e-002
1.076592e-002
1.044098e-002
1.014430e-002
9.886686e-003
9.675696e-003
9.514801e-003
9.403051e-003
9.335463e-003
9.304045e-003
9.299256e-003
9.311543e-003
9.332622e-003
9.356237e-003
9.378356e-003
9.396904e-003
9.411249e-003
9.421647e-003
9.428777e-003
9.433426e-003
9.436317e-003
9.438031e-003
9.438997e-003
9.439512e-003
9.439769e-003
9.439886e-003
9.439931e-003
9.439944e-003
9.439944e-003
9.439938e-003
9.439933e-003
9.439928e-003
9.439924e-003
9.439921e-003
9.439920e-003
9.439919e-003
9.439919e-003
9.439919e-003
9.439920e-003
9.439921e-003
9.439922e-003
9.439977e-003
9.439979e-003
9.439982e-003
9.439984e-003
9.439978e-003
9.439948e-003
9.439862e-003
9.439661e-003
9.439243e-003
9.438442e-003
9.437002e-003
9.434549e-003
9.430557e-003
9.424340e-003
9.415079e-003
9.401927e-003
9.384228e-003
9.361894e-003
9.335921e-003
9.308996e-003
9.286031e-003
9.274420e-003
9.283848e-003
9.325560e-003
9.411187e-003
9.551357e-003
9.754390e-003
1.002536e-002
1.036566e-002
1.077310e-002
1.124238e-002
1.176593e-002
1.233471e-002
1.293899e-002
1.356894e-002
1.421496e-002
1.486784e-002
1.551875e-002
1.615929e-002
1.678141e-002
1.737747e-002
1.794021e-002
1.846273e-002
1.893841e-002
1.936075e-002
1.972326e-002
2.001925e-002
2.024170e-002
2.038327e-002
2.043636e-002
2.039333e-002
2.024695e-002
1.999100e-002
1.962108e-002
1.913558e-002
1.853673e-002
1.783162e-002
1.703305e-002
1.615998e-002
1.523738e-002
1.429537e-002
1.336742e-002
1.248785e-002
1.168860e-002
1.099579e-002
1.042666e-002
9.987566e-003
9.673569e-003
9.469993e-003
9.355519e-003
9.306139e-003
9.298951e-003
9.314947e-003
9.340344e-003
9.366535e-003
9.389126e-003
9.406605e-003
9.419110e-003
9.427513e-003
9.432864e-003
9.436105e-003
9.437974e-003
9.438998e-003
9.439527e-003
9.439782e-003
9.439894e-003
9.439935e-003
9.439944e-003
9.439941e-003
9.439936e-003
9.439930e-003
9.439926e-003
9.439923e-003
9.439921e-003
9.439920e-003
9.439919e-003
9.439919e-003
9.439920e-003
9.439921e-003
9.439922e-003
9.439998e-003
9.439999e-003
9.440000e-003
9.439992e-003
9.439960e-003
9.439873e-003
9.439668e-003
9.439235e-003
9.438387e-003
9.436820e-003
9.434078e-003
9.429501e-003
9.422201e-003
9.411090e-003
9.395031e-003
9.373195e-003
9.345745e-003
9.314887e-003
9.286234e-003
9.270206e-003
9.282975e-003
9.346422e-003
9.486729e-003
9.731657e-003
1.010699e-002
1.063296e-002
1.132152e-002
1.217491e-002
1.318584e-002
1.433888e-002
1.561268e-002
1.698246e-002
1.842233e-002
1.990706e-002
2.141327e-002
2.291986e-002
2.440799e-002
2.586088e-002
2.726341e-002
2.860195e-002
2.986408e-002
3.103850e-002
3.211475e-002
3.308300e-002
3.393358e-002
3.465666e-002
3.524177e-002
3.567748e-002
3.595120e-002
3.604916e-002
3.595672e-002
3.565889e-002
3.514129e-002
3.439150e-002
3.340072e-002
3.216593e-002
3.069211e-002
2.899464e-002
2.710128e-002
2.505344e-002
2.290626e-002
2.072692e-002
1.859088e-002
1.657590e-002
1.475413e-002
1.318356e-002
1.190043e-002
1.091464e-002
1.020977e-002
9.747854e-003
9.477765e-003
9.344923e-003
9.299729e-003
9.302915e-003
9.327299e-003
9.356624e-003
9.382844e-003
9.403132e-003
9.417431e-003
9.426831e-003
9.432666e-003
9.436105e-003
9.438032e-003
9.439055e-003
9.439568e-003
9.439805e-003
9.439903e-003
9.439937e-003
9.439942e-003
9.439939e-003
9.439933e-003
9.439929e-003
9.439925e-003
9.439923e-003
9.439921e-003
9.439920e-003
9.439920e-003
9.439920e-003
9.439921e-003
9.439921e-003
9.440018e-003
9.440018e-003
9.440012e-003
9.439982e-003
9.439899e-003
9.439700e-003
9.439273e-003
9.438418e-003
9.436802e-003
9.433899e-003
9.428925e-003
9.420791e-003
9.408118e-003
9.389439e-003
9.363723e-003
9.331501e-003
9.296781e-003
9.269807e-003
9.270267e-003
9.329998e-003
9.493845e-003
9.817453e-003
1.036158e-002
1.118373e-002
1.232913e-002
1.382313e-002
1.566728e-002
1.783941e-002
2.029748e-002
2.298579e-002
2.584184e-002
2.880266e-002
3.180959e-002
3.481126e-002
3.776473e-002
4.063531e-002
4.339539e-002
4.602313e-002
4.850104e-002
5.081504e-002
5.295361e-002
5.490724e-002
5.666771e-002
5.822749e-002
5.957892e-002
6.071346e-002
6.162091e-002
6.228872e-002
6.270147e-002
6.284058e-002
6.268431e-002
6.220812e-002
6.138548e-002
6.018919e-002
5.859351e-002
5.657695e-002
5.412608e-002
5.124009e-002
4.793600e-002
4.425406e-002
4.026237e-002
3.605951e-002
3.177353e-002
2.755555e-002
2.356702e-002
1.996125e-002
1.686225e-002
1.434602e-002
1.242986e-002
1.107351e-002
1.019210e-002
9.676685e-003
9.416053e-003
9.313735e-003
9.297010e-003
9.318020e-003
9.349557e-003
9.378771e-003
9.401274e-003
9.416843e-003
9.426831e-003
9.432863e-003
9.436317e-003
9.438194e-003
9.439160e-003
9.439626e-003
9.439833e-003
9.439914e-003
9.439939e-003
9.439941e-003
9.439937e-003
9.439932e-003
9.439928e-003
9.439925e-003
9.439923e-003
9.439921e-003
9.439920e-003
9.439920e-003
9.439920e-003
9.439920e-003
9.440036e-003
9.440031e-003
9.440007e-003
9.439935e-003
9.439755e-003
9.439355e-003
9.438535e-003
9.436950e-003
9.434032e-003
9.428904e-003
9.420298e-003
9.406553e-003
9.385833e-003
9.356833e-003
9.320431e-003
9.282798e-003
9.260349e-003
9.286205e-003
9.416626e-003
9.734616e-003
1.034747e-002
1.137620e-002
1.293753e-002
1.512247e-002
1.797741e-002
2.149340e-002
2.560648e-002
3.020823e-002
3.516270e-002
4.032490e-002
4.555669e-002
5.073782e-002
5.577172e-002
6.058659e-002
6.513334e-002
6.938159e-002
7.331524e-002
7.692828e-002
8.022148e-002
8.319991e-002
8.587115e-002
8.824404e-002
9.032752e-002
9.212966e-002
9.365676e-002
9.491238e-002
9.589657e-002
9.660495e-002
9.702803e-002
9.715049e-002
9.695057e-002
9.639957e-002
9.546151e-002
9.409312e-002
9.224445e-002
8.986044e-002
8.688406e-002
8.326142e-002
7.894970e-002
7.392824e-002
6.821241e-002
6.186904e-002
5.502998e-002
4.789888e-002
4.074502e-002
3.387978e-002
2.761568e-002
2.221534e-002
1.784486e-002
1.454730e-002
1.224608e-002
1.077621e-002
9.930889e-003
9.506751e-003
9.335257e-003
9.295652e-003
9.312676e-003
9.345913e-003
9.377366e-003
9.401275e-003
9.417429e-003
9.427511e-003
9.433424e-003
9.436707e-003
9.438436e-003
9.439295e-003