# vtk DataFile Version 3.0
vtk output
ASCII
DATASET STRUCTURED_POINTS
DIMENSIONS 100 100 1
SPACING 1 1 1
ORIGIN 0 0 0
POINT_DATA 10000
SCALARS SFBox_profile double
LOOKUP_TABLE default 
9.439931e-003
9.439932e-003
9.439932e-003
9.439932e-003
9.439932e-003
9.439933e-003
9.439934e-003
9.439935e-003
9.439936e-003
9.439938e-003
9.439941e-003
9.439944e-003
9.439948e-003
9.439952e-003
9.439957e-003
9.439962e-003
9.439968e-003
9.439973e-003
9.439978e-003
9.439981e-003
9.439983e-003
9.439981e-003
9.439975e-003
9.439964e-003
9.439946e-003
9.439919e-003
9.439884e-003
9.439837e-003
9.439779e-003
9.439709e-003
9.439625e-003
9.439530e-003
9.439424e-003
9.439307e-003
9.439184e-003
9.439056e-003
9.438927e-003
9.438802e-003
9.438683e-003
9.438576e-003
9.438485e-003
9.438412e-003
9.438361e-003
9.438334e-003
9.438332e-003
9.438355e-003
9.438403e-003
9.438472e-003
9.438560e-003
9.438665e-003
9.438781e-003
9.438905e-003
9.439032e-003
9.439159e-003
9.439282e-003
9.439397e-003
9.439504e-003
9.439599e-003
9.439682e-003
9.439753e-003
9.439812e-003
9.439859e-003
9.439895e-003
9.439922e-003
9.439941e-003
9.439953e-003
9.439960e-003
9.439963e-003
9.439963e-003
9.439961e-003
9.439957e-003
9.439953e-003
9.439948e-003
9.439944e-003
9.439940e-003
9.439936e-003
9.439933e-003
9.439930e-003
9.439928e-003
9.439926e-003
9.439924e-003
9.439923e-003
9.439922e-003
9.439922e-003
9.439921e-003
9.439921e-003
9.439921e-003
9.439921e-003
9.439921e-003
9.439920e-003
9.439920e-003
9.439920e-003
9.439920e-003
9.439920e-003
9.439920e-003
9.439920e-003
9.439920e-003
9.439920e-003
9.439920e-003
9.439920e-003
9.439931e-003
9.439932e-003
9.439932e-003
9.439932e-003
9.439932e-003
9.439933e-003
9.439934e-003
9.439935e-003
9.439936e-003
9.439938e-003
9.439941e-003
9.439944e-003
9.439948e-003
9.439952e-003
9.439957e-003
9.439962e-003
9.439968e-003
9.439973e-003
9.439978e-003
9.439981e-003
9.439983e-003
9.439981e-003
9.439975e-003
9.439964e-003
9.439946e-003
9.439919e-003
9.439884e-003
9.439837e-003
9.439779e-003
9.439709e-003
9.439625e-003
9.439530e-003
9.439424e-003
9.439307e-003
9.439184e-003
9.439056e-003
9.438927e-003
9.438802e-003
9.438683e-003
9.438576e-003
9.438485e-003
9.438412e-003
9.438361e-003
9.438334e-003
9.438332e-003
9.438355e-003
9.438403e-003
9.438472e-003
9.438560e-003
9.438665e-003
9.438781e-003
9.438905e-003
9.439032e-003
9.439159e-003
9.439282e-003
9.439397e-003
9.439504e-003
9.439599e-003
9.439682e-003
9.439753e-003
9.439812e-003
9.439859e-003
9.439895e-003
9.439922e-003
9.439941e-003
9.439953e-003
9.439960e-003
9.439963e-003
9.439963e-003
9.439961e-003
9.439957e-003
9.439953e-003
9.439948e-003
9.439944e-003
9.439940e-003
9.439936e-003
9.439933e-003
9.439930e-003
9.439928e-003
9.439926e-003
9.439924e-003
9.439923e-003
9.439922e-003
9.439922e-003
9.439921e-003
9.439921e-003
9.439921e-003
9.439921e-003
9.439921e-003
9.439920e-003
9.439920e-003
9.439920e-003
9.439920e-003
9.439920e-003
9.439920e-003
9.439920e-003
9.439920e-003
9.439920e-003
9.439920e-003
9.439920e-003
9.439931e-003
9.439932e-003
9.439932e-003
9.439932e-003
9.439933e-003
9.439933e-003
9.439934e-003
9.439936e-003
9.439938e-003
9.439940e-003
9.439943e-003
9.439946e-003
9.439950e-003
9.439955e-003
9.439959e-003
9.439964e-003
9.439968e-003
9.439972e-003
9.439973e-003
9.439972e-003
9.439968e-003
9.439958e-003
9.439941e-003
9.439916e-003
9.439880e-003
9.439833e-003
9.439771e-003
9.439694e-003
9.439600e-003
9.439488e-003
9.439359e-003
9.439213e-003
9.439051e-003
9.438876e-003
9.438692e-003
9.438503e-003
9.438313e-003
9.438129e-003
9.437957e-003
9.437801e-003
9.437668e-003
9.437563e-003
9.437490e-003
9.437452e-003
9.437450e-003
9.437484e-003
9.437553e-003
9.437655e-003
9.437785e-003
9.437938e-003
9.438108e-003
9.438291e-003
9.438479e-003
9.438668e-003
9.438852e-003
9.439026e-003
9.439188e-003
9.439334e-003
9.439464e-003
9.439575e-003
9.439670e-003
9.439747e-003
9.439809e-003
9.439858e-003
9.439894e-003
9.439919e-003
9.439937e-003
9.439948e-003
9.439953e-003
9.439955e-003
9.439954e-003
9.439952e-003
9.439948e-003
9.439945e-003
9.439941e-003
9.439937e-003
9.439934e-003
9.439931e-003
9.439929e-003
9.439927e-003
9.439925e-003
9.439924e-003
9.439923e-003
9.439922e-003
9.439921e-003
9.439921e-003
9.439921e-003
9.439921e-003
9.439921e-003
9.439921e-003
9.439920e-003
9.439920e-003
9.439920e-003
9.439920e-003
9.439920e-003
9.439920e-003
9.439920e-003
9.439920e-003
9.439920e-003
9.439920e-003
9.439932e-003
9.439932e-003
9.439932e-003
9.439933e-003
9.439933e-003
9.439935e-003
9.439936e-003
9.439938e-003
9.439940e-003
9.439943e-003
9.439947e-003
9.439950e-003
9.439954e-003
9.439959e-003
9.439962e-003
9.439965e-003
9.439966e-003
9.439964e-003
9.439958e-003
9.439946e-003
9.439927e-003
9.439897e-003
9.439854e-003
9.439796e-003
9.439719e-003
9.439620e-003
9.439497e-003
9.439348e-003
9.439169e-003
9.438962e-003
9.438725e-003
9.438460e-003
9.438170e-003
9.437860e-003
9.437536e-003
9.437205e-003
9.436875e-003
9.436556e-003
9.436258e-003
9.435991e-003
9.435764e-003
9.435585e-003
9.435461e-003
9.435396e-003
9.435394e-003
9.435454e-003
9.435574e-003
9.435750e-003
9.435974e-003
9.436239e-003
9.436535e-003
9.436853e-003
9.437183e-003
9.437514e-003
9.437839e-003
9.438150e-003
9.438440e-003
9.438705e-003
9.438942e-003
9.439150e-003
9.439329e-003
9.439478e-003
9.439601e-003
9.439699e-003
9.439776e-003
9.439834e-003
9.439877e-003
9.439906e-003
9.439926e-003
9.439939e-003
9.439945e-003
9.439948e-003
9.439947e-003
9.439946e-003
9.439943e-003
9.439939e-003
9.439936e-003
9.439933e-003
9.439930e-003
9.439928e-003
9.439926e-003
9.439925e-003
9.439924e-003
9.439923e-003
9.439922e-003
9.439921e-003
9.439921e-003
9.439921e-003
9.439921e-003
9.439921e-003
9.439920e-003
9.439920e-003
9.439920e-003
9.439920e-003
9.439920e-003
9.439920e-003
9.439920e-003
9.439920e-003
9.439920e-003
9.439920e-003
9.439932e-003
9.439932e-003
9.439933e-003
9.439934e-003
9.439935e-003
9.439937e-003
9.439939e-003
9.439941e-003
9.439945e-003
9.439948e-003
9.439952e-003
9.439956e-003
9.439960e-003
9.439962e-003
9.439963e-003
9.439961e-003
9.439955e-003
9.439942e-003
9.439919e-003
9.439885e-003
9.439836e-003
9.439766e-003
9.439672e-003
9.439549e-003
9.439392e-003
9.439195e-003
9.438955e-003
9.438667e-003
9.438328e-003
9.437939e-003
9.437499e-003
9.437011e-003
9.436482e-003
9.435919e-003
9.435333e-003
9.434738e-003
9.434148e-003
9.433580e-003
9.433051e-003
9.432579e-003
9.432178e-003
9.431863e-003
9.431646e-003
9.431534e-003
9.431532e-003
9.431639e-003
9.431853e-003
9.432164e-003
9.432562e-003
9.433034e-003
9.433562e-003
9.434131e-003
9.434722e-003
9.435319e-003
9.435906e-003
9.436471e-003
9.437002e-003
9.437491e-003
9.437932e-003
9.438322e-003
9.438660e-003
9.438947e-003
9.439186e-003
9.439381e-003
9.439536e-003
9.439657e-003
9.439750e-003
9.439818e-003
9.439866e-003
9.439900e-003
9.439921e-003
9.439934e-003
9.439941e-003
9.439944e-003
9.439944e-003
9.439942e-003
9.439939e-003
9.439936e-003
9.439933e-003
9.439931e-003
9.439928e-003
9.439926e-003
9.439925e-003
9.439924e-003
9.439923e-003
9.439922e-003
9.439921e-003
9.439921e-003
9.439921e-003
9.439921e-003
9.439921e-003
9.439920e-003
9.439920e-003
9.439920e-003
9.439920e-003
9.439920e-003
9.439920e-003
9.439920e-003
9.439920e-003
9.439920e-003
9.439933e-003
9.439933e-003
9.439934e-003
9.439935e-003
9.439937e-003
9.439940e-003
9.439943e-003
9.439946e-003
9.439950e-003
9.439954e-003
9.439958e-003
9.439961e-003
9.439963e-003
9.439962e-003
9.439956e-003
9.439944e-003
9.439921e-003
9.439886e-003
9.439832e-003
9.439756e-003
9.439649e-003
9.439506e-003
9.439317e-003
9.439076e-003
9.438773e-003
9.438399e-003
9.437949e-003
9.437414e-003
9.436792e-003
9.436082e-003
9.435285e-003
9.434407e-003
9.433460e-003
9.432459e-003
9.431421e-003
9.430372e-003
9.429336e-003
9.428342e-003
9.427420e-003
9.426599e-003
9.425904e-003
9.425360e-003
9.424985e-003
9.424793e-003
9.424791e-003
9.424979e-003
9.425351e-003
9.425893e-003
9.426587e-003
9.427409e-003
9.428333e-003
9.429330e-003
9.430369e-003
9.431424e-003
9.432466e-003
9.433472e-003
9.434423e-003
9.435303e-003
9.436102e-003
9.436813e-003
9.437434e-003
9.437966e-003
9.438414e-003
9.438783e-003
9.439081e-003
9.439318e-003
9.439501e-003
9.439640e-003
9.439743e-003
9.439816e-003
9.439867e-003
9.439901e-003
9.439922e-003
9.439934e-003
9.439940e-003
9.439942e-003
9.439941e-003
9.439939e-003
9.439937e-003
9.439934e-003
9.439931e-003
9.439929e-003
9.439927e-003
9.439925e-003
9.439924e-003
9.439923e-003
9.439922e-003
9.439921e-003
9.439921e-003
9.439921e-003
9.439921e-003
9.439921e-003
9.439920e-003
9.439920e-003
9.439920e-003
9.439920e-003
9.439920e-003
9.439920e-003
9.439920e-003
9.439920e-003
9.439934e-003
9.439935e-003
9.439936e-003
9.439938e-003
9.439941e-003
9.439944e-003
9.439948e-003
9.439952e-003
9.439957e-003
9.439961e-003
9.439963e-003
9.439964e-003
9.439960e-003
9.439950e-003
9.439930e-003
9.439896e-003
9.439844e-003
9.439766e-003
9.439654e-003
9.439499e-003
9.439290e-003
9.439014e-003
9.438659e-003
9.438209e-003
9.437651e-003
9.436971e-003
9.436157e-003
9.435200e-003
9.434095e-003
9.432840e-003
9.431442e-003
9.429911e-003
9.428268e-003
9.426540e-003
9.424759e-003
9.422966e-003
9.421204e-003
9.419522e-003
9.417967e-003
9.416586e-003
9.415423e-003
9.414515e-003
9.413892e-003
9.413575e-003
9.413575e-003
9.413892e-003
9.414516e-003
9.415426e-003
9.416593e-003
9.417978e-003
9.419539e-003
9.421228e-003
9.422998e-003
9.424800e-003
9.426590e-003
9.428327e-003
9.429977e-003
9.431513e-003
9.432915e-003
9.434170e-003
9.435274e-003
9.436226e-003
9.437033e-003
9.437705e-003
9.438253e-003
9.438693e-003
9.439038e-003
9.439303e-003
9.439503e-003
9.439650e-003
9.439756e-003
9.439829e-003
9.439877e-003
9.439908e-003
9.439927e-003
9.439937e-003
9.439941e-003
9.439941e-003
9.439940e-003
9.439937e-003
9.439934e-003
9.439931e-003
9.439929e-003
9.439927e-003
9.439925e-003
9.439924e-003
9.439923e-003
9.439922e-003
9.439921e-003
9.439921e-003
9.439921e-003
9.439921e-003
9.439921e-003
9.439920e-003
9.439920e-003
9.439920e-003
9.439920e-003
9.439920e-003
9.439920e-003
9.439920e-003
9.439937e-003
9.439938e-003
9.439940e-003
9.439943e-003
9.439946e-003
9.439950e-003
9.439955e-003
9.439959e-003
9.439963e-003
9.439965e-003
9.439964e-003
9.439957e-003
9.439942e-003
9.439913e-003
9.439865e-003
9.439792e-003
9.439683e-003
9.439528e-003
9.439311e-003
9.439018e-003
9.438630e-003
9.438125e-003
9.437482e-003
9.436677e-003
9.435688e-003
9.434492e-003
9.433072e-003
9.431414e-003
9.429512e-003
9.427368e-003
9.424993e-003
9.422412e-003
9.419659e-003
9.416781e-003
9.413836e-003
9.410889e-003
9.408014e-003
9.405285e-003
9.402778e-003
9.400565e-003
9.398711e-003
9.397271e-003
9.396289e-003
9.395795e-003
9.395803e-003
9.396315e-003
9.397313e-003
9.398768e-003
9.400636e-003
9.402863e-003
9.405383e-003
9.408124e-003
9.411012e-003
9.413971e-003
9.416929e-003
9.419818e-003
9.422580e-003
9.425169e-003
9.427547e-003
9.429691e-003
9.431589e-003
9.433239e-003
9.434646e-003
9.435827e-003
9.436798e-003
9.437584e-003
9.438207e-003
9.438692e-003
9.439062e-003
9.439339e-003
9.439541e-003
9.439685e-003
9.439784e-003
9.439850e-003
9.439893e-003
9.439918e-003
9.439932e-003
9.439939e-003
9.439941e-003
9.439940e-003
9.439937e-003
9.439935e-003
9.439932e-003
9.439929e-003
9.439927e-003
9.439925e-003
9.439924e-003
9.439923e-003
9.439922e-003
9.439921e-003
9.439921e-003
9.439921e-003
9.439921e-003
9.439921e-003
9.439920e-003
9.439920e-003
9.439920e-003
9.439920e-003
9.439920e-003
9.439920e-003
9.439942e-003
9.439943e-003
9.439946e-003
9.439949e-003
9.439953e-003
9.439957e-003
9.439962e-003
9.439966e-003
9.439967e-003
9.439964e-003
9.439953e-003
9.439931e-003
9.439892e-003
9.439829e-003
9.439730e-003
9.439585e-003
9.439376e-003
9.439085e-003
9.438688e-003
9.438158e-003
9.437465e-003
9.436575e-003
9.435452e-003
9.434058e-003
9.432359e-003
9.430323e-003
9.427922e-003
9.425141e-003
9.421975e-003
9.418433e-003
9.414545e-003
9.410354e-003
9.405927e-003
9.401343e-003
9.396699e-003
9.392101e-003
9.387662e-003
9.383494e-003
9.379706e-003
9.376397e-003
9.373653e-003
9.371544e-003
9.370121e-003
9.369420e-003
9.369457e-003
9.370229e-003
9.371716e-003
9.373883e-003
9.376673e-003
9.380018e-003
9.383831e-003
9.388016e-003
9.392467e-003
9.397073e-003
9.401722e-003
9.406310e-003
9.410740e-003
9.414931e-003
9.418816e-003
9.422350e-003
9.425504e-003
9.428268e-003
9.430645e-003
9.432653e-003
9.434320e-003
9.435679e-003
9.436766e-003
9.437621e-003
9.438280e-003
9.438778e-003
9.439148e-003
9.439415e-003
9.439604e-003
9.439734e-003
9.439820e-003
9.439876e-003
9.439909e-003
9.439928e-003
9.439937e-003
9.439940e-003
9.439940e-003
9.439938e-003
9.439935e-003
9.439932e-003
9.439929e-003
9.439927e-003
9.439925e-003
9.439924e-003
9.439923e-003
9.439922e-003
9.439921e-003
9.439921e-003
9.439921e-003
9.439921e-003
9.439921e-003
9.439920e-003
9.439920e-003
9.439920e-003
9.439920e-003
9.439920e-003
9.439949e-003
9.439951e-003
9.439953e-003
9.439957e-003
9.439961e-003
9.439965e-003
9.439968e-003
9.439968e-003
9.439963e-003
9.439948e-003
9.439919e-003
9.439868e-003
9.439786e-003
9.439659e-003
9.439471e-003
9.439200e-003
9.438820e-003
9.438298e-003
9.437598e-003
9.436675e-003
9.435479e-003
9.433958e-003
9.432055e-003
9.429715e-003
9.426887e-003
9.423524e-003
9.419597e-003
9.415089e-003
9.410010e-003
9.404393e-003
9.398300e-003
9.391822e-003
9.385079e-003
9.378210e-003
9.371373e-003
9.364732e-003
9.358448e-003
9.352673e-003
9.347539e-003
9.343152e-003
9.339594e-003
9.336923e-003
9.335170e-003
9.334354e-003
9.334475e-003
9.335526e-003
9.337489e-003
9.340338e-003
9.344030e-003
9.348508e-003
9.353692e-003
9.359481e-003
9.365751e-003
9.372363e-003
9.379160e-003
9.385986e-003
9.392689e-003
9.399127e-003
9.405182e-003
9.410762e-003
9.415802e-003
9.420267e-003
9.424147e-003
9.427456e-003
9.430228e-003
9.432506e-003
9.434346e-003
9.435805e-003
9.436940e-003
9.437807e-003
9.438457e-003
9.438934e-003
9.439276e-003
9.439517e-003
9.439681e-003
9.439789e-003
9.439858e-003
9.439900e-003
9.439923e-003
9.439935e-003
9.439940e-003
9.439940e-003
9.439938e-003
9.439935e-003
9.439932e-003
9.439929e-003
9.439927e-003
9.439925e-003
9.439924e-003
9.439923e-003
9.439922e-003
9.439921e-003
9.439921e-003
9.439921e-003
9.439921e-003
9.439921e-003
9.439920e-003
9.439920e-003
9.439920e-003
9.439920e-003
9.439959e-003
9.439960e-003
9.439963e-003
9.439967e-003
9.439970e-003
9.439972e-003
9.439971e-003
9.439962e-003
9.439943e-003
9.439906e-003
9.439842e-003
9.439739e-003
9.439580e-003
9.439344e-003
9.439002e-003
9.438520e-003
9.437854e-003
9.436953e-003
9.435757e-003
9.434196e-003
9.432193e-003
9.429670e-003
9.426541e-003
9.422730e-003
9.418168e-003
9.412804e-003
9.406613e-003
9.399603e-003
9.391824e-003
9.383371e-003
9.374387e-003
9.365058e-003
9.355606e-003
9.346276e-003
9.337319e-003
9.328970e-003
9.321433e-003
9.314864e-003
9.309357e-003
9.304951e-003
9.301627e-003
9.299332e-003
9.297988e-003
9.297522e-003
9.297879e-003
9.299032e-003
9.300992e-003
9.303795e-003
9.307492e-003
9.312132e-003
9.317736e-003
9.324288e-003
9.331716e-003
9.339897e-003
9.348655e-003
9.357777e-003
9.367031e-003
9.376180e-003
9.385006e-003
9.393322e-003
9.400979e-003
9.407878e-003
9.413963e-003
9.419222e-003
9.423677e-003
9.427380e-003
9.430399e-003
9.432816e-003
9.434714e-003
9.436178e-003
9.437286e-003
9.438108e-003
9.438705e-003
9.439131e-003
9.439426e-003
9.439626e-003
9.439758e-003
9.439841e-003
9.439891e-003
9.439919e-003
9.439933e-003
9.439939e-003
9.439940e-003
9.439938e-003
9.439935e-003
9.439932e-003
9.439929e-003
9.439927e-003
9.439925e-003
9.439924e-003
9.439923e-003
9.439922e-003
9.439921e-003
9.439921e-003
9.439921e-003
9.439921e-003
9.439921e-003
9.439920e-003
9.439920e-003
9.439920e-003
9.439971e-003
9.439973e-003
9.439975e-003
9.439977e-003
9.439977e-003
9.439974e-003
9.439963e-003
9.439938e-003
9.439893e-003
9.439815e-003
9.439689e-003
9.439496e-003
9.439207e-003
9.438787e-003
9.438192e-003
9.437363e-003
9.436235e-003
9.434725e-003
9.432740e-003
9.430174e-003
9.426917e-003
9.422850e-003
9.417863e-003
9.411859e-003
9.404766e-003
9.396551e-003
9.387239e-003
9.376919e-003
9.365758e-003
9.354005e-003
9.341983e-003
9.330082e-003
9.318722e-003
9.308331e-003
9.299290e-003
9.291902e-003
9.286342e-003
9.282642e-003
9.280673e-003
9.280167e-003
9.280743e-003
9.281969e-003
9.283420e-003
9.284742e-003
9.285707e-003
9.286245e-003
9.286458e-003
9.286593e-003
9.287008e-003
9.288109e-003
9.290288e-003
9.293865e-003
9.299039e-003
9.305863e-003
9.314242e-003
9.323947e-003
9.334649e-003
9.345958e-003
9.357467e-003
9.368791e-003
9.379596e-003
9.389619e-003
9.398678e-003
9.406666e-003
9.413552e-003
9.419359e-003
9.424156e-003
9.428039e-003
9.431122e-003
9.433523e-003
9.435358e-003
9.436733e-003
9.437744e-003
9.438471e-003
9.438984e-003
9.439337e-003
9.439574e-003
9.439728e-003
9.439825e-003
9.439883e-003
9.439916e-003
9.439932e-003
9.439939e-003
9.439940e-003
9.439938e-003
9.439935e-003
9.439932e-003
9.439929e-003
9.439927e-003
9.439925e-003
9.439923e-003
9.439922e-003
9.439922e-003
9.439921e-003
9.439921e-003
9.439921e-003
9.439921e-003
9.439921e-003
9.439920e-003
9.439920e-003
9.439986e-003
9.439987e-003
9.439987e-003
9.439985e-003
9.439979e-003
9.439964e-003
9.439934e-003
9.439880e-003
9.439788e-003
9.439639e-003
9.439410e-003
9.439066e-003
9.438563e-003
9.437845e-003
9.436840e-003
9.435460e-003
9.433601e-003
9.431139e-003
9.427935e-003
9.423838e-003
9.418690e-003
9.412343e-003
9.404667e-003
9.395573e-003
9.385039e-003
9.373131e-003
9.360031e-003
9.346056e-003
9.331672e-003
9.317487e-003
9.304232e-003
9.292710e-003
9.283730e-003
9.278020e-003
9.276128e-003
9.278331e-003
9.284558e-003
9.294349e-003
9.306864e-003
9.320940e-003
9.335199e-003
9.348202e-003
9.358613e-003
9.365365e-003
9.367796e-003
9.365734e-003
9.359518e-003
9.349949e-003
9.338186e-003
9.325593e-003
9.313573e-003
9.303404e-003
9.296103e-003
9.292339e-003
9.292396e-003
9.296189e-003
9.303320e-003
9.313166e-003
9.324975e-003
9.337957e-003
9.351368e-003
9.364566e-003
9.377046e-003
9.388447e-003
9.398553e-003
9.407271e-003
9.414608e-003
9.420641e-003
9.425495e-003
9.429320e-003
9.432274e-003
9.434512e-003
9.436173e-003
9.437382e-003
9.438244e-003
9.438846e-003
9.439256e-003
9.439528e-003
9.439703e-003
9.439812e-003
9.439877e-003
9.439913e-003
9.439931e-003
9.439938e-003
9.439940e-003
9.439938e-003
9.439935e-003
9.439932e-003
9.439929e-003
9.439927e-003
9.439925e-003
9.439923e-003
9.439922e-003
9.439922e-003
9.439921e-003
9.439921e-003
9.439921e-003
9.439921e-003
9.439921e-003
9.439920e-003
9.440001e-003
9.440000e-003
9.439997e-003
9.439988e-003
9.439969e-003
9.439933e-003
9.439869e-003
9.439762e-003
9.439591e-003
9.439325e-003
9.438925e-003
9.438336e-003
9.437491e-003
9.436300e-003
9.434653e-003
9.432417e-003
9.429436e-003
9.425529e-003
9.420500e-003
9.414147e-003
9.406277e-003
9.396731e-003
9.385416e-003
9.372345e-003
9.357683e-003
9.341797e-003
9.325296e-003
9.309062e-003
9.294259e-003
9.282299e-003
9.274769e-003
9.273307e-003
9.279433e-003
9.294347e-003
9.318720e-003
9.352500e-003
9.394774e-003
9.443720e-003
9.496663e-003
9.550250e-003
9.600736e-003
9.644340e-003
9.677645e-003
9.697974e-003
9.703696e-003
9.694414e-003
9.671012e-003
9.635550e-003
9.591019e-003
9.541004e-003
9.489287e-003
9.439464e-003
9.394605e-003
9.357015e-003
9.328110e-003
9.308406e-003
9.297614e-003
9.294807e-003
9.298627e-003
9.307498e-003
9.319818e-003
9.334105e-003
9.349102e-003
9.363825e-003
9.377570e-003
9.389896e-003
9.400583e-003
9.409578e-003
9.416954e-003
9.422858e-003
9.427480e-003
9.431021e-003
9.433679e-003
9.435634e-003
9.437043e-003
9.438037e-003
9.438723e-003
9.439186e-003
9.439490e-003
9.439684e-003
9.439803e-003
9.439873e-003
9.439912e-003
9.439931e-003
9.439938e-003
9.439940e-003
9.439938e-003
9.439935e-003
9.439932e-003
9.439929e-003
9.439926e-003
9.439924e-003
9.439923e-003
9.439922e-003
9.439922e-003
9.439921e-003
9.439921e-003
9.439921e-003
9.439921e-003
9.439921e-003
9.440015e-003
9.440010e-003
9.439999e-003
9.439976e-003
9.439934e-003
9.439861e-003
9.439741e-003
9.439547e-003
9.439246e-003
9.438790e-003
9.438117e-003
9.437143e-003
9.435762e-003
9.433840e-003
9.431212e-003
9.427682e-003
9.423025e-003
9.416996e-003
9.409339e-003
9.399819e-003
9.388253e-003
9.374565e-003
9.358853e-003
9.341467e-003
9.323103e-003
9.304889e-003
9.288455e-003
9.275969e-003
9.270113e-003
9.273977e-003
9.290858e-003
9.323961e-003
9.376018e-003
9.448856e-003
9.542965e-003
9.657141e-003
9.788259e-003
9.931246e-003
1.007928e-002
1.022425e-002
1.035736e-002
1.046997e-002
1.055440e-002
1.060469e-002
1.061727e-002
1.059129e-002
1.052874e-002
1.043424e-002
1.031453e-002
1.017780e-002
1.003283e-002
9.888208e-003
9.751560e-003
9.628976e-003
9.524677e-003
9.440906e-003
9.378052e-003
9.334952e-003
9.309294e-003
9.298068e-003
9.297987e-003
9.305840e-003
9.318745e-003
9.334307e-003
9.350676e-003
9.366537e-003
9.381045e-003
9.393744e-003
9.404465e-003
9.413245e-003
9.420243e-003
9.425685e-003
9.429823e-003
9.432902e-003
9.435145e-003
9.436745e-003
9.437862e-003
9.438625e-003
9.439134e-003
9.439465e-003
9.439673e-003
9.439799e-003
9.439872e-003
9.439912e-003
9.439931e-003
9.439938e-003
9.439939e-003
9.439937e-003
9.439934e-003
9.439931e-003
9.439928e-003
9.439926e-003
9.439924e-003
9.439923e-003
9.439922e-003
9.439921e-003
9.439921e-003
9.439921e-003
9.439921e-003
9.439921e-003
9.440020e-003
9.440009e-003
9.439985e-003
9.439938e-003
9.439857e-003
9.439723e-003
9.439509e-003
9.439175e-003
9.438667e-003
9.437913e-003
9.436815e-003
9.435248e-003
9.433051e-003
9.430027e-003
9.425937e-003
9.420507e-003
9.413435e-003
9.404412e-003
9.393160e-003
9.379484e-003
9.363358e-003
9.345029e-003
9.325158e-003
9.304981e-003
9.286471e-003
9.272496e-003
9.266918e-003
9.274606e-003
9.301314e-003
9.353388e-003
9.437281e-003
9.558892e-003
9.722758e-003
9.931206e-003
1.018355e-002
1.047549e-002
1.079880e-002
1.114148e-002
1.148826e-002
1.182163e-002
1.212320e-002
1.237520e-002
1.256207e-002
1.267193e-002
1.269767e-002
1.263767e-002
1.249591e-002
1.228162e-002
1.200844e-002
1.169306e-002
1.135378e-002
1.100885e-002
1.067500e-002
1.036621e-002
1.009288e-002
9.861449e-003
9.674505e-003
9.531201e-003
9.428007e-003
9.359560e-003
9.319538e-003
9.301415e-003
9.299068e-003
9.307161e-003
9.321361e-003
9.338376e-003
9.355884e-003
9.372388e-003
9.387045e-003
9.399489e-003
9.409679e-003
9.417771e-003
9.424026e-003
9.428745e-003
9.432225e-003
9.434735e-003
9.436508e-003
9.437732e-003
9.438559e-003
9.439103e-003
9.439453e-003
9.439670e-003
9.439800e-003
9.439874e-003
9.439913e-003
9.439932e-003
9.439939e-003
9.439939e-003
9.439937e-003
9.439934e-003
9.439931e-003
9.439928e-003
9.439926e-003
9.439924e-003
9.439923e-003
9.439922e-003
9.439921e-003
9.439921e-003
9.439921e-003
9.439921e-003
9.440009e-003
9.439988e-003
9.439940e-003
9.439854e-003
9.439709e-003
9.439477e-003
9.439114e-003
9.438560e-003
9.437732e-003
9.436520e-003
9.434777e-003
9.432318e-003
9.428908e-003
9.424266e-003
9.418064e-003
9.409940e-003
9.399530e-003
9.386514e-003
9.370704e-003
9.352159e-003
9.331366e-003
9.309452e-003
9.288462e-003
9.271657e-003
9.263804e-003
9.271420e-003
9.302872e-003
9.368285e-003
9.479152e-003
9.647618e-003
9.885401e-003
1.020243e-002
1.060531e-002
1.109573e-002
1.166920e-002
1.231418e-002
1.301186e-002
1.373674e-002
1.445802e-002
1.514159e-002
1.575259e-002
1.625809e-002
1.662981e-002
1.684638e-002
1.689517e-002
1.677329e-002
1.648787e-002
1.605548e-002
1.550076e-002
1.485442e-002
1.415072e-002
1.342471e-002
1.270955e-002
1.203410e-002
1.142114e-002
1.088630e-002
1.043782e-002
1.007709e-002
9.799772e-003
9.597266e-003
9.458365e-003
9.370775e-003
9.322394e-003
9.302240e-003
9.301011e-003
9.311314e-003
9.327633e-003
9.346121e-003
9.364309e-003
9.380782e-003
9.394876e-003
9.406426e-003
9.415568e-003
9.422591e-003
9.427848e-003
9.431689e-003
9.434431e-003
9.436347e-003
9.437655e-003
9.438528e-003
9.439096e-003
9.439455e-003
9.439675e-003
9.439805e-003
9.439878e-003
9.439916e-003
9.439933e-003
9.439939e-003
9.439939e-003
9.439936e-003
9.439933e-003
9.439930e-003
9.439927e-003
9.439925e-003
9.439924e-003
9.439922e-003
9.439922e-003
9.439921e-003
9.439921e-003
9.439921e-003
9.439967e-003
9.439929e-003
9.439844e-003
9.439695e-003
9.439450e-003
9.439063e-003
9.438470e-003
9.437580e-003
9.436267e-003
9.434367e-003
9.431668e-003
9.427900e-003
9.422734e-003
9.415788e-003
9.406638e-003
9.394862e-003
9.380104e-003
9.362197e-003
9.341333e-003
9.318327e-003
9.294959e-003
9.274405e-003
9.261743e-003
9.264473e-003
9.292990e-003
9.360884e-003
9.484935e-003
9.684672e-003
9.981361e-003
1.039639e-002
1.094908e-002
1.165407e-002
1.251860e-002
1.354003e-002
1.470403e-002
1.598374e-002
1.734028e-002
1.872450e-002
2.007993e-002
2.134659e-002
2.246519e-002
2.338140e-002
2.404955e-002
2.443583e-002
2.452045e-002
2.429895e-002
2.378250e-002
2.299718e-002
2.198238e-002
2.078814e-002
1.947179e-002
1.809384e-002
1.671372e-002
1.538557e-002
1.415467e-002
1.305491e-002
1.210749e-002
1.132107e-002
1.069307e-002
1.021195e-002
9.859913e-003
9.615780e-003
9.457485e-003
9.364089e-003
9.317132e-003
9.301350e-003
9.304863e-003
9.318960e-003
9.337658e-003
9.357145e-003
9.375226e-003
9.390839e-003
9.403649e-003
9.413751e-003
9.421462e-003
9.427185e-003
9.431327e-003
9.434253e-003
9.436273e-003
9.437637e-003
9.438535e-003
9.439112e-003
9.439472e-003
9.439690e-003
9.439815e-003
9.439884e-003
9.439919e-003
9.439935e-003
9.439939e-003
9.439939e-003
9.439936e-003
9.439932e-003
9.439929e-003
9.439927e-003
9.439925e-003
9.439923e-003
9.439922e-003
9.439921e-003
9.439921e-003
9.439921e-003
9.439872e-003
9.439808e-003
9.439666e-003
9.439418e-003
9.439018e-003
9.438397e-003
9.437457e-003
9.436063e-003
9.434032e-003
9.431125e-003
9.427039e-003
9.421399e-003
9.413765e-003
9.403652e-003
9.390576e-003
9.374149e-003
9.354236e-003
9.331206e-003
9.306296e-003
9.282121e-003
9.263338e-003
9.257429e-003
9.275581e-003
9.333509e-003
9.452097e-003
9.657602e-003
9.981208e-003
1.045770e-002
1.112310e-002
1.201136e-002
1.315015e-002
1.455642e-002
1.623206e-002
1.816068e-002
2.030584e-002
2.261140e-002
2.500409e-002
2.739784e-002
2.969963e-002
3.181577e-002
3.365798e-002
3.514870e-002
3.622516e-002
3.684216e-002
3.697384e-002
3.661450e-002
3.577877e-002
3.450121e-002
3.283509e-002
3.085031e-002
2.863011e-002
2.626643e-002
2.385428e-002
2.148529e-002
1.924140e-002
1.718940e-002
1.537711e-002
1.383172e-002
1.256038e-002
1.155279e-002
1.078524e-002
1.022528e-002
9.836292e-003
9.581557e-003
9.427172e-003
9.343960e-003
9.308305e-003
9.302177e-003
9.312591e-003
9.330760e-003
9.351154e-003
9.370608e-003
9.387566e-003
9.401487e-003
9.412420e-003
9.420705e-003
9.426799e-003
9.431163e-003
9.434212e-003
9.436293e-003
9.437679e-003
9.438581e-003
9.439152e-003
9.439503e-003
9.439711e-003
9.439829e-003
9.439893e-003
9.439924e-003
9.439936e-003
9.439939e-003
9.439938e-003
9.439935e-003
9.439931e-003
9.439928e-003
9.439926e-003
9.439924e-003
9.439923e-003
9.439922e-003
9.439921e-003
9.439921e-003
9.439693e-003
9.439588e-003
9.439359e-003
9.438962e-003
9.438330e-003
9.437360e-003
9.435908e-003
9.433777e-003
9.430705e-003
9.426356e-003
9.420311e-003
9.412073e-003
9.401092e-003
9.386824e-003
9.368846e-003
9.347066e-003
9.322053e-003
9.295543e-003
9.271158e-003
9.255356e-003
9.258624e-003
9.296820e-003
9.392538e-003
9.576250e-003
9.886883e-003
1.037145e-002
1.108337e-002
1.207913e-002
1.341332e-002
1.513226e-002
1.726682e-002
1.982556e-002
2.278923e-002
2.610791e-002
2.970150e-002
3.346383e-002
3.727000e-002
4.098558e-002
4.447651e-002
4.761790e-002
5.030083e-002
5.243649e-002
5.395787e-002
5.481958e-002
5.499692e-002
5.448483e-002
5.329767e-002
5.146963e-002
4.905584e-002
4.613315e-002
4.279969e-002
3.917246e-002
3.538216e-002
3.156544e-002
2.785527e-002
2.437091e-002
2.120883e-002
1.843641e-002
1.608913e-002
1.417171e-002
1.266247e-002
1.151999e-002
1.069075e-002
1.011637e-002
9.739677e-003
9.509074e-003
9.381011e-003
9.320905e-003
9.302831e-003
9.308443e-003
9.325526e-003
9.346508e-003
9.367103e-003
9.385204e-003
9.400052e-003
9.411649e-003
9.420365e-003
9.426712e-003
9.431208e-003
9.434312e-003
9.436404e-003
9.437779e-003
9.438661e-003
9.439211e-003
9.439544e-003
9.439738e-003