# vtk DataFile Version 3.0
vtk output
ASCII
DATASET STRUCTURED_POINTS
DIMENSIONS 100 100 1
SPACING 1 1 1
ORIGIN 0 0 0
POINT_DATA 10000
SCALARS SFBox_profile double
LOOKUP_TABLE default 
0.000000e+000
0.000000e+000
0.000000e+000
0.000000e+000
0.000000e+000
0.000000e+000
0.000000e+000
0.000000e+000
0.000000e+000
0.000000e+000
0.000000e+000
0.000000e+000
0.000000e+000
0.000000e+000
0.000000e+000
0.000000e+000
0.000000e+000
0.000000e+000
0.000000e+000
0.000000e+000
0.000000e+000
0.000000e+000
0.000000e+000
0.000000e+000
0.000000e+000
0.000000e+000
0.000000e+000
0.000000e+000
0.000000e+000
0.000000e+000
0.000000e+000
0.000000e+000
0.000000e+000
0.000000e+000
0.000000e+000
0.000000e+000
0.000000e+000
0.000000e+000
0.000000e+000
0.000000e+000
0.000000e+000
0.000000e+000
0.000000e+000
0.000000e+000
0.000000e+000
0.000000e+000
0.000000e+000
0.000000e+000
0.000000e+000
0.000000e+000
0.000000e+000
0.000000e+000
0.000000e+000
0.000000e+000
0.000000e+000
0.000000e+000
0.000000e+000
0.000000e+000
0.000000e+000
0.000000e+000
0.000000e+000
0.000000e+000
0.000000e+000
0.000000e+000
0.000000e+000
0.000000e+000
0.000000e+000
0.000000e+000
0.000000e+000
0.000000e+000
0.000000e+000
0.000000e+000
0.000000e+000
0.000000e+000
0.000000e+000
0.000000e+000
0.000000e+000
0.000000e+000
0.000000e+000
0.000000e+000
0.000000e+000
0.000000e+000
0.000000e+000
0.000000e+000
0.000000e+000
0.000000e+000
0.000000e+000
0.000000e+000
0.000000e+000
0.000000e+000
0.000000e+000
0.000000e+000
0.000000e+000
0.000000e+000
0.000000e+000
0.000000e+000
0.000000e+000
0.000000e+000
0.000000e+000
0.000000e+000
3.999747e-009
1.333479e-009
-2.238748e-009
-4.505452e-009
-4.024628e-009
-9.288705e-010
3.113489e-009
5.795270e-009
5.466499e-009
2.104465e-009
-2.625964e-009
-6.287572e-009
-7.029675e-009
-4.574413e-009
-2.540353e-010
3.860917e-009
6.132420e-009
6.084148e-009
4.326208e-009
1.893298e-009
-4.377142e-010
-2.394489e-009
-3.986500e-009
-5.145624e-009
-5.595252e-009
-5.039431e-009
-3.457860e-009
-1.217465e-009
1.101797e-009
3.016030e-009
4.336392e-009
5.135535e-009
5.562037e-009
5.683809e-009
5.473952e-009
4.906439e-009
4.043661e-009
3.032952e-009
2.028251e-009
1.116051e-009
3.048424e-010
-4.294339e-010
-1.093984e-009
-1.666747e-009
-2.118859e-009
-2.440776e-009
-2.647219e-009
-2.762147e-009
-2.801589e-009
-2.767744e-009
-2.653553e-009
-2.449771e-009
-2.149976e-009
-1.753991e-009
-1.269510e-009
-7.088470e-010
-8.071697e-011
6.147787e-010
1.377359e-009
2.184878e-009
2.976839e-009
3.663822e-009
4.162190e-009
4.425213e-009
4.438417e-009
4.180607e-009
3.594579e-009
2.615693e-009
1.255683e-009
-3.256481e-010
-1.838839e-009
-2.982545e-009
-3.576764e-009
-3.602763e-009
-3.123024e-009
-2.175256e-009
-7.723775e-010
9.608492e-010
2.643623e-009
3.677075e-009
3.529754e-009
2.110966e-009
-5.544680e-011
-2.039082e-009
-2.997791e-009
-2.636377e-009
-1.320894e-009
2.076836e-010
1.290751e-009
1.658328e-009
1.421685e-009
8.485806e-010
1.552649e-010
-5.300898e-010
-1.074866e-009
-1.285667e-009
-9.960563e-010
-2.367201e-010
6.851552e-010
1.313096e-009
4.627217e-010
2.561497e-010
-9.831257e-011
-4.628695e-010
-6.284252e-010
-4.301632e-010
9.592824e-011
6.639670e-010
8.882730e-010
5.591570e-010
-1.629567e-010
-8.137275e-010
-9.384274e-010
-4.320443e-010
3.604713e-010
8.789283e-010
7.516442e-010
6.350984e-011
-7.139671e-010
-1.069111e-009
-8.012513e-010
-1.173844e-010
5.691236e-010
9.489296e-010
9.879304e-010
8.563888e-010
7.214655e-010
6.003255e-010
3.851148e-010
-1.469120e-011
-5.596872e-010
-1.095559e-009
-1.467094e-009
-1.620939e-009
-1.614099e-009
-1.539286e-009
-1.445613e-009
-1.320232e-009
-1.130107e-009
-8.719452e-010
-5.837699e-010
-3.163438e-010
-9.832559e-011
7.355358e-011
2.174260e-010
3.437894e-010
4.474348e-010
5.154786e-010
5.393761e-010
5.200299e-010
4.649302e-010
3.825058e-010
2.777650e-010
1.501365e-010
-5.711494e-012
-1.944427e-010
-4.113813e-010
-6.375936e-010
-8.461140e-010
-1.017193e-009
-1.148683e-009
-1.247997e-009
-1.309411e-009
-1.299715e-009
-1.173886e-009
-9.151027e-010
-5.640015e-010
-2.034946e-010
9.542938e-011
3.191401e-010
5.005131e-010
6.564640e-010
7.364272e-010
6.460619e-010
3.423120e-010
-8.337457e-011
-4.258054e-010
-4.989629e-010
-2.813475e-010
5.440222e-011
2.665303e-010
2.279876e-010
1.555218e-011
-1.711445e-010
-1.875336e-010
-6.074194e-011
5.588625e-011
4.221991e-011
-6.773153e-011
-1.192853e-010
3.832540e-012
2.441370e-010
3.930989e-010
2.662710e-010
-1.163936e-010
-5.085743e-010
-6.100198e-010
-3.041298e-010
2.315479e-010
6.392738e-010
-3.781502e-009
-1.114579e-009
2.322852e-009
4.265638e-009
3.455132e-009
3.441477e-010
-3.237789e-009
-5.203957e-009
-4.416186e-009
-1.273137e-009
2.606878e-009
5.339622e-009
5.754012e-009
3.852997e-009
6.013149e-010
-2.697473e-009
-5.000609e-009
-5.806953e-009
-5.109368e-009
-3.207124e-009
-5.601959e-010
2.274555e-009
4.701166e-009
6.203056e-009
6.493147e-009
5.598519e-009
3.813669e-009
1.552759e-009
-8.008599e-010
-2.967577e-009
-4.762927e-009
-6.062761e-009
-6.793185e-009
-6.947985e-009
-6.599545e-009
-5.876740e-009
-4.918833e-009
-3.837433e-009
-2.708480e-009
-1.587771e-009
-5.266998e-010
4.274838e-010
1.242765e-009
1.909921e-009
2.437735e-009
2.840135e-009
3.125908e-009
3.297069e-009
3.353545e-009
3.297784e-009
3.135207e-009
2.870938e-009
2.505936e-009
2.035788e-009
1.453911e-009
7.584219e-010
-4.093831e-011
-9.203880e-010
-1.845628e-009
-2.776858e-009
-3.668202e-009
-4.459738e-009
-5.070231e-009
-5.402887e-009
-5.367975e-009
-4.911103e-009
-4.029628e-009
-2.770947e-009
-1.224955e-009
4.721520e-010
2.123885e-009
3.475038e-009
4.256705e-009
4.271989e-009
3.480726e-009
2.032829e-009
2.332099e-010
-1.533490e-009
-2.877742e-009
-3.469168e-009
-3.112873e-009
-1.848703e-009
-2.550479e-011
1.740958e-009
2.778908e-009
2.674084e-009
1.509515e-009
-1.412669e-010
-1.499145e-009
-1.987498e-009
-1.517171e-009
-4.800981e-010
5.243529e-010
1.039889e-009
9.633353e-010
5.140760e-010
2.724993e-011
-2.682413e-010
-3.475824e-010
-3.293212e-010
-5.211366e-009
-1.730245e-009
2.861639e-009
5.659473e-009
4.906642e-009
9.796365e-010
-3.856119e-009
-6.773511e-009
-6.027730e-009
-1.954397e-009
3.262283e-009
6.886321e-009
7.176127e-009
4.242779e-009
-2.301292e-010
-4.105352e-009
-5.960629e-009
-5.605003e-009
-3.783130e-009
-1.465893e-009
7.005956e-010
2.484819e-009
3.821351e-009
4.570500e-009
4.520697e-009
3.584547e-009
1.959271e-009
8.151498e-011
-1.589601e-009
-2.782365e-009
-3.466548e-009
-3.751495e-009
-3.746674e-009
-3.498657e-009
-3.022711e-009
-2.362957e-009
-1.610934e-009
-8.706413e-010
-2.111727e-010
3.497259e-010
8.250724e-010
1.227950e-009
1.558193e-009
1.810424e-009
1.987434e-009
2.103320e-009
2.175233e-009
2.213908e-009
2.221685e-009
2.197353e-009
2.140749e-009
2.052166e-009
1.928427e-009
1.761281e-009
1.540870e-009
1.260944e-009
9.201271e-010
5.180452e-010
5.221874e-011
-4.770882e-010
-1.054539e-009
-1.640510e-009
-2.176143e-009
-2.601063e-009
-2.867555e-009
-2.936156e-009
-2.758734e-009
-2.276454e-009
-1.454823e-009
-3.419442e-010
8.988751e-010
2.024128e-009
2.801002e-009
3.088755e-009
2.850294e-009
2.103800e-009
8.931534e-010
-6.572630e-010
-2.239655e-009
-3.345216e-009
-3.442272e-009
-2.301819e-009
-2.515588e-010
1.875149e-009
3.136541e-009
3.001196e-009
1.644267e-009
-1.819726e-010
-1.606457e-009
-2.107695e-009
-1.699537e-009
-7.774245e-010
1.918367e-010
8.956772e-010
1.212027e-009
1.131002e-009
6.981306e-010
3.141873e-011
-6.520189e-010
-1.086636e-009
-2.337083e-009
-1.016412e-009
8.696129e-010
2.284926e-009
2.397931e-009
1.055359e-009
-1.034960e-009
-2.628773e-009
-2.687965e-009
-1.096998e-009
1.176221e-009
2.670712e-009
2.417555e-009
6.234343e-010
-1.464299e-009
-2.430693e-009
-1.667505e-009
2.575391e-010
2.068347e-009
2.684604e-009
1.876716e-009
2.474974e-010
-1.329263e-009
-2.304879e-009
-2.651420e-009
-2.621197e-009
-2.384146e-009
-1.880522e-009
-9.642249e-010
3.599379e-010
1.848859e-009
3.151247e-009
4.019222e-009
4.417303e-009
4.464252e-009
4.293512e-009
3.962821e-009
3.468109e-009
2.813856e-009
2.057466e-009
1.291471e-009
5.931433e-010
-6.888043e-012
-5.151649e-010
-9.444346e-010
-1.293285e-009
-1.549167e-009
-1.702744e-009
-1.755437e-009
-1.714891e-009
-1.587025e-009
-1.374035e-009
-1.078133e-009
-7.038497e-010
-2.557444e-010
2.631046e-010
8.449224e-010
1.465827e-009
2.081359e-009
2.637793e-009
3.091500e-009
3.416061e-009
3.586104e-009
3.553984e-009
3.252736e-009
2.640664e-009
1.758707e-009
7.450115e-010
-2.211843e-010
-1.007666e-009
-1.570131e-009
-1.904829e-009
-1.964988e-009
-1.648402e-009
-9.073497e-010
1.016489e-010
9.925240e-010
1.338003e-009
9.682414e-010
1.385460e-010
-6.075109e-010
-8.094724e-010
-4.125096e-010
2.217611e-010
6.234734e-010
5.782349e-010
2.423669e-010
-6.419207e-011
-1.707697e-010
-1.758935e-010
-2.754884e-010
-4.904674e-010
-5.864609e-010
-2.914654e-010
3.836230e-010
1.043140e-009
1.166183e-009
5.390458e-010
-5.102351e-010
-1.303458e-009
3.010369e-009
6.464575e-010
-2.207124e-009
-3.473513e-009
-2.303737e-009
4.647517e-010
3.030380e-009
3.892259e-009
2.723602e-009
3.364462e-010
-2.046618e-009
-3.547752e-009
-3.892083e-009
-3.172501e-009
-1.536519e-009
8.360361e-010
3.496529e-009
5.596495e-009
6.159299e-009
4.653527e-009
1.427458e-009
-2.382907e-009
-5.449932e-009
-6.931314e-009
-6.762733e-009
-5.435375e-009
-3.527342e-009
-1.384573e-009
8.652378e-010
3.100139e-009
5.062352e-009
6.427822e-009
6.997891e-009
6.818750e-009
6.125153e-009
5.174338e-009
4.117795e-009
2.996326e-009
1.821750e-009
6.466436e-010
-4.377747e-010
-1.354527e-009
-2.082475e-009
-2.650178e-009
-3.097427e-009
-3.444269e-009
-3.689366e-009
-3.827243e-009
-3.861170e-009
-3.801226e-009
-3.655351e-009
-3.425064e-009
-3.107366e-009
-2.696146e-009
-2.180294e-009
-1.544912e-009
-7.821282e-010
9.394940e-011
1.043432e-009
2.015488e-009
2.967730e-009
3.864746e-009
4.648324e-009
5.207374e-009
5.390192e-009
5.070427e-009
4.222864e-009
2.943105e-009
1.390688e-009
-2.871861e-010
-1.965976e-009
-3.469063e-009
-4.496580e-009
-4.681039e-009
-3.794128e-009
-1.969645e-009
2.561549e-010
2.166888e-009
3.216224e-009
3.255702e-009
2.492908e-009
1.266766e-009
-1.302324e-010
-1.441989e-009
-2.341272e-009
-2.445924e-009
-1.557469e-009
5.073830e-011
1.611274e-009
2.254304e-009
1.595871e-009
6.911982e-011
-1.316833e-009
-1.668300e-009
-8.448989e-010
4.525387e-010
1.225967e-009
9.413158e-010
-8.356178e-011
-9.621616e-010
6.860051e-009
2.087150e-009
-3.947920e-009
-7.184715e-009
-5.617928e-009
-4.077629e-010
5.084138e-009
7.548803e-009
5.732735e-009
9.583159e-010
-3.979815e-009
-6.620416e-009
-6.108531e-009
-3.265023e-009
2.964743e-010
3.192189e-009
4.757693e-009
4.922544e-009
3.868273e-009
1.873355e-009
-6.077687e-010
-2.890235e-009
-4.249804e-009
-4.283849e-009
-3.144270e-009
-1.425753e-009
2.107360e-010
1.381824e-009
2.054217e-009
2.362929e-009
2.393347e-009
2.121515e-009
1.518006e-009
6.669600e-010
-2.331356e-010
-9.822869e-010
-1.491489e-009
-1.797306e-009
-1.984671e-009
-2.102581e-009
-2.143865e-009
-2.086355e-009
-1.939319e-009
-1.749547e-009
-1.570659e-009
-1.432049e-009
-1.334395e-009
-1.267241e-009
-1.226229e-009
-1.216080e-009
-1.243514e-009
-1.311090e-009
-1.415410e-009
-1.545608e-009
-1.680736e-009
-1.791675e-009
-1.851542e-009
-1.846952e-009
-1.775901e-009
-1.629578e-009
-1.376959e-009
-9.771109e-010
-4.201282e-010
2.370029e-010
8.795926e-010
1.390882e-009
1.705504e-009
1.806901e-009
1.671749e-009
1.231596e-009
4.216306e-010
-6.989808e-010
-1.865072e-009
-2.670093e-009
-2.768092e-009
-2.072351e-009
-7.982372e-010
6.702341e-010
1.959385e-009
2.784116e-009
2.918079e-009
2.190970e-009
6.235591e-010
-1.379736e-009
-3.020514e-009
-3.442148e-009
-2.278029e-009
-1.629510e-011
2.168896e-009
3.095903e-009
2.325418e-009
4.416503e-010
-1.353063e-009
-2.044682e-009
-1.439223e-009
-1.891920e-010
7.593168e-010
8.602555e-010
2.952099e-010
-2.692829e-010
5.992399e-009
2.140441e-009
-2.851629e-009
-5.768835e-009
-4.881442e-009
-9.316736e-010
3.449455e-009
5.491953e-009
4.060364e-009
2.962365e-010
-3.260516e-009
-4.421126e-009
-2.739489e-009
3.748308e-010
2.786001e-009
3.097897e-009
1.414971e-009
-1.003355e-009
-2.748693e-009
-3.104379e-009
-2.203081e-009
-6.144656e-010
1.136815e-009
2.739351e-009
3.968267e-009
4.549444e-009
4.222079e-009
2.935467e-009
9.566730e-010
-1.239904e-009
-3.212759e-009
-4.725073e-009
-5.737993e-009
-6.287276e-009
-6.386442e-009
-6.033065e-009
-5.274163e-009
-4.237512e-009
-3.089303e-009
-1.960731e-009
-9.108709e-010
5.166861e-011
9.226972e-010
1.678661e-009
2.288385e-009
2.737158e-009
3.035277e-009
3.205749e-009
3.266398e-009
3.221577e-009
3.065267e-009
2.788325e-009
2.384608e-009
1.855463e-009
1.211822e-009
4.709672e-010
-3.510685e-010
-1.242344e-009
-2.183469e-009
-3.126035e-009
-3.981653e-009
-4.639635e-009
-5.005534e-009
-5.028383e-009
-4.692316e-009
-3.987824e-009
-2.908217e-009
-1.497154e-009
8.750322e-011
1.567003e-009
2.630491e-009
3.070088e-009
2.860972e-009
2.131464e-009
1.073738e-009
-1.028125e-010
-1.142407e-009
-1.725832e-009
-1.580408e-009
-7.014977e-010
5.026261e-010
1.347745e-009
1.287335e-009
3.240416e-010
-9.288939e-010
-1.640025e-009
-1.337657e-009
-2.333891e-010
9.542000e-010
1.521846e-009
1.236872e-009
4.051008e-010
-4.318265e-010
-8.792081e-010
-8.666289e-010
-5.618654e-010
-1.762214e-010
1.591010e-010
3.954400e-010
5.176131e-010
4.531905e-010
5.614211e-010
5.035530e-010
1.115435e-010
-4.353126e-010
-7.770825e-010
-7.617217e-010
-6.053390e-010
-6.079403e-010
-7.097395e-010
-4.088988e-010
7.563040e-010
2.553620e-009
3.901937e-009
3.517516e-009
9.389102e-010
-2.907679e-009
-6.133073e-009
-7.039109e-009
-5.152545e-009
-1.406647e-009
2.567060e-009
5.419285e-009
6.631501e-009
6.398331e-009
5.158275e-009
3.250641e-009
9.068316e-010
-1.583115e-009
-3.804931e-009
-5.354293e-009
-6.034028e-009
-5.922648e-009
-5.264971e-009
-4.300482e-009
-3.172569e-009
-1.955303e-009
-7.230296e-010
4.246667e-010
1.398088e-009
2.161884e-009
2.739346e-009
3.176967e-009
3.507353e-009
3.740757e-009
3.881556e-009
3.945001e-009
3.957229e-009
3.942060e-009
3.908787e-009
3.850228e-009
3.749903e-009
3.591612e-009
3.365003e-009
3.063688e-009
2.677203e-009
2.184211e-009
1.556925e-009
7.793808e-010
-1.322109e-010
-1.125193e-009
-2.127301e-009
-3.066198e-009
-3.866712e-009
-4.425796e-009
-4.600315e-009
-4.245492e-009
-3.296901e-009
-1.836250e-009
-8.201798e-011
1.687729e-009
3.206610e-009
4.225612e-009
4.487058e-009
3.771160e-009
2.063795e-009
-2.622367e-010
-2.457411e-009
-3.700209e-009
-3.547237e-009
-2.204770e-009
-3.948415e-010
1.094597e-009
1.830129e-009
1.827278e-009
1.331584e-009
5.666800e-010
-3.054846e-010
-1.053176e-009
-1.332952e-009
-9.007959e-010
8.316195e-011
1.009441e-009
1.201831e-009
4.728334e-010
-6.452563e-010
-1.268207e-009
-8.736241e-010
2.413659e-010
1.179284e-009
-6.229727e-009
-1.658788e-009
3.890725e-009
6.483544e-009
4.569220e-009
-2.441397e-010
-4.673584e-009
-6.144909e-009
-4.274641e-009
-6.095619e-010
2.790790e-009
4.638666e-009
4.727933e-009
3.438202e-009
1.205094e-009
-1.524302e-009
-4.032541e-009
-5.326975e-009
-4.640608e-009
-2.071797e-009
1.264943e-009
3.825511e-009
4.557362e-009
3.456011e-009
1.380438e-009
-6.328441e-010
-1.972353e-009
-2.572153e-009
-2.623901e-009
-2.256095e-009
-1.465108e-009
-2.684887e-010
1.152483e-009
2.487919e-009
3.468035e-009
3.997073e-009
4.144515e-009
4.033419e-009
3.743742e-009
3.301789e-009
2.729767e-009
2.084069e-009
1.444489e-009
8.755000e-010
4.027887e-010
2.326070e-011
-2.686747e-010
-4.656850e-010
-5.528802e-010
-5.226014e-010
-3.818776e-010
-1.464365e-010
1.712016e-010
5.669307e-010
1.037278e-009
1.564460e-009
2.108035e-009
2.612647e-009
3.026082e-009
3.309455e-009
3.427509e-009
3.330790e-009
2.958960e-009
2.280529e-009
1.344180e-009
2.916497e-010
-6.917509e-010
-1.451487e-009
-1.894377e-009
-1.952637e-009
-1.544974e-009
-6.251936e-010
6.797490e-010
1.972715e-009
2.687336e-009
2.394588e-009
1.112305e-009
-6.434001e-010
-2.138777e-009
-2.828813e-009
-2.579959e-009
-1.586809e-009
-1.533575e-010
1.398843e-009
2.645783e-009
3.029976e-009
2.120498e-009
6.775083e-011
-2.186806e-009
-3.323141e-009
-2.537555e-009
-2.499599e-010
2.043255e-009
2.796704e-009
1.578400e-009
-5.811131e-010
-1.989886e-009
-1.633663e-009
3.466157e-011
1.509831e-009
-9.408768e-009
-2.924423e-009
5.036550e-009
8.936175e-009
6.522885e-009
3.245802e-011
-5.816521e-009
-7.310424e-009
-4.110392e-009
1.014649e-009
4.539470e-009
4.646581e-009
2.056108e-009
-1.035887e-009
-2.739403e-009
-2.534919e-009
-1.080274e-009
6.702099e-010
2.105049e-009
2.951563e-009
2.965866e-009
1.866523e-009
-3.547813e-010
-3.123484e-009
-5.403055e-009
-6.247693e-009
-5.350987e-009
-3.149990e-009
-4.473115e-010
2.089996e-009
4.166011e-009
5.742615e-009
6.802001e-009
7.246159e-009
6.988233e-009
6.087292e-009
4.765863e-009
3.295495e-009
1.865200e-009
5.419344e-010
-6.727197e-010
-1.768760e-009
-2.706436e-009
-3.447566e-009
-3.990333e-009
-4.369052e-009
-4.624445e-009
-4.777099e-009
-4.826073e-009
-4.765810e-009
-4.598993e-009
-4.332349e-009
-3.962873e-009
-3.472202e-009
-2.837882e-009
-2.051941e-009
-1.128485e-009
-9.323912e-011
1.030368e-009
2.215532e-009
3.402585e-009
4.473012e-009
5.263413e-009
5.623608e-009
5.475722e-009
4.822239e-009
3.702636e-009
2.162931e-009
3.010877e-010
-1.636799e-009
-3.226984e-009
-4.004355e-009
-3.718135e-009
-2.517383e-009
-8.960949e-010
5.773091e-010
1.529819e-009
1.850404e-009
1.569475e-009
7.609630e-010
-3.807603e-010
-1.402437e-009
-1.675579e-009
-8.140245e-010
8.614695e-010
2.306243e-009
2.391221e-009
8.054476e-010
-1.533782e-009
-3.024074e-009
-2.556040e-009
-4.096602e-010
1.896707e-009
2.741423e-009
1.634436e-009
-4.381918e-010
-1.834181e-009
-1.568068e-009
-5.487317e-011
1.299397e-009
-6.604002e-009
-2.220453e-009
3.144359e-009
5.728022e-009
4.050572e-009
-2.113761e-010
-3.652444e-009
-3.749317e-009
-7.005094e-010
2.850755e-009
3.936886e-009
1.558062e-009
-2.606698e-009
-5.533970e-009
-5.102858e-009
-1.508634e-009
3.099692e-009
6.247992e-009
6.660140e-009
4.648649e-009
1.422522e-009
-1.847861e-009
-4.460483e-009
-6.044021e-009
-6.316523e-009
-5.125147e-009
-2.692462e-009
2.930832e-010
2.944064e-009
4.617444e-009
5.173273e-009
4.872781e-009
4.067838e-009
2.973749e-009
1.671581e-009
2.448586e-010
-1.138391e-009
-2.280470e-009
-3.068727e-009
-3.525926e-009
-3.756551e-009
-3.854339e-009
-3.856718e-009
-3.767984e-009
-3.605375e-009
-3.415063e-009
-3.249520e-009
-3.138171e-009
-3.081994e-009
-3.071341e-009
-3.102721e-009
-3.176580e-009
-3.282330e-009
-3.390936e-009
-3.464973e-009
-3.474109e-009
-3.395913e-009
-3.198962e-009
-2.830220e-009
-2.231995e-009
-1.385196e-009
-3.420971e-010
7.864784e-010
1.879870e-009
2.838843e-009
3.559459e-009
3.880487e-009
3.590771e-009
2.546395e-009
8.324415e-010
-1.175650e-009
-2.938176e-009
-3.989758e-009
-4.109631e-009
-3.316255e-009
-1.765723e-009
2.751866e-010
2.339012e-009
3.728504e-009
3.763280e-009
2.257144e-009
-1.501112e-010
-2.207245e-009
-2.806360e-009
-1.756824e-009
6.149793e-011
1.346046e-009
1.331250e-009
2.947505e-010
-7.731202e-010
-1.016454e-009
-3.569296e-010
5.556561e-010
9.594206e-010
5.973702e-010
-1.513691e-010
-6.563226e-010
-5.613178e-010
-2.885866e-011
4.427685e-010
6.840844e-010
5.940712e-011
-7.040873e-010
-1.126264e-009
-1.033281e-009
-4.815793e-010
4.596148e-010
1.678857e-009
2.744181e-009
2.833003e-009
1.243248e-009
-1.790005e-009
-4.783416e-009
-5.756282e-009
-3.659692e-009
6.511565e-010
4.804506e-009
6.465999e-009
4.877233e-009
1.217799e-009
-2.375503e-009
-4.245918e-009
-4.016869e-009
-2.364138e-009
-2.404497e-010
1.696654e-009
3.128088e-009
3.836513e-009
3.602448e-009
2.353563e-009
3.432166e-010
-1.895810e-009
-3.818951e-009
-5.126300e-009
-5.806080e-009
-5.983405e-009
-5.755277e-009
-5.153837e-009
-4.219908e-009
-3.067901e-009
-1.863839e-009
-7.464514e-010
2.252592e-010
1.055836e-009
1.759824e-009
2.328383e-009
2.738337e-009
2.978729e-009
3.060056e-009
2.999455e-009
2.803268e-009
2.466999e-009
1.988924e-009
1.378051e-009
6.472970e-010
-1.950387e-010
-1.136521e-009
-2.135856e-009
-3.107846e-009
-3.940730e-009
-4.535452e-009
-4.828287e-009
-4.773277e-009
-4.311654e-009
-3.385653e-009
-2.016884e-009
-3.897037e-010
1.155686e-009
2.250577e-009
2.660812e-009
2.358938e-009
1.469891e-009
1.888364e-010
-1.212351e-009
-2.315683e-009
-2.597785e-009
-1.701871e-009
1.957924e-010
2.271436e-009
3.425986e-009
2.972083e-009
1.127074e-009
-1.104812e-009
-2.590904e-009
-2.754537e-009
-1.786964e-009
-3.344606e-010
9.656231e-010
1.719479e-009
1.750855e-009
1.058069e-009
-1.017272e-010
-1.163558e-009
-1.490728e-009
-8.461459e-010
3.155384e-010
1.112152e-009
9.347469e-010
-1.413079e-011
-8.727192e-010
7.966058e-009
2.346181e-009
-4.369069e-009
-7.404794e-009
-5.184096e-009
3.224302e-011
4.391116e-009
5.407304e-009
3.295927e-009
7.307429e-011
-2.301575e-009
-3.060198e-009
-2.464717e-009
-1.063071e-009
6.763935e-010
2.181575e-009
2.646783e-009
1.454819e-009
-1.127345e-009
-3.760928e-009
-4.760004e-009
-3.249277e-009
1.940742e-010
3.938304e-009
6.367580e-009
6.755644e-009
5.370536e-009
2.957423e-009
1.829649e-010
-2.541592e-009
-4.915815e-009
-6.612701e-009
-7.347246e-009
-7.052781e-009
-5.944378e-009
-4.388143e-009
-2.699707e-009
-1.043382e-009
5.226083e-010
1.949826e-009
3.162777e-009
4.098608e-009
4.756587e-009
5.196613e-009
5.492458e-009
5.690134e-009
5.804897e-009
5.844338e-009
5.824027e-009
5.761239e-009
5.660919e-009
5.512695e-009
5.298889e-009
4.998905e-009
4.583516e-009
4.011304e-009
3.242078e-009
2.262004e-009
1.096482e-009
-2.031363e-010
-1.580228e-009
-2.966261e-009
-4.241190e-009
-5.205261e-009
-5.617571e-009
-5.300627e-009
-4.237246e-009
-2.581049e-009
-5.850953e-010
1.462012e-009
3.225163e-009
4.292940e-009
4.266004e-009
3.007375e-009
8.862923e-010
-1.254312e-009
-2.501783e-009
-2.408451e-009
-1.247406e-009
2.165361e-010
1.237061e-009
1.459667e-009
9.338955e-010
-8.002282e-011
-1.215694e-009
-1.967861e-009
-1.777790e-009
-4.215161e-010
1.555243e-009
2.908382e-009
2.505142e-009
3.446126e-010
-2.168354e-009
-3.164355e-009
-1.832226e-009
7.938798e-010
2.595500e-009
2.134628e-009
-9.878057e-011
-2.099504e-009
1.080300e-008
3.058217e-009
-5.958955e-009
-9.531088e-009
-5.773526e-009
1.506020e-009
6.396215e-009
5.637081e-009
7.110232e-010
-3.992154e-009
-4.937960e-009
-1.925152e-009
2.386826e-009
4.944395e-009
4.449613e-009
1.684600e-009
-1.658076e-009
-4.233068e-009
-5.419300e-009
-5.004506e-009
-2.954964e-009
3.717331e-010
3.962498e-009
6.395755e-009
6.606840e-009
4.566539e-009
1.278106e-009
-1.896850e-009
-4.009673e-009
-4.828165e-009
-4.599870e-009
-3.647751e-009
-2.180055e-009
-3.683102e-010
1.526444e-009
3.175338e-009
4.330322e-009
4.935979e-009
5.099367e-009
4.967504e-009
4.635700e-009
4.148510e-009
3.551966e-009
2.921959e-009
2.342959e-009
1.871009e-009
1.522469e-009
1.292866e-009
1.179505e-009
1.187010e-009
1.319538e-009
1.574297e-009
1.940712e-009
2.398134e-009
2.909469e-009
3.419576e-009
3.865722e-009
4.190762e-009
4.341216e-009
4.249978e-009
3.831488e-009
3.017345e-009
1.820111e-009
3.713807e-010
-1.108127e-009
-2.383457e-009
-3.253818e-009
-3.539536e-009
-3.066914e-009
-1.747023e-009
2.527091e-010
2.397923e-009
3.919083e-009
4.185299e-009
3.075850e-009
1.056166e-009
-1.100533e-009
-2.703397e-009
-3.349712e-009
-2.901879e-009
-1.451894e-009
5.693091e-010
2.309385e-009
2.781849e-009
1.555585e-009
-6.775247e-010
-2.339143e-009
-2.089623e-009
-1.614957e-011
2.236357e-009
2.720257e-009
8.742016e-010
-1.860686e-009
-3.175546e-009
-1.888825e-009
9.574499e-010
2.942928e-009
2.371556e-009
-2.245355e-010
-2.542728e-009
7.662303e-009
1.781545e-009
-4.749268e-009
-6.650358e-009
-2.845390e-009
2.969535e-009
5.670095e-009
3.020029e-009
-2.615527e-009
-6.418991e-009
-5.157920e-009
2.895093e-010
5.850791e-009
7.593245e-009
4.603704e-009
-7.560635e-010
-5.005453e-009
-6.050442e-009
-4.123892e-009
-9.100787e-010
1.929463e-009
3.545313e-009
3.755608e-009
2.623408e-009
3.779155e-010
-2.371801e-009
-4.619991e-009
-5.393115e-009
-4.322024e-009
-1.846487e-009
1.121201e-009
3.758554e-009
5.666362e-009
6.807357e-009
7.252469e-009
7.028653e-009
6.162064e-009
4.784526e-009
3.143172e-009
1.496159e-009
3.333523e-012
-1.292696e-009
-2.404431e-009
-3.335129e-009
-4.067057e-009
-4.589384e-009
-4.919654e-009
-5.095275e-009
-5.148948e-009
-5.092695e-009
-4.918710e-009
-4.608934e-009
-4.144701e-009
-3.514175e-009
-2.716045e-009
-1.756318e-009
-6.416804e-010
6.165803e-010
1.978079e-009
3.342439e-009
4.545977e-009
5.404025e-009
5.771774e-009
5.572390e-009
4.777735e-009
3.393220e-009
1.510039e-009
-5.943154e-010
-2.427316e-009
-3.433705e-009
-3.283176e-009
-2.087633e-009
-3.612254e-010
1.250069e-009
2.243575e-009
2.351574e-009
1.500790e-009
-1.565975e-010
-2.089721e-009
-3.366984e-009
-3.063171e-009
-9.903399e-010
1.853511e-009
3.717292e-009
3.312514e-009
8.944065e-010
-1.795416e-009
-2.836263e-009
-1.658972e-009
5.234056e-010
1.793950e-009
1.187764e-009
-5.343298e-010
-1.659064e-009
-1.109970e-009
5.942082e-010
1.854490e-009
1.475527e-009
-2.430717e-010
-1.783619e-009
6.240814e-010
-4.742953e-010
-1.327669e-009
-7.038740e-010
1.246463e-009
2.893814e-009
2.427413e-009
-4.327215e-010
-3.826542e-009
-5.008431e-009
-2.620952e-009
1.931589e-009
5.354164e-009
5.024317e-009
1.138892e-009
-3.396224e-009
-5.249432e-009
-3.190893e-009
1.171159e-009
4.840116e-009
5.654950e-009
3.491735e-009
-1.918653e-010
-3.666410e-009
-5.872949e-009
-6.494080e-009
-5.566180e-009
-3.265554e-009
-2.228001e-011
3.376393e-009
6.004092e-009
7.232640e-009
7.010697e-009
5.755267e-009
3.995014e-009
2.089116e-009
2.001072e-010
-1.570315e-009
-3.084680e-009
-4.204036e-009
-4.879455e-009
-5.183062e-009
-5.248443e-009
-5.186871e-009
-5.053298e-009
-4.871105e-009
-4.670115e-009
-4.496594e-009
-4.394106e-009
-4.380955e-009
-4.444497e-009
-4.552437e-009
-4.668832e-009
-4.762474e-009
-4.801525e-009
-4.738024e-009
-4.497444e-009
-3.991731e-009
-3.157880e-009
-1.996625e-009
-5.780491e-010
9.879964e-010
2.575617e-009
4.020404e-009
5.072548e-009
5.409671e-009
4.768488e-009
3.137065e-009
8.529892e-010
-1.499856e-009
-3.332108e-009
-4.243034e-009
-4.057975e-009
-2.794188e-009
-7.140711e-010
1.549694e-009
3.047704e-009
2.955566e-009
1.219168e-009
-1.158210e-009
-2.624448e-009
-2.161749e-009
-1.064527e-010
2.043849e-009
2.759279e-009
1.630552e-009
-4.056939e-010
-1.901682e-009
-2.019773e-009
-1.009395e-009
2.211900e-010
9.072978e-010
8.887862e-010
4.830247e-010
7.542505e-011
-1.491235e-010
-1.998206e-010
-1.530704e-010
-7.641356e-011
-2.144415e-011
-6.313064e-009
-2.119157e-009
2.855179e-009
5.147896e-009
3.797777e-009
5.167247e-010
-2.179906e-009
-2.907170e-009
-1.885773e-009
-1.374061e-010
1.389229e-009
2.039288e-009
1.374380e-009
-5.831724e-010
-2.914230e-009
-3.956787e-009
-2.405097e-009
1.416463e-009
5.376598e-009
6.887481e-009
4.786225e-009
1.877440e-010
-4.364319e-009
-6.659610e-009
-6.058030e-009
-3.423649e-009
-1.634914e-010
2.650427e-009
4.501969e-009
5.185124e-009
4.606156e-009
2.858056e-009
3.611749e-010
-2.214490e-009
-4.250564e-009
-5.449754e-009
-5.857920e-009
-5.675200e-009
-5.065476e-009
-4.113860e-009
-2.900923e-009
-1.563777e-009
-2.702459e-010
8.548456e-010
1.769501e-009
2.488937e-009
3.031579e-009
3.389499e-009
3.539259e-009
3.468967e-009
3.190626e-009
2.728605e-009
2.098959e-009
1.301540e-009
3.359255e-010
-7.682743e-010
-1.931593e-009
-3.035440e-009
-3.956486e-009
-4.591573e-009
-4.847763e-009
-4.617243e-009
-3.793326e-009
-2.357332e-009
-4.840514e-010
1.439894e-009
2.938186e-009
3.635198e-009
3.375717e-009
2.215557e-009
3.710679e-010
-1.756495e-009
-3.521950e-009
-4.145990e-009
-3.116238e-009
-6.709558e-010
2.091780e-009
3.752296e-009
3.474342e-009
1.584509e-009
-6.729537e-010
-2.020678e-009
-1.951998e-009
-8.671253e-010
4.061891e-010
1.178636e-009
1.144947e-009
3.629246e-010
-7.794410e-010
-1.601908e-009
-1.419804e-009
-1.073675e-010
1.543315e-009
2.233405e-009
1.232861e-009
-8.089609e-010
-2.234241e-009
-1.788509e-009
1.822148e-010
1.952955e-009
-9.847577e-009
-2.195153e-009
6.134088e-009
8.397238e-009
3.637902e-009
-3.241435e-009
-6.309800e-009
-3.618241e-009
1.843106e-009
5.374781e-009
4.554910e-009
5.884009e-010
-3.431479e-009
-5.143061e-009
-4.136787e-009
-1.411096e-009
1.706155e-009
4.073533e-009
4.759872e-009
3.252049e-009
-1.830689e-011
-3.483454e-009
-5.161424e-009
-3.946705e-009
-4.185378e-010