# vtk DataFile Version 3.0
vtk output
ASCII
DATASET STRUCTURED_POINTS
DIMENSIONS 100 100 1
SPACING 1 1 1
ORIGIN 0 0 0
POINT_DATA 10000
SCALARS SFBox_profile double
LOOKUP_TABLE default 
0.000000e+000
0.000000e+000
0.000000e+000
0.000000e+000
0.000000e+000
0.000000e+000
0.000000e+000
0.000000e+000
0.000000e+000
0.000000e+000
0.000000e+000
0.000000e+000
0.000000e+000
0.000000e+000
0.000000e+000
0.000000e+000
0.000000e+000
0.000000e+000
0.000000e+000
0.000000e+000
0.000000e+000
0.000000e+000
0.000000e+000
0.000000e+000
0.000000e+000
0.000000e+000
0.000000e+000
0.000000e+000
0.000000e+000
0.000000e+000
0.000000e+000
0.000000e+000
0.000000e+000
0.000000e+000
0.000000e+000
0.000000e+000
0.000000e+000
0.000000e+000
0.000000e+000
0.000000e+000
0.000000e+000
0.000000e+000
0.000000e+000
0.000000e+000
0.000000e+000
0.000000e+000
0.000000e+000
0.000000e+000
0.000000e+000
0.000000e+000
0.000000e+000
0.000000e+000
0.000000e+000
0.000000e+000
0.000000e+000
0.000000e+000
0.000000e+000
0.000000e+000
0.000000e+000
0.000000e+000
0.000000e+000
0.000000e+000
0.000000e+000
0.000000e+000
0.000000e+000
0.000000e+000
0.000000e+000
0.000000e+000
0.000000e+000
0.000000e+000
0.000000e+000
0.000000e+000
0.000000e+000
0.000000e+000
0.000000e+000
0.000000e+000
0.000000e+000
0.000000e+000
0.000000e+000
0.000000e+000
0.000000e+000
0.000000e+000
0.000000e+000
0.000000e+000
0.000000e+000
0.000000e+000
0.000000e+000
0.000000e+000
0.000000e+000
0.000000e+000
0.000000e+000
0.000000e+000
0.000000e+000
0.000000e+000
0.000000e+000
0.000000e+000
0.000000e+000
0.000000e+000
0.000000e+000
0.000000e+000
-4.459763e-008
-2.742274e-008
-1.353586e-009
2.055908e-008
2.689614e-008
1.464212e-008
-8.027161e-009
-2.610861e-008
-2.754982e-008
-1.170037e-008
1.033298e-008
2.411289e-008
2.243611e-008
9.550364e-009
-3.854881e-009
-9.797226e-009
-8.227416e-009
-4.699037e-009
-3.967255e-009
-5.957408e-009
-7.162253e-009
-4.941775e-009
-4.923795e-011
4.595678e-009
6.859561e-009
6.876248e-009
6.051317e-009
5.234909e-009
4.090542e-009
1.960852e-009
-1.066057e-009
-4.073206e-009
-6.104401e-009
-6.849113e-009
-6.589339e-009
-5.682135e-009
-4.238227e-009
-2.244007e-009
1.904143e-010
2.818226e-009
5.434096e-009
7.947566e-009
1.026465e-008
1.220798e-008
1.364905e-008
1.467478e-008
1.550080e-008
1.618775e-008
1.654398e-008
1.639285e-008
1.586771e-008
1.530062e-008
1.480197e-008
1.409280e-008
1.286162e-008
1.120217e-008
9.529154e-009
8.047807e-009
6.484737e-009
4.478687e-009
2.144994e-009
5.653747e-011
-1.368473e-009
-2.291191e-009
-3.139512e-009
-3.967384e-009
-4.316169e-009
-3.749120e-009
-2.378710e-009
-7.606749e-010
6.491426e-010
1.795686e-009
2.815646e-009
3.703531e-009
4.271847e-009
4.334843e-009
3.805201e-009
2.671441e-009
1.063353e-009
-6.247262e-010
-1.882894e-009
-2.562857e-009
-3.122768e-009
-4.078107e-009
-5.031305e-009
-4.488151e-009
-1.146900e-009
4.298392e-009
8.788714e-009
8.876582e-009
3.664731e-009
-3.925001e-009
-8.959316e-009
-8.109123e-009
-2.166451e-009
4.557353e-009
7.426526e-009
4.774375e-009
-1.090013e-009
-5.712304e-009
1.332305e-008
6.645302e-009
-1.676243e-009
-5.896344e-009
-4.225049e-009
3.132696e-010
3.255550e-009
2.797353e-009
7.430846e-010
-1.596746e-010
6.308037e-010
1.135357e-009
-5.388731e-010
-3.705139e-009
-5.504136e-009
-3.782079e-009
6.359193e-010
4.640938e-009
5.704157e-009
3.956117e-009
1.562790e-009
3.656446e-010
3.309279e-010
1.560705e-010
-9.955985e-010
-2.604388e-009
-3.489768e-009
-3.069612e-009
-1.787618e-009
-4.578136e-010
5.563055e-010
1.451948e-009
2.467126e-009
3.465758e-009
4.070268e-009
4.068191e-009
3.570004e-009
2.800094e-009
1.857519e-009
7.351629e-010
-5.111453e-010
-1.730583e-009
-2.823528e-009
-3.826108e-009
-4.787181e-009
-5.616383e-009
-6.150158e-009
-6.370734e-009
-6.461334e-009
-6.580233e-009
-6.640632e-009
-6.415035e-009
-5.852017e-009
-5.177280e-009
-4.616474e-009
-4.096844e-009
-3.342542e-009
-2.260546e-009
-1.108121e-009
-2.061950e-010
4.324603e-010
1.070008e-009
1.848881e-009
2.555317e-009
2.846403e-009
2.639908e-009
2.175919e-009
1.707569e-009
1.239978e-009
6.208869e-010
-1.907460e-010
-1.033782e-009
-1.693011e-009
-2.048256e-009
-2.073348e-009
-1.791785e-009
-1.301866e-009
-7.726434e-010
-2.929604e-010
2.717773e-010
1.127984e-009
2.153731e-009
2.733573e-009
2.197929e-009
5.501881e-010
-1.305531e-009
-2.212894e-009
-1.733996e-009
-4.845476e-010
4.949301e-010
6.708715e-010
3.287378e-010
6.331591e-011
1.056812e-010
2.076062e-010
8.726789e-011
-1.789511e-010
-2.771877e-010
-8.240906e-011
1.687037e-010
6.841946e-008
3.964277e-008
-1.002424e-009
-3.049177e-008
-3.410283e-008
-1.393566e-008
1.385955e-008
3.069450e-008
2.754795e-008
9.195367e-009
-1.126501e-008
-2.234623e-008
-2.087570e-008
-1.151911e-008
-1.306996e-009
5.484826e-009
8.558959e-009
9.530586e-009
9.551287e-009
8.665708e-009
6.587334e-009
3.449386e-009
-1.977715e-010
-3.745066e-009
-6.662757e-009
-8.435668e-009
-8.644889e-009
-7.227896e-009
-4.579984e-009
-1.316169e-009
2.049136e-009
5.163603e-009
7.674208e-009
9.170558e-009
9.378910e-009
8.365663e-009
6.466829e-009
4.011438e-009
1.162386e-009
-1.979792e-009
-5.213053e-009
-8.257303e-009
-1.092297e-008
-1.318266e-008
-1.505997e-008
-1.651287e-008
-1.747885e-008
-1.799587e-008
-1.819795e-008
-1.817256e-008
-1.787736e-008
-1.723486e-008
-1.626955e-008
-1.509259e-008
-1.375839e-008
-1.219941e-008
-1.033151e-008
-8.183842e-009
-5.885579e-009
-3.553141e-009
-1.249523e-009
9.439289e-010
2.878895e-009
4.403189e-009
5.437720e-009
5.943710e-009
5.840081e-009
5.035359e-009
3.578031e-009
1.726242e-009
-1.890293e-010
-1.956344e-009
-3.493045e-009
-4.682389e-009
-5.297738e-009
-5.157774e-009
-4.321898e-009
-3.051086e-009
-1.561984e-009
1.168502e-010
2.007017e-009
3.942758e-009
5.514725e-009
6.206441e-009
5.528137e-009
3.126693e-009
-9.096430e-010
-5.553998e-009
-8.718755e-009
-8.171725e-009
-3.279796e-009
3.788819e-009
8.857575e-009
8.489364e-009
2.741297e-009
-4.464715e-009
-8.022433e-009
-5.477261e-009
1.027249e-009
6.355189e-009
5.765636e-008
3.475180e-008
1.184813e-009
-2.507065e-008
-3.042938e-008
-1.399572e-008
1.158687e-008
2.836456e-008
2.537379e-008
6.048176e-009
-1.511848e-008
-2.398749e-008
-1.695020e-008
-1.926194e-009
9.549423e-009
1.151517e-008
6.455527e-009
8.876405e-010
-9.703949e-010
2.946639e-010
1.587835e-009
9.400637e-010
-1.112311e-009
-2.841334e-009
-3.213951e-009
-2.472538e-009
-1.413129e-009
-5.284921e-010
1.930463e-010
9.480072e-010
1.782530e-009
2.506512e-009
2.824061e-009
2.551647e-009
1.777266e-009
8.212688e-010
5.358283e-013
-5.908403e-010
-1.062763e-009
-1.516580e-009
-1.903895e-009
-2.104619e-009
-2.081971e-009
-1.906158e-009
-1.655852e-009
-1.365124e-009
-1.067941e-009
-8.220191e-010
-6.493868e-010
-5.034446e-010
-3.509225e-010
-2.549138e-010
-3.036802e-010
-4.620817e-010
-5.796545e-010
-5.826609e-010
-5.779171e-010
-6.817940e-010
-7.942869e-010
-6.722253e-010
-2.555985e-010
2.012986e-010
4.288168e-010
5.056895e-010
7.732930e-010
1.362196e-009
1.944717e-009
2.073250e-009
1.699794e-009
1.216969e-009
9.736911e-010
8.890883e-010
6.318363e-010
8.504953e-011
-5.124338e-010
-8.751157e-010
-9.749559e-010
-9.790058e-010
-1.003210e-009
-1.038201e-009
-1.020032e-009
-7.717793e-010
1.070136e-010
1.946995e-009
4.262256e-009
5.397171e-009
3.502458e-009
-1.533792e-009
-7.040788e-009
-8.978433e-009
-5.163514e-009
2.422162e-009
8.608446e-009
8.880475e-009
3.005001e-009
-4.641652e-009
-8.402083e-009
-5.665693e-009
1.209959e-009
6.802750e-009
-2.150818e-008
-1.016501e-008
3.494151e-009
9.730846e-009
6.435343e-009
-4.686893e-010
-4.103181e-009
-3.283278e-009
-2.044657e-009
-3.513888e-009
-5.587718e-009
-3.378266e-009
4.496450e-009
1.306923e-008
1.509447e-008
7.931697e-009
-3.832514e-009
-1.251062e-008
-1.381141e-008
-9.471099e-009
-4.288874e-009
-1.360586e-009
-2.002092e-010
1.335225e-009
4.185032e-009
7.250331e-009
8.785713e-009
8.060996e-009
5.695539e-009
2.807013e-009
1.216343e-010
-2.207560e-009
-4.224989e-009
-5.792935e-009
-6.551969e-009
-6.174331e-009
-4.633213e-009
-2.236978e-009
5.906694e-010
3.558187e-009
6.549810e-009
9.487889e-009
1.223632e-008
1.465590e-008
1.668070e-008
1.828022e-008
1.939508e-008
1.999802e-008
2.020273e-008
2.019684e-008
2.001626e-008
1.947983e-008
1.844372e-008
1.705700e-008
1.561765e-008
1.416823e-008
1.240512e-008
1.010472e-008
7.525282e-009
5.192997e-009
3.297848e-009
1.513714e-009
-4.630353e-010
-2.349661e-009
-3.472215e-009
-3.514147e-009
-2.859683e-009
-2.092952e-009
-1.318111e-009
-1.732242e-010
1.529427e-009
3.401453e-009
4.801351e-009
5.409604e-009
5.351654e-009
4.859912e-009
4.020935e-009
2.848161e-009
1.366291e-009
-4.960169e-010
-2.861487e-009
-5.411515e-009
-6.957810e-009
-5.980932e-009
-2.098953e-009
2.944352e-009
6.155293e-009
5.610844e-009
2.104899e-009
-1.549650e-009
-2.939469e-009
-1.878363e-009
-5.560051e-011
8.287724e-010
4.590184e-010
-3.064326e-010
-5.972256e-010
-2.768957e-010
2.509709e-010
5.929000e-010
-1.030956e-007
-5.733084e-008
4.166921e-009
4.376805e-008
4.288185e-008
1.208814e-008
-2.113412e-008
-3.459287e-008
-2.500366e-008
-4.651704e-009
1.202979e-008
1.869664e-008
1.727159e-008
1.190358e-008
4.700562e-009
-3.500309e-009
-1.065286e-008
-1.368125e-008
-1.128162e-008
-5.621952e-009
-5.680469e-010
1.724659e-009
2.207161e-009
3.136985e-009
5.387602e-009
7.720125e-009
8.346776e-009
6.745966e-009
3.910548e-009
1.201470e-009
-7.300824e-010
-2.000862e-009
-2.856947e-009
-3.211330e-009
-2.762995e-009
-1.402012e-009
5.969233e-010
2.762767e-009
4.755996e-009
6.497166e-009
8.020294e-009
9.285965e-009
1.019121e-008
1.071668e-008
1.095995e-008
1.099319e-008
1.077954e-008
1.031392e-008
9.782269e-009
9.435514e-009
9.283092e-009
9.053868e-009
8.561685e-009
8.003807e-009
7.722756e-009
7.691619e-009
7.444711e-009
6.628505e-009
5.469082e-009
4.494219e-009
3.841860e-009
3.086042e-009
1.841734e-009
3.507791e-010
-7.385195e-010
-1.105947e-009
-1.044341e-009
-9.678125e-010
-8.515982e-010
-3.360417e-010
7.165458e-010
1.986256e-009
3.028066e-009
3.652034e-009
3.899806e-009
3.832170e-009
3.530643e-009
3.196382e-009
2.937927e-009
2.369034e-009
7.121850e-010
-2.331319e-009
-5.773763e-009
-7.682546e-009
-6.602600e-009
-2.731359e-009
2.253517e-009
6.346660e-009
8.110496e-009
6.814917e-009
2.504616e-009
-3.454393e-009
-8.121007e-009
-8.295081e-009
-3.139346e-009
4.237967e-009
8.460743e-009
6.130850e-009
-9.848460e-010
-7.065697e-009
-1.090392e-007
-6.145302e-008
2.954524e-009
4.486998e-008
4.386911e-008
1.051550e-008
-2.487333e-008
-3.641747e-008
-2.028359e-008
6.733642e-009
2.364780e-008
2.144620e-008
6.567849e-009
-8.026147e-009
-1.393172e-008
-1.124573e-008
-4.785762e-009
1.328327e-009
5.596404e-009
7.804686e-009
7.732334e-009
5.523234e-009
2.388015e-009
6.132769e-012
-8.897638e-010
-9.840582e-010
-1.321459e-009
-2.026774e-009
-2.256039e-009
-1.258991e-009
7.836026e-010
3.002006e-009
4.682110e-009
5.702542e-009
6.231676e-009
6.228349e-009
5.370709e-009
3.417549e-009
5.099770e-010
-2.935677e-009
-6.577554e-009
-1.031727e-008
-1.413341e-008
-1.785593e-008
-2.120554e-008
-2.403258e-008
-2.639510e-008
-2.834187e-008
-2.971472e-008
-3.029453e-008
-3.011602e-008
-2.947520e-008
-2.854976e-008
-2.713950e-008
-2.493731e-008
-2.201319e-008
-1.884491e-008
-1.581277e-008
-1.282467e-008
-9.585665e-009
-6.149159e-009
-3.000876e-009
-5.735074e-010
1.142567e-009
2.403979e-009
3.273831e-009
3.564366e-009
3.183857e-009
2.341104e-009
1.337089e-009
3.069585e-010
-7.081315e-010
-1.552545e-009
-2.023192e-009
-2.128367e-009
-2.052882e-009
-1.756472e-009
-8.008591e-010
1.153707e-009
3.657139e-009
5.478461e-009
5.452716e-009
3.319699e-009
-1.946369e-010
-3.824668e-009
-6.088768e-009
-5.539855e-009
-1.579736e-009
4.314905e-009
8.461955e-009
7.194572e-009
2.813199e-010
-7.733471e-009
-1.046594e-008
-5.105449e-009
4.527321e-009
1.062944e-008
7.985302e-009
-1.299109e-009
-9.372921e-009
-2.042739e-008
-1.154243e-008
5.792355e-010
8.014427e-009
6.013533e-009
-2.847013e-009
-9.827718e-009
-7.033972e-009
5.034978e-009
1.671571e-008
1.705793e-008
3.728087e-009
-1.435730e-008
-2.434161e-008
-1.987412e-008
-5.263912e-009
9.470070e-009
1.692252e-008
1.639692e-008
1.168762e-008
6.534920e-009
2.371065e-009
-8.973431e-010
-3.426025e-009
-5.097610e-009
-5.912181e-009
-5.999889e-009
-5.251539e-009
-3.361147e-009
-4.267339e-010
2.686706e-009
4.803263e-009
5.237775e-009
4.041502e-009
1.516471e-009
-2.305884e-009
-7.598737e-009
-1.427526e-008
-2.178634e-008
-2.944701e-008
-3.688088e-008
-4.406429e-008
-5.098484e-008
-5.739154e-008
-6.294137e-008
-6.750485e-008
-7.120104e-008
-7.412435e-008
-7.615506e-008
-7.711780e-008
-7.704808e-008
-7.616327e-008
-7.455897e-008
-7.206336e-008
-6.847604e-008
-6.387290e-008
-5.856037e-008
-5.275988e-008
-4.647671e-008
-3.971782e-008
-3.271375e-008
-2.582634e-008
-1.931895e-008
-1.335221e-008
-8.166368e-009
-4.078655e-009
-1.220325e-009
5.893479e-010
1.580491e-009
1.742170e-009
9.871812e-010
-4.063185e-010
-1.759961e-009
-2.560716e-009
-2.935183e-009
-3.349565e-009
-3.851111e-009
-3.809767e-009
-2.493194e-009
2.284956e-010
3.777638e-009
7.179272e-009
9.196924e-009
8.425611e-009
4.065152e-009
-2.744392e-009
-8.563269e-009
-9.586076e-009
-4.840812e-009
2.370880e-009
6.743891e-009
5.340775e-009
7.937035e-011
-4.094637e-009
-3.690329e-009
3.615663e-010
3.891155e-009
3.511937e-009
-3.259360e-010
-3.941178e-009
1.009335e-007
5.618003e-008
-3.047566e-009
-4.024026e-008
-3.939098e-008
-1.233684e-008
1.602659e-008
2.823113e-008
2.286812e-008
8.586406e-009
-5.966874e-009
-1.622806e-008
-1.986008e-008
-1.530392e-008
-3.683844e-009
9.495132e-009
1.696589e-008
1.513957e-008
6.832786e-009
-1.577043e-009
-5.513856e-009
-4.897703e-009
-2.495178e-009
-6.872689e-010
2.190380e-011
2.620268e-010
5.685897e-010
9.754535e-010
1.185691e-009
6.640623e-010
-1.314347e-009
-5.323343e-009
-1.135717e-008
-1.887414e-008
-2.734736e-008
-3.667469e-008
-4.696640e-008
-5.804413e-008
-6.933954e-008
-8.032089e-008
-9.087946e-008
-1.011905e-007
-1.112634e-007
-1.207656e-007
-1.293004e-007
-1.367250e-007
-1.431035e-007
-1.484171e-007
-1.524564e-007
-1.550114e-007
-1.560474e-007
-1.556218e-007
-1.537097e-007
-1.502263e-007
-1.451958e-007
-1.387726e-007
-1.310719e-007
-1.221082e-007
-1.119939e-007
-1.010970e-007
-8.984464e-008
-7.839933e-008
-6.671621e-008
-5.498754e-008
-4.384412e-008
-3.392407e-008
-2.531876e-008
-1.768076e-008
-1.091124e-008
-5.483599e-009
-1.885134e-009
1.197798e-010
1.380098e-009
2.474882e-009
3.167606e-009
2.856294e-009
1.382569e-009
-7.711459e-010
-2.876316e-009
-4.174863e-009
-3.762534e-009
-9.059531e-010
3.894512e-009
8.244137e-009
9.009258e-009
4.856861e-009
-2.182529e-009
-7.926314e-009
-9.101355e-009
-5.508858e-009
3.533472e-010
5.302677e-009
7.157258e-009
5.310649e-009
7.640466e-010
-4.037712e-009
-6.136768e-009
-3.980485e-009
1.013085e-009
5.103389e-009
1.611234e-007
8.739043e-008
-8.294362e-009
-6.406212e-008
-5.488114e-008
-5.683007e-009
3.619302e-008
4.097590e-008
1.442534e-008
-1.599910e-008
-2.793455e-008
-1.887132e-008
-9.069854e-010
1.322836e-008
1.832868e-008
1.540528e-008
7.273939e-009
-3.062545e-009
-1.183504e-008
-1.526070e-008
-1.205184e-008
-4.660417e-009
2.642822e-009
6.992060e-009
8.262988e-009
7.760426e-009
6.258116e-009
3.369494e-009
-1.775545e-009
-9.766424e-009
-2.071055e-008
-3.432970e-008
-5.005971e-008
-6.726039e-008
-8.556495e-008
-1.050177e-007
-1.257597e-007
-1.476058e-007
-1.700482e-007
-1.926671e-007
-2.153733e-007
-2.381449e-007
-2.606189e-007
-2.820907e-007
-3.018998e-007
-3.196806e-007
-3.351987e-007
-3.480914e-007
-3.579064e-007
-3.643353e-007
-3.672590e-007
-3.665719e-007
-3.621405e-007
-3.540239e-007
-3.425898e-007
-3.282419e-007
-3.111010e-007
-2.911722e-007
-2.688581e-007
-2.450761e-007
-2.206899e-007
-1.959637e-007
-1.708296e-007
-1.456631e-007
-1.214853e-007
-9.923001e-008
-7.902732e-008
-6.049357e-008
-4.365441e-008
-2.923142e-008
-1.788001e-008
-9.401069e-009
-2.962622e-009
2.022119e-009
5.519807e-009
7.312745e-009
7.402737e-009
5.815898e-009
2.433208e-009
-2.399226e-009
-7.056910e-009
-9.023607e-009
-6.694939e-009
-9.493636e-010
5.199221e-009
8.571457e-009
7.603681e-009
2.825283e-009
-3.507002e-009
-8.013720e-009
-7.506397e-009
-1.354994e-009
6.760893e-009
1.046680e-008
5.824390e-009
-4.263429e-009
-1.143755e-008
-9.038874e-009
1.339001e-009
1.069104e-008
1.106540e-007
5.552617e-008
-1.282322e-008
-4.612504e-008
-2.902253e-008
1.205000e-008
3.590108e-008
2.298502e-008
-1.127868e-008
-3.489502e-008
-2.897242e-008
-1.300027e-009
2.486141e-008
3.216289e-008
2.049766e-008
1.781656e-009
-1.232953e-008
-1.747963e-008
-1.525171e-008
-8.816912e-009
-8.850301e-010
6.033303e-009
9.712722e-009
9.316207e-009
5.799125e-009
6.161383e-010
-5.966659e-009
-1.516186e-008
-2.851453e-008
-4.677319e-008
-6.979049e-008
-9.711989e-008
-1.284911e-007
-1.638855e-007
-2.034152e-007
-2.471395e-007
-2.948190e-007
-3.457619e-007
-3.989742e-007
-4.534908e-007
-5.084788e-007
-5.629889e-007
-6.157432e-007
-6.653352e-007
-7.106326e-007
-7.508678e-007
-7.853472e-007
-8.132612e-007
-8.338913e-007
-8.468706e-007
-8.520618e-007
-8.492508e-007
-8.382027e-007
-8.190790e-007
-7.925639e-007
-7.593945e-007
-7.199189e-007
-6.743998e-007
-6.237358e-007
-5.695699e-007
-5.135217e-007
-4.565289e-007
-3.991933e-007
-3.426320e-007
-2.885871e-007
-2.385609e-007
-1.931086e-007
-1.522011e-007
-1.160804e-007
-8.539705e-008
-6.050436e-008
-4.096693e-008
-2.592349e-008
-1.465436e-008
-6.521281e-009
-6.089481e-010
3.982217e-009
7.262123e-009
8.153553e-009
5.658642e-009
3.257673e-010
-5.576078e-009
-9.307854e-009
-9.032138e-009
-4.433879e-009
3.019190e-009
9.925882e-009
1.195117e-008
6.766658e-009
-2.950334e-009
-1.017238e-008
-8.937349e-009
-2.098386e-010
8.093230e-009
8.142644e-009
-6.915876e-011
-8.348936e-009
-8.287432e-009
2.122577e-010
8.700827e-009
-1.700933e-008
-1.634728e-008
-1.090374e-008
1.671611e-009
1.636199e-008
2.229825e-008
1.189034e-008
-1.022270e-008
-2.808286e-008
-2.665076e-008
-5.289083e-009
2.044622e-008
3.138560e-008
2.054000e-008
-2.179565e-009
-1.967254e-008
-2.166900e-008
-1.053723e-008
3.986141e-009
1.370431e-008
1.619084e-008
1.299939e-008
6.225319e-009
-2.930717e-009
-1.390403e-008
-2.674211e-008
-4.264404e-008
-6.389676e-008
-9.278715e-008
-1.305589e-007
-1.774622e-007
-2.335885e-007
-2.993931e-007
-3.754121e-007
-4.616387e-007
-5.571888e-007
-6.603961e-007
-7.691153e-007
-8.810352e-007
-9.938780e-007
-1.105401e-006
-1.213287e-006
-1.315183e-006
-1.409024e-006
-1.493299e-006
-1.566929e-006
-1.628882e-006
-1.678069e-006
-1.713688e-006
-1.735457e-006
-1.743329e-006
-1.737045e-006
-1.716238e-006
-1.680992e-006
-1.632043e-006
-1.570269e-006
-1.496206e-006
-1.410393e-006
-1.314137e-006
-1.209645e-006
-1.099305e-006
-9.851164e-007
-8.690257e-007
-7.535775e-007
-6.418153e-007
-5.364473e-007
-4.393121e-007
-3.516727e-007
-2.746504e-007
-2.090333e-007
-1.547988e-007
-1.112003e-007
-7.735188e-008
-5.236278e-008
-3.472725e-008
-2.198676e-008
-1.159038e-008
-2.303635e-009
5.352510e-009
1.003030e-008
1.073008e-008
7.300815e-009
6.921917e-010
-6.519527e-009
-1.030006e-008
-7.399856e-009
1.321450e-009
1.006393e-008
1.201507e-008
5.336161e-009
-4.657759e-009
-9.939629e-009
-6.938917e-009
5.529800e-010
5.514570e-009
4.475475e-009
1.096004e-010
-2.482435e-009
-1.326904e-009
9.745886e-010
-1.349537e-007
-7.602242e-008
1.532142e-009
4.942921e-008
4.711634e-008
1.133264e-008
-2.374746e-008
-3.413187e-008
-1.877980e-008
6.817262e-009
2.487250e-008
2.557081e-008
1.010359e-008
-1.146825e-008
-2.585858e-008
-2.424463e-008
-7.958691e-009
1.255572e-008
2.540235e-008
2.519478e-008
1.475939e-008
3.171128e-010
-1.431848e-008
-2.962318e-008
-4.852465e-008
-7.424209e-008
-1.097876e-007
-1.582498e-007
-2.224681e-007
-3.042934e-007
-4.044864e-007
-5.233386e-007
-6.610165e-007
-8.170283e-007
-9.894145e-007
-1.174611e-006
-1.368126e-006
-1.565365e-006
-1.762048e-006
-1.954222e-006
-2.138198e-006
-2.310625e-006
-2.468726e-006
-2.610537e-006
-2.734912e-006
-2.841170e-006
-2.928666e-006
-2.996755e-006
-3.045146e-006
-3.074045e-006
-3.083740e-006
-3.074074e-006
-3.044532e-006
-2.994842e-006
-2.925239e-006
-2.836066e-006
-2.727387e-006
-2.599317e-006
-2.452712e-006
-2.289348e-006
-2.111517e-006
-1.921820e-006
-1.723520e-006
-1.520850e-006
-1.318648e-006
-1.121693e-006
-9.344403e-007
-7.610963e-007
-6.052979e-007
-4.693382e-007
-3.538430e-007
-2.584314e-007
-1.825310e-007
-1.252076e-007
-8.425331e-008
-5.594296e-008
-3.607098e-008
-2.123016e-008
-9.193458e-009
1.228572e-009
9.845375e-009
1.467933e-008
1.315676e-008
5.064654e-009
-5.446522e-009
-1.173982e-008
-9.661726e-009
-1.124176e-009
7.316872e-009
9.710950e-009
5.085701e-009
-2.494806e-009
-7.485238e-009
-6.752455e-009
-1.246174e-009
4.997235e-009
7.570230e-009
4.628720e-009
-1.717523e-009
-6.782949e-009
-1.703722e-007
-8.473465e-008
2.016194e-008
7.005423e-008
4.423699e-008
-1.532358e-008
-4.933452e-008
-3.330168e-008
9.957491e-009
4.000532e-008
3.568850e-008
6.684818e-009
-2.220491e-008
-3.274742e-008
-2.263910e-008
-1.338467e-009
1.854385e-008
2.756710e-008
2.254920e-008
6.874878e-009
-1.249704e-008
-3.041995e-008
-4.765407e-008
-7.047528e-008
-1.067906e-007
-1.627805e-007
-2.425254e-007
-3.493476e-007
-4.863444e-007
-6.555530e-007
-8.571197e-007
-1.089361e-006
-1.349070e-006
-1.631267e-006
-1.928824e-006
-2.232951e-006
-2.534601e-006
-2.825801e-006
-3.100107e-006
-3.352438e-006
-3.578977e-006
-3.777362e-006
-3.946873e-006
-4.088295e-006
-4.203464e-006
-4.294664e-006
-4.364139e-006
-4.413972e-006
-4.446231e-006
-4.462935e-006
-4.465580e-006
-4.454620e-006
-4.429485e-006
-4.389057e-006
-4.331918e-006
-4.256143e-006
-4.159158e-006
-4.038120e-006
-3.890522e-006
-3.714504e-006
-3.509050e-006
-3.274491e-006
-3.013148e-006
-2.729449e-006
-2.429471e-006
-2.120575e-006
-1.811444e-006
-1.511761e-006
-1.230833e-006
-9.758824e-007
-7.514128e-007
-5.599151e-007
-4.025818e-007
-2.790125e-007
-1.866073e-007
-1.209244e-007
-7.682791e-008
-4.903713e-008
-3.176020e-008
-1.897308e-008
-6.488854e-009
5.733632e-009
1.395883e-008
1.432688e-008
6.841019e-009
-3.818176e-009
-1.115787e-008
-1.090906e-008
-3.513525e-009
6.064691e-009
1.113933e-008
7.778221e-009
-1.632249e-009
-9.298513e-009
-8.246609e-009
8.823144e-010
9.535422e-009
9.078434e-009
-4.196644e-010
-9.779928e-009
-1.121797e-007
-4.393566e-008
3.231422e-008
5.420231e-008
1.473801e-008
-3.681673e-008
-4.734056e-008
-1.002882e-008
3.543157e-008
4.634835e-008
1.676188e-008
-2.295341e-008
-3.883460e-008
-2.234148e-008
8.734678e-009
3.054719e-008
3.153844e-008
1.527455e-008
-7.969806e-009
-2.997518e-008
-4.849645e-008
-6.767734e-008
-9.687918e-008
-1.479668e-007
-2.316360e-007
-3.551131e-007
-5.227033e-007
-7.375967e-007
-1.002137e-006
-1.315984e-006
-1.674192e-006
-2.066962e-006
-2.480694e-006
-2.899089e-006
-3.304184e-006
-3.678057e-006
-4.005207e-006
-4.274399e-006
-4.479156e-006
-4.617351e-006
-4.690862e-006
-4.705440e-006
-4.670210e-006
-4.596579e-006
-4.496955e-006
-4.383719e-006
-4.268502e-006
-4.161714e-006
-4.072263e-006
-4.007275e-006
-3.971672e-006
-3.967757e-006
-3.995127e-006
-4.050844e-006
-4.129508e-006
-4.223181e-006
-4.321546e-006
-4.412450e-006
-4.482508e-006
-4.517740e-006
-4.504688e-006
-4.432179e-006
-4.292948e-006
-4.084365e-006
-3.808575e-006
-3.472944e-006
-3.090572e-006
-2.679498e-006
-2.260029e-006
-1.851515e-006
-1.470361e-006
-1.129365e-006
-8.371681e-007
-5.974361e-007
-4.089764e-007
-2.674804e-007
-1.675023e-007
-1.027299e-007
-6.485116e-008
-4.349993e-008
-2.875239e-008
-1.455971e-008
-2.373932e-010
1.099297e-008
1.510195e-008
1.037616e-008
-4.345694e-010
-1.030326e-008
-1.181527e-008
-3.261764e-009
8.501876e-009
1.299423e-008
5.898921e-009
-5.971454e-009
-1.093101e-008
-4.437678e-009
5.983563e-009
8.890972e-009
1.529746e-009
-7.262204e-009
-6.066248e-009
1.327989e-008
2.639464e-008
1.244973e-008
-1.869507e-008
-3.509613e-008
-1.727889e-008
1.922821e-008
3.854721e-008
2.102154e-008
-1.686094e-008
-3.922655e-008
-2.566457e-008
1.117872e-008
4.005814e-008
3.975003e-008
1.363619e-008
-1.947192e-008
-4.456954e-008
-6.139238e-008
-8.196151e-008
-1.225354e-007
-1.982842e-007
-3.219498e-007
-5.036734e-007
-7.506006e-007
-1.066718e-006
-1.452519e-006
-1.903130e-006
-2.405080e-006
-2.934221e-006
-3.456902e-006
-3.933887e-006
-4.324922e-006
-4.592889e-006
-4.707767e-006
-4.650231e-006
-4.413737e-006
-4.004349e-006
-3.439104e-006
-2.744140e-006
-1.952746e-006
-1.102795e-006
-2.336927e-007
6.162565e-007
1.411493e-006
2.120208e-006
2.715148e-006
3.174188e-006
3.480549e-006
3.622849e-006
3.595199e-006
3.397374e-006
3.035067e-006
2.520296e-006
1.871738e-006
1.114647e-006
2.804743e-007
-5.935558e-007
-1.465275e-006
-2.289740e-006
-3.022828e-006
-3.625052e-006
-4.064653e-006
-4.320359e-006
-4.384464e-006
-4.265250e-006
-3.986705e-006
-3.584931e-006
-3.102831e-006
-2.584927e-006
-2.072526e-006
-1.598941e-006
-1.185911e-006
-8.432874e-007
-5.721194e-007
-3.685300e-007
-2.256400e-007
-1.336155e-007
-7.993020e-008
-5.096594e-008
-3.420060e-008
-2.022590e-008
-4.757622e-009
1.008055e-008
1.770508e-008
1.329020e-008
6.390106e-011
-1.122248e-008
-1.110304e-008
-5.334582e-010
9.707714e-009
9.793916e-009
7.297335e-010
-7.407594e-009
-6.788163e-009
1.376483e-010
4.668137e-009
2.494598e-009
-1.909678e-009
8.735602e-008
5.228224e-008
2.679021e-009
-3.297259e-008
-3.604066e-008
-9.759714e-009
2.285548e-008
3.518980e-008
1.704287e-008
-1.672946e-008
-3.749414e-008
-2.657962e-008
8.306034e-009
3.910385e-008
4.109878e-008
1.277581e-008
-2.596287e-008
-5.420313e-008
-6.942192e-008
-8.999398e-008
-1.428018e-007
-2.501815e-007
-4.263692e-007
-6.813780e-007
-1.024118e-006
-1.460347e-006
-1.987105e-006
-2.586852e-006
-3.222854e-006
-3.836896e-006
-4.351374e-006
-4.677025e-006
-4.724651e-006
-4.417169e-006
-3.699284e-006
-2.544052e-006
-9.560983e-007
1.029175e-006
3.350320e-006
5.926860e-006
8.666593e-006
1.147249e-005
1.424929e-005
1.690920e-005
1.937533e-005
2.158281e-005
2.347853e-005
2.502072e-005
2.617802e-005
2.692807e-005
2.725599e-005
2.715334e-005
2.661804e-005
2.565500e-005
2.427757e-005
2.250933e-005
2.038579e-005
1.795604e-005
1.528461e-005
1.245259e-005
9.556270e-006
6.702826e-006
4.003806e-006
1.567434e-006
-5.106709e-007
-2.158202e-006
-3.335924e-006
-4.043105e-006
-4.317022e-006
-4.227303e-006
-3.866189e-006
-3.335260e-006
-2.730366e-006
-2.128854e-006
-1.583308e-006
-1.122475e-006
-7.563447e-007
-4.820083e-007
-2.889619e-007
-1.634411e-007
-9.065217e-008
-5.451442e-008
-3.748371e-008
-2.399399e-008
-6.750363e-009
1.036827e-008
1.791237e-008
1.156488e-008
-2.123791e-009
-1.104338e-008
-8.585441e-009
9.506709e-010
7.776903e-009
6.490889e-009
1.133483e-010
-4.654906e-009
-4.474444e-009
-1.216089e-009
1.715446e-009
2.976931e-009
1.311137e-007
5.960772e-008
-2.546184e-008
-6.065341e-008
-3.113528e-008
2.305122e-008
4.905245e-008
2.787484e-008
-1.556631e-008
-4.094526e-008
-2.838437e-008
8.662580e-009
3.865188e-008
3.810940e-008
7.574503e-009
-3.259726e-008
-6.136740e-008
-7.622429e-008
-9.870003e-008
-1.636606e-007
-3.027442e-007
-5.355336e-007
-8.725783e-007
-1.321978e-006
-1.888299e-006
-2.560705e-006
-3.296729e-006
-4.010528e-006
-4.570637e-006
-4.808322e-006
-4.536039e-006
-3.573707e-006
-1.777461e-006
9.362871e-007
4.576805e-006
9.076505e-006
1.429888e-005
2.005501e-005
2.612570e-005
3.228481e-005
3.831960e-005
4.404619e-005
4.931948e-005
5.403713e-005
5.813735e-005
6.159190e-005
6.439746e-005
6.656714e-005
6.812248e-005
6.908555e-005
6.947242e-005
6.928879e-005
6.852806e-005
6.717176e-005
6.519275e-005
6.256084e-005
5.925031e-005
5.524949e-005
5.057229e-005
4.527057e-005
3.944384e-005
3.324360e-005
2.687118e-005
2.056753e-005
1.459384e-005
9.203721e-006
4.611711e-006
9.652013e-007
-1.674855e-006
-3.340923e-006
-4.151073e-006
-4.285852e-006
-3.954218e-006
-3.357997e-006
-2.664548e-006
-1.992566e-006
-1.410575e-006
-9.452581e-007
-5.959175e-007
-3.495759e-007
-1.903801e-007
-1.007756e-007
-5.900152e-008
-4.052171e-008
-2.567306e-008
-7.364432e-009
9.178219e-009
1.535952e-008
9.125825e-009
-2.536478e-009
-9.594839e-009
-7.150580e-009
1.352214e-009
7.927002e-009
7.084278e-009
2.224304e-010
-6.047257e-009
-6.040392e-009
-1.633832e-010
5.628799e-009
1.220060e-007
4.311763e-008
-4.170985e-008
-6.044214e-008
-1.107652e-008
4.428361e-008
4.801599e-008
2.619938e-009
-4.044856e-008
-3.819376e-008
3.548495e-009
4.250820e-008
4.356290e-008