# vtk DataFile Version 3.0
vtk output
ASCII
DATASET STRUCTURED_POINTS
DIMENSIONS 100 100 1
SPACING 1 1 1
ORIGIN 0 0 0
POINT_DATA 10000
SCALARS SFBox_profile double
LOOKUP_TABLE default 
9.439921e-003
9.439921e-003
9.439920e-003
9.439919e-003
9.439919e-003
9.439920e-003
9.439920e-003
9.439921e-003
9.439921e-003
9.439920e-003
9.439920e-003
9.439919e-003
9.439919e-003
9.439920e-003
9.439920e-003
9.439920e-003
9.439920e-003
9.439920e-003
9.439920e-003
9.439920e-003
9.439920e-003
9.439920e-003
9.439920e-003
9.439920e-003
9.439920e-003
9.439920e-003
9.439920e-003
9.439920e-003
9.439920e-003
9.439920e-003
9.439920e-003
9.439920e-003
9.439920e-003
9.439920e-003
9.439920e-003
9.439921e-003
9.439921e-003
9.439921e-003
9.439921e-003
9.439921e-003
9.439921e-003
9.439921e-003
9.439921e-003
9.439921e-003
9.439921e-003
9.439921e-003
9.439921e-003
9.439921e-003
9.439921e-003
9.439921e-003
9.439921e-003
9.439921e-003
9.439921e-003
9.439921e-003
9.439921e-003
9.439921e-003
9.439921e-003
9.439921e-003
9.439921e-003
9.439921e-003
9.439921e-003
9.439921e-003
9.439921e-003
9.439921e-003
9.439920e-003
9.439920e-003
9.439920e-003
9.439920e-003
9.439920e-003
9.439920e-003
9.439920e-003
9.439920e-003
9.439920e-003
9.439920e-003
9.439920e-003
9.439920e-003
9.439920e-003
9.439920e-003
9.439920e-003
9.439920e-003
9.439920e-003
9.439920e-003
9.439920e-003
9.439920e-003
9.439920e-003
9.439920e-003
9.439920e-003
9.439920e-003
9.439920e-003
9.439920e-003
9.439920e-003
9.439920e-003
9.439920e-003
9.439920e-003
9.439920e-003
9.439920e-003
9.439920e-003
9.439920e-003
9.439920e-003
9.439920e-003
9.439921e-003
9.439921e-003
9.439920e-003
9.439919e-003
9.439919e-003
9.439920e-003
9.439920e-003
9.439921e-003
9.439921e-003
9.439920e-003
9.439920e-003
9.439919e-003
9.439919e-003
9.439920e-003
9.439920e-003
9.439920e-003
9.439920e-003
9.439920e-003
9.439920e-003
9.439920e-003
9.439920e-003
9.439920e-003
9.439920e-003
9.439920e-003
9.439920e-003
9.439920e-003
9.439920e-003
9.439920e-003
9.439920e-003
9.439920e-003
9.439920e-003
9.439920e-003
9.439920e-003
9.439920e-003
9.439920e-003
9.439921e-003
9.439921e-003
9.439921e-003
9.439921e-003
9.439921e-003
9.439921e-003
9.439921e-003
9.439921e-003
9.439921e-003
9.439921e-003
9.439921e-003
9.439921e-003
9.439921e-003
9.439921e-003
9.439921e-003
9.439921e-003
9.439921e-003
9.439921e-003
9.439921e-003
9.439921e-003
9.439921e-003
9.439921e-003
9.439921e-003
9.439921e-003
9.439921e-003
9.439921e-003
9.439921e-003
9.439921e-003
9.439921e-003
9.439920e-003
9.439920e-003
9.439920e-003
9.439920e-003
9.439920e-003
9.439920e-003
9.439920e-003
9.439920e-003
9.439920e-003
9.439920e-003
9.439920e-003
9.439920e-003
9.439920e-003
9.439920e-003
9.439920e-003
9.439920e-003
9.439920e-003
9.439920e-003
9.439920e-003
9.439920e-003
9.439920e-003
9.439920e-003
9.439920e-003
9.439920e-003
9.439920e-003
9.439920e-003
9.439920e-003
9.439920e-003
9.439920e-003
9.439920e-003
9.439920e-003
9.439920e-003
9.439920e-003
9.439920e-003
9.439920e-003
9.439920e-003
9.439920e-003
9.439920e-003
9.439920e-003
9.439920e-003
9.439920e-003
9.439920e-003
9.439920e-003
9.439920e-003
9.439920e-003
9.439920e-003
9.439920e-003
9.439920e-003
9.439920e-003
9.439920e-003
9.439920e-003
9.439920e-003
9.439920e-003
9.439920e-003
9.439920e-003
9.439920e-003
9.439920e-003
9.439920e-003
9.439920e-003
9.439920e-003
9.439920e-003
9.439920e-003
9.439920e-003
9.439920e-003
9.439920e-003
9.439920e-003
9.439920e-003
9.439920e-003
9.439920e-003
9.439920e-003
9.439920e-003
9.439920e-003
9.439920e-003
9.439921e-003
9.439921e-003
9.439921e-003
9.439921e-003
9.439921e-003
9.439921e-003
9.439921e-003
9.439921e-003
9.439921e-003
9.439921e-003
9.439921e-003
9.439921e-003
9.439921e-003
9.439921e-003
9.439921e-003
9.439921e-003
9.439921e-003
9.439921e-003
9.439921e-003
9.439921e-003
9.439921e-003
9.439921e-003
9.439921e-003
9.439921e-003
9.439921e-003
9.439920e-003
9.439920e-003
9.439920e-003
9.439920e-003
9.439920e-003
9.439920e-003
9.439920e-003
9.439920e-003
9.439920e-003
9.439920e-003
9.439920e-003
9.439920e-003
9.439920e-003
9.439920e-003
9.439920e-003
9.439920e-003
9.439920e-003
9.439920e-003
9.439920e-003
9.439920e-003
9.439920e-003
9.439920e-003
9.439920e-003
9.439920e-003
9.439920e-003
9.439920e-003
9.439920e-003
9.439920e-003
9.439920e-003
9.439920e-003
9.439920e-003
9.439920e-003
9.439920e-003
9.439920e-003
9.439920e-003
9.439920e-003
9.439920e-003
9.439920e-003
9.439919e-003
9.439919e-003
9.439920e-003
9.439921e-003
9.439921e-003
9.439920e-003
9.439920e-003
9.439919e-003
9.439919e-003
9.439920e-003
9.439920e-003
9.439920e-003
9.439921e-003
9.439921e-003
9.439920e-003
9.439920e-003
9.439920e-003
9.439920e-003
9.439919e-003
9.439919e-003
9.439920e-003
9.439920e-003
9.439920e-003
9.439920e-003
9.439920e-003
9.439921e-003
9.439921e-003
9.439921e-003
9.439921e-003
9.439921e-003
9.439921e-003
9.439921e-003
9.439921e-003
9.439921e-003
9.439921e-003
9.439921e-003
9.439921e-003
9.439921e-003
9.439921e-003
9.439921e-003
9.439921e-003
9.439921e-003
9.439922e-003
9.439922e-003
9.439922e-003
9.439922e-003
9.439922e-003
9.439922e-003
9.439922e-003
9.439922e-003
9.439922e-003
9.439922e-003
9.439922e-003
9.439922e-003
9.439922e-003
9.439922e-003
9.439922e-003
9.439922e-003
9.439921e-003
9.439921e-003
9.439921e-003
9.439921e-003
9.439921e-003
9.439921e-003
9.439921e-003
9.439921e-003
9.439921e-003
9.439921e-003
9.439921e-003
9.439921e-003
9.439921e-003
9.439921e-003
9.439921e-003
9.439920e-003
9.439920e-003
9.439920e-003
9.439920e-003
9.439920e-003
9.439920e-003
9.439920e-003
9.439920e-003
9.439920e-003
9.439920e-003
9.439920e-003
9.439920e-003
9.439920e-003
9.439920e-003
9.439920e-003
9.439920e-003
9.439920e-003
9.439920e-003
9.439920e-003
9.439920e-003
9.439920e-003
9.439920e-003
9.439920e-003
9.439920e-003
9.439920e-003
9.439920e-003
9.439920e-003
9.439918e-003
9.439919e-003
9.439920e-003
9.439921e-003
9.439921e-003
9.439920e-003
9.439920e-003
9.439919e-003
9.439919e-003
9.439920e-003
9.439920e-003
9.439921e-003
9.439921e-003
9.439920e-003
9.439920e-003
9.439920e-003
9.439920e-003
9.439920e-003
9.439920e-003
9.439920e-003
9.439920e-003
9.439920e-003
9.439920e-003
9.439920e-003
9.439920e-003
9.439921e-003
9.439921e-003
9.439921e-003
9.439921e-003
9.439921e-003
9.439921e-003
9.439921e-003
9.439922e-003
9.439922e-003
9.439922e-003
9.439922e-003
9.439923e-003
9.439923e-003
9.439923e-003
9.439924e-003
9.439924e-003
9.439924e-003
9.439925e-003
9.439925e-003
9.439925e-003
9.439925e-003
9.439925e-003
9.439925e-003
9.439926e-003
9.439926e-003
9.439926e-003
9.439925e-003
9.439925e-003
9.439925e-003
9.439925e-003
9.439925e-003
9.439925e-003
9.439924e-003
9.439924e-003
9.439924e-003
9.439923e-003
9.439923e-003
9.439923e-003
9.439922e-003
9.439922e-003
9.439922e-003
9.439921e-003
9.439921e-003
9.439921e-003
9.439921e-003
9.439921e-003
9.439921e-003
9.439920e-003
9.439920e-003
9.439920e-003
9.439920e-003
9.439920e-003
9.439920e-003
9.439920e-003
9.439920e-003
9.439920e-003
9.439920e-003
9.439920e-003
9.439920e-003
9.439920e-003
9.439920e-003
9.439920e-003
9.439920e-003
9.439920e-003
9.439920e-003
9.439920e-003
9.439920e-003
9.439920e-003
9.439920e-003
9.439920e-003
9.439920e-003
9.439920e-003
9.439920e-003
9.439920e-003
9.439920e-003
9.439919e-003
9.439920e-003
9.439920e-003
9.439920e-003
9.439920e-003
9.439920e-003
9.439920e-003
9.439920e-003
9.439920e-003
9.439920e-003
9.439920e-003
9.439920e-003
9.439920e-003
9.439920e-003
9.439920e-003
9.439920e-003
9.439920e-003
9.439920e-003
9.439920e-003
9.439920e-003
9.439920e-003
9.439920e-003
9.439920e-003
9.439920e-003
9.439920e-003
9.439920e-003
9.439920e-003
9.439921e-003
9.439921e-003
9.439922e-003
9.439922e-003
9.439923e-003
9.439923e-003
9.439924e-003
9.439925e-003
9.439925e-003
9.439926e-003
9.439927e-003
9.439927e-003
9.439928e-003
9.439929e-003
9.439929e-003
9.439930e-003
9.439930e-003
9.439930e-003
9.439931e-003
9.439931e-003
9.439931e-003
9.439931e-003
9.439931e-003
9.439931e-003
9.439931e-003
9.439931e-003
9.439930e-003
9.439930e-003
9.439930e-003
9.439929e-003
9.439929e-003
9.439928e-003
9.439928e-003
9.439927e-003
9.439926e-003
9.439926e-003
9.439925e-003
9.439924e-003
9.439924e-003
9.439923e-003
9.439922e-003
9.439922e-003
9.439921e-003
9.439921e-003
9.439921e-003
9.439920e-003
9.439920e-003
9.439920e-003
9.439920e-003
9.439920e-003
9.439920e-003
9.439920e-003
9.439920e-003
9.439920e-003
9.439920e-003
9.439920e-003
9.439920e-003
9.439920e-003
9.439920e-003
9.439920e-003
9.439920e-003
9.439920e-003
9.439920e-003
9.439920e-003
9.439920e-003
9.439920e-003
9.439920e-003
9.439920e-003
9.439920e-003
9.439920e-003
9.439920e-003
9.439920e-003
9.439920e-003
9.439921e-003
9.439920e-003
9.439920e-003
9.439919e-003
9.439919e-003
9.439920e-003
9.439920e-003
9.439921e-003
9.439921e-003
9.439920e-003
9.439920e-003
9.439920e-003
9.439920e-003
9.439919e-003
9.439920e-003
9.439920e-003
9.439920e-003
9.439921e-003
9.439921e-003
9.439921e-003
9.439921e-003
9.439921e-003
9.439921e-003
9.439921e-003
9.439921e-003
9.439921e-003
9.439922e-003
9.439922e-003
9.439923e-003
9.439924e-003
9.439925e-003
9.439926e-003
9.439927e-003
9.439928e-003
9.439929e-003
9.439930e-003
9.439931e-003
9.439932e-003
9.439933e-003
9.439934e-003
9.439934e-003
9.439935e-003
9.439936e-003
9.439936e-003
9.439937e-003
9.439937e-003
9.439938e-003
9.439938e-003
9.439938e-003
9.439938e-003
9.439938e-003
9.439938e-003
9.439937e-003
9.439937e-003
9.439937e-003
9.439936e-003
9.439935e-003
9.439935e-003
9.439934e-003
9.439933e-003
9.439932e-003
9.439931e-003
9.439930e-003
9.439929e-003
9.439928e-003
9.439927e-003
9.439926e-003
9.439925e-003
9.439924e-003
9.439923e-003
9.439922e-003
9.439922e-003
9.439921e-003
9.439921e-003
9.439920e-003
9.439920e-003
9.439920e-003
9.439920e-003
9.439921e-003
9.439921e-003
9.439920e-003
9.439920e-003
9.439920e-003
9.439920e-003
9.439920e-003
9.439920e-003
9.439920e-003
9.439920e-003
9.439920e-003
9.439920e-003
9.439920e-003
9.439920e-003
9.439920e-003
9.439920e-003
9.439920e-003
9.439920e-003
9.439920e-003
9.439920e-003
9.439920e-003
9.439920e-003
9.439922e-003
9.439921e-003
9.439920e-003
9.439919e-003
9.439919e-003
9.439920e-003
9.439920e-003
9.439921e-003
9.439921e-003
9.439920e-003
9.439920e-003
9.439920e-003
9.439920e-003
9.439920e-003
9.439920e-003
9.439920e-003
9.439920e-003
9.439920e-003
9.439920e-003
9.439921e-003
9.439921e-003
9.439921e-003
9.439921e-003
9.439922e-003
9.439922e-003
9.439923e-003
9.439924e-003
9.439925e-003
9.439927e-003
9.439928e-003
9.439929e-003
9.439931e-003
9.439932e-003
9.439933e-003
9.439935e-003
9.439936e-003
9.439937e-003
9.439938e-003
9.439940e-003
9.439941e-003
9.439941e-003
9.439942e-003
9.439943e-003
9.439943e-003
9.439944e-003
9.439944e-003
9.439944e-003
9.439944e-003
9.439944e-003
9.439944e-003
9.439944e-003
9.439944e-003
9.439944e-003
9.439943e-003
9.439943e-003
9.439942e-003
9.439942e-003
9.439941e-003
9.439940e-003
9.439939e-003
9.439938e-003
9.439937e-003
9.439936e-003
9.439934e-003
9.439933e-003
9.439932e-003
9.439930e-003
9.439929e-003
9.439927e-003
9.439926e-003
9.439925e-003
9.439924e-003
9.439923e-003
9.439922e-003
9.439921e-003
9.439921e-003
9.439921e-003
9.439920e-003
9.439920e-003
9.439920e-003
9.439920e-003
9.439920e-003
9.439920e-003
9.439920e-003
9.439920e-003
9.439920e-003
9.439920e-003
9.439920e-003
9.439920e-003
9.439920e-003
9.439920e-003
9.439920e-003
9.439920e-003
9.439920e-003
9.439920e-003
9.439920e-003
9.439920e-003
9.439920e-003
9.439920e-003
9.439920e-003
9.439921e-003
9.439921e-003
9.439920e-003
9.439919e-003
9.439919e-003
9.439920e-003
9.439920e-003
9.439920e-003
9.439920e-003
9.439920e-003
9.439920e-003
9.439920e-003
9.439920e-003
9.439920e-003
9.439921e-003
9.439920e-003
9.439920e-003
9.439920e-003
9.439920e-003
9.439921e-003
9.439921e-003
9.439922e-003
9.439923e-003
9.439924e-003
9.439925e-003
9.439927e-003
9.439928e-003
9.439930e-003
9.439932e-003
9.439934e-003
9.439936e-003
9.439937e-003
9.439939e-003
9.439941e-003
9.439942e-003
9.439943e-003
9.439944e-003
9.439945e-003
9.439946e-003
9.439946e-003
9.439946e-003
9.439946e-003
9.439946e-003
9.439945e-003
9.439945e-003
9.439944e-003
9.439944e-003
9.439944e-003
9.439943e-003
9.439943e-003
9.439943e-003
9.439942e-003
9.439942e-003
9.439942e-003
9.439942e-003
9.439943e-003
9.439943e-003
9.439943e-003
9.439943e-003
9.439943e-003
9.439943e-003
9.439942e-003
9.439941e-003
9.439940e-003
9.439939e-003
9.439938e-003
9.439936e-003
9.439934e-003
9.439932e-003
9.439931e-003
9.439929e-003
9.439927e-003
9.439926e-003
9.439924e-003
9.439923e-003
9.439922e-003
9.439921e-003
9.439921e-003
9.439920e-003
9.439920e-003
9.439920e-003
9.439920e-003
9.439920e-003
9.439920e-003
9.439920e-003
9.439920e-003
9.439920e-003
9.439920e-003
9.439920e-003
9.439920e-003
9.439920e-003
9.439920e-003
9.439920e-003
9.439920e-003
9.439920e-003
9.439920e-003
9.439920e-003
9.439920e-003
9.439920e-003
9.439920e-003
9.439920e-003
9.439920e-003
9.439920e-003
9.439920e-003
9.439920e-003
9.439920e-003
9.439920e-003
9.439920e-003
9.439920e-003
9.439920e-003
9.439920e-003
9.439920e-003
9.439921e-003
9.439921e-003
9.439921e-003
9.439921e-003
9.439920e-003
9.439920e-003
9.439921e-003
9.439922e-003
9.439923e-003
9.439924e-003
9.439925e-003
9.439927e-003
9.439929e-003
9.439931e-003
9.439934e-003
9.439936e-003
9.439938e-003
9.439941e-003
9.439943e-003
9.439944e-003
9.439945e-003
9.439946e-003
9.439946e-003
9.439945e-003
9.439944e-003
9.439941e-003
9.439939e-003
9.439935e-003
9.439932e-003
9.439928e-003
9.439924e-003
9.439920e-003
9.439917e-003
9.439913e-003
9.439910e-003
9.439908e-003
9.439906e-003
9.439905e-003
9.439904e-003
9.439905e-003
9.439906e-003
9.439908e-003
9.439910e-003
9.439913e-003
9.439917e-003
9.439921e-003
9.439925e-003
9.439929e-003
9.439933e-003
9.439936e-003
9.439939e-003
9.439941e-003
9.439942e-003
9.439942e-003
9.439941e-003
9.439940e-003
9.439938e-003
9.439936e-003
9.439934e-003
9.439932e-003
9.439930e-003
9.439928e-003
9.439926e-003
9.439924e-003
9.439923e-003
9.439922e-003
9.439921e-003
9.439921e-003
9.439920e-003
9.439920e-003
9.439920e-003
9.439920e-003
9.439920e-003
9.439920e-003
9.439920e-003
9.439920e-003
9.439920e-003
9.439920e-003
9.439920e-003
9.439920e-003
9.439920e-003
9.439920e-003
9.439920e-003
9.439920e-003
9.439920e-003
9.439920e-003
9.439920e-003
9.439920e-003
9.439918e-003
9.439919e-003
9.439921e-003
9.439921e-003
9.439921e-003
9.439920e-003
9.439920e-003
9.439919e-003
9.439919e-003
9.439920e-003
9.439920e-003
9.439920e-003
9.439920e-003
9.439921e-003
9.439921e-003
9.439921e-003
9.439921e-003
9.439922e-003
9.439923e-003
9.439924e-003
9.439926e-003
9.439928e-003
9.439930e-003
9.439932e-003
9.439935e-003
9.439938e-003
9.439941e-003
9.439943e-003
9.439945e-003
9.439946e-003
9.439946e-003
9.439944e-003
9.439941e-003
9.439936e-003
9.439928e-003
9.439919e-003
9.439908e-003
9.439895e-003
9.439881e-003
9.439866e-003
9.439851e-003
9.439835e-003
9.439820e-003
9.439805e-003
9.439791e-003
9.439779e-003
9.439769e-003
9.439761e-003
9.439755e-003
9.439751e-003
9.439751e-003
9.439753e-003
9.439758e-003
9.439765e-003
9.439776e-003
9.439788e-003
9.439803e-003
9.439819e-003
9.439837e-003
9.439854e-003
9.439871e-003
9.439887e-003
9.439902e-003
9.439915e-003
9.439925e-003
9.439932e-003
9.439938e-003
9.439941e-003
9.439942e-003
9.439941e-003
9.439940e-003
9.439937e-003
9.439935e-003
9.439932e-003
9.439930e-003
9.439928e-003
9.439926e-003
9.439924e-003
9.439923e-003
9.439922e-003
9.439921e-003
9.439921e-003
9.439920e-003
9.439920e-003
9.439920e-003
9.439920e-003
9.439920e-003
9.439920e-003
9.439920e-003
9.439920e-003
9.439920e-003
9.439920e-003
9.439920e-003
9.439920e-003
9.439920e-003
9.439920e-003
9.439920e-003
9.439920e-003
9.439920e-003
9.439920e-003
9.439918e-003
9.439919e-003
9.439921e-003
9.439921e-003
9.439921e-003
9.439920e-003
9.439919e-003
9.439919e-003
9.439920e-003
9.439920e-003
9.439921e-003
9.439920e-003
9.439920e-003
9.439920e-003
9.439920e-003
9.439921e-003
9.439922e-003
9.439924e-003
9.439925e-003
9.439928e-003
9.439930e-003
9.439933e-003
9.439936e-003
9.439939e-003
9.439942e-003
9.439945e-003
9.439947e-003
9.439947e-003
9.439944e-003
9.439938e-003
9.439928e-003
9.439914e-003
9.439894e-003
9.439869e-003
9.439839e-003
9.439804e-003
9.439764e-003
9.439721e-003
9.439675e-003
9.439628e-003
9.439580e-003
9.439532e-003
9.439487e-003
9.439444e-003
9.439405e-003
9.439370e-003
9.439341e-003
9.439318e-003
9.439302e-003
9.439293e-003
9.439292e-003
9.439299e-003
9.439314e-003
9.439337e-003
9.439368e-003
9.439406e-003
9.439450e-003
9.439499e-003
9.439551e-003
9.439605e-003
9.439659e-003
9.439711e-003
9.439760e-003
9.439804e-003
9.439842e-003
9.439874e-003
9.439898e-003
9.439917e-003
9.439929e-003
9.439937e-003
9.439941e-003
9.439942e-003
9.439940e-003
9.439938e-003
9.439935e-003
9.439932e-003
9.439930e-003
9.439927e-003
9.439925e-003
9.439924e-003
9.439923e-003
9.439922e-003
9.439921e-003
9.439920e-003
9.439920e-003
9.439920e-003
9.439920e-003
9.439920e-003
9.439920e-003
9.439920e-003
9.439920e-003
9.439920e-003
9.439920e-003
9.439920e-003
9.439920e-003
9.439920e-003
9.439920e-003
9.439920e-003
9.439920e-003
9.439920e-003
9.439919e-003
9.439920e-003
9.439920e-003
9.439920e-003
9.439920e-003
9.439920e-003
9.439920e-003
9.439920e-003
9.439920e-003
9.439921e-003
9.439921e-003
9.439920e-003
9.439920e-003
9.439920e-003
9.439921e-003
9.439923e-003
9.439925e-003
9.439927e-003
9.439929e-003
9.439932e-003
9.439936e-003
9.439940e-003
9.439943e-003
9.439947e-003
9.439948e-003
9.439947e-003
9.439942e-003
9.439930e-003
9.439911e-003
9.439882e-003
9.439842e-003
9.439790e-003
9.439725e-003
9.439646e-003
9.439555e-003
9.439452e-003
9.439339e-003
9.439218e-003
9.439092e-003
9.438964e-003
9.438836e-003
9.438711e-003
9.438592e-003
9.438481e-003
9.438380e-003
9.438292e-003
9.438218e-003
9.438160e-003
9.438120e-003
9.438099e-003
9.438097e-003
9.438116e-003
9.438156e-003
9.438217e-003
9.438297e-003
9.438396e-003
9.438511e-003
9.438640e-003
9.438778e-003
9.438922e-003
9.439068e-003
9.439211e-003
9.439346e-003
9.439471e-003
9.439582e-003
9.439677e-003
9.439756e-003
9.439819e-003
9.439866e-003
9.439899e-003
9.439921e-003
9.439934e-003
9.439941e-003
9.439942e-003
9.439941e-003
9.439938e-003
9.439935e-003
9.439932e-003
9.439929e-003
9.439926e-003
9.439925e-003
9.439923e-003
9.439922e-003
9.439921e-003
9.439920e-003
9.439920e-003
9.439920e-003
9.439920e-003
9.439920e-003
9.439920e-003
9.439920e-003
9.439920e-003
9.439920e-003
9.439920e-003
9.439920e-003
9.439920e-003
9.439920e-003
9.439920e-003
9.439920e-003
9.439920e-003
9.439921e-003
9.439920e-003
9.439920e-003
9.439919e-003
9.439919e-003
9.439920e-003
9.439920e-003
9.439920e-003
9.439921e-003
9.439921e-003
9.439921e-003
9.439921e-003
9.439921e-003
9.439922e-003
9.439923e-003
9.439925e-003
9.439928e-003
9.439931e-003
9.439934e-003
9.439939e-003
9.439943e-003
9.439947e-003
9.439949e-003
9.439948e-003
9.439941e-003
9.439924e-003
9.439895e-003
9.439849e-003
9.439782e-003
9.439691e-003
9.439572e-003
9.439423e-003
9.439242e-003
9.439031e-003
9.438791e-003
9.438525e-003
9.438238e-003
9.437936e-003
9.437624e-003
9.437309e-003
9.436997e-003
9.436696e-003
9.436410e-003
9.436146e-003
9.435908e-003
9.435700e-003
9.435528e-003
9.435393e-003
9.435301e-003
9.435252e-003
9.435250e-003
9.435297e-003
9.435392e-003
9.435537e-003
9.435728e-003
9.435965e-003
9.436240e-003
9.436550e-003
9.436884e-003
9.437236e-003
9.437593e-003
9.437947e-003
9.438287e-003
9.438603e-003
9.438890e-003
9.439140e-003
9.439353e-003
9.439526e-003
9.439662e-003
9.439764e-003
9.439837e-003
9.439887e-003
9.439917e-003
9.439934e-003
9.439941e-003
9.439943e-003
9.439941e-003
9.439937e-003
9.439933e-003
9.439930e-003
9.439927e-003
9.439925e-003
9.439923e-003
9.439922e-003
9.439921e-003
9.439921e-003
9.439920e-003
9.439920e-003
9.439920e-003
9.439920e-003
9.439920e-003
9.439920e-003
9.439920e-003
9.439920e-003
9.439920e-003
9.439920e-003
9.439920e-003
9.439920e-003
9.439920e-003
9.439920e-003
9.439922e-003
9.439921e-003
9.439919e-003
9.439919e-003
9.439919e-003
9.439920e-003
9.439921e-003
9.439921e-003
9.439920e-003
9.439920e-003
9.439921e-003
9.439921e-003
9.439923e-003
9.439924e-003
9.439926e-003
9.439929e-003
9.439933e-003
9.439937e-003
9.439942e-003
9.439947e-003
9.439950e-003
9.439950e-003
9.439943e-003
9.439924e-003
9.439887e-003
9.439826e-003
9.439732e-003
9.439597e-003
9.439411e-003
9.439166e-003
9.438856e-003
9.438478e-003
9.438030e-003
9.437514e-003
9.436936e-003
9.436305e-003
9.435631e-003
9.434928e-003
9.434210e-003
9.433491e-003
9.432786e-003
9.432108e-003
9.431470e-003
9.430882e-003
9.430356e-003
9.429900e-003
9.429522e-003
9.429229e-003
9.429029e-003
9.428926e-003
9.428925e-003
9.429030e-003
9.429242e-003
9.429563e-003
9.429988e-003
9.430513e-003
9.431128e-003
9.431821e-003
9.432575e-003
9.433371e-003
9.434188e-003
9.435002e-003
9.435792e-003
9.436536e-003
9.437217e-003
9.437821e-003
9.438341e-003
9.438774e-003
9.439121e-003
9.439390e-003
9.439589e-003
9.439730e-003
9.439825e-003
9.439885e-003
9.439919e-003
9.439936e-003
9.439942e-003
9.439942e-003
9.439939e-003
9.439935e-003
9.439931e-003
9.439928e-003
9.439926e-003
9.439924e-003
9.439922e-003
9.439921e-003
9.439921e-003
9.439920e-003
9.439920e-003
9.439920e-003
9.439920e-003
9.439920e-003
9.439920e-003
9.439920e-003
9.439920e-003
9.439920e-003
9.439920e-003
9.439920e-003
9.439920e-003
9.439920e-003
9.439921e-003
9.439920e-003
9.439919e-003
9.439919e-003
9.439920e-003
9.439921e-003
9.439921e-003
9.439921e-003
9.439920e-003
9.439920e-003
9.439921e-003
9.439923e-003
9.439925e-003
9.439927e-003
9.439930e-003
9.439935e-003
9.439940e-003
9.439945e-003
9.439950e-003
9.439952e-003
9.439947e-003
9.439931e-003
9.439894e-003
9.439826e-003
9.439714e-003
9.439541e-003
9.439290e-003
9.438942e-003
9.438478e-003
9.437883e-003
9.437146e-003
9.436259e-003
9.435225e-003
9.434051e-003
9.432752e-003
9.431350e-003
9.429870e-003
9.428342e-003
9.426795e-003
9.425262e-003
9.423769e-003
9.422346e-003
9.421014e-003
9.419798e-003
9.418714e-003
9.417779e-003
9.417009e-003
9.416416e-003
9.416012e-003
9.415808e-003
9.415812e-003
9.416032e-003
9.416472e-003
9.417134e-003
9.418012e-003
9.419098e-003
9.420377e-003
9.421823e-003
9.423408e-003
9.425093e-003
9.426836e-003
9.428589e-003
9.430307e-003
9.431942e-003
9.433457e-003
9.434818e-003
9.436004e-003
9.437006e-003
9.437824e-003
9.438469e-003
9.438959e-003
9.439317e-003
9.439566e-003
9.439732e-003
9.439836e-003
9.439896e-003
9.439927e-003
9.439940e-003
9.439943e-003
9.439941e-003
9.439937e-003
9.439933e-003
9.439929e-003
9.439926e-003
9.439924e-003
9.439923e-003
9.439921e-003
9.439920e-003
9.439920e-003
9.439920e-003
9.439920e-003
9.439920e-003
9.439920e-003
9.439920e-003
9.439920e-003
9.439920e-003
9.439920e-003
9.439920e-003
9.439920e-003
9.439920e-003
9.439920e-003
9.439920e-003
9.439919e-003
9.439920e-003
9.439920e-003
9.439921e-003
9.439921e-003
9.439921e-003
9.439920e-003
9.439921e-003
9.439923e-003
9.439925e-003
9.439928e-003
9.439931e-003
9.439936e-003
9.439941e-003
9.439948e-003
9.439952e-003
9.439952e-003
9.439942e-003
9.439912e-003
9.439849e-003
9.439736e-003
9.439548e-003
9.439257e-003
9.438827e-003
9.438221e-003
9.437402e-003
9.436333e-003
9.434985e-003
9.433341e-003
9.431395e-003
9.429157e-003
9.426652e-003
9.423918e-003
9.421006e-003
9.417972e-003
9.414879e-003
9.411787e-003
9.408755e-003
9.405838e-003
9.403083e-003
9.400532e-003
9.398221e-003
9.396179e-003
9.394433e-003
9.393005e-003
9.391915e-003
9.391180e-003
9.390818e-003
9.390844e-003
9.391269e-003
9.392103e-003
9.393351e-003
9.395008e-003
9.397064e-003
9.399495e-003
9.402267e-003
9.405328e-003
9.408617e-003
9.412056e-003
9.415559e-003
9.419034e-003
9.422390e-003
9.425540e-003
9.428412e-003
9.430953e-003
9.433130e-003
9.434936e-003
9.436382e-003
9.437501e-003
9.438334e-003
9.438930e-003
9.439338e-003
9.439605e-003
9.439770e-003
9.439865e-003
9.439914e-003
9.439937e-003
9.439943e-003
9.439942e-003
9.439938e-003
9.439933e-003
9.439930e-003
9.439927e-003
9.439924e-003
9.439922e-003
9.439921e-003
9.439920e-003
9.439920e-003
9.439920e-003
9.439920e-003
9.439920e-003
9.439920e-003
9.439920e-003
9.439920e-003
9.439920e-003
9.439920e-003
9.439920e-003
9.439920e-003
9.439919e-003
9.439920e-003
9.439920e-003
9.439920e-003
9.439920e-003
9.439921e-003
9.439921e-003
9.439921e-003
9.439921e-003
9.439923e-003
9.439925e-003
9.439928e-003
9.439932e-003
9.439937e-003
9.439943e-003
9.439949e-003
9.439954e-003
9.439952e-003
9.439934e-003
9.439887e-003
9.439792e-003
9.439619e-003
9.439328e-003
9.438870e-003
9.438183e-003
9.437197e-003
9.435837e-003
9.434031e-003
9.431717e-003
9.428848e-003
9.425406e-003
9.421401e-003
9.416874e-003
9.411898e-003
9.406568e-003
9.400996e-003
9.395303e-003
9.389609e-003
9.384026e-003
9.378656e-003
9.373583e-003
9.368877e-003
9.364593e-003
9.360775e-003
9.357455e-003
9.354659e-003
9.352407e-003
9.350718e-003
9.349608e-003
9.349096e-003
9.349197e-003
9.349929e-003
9.351308e-003
9.353345e-003
9.356049e-003
9.359416e-003
9.363433e-003
9.368068e-003
9.373265e-003
9.378945e-003
9.385002e-003
9.391300e-003
9.397684e-003
9.403983e-003
9.410023e-003
9.415647e-003
9.420721e-003
9.425153e-003
9.428896e-003
9.431948e-003
9.434349e-003
9.436168e-003
9.437495e-003
9.438425e-003
9.439049e-003
9.439448e-003
9.439690e-003
9.439828e-003
9.439899e-003
9.439932e-003
9.439943e-003
9.439943e-003
9.439939e-003
9.439934e-003
9.439930e-003
9.439927e-003
9.439924e-003
9.439922e-003
9.439921e-003
9.439921e-003
9.439920e-003
9.439920e-003
9.439920e-003
9.439920e-003
9.439920e-003
9.439920e-003
9.439920e-003
9.439920e-003
9.439920e-003
9.439920e-003
9.439919e-003
9.439920e-003
9.439921e-003
9.439921e-003
9.439920e-003
9.439920e-003
9.439920e-003
9.439921e-003
9.439923e-003
9.439925e-003
9.439928e-003
9.439933e-003
9.439938e-003
9.439945e-003
9.439951e-003
9.439955e-003
9.439950e-003
9.439924e-003
9.439859e-003
9.439726e-003
9.439480e-003
9.439062e-003
9.438389e-003
9.437358e-003
9.435848e-003
9.433724e-003
9.430849e-003
9.427102e-003
9.422388e-003
9.416664e-003
9.409946e-003
9.402315e-003
9.393919e-003
9.384956e-003
9.375659e-003
9.366272e-003
9.357030e-003
9.348142e-003
9.339780e-003
9.332071e-003
9.325102e-003
9.318920e-003
9.313542e-003
9.308964e-003
9.305167e-003
9.302124e-003
9.299806e-003
9.298185e-003
9.297237e-003
9.296946e-003
9.297303e-003
9.298313e-003
9.299994e-003
9.302377e-003
9.305507e-003
9.309441e-003
9.314239e-003
9.319956e-003
9.326628e-003
9.334255e-003
9.342783e-003
9.352091e-003
9.361983e-003
9.372194e-003
9.382409e-003
9.392292e-003
9.401526e-003
9.409843e-003
9.417061e-003
9.423091e-003
9.427938e-003
9.431685e-003
9.434470e-003
9.436459e-003
9.437820e-003
9.438714e-003
9.439273e-003
9.439604e-003
9.439789e-003
9.439884e-003
9.439927e-003
9.439942e-003
9.439943e-003
9.439939e-003
9.439934e-003
9.439930e-003
9.439926e-003
9.439924e-003
9.439923e-003
9.439921e-003
9.439920e-003
9.439920e-003
9.439920e-003
9.439920e-003
9.439920e-003
9.439920e-003
9.439920e-003
9.439920e-003
9.439920e-003
9.439920e-003
9.439919e-003
9.439920e-003
9.439921e-003
9.439921e-003
9.439920e-003
9.439920e-003
9.439921e-003
9.439923e-003
9.439925e-003
9.439929e-003
9.439933e-003
9.439938e-003
9.439945e-003
9.439953e-003
9.439957e-003
9.439949e-003
9.439916e-003
9.439833e-003
9.439659e-003
9.439335e-003
9.438769e-003
9.437840e-003
9.436385e-003
9.434206e-003
9.431076e-003
9.426758e-003
9.421033e-003
9.413736e-003
9.404795e-003
9.394268e-003
9.382357e-003
9.369411e-003
9.355897e-003
9.342350e-003
9.329315e-003
9.317293e-003
9.306686e-003
9.297772e-003
9.290688e-003
9.285445e-003
9.281942e-003
9.279993e-003
9.279363e-003
9.279789e-003
9.281002e-003
9.282741e-003
9.284759e-003
9.286830e-003
9.288754e-003
9.290360e-003
9.291515e-003
9.292139e-003
9.292213e-003
9.291799e-003
9.291052e-003
9.290226e-003
9.289675e-003
9.289833e-003
9.291176e-003
9.294169e-003
9.299199e-003
9.306494e-003
9.316071e-003
9.327695e-003
9.340899e-003
9.355029e-003
9.369335e-003
9.383084e-003
9.395653e-003
9.406602e-003
9.415708e-003
9.422948e-003
9.428458e-003
9.432475e-003
9.435282e-003
9.437160e-003
9.438363e-003
9.439098e-003
9.439524e-003
9.439755e-003
9.439872e-003
9.439923e-003
9.439941e-003
9.439943e-003
9.439939e-003
9.439934e-003