# vtk DataFile Version 3.0
vtk output
ASCII
DATASET STRUCTURED_POINTS
DIMENSIONS 100 100 1
SPACING 1 1 1
ORIGIN 0 0 0
POINT_DATA 10000
SCALARS SFBox_profile double
LOOKUP_TABLE default 
0.000000e+000
0.000000e+000
0.000000e+000
0.000000e+000
0.000000e+000
0.000000e+000
0.000000e+000
0.000000e+000
0.000000e+000
0.000000e+000
0.000000e+000
0.000000e+000
0.000000e+000
0.000000e+000
0.000000e+000
0.000000e+000
0.000000e+000
0.000000e+000
0.000000e+000
0.000000e+000
0.000000e+000
0.000000e+000
0.000000e+000
0.000000e+000
0.000000e+000
0.000000e+000
0.000000e+000
0.000000e+000
0.000000e+000
0.000000e+000
0.000000e+000
0.000000e+000
0.000000e+000
0.000000e+000
0.000000e+000
0.000000e+000
0.000000e+000
0.000000e+000
0.000000e+000
0.000000e+000
0.000000e+000
0.000000e+000
0.000000e+000
0.000000e+000
0.000000e+000
0.000000e+000
0.000000e+000
0.000000e+000
0.000000e+000
0.000000e+000
0.000000e+000
0.000000e+000
0.000000e+000
0.000000e+000
0.000000e+000
0.000000e+000
0.000000e+000
0.000000e+000
0.000000e+000
0.000000e+000
0.000000e+000
0.000000e+000
0.000000e+000
0.000000e+000
0.000000e+000
0.000000e+000
0.000000e+000
0.000000e+000
0.000000e+000
0.000000e+000
0.000000e+000
0.000000e+000
0.000000e+000
0.000000e+000
0.000000e+000
0.000000e+000
0.000000e+000
0.000000e+000
0.000000e+000
0.000000e+000
0.000000e+000
0.000000e+000
0.000000e+000
0.000000e+000
0.000000e+000
0.000000e+000
0.000000e+000
0.000000e+000
0.000000e+000
0.000000e+000
0.000000e+000
0.000000e+000
0.000000e+000
0.000000e+000
0.000000e+000
0.000000e+000
0.000000e+000
0.000000e+000
0.000000e+000
0.000000e+000
-3.235871e-010
-1.166594e-010
2.436387e-010
6.753297e-010
1.111125e-009
1.540103e-009
2.019443e-009
2.637026e-009
3.435237e-009
4.333938e-009
5.088349e-009
5.282358e-009
4.320698e-009
1.382733e-009
-4.658850e-009
-1.530565e-008
-3.243125e-008
-5.818961e-008
-9.486091e-008
-1.446764e-007
-2.096452e-007
-2.913817e-007
-3.909357e-007
-5.086482e-007
-6.440742e-007
-7.960020e-007
-9.625655e-007
-1.141418e-006
-1.329928e-006
-1.525360e-006
-1.725040e-006
-1.926470e-006
-2.127425e-006
-2.325992e-006
-2.520596e-006
-2.709983e-006
-2.893199e-006
-3.069546e-006
-3.238547e-006
-3.399910e-006
-3.553489e-006
-3.699261e-006
-3.837295e-006
-3.967724e-006
-4.090725e-006
-4.206492e-006
-4.315213e-006
-4.417039e-006
-4.512055e-006
-4.600252e-006
-4.681500e-006
-4.755514e-006
-4.821838e-006
-4.879817e-006
-4.928590e-006
-4.967077e-006
-4.993987e-006
-5.007821e-006
-5.006893e-006
-4.989357e-006
-4.953255e-006
-4.896572e-006
-4.817303e-006
-4.713551e-006
-4.583630e-006
-4.426198e-006
-4.240421e-006
-4.026149e-006
-3.784115e-006
-3.516132e-006
-3.225262e-006
-2.915923e-006
-2.593899e-006
-2.266202e-006
-1.940764e-006
-1.625925e-006
-1.329763e-006
-1.059358e-006
-8.201245e-007
-6.153684e-007
-4.461354e-007
-3.113424e-007
-2.081305e-007
-1.323600e-007
-7.918750e-008
-4.365452e-008
-2.119429e-008
-7.956781e-009
-9.091810e-010
2.237297e-009
3.160908e-009
3.030772e-009
2.564515e-009
2.093947e-009
1.682508e-009
1.278497e-009
8.430469e-010
4.043781e-010
4.101872e-011
-1.647935e-010
4.867761e-011
1.913232e-010
4.624630e-010
8.359675e-010
1.283353e-009
1.790019e-009
2.362979e-009
3.008636e-009
3.672268e-009
4.155002e-009
4.036163e-009
2.615481e-009
-1.136244e-009
-8.638201e-009
-2.176966e-008
-4.291022e-008
-7.489709e-008
-1.208699e-007
-1.840176e-007
-2.672706e-007
-3.729862e-007
-5.026619e-007
-6.567106e-007
-8.343351e-007
-1.033539e-006
-1.251286e-006
-1.483775e-006
-1.726783e-006
-1.976003e-006
-2.227324e-006
-2.477048e-006
-2.722009e-006
-2.959635e-006
-3.187942e-006
-3.405492e-006
-3.611333e-006
-3.804928e-006
-3.986084e-006
-4.154886e-006
-4.311636e-006
-4.456796e-006
-4.590931e-006
-4.714662e-006
-4.828623e-006
-4.933421e-006
-5.029611e-006
-5.117675e-006
-5.197998e-006
-5.270862e-006
-5.336435e-006
-5.394768e-006
-5.445791e-006
-5.489313e-006
-5.525025e-006
-5.552507e-006
-5.571229e-006
-5.580557e-006
-5.579754e-006
-5.567971e-006
-5.544235e-006
-5.507432e-006
-5.456269e-006
-5.389243e-006
-5.304598e-006
-5.200301e-006
-5.074042e-006
-4.923297e-006
-4.745469e-006
-4.538142e-006
-4.299451e-006
-4.028569e-006
-3.726241e-006
-3.395297e-006
-3.041010e-006
-2.671162e-006
-2.295715e-006
-1.926036e-006
-1.573770e-006
-1.249558e-006
-9.618515e-007
-7.160668e-007
-5.142277e-007
-3.551217e-007
-2.348968e-007
-1.479466e-007
-8.788473e-008
-4.840771e-008
-2.389711e-008
-9.715211e-009
-2.253613e-009
1.151070e-009
2.342376e-009
2.479372e-009
2.192878e-009
1.765022e-009
1.301447e-009
8.525508e-010
4.649316e-010
1.827250e-010
3.556502e-011
6.733685e-010
7.300834e-010
8.847549e-010
1.189945e-009
1.669830e-009
2.294011e-009
2.969755e-009
3.530860e-009
3.689021e-009
2.928705e-009
3.584875e-010
-5.445748e-009
-1.657328e-008
-3.587075e-008
-6.698184e-008
-1.143024e-007
-1.827969e-007
-2.776288e-007
-4.036059e-007
-5.645109e-007
-7.624372e-007
-9.972706e-007
-1.266432e-006
-1.564944e-006
-1.885832e-006
-2.220776e-006
-2.560903e-006
-2.897574e-006
-3.223032e-006
-3.530845e-006
-3.816115e-006
-4.075481e-006
-4.306981e-006
-4.509824e-006
-4.684159e-006
-4.830852e-006
-4.951308e-006
-5.047334e-006
-5.121020e-006
-5.174634e-006
-5.210514e-006
-5.230970e-006
-5.238184e-006
-5.234131e-006
-5.220525e-006
-5.198793e-006
-5.170086e-006
-5.135302e-006
-5.095148e-006
-5.050209e-006
-5.001030e-006
-4.948197e-006
-4.892428e-006
-4.834640e-006
-4.776022e-006
-4.718074e-006
-4.662627e-006
-4.611816e-006
-4.568012e-006
-4.533685e-006
-4.511199e-006
-4.502531e-006
-4.508904e-006
-4.530351e-006
-4.565243e-006
-4.609830e-006
-4.657879e-006
-4.700517e-006
-4.726418e-006
-4.722423e-006
-4.674682e-006
-4.570270e-006
-4.399130e-006
-4.156051e-006
-3.842262e-006
-3.466239e-006
-3.043358e-006
-2.594316e-006
-2.142497e-006
-1.710788e-006
-1.318519e-006
-9.792106e-007
-6.995605e-007
-4.797840e-007
-3.149955e-007
-1.971176e-007
-1.167608e-007
-6.469714e-008
-3.279186e-008
-1.444672e-008
-4.689668e-009
-3.629985e-011
1.782509e-009
2.148066e-009
1.861280e-009
1.373405e-009
9.241059e-010
6.126651e-010
4.442884e-010
3.784601e-010
1.394651e-009
1.402400e-009
1.496597e-009
1.782247e-009
2.309595e-009
2.999043e-009
3.593391e-009
3.622205e-009
2.327710e-009
-1.498930e-009
-9.777127e-009
-2.543707e-008
-5.267227e-008
-9.706531e-008
-1.655301e-007
-2.660121e-007
-4.068692e-007
-5.958682e-007
-8.388325e-007
-1.138140e-006
-1.491422e-006
-1.890854e-006
-2.323303e-006
-2.771385e-006
-3.215222e-006
-3.634542e-006
-4.010708e-006
-4.328331e-006
-4.576255e-006
-4.747866e-006
-4.840819e-006
-4.856352e-006
-4.798402e-006
-4.672721e-006
-4.486132e-006
-4.245979e-006
-3.959773e-006
-3.634988e-006
-3.278923e-006
-2.898583e-006
-2.500548e-006
-2.090816e-006
-1.674665e-006
-1.256541e-006
-8.400143e-007
-4.278122e-007
-2.192880e-008
3.761907e-007
7.654083e-007
1.144614e-006
1.512430e-006
1.866913e-006
2.205279e-006
2.523651e-006
2.816861e-006
3.078316e-006
3.299942e-006
3.472244e-006
3.584493e-006
3.625079e-006
3.582062e-006
3.443944e-006
3.200683e-006
2.844963e-006
2.373673e-006
1.789514e-006
1.102580e-006
3.316501e-007
-4.951391e-007
-1.340602e-006
-2.160154e-006
-2.904996e-006
-3.526796e-006
-3.983436e-006
-4.245007e-006
-4.298893e-006
-4.152671e-006
-3.833840e-006
-3.386000e-006
-2.862026e-006
-2.315694e-006
-1.793729e-006
-1.330186e-006
-9.442115e-007
-6.411410e-007
-4.158482e-007
-2.569140e-007
-1.504055e-007
-8.263578e-008
-4.179450e-008
-1.863152e-008
-6.461305e-009
-7.622282e-010
1.377264e-009
1.768482e-009
1.489792e-009
1.116991e-009
8.786729e-010
7.899941e-010
7.773903e-010
2.127223e-009
2.161562e-009
2.300944e-009
2.632923e-009
3.161405e-009
3.679832e-009
3.642780e-009
2.035760e-009
-2.802128e-009
-1.346822e-008
-3.391997e-008
-6.995734e-008
-1.296007e-007
-2.231673e-007
-3.628557e-007
-5.616601e-007
-8.314621e-007
-1.180284e-006
-1.609002e-006
-2.108245e-006
-2.656482e-006
-3.220191e-006
-3.756481e-006
-4.217750e-006
-4.557353e-006
-4.735039e-006
-4.721070e-006
-4.498437e-006
-4.063077e-006
-3.422424e-006
-2.592858e-006
-1.596717e-006
-4.594216e-007
7.928674e-007
2.134893e-006
3.543239e-006
4.996718e-006
6.476403e-006
7.965518e-006
9.449334e-006
1.091513e-005
1.235225e-005
1.375213e-005
1.510832e-005
1.641637e-005
1.767358e-005
1.887864e-005
2.003109e-005
2.113073e-005
2.217700e-005
2.316830e-005
2.410139e-005
2.497083e-005
2.576848e-005
2.648314e-005
2.710030e-005
2.760200e-005
2.796691e-005
2.817054e-005
2.818574e-005
2.798350e-005
2.753403e-005
2.680840e-005
2.578059e-005
2.443030e-005
2.274627e-005
2.073025e-005
1.840121e-005
1.579935e-005
1.298901e-005
1.005954e-005
7.122857e-006
4.306806e-006
1.743871e-006
-4.438167e-007
-2.161091e-006
-3.354585e-006
-4.022043e-006
-4.213025e-006
-4.019855e-006
-3.560412e-006
-2.957047e-006
-2.317153e-006
-1.720165e-006
-1.213171e-006
-8.142270e-007
-5.202538e-007
-3.160261e-007
-1.817282e-007
-9.801975e-008
-4.867377e-008
-2.139027e-008
-7.511220e-009
-1.268306e-009
1.005977e-009
1.507715e-009
1.420056e-009
1.263911e-009
1.183088e-009
1.161866e-009
2.908571e-009
3.039413e-009
3.306769e-009
3.683091e-009
4.002444e-009
3.768791e-009
1.887744e-009
-3.660125e-009
-1.622032e-008
-4.098890e-008
-8.567101e-008
-1.611490e-007
-2.818541e-007
-4.653836e-007
-7.308265e-007
-1.095299e-006
-1.568466e-006
-2.145487e-006
-2.799872e-006
-3.478627e-006
-4.102213e-006
-4.570726e-006
-4.775679e-006
-4.614803e-006
-4.006272e-006
-2.899134e-006
-1.278078e-006
8.376329e-007
3.399885e-006
6.340223e-006
9.579162e-006
1.303466e-005
1.662865e-005
2.029124e-005
2.396269e-005
2.759386e-005
3.114547e-005
3.458697e-005
3.789529e-005
4.105373e-005
4.405106e-005
4.688081e-005
4.954062e-005
5.203157e-005
5.435756e-005
5.652443e-005
5.853919e-005
6.040908e-005
6.214072e-005
6.373932e-005
6.520795e-005
6.654699e-005
6.775371e-005
6.882194e-005
6.974190e-005
7.050008e-005
7.107914e-005
7.145772e-005
7.161024e-005
7.150640e-005
7.111069e-005
7.038165e-005
6.927135e-005
6.772529e-005
6.568334e-005
6.308251e-005
5.986225e-005
5.597330e-005
5.138996e-005
4.612550e-005
4.024824e-005
3.389465e-005
2.727424e-005
2.066113e-005
1.436970e-005
8.715586e-006
3.968551e-006
3.079441e-007
-2.207411e-006
-3.645803e-006
-4.182656e-006
-4.059062e-006
-3.531086e-006
-2.824503e-006
-2.106291e-006
-1.476803e-006
-9.787545e-007
-6.148651e-007
-3.661410e-007
-2.059405e-007
-1.084638e-007
-5.257484e-008
-2.263941e-008
-7.904467e-009
-1.421905e-009
9.982240e-010
1.664033e-009
1.703657e-009
1.595004e-009
1.513580e-009
3.860134e-009
4.104367e-009
4.476629e-009
4.715998e-009
4.291847e-009
2.107196e-009
-3.992315e-009
-1.787407e-008
-4.590603e-008
-9.786099e-008
-1.878618e-007
-3.350681e-007
-5.634246e-007
-8.993685e-007
-1.366148e-006
-1.973711e-006
-2.704460e-006
-3.497577e-006
-4.237352e-006
-4.752033e-006
-4.827732e-006
-4.236948e-006
-2.775600e-006
-2.989797e-007
3.252694e-006
7.844846e-006
1.335579e-005
1.959696e-005
2.634022e-005
3.334611e-005
4.038792e-005
4.726855e-005
5.382932e-005
5.995174e-005
6.555457e-005
7.058849e-005
7.503047e-005
7.887851e-005
8.214730e-005
8.486434e-005
8.706654e-005
8.879700e-005
9.010200e-005
9.102831e-005
9.162091e-005
9.192138e-005
9.196685e-005
9.178981e-005
9.141843e-005
9.087761e-005
9.019039e-005
8.937982e-005
8.847098e-005
8.749297e-005
8.648083e-005
8.547681e-005
8.453096e-005
8.370035e-005
8.304664e-005
8.263144e-005
8.250904e-005
8.271617e-005
8.325896e-005
8.409772e-005
8.513114e-005
8.618267e-005
8.699335e-005
8.722634e-005
8.648908e-005
8.437718e-005
8.053984e-005
7.475907e-005
6.702612e-005
5.759287e-005
4.697609e-005
3.590217e-005
2.519624e-005
1.563773e-005
7.819577e-006
2.050919e-006
-1.670567e-006
-3.613562e-006
-4.213435e-006
-3.952891e-006
-3.260111e-006
-2.449073e-006
-1.706906e-006
-1.115503e-006
-6.875271e-007
-4.003153e-007
-2.196399e-007
-1.126723e-007
-5.315051e-008
-2.221058e-008
-7.361075e-009
-9.310146e-010
1.436755e-009
2.034252e-009
1.997880e-009
1.869033e-009
5.083215e-009
5.367156e-009
5.636597e-009
5.241020e-009
2.972196e-009
-3.419988e-009
-1.805876e-008
-4.809141e-008
-1.050581e-007
-2.063066e-007
-3.760870e-007
-6.454648e-007
-1.049340e-006
-1.617921e-006
-2.359801e-006
-3.235696e-006
-4.126840e-006
-4.808941e-006
-4.947289e-006
-4.126190e-006
-1.914922e-006
2.042779e-006
7.939753e-006
1.574309e-005
2.517601e-005
3.574754e-005
4.682093e-005
5.770236e-005
6.772846e-005
7.633562e-005
8.310213e-005
8.776145e-005
9.019138e-005
9.038812e-005
8.843530e-005
8.447602e-005
7.869181e-005
7.128862e-005
6.248731e-005
5.251593e-005
4.160207e-005
2.996470e-005
1.780631e-005
5.306301e-006
-7.383210e-006
-2.013854e-005
-3.286235e-005
-4.547865e-005
-5.792524e-005
-7.014454e-005
-8.207318e-005
-9.363125e-005
-1.047117e-004
-1.151708e-004
-1.248191e-004
-1.334163e-004
-1.406671e-004
-1.462228e-004
-1.496877e-004
-1.506319e-004
-1.486140e-004
-1.432126e-004
-1.340709e-004
-1.209529e-004
-1.038112e-004
-8.286229e-005
-5.865961e-005
-3.214967e-005
-4.688649e-006
2.200685e-005
4.599758e-005
6.535497e-005
7.846806e-005
8.436594e-005
8.296753e-005
7.516708e-005
6.269910e-005
4.779867e-005
3.274482e-005
1.941579e-005
8.989068e-006
1.860623e-006
-2.235152e-006
-3.978234e-006
-4.185207e-006
-3.588219e-006
-2.716557e-006
-1.878599e-006
-1.207693e-006
-7.285028e-007
-4.138291e-007
-2.210289e-007
-1.101233e-007
-5.019820e-008
-1.993322e-008
-5.842480e-009
-4.276778e-012
1.952752e-009
2.329406e-009
2.277443e-009
6.549559e-009
6.677152e-009
6.365085e-009
4.332661e-009
-1.813110e-009
-1.638765e-008
-4.696702e-008
-1.062336e-007
-2.140985e-007
-3.995469e-007
-7.010135e-007
-1.162844e-006
-1.823523e-006
-2.689911e-006
-3.693436e-006
-4.632332e-006
-5.118781e-006
-4.564148e-006
-2.236661e-006
2.594270e-006
1.044911e-005
2.141974e-005
3.501164e-005
5.010223e-005
6.504140e-005
7.787915e-005
8.665727e-005
8.968785e-005
8.575774e-005
7.422656e-005
5.501706e-005
2.852218e-005
-4.533580e-006
-4.323932e-005
-8.661886e-005
-1.337118e-004
-1.836153e-004
-2.354976e-004
-2.885987e-004
-3.422299e-004
-3.957772e-004
-4.487091e-004
-5.005850e-004
-5.510608e-004
-5.998875e-004
-6.469029e-004
-6.920153e-004
-7.351819e-004
-7.763834e-004
-8.155961e-004
-8.527649e-004
-8.877772e-004
-9.204391e-004
-9.504555e-004
-9.774136e-004
-1.000771e-003
-1.019848e-003
-1.033826e-003
-1.041753e-003
-1.042551e-003
-1.035044e-003
-1.017987e-003
-9.901271e-004
-9.502839e-004
-8.974774e-004
-8.311018e-004
-7.511545e-004
-6.585090e-004
-5.551917e-004
-4.445917e-004
-3.314973e-004
-2.218526e-004
-1.221616e-004
-3.855756e-005
2.431950e-005
6.435761e-005
8.254360e-005
8.274885e-005
7.072130e-005
5.266435e-005
3.389795e-005
1.799559e-005
6.594480e-006
-2.506899e-007
-3.450365e-006
-4.254424e-006
-3.798831e-006
-2.887788e-006
-1.973551e-006
-1.243839e-006
-7.323579e-007
-4.049274e-007
-2.099377e-007
-1.010614e-007
-4.403099e-008
-1.621759e-008
-3.845166e-009
9.534788e-010
2.430181e-009
2.726797e-009
8.027334e-009
7.637808e-009
5.872415e-009
4.256457e-010
-1.308240e-008
-4.244558e-008
-1.009407e-007
-2.100626e-007
-4.023625e-007
-7.228623e-007
-1.225695e-006
-1.959596e-006
-2.932457e-006
-4.045291e-006
-4.996750e-006
-5.185827e-006
-3.674624e-006
7.096630e-007
9.081089e-006
2.203039e-005
3.909892e-005
5.836574e-005
7.632741e-005
8.821207e-005
8.871006e-005
7.291417e-005
3.721031e-005
-2.013470e-005
-9.883704e-005
-1.968714e-004
-3.109889e-004
-4.372989e-004
-5.717863e-004
-7.106933e-004
-8.507427e-004
-9.892210e-004
-1.123962e-003
-1.253285e-003
-1.375925e-003
-1.490979e-003
-1.597866e-003
-1.696294e-003
-1.786228e-003
-1.867843e-003
-1.941478e-003
-2.007577e-003
-2.066636e-003
-2.119158e-003
-2.165609e-003
-2.206399e-003
-2.241864e-003
-2.272263e-003
-2.297782e-003
-2.318553e-003
-2.334662e-003
-2.346165e-003
-2.353100e-003
-2.355469e-003
-2.353217e-003
-2.346161e-003
-2.333888e-003
-2.315608e-003
-2.289966e-003
-2.254825e-003
-2.207081e-003
-2.142561e-003
-2.056143e-003
-1.942238e-003
-1.795784e-003
-1.613781e-003
-1.397168e-003
-1.152466e-003
-8.923545e-004
-6.344979e-004
-3.985565e-004
-2.021421e-004
-5.688645e-005
3.423227e-005
7.721701e-005
8.450600e-005
7.072855e-005
4.881452e-005
2.765526e-005
1.168730e-005
1.871254e-006
-2.849386e-006
-4.235717e-006
-3.901197e-006
-2.952571e-006
-1.982203e-006
-1.219703e-006
-6.987835e-007
-3.749256e-007
-1.879159e-007
-8.683283e-008
-3.575529e-008
-1.187672e-008
-1.768071e-009
1.967362e-009
3.069198e-009
9.034988e-009
7.534504e-009
2.869618e-009
-8.920866e-009
-3.541560e-008
-8.994668e-008
-1.946527e-007
-3.841401e-007
-7.082715e-007
-1.230103e-006
-2.010501e-006
-3.064776e-006
-4.273293e-006
-5.239015e-006
-5.124736e-006
-2.570030e-006
4.153296e-006
1.659964e-005
3.519257e-005
5.802501e-005
7.980882e-005
9.152769e-005
8.136443e-005
3.691532e-005
-5.186987e-005
-1.899550e-004
-3.758350e-004
-6.018742e-004
-8.558392e-004
-1.122960e-003
-1.388063e-003
-1.637427e-003
-1.860073e-003
-2.048325e-003
-2.197741e-003
-2.306644e-003
-2.375541e-003
-2.406593e-003
-2.403165e-003
-2.369444e-003
-2.310077e-003
-2.229825e-003
-2.133252e-003
-2.024481e-003
-1.907038e-003
-1.783780e-003
-1.656923e-003
-1.528129e-003
-1.398634e-003
-1.269411e-003
-1.141328e-003
-1.015311e-003
-8.924872e-004
-7.743135e-004
-6.626760e-004
-5.599688e-004
-4.691404e-004
-3.937108e-004
-3.377509e-004
-3.058208e-004
-3.028471e-004
-3.339119e-004
-4.039010e-004
-5.169291e-004
-6.754269e-004
-8.787572e-004
-1.121269e-003
-1.389882e-003
-1.661725e-003
-1.903118e-003
-2.071980e-003
-2.125780e-003
-2.035015e-003
-1.797722e-003
-1.446538e-003
-1.041395e-003
-6.498412e-004
-3.261476e-004
-9.913492e-005
2.994262e-005
8.091133e-005
8.253865e-005
6.148332e-005
3.620888e-005
1.604543e-005
3.542092e-006
-2.431641e-006
-4.210442e-006
-3.908261e-006
-2.908428e-006
-1.904157e-006
-1.138580e-006
-6.324247e-007
-3.280633e-007
-1.582180e-007
-6.968894e-008
-2.669742e-008
-7.436165e-009
3.637453e-010
2.973597e-009
8.787839e-009
5.250833e-009
-4.575550e-009
-2.725804e-008
-7.530692e-008
-1.704096e-007
-3.476301e-007
-6.594578e-007
-1.175834e-006
-1.970475e-006
-3.074330e-006
-4.367877e-006
-5.390324e-006
-5.092948e-006
-1.673504e-006
7.234640e-006
2.368398e-005
4.764056e-005
7.449070e-005
9.259265e-005
8.239129e-005
1.895050e-005
-1.217334e-004
-3.538995e-004
-6.742454e-004
-1.058908e-003
-1.465402e-003
-1.839441e-003
-2.126423e-003
-2.284043e-003
-2.290788e-003
-2.147390e-003
-1.871991e-003
-1.492389e-003
-1.038947e-003
-5.400252e-004
-1.994073e-005
5.015227e-004
1.008947e-003
1.490954e-003
1.939840e-003
2.351158e-003
2.723196e-003
3.056383e-003
3.352663e-003
3.614917e-003
3.846471e-003
4.050715e-003
4.230842e-003
4.389681e-003
4.529619e-003
4.652581e-003
4.760054e-003
4.853139e-003
4.932617e-003
4.999004e-003
5.052585e-003
5.093407e-003
5.121187e-003
5.135135e-003
5.133625e-003
5.113691e-003
5.070295e-003
4.995342e-003
4.876429e-003
4.695466e-003
4.427561e-003
4.041118e-003
3.501025e-003
2.777836e-003
1.865682e-003
8.077400e-004
-2.819455e-004
-1.223392e-003
-1.824656e-003
-1.976040e-003
-1.722216e-003
-1.238439e-003
-7.243580e-004
-3.148333e-004
-5.897381e-005
5.938513e-005
8.678003e-005
7.019210e-005
4.214239e-005
1.867504e-005
4.266655e-006
-2.377087e-006
-4.218948e-006
-3.822647e-006
-2.758063e-006
-1.747661e-006
-1.010618e-006
-5.421640e-007
-2.708462e-007
-1.250219e-007
-5.190907e-008
-1.781463e-008
-3.255624e-009
1.910513e-009
6.121357e-009
-8.299020e-010
-1.917395e-008
-5.942140e-008
-1.413457e-007
-2.985580e-007
-5.836142e-007
-1.070399e-006
-1.844345e-006
-2.958966e-006
-4.321082e-006
-5.462877e-006
-5.205925e-006
-1.369584e-006
9.077888e-006
2.880392e-005
5.723696e-005
8.597607e-005
9.371507e-005
4.420734e-005
-1.075838e-004
-3.987589e-004
-8.333704e-004
-1.359831e-003
-1.861634e-003
-2.175104e-003
-2.148301e-003
-1.712710e-003
-9.126792e-004
1.238935e-004
1.242803e-003
2.312334e-003
3.246969e-003
4.007631e-003
4.589081e-003
5.005193e-003
5.277929e-003
5.431055e-003
5.487277e-003
5.467178e-003
5.388879e-003
5.267925e-003
5.117256e-003
4.947265e-003
4.765974e-003
4.579311e-003
4.391462e-003
4.205261e-003
4.022572e-003
3.844648e-003
3.672437e-003
3.506843e-003
3.348942e-003
3.200138e-003
3.062300e-003
2.937852e-003
2.829844e-003
2.742011e-003
2.678819e-003
2.645508e-003
2.648132e-003
2.693567e-003
2.789435e-003
2.943829e-003
3.164613e-003
3.457902e-003
3.825074e-003
4.257393e-003
4.727211e-003
5.175319e-003
5.496612e-003
5.532401e-003
5.088512e-003
4.009246e-003
2.323840e-003
3.915695e-004
-1.166577e-003
-1.862746e-003
-1.717323e-003
-1.148843e-003
-5.663137e-004
-1.668274e-004
2.970472e-005
8.610046e-005
7.459549e-005
4.453152e-005
1.897415e-005
3.827242e-006
-2.706860e-006
-4.237024e-006
-3.634395e-006
-2.510224e-006
-1.529157e-006
-8.514471e-007
-4.395380e-007
-2.105151e-007
-9.222129e-008
-3.528987e-008
-1.009865e-008
-8.506924e-010
-5.810301e-010
-1.290152e-008
-4.448757e-008
-1.115570e-007
-2.440689e-007
-4.916187e-007
-9.281637e-007
-1.647440e-006
-2.728129e-006
-4.126209e-006
-5.433266e-006
-5.468616e-006
-1.832060e-006
9.103212e-006
3.080849e-005
6.259999e-005
9.228188e-005
8.686916e-005
-1.189524e-005
-2.749373e-004
-7.461910e-004
-1.376478e-003
-1.958769e-003
-2.128216e-003
-1.541484e-003
-1.688379e-004
1.631806e-003
3.356857e-003
4.641854e-003
5.359769e-003
5.559047e-003
5.365682e-003
4.915306e-003
4.320990e-003
3.664569e-003
2.999830e-003
2.359661e-003
1.762884e-003
1.219265e-003
7.327393e-004
3.033879e-004
-7.128873e-005
-3.954612e-004
-6.742581e-004
-9.131984e-004
-1.117758e-003
-1.293070e-003
-1.443735e-003
-1.573733e-003
-1.686403e-003
-1.784473e-003
-1.870116e-003
-1.945021e-003
-2.010471e-003
-2.067411e-003
-2.116504e-003
-2.158167e-003
-2.192563e-003
-2.219565e-003
-2.238631e-003
-2.248602e-003
-2.247344e-003
-2.231200e-003
-2.194130e-003
-2.126422e-003
-2.012843e-003
-1.830145e-003
-1.544183e-003
-1.107699e-003
-4.616181e-004
4.543063e-004
1.672015e-003
3.135848e-003
4.612220e-003
5.612283e-003
5.475145e-003
3.812129e-003
1.163134e-003
-1.054359e-003
-1.836564e-003
-1.473461e-003
-7.842623e-004
-2.570558e-004
7.379188e-006
8.488820e-005
7.503370e-005
4.305785e-005
1.688180e-005
2.362875e-006
-3.274216e-006
-4.190660e-006
-3.332516e-006
-2.183170e-006
-1.272060e-006
-6.795289e-007
-3.362311e-007
-1.533733e-007
-6.288217e-008
-2.172504e-008
-6.253767e-009
-1.340290e-008
-3.373257e-008
-8.486968e-008
-1.909029e-007
-3.953234e-007
-7.675581e-007
-1.403856e-006
-2.404517e-006
-3.785838e-006
-5.253782e-006
-5.765664e-006
-2.937471e-006
7.240674e-006
2.919378e-005
6.308386e-005
9.467862e-005
8.048554e-005
-6.178737e-005
-4.329544e-004
-1.072475e-003
-1.806077e-003
-2.097969e-003
-1.226554e-003
9.337336e-004
3.471248e-003
5.220618e-003
5.679583e-003
5.054757e-003
3.829437e-003
2.432390e-003
1.130468e-003
4.606338e-005
-7.927998e-004
-1.407774e-003
-1.839580e-003
-2.130674e-003
-2.317600e-003
-2.429037e-003
-2.486489e-003
-2.505779e-003
-2.498501e-003
-2.473159e-003
-2.435983e-003
-2.391509e-003
-2.342993e-003
-2.292731e-003
-2.242298e-003
-2.192750e-003
-2.144785e-003
-2.098867e-003
-2.055335e-003
-2.014475e-003
-1.976594e-003
-1.942060e-003
-1.911346e-003
-1.885061e-003
-1.863977e-003
-1.849056e-003
-1.841473e-003
-1.842652e-003
-1.854289e-003
-1.878387e-003
-1.917264e-003
-1.973523e-003
-2.049906e-003
-2.148900e-003
-2.271827e-003
-2.416917e-003
-2.575447e-003
-2.724370e-003
-2.813222e-003
-2.743534e-003
-2.344883e-003
-1.373320e-003
3.948152e-004
2.867149e-003
5.193008e-003
5.785421e-003
3.693431e-003
3.564418e-004
-1.614615e-003
-1.644350e-003
-9.131533e-004
-2.971194e-004
4.533462e-006
8.559777e-005
7.159249e-005
3.793638e-005
1.288797e-005
3.158713e-007
-3.833340e-006
-4.000088e-006
-2.921681e-006
-1.806225e-006
-1.003282e-006
-5.124734e-007
-2.418014e-007
-1.041561e-007
-4.003977e-008
-1.547614e-008
-3.481365e-008
-6.654159e-008
-1.452194e-007
-3.052520e-007
-6.070209e-007
-1.142083e-006
-2.022974e-006
-3.321965e-006
-4.885320e-006
-5.918846e-006
-4.311267e-006
3.971404e-006
2.421773e-005
5.849561e-005
9.382909e-005
8.155821e-005
-8.107704e-005
-5.282030e-004
-1.295332e-003
-2.027338e-003
-1.715257e-003
5.630352e-004
3.825069e-003
5.739313e-003
5.300786e-003
3.328977e-003
1.080078e-003
-6.973741e-004
-1.819857e-003
-2.396509e-003
-2.606963e-003
-2.602783e-003
-2.486623e-003
-2.320500e-003
-2.139067e-003
-1.960327e-003
-1.792777e-003
-1.639776e-003
-1.502054e-003
-1.379085e-003
-1.269793e-003
-1.172905e-003
-1.087111e-003
-1.011144e-003
-9.438144e-004
-8.840302e-004
-8.308099e-004
-7.832913e-004
-7.407358e-004
-7.025313e-004
-6.681922e-004
-6.373573e-004
-6.097873e-004
-5.853620e-004
-5.640782e-004
-5.460507e-004
-5.315166e-004
-5.208463e-004
-5.145638e-004
-5.133801e-004
-5.182452e-004
-5.304271e-004
-5.516277e-004
-5.841514e-004
-6.311420e-004
-6.969105e-004
-7.873638e-004
-9.105153e-004
-1.076958e-003
-1.299895e-003
-1.593598e-003
-1.967384e-003
-2.408381e-003
-2.839840e-003
-3.038336e-003
-2.528959e-003
-6.555005e-004
2.670972e-003
5.636510e-003
5.243245e-003
1.591203e-003
-1.341640e-003
-1.695265e-003
-9.277092e-004
-2.727420e-004
2.264283e-005
8.671340e-005
6.396622e-005
2.995241e-005
7.910864e-006
-1.733998e-006
-4.149849e-006
-3.625700e-006
-2.431225e-006
-1.415933e-006
-7.480743e-007
-3.640219e-007
-1.630095e-007
-6.723822e-008
-2.993073e-008
-6.748561e-008
-1.147411e-007
-2.305365e-007
-4.620794e-007
-8.892988e-007
-1.624597e-006
-2.778737e-006
-4.329385e-006
-5.778679e-006
-5.488214e-006
1.718782e-007
1.690071e-005
4.915135e-005
8.865511e-005
9.004093e-005
-5.920348e-005
-5.272668e-004
-1.374744e-003
-2.099271e-003
-1.193268e-003
2.248671e-003
5.541070e-003
5.447075e-003
2.626040e-003
-3.468421e-004
-2.111479e-003
-2.724529e-003
-2.677759e-003
-2.360385e-003
-1.980316e-003
-1.625368e-003
-1.323233e-003
-1.076135e-003
-8.773249e-004
-7.180456e-004
-5.901486e-004
-4.868656e-004
-4.028594e-004
-3.340230e-004
-2.772228e-004
-2.300607e-004
-1.906829e-004
-1.576351e-004
-1.297597e-004
-1.061249e-004
-8.597427e-005
-6.869298e-005
-5.378204e-005
-4.083954e-005
-2.954550e-005
-1.964966e-005
-1.096123e-005
-3.340415e-006
3.308454e-006
9.042207e-006
1.388221e-005
1.781550e-005
2.079292e-005
2.272329e-005
2.346175e-005
2.278971e-005
2.038198e-005
1.575414e-005
8.178774e-006
-3.447732e-006
-2.081767e-005
-4.655189e-005
-8.474471e-005
-1.418333e-004
-2.279573e-004
-3.589681e-004
-5.590067e-004
-8.625422e-004
-1.311508e-003
-1.934218e-003
-2.671651e-003
-3.186437e-003
-2.569554e-003
3.608815e-004
4.666366e-003
5.810527e-003
2.126835e-003
-1.299507e-003
-1.664105e-003
-8.261281e-004
-1.929603e-004
5.173259e-005
8.406155e-005
5.226333e-005
2.048298e-005
3.036081e-006
-3.281065e-006
-4.095402e-006
-3.089110e-006
-1.910071e-006
-1.048179e-006
-5.257525e-007
-2.433340e-007
-1.056795e-007
-5.121560e-008
-1.140284e-007
-1.815719e-007
-3.453085e-007
-6.674097e-007
-1.248314e-006
-2.213900e-006
-3.637666e-006
-5.296173e-006
-6.106931e-006
-3.199841e-006
8.824628e-006
3.628982e-005
7.745708e-005
9.853569e-005
-6.032107e-006
-4.282434e-004
-1.298422e-003
-2.119888e-003
-1.005661e-003
3.129608e-003
6.037057e-003
4.034037e-003
3.738332e-005
-2.363006e-003
-2.856210e-003
-2.448447e-003
-1.840185e-003
-1.301869e-003
-8.925602e-004
-5.994257e-004
-3.942846e-004
-2.515307e-004
-1.518740e-004
-8.176882e-005
-3.196706e-005
3.785361e-006
2.971474e-005
4.868817e-005
6.266554e-005
7.300230e-005
8.065099e-005
8.629384e-005
9.042922e-005
9.342756e-005
9.556781e-005
9.706169e-005
9.807042e-005
9.871684e-005
9.909460e-005
9.927529e-005
9.931422e-005
9.925503e-005
9.913351e-005
9.898059e-005
9.882487e-005
9.869447e-005
9.861847e-005
9.862776e-005
9.875531e-005
9.903555e-005
9.950236e-005
1.001846e-004
1.010977e-004
1.022267e-004
1.034958e-004
1.047107e-004
1.054510e-004
1.048676e-004
1.012968e-004
9.152091e-005
6.936632e-005
2.311759e-005
-6.895747e-005
-2.453969e-004
-5.687992e-004
-1.123273e-003
-1.967085e-003
-2.943023e-003
-3.186289e-003
-8.218954e-004
4.120813e-003
5.860325e-003
1.816216e-003
-1.526151e-003
-1.528115e-003
-6.277419e-004
-8.670985e-005
7.643386e-005
7.432242e-005
3.783078e-005
1.124216e-005
-8.228781e-007
-4.056726e-006
-3.681390e-006
-2.461268e-006
-1.411911e-006
-7.308705e-007
-3.485670e-007
-1.576842e-007
-8.099931e-008
-1.766674e-007
-2.696670e-007
-4.928086e-007
-9.246046e-007
-1.684156e-006
-2.894970e-006
-4.536684e-006
-6.037931e-006
-5.447975e-006
1.660789e-006
2.219264e-005